Generated by CHARMM-GUI FF-Converter
81404
    1CHL1    C3    1   3.979   3.568   9.743
    1CHL1    H3    2   4.090   3.575   9.762
    1CHL1    O3    3   3.909   3.552   9.865
    1CHL1   H3'    4   3.980   3.552   9.931
    1CHL1    C4    5   3.933   3.698   9.676
    1CHL1   H4A    6   3.823   3.703   9.671
    1CHL1   H4B    7   3.962   3.785   9.741
    1CHL1    C5    8   3.992   3.706   9.537
    1CHL1    C6    9   4.072   3.805   9.503
    1CHL1    H6   10   4.091   3.875   9.583
    1CHL1    C7   11   4.134   3.822   9.366
    1CHL1   H7A   12   4.139   3.928   9.332
    1CHL1   H7B   13   4.237   3.781   9.371
    1CHL1    C8   14   4.051   3.744   9.260
    1CHL1    H8   15   3.950   3.790   9.250
    1CHL1   C14   16   4.121   3.746   9.125
    1CHL1   H14   17   4.219   3.696   9.146
    1CHL1   C15   18   4.156   3.883   9.058
    1CHL1  H15A   19   4.073   3.955   9.073
    1CHL1  H15B   20   4.250   3.927   9.097
    1CHL1   C16   21   4.169   3.851   8.909
    1CHL1  H16A   22   4.087   3.899   8.852
    1CHL1  H16B   23   4.265   3.888   8.866
    1CHL1   C17   24   4.151   3.697   8.899
    1CHL1   H17   25   4.251   3.652   8.923
    1CHL1   C13   26   4.057   3.659   9.016
    1CHL1   C18   27   3.914   3.706   8.977
    1CHL1  H18A   28   3.836   3.658   9.039
    1CHL1  H18B   29   3.906   3.815   8.988
    1CHL1  H18C   30   3.889   3.679   8.873
    1CHL1   C12   31   4.057   3.514   9.066
    1CHL1  H12A   32   4.000   3.450   8.996
    1CHL1  H12B   33   4.161   3.475   9.068
    1CHL1   C11   34   3.986   3.501   9.202
    1CHL1  H11A   35   3.877   3.516   9.188
    1CHL1  H11B   36   4.000   3.397   9.239
    1CHL1    C9   37   4.035   3.600   9.310
    1CHL1    H9   38   4.140   3.568   9.333
    1CHL1   C10   39   3.961   3.589   9.446
    1CHL1   C19   40   3.806   3.585   9.429
    1CHL1  H19A   41   3.751   3.574   9.525
    1CHL1  H19B   42   3.770   3.680   9.385
    1CHL1  H19C   43   3.773   3.500   9.367
    1CHL1    C1   44   4.016   3.463   9.518
    1CHL1   H1A   45   3.992   3.373   9.459
    1CHL1   H1B   46   4.127   3.469   9.524
    1CHL1    C2   47   3.956   3.443   9.658
    1CHL1   H2A   48   4.002   3.354   9.706
    1CHL1   H2B   49   3.848   3.421   9.646
    1CHL1   C20   50   4.116   3.652   8.759
    1CHL1   H20   51   4.027   3.707   8.720
    1CHL1   C21   52   4.090   3.500   8.752
    1CHL1  H21A   53   4.080   3.460   8.649
    1CHL1  H21B   54   3.994   3.476   8.800
    1CHL1  H21C   55   4.173   3.444   8.800
    1CHL1   C22   56   4.232   3.691   8.672
    1CHL1  H22A   57   4.241   3.802   8.661
    1CHL1  H22B   58   4.329   3.652   8.710
    1CHL1   C23   59   4.211   3.637   8.537
    1CHL1  H23A   60   4.233   3.528   8.524
    1CHL1  H23B   61   4.107   3.658   8.505
    1CHL1   C24   62   4.303   3.718   8.461
    1CHL1  H24A   63   4.294   3.828   8.456
    1CHL1  H24B   64   4.405   3.695   8.500
    1CHL1   C25   65   4.270   3.687   8.325
    1CHL1   H25   66   4.304   3.578   8.324
    1CHL1   C26   67   4.126   3.663   8.276
    1CHL1  H26A   68   4.091   3.767   8.280
    1CHL1  H26B   69   4.107   3.625   8.173
    1CHL1  H26C   70   4.076   3.579   8.328
    1CHL1   C27   71   4.350   3.808   8.257
    1CHL1  H27A   72   4.402   3.792   8.158
    1CHL1  H27B   73   4.341   3.865   8.165
    1CHL1  H27C   74   4.447   3.778   8.280
    2CHL1    C3   75   3.768   2.698   9.730
    2CHL1    H3   76   3.726   2.798   9.705
    2CHL1    O3   77   3.766   2.680   9.870
    2CHL1   H3'   78   3.677   2.651   9.891
    2CHL1    C4   79   3.685   2.588   9.662
    2CHL1   H4A   80   3.719   2.486   9.688
    2CHL1   H4B   81   3.580   2.596   9.701
    2CHL1    C5   82   3.693   2.610   9.513
    2CHL1    C6   83   3.583   2.628   9.446
    2CHL1    H6   84   3.494   2.612   9.505
    2CHL1    C7   85   3.572   2.659   9.299
    2CHL1   H7A   86   3.495   2.604   9.246
    2CHL1   H7B   87   3.543   2.765   9.288
    2CHL1    C8   88   3.697   2.636   9.221
    2CHL1    H8   89   3.740   2.536   9.208
    2CHL1   C14   90   3.685   2.691   9.080
    2CHL1   H14   91   3.672   2.802   9.091
    2CHL1   C15   92   3.573   2.638   8.993
    2CHL1  H15A   93   3.571   2.527   9.004
    2CHL1  H15B   94   3.474   2.675   9.024
    2CHL1   C16   95   3.617   2.678   8.852
    2CHL1  H16A   96   3.609   2.587   8.789
    2CHL1  H16B   97   3.559   2.762   8.809
    2CHL1   C17   98   3.765   2.725   8.861
    2CHL1   H17   99   3.768   2.835   8.877
    2CHL1   C13  100   3.808   2.670   8.995
    2CHL1   C18  101   3.824   2.517   8.963
    2CHL1  H18A  102   3.846   2.460   9.054
    2CHL1  H18B  103   3.742   2.465   8.910
    2CHL1  H18C  104   3.911   2.501   8.899
    2CHL1   C12  105   3.914   2.749   9.078
    2CHL1  H12A  106   4.012   2.747   9.028
    2CHL1  H12B  107   3.900   2.858   9.089
    2CHL1   C11  108   3.918   2.684   9.219
    2CHL1  H11A  109   3.937   2.575   9.220
    2CHL1  H11B  110   3.979   2.734   9.289
    2CHL1    C9  111   3.801   2.695   9.304
    2CHL1    H9  112   3.777   2.803   9.312
    2CHL1   C10  113   3.825   2.633   9.447
    2CHL1   C19  114   3.893   2.492   9.448
    2CHL1  H19A  115   3.902   2.444   9.547
    2CHL1  H19B  116   3.843   2.422   9.381
    2CHL1  H19C  117   3.994   2.501   9.409
    2CHL1    C1  118   3.912   2.730   9.530
    2CHL1   H1A  119   4.015   2.732   9.490
    2CHL1   H1B  120   3.874   2.834   9.515
    2CHL1    C2  121   3.912   2.696   9.680
    2CHL1   H2A  122   3.971   2.768   9.740
    2CHL1   H2B  123   3.952   2.594   9.695
    2CHL1   C20  124   3.846   2.689   8.733
    2CHL1   H20  125   3.859   2.579   8.722
    2CHL1   C21  126   3.982   2.756   8.739
    2CHL1  H21A  127   4.042   2.739   8.648
    2CHL1  H21B  128   4.037   2.716   8.821
    2CHL1  H21C  129   3.976   2.862   8.770
    2CHL1   C22  130   3.778   2.737   8.604
    2CHL1  H22A  131   3.673   2.704   8.608
    2CHL1  H22B  132   3.783   2.847   8.594
    2CHL1   C23  133   3.832   2.672   8.476
    2CHL1  H23A  134   3.941   2.688   8.462
    2CHL1  H23B  135   3.815   2.563   8.484
    2CHL1   C24  136   3.756   2.733   8.357
    2CHL1  H24A  137   3.647   2.711   8.366
    2CHL1  H24B  138   3.766   2.844   8.363
    2CHL1   C25  139   3.806   2.686   8.220
    2CHL1   H25  140   3.917   2.701   8.217
    2CHL1   C26  141   3.775   2.539   8.195
    2CHL1  H26A  142   3.840   2.472   8.255
    2CHL1  H26B  143   3.668   2.519   8.221
    2CHL1  H26C  144   3.788   2.519   8.087
    2CHL1   C27  145   3.743   2.767   8.106
    2CHL1  H27A  146   3.638   2.735   8.087
    2CHL1  H27B  147   3.744   2.875   8.130
    2CHL1  H27C  148   3.803   2.753   8.013
    3CHL1    C3  149   5.331   3.123   9.731
    3CHL1    H3  150   5.414   3.054   9.703
    3CHL1    O3  151   5.303   3.111   9.868
    3CHL1   H3'  152   5.389   3.103   9.909
    3CHL1    C4  153   5.378   3.265   9.700
    3CHL1   H4A  154   5.293   3.335   9.728
    3CHL1   H4B  155   5.463   3.295   9.762
    3CHL1    C5  156   5.423   3.268   9.554
    3CHL1    C6  157   5.532   3.323   9.507
    3CHL1    H6  158   5.606   3.363   9.578
    3CHL1    C7  159   5.550   3.338   9.358
    3CHL1   H7A  160   5.598   3.435   9.333
    3CHL1   H7B  161   5.607   3.247   9.334
    3CHL1    C8  162   5.436   3.317   9.256
    3CHL1    H8  163   5.375   3.410   9.257
    3CHL1   C14  164   5.472   3.293   9.106
    3CHL1   H14  165   5.547   3.210   9.111
    3CHL1   C15  166   5.532   3.409   9.030
    3CHL1  H15A  167   5.489   3.509   9.050
    3CHL1  H15B  168   5.625   3.408   9.072
    3CHL1   C16  169   5.536   3.373   8.882
    3CHL1  H16A  170   5.492   3.461   8.830
    3CHL1  H16B  171   5.638   3.358   8.842
    3CHL1   C17  172   5.447   3.245   8.872
    3CHL1   H17  173   5.514   3.157   8.881
    3CHL1   C13  174   5.367   3.248   9.004
    3CHL1   C18  175   5.268   3.367   8.977
    3CHL1  H18A  176   5.188   3.339   8.905
    3CHL1  H18B  177   5.227   3.413   9.066
    3CHL1  H18C  178   5.312   3.463   8.949
    3CHL1   C12  179   5.309   3.114   9.061
    3CHL1  H12A  180   5.215   3.088   9.008
    3CHL1  H12B  181   5.378   3.027   9.066
    3CHL1   C11  182   5.279   3.128   9.210
    3CHL1  H11A  183   5.248   3.228   9.193
    3CHL1  H11B  184   5.200   3.063   9.249
    3CHL1    C9  185   5.376   3.189   9.310
    3CHL1    H9  186   5.452   3.110   9.319
    3CHL1   C10  187   5.328   3.206   9.454
    3CHL1   C19  188   5.254   3.333   9.464
    3CHL1  H19A  189   5.283   3.435   9.434
    3CHL1  H19B  190   5.179   3.314   9.397
    3CHL1  H19C  191   5.204   3.329   9.559
    3CHL1    C1  192   5.248   3.080   9.504
    3CHL1   H1A  193   5.156   3.053   9.448
    3CHL1   H1B  194   5.321   2.998   9.488
    3CHL1    C2  195   5.209   3.080   9.652
    3CHL1   H2A  196   5.168   2.982   9.683
    3CHL1   H2B  197   5.130   3.151   9.673
    3CHL1   C20  198   5.378   3.237   8.733
    3CHL1   H20  199   5.324   3.332   8.711
    3CHL1   C21  200   5.273   3.123   8.725
    3CHL1  H21A  201   5.239   3.112   8.620
    3CHL1  H21B  202   5.182   3.151   8.783
    3CHL1  H21C  203   5.311   3.026   8.762
    3CHL1   C22  204   5.486   3.226   8.623
    3CHL1  H22A  205   5.544   3.321   8.620
    3CHL1  H22B  206   5.556   3.145   8.652
    3CHL1   C23  207   5.439   3.206   8.477
    3CHL1  H23A  208   5.386   3.109   8.465
    3CHL1  H23B  209   5.369   3.287   8.450
    3CHL1   C24  210   5.560   3.208   8.382
    3CHL1  H24A  211   5.610   3.308   8.392
    3CHL1  H24B  212   5.633   3.132   8.415
    3CHL1   C25  213   5.525   3.190   8.232
    3CHL1   H25  214   5.470   3.283   8.204
    3CHL1   C26  215   5.651   3.180   8.145
    3CHL1  H26A  216   5.710   3.274   8.145
    3CHL1  H26B  217   5.717   3.099   8.181
    3CHL1  H26C  218   5.619   3.156   8.041
    3CHL1   C27  219   5.435   3.070   8.195
    3CHL1  H27A  220   5.349   3.054   8.262
    3CHL1  H27B  221   5.395   3.088   8.092
    3CHL1  H27C  222   5.490   2.974   8.195
    4CHL1    C3  223   5.483   3.964   9.736
    4CHL1    H3  224   5.405   3.912   9.675
    4CHL1    O3  225   5.453   3.940   9.872
    4CHL1   H3'  226   5.422   3.848   9.873
    4CHL1    C4  227   5.624   3.918   9.702
    4CHL1   H4A  228   5.698   3.990   9.743
    4CHL1   H4B  229   5.644   3.820   9.749
    4CHL1    C5  230   5.644   3.917   9.553
    4CHL1    C6  231   5.664   3.804   9.484
    4CHL1    H6  232   5.667   3.710   9.539
    4CHL1    C7  233   5.694   3.800   9.338
    4CHL1   H7A  234   5.794   3.753   9.324
    4CHL1   H7B  235   5.621   3.736   9.285
    4CHL1    C8  236   5.703   3.940   9.271
    4CHL1    H8  237   5.806   3.980   9.285
    4CHL1   C14  238   5.671   3.929   9.123
    4CHL1   H14  239   5.563   3.898   9.115
    4CHL1   C15  240   5.748   3.821   9.046
    4CHL1  H15A  241   5.854   3.820   9.080
    4CHL1  H15B  242   5.705   3.720   9.060
    4CHL1   C16  243   5.727   3.866   8.900
    4CHL1  H16A  244   5.825   3.882   8.850
    4CHL1  H16B  245   5.663   3.794   8.846
    4CHL1   C17  246   5.647   4.000   8.902
    4CHL1   H17  247   5.540   3.971   8.902
    4CHL1   C13  248   5.683   4.057   9.041
    4CHL1   C18  249   5.829   4.109   9.038
    4CHL1  H18A  250   5.863   4.136   9.140
    4CHL1  H18B  251   5.902   4.039   8.995
    4CHL1  H18C  252   5.831   4.199   8.974
    4CHL1   C12  253   5.592   4.162   9.107
    4CHL1  H12A  254   5.601   4.263   9.065
    4CHL1  H12B  255   5.491   4.126   9.087
    4CHL1   C11  256   5.622   4.178   9.258
    4CHL1  H11A  257   5.722   4.221   9.264
    4CHL1  H11B  258   5.559   4.257   9.304
    4CHL1    C9  259   5.610   4.043   9.334
    4CHL1    H9  260   5.506   4.003   9.320
    4CHL1   C10  261   5.632   4.052   9.487
    4CHL1   C19  262   5.748   4.147   9.522
    4CHL1  H19A  263   5.840   4.097   9.491
    4CHL1  H19B  264   5.738   4.245   9.471
    4CHL1  H19C  265   5.749   4.170   9.631
    4CHL1    C1  266   5.510   4.112   9.545
    4CHL1   H1A  267   5.516   4.218   9.511
    4CHL1   H1B  268   5.423   4.061   9.497
    4CHL1    C2  269   5.479   4.109   9.698
    4CHL1   H2A  270   5.376   4.143   9.724
    4CHL1   H2B  271   5.549   4.177   9.749
    4CHL1   C20  272   5.667   4.086   8.777
    4CHL1   H20  273   5.771   4.125   8.778
    4CHL1   C21  274   5.564   4.199   8.781
    4CHL1  H21A  275   5.476   4.191   8.716
    4CHL1  H21B  276   5.608   4.275   8.720
    4CHL1  H21C  277   5.541   4.240   8.880
    4CHL1   C22  278   5.655   4.018   8.637
    4CHL1  H22A  279   5.712   3.923   8.640
    4CHL1  H22B  280   5.549   3.995   8.615
    4CHL1   C23  281   5.715   4.102   8.522
    4CHL1  H23A  282   5.640   4.171   8.477
    4CHL1  H23B  283   5.797   4.164   8.562
    4CHL1   C24  284   5.775   4.017   8.410
    4CHL1  H24A  285   5.855   3.952   8.452
    4CHL1  H24B  286   5.693   3.953   8.370
    4CHL1   C25  287   5.833   4.103   8.296
    4CHL1   H25  288   5.784   4.202   8.303
    4CHL1   C26  289   5.985   4.122   8.305
    4CHL1  H26A  290   6.035   4.023   8.306
    4CHL1  H26B  291   6.023   4.176   8.215
    4CHL1  H26C  292   6.014   4.181   8.394
    4CHL1   C27  293   5.799   4.039   8.161
    4CHL1  H27A  294   5.692   4.013   8.156
    4CHL1  H27B  295   5.822   4.108   8.077
    4CHL1  H27C  296   5.860   3.947   8.147
    5CHL1    C3  297   5.004   2.350   9.734
    5CHL1    H3  298   5.037   2.252   9.704
    5CHL1    O3  299   5.018   2.348   9.874
    5CHL1   H3'  300   4.956   2.279   9.905
    5CHL1    C4  301   5.099   2.457   9.679
    5CHL1   H4A  302   5.078   2.553   9.729
    5CHL1   H4B  303   5.202   2.426   9.710
    5CHL1    C5  304   5.089   2.473   9.530
    5CHL1    C6  305   5.195   2.458   9.454
    5CHL1    H6  306   5.287   2.434   9.503
    5CHL1    C7  307   5.188   2.446   9.306
    5CHL1   H7A  308   5.243   2.521   9.258
    5CHL1   H7B  309   5.233   2.355   9.263
    5CHL1    C8  310   5.065   2.506   9.244
    5CHL1    H8  311   5.068   2.618   9.254
    5CHL1   C14  312   5.066   2.471   9.098
    5CHL1   H14  313   5.086   2.362   9.091
    5CHL1   C15  314   5.172   2.533   9.021
    5CHL1  H15A  315   5.181   2.640   9.052
    5CHL1  H15B  316   5.262   2.467   9.036
    5CHL1   C16  317   5.130   2.539   8.879
    5CHL1  H16A  318   5.152   2.630   8.823
    5CHL1  H16B  319   5.197   2.471   8.847
    5CHL1   C17  320   4.994   2.474   8.877
    5CHL1   H17  321   5.013   2.364   8.868
    5CHL1   C13  322   4.947   2.511   9.019
    5CHL1   C18  323   4.925   2.665   9.022
    5CHL1  H18A  324   4.997   2.724   8.961
    5CHL1  H18B  325   4.823   2.681   8.983
    5CHL1  H18C  326   4.931   2.705   9.124
    5CHL1   C12  327   4.837   2.436   9.088
    5CHL1  H12A  328   4.742   2.459   9.038
    5CHL1  H12B  329   4.861   2.328   9.079
    5CHL1   C11  330   4.825   2.476   9.236
    5CHL1  H11A  331   4.809   2.586   9.244
    5CHL1  H11B  332   4.740   2.424   9.282
    5CHL1    C9  333   4.951   2.446   9.316
    5CHL1    H9  334   4.967   2.337   9.306
    5CHL1   C10  335   4.950   2.478   9.467
    5CHL1   C19  336   4.909   2.624   9.486
    5CHL1  H19A  337   4.974   2.690   9.424
    5CHL1  H19B  338   4.804   2.634   9.455
    5CHL1  H19C  339   4.917   2.655   9.592
    5CHL1    C1  340   4.848   2.383   9.534
    5CHL1   H1A  341   4.746   2.422   9.512
    5CHL1   H1B  342   4.861   2.285   9.483
    5CHL1    C2  343   4.858   2.360   9.685
    5CHL1   H2A  344   4.804   2.263   9.702
    5CHL1   H2B  345   4.803   2.439   9.739
    5CHL1   C20  346   4.914   2.513   8.755
    5CHL1   H20  347   4.894   2.622   8.751
    5CHL1   C21  348   4.792   2.425   8.761
    5CHL1  H21A  349   4.737   2.420   8.667
    5CHL1  H21B  350   4.728   2.458   8.843
    5CHL1  H21C  351   4.819   2.323   8.765
    5CHL1   C22  352   4.985   2.482   8.627
    5CHL1  H22A  353   5.068   2.559   8.626
    5CHL1  H22B  354   5.010   2.374   8.633
    5CHL1   C23  355   4.934   2.503   8.490
    5CHL1  H23A  356   4.994   2.467   8.408
    5CHL1  H23B  357   4.854   2.431   8.474
    5CHL1   C24  358   4.932   2.654   8.468
    5CHL1  H24A  359   4.837   2.692   8.499
    5CHL1  H24B  360   5.004   2.712   8.526
    5CHL1   C25  361   4.937   2.703   8.328
    5CHL1   H25  362   4.887   2.804   8.325
    5CHL1   C26  363   5.057   2.686   8.244
    5CHL1  H26A  364   5.081   2.576   8.242
    5CHL1  H26B  365   5.037   2.716   8.137
    5CHL1  H26C  366   5.128   2.752   8.291
    5CHL1   C27  367   4.863   2.618   8.250
    5CHL1  H27A  368   4.852   2.509   8.264
    5CHL1  H27B  369   4.771   2.665   8.266
    5CHL1  H27C  370   4.874   2.647   8.147
    6CHL1    C3  371   3.052   5.667   9.741
    6CHL1    H3  372   3.160   5.654   9.751
    6CHL1    O3  373   2.994   5.635   9.866
    6CHL1   H3'  374   3.005   5.539   9.871
    6CHL1    C4  375   3.027   5.815   9.711
    6CHL1   H4A  376   2.918   5.831   9.720
    6CHL1   H4B  377   3.077   5.876   9.789
    6CHL1    C5  378   3.066   5.858   9.573
    6CHL1    C6  379   3.151   5.960   9.552
    6CHL1    H6  380   3.199   6.009   9.638
    6CHL1    C7  381   3.177   6.021   9.418
    6CHL1   H7A  382   3.183   6.126   9.414
    6CHL1   H7B  383   3.285   6.034   9.397
    6CHL1    C8  384   3.079   5.964   9.308
    6CHL1    H8  385   2.983   6.015   9.313
    6CHL1   C14  386   3.134   5.994   9.169
    6CHL1   H14  387   3.206   5.934   9.208
    6CHL1   C15  388   3.241   6.102   9.132
    6CHL1  H15A  389   3.215   6.184   9.193
    6CHL1  H15B  390   3.343   6.091   9.173
    6CHL1   C16  391   3.246   6.097   8.976
    6CHL1  H16A  392   3.197   6.177   8.937
    6CHL1  H16B  393   3.342   6.124   8.930
    6CHL1   C17  394   3.170   5.968   8.922
    6CHL1   H17  395   3.246   5.901   8.883
    6CHL1   C13  396   3.087   5.914   9.047
    6CHL1   C18  397   2.960   5.968   9.037
    6CHL1  H18A  398   2.942   5.940   8.934
    6CHL1  H18B  399   2.876   5.946   9.107
    6CHL1  H18C  400   2.974   6.071   9.042
    6CHL1   C12  401   3.041   5.767   9.061
    6CHL1  H12A  402   2.959   5.743   8.989
    6CHL1  H12B  403   3.120   5.698   9.030
    6CHL1   C11  404   2.987   5.736   9.203
    6CHL1  H11A  405   2.880   5.765   9.204
    6CHL1  H11B  406   2.994   5.626   9.215
    6CHL1    C9  407   3.052   5.810   9.325
    6CHL1    H9  408   3.144   5.757   9.338
    6CHL1   C10  409   3.004   5.771   9.463
    6CHL1   C19  410   2.855   5.802   9.457
    6CHL1  H19A  411   2.844   5.900   9.408
    6CHL1  H19B  412   2.804   5.723   9.398
    6CHL1  H19C  413   2.808   5.808   9.556
    6CHL1    C1  414   3.039   5.619   9.492
    6CHL1   H1A  415   2.997   5.553   9.415
    6CHL1   H1B  416   3.148   5.595   9.485
    6CHL1    C2  417   2.995   5.575   9.632
    6CHL1   H2A  418   3.022   5.468   9.650
    6CHL1   H2B  419   2.885   5.585   9.634
    6CHL1   C20  420   3.123   5.962   8.779
    6CHL1   H20  421   3.042   6.022   8.786
    6CHL1   C21  422   3.070   5.820   8.737
    6CHL1  H21A  423   2.984   5.788   8.796
    6CHL1  H21B  424   3.137   5.739   8.763
    6CHL1  H21C  425   3.046   5.813   8.629
    6CHL1   C22  426   3.219   6.035   8.682
    6CHL1  H22A  427   3.267   6.126   8.720
    6CHL1  H22B  428   3.296   5.964   8.689
    6CHL1   C23  429   3.171   6.054   8.537
    6CHL1  H23A  430   3.134   5.957   8.502
    6CHL1  H23B  431   3.083   6.112   8.543
    6CHL1   C24  432   3.271   6.119   8.436
    6CHL1  H24A  433   3.308   6.213   8.481
    6CHL1  H24B  434   3.365   6.064   8.425
    6CHL1   C25  435   3.223   6.138   8.290
    6CHL1   H25  436   3.164   6.048   8.261
    6CHL1   C26  437   3.138   6.265   8.284
    6CHL1  H26A  438   3.199   6.349   8.322
    6CHL1  H26B  439   3.109   6.288   8.180
    6CHL1  H26C  440   3.049   6.256   8.348
    6CHL1   C27  441   3.339   6.157   8.186
    6CHL1  H27A  442   3.392   6.067   8.152
    6CHL1  H27B  443   3.300   6.194   8.090
    6CHL1  H27C  444   3.417   6.224   8.227
    7CHL1    C3  445   4.794   1.577   9.729
    7CHL1    H3  446   4.870   1.496   9.728
    7CHL1    O3  447   4.751   1.590   9.862
    7CHL1   H3'  448   4.826   1.611   9.921
    7CHL1    C4  449   4.855   1.710   9.686
    7CHL1   H4A  450   4.783   1.792   9.705
    7CHL1   H4B  451   4.944   1.735   9.748
    7CHL1    C5  452   4.897   1.702   9.542
    7CHL1    C6  453   5.021   1.729   9.507
    7CHL1    H6  454   5.089   1.769   9.582
    7CHL1    C7  455   5.068   1.720   9.366
    7CHL1   H7A  456   5.147   1.793   9.356
    7CHL1   H7B  457   5.122   1.626   9.346
    7CHL1    C8  458   4.953   1.728   9.261
    7CHL1    H8  459   4.901   1.827   9.271
    7CHL1   C14  460   5.013   1.701   9.121
    7CHL1   H14  461   5.052   1.598   9.132
    7CHL1   C15  462   5.143   1.763   9.057
    7CHL1  H15A  463   5.147   1.867   9.053
    7CHL1  H15B  464   5.230   1.785   9.117
    7CHL1   C16  465   5.117   1.783   8.909
    7CHL1  H16A  466   5.085   1.887   8.886
    7CHL1  H16B  467   5.212   1.781   8.856
    7CHL1   C17  468   5.005   1.675   8.887
    7CHL1   H17  469   5.065   1.585   8.895
    7CHL1   C13  470   4.916   1.680   9.010
    7CHL1   C18  471   4.831   1.792   8.989
    7CHL1  H18A  472   4.859   1.877   8.928
    7CHL1  H18B  473   4.757   1.750   8.920
    7CHL1  H18C  474   4.793   1.831   9.087
    7CHL1   C12  475   4.818   1.567   9.047
    7CHL1  H12A  476   4.739   1.551   8.971
    7CHL1  H12B  477   4.884   1.479   9.047
    7CHL1   C11  478   4.749   1.587   9.186
    7CHL1  H11A  479   4.672   1.665   9.190
    7CHL1  H11B  480   4.692   1.494   9.206
    7CHL1    C9  481   4.852   1.621   9.299
    7CHL1    H9  482   4.913   1.531   9.310
    7CHL1   C10  483   4.799   1.646   9.442
    7CHL1   C19  484   4.700   1.753   9.434
    7CHL1  H19A  485   4.715   1.833   9.358
    7CHL1  H19B  486   4.608   1.697   9.405
    7CHL1  H19C  487   4.673   1.805   9.528
    7CHL1    C1  488   4.727   1.520   9.496
    7CHL1   H1A  489   4.644   1.492   9.428
    7CHL1   H1B  490   4.804   1.440   9.495
    7CHL1    C2  491   4.676   1.538   9.639
    7CHL1   H2A  492   4.624   1.447   9.675
    7CHL1   H2B  493   4.598   1.616   9.642
    7CHL1   C20  494   4.938   1.672   8.750
    7CHL1   H20  495   4.867   1.753   8.752
    7CHL1   C21  496   4.842   1.571   8.707
    7CHL1  H21A  497   4.761   1.568   8.781
    7CHL1  H21B  498   4.906   1.483   8.694
    7CHL1  H21C  499   4.800   1.607   8.610
    7CHL1   C22  500   5.039   1.681   8.638
    7CHL1  H22A  501   5.058   1.780   8.677
    7CHL1  H22B  502   5.133   1.633   8.667
    7CHL1   C23  503   5.007   1.678   8.476
    7CHL1  H23A  504   4.994   1.572   8.462
    7CHL1  H23B  505   4.909   1.718   8.446
    7CHL1   C24  506   5.102   1.732   8.357
    7CHL1  H24A  507   5.141   1.837   8.336
    7CHL1  H24B  508   5.196   1.679   8.365
    7CHL1   C25  509   5.050   1.714   8.224
    7CHL1   H25  510   5.032   1.605   8.227
    7CHL1   C26  511   4.932   1.795   8.194
    7CHL1  H26A  512   4.933   1.905   8.204
    7CHL1  H26B  513   4.917   1.771   8.085
    7CHL1  H26C  514   4.849   1.758   8.258
    7CHL1   C27  515   5.155   1.765   8.131
    7CHL1  H27A  516   5.150   1.876   8.121
    7CHL1  H27B  517   5.252   1.737   8.176
    7CHL1  H27C  518   5.137   1.718   8.033
    8CHL1    C3  519   6.249   4.048   9.729
    8CHL1    H3  520   6.222   3.941   9.719
    8CHL1    O3  521   6.250   4.079   9.867
    8CHL1   H3'  522   6.312   4.015   9.907
    8CHL1    C4  523   6.388   4.074   9.668
    8CHL1   H4A  524   6.411   4.181   9.681
    8CHL1   H4B  525   6.466   4.019   9.723
    8CHL1    C5  526   6.392   4.045   9.520
    8CHL1    C6  527   6.487   3.968   9.470
    8CHL1    H6  528   6.562   3.918   9.533
    8CHL1    C7  529   6.499   3.958   9.323
    8CHL1   H7A  530   6.600   3.992   9.295
    8CHL1   H7B  531   6.476   3.854   9.313
    8CHL1    C8  532   6.412   4.040   9.225
    8CHL1    H8  533   6.458   4.140   9.224
    8CHL1   C14  534   6.411   3.998   9.075
    8CHL1   H14  535   6.354   3.900   9.073
    8CHL1   C15  536   6.546   3.993   8.993
    8CHL1  H15A  537   6.613   4.073   9.025
    8CHL1  H15B  538   6.618   3.913   8.992
    8CHL1   C16  539   6.503   3.984   8.847
    8CHL1  H16A  540   6.567   4.054   8.790
    8CHL1  H16B  541   6.517   3.881   8.805
    8CHL1   C17  542   6.352   4.017   8.848
    8CHL1   H17  543   6.297   3.920   8.851
    8CHL1   C13  544   6.327   4.084   8.985
    8CHL1   C18  545   6.393   4.222   8.977
    8CHL1  H18A  546   6.494   4.219   8.933
    8CHL1  H18B  547   6.333   4.283   8.908
    8CHL1  H18C  548   6.398   4.271   9.076
    8CHL1   C12  549   6.184   4.085   9.042
    8CHL1  H12A  550   6.122   4.155   8.984
    8CHL1  H12B  551   6.139   3.983   9.034
    8CHL1   C11  552   6.178   4.125   9.191
    8CHL1  H11A  553   6.197   4.234   9.197
    8CHL1  H11B  554   6.074   4.105   9.225
    8CHL1    C9  555   6.274   4.050   9.287
    8CHL1    H9  556   6.236   3.945   9.298
    8CHL1   C10  557   6.282   4.107   9.433
    8CHL1   C19  558   6.310   4.258   9.427
    8CHL1  H19A  559   6.217   4.308   9.393
    8CHL1  H19B  560   6.331   4.298   9.528
    8CHL1  H19C  561   6.393   4.286   9.360
    8CHL1    C1  562   6.145   4.086   9.504
    8CHL1   H1A  563   6.067   4.146   9.453
    8CHL1   H1B  564   6.117   3.979   9.499
    8CHL1    C2  565   6.143   4.128   9.652
    8CHL1   H2A  566   6.042   4.104   9.692
    8CHL1   H2B  567   6.156   4.238   9.660
    8CHL1   C20  568   6.309   4.085   8.718
    8CHL1   H20  569   6.364   4.181   8.708
    8CHL1   C21  570   6.157   4.108   8.719
    8CHL1  H21A  571   6.120   4.124   8.616
    8CHL1  H21B  572   6.131   4.196   8.780
    8CHL1  H21C  573   6.104   4.020   8.759
    8CHL1   C22  574   6.348   3.997   8.596
    8CHL1  H22A  575   6.457   3.977   8.600
    8CHL1  H22B  576   6.290   3.903   8.598
    8CHL1   C23  577   6.328   4.069   8.462
    8CHL1  H23A  578   6.224   4.103   8.448
    8CHL1  H23B  579   6.391   4.160   8.471
    8CHL1   C24  580   6.370   3.988   8.339
    8CHL1  H24A  581   6.469   3.940   8.350
    8CHL1  H24B  582   6.298   3.907   8.313
    8CHL1   C25  583   6.380   4.081   8.220
    8CHL1   H25  584   6.290   4.146   8.212
    8CHL1   C26  585   6.508   4.169   8.226
    8CHL1  H26A  586   6.521   4.235   8.138
    8CHL1  H26B  587   6.505   4.234   8.315
    8CHL1  H26C  588   6.597   4.104   8.232
    8CHL1   C27  589   6.382   3.997   8.097
    8CHL1  H27A  590   6.447   3.907   8.099
    8CHL1  H27B  591   6.283   3.971   8.054
    8CHL1  H27C  592   6.427   4.074   8.032
    9CHL1    C3  593   3.207   6.341   9.737
    9CHL1    H3  594   3.273   6.255   9.706
    9CHL1    O3  595   3.238   6.376   9.870
    9CHL1   H3'  596   3.213   6.298   9.919
    9CHL1    C4  597   3.232   6.463   9.646
    9CHL1   H4A  598   3.181   6.551   9.691
    9CHL1   H4B  599   3.341   6.486   9.655
    9CHL1    C5  600   3.189   6.439   9.502
    9CHL1    C6  601   3.271   6.464   9.400
    9CHL1    H6  602   3.366   6.514   9.420
    9CHL1    C7  603   3.239   6.438   9.255
    9CHL1   H7A  604   3.278   6.517   9.190
    9CHL1   H7B  605   3.295   6.348   9.226
    9CHL1    C8  606   3.089   6.417   9.225
    9CHL1    H8  607   3.033   6.512   9.230
    9CHL1   C14  608   3.068   6.358   9.082
    9CHL1   H14  609   3.089   6.255   9.089
    9CHL1   C15  610   3.141   6.408   8.957
    9CHL1  H15A  611   3.123   6.517   8.954
    9CHL1  H15B  612   3.247   6.379   8.964
    9CHL1   C16  613   3.073   6.339   8.834
    9CHL1  H16A  614   3.033   6.407   8.760
    9CHL1  H16B  615   3.141   6.271   8.780
    9CHL1   C17  616   2.965   6.247   8.897
    9CHL1   H17  617   3.019   6.159   8.900
    9CHL1   C13  618   2.939   6.312   9.037
    9CHL1   C18  619   2.865   6.438   9.005
    9CHL1  H18A  620   2.915   6.515   8.946
    9CHL1  H18B  621   2.775   6.424   8.945
    9CHL1  H18C  622   2.836   6.468   9.104
    9CHL1   C12  623   2.887   6.238   9.163
    9CHL1  H12A  624   2.793   6.262   9.134
    9CHL1  H12B  625   2.887   6.132   9.184
    9CHL1   C11  626   2.895   6.289   9.303
    9CHL1  H11A  627   2.830   6.376   9.308
    9CHL1  H11B  628   2.861   6.202   9.368
    9CHL1    C9  629   3.033   6.327   9.335
    9CHL1    H9  630   3.077   6.231   9.318
    9CHL1   C10  631   3.052   6.374   9.481
    9CHL1   C19  632   2.944   6.477   9.508
    9CHL1  H19A  633   2.940   6.554   9.428
    9CHL1  H19B  634   2.848   6.424   9.510
    9CHL1  H19C  635   2.957   6.526   9.606
    9CHL1    C1  636   3.029   6.260   9.583
    9CHL1   H1A  637   2.936   6.201   9.570
    9CHL1   H1B  638   3.110   6.194   9.564
    9CHL1    C2  639   3.061   6.295   9.728
    9CHL1   H2A  640   3.047   6.203   9.788
    9CHL1   H2B  641   2.996   6.377   9.765
    9CHL1   C20  642   2.860   6.182   8.805
    9CHL1   H20  643   2.822   6.287   8.798
    9CHL1   C21  644   2.767   6.051   8.850
    9CHL1  H21A  645   2.669   6.033   8.805
    9CHL1  H21B  646   2.742   6.065   8.957
    9CHL1  H21C  647   2.777   5.959   8.899
    9CHL1   C22  648   2.890   6.159   8.661
    9CHL1  H22A  649   2.964   6.229   8.620
    9CHL1  H22B  650   2.921   6.056   8.676
    9CHL1   C23  651   2.788   6.108   8.559
    9CHL1  H23A  652   2.719   6.032   8.601
    9CHL1  H23B  653   2.734   6.196   8.524
    9CHL1   C24  654   2.868   6.033   8.453
    9CHL1  H24A  655   2.929   6.108   8.400
    9CHL1  H24B  656   2.934   5.961   8.507
    9CHL1   C25  657   2.795   5.949   8.352
    9CHL1   H25  658   2.722   5.881   8.404
    9CHL1   C26  659   2.723   6.042   8.265
    9CHL1  H26A  660   2.667   5.982   8.189
    9CHL1  H26B  661   2.655   6.090   8.339
    9CHL1  H26C  662   2.774   6.126   8.216
    9CHL1   C27  663   2.889   5.868   8.265
    9CHL1  H27A  664   2.953   5.934   8.203
    9CHL1  H27B  665   2.953   5.804   8.329
    9CHL1  H27C  666   2.826   5.806   8.197
   10CHL1    C3  667   1.043   4.796   9.732
   10CHL1    H3  668   0.986   4.889   9.707
   10CHL1    O3  669   1.072   4.790   9.870
   10CHL1   H3'  670   1.100   4.880   9.895
   10CHL1    C4  671   0.961   4.671   9.695
   10CHL1   H4A  672   1.015   4.582   9.736
   10CHL1   H4B  673   0.863   4.677   9.745
   10CHL1    C5  674   0.944   4.655   9.547
   10CHL1    C6  675   0.826   4.638   9.493
   10CHL1    H6  676   0.740   4.625   9.559
   10CHL1    C7  677   0.808   4.615   9.347
   10CHL1   H7A  678   0.724   4.547   9.341
   10CHL1   H7B  679   0.766   4.702   9.295
   10CHL1    C8  680   0.940   4.577   9.274
   10CHL1    H8  681   0.968   4.471   9.298
   10CHL1   C14  682   0.931   4.606   9.125
   10CHL1   H14  683   0.909   4.713   9.109
   10CHL1   C15  684   0.820   4.545   9.056
   10CHL1  H15A  685   0.842   4.463   9.123
   10CHL1  H15B  686   0.715   4.576   9.070
   10CHL1   C16  687   0.869   4.509   8.919
   10CHL1  H16A  688   0.886   4.400   8.898
   10CHL1  H16B  689   0.799   4.559   8.850
   10CHL1   C17  690   1.000   4.571   8.899
   10CHL1   H17  691   0.971   4.675   8.877
   10CHL1   C13  692   1.051   4.568   9.039
   10CHL1   C18  693   1.093   4.427   9.058
   10CHL1  H18A  694   1.025   4.341   9.040
   10CHL1  H18B  695   1.191   4.411   9.007
   10CHL1  H18C  696   1.106   4.417   9.163
   10CHL1   C12  697   1.154   4.670   9.073
   10CHL1  H12A  698   1.250   4.653   9.021
   10CHL1  H12B  699   1.110   4.764   9.036
   10CHL1   C11  700   1.174   4.675   9.225
   10CHL1  H11A  701   1.235   4.587   9.253
   10CHL1  H11B  702   1.236   4.764   9.244
   10CHL1    C9  703   1.045   4.676   9.314
   10CHL1    H9  704   0.992   4.773   9.300
   10CHL1   C10  705   1.068   4.672   9.463
   10CHL1   C19  706   1.153   4.557   9.492
   10CHL1  H19A  707   1.160   4.539   9.601
   10CHL1  H19B  708   1.121   4.461   9.452
   10CHL1  H19C  709   1.257   4.582   9.459
   10CHL1    C1  710   1.144   4.796   9.505
   10CHL1   H1A  711   1.239   4.803   9.449
   10CHL1   H1B  712   1.077   4.879   9.475
   10CHL1    C2  713   1.174   4.801   9.655
   10CHL1   H2A  714   1.225   4.896   9.677
   10CHL1   H2B  715   1.238   4.717   9.691
   10CHL1   C20  716   1.082   4.505   8.787
   10CHL1   H20  717   1.125   4.406   8.816
   10CHL1   C21  718   1.189   4.608   8.757
   10CHL1  H21A  719   1.216   4.596   8.650
   10CHL1  H21B  720   1.276   4.595   8.823
   10CHL1  H21C  721   1.147   4.710   8.772
   10CHL1   C22  722   1.005   4.470   8.658
   10CHL1  H22A  723   1.070   4.417   8.585
   10CHL1  H22B  724   0.939   4.388   8.691
   10CHL1   C23  725   0.939   4.594   8.594
   10CHL1  H23A  726   0.876   4.645   8.669
   10CHL1  H23B  727   1.017   4.663   8.557
   10CHL1   C24  728   0.856   4.571   8.471
   10CHL1  H24A  729   0.784   4.497   8.501
   10CHL1  H24B  730   0.783   4.650   8.445
   10CHL1   C25  731   0.941   4.523   8.354
   10CHL1   H25  732   0.999   4.429   8.375
   10CHL1   C26  733   0.854   4.475   8.258
   10CHL1  H26A  734   0.796   4.547   8.196
   10CHL1  H26B  735   0.890   4.399   8.188
   10CHL1  H26C  736   0.785   4.424   8.327
   10CHL1   C27  737   0.996   4.626   8.262
   10CHL1  H27A  738   1.069   4.685   8.315
   10CHL1  H27B  739   1.041   4.569   8.179
   10CHL1  H27C  740   0.916   4.690   8.216
   11CHL1    C3  741   2.351   1.039   9.735
   11CHL1    H3  742   2.323   1.145   9.714
   11CHL1    O3  743   2.370   1.019   9.874
   11CHL1   H3'  744   2.418   1.095   9.907
   11CHL1    C4  745   2.238   0.950   9.686
   11CHL1   H4A  746   2.267   0.844   9.703
   11CHL1   H4B  747   2.148   0.969   9.745
   11CHL1    C5  748   2.216   0.983   9.541
   11CHL1    C6  749   2.100   1.023   9.493
   11CHL1    H6  750   2.012   1.022   9.557
   11CHL1    C7  751   2.081   1.048   9.349
   11CHL1   H7A  752   1.976   1.038   9.349
   11CHL1   H7B  753   2.068   1.152   9.313
   11CHL1    C8  754   2.184   0.970   9.258
   11CHL1    H8  755   2.161   0.860   9.256
   11CHL1   C14  756   2.189   1.025   9.118
   11CHL1   H14  757   2.179   1.136   9.121
   11CHL1   C15  758   2.073   0.983   9.062
   11CHL1  H15A  759   2.050   0.878   9.094
   11CHL1  H15B  760   1.995   1.020   9.111
   11CHL1   C16  761   2.092   1.007   8.916
   11CHL1  H16A  762   2.053   0.913   8.897
   11CHL1  H16B  763   2.036   1.052   8.841
   11CHL1   C17  764   2.227   1.047   8.883
   11CHL1   H17  765   2.227   1.156   8.895
   11CHL1   C13  766   2.283   0.984   9.003
   11CHL1   C18  767   2.269   0.848   8.946
   11CHL1  H18A  768   2.180   0.809   8.992
   11CHL1  H18B  769   2.270   0.800   8.849
   11CHL1  H18C  770   2.354   0.792   8.976
   11CHL1   C12  771   2.416   1.008   9.053
   11CHL1  H12A  772   2.484   0.950   8.987
   11CHL1  H12B  773   2.424   1.117   9.039
   11CHL1   C11  774   2.431   0.964   9.201
   11CHL1  H11A  775   2.447   0.854   9.202
   11CHL1  H11B  776   2.525   1.013   9.230
   11CHL1    C9  777   2.319   1.002   9.305
   11CHL1    H9  778   2.315   1.114   9.304
   11CHL1   C10  779   2.338   0.968   9.456
   11CHL1   C19  780   2.373   0.824   9.478
   11CHL1  H19A  781   2.402   0.781   9.574
   11CHL1  H19B  782   2.277   0.771   9.454
   11CHL1  H19C  783   2.457   0.797   9.412
   11CHL1    C1  784   2.452   1.048   9.511
   11CHL1   H1A  785   2.526   1.022   9.437
   11CHL1   H1B  786   2.440   1.156   9.497
   11CHL1    C2  787   2.480   1.013   9.658
   11CHL1   H2A  788   2.552   1.080   9.707
   11CHL1   H2B  789   2.522   0.910   9.670
   11CHL1   C20  790   2.253   1.001   8.738
   11CHL1   H20  791   2.211   0.899   8.715
   11CHL1   C21  792   2.402   1.008   8.710
   11CHL1  H21A  793   2.456   0.927   8.760
   11CHL1  H21B  794   2.434   1.109   8.743
   11CHL1  H21C  795   2.425   0.996   8.603
   11CHL1   C22  796   2.182   1.086   8.636
   11CHL1  H22A  797   2.076   1.063   8.655
   11CHL1  H22B  798   2.200   1.192   8.655
   11CHL1   C23  799   2.229   1.045   8.494
   11CHL1  H23A  800   2.318   1.097   8.460
   11CHL1  H23B  801   2.240   0.933   8.495
   11CHL1   C24  802   2.139   1.081   8.381
   11CHL1  H24A  803   2.081   1.033   8.457
   11CHL1  H24B  804   2.069   1.163   8.381
   11CHL1   C25  805   2.157   1.019   8.237
   11CHL1   H25  806   2.254   1.064   8.213
   11CHL1   C26  807   2.191   0.857   8.234
   11CHL1  H26A  808   2.111   0.779   8.246
   11CHL1  H26B  809   2.208   0.822   8.131
   11CHL1  H26C  810   2.235   0.809   8.324
   11CHL1   C27  811   2.063   1.095   8.123
   11CHL1  H27A  812   2.091   1.087   8.017
   11CHL1  H27B  813   1.975   1.049   8.076
   11CHL1  H27C  814   1.995   1.175   8.162
   12CHL1    C3  815   0.824   2.864   9.741
   12CHL1    H3  816   0.918   2.917   9.766
   12CHL1    O3  817   0.759   2.882   9.864
   12CHL1   H3'  818   0.687   2.817   9.865
   12CHL1    C4  819   0.738   2.918   9.618
   12CHL1   H4A  820   0.632   2.888   9.625
   12CHL1   H4B  821   0.734   3.028   9.638
   12CHL1    C5  822   0.788   2.884   9.476
   12CHL1    C6  823   0.794   2.970   9.371
   12CHL1    H6  824   0.754   3.070   9.376
   12CHL1    C7  825   0.877   2.969   9.247
   12CHL1   H7A  826   0.834   3.042   9.176
   12CHL1   H7B  827   0.985   3.001   9.254
   12CHL1    C8  828   0.881   2.825   9.216
   12CHL1    H8  829   0.776   2.793   9.198
   12CHL1   C14  830   0.963   2.819   9.094
   12CHL1   H14  831   1.068   2.850   9.114
   12CHL1   C15  832   0.910   2.897   8.973
   12CHL1  H15A  833   0.800   2.887   8.966
   12CHL1  H15B  834   0.949   2.999   8.972
   12CHL1   C16  835   0.962   2.828   8.852
   12CHL1  H16A  836   0.881   2.794   8.782
   12CHL1  H16B  837   1.036   2.884   8.795
   12CHL1   C17  838   1.032   2.714   8.911
   12CHL1   H17  839   1.134   2.721   8.958
   12CHL1   C13  840   0.971   2.683   9.051
   12CHL1   C18  841   0.828   2.629   9.029
   12CHL1  H18A  842   0.833   2.538   8.972
   12CHL1  H18B  843   0.775   2.611   9.124
   12CHL1  H18C  844   0.765   2.686   8.961
   12CHL1   C12  845   1.067   2.616   9.158
   12CHL1  H12A  846   1.118   2.525   9.124
   12CHL1  H12B  847   1.161   2.674   9.168
   12CHL1   C11  848   0.994   2.607   9.292
   12CHL1  H11A  849   0.908   2.539   9.286
   12CHL1  H11B  850   1.059   2.568   9.372
   12CHL1    C9  851   0.944   2.746   9.333
   12CHL1    H9  852   1.038   2.802   9.354
   12CHL1   C10  853   0.858   2.750   9.463
   12CHL1   C19  854   0.736   2.657   9.456
   12CHL1  H19A  855   0.767   2.552   9.465
   12CHL1  H19B  856   0.666   2.678   9.540
   12CHL1  H19C  857   0.682   2.671   9.361
   12CHL1    C1  858   0.942   2.707   9.586
   12CHL1   H1A  859   0.969   2.600   9.570
   12CHL1   H1B  860   1.037   2.765   9.588
   12CHL1    C2  861   0.870   2.720   9.722
   12CHL1   H2A  862   0.941   2.696   9.804
   12CHL1   H2B  863   0.783   2.653   9.730
   12CHL1   C20  864   1.031   2.619   8.794
   12CHL1   H20  865   0.921   2.587   8.799
   12CHL1   C21  866   1.124   2.542   8.872
   12CHL1  H21A  867   1.133   2.444   8.847
   12CHL1  H21B  868   1.045   2.523   8.939
   12CHL1  H21C  869   1.226   2.512   8.882
   12CHL1   C22  870   1.083   2.641   8.644
   12CHL1  H22A  871   1.024   2.727   8.614
   12CHL1  H22B  872   1.186   2.649   8.678
   12CHL1   C23  873   1.092   2.544   8.517
   12CHL1  H23A  874   1.183   2.472   8.512
   12CHL1  H23B  875   0.999   2.492   8.497
   12CHL1   C24  876   1.153   2.564   8.394
   12CHL1  H24A  877   1.241   2.613   8.432
   12CHL1  H24B  878   1.184   2.475   8.330
   12CHL1   C25  879   1.063   2.661   8.339
   12CHL1   H25  880   1.057   2.745   8.413
   12CHL1   C26  881   1.148   2.689   8.229
   12CHL1  H26A  882   1.122   2.779   8.175
   12CHL1  H26B  883   1.223   2.722   8.301
   12CHL1  H26C  884   1.200   2.607   8.174
   12CHL1   C27  885   0.933   2.614   8.289
   12CHL1  H27A  886   0.870   2.570   8.369
   12CHL1  H27B  887   0.886   2.697   8.235
   12CHL1  H27C  888   0.964   2.539   8.215
   13CHL1    C3  889   6.473   4.842   9.736
   13CHL1    H3  890   6.548   4.924   9.737
   13CHL1    O3  891   6.445   4.798   9.867
   13CHL1   H3'  892   6.481   4.868   9.924
   13CHL1    C4  893   6.344   4.893   9.677
   13CHL1   H4A  894   6.262   4.819   9.681
   13CHL1   H4B  895   6.312   4.983   9.735
   13CHL1    C5  896   6.358   4.918   9.532
   13CHL1    C6  897   6.305   5.023   9.480
   13CHL1    H6  898   6.288   5.112   9.549
   13CHL1    C7  899   6.337   5.030   9.333
   13CHL1   H7A  900   6.278   5.110   9.349
   13CHL1   H7B  901   6.412   5.089   9.264
   13CHL1    C8  902   6.369   4.943   9.222
   13CHL1    H8  903   6.264   4.915   9.223
   13CHL1   C14  904   6.422   5.003   9.078
   13CHL1   H14  905   6.516   5.063   9.090
   13CHL1   C15  906   6.344   5.086   8.974
   13CHL1  H15A  907   6.236   5.064   8.987
   13CHL1  H15B  908   6.378   5.189   8.994
   13CHL1   C16  909   6.366   5.094   8.841
   13CHL1  H16A  910   6.260   5.084   8.801
   13CHL1  H16B  911   6.406   5.196   8.813
   13CHL1   C17  912   6.458   4.977   8.856
   13CHL1   H17  913   6.559   5.020   8.863
   13CHL1   C13  914   6.441   4.901   8.988
   13CHL1   C18  915   6.311   4.829   8.977
   13CHL1  H18A  916   6.300   4.782   9.072
   13CHL1  H18B  917   6.217   4.885   8.957
   13CHL1  H18C  918   6.317   4.749   8.906
   13CHL1   C12  919   6.556   4.827   9.056
   13CHL1  H12A  920   6.591   4.755   8.983
   13CHL1  H12B  921   6.636   4.901   9.081
   13CHL1   C11  922   6.519   4.756   9.189
   13CHL1  H11A  923   6.443   4.681   9.168
   13CHL1  H11B  924   6.611   4.712   9.232
   13CHL1    C9  925   6.469   4.855   9.292
   13CHL1    H9  926   6.571   4.893   9.308
   13CHL1   C10  927   6.436   4.818   9.441
   13CHL1   C19  928   6.335   4.714   9.418
   13CHL1  H19A  929   6.305   4.657   9.508
   13CHL1  H19B  930   6.258   4.782   9.381
   13CHL1  H19C  931   6.348   4.647   9.333
   13CHL1    C1  932   6.561   4.767   9.514
   13CHL1   H1A  933   6.604   4.683   9.456
   13CHL1   H1B  934   6.635   4.850   9.515
   13CHL1    C2  935   6.532   4.725   9.658
   13CHL1   H2A  936   6.625   4.691   9.706
   13CHL1   H2B  937   6.458   4.641   9.660
   13CHL1   C20  938   6.426   4.902   8.736
   13CHL1   H20  939   6.318   4.872   8.729
   13CHL1   C21  940   6.515   4.780   8.728
   13CHL1  H21A  941   6.489   4.707   8.806
   13CHL1  H21B  942   6.620   4.814   8.737
   13CHL1  H21C  943   6.499   4.727   8.633
   13CHL1   C22  944   6.451   4.999   8.623
   13CHL1  H22A  945   6.374   5.081   8.621
   13CHL1  H22B  946   6.550   5.048   8.635
   13CHL1   C23  947   6.443   4.920   8.493
   13CHL1  H23A  948   6.527   4.851   8.485
   13CHL1  H23B  949   6.346   4.863   8.498
   13CHL1   C24  950   6.464   5.014   8.375
   13CHL1  H24A  951   6.400   5.076   8.431
   13CHL1  H24B  952   6.531   5.098   8.370
   13CHL1   C25  953   6.448   4.965   8.228
   13CHL1   H25  954   6.367   4.885   8.242
   13CHL1   C26  955   6.431   5.071   8.101
   13CHL1  H26A  956   6.465   5.054   7.998
   13CHL1  H26B  957   6.326   5.102   8.081
   13CHL1  H26C  958   6.457   5.172   8.095
   13CHL1   C27  959   6.550   4.877   8.188
   13CHL1  H27A  960   6.494   4.826   8.109
   13CHL1  H27B  961   6.619   4.960   8.162
   13CHL1  H27C  962   6.570   4.809   8.273
   14CHL1    C3  963   4.527   0.740   9.731
   14CHL1    H3  964   4.568   0.643   9.692
   14CHL1    O3  965   4.542   0.742   9.871
   14CHL1   H3'  966   4.513   0.830   9.896
   14CHL1    C4  967   4.606   0.858   9.673
   14CHL1   H4A  968   4.574   0.954   9.719
   14CHL1   H4B  969   4.712   0.843   9.703
   14CHL1    C5  970   4.589   0.861   9.522
   14CHL1    C6  971   4.694   0.844   9.442
   14CHL1    H6  972   4.794   0.835   9.487
   14CHL1    C7  973   4.682   0.838   9.292
   14CHL1   H7A  974   4.772   0.879   9.243
   14CHL1   H7B  975   4.678   0.730   9.265
   14CHL1    C8  976   4.552   0.905   9.239
   14CHL1    H8  977   4.559   1.015   9.254
   14CHL1   C14  978   4.531   0.875   9.091
   14CHL1   H14  979   4.520   0.763   9.087
   14CHL1   C15  980   4.646   0.902   8.992
   14CHL1  H15A  981   4.696   1.001   9.005
   14CHL1  H15B  982   4.722   0.821   8.998
   14CHL1   C16  983   4.575   0.897   8.856
   14CHL1  H16A  984   4.588   0.994   8.802
   14CHL1  H16B  985   4.620   0.815   8.798
   14CHL1   C17  986   4.422   0.873   8.883
   14CHL1   H17  987   4.409   0.763   8.892
   14CHL1   C13  988   4.402   0.927   9.027
   14CHL1   C18  989   4.402   1.081   9.020
   14CHL1  H18A  990   4.477   1.116   8.946
   14CHL1  H18B  991   4.302   1.116   8.986
   14CHL1  H18C  992   4.425   1.127   9.118
   14CHL1   C12  993   4.281   0.876   9.108
   14CHL1  H12A  994   4.186   0.925   9.076
   14CHL1  H12B  995   4.271   0.767   9.090
   14CHL1   C11  996   4.295   0.906   9.258
   14CHL1  H11A  997   4.288   1.016   9.272
   14CHL1  H11B  998   4.207   0.863   9.311
   14CHL1    C9  999   4.430   0.854   9.317
   14CHL1    H9 1000   4.428   0.744   9.297
   14CHL1   C10 1001   4.445   0.873   9.471
   14CHL1   C19 1002   4.391   1.013   9.507
   14CHL1  H19A 1003   4.281   1.011   9.495
   14CHL1  H19B 1004   4.410   1.040   9.613
   14CHL1  H19C 1005   4.432   1.092   9.440
   14CHL1    C1 1006   4.358   0.765   9.542
   14CHL1   H1A 1007   4.251   0.791   9.524
   14CHL1   H1B 1008   4.380   0.668   9.493
   14CHL1    C2 1009   4.379   0.753   9.694
   14CHL1   H2A 1010   4.321   0.666   9.733
   14CHL1   H2B 1011   4.341   0.846   9.742
   14CHL1   C20 1012   4.331   0.922   8.767
   14CHL1   H20 1013   4.324   1.033   8.772
   14CHL1   C21 1014   4.187   0.865   8.783
   14CHL1  H21A 1015   4.183   0.755   8.763
   14CHL1  H21B 1016   4.118   0.913   8.711
   14CHL1  H21C 1017   4.147   0.885   8.883
   14CHL1   C22 1018   4.385   0.890   8.624
   14CHL1  H22A 1019   4.495   0.874   8.623
   14CHL1  H22B 1020   4.340   0.793   8.593
   14CHL1   C23 1021   4.359   1.002   8.520
   14CHL1  H23A 1022   4.332   0.958   8.421
   14CHL1  H23B 1023   4.268   1.058   8.550
   14CHL1   C24 1024   4.475   1.105   8.501
   14CHL1  H24A 1025   4.438   1.187   8.436
   14CHL1  H24B 1026   4.505   1.148   8.599
   14CHL1   C25 1027   4.605   1.063   8.430
   14CHL1   H25 1028   4.656   0.983   8.489
   14CHL1   C26 1029   4.579   1.010   8.290
   14CHL1  H26A 1030   4.677   0.975   8.255
   14CHL1  H26B 1031   4.510   0.924   8.291
   14CHL1  H26C 1032   4.542   1.088   8.219
   14CHL1   C27 1033   4.702   1.183   8.418
   14CHL1  H27A 1034   4.646   1.275   8.389
   14CHL1  H27B 1035   4.753   1.202   8.515
   14CHL1  H27C 1036   4.780   1.165   8.341
   15CHL1    C3 1037   3.751   0.560   9.735
   15CHL1    H3 1038   3.643   0.531   9.736
   15CHL1    O3 1039   3.786   0.613   9.861
   15CHL1   H3' 1040   3.752   0.549   9.925
   15CHL1    C4 1041   3.838   0.438   9.706
   15CHL1   H4A 1042   3.945   0.464   9.717
   15CHL1   H4B 1043   3.816   0.362   9.785
   15CHL1    C5 1044   3.808   0.385   9.567
   15CHL1    C6 1045   3.772   0.258   9.550
   15CHL1    H6 1046   3.770   0.188   9.635
   15CHL1    C7 1047   3.742   0.206   9.414
   15CHL1   H7A 1048   3.814   0.126   9.389
   15CHL1   H7B 1049   3.639   0.168   9.410
   15CHL1    C8 1050   3.773   0.294   9.289
   15CHL1    H8 1051   3.878   0.270   9.267
   15CHL1   C14 1052   3.690   0.263   9.167
   15CHL1   H14 1053   3.578   0.273   9.188
   15CHL1   C15 1054   3.708   0.129   9.126
   15CHL1  H15A 1055   3.808   0.082   9.130
   15CHL1  H15B 1056   3.657   0.101   9.212
   15CHL1   C16 1057   3.625   0.110   9.000
   15CHL1  H16A 1058   3.682   0.046   8.933
   15CHL1  H16B 1059   3.521   0.072   9.025
   15CHL1   C17 1060   3.628   0.242   8.937
   15CHL1   H17 1061   3.520   0.255   8.953
   15CHL1   C13 1062   3.728   0.317   9.032
   15CHL1   C18 1063   3.868   0.285   8.988
   15CHL1  H18A 1064   3.881   0.357   8.905
   15CHL1  H18B 1065   3.936   0.310   9.071
   15CHL1  H18C 1066   3.883   0.182   8.952
   15CHL1   C12 1067   3.738   0.465   9.042
   15CHL1  H12A 1068   3.728   0.543   8.967
   15CHL1  H12B 1069   3.640   0.441   9.013
   15CHL1   C11 1070   3.786   0.523   9.178
   15CHL1  H11A 1071   3.893   0.535   9.162
   15CHL1  H11B 1072   3.736   0.621   9.198
   15CHL1    C9 1073   3.769   0.439   9.309
   15CHL1    H9 1074   3.671   0.466   9.301
   15CHL1   C10 1075   3.812   0.489   9.450
   15CHL1   C19 1076   3.954   0.531   9.422
   15CHL1  H19A 1077   3.999   0.571   9.514
   15CHL1  H19B 1078   4.010   0.444   9.383
   15CHL1  H19C 1079   3.950   0.613   9.347
   15CHL1    C1 1080   3.735   0.617   9.492
   15CHL1   H1A 1081   3.742   0.696   9.415
   15CHL1   H1B 1082   3.631   0.589   9.499
   15CHL1    C2 1083   3.768   0.671   9.631
   15CHL1   H2A 1084   3.698   0.753   9.659
   15CHL1   H2B 1085   3.871   0.711   9.630
   15CHL1   C20 1086   3.653   0.240   8.786
   15CHL1   H20 1087   3.753   0.200   8.764
   15CHL1   C21 1088   3.635   0.378   8.738
   15CHL1  H21A 1089   3.689   0.453   8.795
   15CHL1  H21B 1090   3.526   0.382   8.759
   15CHL1  H21C 1091   3.645   0.393   8.629
   15CHL1   C22 1092   3.542   0.168   8.708
   15CHL1  H22A 1093   3.561   0.076   8.747
   15CHL1  H22B 1094   3.438   0.181   8.742
   15CHL1   C23 1095   3.562   0.149   8.557
   15CHL1  H23A 1096   3.542   0.248   8.513
   15CHL1  H23B 1097   3.667   0.119   8.536
   15CHL1   C24 1098   3.462   0.051   8.495
   15CHL1  H24A 1099   3.509  -0.046   8.479
   15CHL1  H24B 1100   3.374   0.034   8.560
   15CHL1   C25 1101   3.427   0.081   8.351
   15CHL1   H25 1102   3.387   0.183   8.340
   15CHL1   C26 1103   3.545   0.065   8.257
   15CHL1  H26A 1104   3.593  -0.031   8.276
   15CHL1  H26B 1105   3.515   0.065   8.149
   15CHL1  H26C 1106   3.613   0.149   8.275
   15CHL1   C27 1107   3.329  -0.016   8.298
   15CHL1  H27A 1108   3.341   0.005   8.190
   15CHL1  H27B 1109   3.350  -0.123   8.302
   15CHL1  H27C 1110   3.225   0.006   8.332
   16CHL1    C3 1111   5.327   0.939   9.733
   16CHL1    H3 1112   5.230   0.925   9.680
   16CHL1    O3 1113   5.300   0.917   9.870
   16CHL1   H3' 1114   5.214   0.961   9.882
   16CHL1    C4 1115   5.432   0.843   9.672
   16CHL1   H4A 1116   5.531   0.854   9.721
   16CHL1   H4B 1117   5.398   0.738   9.698
   16CHL1    C5 1118   5.437   0.876   9.522
   16CHL1    C6 1119   5.396   0.776   9.438
   16CHL1    H6 1120   5.371   0.675   9.476
   16CHL1    C7 1121   5.377   0.795   9.290
   16CHL1   H7A 1122   5.406   0.708   9.225
   16CHL1   H7B 1123   5.269   0.815   9.269
   16CHL1    C8 1124   5.454   0.917   9.239
   16CHL1    H8 1125   5.561   0.885   9.229
   16CHL1   C14 1126   5.394   0.965   9.107
   16CHL1   H14 1127   5.291   1.000   9.131
   16CHL1   C15 1128   5.370   0.863   9.000
   16CHL1  H15A 1129   5.473   0.832   9.006
   16CHL1  H15B 1130   5.303   0.777   9.015
   16CHL1   C16 1131   5.347   0.938   8.870
   16CHL1  H16A 1132   5.418   0.897   8.795
   16CHL1  H16B 1133   5.245   0.923   8.834
   16CHL1   C17 1134   5.366   1.088   8.912
   16CHL1   H17 1135   5.270   1.115   8.961
   16CHL1   C13 1136   5.468   1.077   9.034
   16CHL1   C18 1137   5.617   1.020   9.016
   16CHL1  H18A 1138   5.673   0.996   9.106
   16CHL1  H18B 1139   5.625   0.936   8.946
   16CHL1  H18C 1140   5.691   1.092   8.984
   16CHL1   C12 1141   5.465   1.198   9.120
   16CHL1  H12A 1142   5.538   1.277   9.094
   16CHL1  H12B 1143   5.363   1.239   9.128
   16CHL1   C11 1144   5.508   1.161   9.254
   16CHL1  H11A 1145   5.618   1.136   9.237
   16CHL1  H11B 1146   5.495   1.257   9.309
   16CHL1    C9 1147   5.434   1.042   9.325
   16CHL1    H9 1148   5.325   1.060   9.328
   16CHL1   C10 1149   5.463   1.031   9.474
   16CHL1   C19 1150   5.588   1.118   9.468
   16CHL1  H19A 1151   5.632   1.051   9.396
   16CHL1  H19B 1152   5.625   1.225   9.447
   16CHL1  H19C 1153   5.614   1.088   9.564
   16CHL1    C1 1154   5.394   1.126   9.571
   16CHL1   H1A 1155   5.448   1.224   9.574
   16CHL1   H1B 1156   5.298   1.142   9.524
   16CHL1    C2 1157   5.374   1.082   9.717
   16CHL1   H2A 1158   5.307   1.159   9.758
   16CHL1   H2B 1159   5.459   1.090   9.785
   16CHL1   C20 1160   5.353   1.198   8.798
   16CHL1   H20 1161   5.448   1.206   8.761
   16CHL1   C21 1162   5.374   1.347   8.830
   16CHL1  H21A 1163   5.431   1.352   8.926
   16CHL1  H21B 1164   5.276   1.392   8.826
   16CHL1  H21C 1165   5.438   1.398   8.753
   16CHL1   C22 1166   5.304   1.152   8.657
   16CHL1  H22A 1167   5.357   1.056   8.654
   16CHL1  H22B 1168   5.201   1.118   8.660
   16CHL1   C23 1169   5.342   1.238   8.531
   16CHL1  H23A 1170   5.323   1.344   8.554
   16CHL1  H23B 1171   5.442   1.246   8.483
   16CHL1   C24 1172   5.281   1.184   8.405
   16CHL1  H24A 1173   5.262   1.074   8.408
   16CHL1  H24B 1174   5.188   1.237   8.427
   16CHL1   C25 1175   5.351   1.228   8.273
   16CHL1   H25 1176   5.457   1.221   8.292
   16CHL1   C26 1177   5.317   1.130   8.157
   16CHL1  H26A 1178   5.221   1.153   8.123
   16CHL1  H26B 1179   5.361   1.153   8.059
   16CHL1  H26C 1180   5.288   1.025   8.178
   16CHL1   C27 1181   5.327   1.379   8.240
   16CHL1  H27A 1182   5.232   1.411   8.286
   16CHL1  H27B 1183   5.397   1.443   8.294
   16CHL1  H27C 1184   5.317   1.401   8.131
   17CHL1    C3 1185   1.728   6.128   9.730
   17CHL1    H3 1186   1.806   6.195   9.691
   17CHL1    O3 1187   1.736   6.132   9.870
   17CHL1   H3' 1188   1.821   6.093   9.891
   17CHL1    C4 1189   1.591   6.179   9.686
   17CHL1   H4A 1190   1.517   6.107   9.727
   17CHL1   H4B 1191   1.571   6.275   9.738
   17CHL1    C5 1192   1.587   6.188   9.535
   17CHL1    C6 1193   1.555   6.298   9.467
   17CHL1    H6 1194   1.536   6.392   9.521
   17CHL1    C7 1195   1.578   6.310   9.319
   17CHL1   H7A 1196   1.520   6.391   9.271
   17CHL1   H7B 1197   1.686   6.333   9.300
   17CHL1    C8 1198   1.559   6.178   9.250
   17CHL1    H8 1199   1.452   6.151   9.259
   17CHL1   C14 1200   1.595   6.194   9.104
   17CHL1   H14 1201   1.705   6.217   9.100
   17CHL1   C15 1202   1.526   6.301   9.021
   17CHL1  H15A 1203   1.419   6.302   9.048
   17CHL1  H15B 1204   1.571   6.400   9.036
   17CHL1   C16 1205   1.543   6.251   8.878
   17CHL1  H16A 1206   1.444   6.246   8.829
   17CHL1  H16B 1207   1.609   6.312   8.817
   17CHL1   C17 1208   1.605   6.112   8.886
   17CHL1   H17 1209   1.717   6.122   8.880
   17CHL1   C13 1210   1.574   6.068   9.028
   17CHL1   C18 1211   1.438   6.006   9.037
   17CHL1  H18A 1212   1.398   6.000   9.138
   17CHL1  H18B 1213   1.365   6.054   8.969
   17CHL1  H18C 1214   1.453   5.898   9.015
   17CHL1   C12 1215   1.662   5.972   9.094
   17CHL1  H12A 1216   1.645   5.873   9.053
   17CHL1  H12B 1217   1.762   6.018   9.079
   17CHL1   C11 1218   1.635   5.940   9.239
   17CHL1  H11A 1219   1.535   5.893   9.240
   17CHL1  H11B 1220   1.701   5.860   9.279
   17CHL1    C9 1221   1.648   6.072   9.315
   17CHL1    H9 1222   1.753   6.106   9.304
   17CHL1   C10 1223   1.632   6.058   9.464
   17CHL1   C19 1224   1.521   5.963   9.472
   17CHL1  H19A 1225   1.452   5.971   9.389
   17CHL1  H19B 1226   1.546   5.856   9.494
   17CHL1  H19C 1227   1.454   6.005   9.547
   17CHL1    C1 1228   1.754   5.988   9.524
   17CHL1   H1A 1229   1.762   5.883   9.488
   17CHL1   H1B 1230   1.842   6.040   9.486
   17CHL1    C2 1231   1.759   5.988   9.677
   17CHL1   H2A 1232   1.861   5.957   9.708
   17CHL1   H2B 1233   1.684   5.918   9.720
   17CHL1   C20 1234   1.547   6.029   8.773
   17CHL1   H20 1235   1.440   6.014   8.780
   17CHL1   C21 1236   1.618   5.901   8.779
   17CHL1  H21A 1237   1.719   5.885   8.783
   17CHL1  H21B 1238   1.603   5.847   8.681
   17CHL1  H21C 1239   1.590   5.846   8.868
   17CHL1   C22 1240   1.553   6.080   8.634
   17CHL1  H22A 1241   1.526   6.010   8.553
   17CHL1  H22B 1242   1.493   6.174   8.616
   17CHL1   C23 1243   1.693   6.116   8.642
   17CHL1  H23A 1244   1.668   6.222   8.657
   17CHL1  H23B 1245   1.777   6.069   8.694
   17CHL1   C24 1246   1.771   6.101   8.526
   17CHL1  H24A 1247   1.707   6.027   8.472
   17CHL1  H24B 1248   1.682   6.153   8.467
   17CHL1   C25 1249   1.970   6.125   8.489
   17CHL1   H25 1250   2.018   6.059   8.556
   17CHL1   C26 1251   2.057   6.146   8.339
   17CHL1  H26A 1252   2.030   6.079   8.272
   17CHL1  H26B 1253   2.023   6.212   8.245
   17CHL1  H26C 1254   2.128   6.072   8.320
   17CHL1   C27 1255   2.062   6.242   8.425
   17CHL1  H27A 1256   2.037   6.231   8.521
   17CHL1  H27B 1257   2.163   6.277   8.451
   17CHL1  H27C 1258   2.018   6.340   8.379
   18CHL1    C3 1259   0.501   4.284   9.729
   18CHL1    H3 1260   0.400   4.314   9.689
   18CHL1    O3 1261   0.500   4.278   9.870
   18CHL1   H3' 1262   0.453   4.196   9.889
   18CHL1    C4 1263   0.533   4.145   9.676
   18CHL1   H4A 1264   0.631   4.115   9.718
   18CHL1   H4B 1265   0.458   4.073   9.715
   18CHL1    C5 1266   0.535   4.146   9.525
   18CHL1    C6 1267   0.448   4.076   9.451
   18CHL1    H6 1268   0.375   4.013   9.502
   18CHL1    C7 1269   0.443   4.072   9.300
   18CHL1   H7A 1270   0.432   3.970   9.261
   18CHL1   H7B 1271   0.356   4.133   9.266
   18CHL1    C8 1272   0.572   4.120   9.237
   18CHL1    H8 1273   0.654   4.046   9.249
   18CHL1   C14 1274   0.552   4.141   9.085
   18CHL1   H14 1275   0.480   4.227   9.081
   18CHL1   C15 1276   0.497   4.034   8.998
   18CHL1  H15A 1277   0.533   3.932   9.026
   18CHL1  H15B 1278   0.388   4.042   9.010
   18CHL1   C16 1279   0.534   4.066   8.852
   18CHL1  H16A 1280   0.594   3.986   8.804
   18CHL1  H16B 1281   0.444   4.088   8.793
   18CHL1   C17 1282   0.610   4.197   8.862
   18CHL1   H17 1283   0.533   4.278   8.872
   18CHL1   C13 1284   0.669   4.182   9.004
   18CHL1   C18 1285   0.791   4.088   9.003
   18CHL1  H18A 1286   0.872   4.128   8.938
   18CHL1  H18B 1287   0.833   4.081   9.106
   18CHL1  H18C 1288   0.760   3.989   8.968
   18CHL1   C12 1289   0.700   4.300   9.077
   18CHL1  H12A 1290   0.801   4.307   9.035
   18CHL1  H12B 1291   0.631   4.385   9.054
   18CHL1   C11 1292   0.729   4.290   9.228
   18CHL1  H11A 1293   0.826   4.244   9.249
   18CHL1  H11B 1294   0.740   4.389   9.263
   18CHL1    C9 1295   0.612   4.247   9.308
   18CHL1    H9 1296   0.532   4.324   9.292
   18CHL1   C10 1297   0.636   4.239   9.463
   18CHL1   C19 1298   0.778   4.184   9.495
   18CHL1  H19A 1299   0.792   4.157   9.601
   18CHL1  H19B 1300   0.796   4.096   9.430
   18CHL1  H19C 1301   0.857   4.258   9.473
   18CHL1    C1 1302   0.620   4.379   9.530
   18CHL1   H1A 1303   0.714   4.427   9.504
   18CHL1   H1B 1304   0.538   4.440   9.485
   18CHL1    C2 1305   0.604   4.387   9.683
   18CHL1   H2A 1306   0.569   4.489   9.707
   18CHL1   H2B 1307   0.701   4.371   9.736
   18CHL1   C20 1308   0.693   4.232   8.736
   18CHL1   H20 1309   0.799   4.200   8.748
   18CHL1   C21 1310   0.689   4.380   8.729
   18CHL1  H21A 1311   0.598   4.435   8.711
   18CHL1  H21B 1312   0.764   4.431   8.671
   18CHL1  H21C 1313   0.707   4.393   8.833
   18CHL1   C22 1314   0.634   4.189   8.603
   18CHL1  H22A 1315   0.636   4.079   8.604
   18CHL1  H22B 1316   0.530   4.230   8.595
   18CHL1   C23 1317   0.712   4.238   8.480
   18CHL1  H23A 1318   0.700   4.344   8.484
   18CHL1  H23B 1319   0.819   4.210   8.487
   18CHL1   C24 1320   0.644   4.203   8.347
   18CHL1  H24A 1321   0.653   4.095   8.348
   18CHL1  H24B 1322   0.543   4.250   8.345
   18CHL1   C25 1323   0.704   4.239   8.211
   18CHL1   H25 1324   0.813   4.236   8.240
   18CHL1   C26 1325   0.701   4.145   8.095
   18CHL1  H26A 1326   0.614   4.179   8.036
   18CHL1  H26B 1327   0.793   4.153   8.033
   18CHL1  H26C 1328   0.687   4.043   8.133
   18CHL1   C27 1329   0.634   4.369   8.154
   18CHL1  H27A 1330   0.700   4.406   8.071
   18CHL1  H27B 1331   0.528   4.380   8.136
   18CHL1  H27C 1332   0.627   4.448   8.231
   19CHL1    C3 1333   4.807   6.673   9.731
   19CHL1    H3 1334   4.790   6.777   9.692
   19CHL1    O3 1335   4.812   6.680   9.872
   19CHL1   H3' 1336   4.883   6.743   9.891
   19CHL1    C4 1337   4.692   6.582   9.689
   19CHL1   H4A 1338   4.722   6.483   9.730
   19CHL1   H4B 1339   4.600   6.614   9.741
   19CHL1    C5 1340   4.675   6.575   9.539
   19CHL1    C6 1341   4.561   6.607   9.477
   19CHL1    H6 1342   4.473   6.637   9.535
   19CHL1    C7 1343   4.543   6.600   9.328
   19CHL1   H7A 1344   4.450   6.547   9.302
   19CHL1   H7B 1345   4.537   6.703   9.287
   19CHL1    C8 1346   4.661   6.536   9.253
   19CHL1    H8 1347   4.660   6.425   9.264
   19CHL1   C14 1348   4.653   6.585   9.110
   19CHL1   H14 1349   4.652   6.697   9.113
   19CHL1   C15 1350   4.533   6.554   9.033
   19CHL1  H15A 1351   4.564   6.454   9.016
   19CHL1  H15B 1352   4.437   6.563   9.085
   19CHL1   C16 1353   4.553   6.601   8.892
   19CHL1  H16A 1354   4.530   6.530   8.813
   19CHL1  H16B 1355   4.487   6.685   8.878
   19CHL1   C17 1356   4.706   6.617   8.883
   19CHL1   H17 1357   4.719   6.726   8.897
   19CHL1   C13 1358   4.758   6.544   9.010
   19CHL1   C18 1359   4.786   6.389   8.990
   19CHL1  H18A 1360   4.874   6.370   8.926
   19CHL1  H18B 1361   4.802   6.341   9.089
   19CHL1  H18C 1362   4.701   6.337   8.944
   19CHL1   C12 1363   4.875   6.601   9.072
   19CHL1  H12A 1364   4.941   6.552   8.998
   19CHL1  H12B 1365   4.878   6.711   9.052
   19CHL1   C11 1366   4.903   6.560   9.220
   19CHL1  H11A 1367   4.945   6.459   9.228
   19CHL1  H11B 1368   4.988   6.610   9.268
   19CHL1    C9 1369   4.786   6.589   9.313
   19CHL1    H9 1370   4.775   6.701   9.311
   19CHL1   C10 1371   4.803   6.545   9.459
   19CHL1   C19 1372   4.849   6.399   9.469
   19CHL1  H19A 1373   4.770   6.333   9.431
   19CHL1  H19B 1374   4.944   6.381   9.415
   19CHL1  H19C 1375   4.868   6.374   9.575
   19CHL1    C1 1376   4.917   6.620   9.521
   19CHL1   H1A 1377   5.007   6.579   9.473
   19CHL1   H1B 1378   4.897   6.724   9.497
   19CHL1    C2 1379   4.932   6.608   9.672
   19CHL1   H2A 1380   5.028   6.644   9.710
   19CHL1   H2B 1381   4.949   6.503   9.699
   19CHL1   C20 1382   4.760   6.582   8.744
   19CHL1   H20 1383   4.736   6.475   8.719
   19CHL1   C21 1384   4.912   6.597   8.733
   19CHL1  H21A 1385   4.944   6.696   8.771
   19CHL1  H21B 1386   4.948   6.587   8.629
   19CHL1  H21C 1387   4.961   6.515   8.790
   19CHL1   C22 1388   4.689   6.673   8.641
   19CHL1  H22A 1389   4.580   6.653   8.643
   19CHL1  H22B 1390   4.704   6.779   8.672
   19CHL1   C23 1391   4.735   6.652   8.497
   19CHL1  H23A 1392   4.829   6.708   8.478
   19CHL1  H23B 1393   4.761   6.545   8.483
   19CHL1   C24 1394   4.628   6.692   8.394
   19CHL1  H24A 1395   4.543   6.622   8.402
   19CHL1  H24B 1396   4.590   6.793   8.420
   19CHL1   C25 1397   4.688   6.695   8.252
   19CHL1   H25 1398   4.748   6.601   8.239
   19CHL1   C26 1399   4.589   6.697   8.135
   19CHL1  H26A 1400   4.523   6.608   8.140
   19CHL1  H26B 1401   4.530   6.791   8.134
   19CHL1  H26C 1402   4.645   6.694   8.039
   19CHL1   C27 1403   4.778   6.818   8.242
   19CHL1  H27A 1404   4.845   6.805   8.161
   19CHL1  H27B 1405   4.720   6.910   8.222
   19CHL1  H27C 1406   4.850   6.830   8.323
   20CHL1    C3 1407   1.055   1.432   9.733
   20CHL1    H3 1408   0.960   1.486   9.712
   20CHL1    O3 1409   1.074   1.439   9.870
   20CHL1   H3' 1410   1.057   1.531   9.897
   20CHL1    C4 1411   1.052   1.289   9.685
   20CHL1   H4A 1412   1.148   1.239   9.711
   20CHL1   H4B 1413   0.972   1.236   9.741
   20CHL1    C5 1414   1.034   1.286   9.535
   20CHL1    C6 1415   0.937   1.222   9.477
   20CHL1    H6 1416   0.868   1.161   9.538
   20CHL1    C7 1417   0.930   1.211   9.326
   20CHL1   H7A 1418   0.882   1.114   9.310
   20CHL1   H7B 1419   0.859   1.284   9.279
   20CHL1    C8 1420   1.047   1.253   9.241
   20CHL1    H8 1421   1.122   1.174   9.251
   20CHL1   C14 1422   1.009   1.277   9.094
   20CHL1   H14 1423   0.939   1.363   9.098
   20CHL1   C15 1424   0.962   1.160   9.006
   20CHL1  H15A 1425   1.012   1.067   9.021
   20CHL1  H15B 1426   0.868   1.119   9.014
   20CHL1   C16 1427   0.980   1.193   8.861
   20CHL1  H16A 1428   1.046   1.111   8.823
   20CHL1  H16B 1429   0.889   1.188   8.801
   20CHL1   C17 1430   1.049   1.329   8.865
   20CHL1   H17 1431   0.970   1.408   8.865
   20CHL1   C13 1432   1.112   1.336   9.005
   20CHL1   C18 1433   1.221   1.239   9.009
   20CHL1  H18A 1434   1.247   1.213   9.112
   20CHL1  H18B 1435   1.198   1.141   8.963
   20CHL1  H18C 1436   1.311   1.284   8.966
   20CHL1   C12 1437   1.159   1.467   9.065
   20CHL1  H12A 1438   1.245   1.508   9.010
   20CHL1  H12B 1439   1.074   1.538   9.059
   20CHL1   C11 1440   1.203   1.445   9.210
   20CHL1  H11A 1441   1.288   1.374   9.215
   20CHL1  H11B 1442   1.240   1.542   9.247
   20CHL1    C9 1443   1.093   1.384   9.300
   20CHL1    H9 1444   1.006   1.454   9.293
   20CHL1   C10 1445   1.131   1.366   9.450
   20CHL1   C19 1446   1.267   1.299   9.461
   20CHL1  H19A 1447   1.289   1.268   9.565
   20CHL1  H19B 1448   1.267   1.210   9.397
   20CHL1  H19C 1449   1.352   1.361   9.429
   20CHL1    C1 1450   1.145   1.499   9.516
   20CHL1   H1A 1451   1.224   1.542   9.452
   20CHL1   H1B 1452   1.052   1.555   9.508
   20CHL1    C2 1453   1.172   1.497   9.665
   20CHL1   H2A 1454   1.173   1.596   9.706
   20CHL1   H2B 1455   1.267   1.448   9.694
   20CHL1   C20 1456   1.135   1.336   8.739
   20CHL1   H20 1457   1.210   1.253   8.745
   20CHL1   C21 1458   1.213   1.468   8.735
   20CHL1  H21A 1459   1.285   1.475   8.819
   20CHL1  H21B 1460   1.144   1.554   8.738
   20CHL1  H21C 1461   1.275   1.475   8.643
   20CHL1   C22 1462   1.050   1.310   8.610
   20CHL1  H22A 1463   0.993   1.214   8.616
   20CHL1  H22B 1464   0.974   1.389   8.595
   20CHL1   C23 1465   1.137   1.307   8.484
   20CHL1  H23A 1466   1.215   1.383   8.485
   20CHL1  H23B 1467   1.201   1.222   8.494
   20CHL1   C24 1468   1.060   1.314   8.350
   20CHL1  H24A 1469   0.976   1.241   8.352
   20CHL1  H24B 1470   0.999   1.405   8.347
   20CHL1   C25 1471   1.154   1.306   8.221
   20CHL1   H25 1472   1.241   1.372   8.239
   20CHL1   C26 1473   1.222   1.179   8.176
   20CHL1  H26A 1474   1.287   1.182   8.087
   20CHL1  H26B 1475   1.284   1.156   8.262
   20CHL1  H26C 1476   1.144   1.103   8.153
   20CHL1   C27 1477   1.081   1.334   8.094
   20CHL1  H27A 1478   1.000   1.258   8.087
   20CHL1  H27B 1479   1.048   1.439   8.093
   20CHL1  H27C 1480   1.144   1.312   8.006
   21CHL1    C3 1481   0.286   3.575   9.737
   21CHL1    H3 1482   0.366   3.650   9.754
   21CHL1    O3 1483   0.255   3.510   9.858
   21CHL1   H3' 1484   0.227   3.577   9.922
   21CHL1    C4 1485   0.160   3.642   9.681
   21CHL1   H4A 1486   0.076   3.568   9.678
   21CHL1   H4B 1487   0.124   3.720   9.751
   21CHL1    C5 1488   0.187   3.696   9.543
   21CHL1    C6 1489   0.162   3.822   9.508
   21CHL1    H6 1490   0.123   3.893   9.581
   21CHL1    C7 1491   0.173   3.868   9.366
   21CHL1   H7A 1492   0.096   3.943   9.341
   21CHL1   H7B 1493   0.269   3.918   9.357
   21CHL1    C8 1494   0.173   3.755   9.260
   21CHL1    H8 1495   0.071   3.713   9.254
   21CHL1   C14 1496   0.210   3.813   9.125
   21CHL1   H14 1497   0.305   3.869   9.144
   21CHL1   C15 1498   0.118   3.920   9.064
   21CHL1  H15A 1499   0.014   3.882   9.061
   21CHL1  H15B 1500   0.120   4.017   9.118
   21CHL1   C16 1501   0.173   3.932   8.921
   21CHL1  H16A 1502   0.092   3.917   8.848
   21CHL1  H16B 1503   0.217   4.033   8.908
   21CHL1   C17 1504   0.278   3.817   8.903
   21CHL1   H17 1505   0.373   3.854   8.938
   21CHL1   C13 1506   0.245   3.714   9.013
   21CHL1   C18 1507   0.124   3.633   8.961
   21CHL1  H18A 1508   0.159   3.560   8.885
   21CHL1  H18B 1509   0.073   3.577   9.042
   21CHL1  H18C 1510   0.048   3.696   8.911
   21CHL1   C12 1511   0.360   3.624   9.065
   21CHL1  H12A 1512   0.391   3.550   8.988
   21CHL1  H12B 1513   0.448   3.688   9.089
   21CHL1   C11 1514   0.317   3.549   9.192
   21CHL1  H11A 1515   0.234   3.481   9.163
   21CHL1  H11B 1516   0.395   3.480   9.230
   21CHL1    C9 1517   0.278   3.653   9.304
   21CHL1    H9 1518   0.371   3.712   9.321
   21CHL1   C10 1519   0.248   3.598   9.444
   21CHL1   C19 1520   0.139   3.504   9.421
   21CHL1  H19A 1521   0.114   3.446   9.513
   21CHL1  H19B 1522   0.042   3.541   9.381
   21CHL1  H19C 1523   0.180   3.430   9.349
   21CHL1    C1 1524   0.371   3.524   9.504
   21CHL1   H1A 1525   0.406   3.443   9.436
   21CHL1   H1B 1526   0.453   3.598   9.511
   21CHL1    C2 1527   0.343   3.467   9.643
   21CHL1   H2A 1528   0.433   3.423   9.690
   21CHL1   H2B 1529   0.269   3.385   9.637
   21CHL1   C20 1530   0.310   3.780   8.757
   21CHL1   H20 1531   0.234   3.706   8.725
   21CHL1   C21 1532   0.451   3.716   8.745
   21CHL1  H21A 1533   0.454   3.619   8.799
   21CHL1  H21B 1534   0.531   3.783   8.783
   21CHL1  H21C 1535   0.474   3.694   8.639
   21CHL1   C22 1536   0.300   3.898   8.657
   21CHL1  H22A 1537   0.210   3.960   8.673
   21CHL1  H22B 1538   0.389   3.961   8.667
   21CHL1   C23 1539   0.302   3.854   8.510
   21CHL1  H23A 1540   0.405   3.818   8.488
   21CHL1  H23B 1541   0.231   3.770   8.496
   21CHL1   C24 1542   0.275   3.967   8.411
   21CHL1  H24A 1543   0.169   3.998   8.408
   21CHL1  H24B 1544   0.332   4.057   8.445
   21CHL1   C25 1545   0.320   3.934   8.267
   21CHL1   H25 1546   0.279   4.016   8.204
   21CHL1   C26 1547   0.471   3.938   8.253
   21CHL1  H26A 1548   0.526   3.848   8.289
   21CHL1  H26B 1549   0.500   3.958   8.148
   21CHL1  H26C 1550   0.496   4.021   8.317
   21CHL1   C27 1551   0.277   3.800   8.210
   21CHL1  H27A 1552   0.326   3.789   8.111
   21CHL1  H27B 1553   0.313   3.717   8.275
   21CHL1  H27C 1554   0.168   3.796   8.198
   22CHL1    C3 1555  -0.233   4.218   9.746
   22CHL1    H3 1556  -0.130   4.187   9.774
   22CHL1    O3 1557  -0.320   4.189   9.854
   22CHL1   H3' 1558  -0.288   4.243   9.929
   22CHL1    C4 1559  -0.236   4.368   9.713
   22CHL1   H4A 1560  -0.342   4.399   9.701
   22CHL1   H4B 1561  -0.194   4.424   9.800
   22CHL1    C5 1562  -0.159   4.399   9.587
   22CHL1    C6 1563  -0.057   4.484   9.586
   22CHL1    H6 1564  -0.031   4.550   9.671
   22CHL1    C7 1565   0.012   4.510   9.458
   22CHL1   H7A 1566  -0.011   4.609   9.462
   22CHL1   H7B 1567   0.122   4.495   9.454
   22CHL1    C8 1568  -0.064   4.477   9.329
   22CHL1    H8 1569  -0.152   4.547   9.322
   22CHL1   C14 1570   0.023   4.480   9.206
   22CHL1   H14 1571   0.111   4.415   9.221
   22CHL1   C15 1572   0.090   4.603   9.178
   22CHL1  H15A 1573  -0.002   4.657   9.200
   22CHL1  H15B 1574   0.183   4.630   9.232
   22CHL1   C16 1575   0.095   4.624   9.034
   22CHL1  H16A 1576   0.007   4.691   9.008
   22CHL1  H16B 1577   0.197   4.659   9.007
   22CHL1   C17 1578   0.048   4.501   8.970
   22CHL1   H17 1579   0.140   4.441   8.974
   22CHL1   C13 1580  -0.050   4.451   9.076
   22CHL1   C18 1581  -0.186   4.527   9.062
   22CHL1  H18A 1582  -0.180   4.638   9.070
   22CHL1  H18B 1583  -0.229   4.503   8.962
   22CHL1  H18C 1584  -0.256   4.494   9.140
   22CHL1   C12 1585  -0.060   4.302   9.087
   22CHL1  H12A 1586  -0.113   4.261   9.000
   22CHL1  H12B 1587   0.045   4.265   9.088
   22CHL1   C11 1588  -0.134   4.261   9.215
   22CHL1  H11A 1589  -0.240   4.277   9.193
   22CHL1  H11B 1590  -0.115   4.153   9.232
   22CHL1    C9 1591  -0.099   4.335   9.347
   22CHL1    H9 1592  -0.001   4.291   9.381
   22CHL1   C10 1593  -0.199   4.316   9.462
   22CHL1   C19 1594  -0.341   4.357   9.412
   22CHL1  H19A 1595  -0.382   4.280   9.343
   22CHL1  H19B 1596  -0.411   4.364   9.497
   22CHL1  H19C 1597  -0.340   4.452   9.355
   22CHL1    C1 1598  -0.198   4.166   9.499
   22CHL1   H1A 1599  -0.242   4.112   9.413
   22CHL1   H1B 1600  -0.092   4.132   9.510
   22CHL1    C2 1601  -0.275   4.131   9.627
   22CHL1   H2A 1602  -0.252   4.026   9.659
   22CHL1   H2B 1603  -0.384   4.140   9.611
   22CHL1   C20 1604   0.002   4.531   8.826
   22CHL1   H20 1605  -0.085   4.602   8.824
   22CHL1   C21 1606  -0.041   4.397   8.767
   22CHL1  H21A 1607   0.042   4.325   8.785
   22CHL1  H21B 1608  -0.061   4.405   8.658
   22CHL1  H21C 1609  -0.133   4.361   8.817
   22CHL1   C22 1610   0.112   4.597   8.740
   22CHL1  H22A 1611   0.070   4.612   8.638
   22CHL1  H22B 1612   0.133   4.698   8.776
   22CHL1   C23 1613   0.244   4.515   8.740
   22CHL1  H23A 1614   0.280   4.507   8.844
   22CHL1  H23B 1615   0.223   4.411   8.707
   22CHL1   C24 1616   0.359   4.574   8.660
   22CHL1  H24A 1617   0.436   4.502   8.627
   22CHL1  H24B 1618   0.320   4.626   8.570
   22CHL1   C25 1619   0.434   4.676   8.742
   22CHL1   H25 1620   0.351   4.740   8.781
   22CHL1   C26 1621   0.510   4.633   8.869
   22CHL1  H26A 1622   0.589   4.563   8.848
   22CHL1  H26B 1623   0.564   4.718   8.916
   22CHL1  H26C 1624   0.445   4.587   8.946
   22CHL1   C27 1625   0.531   4.748   8.646
   22CHL1  H27A 1626   0.585   4.828   8.699
   22CHL1  H27B 1627   0.619   4.690   8.619
   22CHL1  H27C 1628   0.474   4.794   8.562
   23CHL1    C3 1629   3.495   7.131   9.733
   23CHL1    H3 1630   3.398   7.082   9.703
   23CHL1    O3 1631   3.492   7.166   9.868
   23CHL1   H3' 1632   3.586   7.178   9.886
   23CHL1    C4 1633   3.612   7.034   9.711
   23CHL1   H4A 1634   3.708   7.080   9.745
   23CHL1   H4B 1635   3.596   6.946   9.777
   23CHL1    C5 1636   3.618   7.000   9.564
   23CHL1    C6 1637   3.606   6.877   9.512
   23CHL1    H6 1638   3.602   6.791   9.580
   23CHL1    C7 1639   3.609   6.846   9.364
   23CHL1   H7A 1640   3.663   6.752   9.344
   23CHL1   H7B 1641   3.506   6.839   9.322
   23CHL1    C8 1642   3.676   6.955   9.282
   23CHL1    H8 1643   3.785   6.960   9.301
   23CHL1   C14 1644   3.647   6.937   9.132
   23CHL1   H14 1645   3.536   6.952   9.123
   23CHL1   C15 1646   3.681   6.806   9.061
   23CHL1  H15A 1647   3.782   6.773   9.091
   23CHL1  H15B 1648   3.607   6.727   9.081
   23CHL1   C16 1649   3.682   6.843   8.912
   23CHL1  H16A 1650   3.783   6.825   8.869
   23CHL1  H16B 1651   3.604   6.790   8.854
   23CHL1   C17 1652   3.649   6.992   8.905
   23CHL1   H17 1653   3.538   7.001   8.912
   23CHL1   C13 1654   3.707   7.038   9.040
   23CHL1   C18 1655   3.863   7.039   9.036
   23CHL1  H18A 1656   3.902   7.085   8.942
   23CHL1  H18B 1657   3.905   7.097   9.121
   23CHL1  H18C 1658   3.901   6.936   9.042
   23CHL1   C12 1659   3.655   7.160   9.095
   23CHL1  H12A 1660   3.737   7.216   9.049
   23CHL1  H12B 1661   3.552   7.184   9.060
   23CHL1   C11 1662   3.666   7.185   9.245
   23CHL1  H11A 1663   3.769   7.223   9.266
   23CHL1  H11B 1664   3.588   7.259   9.276
   23CHL1    C9 1665   3.614   7.082   9.329
   23CHL1    H9 1666   3.504   7.081   9.303
   23CHL1   C10 1667   3.631   7.121   9.477
   23CHL1   C19 1668   3.775   7.176   9.505
   23CHL1  H19A 1669   3.800   7.191   9.611
   23CHL1  H19B 1670   3.856   7.124   9.452
   23CHL1  H19C 1671   3.782   7.276   9.470
   23CHL1    C1 1672   3.523   7.227   9.512
   23CHL1   H1A 1673   3.547   7.322   9.465
   23CHL1   H1B 1674   3.423   7.199   9.472
   23CHL1    C2 1675   3.518   7.260   9.659
   23CHL1   H2A 1676   3.445   7.341   9.679
   23CHL1   H2B 1677   3.618   7.300   9.689
   23CHL1   C20 1678   3.686   7.050   8.769
   23CHL1   H20 1679   3.794   7.078   8.760
   23CHL1   C21 1680   3.607   7.169   8.737
   23CHL1  H21A 1681   3.498   7.163   8.712
   23CHL1  H21B 1682   3.656   7.229   8.656
   23CHL1  H21C 1683   3.609   7.226   8.828
   23CHL1   C22 1684   3.648   6.957   8.657
   23CHL1  H22A 1685   3.723   6.877   8.657
   23CHL1  H22B 1686   3.543   6.920   8.671
   23CHL1   C23 1687   3.654   7.026   8.525
   23CHL1  H23A 1688   3.569   7.094   8.512
   23CHL1  H23B 1689   3.749   7.079   8.502
   23CHL1   C24 1690   3.633   6.934   8.417
   23CHL1  H24A 1691   3.720   6.867   8.409
   23CHL1  H24B 1692   3.538   6.873   8.426
   23CHL1   C25 1693   3.632   7.029   8.302
   23CHL1   H25 1694   3.539   7.091   8.288
   23CHL1   C26 1695   3.761   7.066   8.222
   23CHL1  H26A 1696   3.812   6.977   8.177
   23CHL1  H26B 1697   3.736   7.129   8.132
   23CHL1  H26C 1698   3.822   7.121   8.292
   23CHL1   C27 1699   3.594   6.933   8.226
   23CHL1  H27A 1700   3.489   6.892   8.234
   23CHL1  H27B 1701   3.600   6.994   8.130
   23CHL1  H27C 1702   3.667   6.849   8.214
   24CHL1    C3 1703   4.267  -0.021   9.731
   24CHL1    H3 1704   4.230  -0.115   9.684
   24CHL1    O3 1705   4.267  -0.034   9.871
   24CHL1   H3' 1706   4.177  -0.064   9.895
   24CHL1    C4 1707   4.412   0.002   9.688
   24CHL1   H4A 1708   4.455   0.087   9.746
   24CHL1   H4B 1709   4.467  -0.089   9.724
   24CHL1    C5 1710   4.423   0.025   9.539
   24CHL1    C6 1711   4.502  -0.054   9.464
   24CHL1    H6 1712   4.555  -0.133   9.517
   24CHL1    C7 1713   4.530  -0.034   9.317
   24CHL1   H7A 1714   4.640  -0.030   9.300
   24CHL1   H7B 1715   4.493  -0.120   9.256
   24CHL1    C8 1716   4.470   0.099   9.264
   24CHL1    H8 1717   4.538   0.182   9.292
   24CHL1   C14 1718   4.460   0.095   9.113
   24CHL1   H14 1719   4.381   0.020   9.087
   24CHL1   C15 1720   4.584   0.046   9.036
   24CHL1  H15A 1721   4.680   0.077   9.083
   24CHL1  H15B 1722   4.583  -0.065   9.027
   24CHL1   C16 1723   4.567   0.111   8.900
   24CHL1  H16A 1724   4.655   0.177   8.884
   24CHL1  H16B 1725   4.572   0.037   8.818
   24CHL1   C17 1726   4.432   0.193   8.908
   24CHL1   H17 1727   4.349   0.124   8.878
   24CHL1   C13 1728   4.411   0.227   9.052
   24CHL1   C18 1729   4.505   0.344   9.082
   24CHL1  H18A 1730   4.513   0.367   9.189
   24CHL1  H18B 1731   4.601   0.308   9.048
   24CHL1  H18C 1732   4.482   0.436   9.025
   24CHL1   C12 1733   4.269   0.254   9.099
   24CHL1  H12A 1734   4.233   0.352   9.061
   24CHL1  H12B 1735   4.205   0.175   9.054
   24CHL1   C11 1736   4.262   0.251   9.254
   24CHL1  H11A 1737   4.309   0.345   9.290
   24CHL1  H11B 1738   4.156   0.251   9.285
   24CHL1    C9 1739   4.331   0.129   9.323
   24CHL1    H9 1740   4.269   0.041   9.294
   24CHL1   C10 1741   4.332   0.136   9.480
   24CHL1   C19 1742   4.381   0.276   9.528
   24CHL1  H19A 1743   4.389   0.279   9.638
   24CHL1  H19B 1744   4.479   0.301   9.484
   24CHL1  H19C 1745   4.308   0.355   9.501
   24CHL1    C1 1746   4.188   0.115   9.535
   24CHL1   H1A 1747   4.128   0.204   9.509
   24CHL1   H1B 1748   4.146   0.025   9.484
   24CHL1    C2 1749   4.176   0.094   9.688
   24CHL1   H2A 1750   4.071   0.069   9.715
   24CHL1   H2B 1751   4.202   0.188   9.741
   24CHL1   C20 1752   4.429   0.302   8.805
   24CHL1   H20 1753   4.524   0.361   8.819
   24CHL1   C21 1754   4.308   0.402   8.800
   24CHL1  H21A 1755   4.215   0.342   8.802
   24CHL1  H21B 1756   4.305   0.460   8.706
   24CHL1  H21C 1757   4.308   0.479   8.880
   24CHL1   C22 1758   4.426   0.215   8.677
   24CHL1  H22A 1759   4.480   0.120   8.673
   24CHL1  H22B 1760   4.327   0.212   8.628
   24CHL1   C23 1761   4.528   0.263   8.584
   24CHL1  H23A 1762   4.474   0.363   8.602
   24CHL1  H23B 1763   4.593   0.324   8.639
   24CHL1   C24 1764   4.558   0.181   8.428
   24CHL1  H24A 1765   4.640   0.116   8.453
   24CHL1  H24B 1766   4.463   0.127   8.402
   24CHL1   C25 1767   4.608   0.237   8.265
   24CHL1   H25 1768   4.514   0.290   8.231
   24CHL1   C26 1769   4.748   0.327   8.236
   24CHL1  H26A 1770   4.760   0.432   8.273
   24CHL1  H26B 1771   4.823   0.316   8.314
   24CHL1  H26C 1772   4.763   0.384   8.140
   24CHL1   C27 1773   4.587   0.160   8.139
   24CHL1  H27A 1774   4.617   0.228   8.053
   24CHL1  H27B 1775   4.660   0.086   8.172
   24CHL1  H27C 1776   4.478   0.132   8.131
   25CHL1    C3 1777   5.076   0.220   9.726
   25CHL1    H3 1778   5.185   0.232   9.708
   25CHL1    O3 1779   5.057   0.186   9.862
   25CHL1   H3' 1780   4.972   0.221   9.891
   25CHL1    C4 1781   5.004   0.351   9.690
   25CHL1   H4A 1782   4.898   0.350   9.724
   25CHL1   H4B 1783   5.056   0.431   9.748
   25CHL1    C5 1784   5.003   0.380   9.541
   25CHL1    C6 1785   5.045   0.501   9.500
   25CHL1    H6 1786   5.072   0.575   9.576
   25CHL1    C7 1787   5.047   0.546   9.357
   25CHL1   H7A 1788   4.998   0.645   9.350
   25CHL1   H7B 1789   5.152   0.562   9.325
   25CHL1    C8 1790   4.974   0.446   9.262
   25CHL1    H8 1791   4.865   0.465   9.270
   25CHL1   C14 1792   5.024   0.469   9.120
   25CHL1   H14 1793   5.132   0.442   9.126
   25CHL1   C15 1794   5.024   0.613   9.062
   25CHL1  H15A 1795   4.938   0.670   9.101
   25CHL1  H15B 1796   5.119   0.662   9.092
   25CHL1   C16 1797   5.019   0.594   8.908
   25CHL1  H16A 1798   4.928   0.641   8.867
   25CHL1  H16B 1799   5.108   0.640   8.860
   25CHL1   C17 1800   5.023   0.439   8.888
   25CHL1   H17 1801   5.131   0.415   8.897
   25CHL1   C13 1802   4.963   0.379   9.015
   25CHL1   C18 1803   4.812   0.395   9.008
   25CHL1  H18A 1804   4.771   0.493   8.981
   25CHL1  H18B 1805   4.774   0.321   8.935
   25CHL1  H18C 1806   4.770   0.369   9.107
   25CHL1   C12 1807   4.997   0.233   9.046
   25CHL1  H12A 1808   4.952   0.167   8.968
   25CHL1  H12B 1809   5.107   0.220   9.040
   25CHL1   C11 1810   4.949   0.197   9.189
   25CHL1  H11A 1811   4.838   0.197   9.190
   25CHL1  H11B 1812   4.978   0.093   9.213
   25CHL1    C9 1813   5.001   0.298   9.298
   25CHL1    H9 1814   5.112   0.290   9.292
   25CHL1   C10 1815   4.962   0.264   9.445
   25CHL1   C19 1816   4.813   0.227   9.456
   25CHL1  H19A 1817   4.794   0.125   9.415
   25CHL1  H19B 1818   4.784   0.222   9.563
   25CHL1  H19C 1819   4.748   0.299   9.402
   25CHL1    C1 1820   5.033   0.136   9.490
   25CHL1   H1A 1821   5.003   0.048   9.431
   25CHL1   H1B 1822   5.134   0.152   9.455
   25CHL1    C2 1823   5.024   0.105   9.640
   25CHL1   H2A 1824   5.078   0.011   9.664
   25CHL1   H2B 1825   4.918   0.090   9.669
   25CHL1   C20 1826   4.975   0.379   8.756
   25CHL1   H20 1827   4.931   0.278   8.775
   25CHL1   C21 1828   5.103   0.355   8.671
   25CHL1  H21A 1829   5.081   0.305   8.575
   25CHL1  H21B 1830   5.174   0.291   8.729
   25CHL1  H21C 1831   5.153   0.451   8.650
   25CHL1   C22 1832   4.870   0.462   8.681
   25CHL1  H22A 1833   4.793   0.502   8.752
   25CHL1  H22B 1834   4.915   0.548   8.628
   25CHL1   C23 1835   4.795   0.385   8.573
   25CHL1  H23A 1836   4.864   0.332   8.506
   25CHL1  H23B 1837   4.763   0.295   8.632
   25CHL1   C24 1838   4.689   0.493   8.506
   25CHL1  H24A 1839   4.630   0.539   8.585
   25CHL1  H24B 1840   4.761   0.561   8.458
   25CHL1   C25 1841   4.566   0.466   8.400
   25CHL1   H25 1842   4.633   0.381   8.421
   25CHL1   C26 1843   4.412   0.416   8.398
   25CHL1  H26A 1844   4.358   0.483   8.460
   25CHL1  H26B 1845   4.369   0.326   8.345
   25CHL1  H26C 1846   4.381   0.326   8.450
   25CHL1   C27 1847   4.550   0.527   8.257
   25CHL1  H27A 1848   4.476   0.603   8.280
   25CHL1  H27B 1849   4.635   0.561   8.200
   25CHL1  H27C 1850   4.511   0.462   8.173
   26CHL1    C3 1851  -0.095   4.965   9.732
   26CHL1    H3 1852  -0.196   4.930   9.699
   26CHL1    O3 1853  -0.086   4.966   9.872
   26CHL1   H3' 1854  -0.050   4.881   9.900
   26CHL1    C4 1855   0.022   4.894   9.664
   26CHL1   H4A 1856   0.113   4.934   9.711
   26CHL1   H4B 1857   0.013   4.786   9.688
   26CHL1    C5 1858   0.035   4.923   9.516
   26CHL1    C6 1859   0.042   4.835   9.426
   26CHL1    H6 1860   0.078   4.747   9.465
   26CHL1    C7 1861   0.046   4.854   9.282
   26CHL1   H7A 1862   0.138   4.810   9.245
   26CHL1   H7B 1863  -0.055   4.827   9.238
   26CHL1    C8 1864   0.083   4.977   9.221
   26CHL1    H8 1865   0.191   4.999   9.234
   26CHL1   C14 1866   0.048   4.977   9.071
   26CHL1   H14 1867  -0.060   4.945   9.060
   26CHL1   C15 1868   0.130   4.903   8.970
   26CHL1  H15A 1869   0.229   4.879   9.006
   26CHL1  H15B 1870   0.105   4.813   8.929
   26CHL1   C16 1871   0.091   4.953   8.831
   26CHL1  H16A 1872   0.175   4.958   8.767
   26CHL1  H16B 1873   0.033   4.885   8.765
   26CHL1   C17 1874   0.024   5.085   8.866
   26CHL1   H17 1875  -0.075   5.043   8.864
   26CHL1   C13 1876   0.063   5.112   9.010
   26CHL1   C18 1877   0.186   5.192   9.028
   26CHL1  H18A 1878   0.186   5.296   9.007
   26CHL1  H18B 1879   0.233   5.173   9.124
   26CHL1  H18C 1880   0.256   5.204   8.953
   26CHL1   C12 1881  -0.004   5.190   9.107
   26CHL1  H12A 1882  -0.017   5.290   9.061
   26CHL1  H12B 1883  -0.093   5.130   9.124
   26CHL1   C11 1884   0.041   5.181   9.251
   26CHL1  H11A 1885   0.142   5.208   9.273
   26CHL1  H11B 1886   0.009   5.252   9.317
   26CHL1    C9 1887   0.001   5.060   9.310
   26CHL1    H9 1888  -0.108   5.034   9.297
   26CHL1   C10 1889   0.035   5.056   9.462
   26CHL1   C19 1890   0.166   5.129   9.496
   26CHL1  H19A 1891   0.251   5.089   9.438
   26CHL1  H19B 1892   0.155   5.237   9.473
   26CHL1  H19C 1893   0.188   5.124   9.603
   26CHL1    C1 1894  -0.075   5.112   9.541
   26CHL1   H1A 1895  -0.058   5.219   9.535
   26CHL1   H1B 1896  -0.172   5.082   9.493
   26CHL1    C2 1897  -0.071   5.105   9.695
   26CHL1   H2A 1898  -0.140   5.169   9.753
   26CHL1   H2B 1899   0.025   5.149   9.727
   26CHL1   C20 1900   0.036   5.188   8.759
   26CHL1   H20 1901   0.142   5.194   8.733
   26CHL1   C21 1902  -0.013   5.325   8.800
   26CHL1  H21A 1903   0.039   5.366   8.888
   26CHL1  H21B 1904  -0.123   5.329   8.813
   26CHL1  H21C 1905   0.016   5.391   8.720
   26CHL1   C22 1906  -0.042   5.145   8.638
   26CHL1  H22A 1907  -0.056   5.034   8.638
   26CHL1  H22B 1908  -0.136   5.202   8.624
   26CHL1   C23 1909   0.028   5.150   8.511
   26CHL1  H23A 1910  -0.036   5.096   8.444
   26CHL1  H23B 1911   0.051   5.255   8.479
   26CHL1   C24 1912   0.125   5.036   8.491
   26CHL1  H24A 1913   0.178   5.099   8.560
   26CHL1  H24B 1914   0.104   4.940   8.535
   26CHL1   C25 1915   0.176   5.007   8.351
   26CHL1   H25 1916   0.107   4.990   8.269
   26CHL1   C26 1917   0.219   5.137   8.328
   26CHL1  H26A 1918   0.309   5.118   8.377
   26CHL1  H26B 1919   0.235   5.177   8.234
   26CHL1  H26C 1920   0.177   5.238   8.345
   26CHL1   C27 1921   0.293   4.909   8.327
   26CHL1  H27A 1922   0.342   4.925   8.230
   26CHL1  H27B 1923   0.377   4.922   8.398
   26CHL1  H27C 1924   0.253   4.809   8.310
   27CHL1    C3 1925   0.347   1.383   9.736
   27CHL1    H3 1926   0.335   1.273   9.728
   27CHL1    O3 1927   0.320   1.425   9.868
   27CHL1   H3' 1928   0.224   1.413   9.876
   27CHL1    C4 1929   0.493   1.415   9.703
   27CHL1   H4A 1930   0.513   1.523   9.719
   27CHL1   H4B 1931   0.555   1.357   9.774
   27CHL1    C5 1932   0.518   1.374   9.562
   27CHL1    C6 1933   0.608   1.283   9.528
   27CHL1    H6 1934   0.678   1.239   9.600
   27CHL1    C7 1935   0.623   1.241   9.387
   27CHL1   H7A 1936   0.722   1.237   9.386
   27CHL1   H7B 1937   0.605   1.135   9.365
   27CHL1    C8 1938   0.576   1.340   9.280
   27CHL1    H8 1939   0.635   1.434   9.274
   27CHL1   C14 1940   0.573   1.274   9.142
   27CHL1   H14 1941   0.523   1.174   9.153
   27CHL1   C15 1942   0.693   1.235   9.073
   27CHL1  H15A 1943   0.763   1.317   9.089
   27CHL1  H15B 1944   0.721   1.138   9.120
   27CHL1   C16 1945   0.671   1.230   8.920
   27CHL1  H16A 1946   0.735   1.300   8.862
   27CHL1  H16B 1947   0.685   1.127   8.878
   27CHL1   C17 1948   0.531   1.285   8.902
   27CHL1   H17 1949   0.485   1.188   8.896
   27CHL1   C13 1950   0.511   1.362   9.037
   27CHL1   C18 1951   0.570   1.496   9.010
   27CHL1  H18A 1952   0.518   1.541   8.923
   27CHL1  H18B 1953   0.546   1.563   9.095
   27CHL1  H18C 1954   0.677   1.485   8.991
   27CHL1   C12 1955   0.383   1.398   9.097
   27CHL1  H12A 1956   0.311   1.440   9.027
   27CHL1  H12B 1957   0.371   1.298   9.142
   27CHL1   C11 1958   0.355   1.454   9.229
   27CHL1  H11A 1959   0.372   1.559   9.205
   27CHL1  H11B 1960   0.245   1.448   9.249
   27CHL1    C9 1961   0.435   1.371   9.328
   27CHL1    H9 1962   0.393   1.267   9.340
   27CHL1   C10 1963   0.420   1.430   9.462
   27CHL1   C19 1964   0.446   1.576   9.447
   27CHL1  H19A 1965   0.545   1.604   9.404
   27CHL1  H19B 1966   0.363   1.626   9.394
   27CHL1  H19C 1967   0.440   1.613   9.549
   27CHL1    C1 1968   0.271   1.414   9.502
   27CHL1   H1A 1969   0.199   1.470   9.440
   27CHL1   H1B 1970   0.246   1.309   9.489
   27CHL1    C2 1971   0.248   1.454   9.646
   27CHL1   H2A 1972   0.144   1.426   9.674
   27CHL1   H2B 1973   0.260   1.564   9.650
   27CHL1   C20 1974   0.512   1.354   8.766
   27CHL1   H20 1975   0.584   1.435   8.754
   27CHL1   C21 1976   0.372   1.418   8.744
   27CHL1  H21A 1977   0.353   1.500   8.814
   27CHL1  H21B 1978   0.289   1.360   8.773
   27CHL1  H21C 1979   0.337   1.431   8.641
   27CHL1   C22 1980   0.560   1.271   8.649
   27CHL1  H22A 1981   0.630   1.188   8.673
   27CHL1  H22B 1982   0.472   1.223   8.633
   27CHL1   C23 1983   0.537   1.329   8.510
   27CHL1  H23A 1984   0.432   1.370   8.497
   27CHL1  H23B 1985   0.624   1.389   8.491
   27CHL1   C24 1986   0.533   1.237   8.395
   27CHL1  H24A 1987   0.623   1.170   8.393
   27CHL1  H24B 1988   0.429   1.202   8.409
   27CHL1   C25 1989   0.504   1.279   8.259
   27CHL1   H25 1990   0.399   1.315   8.240
   27CHL1   C26 1991   0.612   1.366   8.237
   27CHL1  H26A 1992   0.575   1.380   8.134
   27CHL1  H26B 1993   0.620   1.461   8.285
   27CHL1  H26C 1994   0.705   1.302   8.255
   27CHL1   C27 1995   0.522   1.169   8.161
   27CHL1  H27A 1996   0.485   1.181   8.056
   27CHL1  H27B 1997   0.606   1.097   8.165
   27CHL1  H27C 1998   0.447   1.113   8.206
   28CHL1    C3 1999   6.323   6.988   9.767
   28CHL1    H3 2000   6.247   6.927   9.813
   28CHL1    O3 2001   6.434   7.011   9.854
   28CHL1   H3' 2002   6.408   7.082   9.915
   28CHL1    C4 2003   6.364   6.900   9.656
   28CHL1   H4A 2004   6.432   6.985   9.636
   28CHL1   H4B 2005   6.422   6.810   9.684
   28CHL1    C5 2006   6.285   6.880   9.530
   28CHL1    C6 2007   6.284   6.758   9.474
   28CHL1    H6 2008   6.350   6.680   9.515
   28CHL1    C7 2009   6.214   6.730   9.347
   28CHL1   H7A 2010   6.273   6.664   9.277
   28CHL1   H7B 2011   6.122   6.676   9.374
   28CHL1    C8 2012   6.177   6.863   9.276
   28CHL1    H8 2013   6.262   6.895   9.216
   28CHL1   C14 2014   6.074   6.837   9.176
   28CHL1   H14 2015   5.983   6.818   9.238
   28CHL1   C15 2016   6.096   6.713   9.089
   28CHL1  H15A 2017   6.195   6.695   9.045
   28CHL1  H15B 2018   6.058   6.620   9.142
   28CHL1   C16 2019   6.017   6.757   8.968
   28CHL1  H16A 2020   6.012   6.701   8.876
   28CHL1  H16B 2021   5.937   6.703   9.000
   28CHL1   C17 2022   5.960   6.903   8.981
   28CHL1   H17 2023   5.871   6.906   9.052
   28CHL1   C13 2024   6.046   6.960   9.086
   28CHL1   C18 2025   6.158   7.005   8.996
   28CHL1  H18A 2026   6.186   6.926   8.922
   28CHL1  H18B 2027   6.124   7.093   8.940
   28CHL1  H18C 2028   6.243   7.036   9.056
   28CHL1   C12 2029   5.982   7.068   9.173
   28CHL1  H12A 2030   5.953   7.152   9.107
   28CHL1  H12B 2031   5.889   7.031   9.222
   28CHL1   C11 2032   6.080   7.103   9.283
   28CHL1  H11A 2033   6.165   7.150   9.230
   28CHL1  H11B 2034   6.032   7.178   9.350
   28CHL1    C9 2035   6.127   6.978   9.365
   28CHL1    H9 2036   6.038   6.940   9.420
   28CHL1   C10 2037   6.227   7.010   9.474
   28CHL1   C19 2038   6.326   7.109   9.413
   28CHL1  H19A 2039   6.416   7.114   9.475
   28CHL1  H19B 2040   6.349   7.081   9.312
   28CHL1  H19C 2041   6.289   7.213   9.403
   28CHL1    C1 2042   6.171   7.087   9.593
   28CHL1   H1A 2043   6.130   7.183   9.557
   28CHL1   H1B 2044   6.092   7.023   9.636
   28CHL1    C2 2045   6.272   7.119   9.706
   28CHL1   H2A 2046   6.220   7.171   9.787
   28CHL1   H2B 2047   6.355   7.184   9.668
   28CHL1   C20 2048   5.922   6.962   8.834
   28CHL1   H20 2049   6.017   6.967   8.780
   28CHL1   C21 2050   5.874   7.111   8.852
   28CHL1  H21A 2051   5.953   7.175   8.894
   28CHL1  H21B 2052   5.789   7.137   8.918
   28CHL1  H21C 2053   5.839   7.147   8.753
   28CHL1   C22 2054   5.839   6.869   8.721
   28CHL1  H22A 2055   5.811   6.764   8.727
   28CHL1  H22B 2056   5.733   6.872   8.731
   28CHL1   C23 2057   5.792   6.907   8.587
   28CHL1  H23A 2058   5.755   7.013   8.595
   28CHL1  H23B 2059   5.893   6.888   8.549
   28CHL1   C24 2060   5.686   6.800   8.540
   28CHL1  H24A 2061   5.721   6.697   8.559
   28CHL1  H24B 2062   5.581   6.806   8.578
   28CHL1   C25 2063   5.677   6.812   8.395
   28CHL1   H25 2064   5.775   6.808   8.346
   28CHL1   C26 2065   5.576   6.716   8.334
   28CHL1  H26A 2066   5.622   6.616   8.338
   28CHL1  H26B 2067   5.482   6.718   8.395
   28CHL1  H26C 2068   5.547   6.739   8.230
   28CHL1   C27 2069   5.631   6.946   8.379
   28CHL1  H27A 2070   5.654   7.037   8.437
   28CHL1  H27B 2071   5.662   6.966   8.275
   28CHL1  H27C 2072   5.522   6.931   8.383
   29CHL1    C3 2073   4.001   5.058   6.264
   29CHL1    H3 2074   3.908   5.001   6.284
   29CHL1    O3 2075   4.020   5.059   6.125
   29CHL1   H3' 2076   4.081   4.986   6.109
   29CHL1    C4 2077   3.983   5.196   6.319
   29CHL1   H4A 2078   4.054   5.268   6.278
   29CHL1   H4B 2079   3.882   5.225   6.285
   29CHL1    C5 2080   3.999   5.191   6.468
   29CHL1    C6 2081   3.915   5.242   6.547
   29CHL1    H6 2082   3.832   5.284   6.492
   29CHL1    C7 2083   3.919   5.228   6.699
   29CHL1   H7A 2084   3.876   5.301   6.762
   29CHL1   H7B 2085   3.860   5.141   6.740
   29CHL1    C8 2086   4.044   5.238   6.761
   29CHL1    H8 2087   4.097   5.331   6.729
   29CHL1   C14 2088   4.025   5.225   6.915
   29CHL1   H14 2089   3.972   5.128   6.933
   29CHL1   C15 2090   3.952   5.330   6.999
   29CHL1  H15A 2091   3.976   5.432   6.961
   29CHL1  H15B 2092   3.844   5.311   7.000
   29CHL1   C16 2093   4.005   5.314   7.140
   29CHL1  H16A 2094   4.045   5.414   7.171
   29CHL1  H16B 2095   3.938   5.275   7.219
   29CHL1   C17 2096   4.119   5.217   7.130
   29CHL1   H17 2097   4.094   5.110   7.151
   29CHL1   C13 2098   4.151   5.209   6.983
   29CHL1   C18 2099   4.227   5.335   6.946
   29CHL1  H18A 2100   4.255   5.356   6.842
   29CHL1  H18B 2101   4.184   5.425   6.993
   29CHL1  H18C 2102   4.320   5.324   6.994
   29CHL1   C12 2103   4.183   5.069   6.927
   29CHL1  H12A 2104   4.277   5.037   6.957
   29CHL1  H12B 2105   4.128   4.983   6.959
   29CHL1   C11 2106   4.185   5.068   6.779
   29CHL1  H11A 2107   4.247   5.154   6.797
   29CHL1  H11B 2108   4.223   4.985   6.718
   29CHL1    C9 2109   4.089   5.117   6.691
   29CHL1    H9 2110   4.022   5.028   6.708
   29CHL1   C10 2111   4.109   5.124   6.532
   29CHL1   C19 2112   4.211   5.207   6.459
   29CHL1  H19A 2113   4.220   5.307   6.506
   29CHL1  H19B 2114   4.298   5.140   6.472
   29CHL1  H19C 2115   4.229   5.208   6.351
   29CHL1    C1 2116   4.126   4.990   6.476
   29CHL1   H1A 2117   4.219   4.944   6.517
   29CHL1   H1B 2118   4.040   4.942   6.521
   29CHL1    C2 2119   4.125   4.995   6.322
   29CHL1   H2A 2120   4.121   4.899   6.277
   29CHL1   H2B 2121   4.223   5.021   6.279
   29CHL1   C20 2122   4.209   5.275   7.234
   29CHL1   H20 2123   4.254   5.375   7.215
   29CHL1   C21 2124   4.312   5.194   7.233
   29CHL1  H21A 2125   4.286   5.088   7.254
   29CHL1  H21B 2126   4.386   5.242   7.302
   29CHL1  H21C 2127   4.368   5.199   7.146
   29CHL1   C22 2128   4.159   5.261   7.377
   29CHL1  H22A 2129   4.092   5.347   7.381
   29CHL1  H22B 2130   4.107   5.163   7.390
   29CHL1   C23 2131   4.266   5.280   7.485
   29CHL1  H23A 2132   4.337   5.196   7.493
   29CHL1  H23B 2133   4.327   5.369   7.454
   29CHL1   C24 2134   4.206   5.289   7.622
   29CHL1  H24A 2135   4.166   5.393   7.628
   29CHL1  H24B 2136   4.124   5.219   7.640
   29CHL1   C25 2137   4.304   5.255   7.733
   29CHL1   H25 2138   4.254   5.291   7.826
   29CHL1   C26 2139   4.343   5.120   7.767
   29CHL1  H26A 2140   4.439   5.105   7.721
   29CHL1  H26B 2141   4.379   5.118   7.871
   29CHL1  H26C 2142   4.270   5.046   7.739
   29CHL1   C27 2143   4.439   5.309   7.706
   29CHL1  H27A 2144   4.488   5.334   7.805
   29CHL1  H27B 2145   4.499   5.326   7.617
   29CHL1  H27C 2146   4.418   5.393   7.647
   30CHL1    C3 2147   2.592   2.554   6.265
   30CHL1    H3 2148   2.694   2.567   6.306
   30CHL1    O3 2149   2.593   2.542   6.125
   30CHL1   H3' 2150   2.610   2.449   6.111
   30CHL1    C4 2151   2.536   2.423   6.319
   30CHL1   H4A 2152   2.433   2.411   6.278
   30CHL1   H4B 2153   2.598   2.337   6.285
   30CHL1    C5 2154   2.537   2.435   6.469
   30CHL1    C6 2155   2.602   2.347   6.542
   30CHL1    H6 2156   2.648   2.262   6.491
   30CHL1    C7 2157   2.618   2.355   6.690
   30CHL1   H7A 2158   2.593   2.257   6.739
   30CHL1   H7B 2159   2.720   2.387   6.719
   30CHL1    C8 2160   2.529   2.462   6.748
   30CHL1    H8 2161   2.440   2.417   6.736
   30CHL1   C14 2162   2.567   2.494   6.886
   30CHL1   H14 2163   2.656   2.556   6.876
   30CHL1   C15 2164   2.620   2.380   6.972
   30CHL1  H15A 2165   2.555   2.289   6.976
   30CHL1  H15B 2166   2.715   2.335   6.940
   30CHL1   C16 2167   2.623   2.470   7.096
   30CHL1  H16A 2168   2.631   2.383   7.167
   30CHL1  H16B 2169   2.662   2.494   7.188
   30CHL1   C17 2170   2.538   2.604   7.099
   30CHL1   H17 2171   2.614   2.682   7.092
   30CHL1   C13 2172   2.484   2.600   6.962
   30CHL1   C18 2173   2.360   2.556   6.971
   30CHL1  H18A 2174   2.352   2.459   6.979
   30CHL1  H18B 2175   2.283   2.594   7.037
   30CHL1  H18C 2176   2.325   2.523   6.875
   30CHL1   C12 2177   2.438   2.720   6.884
   30CHL1  H12A 2178   2.354   2.773   6.936
   30CHL1  H12B 2179   2.529   2.779   6.887
   30CHL1   C11 2180   2.392   2.681   6.741
   30CHL1  H11A 2181   2.290   2.635   6.737
   30CHL1  H11B 2182   2.376   2.774   6.689
   30CHL1    C9 2183   2.496   2.586   6.673
   30CHL1    H9 2184   2.595   2.634   6.684
   30CHL1   C10 2185   2.471   2.561   6.525
   30CHL1   C19 2186   2.327   2.548   6.488
   30CHL1  H19A 2187   2.261   2.623   6.536
   30CHL1  H19B 2188   2.298   2.536   6.382
   30CHL1  H19C 2189   2.292   2.452   6.516
   30CHL1    C1 2190   2.504   2.691   6.458
   30CHL1   H1A 2191   2.428   2.767   6.489
   30CHL1   H1B 2192   2.601   2.721   6.503
   30CHL1    C2 2193   2.506   2.675   6.307
   30CHL1   H2A 2194   2.540   2.770   6.265
   30CHL1   H2B 2195   2.405   2.654   6.265
   30CHL1   C20 2196   2.456   2.654   7.229
   30CHL1   H20 2197   2.372   2.592   7.257
   30CHL1   C21 2198   2.360   2.766   7.210
   30CHL1  H21A 2199   2.299   2.779   7.303
   30CHL1  H21B 2200   2.284   2.749   7.132
   30CHL1  H21C 2201   2.426   2.849   7.187
   30CHL1   C22 2202   2.523   2.643   7.367
   30CHL1  H22A 2203   2.586   2.552   7.375
   30CHL1  H22B 2204   2.598   2.723   7.374
   30CHL1   C23 2205   2.423   2.639   7.493
   30CHL1  H23A 2206   2.503   2.659   7.564
   30CHL1  H23B 2207   2.367   2.723   7.474
   30CHL1   C24 2208   2.278   2.561   7.523
   30CHL1  H24A 2209   2.210   2.580   7.439
   30CHL1  H24B 2210   2.244   2.465   7.504
   30CHL1   C25 2211   2.220   2.506   7.660
   30CHL1   H25 2212   2.209   2.594   7.705
   30CHL1   C26 2213   2.112   2.400   7.676
   30CHL1  H26A 2214   2.053   2.412   7.585
   30CHL1  H26B 2215   2.156   2.299   7.691
   30CHL1  H26C 2216   2.060   2.430   7.771
   30CHL1   C27 2217   2.275   2.506   7.787
   30CHL1  H27A 2218   2.222   2.488   7.881
   30CHL1  H27B 2219   2.299   2.400   7.777
   30CHL1  H27C 2220   2.358   2.586   7.798
   31CHL1    C3 2221   2.686   4.957   6.274
   31CHL1    H3 2222   2.729   4.858   6.303
   31CHL1    O3 2223   2.689   4.965   6.132
   31CHL1   H3' 2224   2.777   4.937   6.106
   31CHL1    C4 2225   2.544   4.964   6.330
   31CHL1   H4A 2226   2.503   5.063   6.300
   31CHL1   H4B 2227   2.481   4.885   6.284
   31CHL1    C5 2228   2.541   4.957   6.481
   31CHL1    C6 2229   2.479   4.859   6.545
   31CHL1    H6 2230   2.440   4.775   6.488
   31CHL1    C7 2231   2.458   4.859   6.693
   31CHL1   H7A 2232   2.350   4.859   6.719
   31CHL1   H7B 2233   2.507   4.769   6.737
   31CHL1    C8 2234   2.501   4.986   6.762
   31CHL1    H8 2235   2.422   5.062   6.741
   31CHL1   C14 2236   2.511   4.954   6.907
   31CHL1   H14 2237   2.583   4.867   6.911
   31CHL1   C15 2238   2.386   4.908   6.975
   31CHL1  H15A 2239   2.289   4.921   6.921
   31CHL1  H15B 2240   2.422   4.807   6.984
   31CHL1   C16 2241   2.395   4.934   7.122
   31CHL1  H16A 2242   2.319   5.011   7.141
   31CHL1  H16B 2243   2.373   4.849   7.189
   31CHL1   C17 2244   2.540   4.985   7.136
   31CHL1   H17 2245   2.607   4.896   7.145
   31CHL1   C13 2246   2.569   5.053   7.001
   31CHL1   C18 2247   2.488   5.184   6.991
   31CHL1  H18A 2248   2.483   5.220   6.887
   31CHL1  H18B 2249   2.383   5.171   7.024
   31CHL1  H18C 2250   2.538   5.259   7.054
   31CHL1   C12 2251   2.713   5.068   6.952
   31CHL1  H12A 2252   2.767   5.139   7.017
   31CHL1  H12B 2253   2.762   4.968   6.961
   31CHL1   C11 2254   2.715   5.114   6.803
   31CHL1  H11A 2255   2.675   5.216   6.797
   31CHL1  H11B 2256   2.819   5.115   6.767
   31CHL1    C9 2257   2.635   5.020   6.708
   31CHL1    H9 2258   2.692   4.923   6.712
   31CHL1   C10 2259   2.623   5.060   6.557
   31CHL1   C19 2260   2.555   5.199   6.546
   31CHL1  H19A 2261   2.454   5.201   6.593
   31CHL1  H19B 2262   2.618   5.275   6.596
   31CHL1  H19C 2263   2.541   5.229   6.441
   31CHL1    C1 2264   2.764   5.059   6.493
   31CHL1   H1A 2265   2.821   5.141   6.541
   31CHL1   H1B 2266   2.812   4.962   6.522
   31CHL1    C2 2267   2.772   5.066   6.338
   31CHL1   H2A 2268   2.875   5.045   6.302
   31CHL1   H2B 2269   2.744   5.169   6.306
   31CHL1   C20 2270   2.552   5.067   7.262
   31CHL1   H20 2271   2.487   5.158   7.259
   31CHL1   C21 2272   2.698   5.110   7.284
   31CHL1  H21A 2273   2.764   5.024   7.260
   31CHL1  H21B 2274   2.717   5.142   7.388
   31CHL1  H21C 2275   2.724   5.195   7.218
   31CHL1   C22 2276   2.500   4.988   7.380
   31CHL1  H22A 2277   2.401   4.938   7.365
   31CHL1  H22B 2278   2.571   4.912   7.419
   31CHL1   C23 2279   2.472   5.091   7.482
   31CHL1  H23A 2280   2.552   5.158   7.518
   31CHL1  H23B 2281   2.388   5.157   7.443
   31CHL1   C24 2282   2.418   5.022   7.600
   31CHL1  H24A 2283   2.407   5.121   7.650
   31CHL1  H24B 2284   2.331   4.967   7.562
   31CHL1   C25 2285   2.469   4.923   7.703
   31CHL1   H25 2286   2.482   4.831   7.643
   31CHL1   C26 2287   2.587   4.995   7.767
   31CHL1  H26A 2288   2.555   5.078   7.837
   31CHL1  H26B 2289   2.635   4.920   7.828
   31CHL1  H26C 2290   2.652   5.038   7.690
   31CHL1   C27 2291   2.377   4.878   7.825
   31CHL1  H27A 2292   2.337   4.941   7.907
   31CHL1  H27B 2293   2.270   4.861   7.796
   31CHL1  H27C 2294   2.417   4.965   7.876
   32CHL1    C3 2295   2.041   3.729   6.264
   32CHL1    H3 2296   2.114   3.647   6.282
   32CHL1    O3 2297   1.987   3.726   6.134
   32CHL1   H3' 2298   2.062   3.711   6.077
   32CHL1    C4 2299   1.933   3.726   6.368
   32CHL1   H4A 2300   1.868   3.809   6.332
   32CHL1   H4B 2301   1.875   3.634   6.354
   32CHL1    C5 2302   1.973   3.748   6.514
   32CHL1    C6 2303   1.943   3.668   6.611
   32CHL1    H6 2304   1.888   3.586   6.576
   32CHL1    C7 2305   1.973   3.689   6.757
   32CHL1   H7A 2306   1.891   3.674   6.827
   32CHL1   H7B 2307   2.052   3.619   6.789
   32CHL1    C8 2308   2.014   3.832   6.784
   32CHL1    H8 2309   1.922   3.897   6.779
   32CHL1   C14 2310   2.089   3.837   6.913
   32CHL1   H14 2311   2.182   3.779   6.900
   32CHL1   C15 2312   2.026   3.770   7.029
   32CHL1  H15A 2313   1.929   3.801   6.990
   32CHL1  H15B 2314   2.034   3.661   7.036
   32CHL1   C16 2315   2.075   3.844   7.150
   32CHL1  H16A 2316   2.006   3.924   7.180
   32CHL1  H16B 2317   2.096   3.780   7.237
   32CHL1   C17 2318   2.180   3.936   7.103
   32CHL1   H17 2319   2.275   3.881   7.097
   32CHL1   C13 2320   2.131   3.971   6.960
   32CHL1   C18 2321   2.009   4.066   6.958
   32CHL1  H18A 2322   1.942   4.057   7.044
   32CHL1  H18B 2323   2.057   4.155   6.981
   32CHL1  H18C 2324   1.955   4.089   6.862
   32CHL1   C12 2325   2.239   4.002   6.862
   32CHL1  H12A 2326   2.285   4.097   6.860
   32CHL1  H12B 2327   2.326   3.936   6.875
   32CHL1   C11 2328   2.183   3.994   6.724
   32CHL1  H11A 2329   2.122   4.086   6.709
   32CHL1  H11B 2330   2.275   3.986   6.664
   32CHL1    C9 2331   2.115   3.869   6.683
   32CHL1    H9 2332   2.198   3.795   6.681
   32CHL1   C10 2333   2.054   3.867   6.547
   32CHL1   C19 2334   1.988   4.000   6.537
   32CHL1  H19A 2335   1.937   3.969   6.447
   32CHL1  H19B 2336   1.918   4.031   6.617
   32CHL1  H19C 2337   2.044   4.087   6.498
   32CHL1    C1 2338   2.149   3.859   6.433
   32CHL1   H1A 2339   2.186   3.961   6.452
   32CHL1   H1B 2340   2.224   3.778   6.449
   32CHL1    C2 2341   2.106   3.859   6.285
   32CHL1   H2A 2342   2.189   3.860   6.211
   32CHL1   H2B 2343   2.045   3.950   6.266
   32CHL1   C20 2344   2.196   4.039   7.208
   32CHL1   H20 2345   2.098   4.094   7.214
   32CHL1   C21 2346   2.314   4.117   7.159
   32CHL1  H21A 2347   2.378   4.087   7.076
   32CHL1  H21B 2348   2.367   4.180   7.231
   32CHL1  H21C 2349   2.249   4.191   7.116
   32CHL1   C22 2350   2.222   4.000   7.354
   32CHL1  H22A 2351   2.170   3.910   7.386
   32CHL1  H22B 2352   2.332   3.991   7.350
   32CHL1   C23 2353   2.195   4.102   7.468
   32CHL1  H23A 2354   2.293   4.153   7.459
   32CHL1  H23B 2355   2.108   4.167   7.452
   32CHL1   C24 2356   2.188   4.054   7.613
   32CHL1  H24A 2357   2.126   3.964   7.608
   32CHL1  H24B 2358   2.287   4.005   7.602
   32CHL1   C25 2359   2.134   4.147   7.742
   32CHL1   H25 2360   2.140   4.067   7.817
   32CHL1   C26 2361   2.185   4.237   7.868
   32CHL1  H26A 2362   2.222   4.224   7.769
   32CHL1  H26B 2363   2.165   4.339   7.836
   32CHL1  H26C 2364   2.259   4.309   7.915
   32CHL1   C27 2365   2.015   4.236   7.718
   32CHL1  H27A 2366   1.931   4.171   7.720
   32CHL1  H27B 2367   1.996   4.307   7.803
   32CHL1  H27C 2368   2.026   4.297   7.626
   33CHL1    C3 2369   5.297   3.547   6.265
   33CHL1    H3 2370   5.271   3.655   6.260
   33CHL1    O3 2371   5.307   3.497   6.132
   33CHL1   H3' 2372   5.354   3.568   6.084
   33CHL1    C4 2373   5.432   3.533   6.336
   33CHL1   H4A 2374   5.461   3.425   6.337
   33CHL1   H4B 2375   5.510   3.584   6.276
   33CHL1    C5 2376   5.421   3.587   6.477
   33CHL1    C6 2377   5.495   3.692   6.518
   33CHL1    H6 2378   5.562   3.745   6.448
   33CHL1    C7 2379   5.501   3.735   6.661
   33CHL1   H7A 2380   5.607   3.743   6.691
   33CHL1   H7B 2381   5.456   3.836   6.672
   33CHL1    C8 2382   5.428   3.639   6.760
   33CHL1    H8 2383   5.493   3.551   6.782
   33CHL1   C14 2384   5.401   3.712   6.889
   33CHL1   H14 2385   5.337   3.794   6.860
   33CHL1   C15 2386   5.519   3.781   6.959
   33CHL1  H15A 2387   5.601   3.707   6.960
   33CHL1  H15B 2388   5.549   3.875   6.910
   33CHL1   C16 2389   5.465   3.812   7.098
   33CHL1  H16A 2390   5.535   3.774   7.176
   33CHL1  H16B 2391   5.457   3.921   7.113
   33CHL1   C17 2392   5.328   3.738   7.112
   33CHL1   H17 2393   5.242   3.801   7.085
   33CHL1   C13 2394   5.323   3.637   6.995
   33CHL1   C18 2395   5.402   3.509   7.031
   33CHL1  H18A 2396   5.402   3.436   6.948
   33CHL1  H18B 2397   5.508   3.528   7.053
   33CHL1  H18C 2398   5.352   3.461   7.117
   33CHL1   C12 2399   5.184   3.602   6.937
   33CHL1  H12A 2400   5.129   3.540   7.009
   33CHL1  H12B 2401   5.120   3.691   6.920
   33CHL1   C11 2402   5.201   3.524   6.805
   33CHL1  H11A 2403   5.240   3.425   6.835
   33CHL1  H11B 2404   5.101   3.509   6.760
   33CHL1    C9 2405   5.295   3.592   6.701
   33CHL1    H9 2406   5.241   3.686   6.675
   33CHL1   C10 2407   5.315   3.518   6.565
   33CHL1   C19 2408   5.354   3.373   6.597
   33CHL1  H19A 2409   5.270   3.328   6.655
   33CHL1  H19B 2410   5.366   3.312   6.505
   33CHL1  H19C 2411   5.446   3.369   6.657
   33CHL1    C1 2412   5.178   3.511   6.490
   33CHL1   H1A 2413   5.115   3.435   6.541
   33CHL1   H1B 2414   5.128   3.610   6.499
   33CHL1    C2 2415   5.183   3.475   6.340
   33CHL1   H2A 2416   5.086   3.508   6.296
   33CHL1   H2B 2417   5.192   3.365   6.328
   33CHL1   C20 2418   5.305   3.700   7.259
   33CHL1   H20 2419   5.385   3.628   7.283
   33CHL1   C21 2420   5.167   3.634   7.281
   33CHL1  H21A 2421   5.147   3.554   7.208
   33CHL1  H21B 2422   5.086   3.710   7.278
   33CHL1  H21C 2423   5.169   3.588   7.382
   33CHL1   C22 2424   5.316   3.823   7.356
   33CHL1  H22A 2425   5.360   3.909   7.302
   33CHL1  H22B 2426   5.215   3.857   7.385
   33CHL1   C23 2427   5.400   3.806   7.486
   33CHL1  H23A 2428   5.503   3.769   7.463
   33CHL1  H23B 2429   5.411   3.908   7.530
   33CHL1   C24 2430   5.338   3.717   7.595
   33CHL1  H24A 2431   5.236   3.756   7.618
   33CHL1  H24B 2432   5.329   3.612   7.558
   33CHL1   C25 2433   5.415   3.721   7.729
   33CHL1   H25 2434   5.447   3.827   7.746
   33CHL1   C26 2435   5.326   3.683   7.849
   33CHL1  H26A 2436   5.244   3.756   7.861
   33CHL1  H26B 2437   5.282   3.581   7.838
   33CHL1  H26C 2438   5.388   3.682   7.941
   33CHL1   C27 2439   5.541   3.632   7.728
   33CHL1  H27A 2440   5.612   3.667   7.805
   33CHL1  H27B 2441   5.510   3.527   7.751
   33CHL1  H27C 2442   5.592   3.631   7.630
   34CHL1    C3 2443   4.592   2.219   6.264
   34CHL1    H3 2444   4.506   2.262   6.228
   34CHL1    O3 2445   4.629   2.179   6.133
   34CHL1   H3' 2446   4.645   2.262   6.087
   34CHL1    C4 2447   4.682   2.320   6.336
   34CHL1   H4A 2448   4.781   2.270   6.335
   34CHL1   H4B 2449   4.698   2.410   6.272
   34CHL1    C5 2450   4.634   2.362   6.478
   34CHL1    C6 2451   4.625   2.493   6.513
   34CHL1    H6 2452   4.656   2.566   6.436
   34CHL1    C7 2453   4.605   2.548   6.652
   34CHL1   H7A 2454   4.678   2.627   6.677
   34CHL1   H7B 2455   4.511   2.600   6.668
   34CHL1    C8 2456   4.604   2.434   6.753
   34CHL1    H8 2457   4.709   2.404   6.769
   34CHL1   C14 2458   4.548   2.486   6.881
   34CHL1   H14 2459   4.443   2.522   6.862
   34CHL1   C15 2460   4.623   2.604   6.943
   34CHL1  H15A 2461   4.729   2.573   6.951
   34CHL1  H15B 2462   4.618   2.699   6.887
   34CHL1   C16 2463   4.556   2.613   7.078
   34CHL1  H16A 2464   4.627   2.647   7.156
   34CHL1  H16B 2465   4.469   2.683   7.072
   34CHL1   C17 2466   4.497   2.471   7.105
   34CHL1   H17 2467   4.387   2.480   7.088
   34CHL1   C13 2468   4.542   2.381   6.991
   34CHL1   C18 2469   4.682   2.324   7.027
   34CHL1  H18A 2470   4.674   2.245   7.105
   34CHL1  H18B 2471   4.732   2.279   6.939
   34CHL1  H18C 2472   4.749   2.402   7.070
   34CHL1   C12 2473   4.446   2.269   6.943
   34CHL1  H12A 2474   4.439   2.190   7.020
   34CHL1  H12B 2475   4.343   2.306   6.924
   34CHL1   C11 2476   4.498   2.207   6.813
   34CHL1  H11A 2477   4.582   2.140   6.836
   34CHL1  H11B 2478   4.414   2.151   6.766
   34CHL1    C9 2479   4.531   2.310   6.704
   34CHL1    H9 2480   4.426   2.341   6.683
   34CHL1   C10 2481   4.593   2.252   6.573
   34CHL1   C19 2482   4.718   2.169   6.604
   34CHL1  H19A 2483   4.777   2.146   6.513
   34CHL1  H19B 2484   4.783   2.223   6.675
   34CHL1  H19C 2485   4.686   2.071   6.646
   34CHL1    C1 2486   4.488   2.168   6.499
   34CHL1   H1A 2487   4.453   2.086   6.563
   34CHL1   H1B 2488   4.399   2.232   6.499
   34CHL1    C2 2489   4.535   2.114   6.360
   34CHL1   H2A 2490   4.455   2.065   6.302
   34CHL1   H2B 2491   4.621   2.047   6.373
   34CHL1   C20 2492   4.523   2.424   7.247
   34CHL1   H20 2493   4.630   2.404   7.266
   34CHL1   C21 2494   4.441   2.294   7.262
   34CHL1  H21A 2495   4.497   2.205   7.227
   34CHL1  H21B 2496   4.348   2.301   7.201
   34CHL1  H21C 2497   4.412   2.270   7.365
   34CHL1   C22 2498   4.499   2.536   7.349
   34CHL1  H22A 2499   4.528   2.640   7.329
   34CHL1  H22B 2500   4.398   2.556   7.354
   34CHL1   C23 2501   4.540   2.498   7.487
   34CHL1  H23A 2502   4.486   2.411   7.530
   34CHL1  H23B 2503   4.647   2.473   7.479
   34CHL1   C24 2504   4.522   2.612   7.579
   34CHL1  H24A 2505   4.579   2.704   7.556
   34CHL1  H24B 2506   4.416   2.646   7.598
   34CHL1   C25 2507   4.574   2.551   7.702
   34CHL1   H25 2508   4.519   2.457   7.730
   34CHL1   C26 2509   4.727   2.525   7.720
   34CHL1  H26A 2510   4.756   2.492   7.822
   34CHL1  H26B 2511   4.755   2.443   7.651
   34CHL1  H26C 2512   4.790   2.614   7.698
   34CHL1   C27 2513   4.528   2.660   7.778
   34CHL1  H27A 2514   4.438   2.720   7.793
   34CHL1  H27B 2515   4.487   2.584   7.852
   34CHL1  H27C 2516   4.621   2.721   7.802
   35CHL1    C3 2517   2.005   4.540   6.263
   35CHL1    H3 2518   1.952   4.636   6.285
   35CHL1    O3 2519   1.998   4.511   6.124
   35CHL1   H3' 2520   2.052   4.431   6.114
   35CHL1    C4 2521   2.150   4.558   6.304
   35CHL1   H4A 2522   2.213   4.472   6.271
   35CHL1   H4B 2523   2.193   4.648   6.253
   35CHL1    C5 2524   2.147   4.576   6.454
   35CHL1    C6 2525   2.216   4.668   6.515
   35CHL1    H6 2526   2.270   4.741   6.454
   35CHL1    C7 2527   2.236   4.659   6.662
   35CHL1   H7A 2528   2.344   4.661   6.680
   35CHL1   H7B 2529   2.180   4.742   6.711
   35CHL1    C8 2530   2.197   4.536   6.742
   35CHL1    H8 2531   2.253   4.452   6.731
   35CHL1   C14 2532   2.208   4.552   6.889
   35CHL1   H14 2533   2.119   4.617   6.910
   35CHL1   C15 2534   2.328   4.617   6.941
   35CHL1  H15A 2535   2.426   4.610   6.891
   35CHL1  H15B 2536   2.285   4.713   6.910
   35CHL1   C16 2537   2.336   4.595   7.092
   35CHL1  H16A 2538   2.434   4.555   7.124
   35CHL1  H16B 2539   2.313   4.677   7.159
   35CHL1   C17 2540   2.221   4.501   7.117
   35CHL1   H17 2541   2.130   4.558   7.141
   35CHL1   C13 2542   2.194   4.437   6.977
   35CHL1   C18 2543   2.301   4.339   6.956
   35CHL1  H18A 2544   2.364   4.344   7.041
   35CHL1  H18B 2545   2.281   4.239   6.954
   35CHL1  H18C 2546   2.368   4.339   6.875
   35CHL1   C12 2547   2.060   4.391   6.938
   35CHL1  H12A 2548   2.037   4.321   7.014
   35CHL1  H12B 2549   1.993   4.472   6.967
   35CHL1   C11 2550   2.042   4.357   6.788
   35CHL1  H11A 2551   2.099   4.266   6.764
   35CHL1  H11B 2552   1.936   4.334   6.771
   35CHL1    C9 2553   2.074   4.478   6.695
   35CHL1    H9 2554   2.002   4.556   6.719
   35CHL1   C10 2555   2.072   4.470   6.539
   35CHL1   C19 2556   2.141   4.355   6.496
   35CHL1  H19A 2557   2.245   4.383   6.514
   35CHL1  H19B 2558   2.106   4.269   6.557
   35CHL1  H19C 2559   2.140   4.323   6.391
   35CHL1    C1 2560   1.937   4.434   6.491
   35CHL1   H1A 2561   1.905   4.335   6.534
   35CHL1   H1B 2562   1.876   4.512   6.537
   35CHL1    C2 2563   1.932   4.427   6.337
   35CHL1   H2A 2564   1.826   4.439   6.312
   35CHL1   H2B 2565   1.967   4.328   6.299
   35CHL1   C20 2566   2.253   4.423   7.240
   35CHL1   H20 2567   2.352   4.371   7.222
   35CHL1   C21 2568   2.137   4.329   7.265
   35CHL1  H21A 2569   2.057   4.331   7.337
   35CHL1  H21B 2570   2.203   4.257   7.310
   35CHL1  H21C 2571   2.098   4.278   7.179
   35CHL1   C22 2572   2.287   4.494   7.369
   35CHL1  H22A 2573   2.390   4.537   7.369
   35CHL1  H22B 2574   2.208   4.564   7.398
   35CHL1   C23 2575   2.296   4.390   7.476
   35CHL1  H23A 2576   2.188   4.362   7.500
   35CHL1  H23B 2577   2.360   4.314   7.427
   35CHL1   C24 2578   2.376   4.441   7.589
   35CHL1  H24A 2579   2.478   4.477   7.585
   35CHL1  H24B 2580   2.312   4.535   7.612
   35CHL1   C25 2581   2.391   4.353   7.712
   35CHL1   H25 2582   2.281   4.361   7.693
   35CHL1   C26 2583   2.422   4.176   7.742
   35CHL1  H26A 2584   2.479   4.077   7.736
   35CHL1  H26B 2585   2.387   4.131   7.840
   35CHL1  H26C 2586   2.399   4.132   7.649
   35CHL1   C27 2587   2.392   4.482   7.808
   35CHL1  H27A 2588   2.446   4.571   7.763
   35CHL1  H27B 2589   2.448   4.460   7.896
   35CHL1  H27C 2590   2.288   4.515   7.843
   36CHL1    C3 2591   2.018   2.135   6.267
   36CHL1    H3 2592   2.042   2.036   6.312
   36CHL1    O3 2593   1.974   2.119   6.132
   36CHL1   H3' 2594   1.949   2.206   6.098
   36CHL1    C4 2595   1.905   2.199   6.349
   36CHL1   H4A 2596   1.878   2.295   6.301
   36CHL1   H4B 2597   1.817   2.133   6.339
   36CHL1    C5 2598   1.942   2.225   6.494
   36CHL1    C6 2599   1.864   2.188   6.599
   36CHL1    H6 2600   1.769   2.137   6.582
   36CHL1    C7 2601   1.888   2.222   6.743
   36CHL1   H7A 2602   1.806   2.283   6.788
   36CHL1   H7B 2603   1.903   2.132   6.806
   36CHL1    C8 2604   2.009   2.308   6.758
   36CHL1    H8 2605   1.977   2.412   6.738
   36CHL1   C14 2606   2.053   2.286   6.900
   36CHL1   H14 2607   2.095   2.181   6.904
   36CHL1   C15 2608   1.961   2.302   7.022
   36CHL1  H15A 2609   1.894   2.390   7.015
   36CHL1  H15B 2610   1.914   2.203   7.031
   36CHL1   C16 2611   2.046   2.321   7.146
   36CHL1  H16A 2612   2.028   2.412   7.207
   36CHL1  H16B 2613   2.064   2.231   7.210
   36CHL1   C17 2614   2.178   2.336   7.082
   36CHL1   H17 2615   2.204   2.234   7.066
   36CHL1   C13 2616   2.161   2.372   6.929
   36CHL1   C18 2617   2.097   2.521   6.906
   36CHL1  H18A 2618   2.063   2.564   7.002
   36CHL1  H18B 2619   2.157   2.613   6.901
   36CHL1  H18C 2620   2.091   2.559   6.803
   36CHL1   C12 2621   2.271   2.305   6.835
   36CHL1  H12A 2622   2.372   2.314   6.876
   36CHL1  H12B 2623   2.299   2.206   6.805
   36CHL1   C11 2624   2.242   2.334   6.694
   36CHL1  H11A 2625   2.242   2.443   6.695
   36CHL1  H11B 2626   2.327   2.294   6.630
   36CHL1    C9 2627   2.116   2.272   6.655
   36CHL1    H9 2628   2.144   2.164   6.666
   36CHL1   C10 2629   2.077   2.295   6.509
   36CHL1   C19 2630   2.037   2.442   6.479
   36CHL1  H19A 2631   1.999   2.453   6.376
   36CHL1  H19B 2632   1.977   2.488   6.558
   36CHL1  H19C 2633   2.111   2.518   6.469
   36CHL1    C1 2634   2.188   2.237   6.415
   36CHL1   H1A 2635   2.282   2.294   6.416
   36CHL1   H1B 2636   2.217   2.137   6.456
   36CHL1    C2 2637   2.144   2.220   6.269
   36CHL1   H2A 2638   2.223   2.170   6.210
   36CHL1   H2B 2639   2.127   2.319   6.222
   36CHL1   C20 2640   2.265   2.393   7.191
   36CHL1   H20 2641   2.240   2.501   7.193
   36CHL1   C21 2642   2.400   2.360   7.179
   36CHL1  H21A 2643   2.459   2.431   7.223
   36CHL1  H21B 2644   2.425   2.359   7.083
   36CHL1  H21C 2645   2.463   2.279   7.173
   36CHL1   C22 2646   2.279   2.338   7.332
   36CHL1  H22A 2647   2.185   2.391   7.355
   36CHL1  H22B 2648   2.261   2.234   7.316
   36CHL1   C23 2649   2.422   2.363   7.423
   36CHL1  H23A 2650   2.527   2.361   7.390
   36CHL1  H23B 2651   2.403   2.457   7.387
   36CHL1   C24 2652   2.431   2.336   7.579
   36CHL1  H24A 2653   2.328   2.331   7.589
   36CHL1  H24B 2654   2.389   2.240   7.603
   36CHL1   C25 2655   2.512   2.422   7.696
   36CHL1   H25 2656   2.507   2.531   7.683
   36CHL1   C26 2657   2.509   2.409   7.863
   36CHL1  H26A 2658   2.437   2.466   7.929
   36CHL1  H26B 2659   2.431   2.332   7.887
   36CHL1  H26C 2660   2.533   2.511   7.902
   36CHL1   C27 2661   2.641   2.374   7.678
   36CHL1  H27A 2662   2.691   2.443   7.751
   36CHL1  H27B 2663   2.604   2.272   7.711
   36CHL1  H27C 2664   2.667   2.384   7.571
   37CHL1    C3 2665   4.000   5.843   6.262
   37CHL1    H3 2666   3.926   5.761   6.274
   37CHL1    O3 2667   4.031   5.868   6.126
   37CHL1   H3' 2668   4.020   5.783   6.085
   37CHL1    C4 2669   3.928   5.957   6.315
   37CHL1   H4A 2670   4.002   6.035   6.278
   37CHL1   H4B 2671   3.844   5.991   6.250
   37CHL1    C5 2672   3.899   5.921   6.469
   37CHL1    C6 2673   3.774   5.908   6.531
   37CHL1    H6 2674   3.687   5.939   6.471
   37CHL1    C7 2675   3.750   5.932   6.684
   37CHL1   H7A 2676   3.684   6.016   6.726
   37CHL1   H7B 2677   3.672   5.866   6.722
   37CHL1    C8 2678   3.880   5.967   6.762
   37CHL1    H8 2679   3.939   6.060   6.767
   37CHL1   C14 2680   3.850   5.947   6.905
   37CHL1   H14 2681   3.804   5.845   6.902
   37CHL1   C15 2682   3.749   6.024   6.971
   37CHL1  H15A 2683   3.751   6.136   6.958
   37CHL1  H15B 2684   3.657   5.965   6.944
   37CHL1   C16 2685   3.751   6.013   7.116
   37CHL1  H16A 2686   3.750   6.117   7.159
   37CHL1  H16B 2687   3.661   5.953   7.144
   37CHL1   C17 2688   3.873   5.933   7.127
   37CHL1   H17 2689   3.834   5.830   7.107
   37CHL1   C13 2690   3.955   5.975   7.003
   37CHL1   C18 2691   3.994   6.129   7.012
   37CHL1  H18A 2692   3.916   6.207   7.003
   37CHL1  H18B 2693   4.035   6.150   7.112
   37CHL1  H18C 2694   4.066   6.159   6.933
   37CHL1   C12 2695   4.061   5.879   6.954
   37CHL1  H12A 2696   4.149   5.894   7.017
   37CHL1  H12B 2697   4.019   5.776   6.965
   37CHL1   C11 2698   4.102   5.896   6.806
   37CHL1  H11A 2699   4.153   5.995   6.803
   37CHL1  H11B 2700   4.169   5.815   6.776
   37CHL1    C9 2701   3.988   5.889   6.705
   37CHL1    H9 2702   3.939   5.790   6.701
   37CHL1   C10 2703   4.026   5.927   6.558
   37CHL1   C19 2704   4.128   6.049   6.562
   37CHL1  H19A 2705   4.164   6.076   6.460
   37CHL1  H19B 2706   4.082   6.139   6.608
   37CHL1  H19C 2707   4.221   6.034   6.617
   37CHL1    C1 2708   4.100   5.810   6.495
   37CHL1   H1A 2709   4.193   5.799   6.553
   37CHL1   H1B 2710   4.038   5.718   6.510
   37CHL1    C2 2711   4.129   5.824   6.344
   37CHL1   H2A 2712   4.171   5.732   6.303
   37CHL1   H2B 2713   4.202   5.908   6.329
   37CHL1   C20 2714   3.918   5.953   7.267
   37CHL1   H20 2715   3.932   6.063   7.282
   37CHL1   C21 2716   4.046   5.876   7.291
   37CHL1  H21A 2717   4.131   5.924   7.241
   37CHL1  H21B 2718   4.032   5.771   7.257
   37CHL1  H21C 2719   4.069   5.876   7.399
   37CHL1   C22 2720   3.810   5.908   7.368
   37CHL1  H22A 2721   3.715   5.962   7.352
   37CHL1  H22B 2722   3.788   5.800   7.353
   37CHL1   C23 2723   3.855   5.939   7.511
   37CHL1  H23A 2724   3.908   5.851   7.550
   37CHL1  H23B 2725   3.929   6.023   7.506
   37CHL1   C24 2726   3.741   5.981   7.605
   37CHL1  H24A 2727   3.700   6.073   7.565
   37CHL1  H24B 2728   3.660   5.904   7.601
   37CHL1   C25 2729   3.788   6.006   7.751
   37CHL1   H25 2730   3.856   5.920   7.773
   37CHL1   C26 2731   3.868   6.137   7.771
   37CHL1  H26A 2732   3.805   6.228   7.766
   37CHL1  H26B 2733   3.914   6.134   7.872
   37CHL1  H26C 2734   3.948   6.147   7.694
   37CHL1   C27 2735   3.676   6.000   7.855
   37CHL1  H27A 2736   3.716   5.970   7.954
   37CHL1  H27B 2737   3.632   6.101   7.869
   37CHL1  H27C 2738   3.600   5.926   7.826
   38CHL1    C3 2739   2.682   5.770   6.267
   38CHL1    H3 2740   2.778   5.814   6.308
   38CHL1    O3 2741   2.686   5.781   6.125
   38CHL1   H3' 2742   2.594   5.759   6.099
   38CHL1    C4 2743   2.653   5.632   6.326
   38CHL1   H4A 2744   2.551   5.610   6.286
   38CHL1   H4B 2745   2.726   5.561   6.285
   38CHL1    C5 2746   2.647   5.629   6.478
   38CHL1    C6 2747   2.738   5.564   6.551
   38CHL1    H6 2748   2.810   5.500   6.500
   38CHL1    C7 2749   2.746   5.568   6.701
   38CHL1   H7A 2750   2.767   5.467   6.742
   38CHL1   H7B 2751   2.832   5.634   6.730
   38CHL1    C8 2752   2.613   5.617   6.764
   38CHL1    H8 2753   2.531   5.546   6.748
   38CHL1   C14 2754   2.633   5.635   6.913
   38CHL1   H14 2755   2.723   5.701   6.929
   38CHL1   C15 2756   2.667   5.510   6.990
   38CHL1  H15A 2757   2.594   5.436   6.951
   38CHL1  H15B 2758   2.771   5.479   6.972
   38CHL1   C16 2759   2.635   5.544   7.135
   38CHL1  H16A 2760   2.562   5.469   7.172
   38CHL1  H16B 2761   2.725   5.542   7.199
   38CHL1   C17 2762   2.567   5.684   7.135
   38CHL1   H17 2763   2.656   5.749   7.155
   38CHL1   C13 2764   2.511   5.689   6.988
   38CHL1   C18 2765   2.383   5.615   6.973
   38CHL1  H18A 2766   2.391   5.517   7.020
   38CHL1  H18B 2767   2.303   5.679   7.019
   38CHL1  H18C 2768   2.358   5.606   6.865
   38CHL1   C12 2769   2.457   5.810   6.919
   38CHL1  H12A 2770   2.391   5.876   6.977
   38CHL1  H12B 2771   2.556   5.831   6.928
   38CHL1   C11 2772   2.446   5.813   6.768
   38CHL1  H11A 2773   2.347   5.773   6.755
   38CHL1  H11B 2774   2.419   5.909   6.721
   38CHL1    C9 2775   2.566   5.743   6.695
   38CHL1    H9 2776   2.661   5.795   6.707
   38CHL1   C10 2777   2.544   5.721   6.543
   38CHL1   C19 2778   2.397   5.691   6.525
   38CHL1  H19A 2779   2.333   5.776   6.559
   38CHL1  H19B 2780   2.377   5.681   6.417
   38CHL1  H19C 2781   2.378   5.600   6.583
   38CHL1    C1 2782   2.556   5.845   6.463
   38CHL1   H1A 2783   2.480   5.915   6.503
   38CHL1   H1B 2784   2.661   5.871   6.476
   38CHL1    C2 2785   2.556   5.840   6.313
   38CHL1   H2A 2786   2.574   5.927   6.264
   38CHL1   H2B 2787   2.456   5.839   6.271
   38CHL1   C20 2788   2.470   5.707   7.251
   38CHL1   H20 2789   2.378   5.648   7.229
   38CHL1   C21 2790   2.426   5.853   7.268
   38CHL1  H21A 2791   2.340   5.857   7.337
   38CHL1  H21B 2792   2.398   5.900   7.172
   38CHL1  H21C 2793   2.506   5.914   7.314
   38CHL1   C22 2794   2.526   5.657   7.385
   38CHL1  H22A 2795   2.582   5.563   7.369
   38CHL1  H22B 2796   2.597   5.730   7.431
   38CHL1   C23 2797   2.415   5.626   7.485
   38CHL1  H23A 2798   2.383   5.721   7.533
   38CHL1  H23B 2799   2.327   5.585   7.432
   38CHL1   C24 2800   2.468   5.524   7.587
   38CHL1  H24A 2801   2.502   5.432   7.534
   38CHL1  H24B 2802   2.552   5.568   7.644
   38CHL1   C25 2803   2.371   5.480   7.695
   38CHL1   H25 2804   2.407   5.396   7.756
   38CHL1   C26 2805   2.353   5.590   7.793
   38CHL1  H26A 2806   2.283   5.569   7.876
   38CHL1  H26B 2807   2.428   5.668   7.812
   38CHL1  H26C 2808   2.305   5.642   7.713
   38CHL1   C27 2809   2.236   5.444   7.637
   38CHL1  H27A 2810   2.175   5.515   7.576
   38CHL1  H27B 2811   2.253   5.352   7.577
   38CHL1  H27C 2812   2.172   5.425   7.726
   39CHL1    C3 2813   2.044   5.331   6.262
   39CHL1    H3 2814   2.147   5.290   6.269
   39CHL1    O3 2815   2.015   5.351   6.125
   39CHL1   H3' 2816   1.992   5.263   6.090
   39CHL1    C4 2817   1.947   5.228   6.321
   39CHL1   H4A 2818   1.841   5.261   6.299
   39CHL1   H4B 2819   1.960   5.135   6.265
   39CHL1    C5 2820   1.982   5.208   6.467
   39CHL1    C6 2821   1.991   5.092   6.534
   39CHL1    H6 2822   1.975   4.999   6.479
   39CHL1    C7 2823   2.009   5.078   6.684
   39CHL1   H7A 2824   1.952   4.990   6.722
   39CHL1   H7B 2825   2.115   5.068   6.710
   39CHL1    C8 2826   1.967   5.201   6.767
   39CHL1    H8 2827   1.860   5.172   6.774
   39CHL1   C14 2828   2.022   5.199   6.909
   39CHL1   H14 2829   2.131   5.191   6.896
   39CHL1   C15 2830   1.970   5.085   6.999
   39CHL1  H15A 2831   1.859   5.084   7.009
   39CHL1  H15B 2832   2.000   4.985   6.963
   39CHL1   C16 2833   2.026   5.127   7.138
   39CHL1  H16A 2834   1.946   5.094   7.208
   39CHL1  H16B 2835   2.118   5.073   7.160
   39CHL1   C17 2836   2.063   5.283   7.135
   39CHL1   H17 2837   2.167   5.309   7.127
   39CHL1   C13 2838   2.027   5.326   6.995
   39CHL1   C18 2839   1.910   5.352   7.047
   39CHL1  H18A 2840   1.880   5.453   7.072
   39CHL1  H18B 2841   1.871   5.370   6.950
   39CHL1  H18C 2842   1.850   5.272   7.095
   39CHL1   C12 2843   2.051   5.462   6.923
   39CHL1  H12A 2844   2.010   5.552   6.977
   39CHL1  H12B 2845   2.158   5.458   6.923
   39CHL1   C11 2846   1.994   5.468   6.778
   39CHL1  H11A 2847   1.890   5.502   6.772
   39CHL1  H11B 2848   2.042   5.554   6.731
   39CHL1    C9 2849   2.015   5.333   6.697
   39CHL1    H9 2850   2.125   5.325   6.702
   39CHL1   C10 2851   1.995   5.342   6.542
   39CHL1   C19 2852   1.868   5.395   6.518
   39CHL1  H19A 2853   1.852   5.496   6.563
   39CHL1  H19B 2854   1.800   5.393   6.430
   39CHL1  H19C 2855   1.827   5.315   6.581
   39CHL1    C1 2856   2.061   5.463   6.481
   39CHL1   H1A 2857   2.023   5.560   6.525
   39CHL1   H1B 2858   2.163   5.447   6.514
   39CHL1    C2 2859   2.040   5.469   6.330
   39CHL1   H2A 2860   2.123   5.532   6.295
   39CHL1   H2B 2861   1.944   5.518   6.299
   39CHL1   C20 2862   2.025   5.357   7.266
   39CHL1   H20 2863   1.932   5.323   7.296
   39CHL1   C21 2864   2.011   5.513   7.277
   39CHL1  H21A 2865   2.111   5.555   7.265
   39CHL1  H21B 2866   1.957   5.538   7.372
   39CHL1  H21C 2867   1.945   5.561   7.201
   39CHL1   C22 2868   2.083   5.292   7.389
   39CHL1  H22A 2869   2.153   5.216   7.349
   39CHL1  H22B 2870   2.133   5.381   7.427
   39CHL1   C23 2871   1.978   5.231   7.488
   39CHL1  H23A 2872   1.897   5.303   7.514
   39CHL1  H23B 2873   1.932   5.138   7.448
   39CHL1   C24 2874   2.033   5.195   7.622
   39CHL1  H24A 2875   2.083   5.282   7.657
   39CHL1  H24B 2876   1.968   5.176   7.708
   39CHL1   C25 2877   2.138   5.096   7.618
   39CHL1   H25 2878   2.205   5.117   7.532
   39CHL1   C26 2879   2.202   5.128   7.755
   39CHL1  H26A 2880   2.264   5.050   7.742
   39CHL1  H26B 2881   2.279   5.206   7.767
   39CHL1  H26C 2882   2.201   5.060   7.837
   39CHL1   C27 2883   2.091   4.950   7.600
   39CHL1  H27A 2884   2.166   4.879   7.558
   39CHL1  H27B 2885   2.073   4.907   7.699
   39CHL1  H27C 2886   2.003   4.947   7.534
   40CHL1    C3 2887   5.915   3.120   6.260
   40CHL1    H3 2888   5.861   3.022   6.248
   40CHL1    O3 2889   5.969   3.166   6.137
   40CHL1   H3' 2890   5.922   3.113   6.071
   40CHL1    C4 2891   5.836   3.226   6.326
   40CHL1   H4A 2892   5.901   3.316   6.322
   40CHL1   H4B 2893   5.748   3.241   6.262
   40CHL1    C5 2894   5.805   3.182   6.469
   40CHL1    C6 2895   5.680   3.163   6.509
   40CHL1    H6 2896   5.598   3.184   6.440
   40CHL1    C7 2897   5.644   3.117   6.648
   40CHL1   H7A 2898   5.559   3.174   6.688
   40CHL1   H7B 2899   5.622   3.008   6.646
   40CHL1    C8 2900   5.758   3.131   6.747
   40CHL1    H8 2901   5.786   3.238   6.762
   40CHL1   C14 2902   5.728   3.064   6.881
   40CHL1   H14 2903   5.717   2.954   6.860
   40CHL1   C15 2904   5.604   3.106   6.951
   40CHL1  H15A 2905   5.606   3.216   6.959
   40CHL1  H15B 2906   5.519   3.069   6.890
   40CHL1   C16 2907   5.619   3.046   7.092
   40CHL1  H16A 2908   5.593   3.123   7.165
   40CHL1  H16B 2909   5.552   2.959   7.101
   40CHL1   C17 2910   5.769   3.006   7.112
   40CHL1   H17 2911   5.778   2.897   7.094
   40CHL1   C13 2912   5.833   3.068   6.990
   40CHL1   C18 2913   5.878   3.215   7.028
   40CHL1  H18A 2914   5.799   3.268   7.085
   40CHL1  H18B 2915   5.971   3.215   7.089
   40CHL1  H18C 2916   5.897   3.280   6.941
   40CHL1   C12 2917   5.926   2.970   6.928
   40CHL1  H12A 2918   5.994   2.954   7.013
   40CHL1  H12B 2919   5.905   2.866   6.903
   40CHL1   C11 2920   5.961   3.029   6.791
   40CHL1  H11A 2921   5.978   3.136   6.818
   40CHL1  H11B 2922   6.045   2.974   6.744
   40CHL1    C9 2923   5.869   3.062   6.683
   40CHL1    H9 2924   5.843   2.959   6.648
   40CHL1   C10 2925   5.922   3.146   6.562
   40CHL1   C19 2926   6.004   3.277   6.586
   40CHL1  H19A 2927   6.113   3.265   6.603
   40CHL1  H19B 2928   6.009   3.340   6.496
   40CHL1  H19C 2929   5.962   3.329   6.672
   40CHL1    C1 2930   6.010   3.055   6.492
   40CHL1   H1A 2931   6.112   3.058   6.540
   40CHL1   H1B 2932   5.972   2.949   6.493
   40CHL1    C2 2933   6.028   3.102   6.352
   40CHL1   H2A 2934   6.039   2.997   6.324
   40CHL1   H2B 2935   6.113   3.174   6.340
   40CHL1   C20 2936   5.829   3.038   7.252
   40CHL1   H20 2937   5.830   3.148   7.267
   40CHL1   C21 2938   5.975   2.988   7.271
   40CHL1  H21A 2939   6.045   3.040   7.202
   40CHL1  H21B 2940   5.985   2.878   7.257
   40CHL1  H21C 2941   6.011   3.015   7.373
   40CHL1   C22 2942   5.737   2.980   7.362
   40CHL1  H22A 2943   5.640   3.034   7.360
   40CHL1  H22B 2944   5.720   2.876   7.332
   40CHL1   C23 2945   5.788   2.978   7.507
   40CHL1  H23A 2946   5.873   2.906   7.512
   40CHL1  H23B 2947   5.816   3.080   7.538
   40CHL1   C24 2948   5.678   2.925   7.600
   40CHL1  H24A 2949   5.580   2.970   7.572
   40CHL1  H24B 2950   5.675   2.820   7.577
   40CHL1   C25 2951   5.697   2.922   7.753
   40CHL1   H25 2952   5.714   3.025   7.789
   40CHL1   C26 2953   5.569   2.870   7.819
   40CHL1  H26A 2954   5.581   2.761   7.825
   40CHL1  H26B 2955   5.560   2.899   7.925
   40CHL1  H26C 2956   5.477   2.898   7.763
   40CHL1   C27 2957   5.812   2.830   7.798
   40CHL1  H27A 2958   5.824   2.835   7.908
   40CHL1  H27B 2959   5.787   2.725   7.775
   40CHL1  H27C 2960   5.907   2.855   7.748
   41CHL1    C3 2961   6.000   3.973   6.274
   41CHL1    H3 2962   5.895   4.007   6.291
   41CHL1    O3 2963   6.014   3.935   6.137
   41CHL1   H3' 2964   6.105   3.956   6.113
   41CHL1    C4 2965   6.098   4.086   6.309
   41CHL1   H4A 2966   6.202   4.065   6.276
   41CHL1   H4B 2967   6.063   4.175   6.252
   41CHL1    C5 2968   6.107   4.113   6.457
   41CHL1    C6 2969   6.094   4.239   6.497
   41CHL1    H6 2970   6.079   4.319   6.423
   41CHL1    C7 2971   6.102   4.276   6.639
   41CHL1   H7A 2972   6.167   4.366   6.649
   41CHL1   H7B 2973   5.997   4.299   6.664
   41CHL1    C8 2974   6.151   4.169   6.738
   41CHL1    H8 2975   6.262   4.167   6.731
   41CHL1   C14 2976   6.110   4.201   6.882
   41CHL1   H14 2977   5.998   4.203   6.878
   41CHL1   C15 2978   6.162   4.329   6.949
   41CHL1  H15A 2979   6.244   4.381   6.899
   41CHL1  H15B 2980   6.093   4.406   6.956
   41CHL1   C16 2981   6.148   4.312   7.100
   41CHL1  H16A 2982   6.239   4.354   7.145
   41CHL1  H16B 2983   6.060   4.362   7.147
   41CHL1   C17 2984   6.103   4.168   7.113
   41CHL1   H17 2985   5.991   4.172   7.103
   41CHL1   C13 2986   6.150   4.099   6.986
   41CHL1   C18 2987   6.303   4.084   6.992
   41CHL1  H18A 2988   6.359   4.176   7.020
   41CHL1  H18B 2989   6.325   4.005   7.066
   41CHL1  H18C 2990   6.341   4.052   6.893
   41CHL1   C12 2991   6.083   3.966   6.953
   41CHL1  H12A 2992   6.113   3.894   7.032
   41CHL1  H12B 2993   5.973   3.979   6.960
   41CHL1   C11 2994   6.123   3.923   6.810
   41CHL1  H11A 2995   6.232   3.903   6.809
   41CHL1  H11B 2996   6.073   3.827   6.787
   41CHL1    C9 2997   6.091   4.032   6.702
   41CHL1    H9 2998   5.980   4.048   6.708
   41CHL1   C10 2999   6.119   3.992   6.554
   41CHL1   C19 3000   6.260   3.927   6.544
   41CHL1  H19A 3001   6.260   3.824   6.585
   41CHL1  H19B 3002   6.289   3.917   6.437
   41CHL1  H19C 3003   6.337   3.986   6.597
   41CHL1    C1 3004   6.017   3.885   6.510
   41CHL1   H1A 3005   6.035   3.793   6.569
   41CHL1   H1B 3006   5.914   3.918   6.536
   41CHL1    C2 3007   6.028   3.850   6.360
   41CHL1   H2A 3008   5.957   3.768   6.336
   41CHL1   H2B 3009   6.130   3.815   6.334
   41CHL1   C20 3010   6.135   4.103   7.246
   41CHL1   H20 3011   6.158   3.996   7.227
   41CHL1   C21 3012   6.004   4.109   7.329
   41CHL1  H21A 3013   6.015   4.057   7.426
   41CHL1  H21B 3014   5.922   4.062   7.271
   41CHL1  H21C 3015   5.974   4.214   7.348
   41CHL1   C22 3016   6.255   4.166   7.319
   41CHL1  H22A 3017   6.337   4.193   7.248
   41CHL1  H22B 3018   6.227   4.258   7.373
   41CHL1   C23 3019   6.319   4.073   7.420
   41CHL1  H23A 3020   6.241   4.035   7.490
   41CHL1  H23B 3021   6.360   3.984   7.366
   41CHL1   C24 3022   6.429   4.159   7.489
   41CHL1  H24A 3023   6.504   4.193   7.416
   41CHL1  H24B 3024   6.381   4.233   7.556
   41CHL1   C25 3025   6.524   4.090   7.581
   41CHL1   H25 3026   6.437   4.023   7.597
   41CHL1   C26 3027   6.640   4.016   7.518
   41CHL1  H26A 3028   6.722   4.078   7.492
   41CHL1  H26B 3029   6.689   3.935   7.574
   41CHL1  H26C 3030   6.599   3.966   7.433
   41CHL1   C27 3031   6.571   4.159   7.712
   41CHL1  H27A 3032   6.632   4.245   7.701
   41CHL1  H27B 3033   6.486   4.197   7.770
   41CHL1  H27C 3034   6.629   4.091   7.780
   42CHL1    C3 3035   5.908   2.341   6.265
   42CHL1    H3 3036   5.802   2.363   6.286
   42CHL1    O3 3037   5.939   2.346   6.127
   42CHL1   H3' 3038   6.034   2.366   6.123
   42CHL1    C4 3039   5.982   2.450   6.333
   42CHL1   H4A 3040   6.079   2.410   6.309
   42CHL1   H4B 3041   5.964   2.545   6.277
   42CHL1    C5 3042   5.969   2.458   6.483
   42CHL1    C6 3043   5.924   2.571   6.542
   42CHL1    H6 3044   5.906   2.661   6.482
   42CHL1    C7 3045   5.916   2.598   6.687
   42CHL1   H7A 3046   5.964   2.695   6.715
   42CHL1   H7B 3047   5.807   2.607   6.703
   42CHL1    C8 3048   5.975   2.479   6.766
   42CHL1    H8 3049   6.085   2.494   6.775
   42CHL1   C14 3050   5.907   2.479   6.902
   42CHL1   H14 3051   5.798   2.472   6.877
   42CHL1   C15 3052   5.918   2.605   6.989
   42CHL1  H15A 3053   6.019   2.649   6.981
   42CHL1  H15B 3054   5.840   2.676   6.954
   42CHL1   C16 3055   5.898   2.551   7.132
   42CHL1  H16A 3056   5.985   2.577   7.196
   42CHL1  H16B 3057   5.812   2.590   7.181
   42CHL1   C17 3058   5.875   2.397   7.123
   42CHL1   H17 3059   5.765   2.383   7.111
   42CHL1   C13 3060   5.943   2.363   6.992
   42CHL1   C18 3061   6.095   2.369   7.024
   42CHL1  H18A 3062   6.120   2.289   7.096
   42CHL1  H18B 3063   6.160   2.355   6.936
   42CHL1  H18C 3064   6.122   2.466   7.070
   42CHL1   C12 3065   5.895   2.235   6.923
   42CHL1  H12A 3066   5.913   2.149   6.990
   42CHL1  H12B 3067   5.785   2.240   6.906
   42CHL1   C11 3068   5.964   2.219   6.787
   42CHL1  H11A 3069   6.070   2.194   6.802
   42CHL1  H11B 3070   5.912   2.137   6.734
   42CHL1    C9 3071   5.946   2.344   6.696
   42CHL1    H9 3072   5.836   2.344   6.676
   42CHL1   C10 3073   6.009   2.330   6.556
   42CHL1   C19 3074   6.161   2.308   6.569
   42CHL1  H19A 3075   6.207   2.309   6.468
   42CHL1  H19B 3076   6.208   2.388   6.630
   42CHL1  H19C 3077   6.187   2.212   6.618
   42CHL1    C1 3078   5.945   2.210   6.478
   42CHL1   H1A 3079   5.983   2.114   6.518
   42CHL1   H1B 3080   5.836   2.217   6.497
   42CHL1    C2 3081   5.962   2.211   6.324
   42CHL1   H2A 3082   5.900   2.133   6.277
   42CHL1   H2B 3083   6.069   2.192   6.297
   42CHL1   C20 3084   5.915   2.321   7.251
   42CHL1   H20 3085   6.021   2.344   7.278
   42CHL1   C21 3086   5.901   2.166   7.248
   42CHL1  H21A 3087   5.987   2.113   7.203
   42CHL1  H21B 3088   5.812   2.137   7.192
   42CHL1  H21C 3089   5.890   2.125   7.351
   42CHL1   C22 3090   5.835   2.375   7.368
   42CHL1  H22A 3091   5.831   2.484   7.368
   42CHL1  H22B 3092   5.737   2.325   7.386
   42CHL1   C23 3093   5.918   2.365   7.487
   42CHL1  H23A 3094   5.948   2.258   7.483
   42CHL1  H23B 3095   6.006   2.435   7.481
   42CHL1   C24 3096   5.840   2.413   7.608
   42CHL1  H24A 3097   5.822   2.519   7.592
   42CHL1  H24B 3098   5.755   2.346   7.639
   42CHL1   C25 3099   5.918   2.438   7.727
   42CHL1   H25 3100   5.993   2.519   7.722
   42CHL1   C26 3101   5.816   2.464   7.850
   42CHL1  H26A 3102   5.776   2.564   7.870
   42CHL1  H26B 3103   5.747   2.381   7.878
   42CHL1  H26C 3104   5.865   2.476   7.946
   42CHL1   C27 3105   5.979   2.303   7.699
   42CHL1  H27A 3106   5.912   2.224   7.728
   42CHL1  H27B 3107   6.053   2.233   7.653
   42CHL1  H27C 3108   6.079   2.326   7.645
   43CHL1    C3 3109   5.380   5.938   6.264
   43CHL1    H3 3110   5.489   5.917   6.265
   43CHL1    O3 3111   5.324   5.926   6.133
   43CHL1   H3' 3112   5.268   6.003   6.120
   43CHL1    C4 3113   5.313   5.835   6.356
   43CHL1   H4A 3114   5.202   5.836   6.344
   43CHL1   H4B 3115   5.347   5.736   6.320
   43CHL1    C5 3116   5.355   5.851   6.500
   43CHL1    C6 3117   5.403   5.752   6.572
   43CHL1    H6 3118   5.414   5.658   6.521
   43CHL1    C7 3119   5.441   5.763   6.716
   43CHL1   H7A 3120   5.409   5.672   6.772
   43CHL1   H7B 3121   5.551   5.770   6.721
   43CHL1    C8 3122   5.380   5.890   6.782
   43CHL1    H8 3123   5.271   5.877   6.796
   43CHL1   C14 3124   5.442   5.914   6.917
   43CHL1   H14 3125   5.551   5.935   6.898
   43CHL1   C15 3126   5.441   5.796   7.009
   43CHL1  H15A 3127   5.344   5.744   7.013
   43CHL1  H15B 3128   5.515   5.735   6.957
   43CHL1   C16 3129   5.473   5.847   7.148
   43CHL1  H16A 3130   5.391   5.822   7.219
   43CHL1  H16B 3131   5.572   5.825   7.193
   43CHL1   C17 3132   5.468   5.995   7.129
   43CHL1   H17 3133   5.569   6.021   7.100
   43CHL1   C13 3134   5.390   6.028   6.998
   43CHL1   C18 3135   5.238   6.019   7.024
   43CHL1  H18A 3136   5.178   6.042   6.934
   43CHL1  H18B 3137   5.209   5.921   7.065
   43CHL1  H18C 3138   5.207   6.094   7.099
   43CHL1   C12 3139   5.429   6.151   6.915
   43CHL1  H12A 3140   5.403   6.245   6.966
   43CHL1  H12B 3141   5.535   6.153   6.901
   43CHL1   C11 3142   5.376   6.145   6.771
   43CHL1  H11A 3143   5.270   6.157   6.793
   43CHL1  H11B 3144   5.413   6.234   6.715
   43CHL1    C9 3145   5.408   6.012   6.697
   43CHL1    H9 3146   5.518   6.015   6.679
   43CHL1   C10 3147   5.351   5.989   6.556
   43CHL1   C19 3148   5.204   6.003   6.561
   43CHL1  H19A 3149   5.150   5.989   6.465
   43CHL1  H19B 3150   5.146   5.965   6.647
   43CHL1  H19C 3151   5.213   6.110   6.571
   43CHL1    C1 3152   5.418   6.092   6.460
   43CHL1   H1A 3153   5.406   6.195   6.501
   43CHL1   H1B 3154   5.526   6.071   6.467
   43CHL1    C2 3155   5.374   6.082   6.312
   43CHL1   H2A 3156   5.434   6.148   6.246
   43CHL1   H2B 3157   5.271   6.108   6.296
   43CHL1   C20 3158   5.432   6.044   7.266
   43CHL1   H20 3159   5.328   6.017   7.295
   43CHL1   C21 3160   5.415   6.177   7.249
   43CHL1  H21A 3161   5.404   6.240   7.340
   43CHL1  H21B 3162   5.338   6.189   7.181
   43CHL1  H21C 3163   5.484   6.201   7.172
   43CHL1   C22 3164   5.533   6.045   7.377
   43CHL1  H22A 3165   5.614   5.974   7.359
   43CHL1  H22B 3166   5.586   6.141   7.391
   43CHL1   C23 3167   5.455   6.028   7.502
   43CHL1  H23A 3168   5.398   6.119   7.532
   43CHL1  H23B 3169   5.382   5.948   7.478
   43CHL1   C24 3170   5.552   5.992   7.607
   43CHL1  H24A 3171   5.602   5.896   7.578
   43CHL1  H24B 3172   5.639   6.055   7.616
   43CHL1   C25 3173   5.481   6.009   7.742
   43CHL1   H25 3174   5.460   6.109   7.770
   43CHL1   C26 3175   5.328   5.957   7.743
   43CHL1  H26A 3176   5.259   5.971   7.661
   43CHL1  H26B 3177   5.299   5.867   7.686
   43CHL1  H26C 3178   5.317   5.891   7.829
   43CHL1   C27 3179   5.594   5.967   7.845
   43CHL1  H27A 3180   5.553   5.966   7.948
   43CHL1  H27B 3181   5.646   5.869   7.820
   43CHL1  H27C 3182   5.685   6.022   7.853
   44CHL1    C3 3183   6.620   3.568   6.270
   44CHL1    H3 3184   6.512   3.595   6.268
   44CHL1    O3 3185   6.663   3.539   6.137
   44CHL1   H3' 3186   6.759   3.552   6.143
   44CHL1    C4 3187   6.703   3.688   6.322
   44CHL1   H4A 3188   6.810   3.671   6.306
   44CHL1   H4B 3189   6.675   3.778   6.262
   44CHL1    C5 3190   6.682   3.713   6.470
   44CHL1    C6 3191   6.648   3.834   6.515
   44CHL1    H6 3192   6.642   3.919   6.446
   44CHL1    C7 3193   6.621   3.862   6.659
   44CHL1   H7A 3194   6.667   3.957   6.691
   44CHL1   H7B 3195   6.511   3.864   6.672
   44CHL1    C8 3196   6.673   3.754   6.754
   44CHL1    H8 3197   6.783   3.763   6.763
   44CHL1   C14 3198   6.612   3.779   6.890
   44CHL1   H14 3199   6.501   3.762   6.878
   44CHL1   C15 3200   6.628   3.917   6.954
   44CHL1  H15A 3201   6.734   3.946   6.940
   44CHL1  H15B 3202   6.560   3.994   6.914
   44CHL1   C16 3203   6.599   3.890   7.101
   44CHL1  H16A 3204   6.684   3.927   7.161
   44CHL1  H16B 3205   6.507   3.942   7.136
   44CHL1   C17 3206   6.585   3.736   7.117
   44CHL1   H17 3207   6.477   3.709   7.102
   44CHL1   C13 3208   6.660   3.683   6.995
   44CHL1   C18 3209   6.811   3.674   7.024
   44CHL1  H18A 3210   6.832   3.582   7.084
   44CHL1  H18B 3211   6.868   3.661   6.930
   44CHL1  H18C 3212   6.847   3.761   7.081
   44CHL1   C12 3213   6.616   3.553   6.941
   44CHL1  H12A 3214   6.650   3.483   7.020
   44CHL1  H12B 3215   6.504   3.562   6.931
   44CHL1   C11 3216   6.672   3.507   6.808
   44CHL1  H11A 3217   6.781   3.500   6.823
   44CHL1  H11B 3218   6.637   3.405   6.780
   44CHL1    C9 3219   6.638   3.614   6.702
   44CHL1    H9 3220   6.526   3.611   6.691
   44CHL1   C10 3221   6.695   3.590   6.561
   44CHL1   C19 3222   6.846   3.557   6.570
   44CHL1  H19A 3223   6.888   3.540   6.469
   44CHL1  H19B 3224   6.903   3.638   6.619
   44CHL1  H19C 3225   6.859   3.463   6.626
   44CHL1    C1 3226   6.622   3.466   6.506
   44CHL1   H1A 3227   6.662   3.377   6.560
   44CHL1   H1B 3228   6.515   3.471   6.533
   44CHL1    C2 3229   6.645   3.443   6.356
   44CHL1   H2A 3230   6.583   3.357   6.325
   44CHL1   H2B 3231   6.751   3.414   6.341
   44CHL1   C20 3232   6.624   3.693   7.259
   44CHL1   H20 3233   6.727   3.726   7.281
   44CHL1   C21 3234   6.618   3.546   7.283
   44CHL1  H21A 3235   6.621   3.508   7.387
   44CHL1  H21B 3236   6.704   3.499   7.231
   44CHL1  H21C 3237   6.520   3.515   7.242
   44CHL1   C22 3238   6.526   3.749   7.360
   44CHL1  H22A 3239   6.522   3.853   7.326
   44CHL1  H22B 3240   6.419   3.724   7.353
   44CHL1   C23 3241   6.574   3.725   7.506
   44CHL1  H23A 3242   6.580   3.622   7.541
   44CHL1  H23B 3243   6.680   3.759   7.498
   44CHL1   C24 3244   6.471   3.791   7.602
   44CHL1  H24A 3245   6.428   3.859   7.526
   44CHL1  H24B 3246   6.379   3.736   7.619
   44CHL1   C25 3247   6.512   3.856   7.741
   44CHL1   H25 3248   6.609   3.910   7.731
   44CHL1   C26 3249   6.409   3.952   7.811
   44CHL1  H26A 3250   6.361   4.037   7.759
   44CHL1  H26B 3251   6.321   3.914   7.858
   44CHL1  H26C 3252   6.475   4.014   7.875
   44CHL1   C27 3253   6.568   3.767   7.843
   44CHL1  H27A 3254   6.652   3.715   7.791
   44CHL1  H27B 3255   6.605   3.831   7.928
   44CHL1  H27C 3256   6.477   3.710   7.867
   45CHL1    C3 3257   1.359   1.699   6.268
   45CHL1    H3 3258   1.470   1.706   6.283
   45CHL1    O3 3259   1.326   1.694   6.130
   45CHL1   H3' 3260   1.379   1.622   6.094
   45CHL1    C4 3261   1.306   1.572   6.335
   45CHL1   H4A 3262   1.198   1.568   6.310
   45CHL1   H4B 3263   1.355   1.485   6.287
   45CHL1    C5 3264   1.326   1.574   6.485
   45CHL1    C6 3265   1.389   1.473   6.547
   45CHL1    H6 3266   1.424   1.386   6.491
   45CHL1    C7 3267   1.420   1.472   6.694
   45CHL1   H7A 3268   1.413   1.372   6.741
   45CHL1   H7B 3269   1.523   1.512   6.705
   45CHL1    C8 3270   1.337   1.572   6.770
   45CHL1    H8 3271   1.233   1.554   6.783
   45CHL1   C14 3272   1.382   1.580   6.914
   45CHL1   H14 3273   1.475   1.641   6.906
   45CHL1   C15 3274   1.425   1.461   6.997
   45CHL1  H15A 3275   1.378   1.365   6.977
   45CHL1  H15B 3276   1.531   1.443   6.977
   45CHL1   C16 3277   1.403   1.509   7.141
   45CHL1  H16A 3278   1.320   1.453   7.183
   45CHL1  H16B 3279   1.494   1.501   7.202
   45CHL1   C17 3280   1.359   1.656   7.135
   45CHL1   H17 3281   1.452   1.717   7.124
   45CHL1   C13 3282   1.293   1.661   6.998
   45CHL1   C18 3283   1.151   1.607   7.011
   45CHL1  H18A 3284   1.093   1.611   6.917
   45CHL1  H18B 3285   1.158   1.513   7.051
   45CHL1  H18C 3286   1.088   1.644   7.091
   45CHL1   C12 3287   1.303   1.787   6.921
   45CHL1  H12A 3288   1.203   1.798   6.957
   45CHL1  H12B 3289   1.379   1.857   6.957
   45CHL1   C11 3290   1.260   1.799   6.777
   45CHL1  H11A 3291   1.150   1.778   6.781
   45CHL1  H11B 3292   1.272   1.904   6.741
   45CHL1    C9 3293   1.334   1.704   6.696
   45CHL1    H9 3294   1.438   1.742   6.697
   45CHL1   C10 3295   1.277   1.704   6.553
   45CHL1   C19 3296   1.122   1.722   6.561
   45CHL1  H19A 3297   1.066   1.699   6.469
   45CHL1  H19B 3298   1.088   1.655   6.642
   45CHL1  H19C 3299   1.085   1.823   6.583
   45CHL1    C1 3300   1.330   1.828   6.480
   45CHL1   H1A 3301   1.289   1.919   6.529
   45CHL1   H1B 3302   1.441   1.830   6.490
   45CHL1    C2 3303   1.297   1.824   6.331
   45CHL1   H2A 3304   1.342   1.911   6.278
   45CHL1   H2B 3305   1.187   1.826   6.315
   45CHL1   C20 3306   1.285   1.700   7.263
   45CHL1   H20 3307   1.174   1.697   7.249
   45CHL1   C21 3308   1.326   1.840   7.300
   45CHL1  H21A 3309   1.433   1.859   7.314
   45CHL1  H21B 3310   1.256   1.884   7.375
   45CHL1  H21C 3311   1.320   1.905   7.219
   45CHL1   C22 3312   1.329   1.621   7.387
   45CHL1  H22A 3313   1.299   1.514   7.379
   45CHL1  H22B 3314   1.439   1.635   7.389
   45CHL1   C23 3315   1.291   1.673   7.527
   45CHL1  H23A 3316   1.329   1.775   7.544
   45CHL1  H23B 3317   1.184   1.691   7.518
   45CHL1   C24 3318   1.334   1.571   7.640
   45CHL1  H24A 3319   1.288   1.473   7.616
   45CHL1  H24B 3320   1.443   1.570   7.643
   45CHL1   C25 3321   1.299   1.593   7.791
   45CHL1   H25 3322   1.339   1.691   7.824
   45CHL1   C26 3323   1.159   1.569   7.803
   45CHL1  H26A 3324   1.131   1.621   7.710
   45CHL1  H26B 3325   1.117   1.510   7.735
   45CHL1  H26C 3326   1.095   1.602   7.889
   45CHL1   C27 3327   1.326   1.499   7.901
   45CHL1  H27A 3328   1.271   1.543   7.990
   45CHL1  H27B 3329   1.282   1.401   7.873
   45CHL1  H27C 3330   1.434   1.504   7.912
   46CHL1    C3 3331   0.570   3.716   6.273
   46CHL1    H3 3332   0.473   3.688   6.321
   46CHL1    O3 3333   0.554   3.721   6.133
   46CHL1   H3' 3334   0.501   3.799   6.113
   46CHL1    C4 3335   0.612   3.852   6.329
   46CHL1   H4A 3336   0.699   3.896   6.275
   46CHL1   H4B 3337   0.526   3.921   6.311
   46CHL1    C5 3338   0.642   3.838   6.477
   46CHL1    C6 3339   0.580   3.911   6.569
   46CHL1    H6 3340   0.516   3.994   6.534
   46CHL1    C7 3341   0.613   3.898   6.716
   46CHL1   H7A 3342   0.619   3.997   6.759
   46CHL1   H7B 3343   0.526   3.858   6.772
   46CHL1    C8 3344   0.744   3.821   6.753
   46CHL1    H8 3345   0.838   3.876   6.733
   46CHL1   C14 3346   0.743   3.777   6.899
   46CHL1   H14 3347   0.657   3.707   6.904
   46CHL1   C15 3348   0.714   3.877   7.011
   46CHL1  H15A 3349   0.792   3.949   6.992
   46CHL1  H15B 3350   0.615   3.926   7.010
   46CHL1   C16 3351   0.762   3.813   7.142
   46CHL1  H16A 3352   0.845   3.873   7.187
   46CHL1  H16B 3353   0.681   3.808   7.217
   46CHL1   C17 3354   0.818   3.676   7.092
   46CHL1   H17 3355   0.728   3.610   7.088
   46CHL1   C13 3356   0.864   3.698   6.946
   46CHL1   C18 3357   0.995   3.780   6.952
   46CHL1  H18A 3358   1.078   3.714   6.987
   46CHL1  H18B 3359   1.021   3.820   6.852
   46CHL1  H18C 3360   0.988   3.864   7.024
   46CHL1   C12 3361   0.881   3.576   6.853
   46CHL1  H12A 3362   0.978   3.525   6.869
   46CHL1  H12B 3363   0.801   3.502   6.873
   46CHL1   C11 3364   0.882   3.616   6.705
   46CHL1  H11A 3365   0.972   3.677   6.685
   46CHL1  H11B 3366   0.891   3.522   6.646
   46CHL1    C9 3367   0.756   3.698   6.666
   46CHL1    H9 3368   0.669   3.636   6.697
   46CHL1   C10 3369   0.741   3.727   6.515
   46CHL1   C19 3370   0.877   3.770   6.458
   46CHL1  H19A 3371   0.944   3.682   6.459
   46CHL1  H19B 3372   0.874   3.803   6.352
   46CHL1  H19C 3373   0.921   3.850   6.520
   46CHL1    C1 3374   0.695   3.595   6.450
   46CHL1   H1A 3375   0.772   3.518   6.467
   46CHL1   H1B 3376   0.601   3.561   6.499
   46CHL1    C2 3377   0.672   3.606   6.300
   46CHL1   H2A 3378   0.635   3.507   6.263
   46CHL1   H2B 3379   0.765   3.629   6.244
   46CHL1   C20 3380   0.913   3.610   7.189
   46CHL1   H20 3381   1.000   3.679   7.207
   46CHL1   C21 3382   0.965   3.480   7.122
   46CHL1  H21A 3383   0.887   3.411   7.087
   46CHL1  H21B 3384   1.011   3.411   7.190
   46CHL1  H21C 3385   1.046   3.497   7.046
   46CHL1   C22 3386   0.836   3.591   7.326
   46CHL1  H22A 3387   0.821   3.695   7.366
   46CHL1  H22B 3388   0.741   3.538   7.309
   46CHL1   C23 3389   0.899   3.514   7.442
   46CHL1  H23A 3390   0.927   3.411   7.414
   46CHL1  H23B 3391   0.982   3.584   7.452
   46CHL1   C24 3392   0.842   3.519   7.582
   46CHL1  H24A 3393   0.838   3.628   7.608
   46CHL1  H24B 3394   0.746   3.468   7.567
   46CHL1   C25 3395   0.900   3.440   7.701
   46CHL1   H25 3396   0.948   3.340   7.677
   46CHL1   C26 3397   0.996   3.516   7.770
   46CHL1  H26A 3398   1.066   3.475   7.847
   46CHL1  H26B 3399   1.050   3.490   7.680
   46CHL1  H26C 3400   0.987   3.628   7.773
   46CHL1   C27 3401   0.820   3.462   7.823
   46CHL1  H27A 3402   0.799   3.573   7.825
   46CHL1  H27B 3403   0.731   3.405   7.806
   46CHL1  H27C 3404   0.877   3.436   7.917
   47CHL1    C3 3405   6.745   4.309   6.265
   47CHL1    H3 3406   6.687   4.214   6.267
   47CHL1    O3 3407   6.746   4.357   6.132
   47CHL1   H3' 3408   6.785   4.288   6.079
   47CHL1    C4 3409   6.670   4.411   6.351
   47CHL1   H4A 3410   6.707   4.514   6.330
   47CHL1   H4B 3411   6.564   4.410   6.318
   47CHL1    C5 3412   6.681   4.378   6.498
   47CHL1    C6 3413   6.574   4.388   6.577
   47CHL1    H6 3414   6.478   4.419   6.534
   47CHL1    C7 3415   6.579   4.369   6.725
   47CHL1   H7A 3416   6.522   4.450   6.777
   47CHL1   H7B 3417   6.532   4.272   6.749
   47CHL1    C8 3418   6.723   4.368   6.781
   47CHL1    H8 3419   6.756   4.471   6.770
   47CHL1   C14 3420   6.722   4.321   6.925
   47CHL1   H14 3421   6.688   4.216   6.927
   47CHL1   C15 3422   6.629   4.397   7.023
   47CHL1  H15A 3423   6.638   4.508   7.016
   47CHL1  H15B 3424   6.523   4.373   7.004
   47CHL1   C16 3425   6.682   4.352   7.160
   47CHL1  H16A 3426   6.691   4.443   7.224
   47CHL1  H16B 3427   6.612   4.282   7.210
   47CHL1   C17 3428   6.823   4.285   7.138
   47CHL1   H17 3429   6.810   4.175   7.141
   47CHL1   C13 3430   6.859   4.308   6.987
   47CHL1   C18 3431   6.925   4.433   6.960
   47CHL1  H18A 3432   7.012   4.441   7.023
   47CHL1  H18B 3433   6.959   4.476   6.864
   47CHL1  H18C 3434   6.843   4.497   6.989
   47CHL1   C12 3435   6.953   4.217   6.914
   47CHL1  H12A 3436   7.053   4.224   6.962
   47CHL1  H12B 3437   6.908   4.118   6.928
   47CHL1   C11 3438   6.960   4.260   6.764
   47CHL1  H11A 3439   7.028   4.348   6.751
   47CHL1  H11B 3440   7.016   4.183   6.710
   47CHL1    C9 3441   6.819   4.285   6.698
   47CHL1    H9 3442   6.771   4.186   6.696
   47CHL1   C10 3443   6.819   4.335   6.550
   47CHL1   C19 3444   6.894   4.464   6.541
   47CHL1  H19A 3445   6.997   4.461   6.584
   47CHL1  H19B 3446   6.903   4.519   6.445
   47CHL1  H19C 3447   6.830   4.533   6.600
   47CHL1    C1 3448   6.889   4.233   6.462
   47CHL1   H1A 3449   6.994   4.223   6.499
   47CHL1   H1B 3450   6.836   4.137   6.476
   47CHL1    C2 3451   6.889   4.279   6.315
   47CHL1   H2A 3452   6.937   4.201   6.253
   47CHL1   H2B 3453   6.951   4.371   6.307
   47CHL1   C20 3454   6.915   4.312   7.259
   47CHL1   H20 3455   6.901   4.417   7.291
   47CHL1   C21 3456   7.065   4.280   7.235
   47CHL1  H21A 3457   7.112   4.342   7.159
   47CHL1  H21B 3458   7.079   4.176   7.202
   47CHL1  H21C 3459   7.123   4.303   7.326
   47CHL1   C22 3460   6.871   4.237   7.386
   47CHL1  H22A 3461   6.762   4.247   7.400
   47CHL1  H22B 3462   6.896   4.130   7.373
   47CHL1   C23 3463   6.944   4.287   7.513
   47CHL1  H23A 3464   7.051   4.266   7.502
   47CHL1  H23B 3465   6.932   4.396   7.528
   47CHL1   C24 3466   6.900   4.208   7.636
   47CHL1  H24A 3467   6.796   4.225   7.648
   47CHL1  H24B 3468   6.910   4.099   7.620
   47CHL1   C25 3469   6.961   4.248   7.769
   47CHL1   H25 3470   6.931   4.170   7.842
   47CHL1   C26 3471   7.113   4.250   7.755
   47CHL1  H26A 3472   7.146   4.172   7.683
   47CHL1  H26B 3473   7.149   4.342   7.707
   47CHL1  H26C 3474   7.162   4.237   7.853
   47CHL1   C27 3475   6.901   4.379   7.820
   47CHL1  H27A 3476   6.943   4.401   7.920
   47CHL1  H27B 3477   6.922   4.463   7.751
   47CHL1  H27C 3478   6.791   4.374   7.830
   48CHL1    C3 3479   3.322   6.991   6.261
   48CHL1    H3 3480   3.389   6.916   6.286
   48CHL1    O3 3481   3.325   7.019   6.123
   48CHL1   H3' 3482   3.338   6.932   6.081
   48CHL1    C4 3483   3.194   6.926   6.302
   48CHL1   H4A 3484   3.109   6.986   6.266
   48CHL1   H4B 3485   3.186   6.823   6.256
   48CHL1    C5 3486   3.195   6.922   6.450
   48CHL1    C6 3487   3.142   6.821   6.506
   48CHL1    H6 3488   3.120   6.735   6.440
   48CHL1    C7 3489   3.151   6.814   6.654
   48CHL1   H7A 3490   3.077   6.747   6.696
   48CHL1   H7B 3491   3.257   6.795   6.675
   48CHL1    C8 3492   3.152   6.925   6.750
   48CHL1    H8 3493   3.051   6.959   6.741
   48CHL1   C14 3494   3.189   6.885   6.896
   48CHL1   H14 3495   3.293   6.847   6.897
   48CHL1   C15 3496   3.100   6.794   6.980
   48CHL1  H15A 3497   2.995   6.784   6.944
   48CHL1  H15B 3498   3.169   6.711   6.971
   48CHL1   C16 3499   3.091   6.833   7.123
   48CHL1  H16A 3500   2.982   6.848   7.141
   48CHL1  H16B 3501   3.094   6.780   7.212
   48CHL1   C17 3502   3.207   6.937   7.130
   48CHL1   H17 3503   3.308   6.903   7.135
   48CHL1   C13 3504   3.205   6.992   6.992
   48CHL1   C18 3505   3.079   7.031   6.999
   48CHL1  H18A 3506   3.068   7.101   7.078
   48CHL1  H18B 3507   3.072   7.070   6.899
   48CHL1  H18C 3508   2.981   6.984   7.017
   48CHL1   C12 3509   3.289   7.103   6.934
   48CHL1  H12A 3510   3.284   7.194   6.995
   48CHL1  H12B 3511   3.384   7.050   6.944
   48CHL1   C11 3512   3.261   7.142   6.784
   48CHL1  H11A 3513   3.167   7.200   6.771
   48CHL1  H11B 3514   3.344   7.205   6.753
   48CHL1    C9 3515   3.253   7.018   6.694
   48CHL1    H9 3516   3.350   6.967   6.711
   48CHL1   C10 3517   3.253   7.033   6.536
   48CHL1   C19 3518   3.158   7.134   6.500
   48CHL1  H19A 3519   3.174   7.236   6.536
   48CHL1  H19B 3520   3.106   7.141   6.401
   48CHL1  H19C 3521   3.090   7.094   6.577
   48CHL1    C1 3522   3.379   7.096   6.491
   48CHL1   H1A 3523   3.374   7.202   6.529
   48CHL1   H1B 3524   3.463   7.042   6.538
   48CHL1    C2 3525   3.384   7.106   6.339
   48CHL1   H2A 3526   3.492   7.111   6.312
   48CHL1   H2B 3527   3.326   7.192   6.303
   48CHL1   C20 3528   3.183   7.012   7.256
   48CHL1   H20 3529   3.071   7.013   7.246
   48CHL1   C21 3530   3.232   7.158   7.263
   48CHL1  H21A 3531   3.338   7.155   7.289
   48CHL1  H21B 3532   3.193   7.221   7.345
   48CHL1  H21C 3533   3.201   7.218   7.176
   48CHL1   C22 3534   3.212   6.929   7.386
   48CHL1  H22A 3535   3.140   6.842   7.391
   48CHL1  H22B 3536   3.316   6.906   7.369
   48CHL1   C23 3537   3.217   6.995   7.525
   48CHL1  H23A 3538   3.259   7.097   7.530
   48CHL1  H23B 3539   3.121   7.006   7.575
   48CHL1   C24 3540   3.248   6.904   7.636
   48CHL1  H24A 3541   3.173   6.827   7.653
   48CHL1  H24B 3542   3.335   6.852   7.600
   48CHL1   C25 3543   3.251   6.978   7.768
   48CHL1   H25 3544   3.345   7.037   7.766
   48CHL1   C26 3545   3.139   7.072   7.808
   48CHL1  H26A 3546   3.170   7.110   7.907
   48CHL1  H26B 3547   3.132   7.156   7.737
   48CHL1  H26C 3548   3.041   7.021   7.819
   48CHL1   C27 3549   3.247   6.875   7.872
   48CHL1  H27A 3550   3.166   6.824   7.910
   48CHL1  H27B 3551   3.295   6.784   7.827
   48CHL1  H27C 3552   3.287   6.915   7.968
   49CHL1    C3 3553   1.963   0.509   6.260
   49CHL1    H3 3554   1.875   0.577   6.246
   49CHL1    O3 3555   2.036   0.496   6.138
   49CHL1   H3' 3556   2.049   0.586   6.107
   49CHL1    C4 3557   2.063   0.556   6.365
   49CHL1   H4A 3558   2.149   0.490   6.365
   49CHL1   H4B 3559   2.121   0.642   6.330
   49CHL1    C5 3560   2.007   0.554   6.506
   49CHL1    C6 3561   1.998   0.654   6.582
   49CHL1    H6 3562   2.016   0.733   6.530
   49CHL1    C7 3563   1.965   0.676   6.722
   49CHL1   H7A 3564   2.032   0.755   6.766
   49CHL1   H7B 3565   1.856   0.705   6.719
   49CHL1    C8 3566   1.960   0.557   6.800
   49CHL1    H8 3567   2.066   0.530   6.815
   49CHL1   C14 3568   1.892   0.590   6.932
   49CHL1   H14 3569   1.791   0.636   6.912
   49CHL1   C15 3570   1.966   0.683   7.026
   49CHL1  H15A 3571   2.076   0.682   7.015
   49CHL1  H15B 3572   1.927   0.779   7.017
   49CHL1   C16 3573   1.908   0.664   7.165
   49CHL1  H16A 3574   1.994   0.660   7.235
   49CHL1  H16B 3575   1.840   0.748   7.195
   49CHL1   C17 3576   1.826   0.534   7.149
   49CHL1   H17 3577   1.720   0.566   7.131
   49CHL1   C13 3578   1.875   0.469   7.016
   49CHL1   C18 3579   2.017   0.410   7.043
   49CHL1  H18A 3580   2.084   0.482   7.094
   49CHL1  H18B 3581   2.008   0.323   7.109
   49CHL1  H18C 3582   2.067   0.378   6.950
   49CHL1   C12 3583   1.784   0.378   6.932
   49CHL1  H12A 3584   1.765   0.281   6.980
   49CHL1  H12B 3585   1.687   0.431   6.917
   49CHL1   C11 3586   1.843   0.344   6.793
   49CHL1  H11A 3587   1.933   0.282   6.809
   49CHL1  H11B 3588   1.769   0.289   6.732
   49CHL1    C9 3589   1.880   0.465   6.710
   49CHL1    H9 3590   1.783   0.518   6.687
   49CHL1   C10 3591   1.952   0.438   6.570
   49CHL1   C19 3592   2.079   0.357   6.593
   49CHL1  H19A 3593   2.045   0.266   6.643
   49CHL1  H19B 3594   2.127   0.327   6.498
   49CHL1  H19C 3595   2.155   0.412   6.654
   49CHL1    C1 3596   1.860   0.385   6.458
   49CHL1   H1A 3597   1.828   0.287   6.496
   49CHL1   H1B 3598   1.769   0.449   6.449
   49CHL1    C2 3599   1.922   0.372   6.315
   49CHL1   H2A 3600   1.853   0.320   6.246
   49CHL1   H2B 3601   2.017   0.313   6.317
   49CHL1   C20 3602   1.836   0.456   7.278
   49CHL1   H20 3603   1.940   0.420   7.294
   49CHL1   C21 3604   1.747   0.336   7.266
   49CHL1  H21A 3605   1.742   0.282   7.363
   49CHL1  H21B 3606   1.782   0.264   7.189
   49CHL1  H21C 3607   1.645   0.372   7.240
   49CHL1   C22 3608   1.792   0.536   7.403
   49CHL1  H22A 3609   1.834   0.638   7.405
   49CHL1  H22B 3610   1.681   0.547   7.398
   49CHL1   C23 3611   1.837   0.466   7.532
   49CHL1  H23A 3612   1.793   0.366   7.547
   49CHL1  H23B 3613   1.947   0.451   7.526
   49CHL1   C24 3614   1.810   0.550   7.656
   49CHL1  H24A 3615   1.856   0.649   7.636
   49CHL1  H24B 3616   1.700   0.565   7.672
   49CHL1   C25 3617   1.877   0.481   7.775
   49CHL1   H25 3618   1.976   0.442   7.743
   49CHL1   C26 3619   1.900   0.571   7.893
   49CHL1  H26A 3620   1.933   0.669   7.855
   49CHL1  H26B 3621   1.805   0.580   7.949
   49CHL1  H26C 3622   1.976   0.529   7.962
   49CHL1   C27 3623   1.796   0.365   7.823
   49CHL1  H27A 3624   1.773   0.289   7.747
   49CHL1  H27B 3625   1.843   0.317   7.912
   49CHL1  H27C 3626   1.701   0.413   7.852
   50CHL1    C3 3627   1.322   6.509   6.270
   50CHL1    H3 3628   1.231   6.444   6.271
   50CHL1    O3 3629   1.358   6.543   6.137
   50CHL1   H3' 3630   1.385   6.461   6.093
   50CHL1    C4 3631   1.291   6.640   6.342
   50CHL1   H4A 3632   1.371   6.714   6.323
   50CHL1   H4B 3633   1.198   6.684   6.298
   50CHL1    C5 3634   1.277   6.619   6.490
   50CHL1    C6 3635   1.179   6.671   6.554
   50CHL1    H6 3636   1.110   6.736   6.501
   50CHL1    C7 3637   1.177   6.664   6.700
   50CHL1   H7A 3638   1.166   6.771   6.725
   50CHL1   H7B 3639   1.097   6.591   6.725
   50CHL1    C8 3640   1.289   6.618   6.791
   50CHL1    H8 3641   1.359   6.703   6.800
   50CHL1   C14 3642   1.253   6.571   6.932
   50CHL1   H14 3643   1.184   6.481   6.919
   50CHL1   C15 3644   1.183   6.664   7.021
   50CHL1  H15A 3645   1.193   6.773   7.006
   50CHL1  H15B 3646   1.085   6.627   6.991
   50CHL1   C16 3647   1.192   6.616   7.164
   50CHL1  H16A 3648   1.223   6.705   7.223
   50CHL1  H16B 3649   1.095   6.578   7.205
   50CHL1   C17 3650   1.290   6.501   7.157
   50CHL1   H17 3651   1.227   6.410   7.142
   50CHL1   C13 3652   1.363   6.527   7.024
   50CHL1   C18 3653   1.464   6.641   7.048
   50CHL1  H18A 3654   1.489   6.694   6.954
   50CHL1  H18B 3655   1.425   6.715   7.121
   50CHL1  H18C 3656   1.557   6.598   7.089
   50CHL1   C12 3657   1.416   6.407   6.955
   50CHL1  H12A 3658   1.511   6.371   6.997
   50CHL1  H12B 3659   1.339   6.326   6.966
   50CHL1   C11 3660   1.445   6.442   6.809
   50CHL1  H11A 3661   1.536   6.505   6.807
   50CHL1  H11B 3662   1.459   6.343   6.771
   50CHL1    C9 3663   1.338   6.502   6.719
   50CHL1    H9 3664   1.255   6.427   6.711
   50CHL1   C10 3665   1.377   6.542   6.572
   50CHL1   C19 3666   1.490   6.645   6.580
   50CHL1  H19A 3667   1.567   6.603   6.643
   50CHL1  H19B 3668   1.528   6.675   6.480
   50CHL1  H19C 3669   1.475   6.734   6.642
   50CHL1    C1 3670   1.410   6.416   6.491
   50CHL1   H1A 3671   1.506   6.384   6.529
   50CHL1   H1B 3672   1.336   6.338   6.517
   50CHL1    C2 3673   1.436   6.433   6.340
   50CHL1   H2A 3674   1.451   6.332   6.296
   50CHL1   H2B 3675   1.532   6.486   6.325
   50CHL1   C20 3676   1.363   6.491   7.289
   50CHL1   H20 3677   1.422   6.585   7.306
   50CHL1   C21 3678   1.463   6.373   7.288
   50CHL1  H21A 3679   1.411   6.275   7.291
   50CHL1  H21B 3680   1.529   6.380   7.376
   50CHL1  H21C 3681   1.527   6.374   7.198
   50CHL1   C22 3682   1.254   6.482   7.400
   50CHL1  H22A 3683   1.193   6.575   7.404
   50CHL1  H22B 3684   1.185   6.400   7.370
   50CHL1   C23 3685   1.301   6.457   7.543
   50CHL1  H23A 3686   1.350   6.357   7.544
   50CHL1  H23B 3687   1.377   6.534   7.569
   50CHL1   C24 3688   1.188   6.461   7.649
   50CHL1  H24A 3689   1.161   6.567   7.671
   50CHL1  H24B 3690   1.100   6.404   7.614
   50CHL1   C25 3691   1.234   6.400   7.781
   50CHL1   H25 3692   1.303   6.316   7.754
   50CHL1   C26 3693   1.304   6.502   7.860
   50CHL1  H26A 3694   1.264   6.586   7.919
   50CHL1  H26B 3695   1.339   6.440   7.946
   50CHL1  H26C 3696   1.386   6.544   7.797
   50CHL1   C27 3697   1.135   6.347   7.881
   50CHL1  H27A 3698   1.087   6.432   7.934
   50CHL1  H27B 3699   1.060   6.282   7.834
   50CHL1  H27C 3700   1.193   6.288   7.957
   51CHL1    C3 3701   1.988   7.020   6.260
   51CHL1    H3 3702   1.980   7.130   6.276
   51CHL1    O3 3703   1.927   6.986   6.138
   51CHL1   H3' 3704   1.982   7.018   6.065
   51CHL1    C4 3705   2.137   6.982   6.254
   51CHL1   H4A 3706   2.152   6.877   6.220
   51CHL1   H4B 3707   2.187   7.047   6.178
   51CHL1    C5 3708   2.202   7.003   6.386
   51CHL1    C6 3709   2.317   7.068   6.391
   51CHL1    H6 3710   2.365   7.104   6.301
   51CHL1    C7 3711   2.389   7.082   6.517
   51CHL1   H7A 3712   2.497   7.071   6.502
   51CHL1   H7B 3713   2.369   7.186   6.548
   51CHL1    C8 3714   2.335   6.979   6.621
   51CHL1    H8 3715   2.375   6.878   6.601
   51CHL1   C14 3716   2.385   7.015   6.749
   51CHL1   H14 3717   2.371   7.121   6.739
   51CHL1   C15 3718   2.527   7.015   6.761
   51CHL1  H15A 3719   2.564   6.927   6.712
   51CHL1  H15B 3720   2.551   7.099   6.694
   51CHL1   C16 3721   2.573   7.019   6.906
   51CHL1  H16A 3722   2.649   6.946   6.937
   51CHL1  H16B 3723   2.615   7.117   6.951
   51CHL1   C17 3724   2.443   6.988   6.965
   51CHL1   H17 3725   2.435   7.090   6.957
   51CHL1   C13 3726   2.332   6.951   6.869
   51CHL1   C18 3727   2.341   6.810   6.853
   51CHL1  H18A 3728   2.340   6.764   6.756
   51CHL1  H18B 3729   2.440   6.811   6.889
   51CHL1  H18C 3730   2.278   6.749   6.918
   51CHL1   C12 3731   2.188   6.967   6.899
   51CHL1  H12A 3732   2.161   6.915   6.992
   51CHL1  H12B 3733   2.150   7.065   6.923
   51CHL1   C11 3734   2.118   6.935   6.769
   51CHL1  H11A 3735   2.109   6.825   6.762
   51CHL1  H11B 3736   2.020   6.983   6.782
   51CHL1    C9 3737   2.186   6.994   6.639
   51CHL1    H9 3738   2.165   7.104   6.645
   51CHL1   C10 3739   2.126   6.951   6.509
   51CHL1   C19 3740   2.142   6.802   6.498
   51CHL1  H19A 3741   2.244   6.759   6.504
   51CHL1  H19B 3742   2.081   6.753   6.577
   51CHL1  H19C 3743   2.098   6.767   6.403
   51CHL1    C1 3744   1.976   6.986   6.508
   51CHL1   H1A 3745   1.923   6.932   6.590
   51CHL1   H1B 3746   1.966   7.094   6.527
   51CHL1    C2 3747   1.910   6.954   6.374
   51CHL1   H2A 3748   1.807   6.996   6.375
   51CHL1   H2B 3749   1.902   6.844   6.359
   51CHL1   C20 3750   2.453   6.925   7.098
   51CHL1   H20 3751   2.506   6.836   7.067
   51CHL1   C21 3752   2.313   6.908   7.187
   51CHL1  H21A 3753   2.250   6.984   7.234
   51CHL1  H21B 3754   2.346   6.893   7.285
   51CHL1  H21C 3755   2.239   6.834   7.163
   51CHL1   C22 3756   2.580   6.953   7.176
   51CHL1  H22A 3757   2.576   7.047   7.126
   51CHL1  H22B 3758   2.545   6.949   7.276
   51CHL1   C23 3759   2.731   6.929   7.172
   51CHL1  H23A 3760   2.740   6.819   7.162
   51CHL1  H23B 3761   2.779   6.992   7.097
   51CHL1   C24 3762   2.812   6.983   7.294
   51CHL1  H24A 3763   2.754   6.920   7.370
   51CHL1  H24B 3764   2.900   6.915   7.312
   51CHL1   C25 3765   2.853   7.158   7.322
   51CHL1   H25 3766   2.846   7.208   7.244
   51CHL1   C26 3767   2.749   7.311   7.385
   51CHL1  H26A 3768   2.696   7.354   7.314
   51CHL1  H26B 3769   2.662   7.303   7.471
   51CHL1  H26C 3770   2.754   7.396   7.448
   51CHL1   C27 3771   2.988   7.139   7.406
   51CHL1  H27A 3772   3.036   7.217   7.467
   51CHL1  H27B 3773   2.976   7.067   7.489
   51CHL1  H27C 3774   3.024   7.039   7.412
   52CHL1    C3 3775   5.348   0.295   6.269
   52CHL1    H3 3776   5.250   0.273   6.318
   52CHL1    O3 3777   5.333   0.275   6.131
   52CHL1   H3' 3778   5.236   0.275   6.122
   52CHL1    C4 3779   5.382   0.442   6.292
   52CHL1   H4A 3780   5.481   0.463   6.246
   52CHL1   H4B 3781   5.306   0.503   6.240
   52CHL1    C5 3782   5.390   0.472   6.438
   52CHL1    C6 3783   5.324   0.568   6.497
   52CHL1    H6 3784   5.262   0.623   6.427
   52CHL1    C7 3785   5.335   0.610   6.643
   52CHL1   H7A 3786   5.357   0.718   6.657
   52CHL1   H7B 3787   5.240   0.588   6.696
   52CHL1    C8 3788   5.450   0.545   6.718
   52CHL1    H8 3789   5.544   0.596   6.688
   52CHL1   C14 3790   5.426   0.558   6.869
   52CHL1   H14 3791   5.328   0.505   6.882
   52CHL1   C15 3792   5.399   0.694   6.938
   52CHL1  H15A 3793   5.470   0.774   6.912
   52CHL1  H15B 3794   5.296   0.724   6.911
   52CHL1   C16 3795   5.404   0.661   7.088
   52CHL1  H16A 3796   5.471   0.725   7.148
   52CHL1  H16B 3797   5.300   0.666   7.128
   52CHL1   C17 3798   5.451   0.514   7.095
   52CHL1   H17 3799   5.358   0.452   7.097
   52CHL1   C13 3800   5.519   0.480   6.958
   52CHL1   C18 3801   5.663   0.542   6.956
   52CHL1  H18A 3802   5.663   0.638   7.012
   52CHL1  H18B 3803   5.739   0.477   7.005
   52CHL1  H18C 3804   5.700   0.563   6.854
   52CHL1   C12 3805   5.503   0.334   6.907
   52CHL1  H12A 3806   5.570   0.259   6.952
   52CHL1  H12B 3807   5.400   0.300   6.933
   52CHL1   C11 3808   5.534   0.316   6.762
   52CHL1  H11A 3809   5.632   0.360   6.754
   52CHL1  H11B 3810   5.533   0.208   6.740
   52CHL1    C9 3811   5.448   0.400   6.671
   52CHL1    H9 3812   5.345   0.362   6.688
   52CHL1   C10 3813   5.473   0.382   6.518
   52CHL1   C19 3814   5.609   0.428   6.480
   52CHL1  H19A 3815   5.668   0.351   6.533
   52CHL1  H19B 3816   5.644   0.430   6.374
   52CHL1  H19C 3817   5.632   0.529   6.519
   52CHL1    C1 3818   5.458   0.233   6.480
   52CHL1   H1A 3819   5.537   0.175   6.530
   52CHL1   H1B 3820   5.359   0.205   6.522
   52CHL1    C2 3821   5.451   0.200   6.329
   52CHL1   H2A 3822   5.413   0.096   6.320
   52CHL1   H2B 3823   5.548   0.205   6.276
   52CHL1   C20 3824   5.527   0.476   7.218
   52CHL1   H20 3825   5.623   0.531   7.227
   52CHL1   C21 3826   5.550   0.331   7.174
   52CHL1  H21A 3827   5.641   0.306   7.114
   52CHL1  H21B 3828   5.490   0.242   7.198
   52CHL1  H21C 3829   5.607   0.324   7.251
   52CHL1   C22 3830   5.451   0.492   7.357
   52CHL1  H22A 3831   5.397   0.588   7.349
   52CHL1  H22B 3832   5.378   0.408   7.361
   52CHL1   C23 3833   5.514   0.511   7.502
   52CHL1  H23A 3834   5.594   0.456   7.551
   52CHL1  H23B 3835   5.581   0.598   7.503
   52CHL1   C24 3836   5.415   0.461   7.611
   52CHL1  H24A 3837   5.336   0.536   7.614
   52CHL1  H24B 3838   5.368   0.369   7.571
   52CHL1   C25 3839   5.474   0.437   7.756
   52CHL1   H25 3840   5.571   0.394   7.763
   52CHL1   C26 3841   5.519   0.560   7.811
   52CHL1  H26A 3842   5.566   0.549   7.910
   52CHL1  H26B 3843   5.598   0.599   7.741
   52CHL1  H26C 3844   5.430   0.626   7.816
   52CHL1   C27 3845   5.408   0.356   7.866
   52CHL1  H27A 3846   5.380   0.252   7.836
   52CHL1  H27B 3847   5.463   0.359   7.962
   52CHL1  H27C 3848   5.330   0.408   7.911
   53CHL1    C3 3849   6.638   5.980   6.258
   53CHL1    H3 3850   6.556   5.907   6.274
   53CHL1    O3 3851   6.662   6.012   6.122
   53CHL1   H3' 3852   6.578   6.048   6.093
   53CHL1    C4 3853   6.594   6.106   6.322
   53CHL1   H4A 3854   6.687   6.166   6.297
   53CHL1   H4B 3855   6.508   6.159   6.276
   53CHL1    C5 3856   6.566   6.079   6.469
   53CHL1    C6 3857   6.452   6.111   6.532
   53CHL1    H6 3858   6.383   6.183   6.482
   53CHL1    C7 3859   6.442   6.094   6.683
   53CHL1   H7A 3860   6.388   6.181   6.728
   53CHL1   H7B 3861   6.384   6.006   6.706
   53CHL1    C8 3862   6.574   6.063   6.761
   53CHL1    H8 3863   6.660   6.133   6.756
   53CHL1   C14 3864   6.550   6.036   6.910
   53CHL1   H14 3865   6.513   5.934   6.906
   53CHL1   C15 3866   6.438   6.107   6.989
   53CHL1  H15A 3867   6.419   6.204   6.946
   53CHL1  H15B 3868   6.336   6.071   6.974
   53CHL1   C16 3869   6.480   6.092   7.136
   53CHL1  H16A 3870   6.491   6.185   7.187
   53CHL1  H16B 3871   6.404   6.043   7.200
   53CHL1   C17 3872   6.615   6.015   7.137
   53CHL1   H17 3873   6.580   5.910   7.133
   53CHL1   C13 3874   6.674   6.031   6.998
   53CHL1   C18 3875   6.759   6.147   7.008
   53CHL1  H18A 3876   6.796   6.198   6.925
   53CHL1  H18B 3877   6.695   6.225   7.018
   53CHL1  H18C 3878   6.843   6.151   7.082
   53CHL1   C12 3879   6.762   5.928   6.939
   53CHL1  H12A 3880   6.858   5.931   6.994
   53CHL1  H12B 3881   6.713   5.834   6.962
   53CHL1   C11 3882   6.774   5.947   6.784
   53CHL1  H11A 3883   6.822   6.041   6.766
   53CHL1  H11B 3884   6.839   5.877   6.739
   53CHL1    C9 3885   6.655   5.969   6.692
   53CHL1    H9 3886   6.598   5.877   6.691
   53CHL1   C10 3887   6.685   6.020   6.546
   53CHL1   C19 3888   6.802   6.117   6.541
   53CHL1  H19A 3889   6.831   6.173   6.451
   53CHL1  H19B 3890   6.796   6.195   6.617
   53CHL1  H19C 3891   6.886   6.048   6.560
   53CHL1    C1 3892   6.740   5.900   6.474
   53CHL1   H1A 3893   6.829   5.860   6.527
   53CHL1   H1B 3894   6.658   5.827   6.485
   53CHL1    C2 3895   6.766   5.929   6.326
   53CHL1   H2A 3896   6.788   5.834   6.275
   53CHL1   H2B 3897   6.852   5.999   6.312
   53CHL1   C20 3898   6.705   6.037   7.261
   53CHL1   H20 3899   6.783   6.115   7.251
   53CHL1   C21 3900   6.787   5.910   7.274
   53CHL1  H21A 3901   6.715   5.834   7.280
   53CHL1  H21B 3902   6.851   5.910   7.364
   53CHL1  H21C 3903   6.843   5.879   7.185
   53CHL1   C22 3904   6.624   6.070   7.390
   53CHL1  H22A 3905   6.578   6.171   7.381
   53CHL1  H22B 3906   6.545   5.993   7.395
   53CHL1   C23 3907   6.694   6.058   7.527
   53CHL1  H23A 3908   6.724   5.954   7.545
   53CHL1  H23B 3909   6.788   6.112   7.532
   53CHL1   C24 3910   6.608   6.110   7.643
   53CHL1  H24A 3911   6.579   6.215   7.621
   53CHL1  H24B 3912   6.517   6.047   7.650
   53CHL1   C25 3913   6.673   6.108   7.783
   53CHL1   H25 3914   6.712   6.007   7.808
   53CHL1   C26 3915   6.792   6.195   7.789
   53CHL1  H26A 3916   6.881   6.157   7.733
   53CHL1  H26B 3917   6.759   6.290   7.741
   53CHL1  H26C 3918   6.826   6.220   7.892
   53CHL1   C27 3919   6.577   6.166   7.887
   53CHL1  H27A 3920   6.625   6.169   7.987
   53CHL1  H27B 3921   6.540   6.267   7.861
   53CHL1  H27C 3922   6.485   6.107   7.891
   54CHL1    C3 3923   0.664   6.093   6.265
   54CHL1    H3 3924   0.666   6.205   6.268
   54CHL1    O3 3925   0.676   6.054   6.129
   54CHL1   H3' 3926   0.617   6.113   6.082
   54CHL1    C4 3927   0.779   6.033   6.347
   54CHL1   H4A 3928   0.779   5.923   6.330
   54CHL1   H4B 3929   0.878   6.069   6.308
   54CHL1    C5 3930   0.767   6.058   6.495
   54CHL1    C6 3931   0.866   6.118   6.563
   54CHL1    H6 3932   0.960   6.138   6.510
   54CHL1    C7 3933   0.861   6.146   6.710
   54CHL1   H7A 3934   0.960   6.121   6.754
   54CHL1   H7B 3935   0.845   6.255   6.727
   54CHL1    C8 3936   0.748   6.068   6.783
   54CHL1    H8 3937   0.780   5.962   6.790
   54CHL1   C14 3938   0.721   6.123   6.924
   54CHL1   H14 3939   0.688   6.229   6.907
   54CHL1   C15 3940   0.837   6.134   7.023
   54CHL1  H15A 3941   0.904   6.045   7.016
   54CHL1  H15B 3942   0.897   6.225   7.003
   54CHL1   C16 3943   0.767   6.140   7.161
   54CHL1  H16A 3944   0.806   6.056   7.222
   54CHL1  H16B 3945   0.785   6.236   7.213
   54CHL1   C17 3946   0.613   6.117   7.142
   54CHL1   H17 3947   0.561   6.216   7.138
   54CHL1   C13 3948   0.606   6.057   7.002
   54CHL1   C18 3949   0.634   5.907   7.020
   54CHL1  H18A 3950   0.552   5.859   7.075
   54CHL1  H18B 3951   0.633   5.861   6.921
   54CHL1  H18C 3952   0.732   5.884   7.067
   54CHL1   C12 3953   0.480   6.085   6.919
   54CHL1  H12A 3954   0.389   6.043   6.966
   54CHL1  H12B 3955   0.467   6.195   6.910
   54CHL1   C11 3956   0.493   6.025   6.779
   54CHL1  H11A 3957   0.500   5.915   6.792
   54CHL1  H11B 3958   0.400   6.045   6.722
   54CHL1    C9 3959   0.618   6.076   6.701
   54CHL1    H9 3960   0.600   6.186   6.686
   54CHL1   C10 3961   0.632   6.018   6.558
   54CHL1   C19 3962   0.625   5.863   6.571
   54CHL1  H19A 3963   0.691   5.827   6.653
   54CHL1  H19B 3964   0.521   5.832   6.594
   54CHL1  H19C 3965   0.655   5.808   6.480
   54CHL1    C1 3966   0.516   6.075   6.469
   54CHL1   H1A 3967   0.419   6.033   6.505
   54CHL1   H1B 3968   0.512   6.185   6.485
   54CHL1    C2 3969   0.526   6.051   6.317
   54CHL1   H2A 3970   0.450   6.113   6.263
   54CHL1   H2B 3971   0.502   5.945   6.296
   54CHL1   C20 3972   0.548   6.042   7.262
   54CHL1   H20 3973   0.578   5.935   7.264
   54CHL1   C21 3974   0.393   6.044   7.255
   54CHL1  H21A 3975   0.357   6.144   7.281
   54CHL1  H21B 3976   0.350   5.973   7.329
   54CHL1  H21C 3977   0.352   6.019   7.156
   54CHL1   C22 3978   0.597   6.102   7.395
   54CHL1  H22A 3979   0.706   6.114   7.403
   54CHL1  H22B 3980   0.561   6.207   7.401
   54CHL1   C23 3981   0.561   6.021   7.519
   54CHL1  H23A 3982   0.452   5.994   7.528
   54CHL1  H23B 3983   0.620   5.927   7.527
   54CHL1   C24 3984   0.600   6.105   7.637
   54CHL1  H24A 3985   0.700   6.150   7.641
   54CHL1  H24B 3986   0.547   6.200   7.626
   54CHL1   C25 3987   0.567   6.028   7.764
   54CHL1   H25 3988   0.479   5.967   7.745
   54CHL1   C26 3989   0.690   5.945   7.805
   54CHL1  H26A 3990   0.676   5.899   7.905
   54CHL1  H26B 3991   0.703   5.866   7.728
   54CHL1  H26C 3992   0.783   6.006   7.807
   54CHL1   C27 3993   0.528   6.122   7.874
   54CHL1  H27A 3994   0.609   6.170   7.830
   54CHL1  H27B 3995   0.456   6.204   7.880
   54CHL1  H27C 3996   0.551   6.092   7.981
   55CHL1    C3 3997   0.247   1.616   6.268
   55CHL1    H3 3998   0.206   1.517   6.299
   55CHL1    O3 3999   0.246   1.627   6.127
   55CHL1   H3' 4000   0.284   1.543   6.097
   55CHL1    C4 4001   0.168   1.725   6.334
   55CHL1   H4A 4002   0.190   1.830   6.303
   55CHL1   H4B 4003   0.078   1.698   6.294
   55CHL1    C5 4004   0.142   1.700   6.479
   55CHL1    C6 4005   0.028   1.666   6.537
   55CHL1    H6 4006  -0.063   1.662   6.481
   55CHL1    C7 4007   0.001   1.663   6.680
   55CHL1   H7A 4008  -0.086   1.728   6.700
   55CHL1   H7B 4009  -0.021   1.558   6.705
   55CHL1    C8 4010   0.114   1.720   6.758
   55CHL1    H8 4011   0.111   1.831   6.750
   55CHL1   C14 4012   0.101   1.667   6.898
   55CHL1   H14 4013   0.093   1.556   6.892
   55CHL1   C15 4014  -0.019   1.705   6.979
   55CHL1  H15A 4015  -0.030   1.815   6.979
   55CHL1  H15B 4016  -0.114   1.656   6.948
   55CHL1   C16 4017   0.018   1.674   7.124
   55CHL1  H16A 4018  -0.007   1.762   7.188
   55CHL1  H16B 4019  -0.034   1.584   7.160
   55CHL1   C17 4020   0.168   1.651   7.124
   55CHL1   H17 4021   0.187   1.542   7.122
   55CHL1   C13 4022   0.214   1.706   6.986
   55CHL1   C18 4023   0.224   1.860   6.974
   55CHL1  H18A 4024   0.245   1.909   6.878
   55CHL1  H18B 4025   0.137   1.911   7.019
   55CHL1  H18C 4026   0.319   1.881   7.025
   55CHL1   C12 4027   0.339   1.643   6.932
   55CHL1  H12A 4028   0.424   1.677   6.994
   55CHL1  H12B 4029   0.331   1.533   6.931
   55CHL1   C11 4030   0.359   1.686   6.789
   55CHL1  H11A 4031   0.394   1.791   6.792
   55CHL1  H11B 4032   0.439   1.629   6.743
   55CHL1    C9 4033   0.240   1.666   6.697
   55CHL1    H9 4034   0.221   1.555   6.689
   55CHL1   C10 4035   0.261   1.715   6.554
   55CHL1   C19 4036   0.279   1.871   6.550
   55CHL1  H19A 4037   0.318   1.914   6.454
   55CHL1  H19B 4038   0.208   1.938   6.598
   55CHL1  H19C 4039   0.346   1.894   6.631
   55CHL1    C1 4040   0.356   1.617   6.479
   55CHL1   H1A 4041   0.449   1.614   6.529
   55CHL1   H1B 4042   0.327   1.511   6.498
   55CHL1    C2 4043   0.380   1.638   6.328
   55CHL1   H2A 4044   0.457   1.573   6.284
   55CHL1   H2B 4045   0.413   1.741   6.304
   55CHL1   C20 4046   0.227   1.690   7.259
   55CHL1   H20 4047   0.183   1.786   7.268
   55CHL1   C21 4048   0.376   1.692   7.254
   55CHL1  H21A 4049   0.416   1.779   7.196
   55CHL1  H21B 4050   0.408   1.597   7.210
   55CHL1  H21C 4051   0.416   1.696   7.357
   55CHL1   C22 4052   0.176   1.625   7.392
   55CHL1  H22A 4053   0.065   1.641   7.389
   55CHL1  H22B 4054   0.202   1.519   7.379
   55CHL1   C23 4055   0.232   1.682   7.529
   55CHL1  H23A 4056   0.341   1.688   7.534
   55CHL1  H23B 4057   0.228   1.788   7.548
   55CHL1   C24 4058   0.154   1.644   7.656
   55CHL1  H24A 4059   0.047   1.628   7.629
   55CHL1  H24B 4060   0.200   1.549   7.686
   55CHL1   C25 4061   0.159   1.747   7.776
   55CHL1   H25 4062   0.101   1.840   7.764
   55CHL1   C26 4063   0.091   1.694   7.902
   55CHL1  H26A 4064   0.106   1.770   7.978
   55CHL1  H26B 4065  -0.018   1.676   7.891
   55CHL1  H26C 4066   0.144   1.604   7.936
   55CHL1   C27 4067   0.296   1.806   7.807
   55CHL1  H27A 4068   0.288   1.871   7.896
   55CHL1  H27B 4069   0.362   1.725   7.833
   55CHL1  H27C 4070   0.339   1.864   7.723
   56CHL1    C3 4071   0.021  -0.019   6.268
   56CHL1    H3 4072  -0.077  -0.069   6.288
   56CHL1    O3 4073   0.048  -0.028   6.129
   56CHL1   H3' 4074   0.027  -0.119   6.105
   56CHL1    C4 4075   0.017   0.129   6.310
   56CHL1   H4A 4076   0.105   0.181   6.269
   56CHL1   H4B 4077  -0.070   0.180   6.263
   56CHL1    C5 4078   0.015   0.141   6.461
   56CHL1    C6 4079  -0.075   0.213   6.527
   56CHL1    H6 4080  -0.148   0.264   6.474
   56CHL1    C7 4081  -0.086   0.246   6.670
   56CHL1   H7A 4082  -0.092   0.357   6.682
   56CHL1   H7B 4083  -0.178   0.200   6.711
   56CHL1    C8 4084   0.031   0.189   6.745
   56CHL1    H8 4085   0.119   0.242   6.720
   56CHL1   C14 4086   0.008   0.197   6.895
   56CHL1   H14 4087  -0.073   0.128   6.920
   56CHL1   C15 4088  -0.031   0.337   6.948
   56CHL1  H15A 4089   0.020   0.421   6.896
   56CHL1  H15B 4090  -0.138   0.352   6.936
   56CHL1   C16 4091   0.014   0.333   7.095
   56CHL1  H16A 4092   0.091   0.413   7.104
   56CHL1  H16B 4093  -0.066   0.356   7.165
   56CHL1   C17 4094   0.087   0.197   7.126
   56CHL1   H17 4095   0.012   0.124   7.160
   56CHL1   C13 4096   0.118   0.145   6.982
   56CHL1   C18 4097   0.227   0.224   6.959
   56CHL1  H18A 4098   0.321   0.198   7.014
   56CHL1  H18B 4099   0.248   0.230   6.854
   56CHL1  H18C 4100   0.200   0.325   6.963
   56CHL1   C12 4101   0.174   0.019   6.920
   56CHL1  H12A 4102   0.273   0.011   6.959
   56CHL1  H12B 4103   0.119  -0.070   6.946
   56CHL1   C11 4104   0.205   0.027   6.767
   56CHL1  H11A 4105   0.298   0.086   6.743
   56CHL1  H11B 4106   0.225  -0.072   6.727
   56CHL1    C9 4107   0.087   0.063   6.687
   56CHL1    H9 4108   0.014  -0.016   6.709
   56CHL1   C10 4109   0.120   0.063   6.535
   56CHL1   C19 4110   0.257   0.124   6.495
   56CHL1  H19A 4111   0.272   0.137   6.386
   56CHL1  H19B 4112   0.253   0.225   6.532
   56CHL1  H19C 4113   0.347   0.075   6.537
   56CHL1    C1 4114   0.118  -0.083   6.490
   56CHL1   H1A 4115   0.201  -0.137   6.539
   56CHL1   H1B 4116   0.024  -0.128   6.524
   56CHL1    C2 4117   0.132  -0.098   6.339
   56CHL1   H2A 4118   0.125  -0.206   6.313
   56CHL1   H2B 4119   0.232  -0.062   6.307
   56CHL1   C20 4120   0.184   0.226   7.246
   56CHL1   H20 4121   0.281   0.268   7.230
   56CHL1   C21 4122   0.245   0.113   7.309
   56CHL1  H21A 4123   0.294   0.070   7.219
   56CHL1  H21B 4124   0.160   0.058   7.357
   56CHL1  H21C 4125   0.332   0.109   7.377
   56CHL1   C22 4126   0.121   0.296   7.362
   56CHL1  H22A 4127   0.108   0.402   7.329
   56CHL1  H22B 4128   0.023   0.248   7.380
   56CHL1   C23 4129   0.213   0.284   7.486
   56CHL1  H23A 4130   0.232   0.188   7.535
   56CHL1  H23B 4131   0.316   0.302   7.452
   56CHL1   C24 4132   0.157   0.372   7.592
   56CHL1  H24A 4133   0.145   0.457   7.526
   56CHL1  H24B 4134   0.060   0.327   7.624
   56CHL1   C25 4135   0.241   0.411   7.713
   56CHL1   H25 4136   0.312   0.325   7.729
   56CHL1   C26 4137   0.279   0.561   7.719
   56CHL1  H26A 4138   0.350   0.489   7.678
   56CHL1  H26B 4139   0.315   0.639   7.786
   56CHL1  H26C 4140   0.316   0.652   7.666
   56CHL1   C27 4141   0.168   0.428   7.835
   56CHL1  H27A 4142   0.082   0.368   7.851
   56CHL1  H27B 4143   0.227   0.467   7.922
   56CHL1  H27C 4144   0.107   0.504   7.786
   57SAPC     N 4145   3.152   3.050   9.955
   57SAPC   C12 4146   3.193   3.109  10.088
   57SAPC  H12A 4147   3.204   3.028  10.161
   57SAPC  H12B 4148   3.115   3.174  10.128
   57SAPC   C13 4149   3.126   3.150   9.847
   57SAPC  H13A 4150   3.040   3.213   9.872
   57SAPC  H13B 4151   3.211   3.217   9.836
   57SAPC  H13C 4152   3.106   3.097   9.755
   57SAPC   C14 4153   3.253   2.949   9.911
   57SAPC  H14A 4154   3.346   3.001   9.890
   57SAPC  H14B 4155   3.277   2.878   9.989
   57SAPC  H14C 4156   3.224   2.896   9.822
   57SAPC   C15 4157   3.021   2.989   9.977
   57SAPC  H15A 4158   3.022   2.896  10.034
   57SAPC  H15B 4159   2.957   3.053  10.039
   57SAPC  H15C 4160   2.966   2.973   9.887
   57SAPC   C11 4161   3.323   3.188  10.089
   57SAPC  H11A 4162   3.407   3.122  10.059
   57SAPC  H11B 4163   3.342   3.221  10.194
   57SAPC     P 4164   3.360   3.442  10.038
   57SAPC   O13 4165   3.256   3.508  10.118
   57SAPC   O14 4166   3.500   3.439  10.089
   57SAPC   O12 4167   3.313   3.296   9.998
   57SAPC   O11 4168   3.363   3.508   9.896
   57SAPC    C1 4169   3.407   3.433   9.785
   57SAPC    HA 4170   3.510   3.395   9.803
   57SAPC    HB 4171   3.339   3.347   9.763
   57SAPC    C2 4172   3.404   3.523   9.662
   57SAPC    HS 4173   3.460   3.617   9.685
   57SAPC   O21 4174   3.264   3.549   9.637
   57SAPC   C21 4175   3.231   3.592   9.516
   57SAPC   O22 4176   3.304   3.601   9.420
   57SAPC   C22 4177   3.093   3.661   9.526
   57SAPC   H2R 4178   3.083   3.726   9.606
   57SAPC   H2S 4179   3.067   3.732   9.446
   57SAPC    C3 4180   3.476   3.447   9.550
   57SAPC    HX 4181   3.573   3.413   9.591
   57SAPC    HY 4182   3.501   3.509   9.461
   57SAPC   O31 4183   3.388   3.339   9.515
   57SAPC   C31 4184   3.437   3.261   9.426
   57SAPC   O32 4185   3.550   3.263   9.380
   57SAPC   C32 4186   3.335   3.159   9.391
   57SAPC   H2X 4187   3.270   3.200   9.315
   57SAPC   H2Y 4188   3.274   3.121   9.475
   57SAPC   C23 4189   2.991   3.571   9.589
   57SAPC   H3R 4190   2.899   3.635   9.584
   57SAPC   H3S 4191   3.018   3.558   9.697
   57SAPC   C24 4192   2.996   3.436   9.523
   57SAPC   H4R 4193   2.915   3.373   9.562
   57SAPC   H4S 4194   3.094   3.392   9.516
   57SAPC   C25 4195   2.999   3.472   9.384
   57SAPC   H5R 4196   2.915   3.532   9.390
   57SAPC   C26 4197   3.027   3.419   9.267
   57SAPC   H6R 4198   2.988   3.469   9.176
   57SAPC   C27 4199   3.070   3.291   9.224
   57SAPC   H7R 4200   2.999   3.215   9.267
   57SAPC   H7S 4201   3.156   3.320   9.278
   57SAPC   C28 4202   3.084   3.290   9.072
   57SAPC   H8R 4203   3.010   3.228   9.020
   57SAPC   C29 4204   3.141   3.387   8.999
   57SAPC   H9R 4205   3.143   3.376   8.890
   57SAPC  C210 4206   3.202   3.513   9.057
   57SAPC  H10R 4207   3.148   3.566   9.138
   57SAPC  H10S 4208   3.201   3.591   8.982
   57SAPC  C211 4209   3.337   3.480   9.107
   57SAPC  H11R 4210   3.347   3.470   9.216
   57SAPC  C212 4211   3.442   3.466   9.026
   57SAPC  H12R 4212   3.540   3.447   9.071
   57SAPC  C213 4213   3.440   3.480   8.877
   57SAPC  H13R 4214   3.351   3.432   8.830
   57SAPC  H13S 4215   3.529   3.431   8.833
   57SAPC  C214 4216   3.456   3.624   8.840
   57SAPC  H14R 4217   3.519   3.688   8.904
   57SAPC  C215 4218   3.396   3.680   8.737
   57SAPC  H15R 4219   3.395   3.790   8.740
   57SAPC  C216 4220   3.300   3.610   8.642
   57SAPC  H16R 4221   3.201   3.648   8.660
   57SAPC  H16S 4222   3.266   3.508   8.664
   57SAPC  C217 4223   3.327   3.642   8.495
   57SAPC  H17R 4224   3.369   3.745   8.479
   57SAPC  H17S 4225   3.231   3.636   8.438
   57SAPC  C218 4226   3.429   3.549   8.441
   57SAPC  H18R 4227   3.397   3.447   8.470
   57SAPC  H18S 4228   3.521   3.574   8.500
   57SAPC  C219 4229   3.450   3.566   8.291
   57SAPC  H19R 4230   3.534   3.497   8.266
   57SAPC  H19S 4231   3.487   3.669   8.269
   57SAPC  C220 4232   3.332   3.542   8.195
   57SAPC  H20R 4233   3.295   3.639   8.155
   57SAPC  H20S 4234   3.247   3.486   8.239
   57SAPC  H20T 4235   3.370   3.483   8.109
   57SAPC   C33 4236   3.402   3.047   9.320
   57SAPC   H3X 4237   3.466   2.984   9.383
   57SAPC   H3Y 4238   3.452   3.078   9.224
   57SAPC   C34 4239   3.292   2.964   9.278
   57SAPC   H4X 4240   3.207   2.953   9.351
   57SAPC   H4Y 4241   3.337   2.867   9.272
   57SAPC   C35 4242   3.265   3.011   9.138
   57SAPC   H5X 4243   3.323   2.985   9.050
   57SAPC   H5Y 4244   3.217   3.111   9.133
   57SAPC   C36 4245   3.163   2.932   9.096
   57SAPC   H6X 4246   3.107   2.975   9.183
   57SAPC   H6Y 4247   3.137   2.837   9.107
   57SAPC   C37 4248   3.138   2.910   8.946
   57SAPC   H7X 4249   3.054   2.843   8.938
   57SAPC   H7Y 4250   3.189   2.831   8.892
   57SAPC   C38 4251   3.071   3.017   8.868
   57SAPC   H8X 4252   3.118   3.111   8.871
   57SAPC   H8Y 4253   3.002   3.071   8.924
   57SAPC   C39 4254   3.026   2.970   8.732
   57SAPC   H9X 4255   2.971   3.037   8.662
   57SAPC   H9Y 4256   2.941   2.907   8.710
   57SAPC  C310 4257   3.155   2.948   8.685
   57SAPC  H10X 4258   3.137   2.969   8.584
   57SAPC  H10Y 4259   3.189   2.844   8.697
   57SAPC  C311 4260   3.228   3.070   8.648
   57SAPC  H11X 4261   3.263   3.088   8.749
   57SAPC  H11Y 4262   3.158   3.150   8.607
   57SAPC  C312 4263   3.339   3.035   8.550
   57SAPC  H12X 4264   3.382   2.934   8.576
   57SAPC  H12Y 4265   3.403   3.123   8.552
   57SAPC  C313 4266   3.308   3.027   8.404
   57SAPC  H13X 4267   3.228   3.102   8.374
   57SAPC  H13Y 4268   3.285   2.920   8.405
   57SAPC  C314 4269   3.409   3.018   8.297
   57SAPC  H14X 4270   3.385   2.961   8.206
   57SAPC  H14Y 4271   3.489   2.956   8.338
   57SAPC  C315 4272   3.416   3.162   8.258
   57SAPC  H15X 4273   3.441   3.214   8.352
   57SAPC  H15Y 4274   3.317   3.204   8.224
   57SAPC  C316 4275   3.522   3.176   8.155
   57SAPC  H16X 4276   3.612   3.130   8.203
   57SAPC  H16Y 4277   3.539   3.284   8.138
   57SAPC  C317 4278   3.495   3.103   8.023
   57SAPC  H17X 4279   3.462   2.999   8.035
   57SAPC  H17Y 4280   3.595   3.099   7.977
   57SAPC  C318 4281   3.398   3.169   7.925
   57SAPC  H18X 4282   3.306   3.207   7.974
   57SAPC  H18Y 4283   3.366   3.095   7.849
   57SAPC  H18Z 4284   3.452   3.253   7.875
   58SAPC     N 4285   4.294   2.313  10.016
   58SAPC   C12 4286   4.398   2.239   9.935
   58SAPC  H12A 4287   4.491   2.241   9.992
   58SAPC  H12B 4288   4.418   2.295   9.844
   58SAPC   C13 4289   4.295   2.264  10.157
   58SAPC  H13A 4290   4.232   2.175  10.161
   58SAPC  H13B 4291   4.394   2.230  10.188
   58SAPC  H13C 4292   4.256   2.338  10.225
   58SAPC   C14 4293   4.326   2.458  10.014
   58SAPC  H14A 4294   4.429   2.471  10.043
   58SAPC  H14B 4295   4.310   2.499   9.915
   58SAPC  H14C 4296   4.260   2.514  10.079
   58SAPC   C15 4297   4.155   2.294   9.965
   58SAPC  H15A 4298   4.122   2.192   9.988
   58SAPC  H15B 4299   4.089   2.362  10.016
   58SAPC  H15C 4300   4.146   2.309   9.859
   58SAPC   C11 4301   4.368   2.093   9.897
   58SAPC  H11A 4302   4.458   2.052   9.845
   58SAPC  H11B 4303   4.284   2.095   9.824
   58SAPC     P 4304   4.208   1.922  10.015
   58SAPC   O13 4305   4.219   1.831  10.131
   58SAPC   O14 4306   4.089   2.008  10.007
   58SAPC   O12 4307   4.339   2.015  10.013
   58SAPC   O11 4308   4.216   1.844   9.877
   58SAPC    C1 4309   4.304   1.735   9.880
   58SAPC    HA 4310   4.402   1.783   9.900
   58SAPC    HB 4311   4.280   1.662   9.962
   58SAPC    C2 4312   4.314   1.656   9.748
   58SAPC    HS 4313   4.391   1.575   9.749
   58SAPC   O21 4314   4.344   1.744   9.640
   58SAPC   C21 4315   4.441   1.826   9.644
   58SAPC   O22 4316   4.537   1.824   9.721
   58SAPC   C22 4317   4.419   1.926   9.530
   58SAPC   H2R 4318   4.317   1.963   9.541
   58SAPC   H2S 4319   4.496   2.006   9.537
   58SAPC    C3 4320   4.184   1.581   9.718
   58SAPC    HX 4321   4.097   1.646   9.740
   58SAPC    HY 4322   4.171   1.489   9.781
   58SAPC   O31 4323   4.200   1.545   9.580
   58SAPC   C31 4324   4.159   1.639   9.493
   58SAPC   O32 4325   4.090   1.737   9.518
   58SAPC   C32 4326   4.174   1.575   9.361
   58SAPC   H2X 4327   4.112   1.481   9.355
   58SAPC   H2Y 4328   4.273   1.534   9.341
   58SAPC   C23 4329   4.420   1.851   9.395
   58SAPC   H3R 4330   4.395   1.743   9.401
   58SAPC   H3S 4331   4.523   1.863   9.386
   58SAPC   C24 4332   4.409   1.914   9.254
   58SAPC   H4R 4333   4.323   1.980   9.264
   58SAPC   H4S 4334   4.383   1.826   9.190
   58SAPC   C25 4335   4.523   1.995   9.195
   58SAPC   H5R 4336   4.554   2.083   9.250
   58SAPC   C26 4337   4.591   1.970   9.084
   58SAPC   H6R 4338   4.680   2.029   9.060
   58SAPC   C27 4339   4.573   1.856   8.992
   58SAPC   H7R 4340   4.612   1.771   9.047
   58SAPC   H7S 4341   4.622   1.878   8.894
   58SAPC   C28 4342   4.467   1.773   8.956
   58SAPC   H8R 4343   4.479   1.664   8.940
   58SAPC   C29 4344   4.368   1.838   8.914
   58SAPC   H9R 4345   4.305   1.760   8.904
   58SAPC  C210 4346   4.332   1.982   8.891
   58SAPC  H10R 4347   4.425   2.043   8.893
   58SAPC  H10S 4348   4.265   2.017   8.971
   58SAPC  C211 4349   4.265   2.000   8.758
   58SAPC  H11R 4350   4.155   2.008   8.760
   58SAPC  C212 4351   4.333   2.003   8.642
   58SAPC  H12R 4352   4.279   1.995   8.546
   58SAPC  C213 4353   4.483   1.989   8.643
   58SAPC  H13R 4354   4.515   1.894   8.691
   58SAPC  H13S 4355   4.528   2.069   8.705
   58SAPC  C214 4356   4.541   2.000   8.507
   58SAPC  H14R 4357   4.553   2.103   8.469
   58SAPC  C215 4358   4.579   1.893   8.436
   58SAPC  H15R 4359   4.620   1.907   8.335
   58SAPC  C216 4360   4.567   1.750   8.485
   58SAPC  H16R 4361   4.466   1.734   8.530
   58SAPC  H16S 4362   4.639   1.726   8.565
   58SAPC  C217 4363   4.598   1.649   8.373
   58SAPC  H17R 4364   4.590   1.541   8.403
   58SAPC  H17S 4365   4.700   1.664   8.337
   58SAPC  C218 4366   4.518   1.674   8.246
   58SAPC  H18R 4367   4.523   1.587   8.172
   58SAPC  H18S 4368   4.501   1.776   8.205
   58SAPC  C219 4369   4.413   1.608   8.233
   58SAPC  H19R 4370   4.397   1.678   8.329
   58SAPC  H19S 4371   4.422   1.538   8.306
   58SAPC  C220 4372   4.309   1.583   8.097
   58SAPC  H20R 4373   4.200   1.560   8.110
   58SAPC  H20S 4374   4.298   1.494   8.038
   58SAPC  H20T 4375   4.291   1.680   8.039
   58SAPC   C33 4376   4.142   1.683   9.261
   58SAPC   H3X 4377   4.180   1.784   9.274
   58SAPC   H3Y 4378   4.038   1.728   9.263
   58SAPC   C34 4379   4.174   1.604   9.130
   58SAPC   H4X 4380   4.276   1.609   9.100
   58SAPC   H4Y 4381   4.153   1.702   9.087
   58SAPC   C35 4382   4.108   1.461   9.066
   58SAPC   H5X 4383   4.002   1.466   9.040
   58SAPC   H5Y 4384   4.116   1.384   9.141
   58SAPC   C36 4385   4.124   1.396   8.917
   58SAPC   H6X 4386   4.100   1.289   8.922
   58SAPC   H6Y 4387   4.232   1.411   8.913
   58SAPC   C37 4388   4.027   1.415   8.784
   58SAPC   H7X 4389   4.077   1.499   8.769
   58SAPC   H7Y 4390   3.936   1.468   8.786
   58SAPC   C38 4391   4.050   1.458   8.639
   58SAPC   H8X 4392   4.071   1.354   8.612
   58SAPC   H8Y 4393   4.124   1.541   8.606
   58SAPC   C39 4394   3.962   1.526   8.550
   58SAPC   H9X 4395   3.918   1.467   8.473
   58SAPC   H9Y 4396   4.026   1.482   8.476
   58SAPC  C310 4397   3.971   1.679   8.548
   58SAPC  H10X 4398   4.070   1.735   8.563
   58SAPC  H10Y 4399   3.903   1.698   8.631
   58SAPC  C311 4400   3.917   1.722   8.424
   58SAPC  H11X 4401   3.874   1.636   8.371
   58SAPC  H11Y 4402   4.003   1.733   8.372
   58SAPC  C312 4403   3.896   1.867   8.389
   58SAPC  H12X 4404   3.809   1.882   8.453
   58SAPC  H12Y 4405   3.874   1.869   8.281
   58SAPC  C313 4406   4.010   1.971   8.412
   58SAPC  H13X 4407   4.106   1.922   8.445
   58SAPC  H13Y 4408   3.968   2.034   8.490
   58SAPC  C314 4409   4.049   2.058   8.287
   58SAPC  H14X 4410   3.958   2.085   8.231
   58SAPC  H14Y 4411   4.114   2.012   8.210
   58SAPC  C315 4412   4.146   2.170   8.317
   58SAPC  H15X 4413   4.211   2.141   8.402
   58SAPC  H15Y 4414   4.076   2.252   8.345
   58SAPC  C316 4415   4.235   2.214   8.198
   58SAPC  H16X 4416   4.260   2.320   8.218
   58SAPC  H16Y 4417   4.180   2.208   8.102
   58SAPC  C317 4418   4.369   2.139   8.183
   58SAPC  H17X 4419   4.353   2.036   8.145
   58SAPC  H17Y 4420   4.414   2.132   8.285
   58SAPC  C318 4421   4.469   2.204   8.087
   58SAPC  H18X 4422   4.525   2.280   8.138
   58SAPC  H18Y 4423   4.421   2.259   8.003
   58SAPC  H18Z 4424   4.549   2.136   8.052
   59SAPC     N 4425   6.419   1.830  10.188
   59SAPC   C12 4426   6.416   1.771  10.049
   59SAPC  H12A 4427   6.323   1.717  10.038
   59SAPC  H12B 4428   6.498   1.702  10.033
   59SAPC   C13 4429   6.523   1.935  10.193
   59SAPC  H13A 4430   6.622   1.896  10.182
   59SAPC  H13B 4431   6.502   2.004  10.110
   59SAPC  H13C 4432   6.512   1.995  10.283
   59SAPC   C14 4433   6.289   1.897  10.219
   59SAPC  H14A 4434   6.290   1.945  10.315
   59SAPC  H14B 4435   6.270   1.976  10.143
   59SAPC  H14C 4436   6.203   1.831  10.211
   59SAPC   C15 4437   6.441   1.722  10.287
   59SAPC  H15A 4438   6.441   1.761  10.388
   59SAPC  H15B 4439   6.360   1.650  10.283
   59SAPC  H15C 4440   6.533   1.668  10.266
   59SAPC   C11 4441   6.412   1.871   9.934
   59SAPC  H11A 4442   6.417   1.810   9.840
   59SAPC  H11B 4443   6.495   1.946   9.933
   59SAPC     P 4444   6.206   1.985   9.824
   59SAPC   O13 4445   6.164   1.866   9.749
   59SAPC   O14 4446   6.102   2.080   9.867
   59SAPC   O12 4447   6.289   1.939   9.949
   59SAPC   O11 4448   6.317   2.059   9.740
   59SAPC    C1 4449   6.280   2.125   9.619
   59SAPC    HA 4450   6.191   2.191   9.634
   59SAPC    HB 4451   6.364   2.193   9.592
   59SAPC    C2 4452   6.261   2.024   9.501
   59SAPC    HS 4453   6.162   1.974   9.516
   59SAPC   O21 4454   6.372   1.931   9.496
   59SAPC   C21 4455   6.341   1.808   9.463
   59SAPC   O22 4456   6.228   1.764   9.449
   59SAPC   C22 4457   6.466   1.725   9.431
   59SAPC   H2R 4458   6.548   1.792   9.397
   59SAPC   H2S 4459   6.498   1.673   9.523
   59SAPC    C3 4460   6.250   2.096   9.365
   59SAPC    HX 4461   6.155   2.152   9.357
   59SAPC    HY 4462   6.265   2.024   9.283
   59SAPC   O31 4463   6.352   2.190   9.358
   59SAPC   C31 4464   6.321   2.294   9.278
   59SAPC   O32 4465   6.238   2.297   9.190
   59SAPC   C32 4466   6.423   2.384   9.290
   59SAPC   H2X 4467   6.453   2.358   9.388
   59SAPC   H2Y 4468   6.422   2.498   9.284
   59SAPC   C23 4469   6.435   1.617   9.324
   59SAPC   H3R 4470   6.408   1.668   9.230
   59SAPC   H3S 4471   6.350   1.553   9.351
   59SAPC   C24 4472   6.548   1.523   9.293
   59SAPC   H4R 4473   6.512   1.447   9.224
   59SAPC   H4S 4474   6.584   1.464   9.380
   59SAPC   C25 4475   6.657   1.605   9.238
   59SAPC   H5R 4476   6.744   1.589   9.302
   59SAPC   C26 4477   6.666   1.681   9.126
   59SAPC   H6R 4478   6.763   1.714   9.086
   59SAPC   C27 4479   6.574   1.709   9.017
   59SAPC   H7R 4480   6.498   1.633   9.008
   59SAPC   H7S 4481   6.642   1.714   8.930
   59SAPC   C28 4482   6.487   1.823   9.017
   59SAPC   H8R 4483   6.410   1.793   9.088
   59SAPC   C29 4484   6.432   1.856   8.901
   59SAPC   H9R 4485   6.392   1.958   8.899
   59SAPC  C210 4486   6.443   1.791   8.764
   59SAPC  H10R 4487   6.534   1.728   8.746
   59SAPC  H10S 4488   6.443   1.863   8.680
   59SAPC  C211 4489   6.319   1.706   8.761
   59SAPC  H11R 4490   6.338   1.598   8.751
   59SAPC  C212 4491   6.190   1.749   8.772
   59SAPC  H12R 4492   6.111   1.673   8.772
   59SAPC  C213 4493   6.143   1.893   8.790
   59SAPC  H13R 4494   6.179   1.933   8.888
   59SAPC  H13S 4495   6.033   1.893   8.797
   59SAPC  C214 4496   6.183   1.995   8.687
   59SAPC  H14R 4497   6.244   2.079   8.725
   59SAPC  C215 4498   6.156   1.991   8.556
   59SAPC  H15R 4499   6.186   2.076   8.493
   59SAPC  C216 4500   6.079   1.879   8.489
   59SAPC  H16R 4501   5.985   1.859   8.545
   59SAPC  H16S 4502   6.138   1.785   8.492
   59SAPC  C217 4503   6.050   1.903   8.339
   59SAPC  H17R 4504   6.146   1.899   8.283
   59SAPC  H17S 4505   6.005   2.003   8.320
   59SAPC  C218 4506   5.954   1.797   8.283
   59SAPC  H18R 4507   5.852   1.843   8.287
   59SAPC  H18S 4508   5.954   1.710   8.352
   59SAPC  C219 4509   5.985   1.755   8.138
   59SAPC  H19R 4510   6.091   1.726   8.125
   59SAPC  H19S 4511   5.970   1.846   8.075
   59SAPC  C220 4512   5.895   1.646   8.078
   59SAPC  H20R 4513   5.923   1.629   7.972
   59SAPC  H20S 4514   5.789   1.681   8.082
   59SAPC  H20T 4515   5.903   1.549   8.130
   59SAPC   C33 4516   6.491   2.304   9.182
   59SAPC   H3X 4517   6.553   2.397   9.219
   59SAPC   H3Y 4518   6.465   2.342   9.083
   59SAPC   C34 4519   6.565   2.141   9.193
   59SAPC   H4X 4520   6.512   2.076   9.130
   59SAPC   H4Y 4521   6.566   2.112   9.309
   59SAPC   C35 4522   6.716   2.088   9.122
   59SAPC   H5X 4523   6.789   2.021   9.172
   59SAPC   H5Y 4524   6.806   2.142   9.161
   59SAPC   C36 4525   6.745   2.079   8.967
   59SAPC   H6X 4526   6.852   2.031   8.941
   59SAPC   H6Y 4527   6.716   2.178   8.919
   59SAPC   C37 4528   6.681   1.995   8.877
   59SAPC   H7X 4529   6.582   2.036   8.891
   59SAPC   H7Y 4530   6.734   1.907   8.926
   59SAPC   C38 4531   6.678   2.018   8.731
   59SAPC   H8X 4532   6.653   1.924   8.682
   59SAPC   H8Y 4533   6.785   2.007   8.727
   59SAPC   C39 4534   6.597   2.144   8.670
   59SAPC   H9X 4535   6.633   2.251   8.662
   59SAPC   H9Y 4536   6.514   2.170   8.735
   59SAPC  C310 4537   6.575   2.118   8.524
   59SAPC  H10X 4538   6.508   2.033   8.525
   59SAPC  H10Y 4539   6.666   2.070   8.489
   59SAPC  C311 4540   6.557   2.239   8.432
   59SAPC  H11X 4541   6.649   2.298   8.439
   59SAPC  H11Y 4542   6.470   2.301   8.462
   59SAPC  C312 4543   6.561   2.203   8.284
   59SAPC  H12X 4544   6.663   2.174   8.253
   59SAPC  H12Y 4545   6.544   2.292   8.222
   59SAPC  C313 4546   6.457   2.095   8.259
   59SAPC  H13X 4547   6.361   2.146   8.284
   59SAPC  H13Y 4548   6.463   2.010   8.331
   59SAPC  C314 4549   6.457   2.036   8.118
   59SAPC  H14X 4550   6.364   1.976   8.109
   59SAPC  H14Y 4551   6.539   1.968   8.098
   59SAPC  C315 4552   6.458   2.133   8.002
   59SAPC  H15X 4553   6.464   2.084   7.903
   59SAPC  H15Y 4554   6.533   2.215   8.008
   59SAPC  C316 4555   6.321   2.186   7.991
   59SAPC  H16X 4556   6.324   2.233   8.093
   59SAPC  H16Y 4557   6.231   2.125   8.010
   59SAPC  C317 4558   6.315   2.257   7.848
   59SAPC  H17X 4559   6.336   2.199   7.759
   59SAPC  H17Y 4560   6.377   2.337   7.821
   59SAPC  C318 4561   6.201   2.342   7.831
   59SAPC  H18X 4562   6.156   2.414   7.895
   59SAPC  H18Y 4563   6.148   2.260   7.868
   59SAPC  H18Z 4564   6.175   2.428   7.767
   60SAPC     N 4565   6.216   0.975   9.995
   60SAPC   C12 4566   6.182   1.087   9.901
   60SAPC  H12A 4567   6.226   1.064   9.804
   60SAPC  H12B 4568   6.230   1.178   9.937
   60SAPC   C13 4569   6.363   0.961   9.988
   60SAPC  H13A 4570   6.410   1.048  10.035
   60SAPC  H13B 4571   6.396   0.871  10.032
   60SAPC  H13C 4572   6.395   0.962   9.884
   60SAPC   C14 4573   6.172   1.005  10.134
   60SAPC  H14A 4574   6.213   1.101  10.164
   60SAPC  H14B 4575   6.063   1.014  10.133
   60SAPC  H14C 4576   6.200   0.930  10.206
   60SAPC   C15 4577   6.144   0.854   9.947
   60SAPC  H15A 4578   6.036   0.858   9.945
   60SAPC  H15B 4579   6.180   0.823   9.848
   60SAPC  H15C 4580   6.170   0.763  10.003
   60SAPC   C11 4581   6.032   1.115   9.877
   60SAPC  H11A 4582   5.987   1.022   9.836
   60SAPC  H11B 4583   6.025   1.191   9.795
   60SAPC     P 4584   5.946   1.301  10.042
   60SAPC   O13 4585   5.855   1.306  10.159
   60SAPC   O14 4586   6.082   1.354  10.057
   60SAPC   O12 4587   5.961   1.150   9.996
   60SAPC   O11 4588   5.876   1.366   9.914
   60SAPC    C1 4589   5.740   1.336   9.884
   60SAPC    HA 4590   5.696   1.256   9.946
   60SAPC    HB 4591   5.686   1.429   9.901
   60SAPC    C2 4592   5.709   1.315   9.733
   60SAPC    HS 4593   5.598   1.315   9.720
   60SAPC   O21 4594   5.764   1.194   9.678
   60SAPC   C21 4595   5.743   1.078   9.736
   60SAPC   O22 4596   5.666   1.056   9.826
   60SAPC   C22 4597   5.807   0.965   9.652
   60SAPC   H2R 4598   5.914   0.968   9.668
   60SAPC   H2S 4599   5.751   0.874   9.680
   60SAPC    C3 4600   5.768   1.435   9.655
   60SAPC    HX 4601   5.840   1.494   9.713
   60SAPC    HY 4602   5.710   1.527   9.643
   60SAPC   O31 4603   5.870   1.391   9.574
   60SAPC   C31 4604   5.925   1.379   9.453
   60SAPC   O32 4605   6.047   1.364   9.453
   60SAPC   C32 4606   5.854   1.376   9.311
   60SAPC   H2X 4607   5.773   1.441   9.277
   60SAPC   H2Y 4608   5.819   1.274   9.286
   60SAPC   C23 4609   5.780   0.951   9.506
   60SAPC   H3R 4610   5.804   1.056   9.466
   60SAPC   H3S 4611   5.681   0.895   9.483
   60SAPC   C24 4612   5.858   0.916   9.400
   60SAPC   H4R 4613   5.813   0.930   9.295
   60SAPC   H4S 4614   5.837   0.819   9.433
   60SAPC   C25 4615   5.995   0.899   9.433
   60SAPC   H5R 4616   6.015   0.808   9.489
   60SAPC   C26 4617   6.083   0.957   9.359
   60SAPC   H6R 4618   6.180   0.910   9.368
   60SAPC   C27 4619   6.048   1.043   9.241
   60SAPC   H7R 4620   6.096   1.139   9.268
   60SAPC   H7S 4621   5.941   1.068   9.225
   60SAPC   C28 4622   6.088   0.980   9.110
   60SAPC   H8R 4623   6.051   0.879   9.092
   60SAPC   C29 4624   6.160   1.033   9.011
   60SAPC   H9R 4625   6.194   0.969   8.929
   60SAPC  C210 4626   6.219   1.168   9.011
   60SAPC  H10R 4627   6.260   1.173   9.116
   60SAPC  H10S 4628   6.156   1.257   9.020
   60SAPC  C211 4629   6.315   1.178   8.891
   60SAPC  H11R 4630   6.414   1.134   8.891
   60SAPC  C212 4631   6.317   1.255   8.786
   60SAPC  H12R 4632   6.417   1.267   8.742
   60SAPC  C213 4633   6.221   1.357   8.750
   60SAPC  H13R 4634   6.273   1.414   8.671
   60SAPC  H13S 4635   6.195   1.421   8.836
   60SAPC  C214 4636   6.106   1.278   8.697
   60SAPC  H14R 4637   6.037   1.247   8.777
   60SAPC  C215 4638   6.089   1.234   8.571
   60SAPC  H15R 4639   5.996   1.180   8.549
   60SAPC  C216 4640   6.179   1.251   8.451
   60SAPC  H16R 4641   6.287   1.256   8.477
   60SAPC  H16S 4642   6.152   1.346   8.400
   60SAPC  C217 4643   6.154   1.131   8.356
   60SAPC  H17R 4644   6.044   1.119   8.342
   60SAPC  H17S 4645   6.192   1.037   8.404
   60SAPC  C218 4646   6.218   1.142   8.217
   60SAPC  H18R 4647   6.327   1.156   8.234
   60SAPC  H18S 4648   6.180   1.234   8.169
   60SAPC  C219 4649   6.187   1.021   8.124
   60SAPC  H19R 4650   6.076   1.006   8.128
   60SAPC  H19S 4651   6.234   0.929   8.164
   60SAPC  C220 4652   6.226   1.032   7.975
   60SAPC  H20R 4653   6.196   0.944   7.914
   60SAPC  H20S 4654   6.335   1.043   7.965
   60SAPC  H20T 4655   6.173   1.119   7.930
   60SAPC   C33 4656   5.963   1.413   9.203
   60SAPC   H3X 4657   6.054   1.353   9.227
   60SAPC   H3Y 4658   5.991   1.520   9.214
   60SAPC   C34 4659   5.931   1.389   9.052
   60SAPC   H4X 4660   5.930   1.280   9.033
   60SAPC   H4Y 4661   6.016   1.433   8.995
   60SAPC   C35 4662   5.802   1.450   8.990
   60SAPC   H5X 4663   5.798   1.559   9.008
   60SAPC   H5Y 4664   5.712   1.404   9.036
   60SAPC   C36 4665   5.794   1.430   8.837
   60SAPC   H6X 4666   5.884   1.473   8.788
   60SAPC   H6Y 4667   5.706   1.486   8.796
   60SAPC   C37 4668   5.789   1.283   8.796
   60SAPC   H7X 4669   5.852   1.213   8.854
   60SAPC   H7Y 4670   5.797   1.270   8.685
   60SAPC   C38 4671   5.656   1.231   8.815
   60SAPC   H8X 4672   5.604   1.316   8.770
   60SAPC   H8Y 4673   5.619   1.246   8.918
   60SAPC   C39 4674   5.635   1.092   8.743
   60SAPC   H9X 4675   5.540   1.046   8.770
   60SAPC   H9Y 4676   5.688   1.002   8.771
   60SAPC  C310 4677   5.606   1.107   8.598
   60SAPC  H10X 4678   5.667   1.178   8.545
   60SAPC  H10Y 4679   5.540   1.187   8.613
   60SAPC  C311 4680   5.545   0.984   8.527
   60SAPC  H11X 4681   5.439   0.951   8.534
   60SAPC  H11Y 4682   5.601   0.900   8.572
   60SAPC  C312 4683   5.566   0.986   8.379
   60SAPC  H12X 4684   5.485   1.039   8.329
   60SAPC  H12Y 4685   5.545   0.882   8.349
   60SAPC  C313 4686   5.706   1.037   8.341
   60SAPC  H13X 4687   5.774   0.959   8.380
   60SAPC  H13Y 4688   5.735   1.135   8.381
   60SAPC  C314 4689   5.724   1.049   8.191
   60SAPC  H14X 4690   5.647   0.979   8.172
   60SAPC  H14Y 4691   5.822   1.018   8.151
   60SAPC  C315 4692   5.663   1.166   8.119
   60SAPC  H15X 4693   5.723   1.256   8.139
   60SAPC  H15Y 4694   5.566   1.176   8.163
   60SAPC  C316 4695   5.629   1.154   7.973
   60SAPC  H16X 4696   5.558   1.075   7.944
   60SAPC  H16Y 4697   5.721   1.143   7.913
   60SAPC  C317 4698   5.554   1.278   7.935
   60SAPC  H17X 4699   5.464   1.309   7.991
   60SAPC  H17Y 4700   5.502   1.239   7.844
   60SAPC  C318 4701   5.652   1.398   7.928
   60SAPC  H18X 4702   5.686   1.433   8.026
   60SAPC  H18Y 4703   5.605   1.481   7.876
   60SAPC  H18Z 4704   5.741   1.377   7.866
   61SAPC     N 4705   1.882   7.029  10.185
   61SAPC   C12 4706   2.020   6.973  10.153
   61SAPC  H12A 4707   2.068   6.939  10.242
   61SAPC  H12B 4708   2.082   7.047  10.104
   61SAPC   C13 4709   1.895   7.099  10.313
   61SAPC  H13A 4710   1.929   7.029  10.389
   61SAPC  H13B 4711   1.971   7.176  10.301
   61SAPC  H13C 4712   1.803   7.145  10.342
   61SAPC   C14 4713   1.843   7.128  10.080
   61SAPC  H14A 4714   1.747   7.172  10.099
   61SAPC  H14B 4715   1.917   7.205  10.069
   61SAPC  H14C 4716   1.840   7.078   9.982
   61SAPC   C15 4717   1.781   6.917  10.186
   61SAPC  H15A 4718   1.810   6.837  10.251
   61SAPC  H15B 4719   1.680   6.947  10.208
   61SAPC  H15C 4720   1.778   6.875  10.084
   61SAPC   C11 4721   2.022   6.859  10.056
   61SAPC  H11A 4722   1.981   6.766  10.103
   61SAPC  H11B 4723   2.130   6.832  10.030
   61SAPC     P 4724   1.941   6.823   9.814
   61SAPC   O13 4725   1.997   6.893   9.698
   61SAPC   O14 4726   2.010   6.716   9.877
   61SAPC   O12 4727   1.938   6.906   9.945
   61SAPC   O11 4728   1.809   6.748   9.785
   61SAPC    C1 4729   1.778   6.647   9.884
   61SAPC    HA 4730   1.861   6.580   9.925
   61SAPC    HB 4731   1.740   6.698   9.973
   61SAPC    C2 4732   1.678   6.548   9.824
   61SAPC    HS 4733   1.680   6.453   9.885
   61SAPC   O21 4734   1.698   6.527   9.683
   61SAPC   C21 4735   1.804   6.456   9.673
   61SAPC   O22 4736   1.859   6.408   9.771
   61SAPC   C22 4737   1.834   6.439   9.520
   61SAPC   H2R 4738   1.871   6.340   9.499
   61SAPC   H2S 4739   1.742   6.428   9.468
   61SAPC    C3 4740   1.540   6.606   9.839
   61SAPC    HX 4741   1.523   6.611   9.948
   61SAPC    HY 4742   1.466   6.538   9.793
   61SAPC   O31 4743   1.540   6.738   9.785
   61SAPC   C31 4744   1.519   6.748   9.654
   61SAPC   O32 4745   1.482   6.658   9.580
   61SAPC   C32 4746   1.532   6.895   9.619
   61SAPC   H2X 4747   1.630   6.934   9.652
   61SAPC   H2Y 4748   1.454   6.945   9.681
   61SAPC   C23 4749   1.904   6.558   9.451
   61SAPC   H3R 4750   2.012   6.555   9.477
   61SAPC   H3S 4751   1.860   6.652   9.489
   61SAPC   C24 4752   1.898   6.564   9.298
   61SAPC   H4R 4753   1.941   6.470   9.266
   61SAPC   H4S 4754   1.964   6.647   9.262
   61SAPC   C25 4755   1.763   6.576   9.237
   61SAPC   H5R 4756   1.681   6.542   9.299
   61SAPC   C26 4757   1.729   6.619   9.118
   61SAPC   H6R 4758   1.617   6.610   9.105
   61SAPC   C27 4759   1.826   6.668   9.010
   61SAPC   H7R 4760   1.927   6.623   9.013
   61SAPC   H7S 4761   1.828   6.779   9.002
   61SAPC   C28 4762   1.740   6.586   8.925
   61SAPC   H8R 4763   1.698   6.672   8.858
   61SAPC   C29 4764   1.783   6.482   8.850
   61SAPC   H9R 4765   1.689   6.498   8.782
   61SAPC  C210 4766   1.940   6.399   8.802
   61SAPC  H10R 4767   1.902   6.308   8.850
   61SAPC  H10S 4768   1.998   6.447   8.878
   61SAPC  C211 4769   2.049   6.405   8.620
   61SAPC  H11R 4770   1.997   6.435   8.525
   61SAPC  C212 4771   2.112   6.499   8.517
   61SAPC  H12R 4772   2.131   6.472   8.411
   61SAPC  C213 4773   2.123   6.649   8.502
   61SAPC  H13R 4774   2.229   6.629   8.493
   61SAPC  H13S 4775   2.139   6.705   8.595
   61SAPC  C214 4776   2.051   6.780   8.505
   61SAPC  H14R 4777   1.968   6.808   8.572
   61SAPC  C215 4778   2.104   6.868   8.434
   61SAPC  H15R 4779   2.050   6.960   8.434
   61SAPC  C216 4780   2.224   6.822   8.358
   61SAPC  H16R 4781   2.303   6.754   8.400
   61SAPC  H16S 4782   2.282   6.907   8.339
   61SAPC  C217 4783   2.164   6.766   8.230
   61SAPC  H17R 4784   2.245   6.777   8.162
   61SAPC  H17S 4785   2.081   6.828   8.193
   61SAPC  C218 4786   2.126   6.619   8.228
   61SAPC  H18R 4787   2.029   6.606   8.281
   61SAPC  H18S 4788   2.211   6.563   8.274
   61SAPC  C219 4789   2.110   6.560   8.096
   61SAPC  H19R 4790   2.036   6.608   8.034
   61SAPC  H19S 4791   2.089   6.450   8.095
   61SAPC  C220 4792   2.235   6.594   8.028
   61SAPC  H20R 4793   2.200   6.564   7.936
   61SAPC  H20S 4794   2.320   6.534   8.065
   61SAPC  H20T 4795   2.258   6.696   7.994
   61SAPC   C33 4796   1.499   6.925   9.470
   61SAPC   H3X 4797   1.466   7.031   9.465
   61SAPC   H3Y 4798   1.415   6.862   9.435
   61SAPC   C34 4799   1.617   6.914   9.374
   61SAPC   H4X 4800   1.643   6.807   9.354
   61SAPC   H4Y 4801   1.704   6.964   9.422
   61SAPC   C35 4802   1.586   6.981   9.238
   61SAPC   H5X 4803   1.677   6.977   9.176
   61SAPC   H5Y 4804   1.565   7.088   9.260
   61SAPC   C36 4805   1.468   6.919   9.159
   61SAPC   H6X 4806   1.374   6.922   9.219
   61SAPC   H6Y 4807   1.487   6.812   9.138
   61SAPC   C37 4808   1.443   6.987   9.024
   61SAPC   H7X 4809   1.424   7.096   9.040
   61SAPC   H7Y 4810   1.347   6.949   8.980
   61SAPC   C38 4811   1.553   6.954   8.919
   61SAPC   H8X 4812   1.567   6.846   8.906
   61SAPC   H8Y 4813   1.649   6.999   8.953
   61SAPC   C39 4814   1.514   7.000   8.778
   61SAPC   H9X 4815   1.470   7.090   8.823
   61SAPC   H9Y 4816   1.417   6.968   8.735
   61SAPC  C310 4817   1.623   7.013   8.662
   61SAPC  H10X 4818   1.723   7.057   8.677
   61SAPC  H10Y 4819   1.592   7.079   8.577
   61SAPC  C311 4820   1.652   6.887   8.596
   61SAPC  H11X 4821   1.562   6.824   8.616
   61SAPC  H11Y 4822   1.743   6.848   8.647
   61SAPC  C312 4823   1.670   6.912   8.448
   61SAPC  H12X 4824   1.761   6.974   8.428
   61SAPC  H12Y 4825   1.582   6.965   8.404
   61SAPC  C313 4826   1.689   6.779   8.385
   61SAPC  H13X 4827   1.607   6.709   8.415
   61SAPC  H13Y 4828   1.784   6.734   8.423
   61SAPC  C314 4829   1.707   6.787   8.235
   61SAPC  H14X 4830   1.806   6.826   8.208
   61SAPC  H14Y 4831   1.626   6.845   8.183
   61SAPC  C315 4832   1.708   6.643   8.194
   61SAPC  H15X 4833   1.599   6.627   8.210
   61SAPC  H15Y 4834   1.752   6.571   8.264
   61SAPC  C316 4835   1.778   6.602   8.059
   61SAPC  H16X 4836   1.870   6.650   8.028
   61SAPC  H16Y 4837   1.736   6.694   8.000
   61SAPC  C317 4838   1.759   6.424   8.025
   61SAPC  H17X 4839   1.814   6.404   8.113
   61SAPC  H17Y 4840   1.825   6.423   7.945
   61SAPC  C318 4841   1.620   6.298   7.993
   61SAPC  H18X 4842   1.526   6.320   7.922
   61SAPC  H18Y 4843   1.523   6.300   8.054
   61SAPC  H18Z 4844   1.641   6.222   7.926
   62SAPC     N 4845   1.200   6.739  10.180
   62SAPC   C12 4846   1.202   6.649  10.057
   62SAPC  H12A 4847   1.225   6.549  10.092
   62SAPC  H12B 4848   1.281   6.683   9.991
   62SAPC   C13 4849   1.205   6.882  10.136
   62SAPC  H13A 4850   1.121   6.906  10.071
   62SAPC  H13B 4851   1.208   6.953  10.218
   62SAPC  H13C 4852   1.293   6.898  10.074
   62SAPC   C14 4853   1.072   6.706  10.252
   62SAPC  H14A 4854   1.049   6.767  10.338
   62SAPC  H14B 4855   0.992   6.718  10.179
   62SAPC  H14C 4856   1.069   6.602  10.280
   62SAPC   C15 4857   1.322   6.720  10.261
   62SAPC  H15A 4858   1.323   6.788  10.346
   62SAPC  H15B 4859   1.329   6.619  10.300
   62SAPC  H15C 4860   1.411   6.742  10.204
   62SAPC   C11 4861   1.072   6.637   9.970
   62SAPC  H11A 4862   1.000   6.567  10.018
   62SAPC  H11B 4863   1.095   6.590   9.872
   62SAPC     P 4864   1.026   6.849   9.821
   62SAPC   O13 4865   1.171   6.876   9.810
   62SAPC   O14 4866   0.959   6.788   9.705
   62SAPC   O12 4867   1.009   6.762   9.952
   62SAPC   O11 4868   0.951   6.981   9.859
   62SAPC    C1 4869   0.836   6.982   9.942
   62SAPC    HA 4870   0.800   6.881   9.974
   62SAPC    HB 4871   0.863   7.039  10.034
   62SAPC    C2 4872   0.720   7.057   9.872
   62SAPC    HS 4873   0.629   7.043   9.934
   62SAPC   O21 4874   0.693   7.016   9.737
   62SAPC   C21 4875   0.668   6.889   9.716
   62SAPC   O22 4876   0.659   6.799   9.796
   62SAPC   C22 4877   0.658   6.862   9.563
   62SAPC   H2R 4878   0.752   6.889   9.518
   62SAPC   H2S 4879   0.650   6.750   9.560
   62SAPC    C3 4880   0.752   7.209   9.874
   62SAPC    HX 4881   0.765   7.234   9.981
   62SAPC    HY 4882   0.661   7.262   9.837
   62SAPC   O31 4883   0.875   7.245   9.807
   62SAPC   C31 4884   0.866   7.313   9.694
   62SAPC   O32 4885   0.764   7.368   9.653
   62SAPC   C32 4886   1.005   7.330   9.632
   62SAPC   H2X 4887   1.086   7.284   9.693
   62SAPC   H2Y 4888   1.025   7.439   9.631
   62SAPC   C23 4889   0.547   6.931   9.476
   62SAPC   H3R 4890   0.446   6.929   9.511
   62SAPC   H3S 4891   0.534   6.877   9.381
   62SAPC   C24 4892   0.527   7.079   9.479
   62SAPC   H4R 4893   0.523   7.117   9.583
   62SAPC   H4S 4894   0.428   7.100   9.431
   62SAPC   C25 4895   0.650   7.126   9.415
   62SAPC   H5R 4896   0.743   7.092   9.453
   62SAPC   C26 4897   0.663   7.191   9.307
   62SAPC   H6R 4898   0.752   7.230   9.263
   62SAPC   C27 4899   0.555   7.228   9.231
   62SAPC   H7R 4900   0.526   7.325   9.272
   62SAPC   H7S 4901   0.484   7.139   9.236
   62SAPC   C28 4902   0.599   7.280   9.110
   62SAPC   H8R 4903   0.514   7.358   9.086
   62SAPC   C29 4904   0.618   7.171   9.033
   62SAPC   H9R 4905   0.554   7.195   8.979
   62SAPC  C210 4906   0.615   7.015   9.018
   62SAPC  H10R 4907   0.559   6.966   9.101
   62SAPC  H10S 4908   0.715   6.995   9.000
   62SAPC  C211 4909   0.560   6.951   8.887
   62SAPC  H11R 4910   0.464   6.932   8.870
   62SAPC  C212 4911   0.590   6.902   8.768
   62SAPC  H12R 4912   0.505   6.878   8.697
   62SAPC  C213 4913   0.697   6.900   8.679
   62SAPC  H13R 4914   0.679   6.815   8.610
   62SAPC  H13S 4915   0.774   6.897   8.754
   62SAPC  C214 4916   0.702   7.011   8.594
   62SAPC  H14R 4917   0.745   7.090   8.652
   62SAPC  C215 4918   0.622   7.038   8.492
   62SAPC  H15R 4919   0.607   7.128   8.435
   62SAPC  C216 4920   0.517   6.992   8.419
   62SAPC  H16R 4921   0.442   7.063   8.376
   62SAPC  H16S 4922   0.457   6.942   8.496
   62SAPC  C217 4923   0.648   6.953   8.340
   62SAPC  H17R 4924   0.588   6.892   8.309
   62SAPC  H17S 4925   0.703   6.858   8.362
   62SAPC  C218 4926   0.666   7.000   8.196
   62SAPC  H18R 4927   0.683   7.091   8.251
   62SAPC  H18S 4928   0.598   7.039   8.121
   62SAPC  C219 4929   0.750   6.922   8.098
   62SAPC  H19R 4930   0.827   6.871   8.157
   62SAPC  H19S 4931   0.804   6.993   8.032
   62SAPC  C220 4932   0.663   6.836   8.001
   62SAPC  H20R 4933   0.583   6.884   7.947
   62SAPC  H20S 4934   0.619   6.746   8.043
   62SAPC  H20T 4935   0.717   6.788   7.923
   62SAPC   C33 4936   1.012   7.272   9.489
   62SAPC   H3X 4937   1.107   7.309   9.444
   62SAPC   H3Y 4938   0.927   7.311   9.430
   62SAPC   C34 4939   1.013   7.119   9.485
   62SAPC   H4X 4940   0.919   7.079   9.529
   62SAPC   H4Y 4941   1.094   7.075   9.549
   62SAPC   C35 4942   1.025   7.063   9.343
   62SAPC   H5X 4943   1.124   7.086   9.297
   62SAPC   H5Y 4944   0.948   7.113   9.280
   62SAPC   C36 4945   0.990   6.914   9.344
   62SAPC   H6X 4946   0.885   6.911   9.377
   62SAPC   H6Y 4947   1.049   6.858   9.420
   62SAPC   C37 4948   0.998   6.855   9.203
   62SAPC   H7X 4949   1.100   6.874   9.164
   62SAPC   H7Y 4950   0.926   6.912   9.139
   62SAPC   C38 4951   0.958   6.708   9.187
   62SAPC   H8X 4952   0.849   6.696   9.202
   62SAPC   H8Y 4953   1.010   6.647   9.264
   62SAPC   C39 4954   0.997   6.649   9.051
   62SAPC   H9X 4955   0.952   6.547   9.047
   62SAPC   H9Y 4956   1.108   6.639   9.047
   62SAPC  C310 4957   0.950   6.720   8.922
   62SAPC  H10X 4958   0.973   6.828   8.920
   62SAPC  H10Y 4959   0.839   6.711   8.915
   62SAPC  C311 4960   1.021   6.651   8.804
   62SAPC  H11X 4961   1.005   6.541   8.817
   62SAPC  H11Y 4962   1.131   6.663   8.809
   62SAPC  C312 4963   0.972   6.695   8.665
   62SAPC  H12X 4964   0.861   6.685   8.663
   62SAPC  H12Y 4965   1.016   6.626   8.590
   62SAPC  C313 4966   0.999   6.836   8.618
   62SAPC  H13X 4967   0.961   6.902   8.698
   62SAPC  H13Y 4968   0.938   6.851   8.526
   62SAPC  C314 4969   1.143   6.871   8.580
   62SAPC  H14X 4970   1.184   6.808   8.498
   62SAPC  H14Y 4971   1.206   6.852   8.669
   62SAPC  C315 4972   1.151   7.018   8.537
   62SAPC  H15X 4973   1.252   7.054   8.567
   62SAPC  H15Y 4974   1.074   7.079   8.590
   62SAPC  C316 4975   1.140   7.046   8.388
   62SAPC  H16X 4976   1.166   6.961   8.321
   62SAPC  H16Y 4977   1.209   7.131   8.364
   62SAPC  C317 4978   1.008   7.101   8.344
   62SAPC  H17X 4979   0.983   7.191   8.404
   62SAPC  H17Y 4980   0.922   7.031   8.353
   62SAPC  C318 4981   1.029   7.137   8.199
   62SAPC  H18X 4982   0.934   7.099   8.172
   62SAPC  H18Y 4983   1.068   7.071   8.121
   62SAPC  H18Z 4984   1.048   7.245   8.179
   63SAPC     N 4985   3.719   4.322   5.948
   63SAPC   C12 4986   3.831   4.230   5.921
   63SAPC  H12A 4987   3.887   4.275   5.840
   63SAPC  H12B 4988   3.789   4.134   5.892
   63SAPC   C13 4989   3.768   4.453   5.996
   63SAPC  H13A 4990   3.803   4.454   6.099
   63SAPC  H13B 4991   3.838   4.497   5.925
   63SAPC  H13C 4992   3.688   4.519   6.012
   63SAPC   C14 4993   3.632   4.332   5.830
   63SAPC  H14A 4994   3.679   4.360   5.738
   63SAPC  H14B 4995   3.574   4.240   5.818
   63SAPC  H14C 4996   3.550   4.399   5.850
   63SAPC   C15 4997   3.632   4.263   6.044
   63SAPC  H15A 4998   3.554   4.337   6.067
   63SAPC  H15B 4999   3.578   4.173   6.018
   63SAPC  H15C 5000   3.686   4.248   6.138
   63SAPC   C11 5001   3.928   4.201   6.037
   63SAPC  H11A 5002   3.999   4.125   5.997
   63SAPC  H11B 5003   3.871   4.154   6.120
   63SAPC     P 5004   4.136   4.363   6.033
   63SAPC   O13 5005   4.238   4.270   6.085
   63SAPC   O14 5006   4.118   4.375   5.886
   63SAPC   O12 5007   3.994   4.318   6.085
   63SAPC   O11 5008   4.146   4.506   6.101
   63SAPC    C1 5009   4.032   4.559   6.168
   63SAPC    HA 5010   3.957   4.591   6.092
   63SAPC    HB 5011   3.985   4.489   6.241
   63SAPC    C2 5012   4.076   4.674   6.256
   63SAPC    HS 5013   4.135   4.739   6.185
   63SAPC   O21 5014   4.158   4.623   6.360
   63SAPC   C21 5015   4.258   4.698   6.400
   63SAPC   O22 5016   4.299   4.800   6.351
   63SAPC   C22 5017   4.319   4.639   6.518
   63SAPC   H2R 5018   4.248   4.626   6.601
   63SAPC   H2S 5019   4.353   4.541   6.476
   63SAPC    C3 5020   3.954   4.742   6.324
   63SAPC    HX 5021   3.889   4.789   6.247
   63SAPC    HY 5022   3.982   4.826   6.383
   63SAPC   O31 5023   3.885   4.658   6.415
   63SAPC   C31 5024   3.925   4.667   6.543
   63SAPC   O32 5025   3.993   4.752   6.596
   63SAPC   C32 5026   3.883   4.550   6.620
   63SAPC   H2X 5027   3.891   4.463   6.552
   63SAPC   H2Y 5028   3.778   4.571   6.649
   63SAPC   C23 5029   4.436   4.731   6.557
   63SAPC   H3R 5030   4.393   4.821   6.597
   63SAPC   H3S 5031   4.499   4.765   6.469
   63SAPC   C24 5032   4.517   4.671   6.667
   63SAPC   H4R 5033   4.458   4.631   6.751
   63SAPC   H4S 5034   4.603   4.732   6.688
   63SAPC   C25 5035   4.566   4.572   6.579
   63SAPC   H5R 5036   4.651   4.620   6.532
   63SAPC   C26 5037   4.547   4.444   6.586
   63SAPC   H6R 5038   4.623   4.390   6.525
   63SAPC   C27 5039   4.469   4.374   6.700
   63SAPC   H7R 5040   4.500   4.264   6.693
   63SAPC   H7S 5041   4.367   4.385   6.677
   63SAPC   C28 5042   4.467   4.417   6.849
   63SAPC   H8R 5043   4.558   4.480   6.875
   63SAPC   C29 5044   4.414   4.365   6.963
   63SAPC   H9R 5045   4.479   4.359   7.056
   63SAPC  C210 5046   4.320   4.251   6.961
   63SAPC  H10R 5047   4.292   4.228   6.856
   63SAPC  H10S 5048   4.242   4.319   6.998
   63SAPC  C211 5049   4.310   4.126   7.046
   63SAPC  H11R 5050   4.328   4.031   6.994
   63SAPC  C212 5051   4.286   4.123   7.178
   63SAPC  H12R 5052   4.267   4.026   7.229
   63SAPC  C213 5053   4.267   4.244   7.265
   63SAPC  H13R 5054   4.356   4.305   7.264
   63SAPC  H13S 5055   4.261   4.211   7.372
   63SAPC  C214 5056   4.157   4.340   7.238
   63SAPC  H14R 5057   4.162   4.438   7.190
   63SAPC  C215 5058   4.042   4.303   7.270
   63SAPC  H15R 5059   3.972   4.388   7.278
   63SAPC  C216 5060   4.036   4.166   7.333
   63SAPC  H16R 5061   4.113   4.103   7.379
   63SAPC  H16S 5062   3.989   4.086   7.278
   63SAPC  C217 5063   3.989   4.190   7.459
   63SAPC  H17R 5064   3.921   4.101   7.469
   63SAPC  H17S 5065   3.892   4.229   7.438
   63SAPC  C218 5066   4.087   4.251   7.588
   63SAPC  H18R 5067   4.143   4.325   7.531
   63SAPC  H18S 5068   4.136   4.156   7.617
   63SAPC  C219 5069   4.054   4.335   7.734
   63SAPC  H19R 5070   3.987   4.289   7.800
   63SAPC  H19S 5071   3.978   4.410   7.754
   63SAPC  C220 5072   4.122   4.344   7.864
   63SAPC  H20R 5073   4.184   4.421   7.820
   63SAPC  H20S 5074   4.156   4.240   7.886
   63SAPC  H20T 5075   4.051   4.384   7.945
   63SAPC   C33 5076   3.982   4.537   6.737
   63SAPC   H3X 5077   3.976   4.629   6.801
   63SAPC   H3Y 5078   4.087   4.525   6.704
   63SAPC   C34 5079   3.963   4.414   6.819
   63SAPC   H4X 5080   4.039   4.403   6.899
   63SAPC   H4Y 5081   3.944   4.318   6.764
   63SAPC   C35 5082   3.845   4.439   6.897
   63SAPC   H5X 5083   3.834   4.359   6.969
   63SAPC   H5Y 5084   3.761   4.425   6.826
   63SAPC   C36 5085   3.845   4.560   6.992
   63SAPC   H6X 5086   3.941   4.609   7.001
   63SAPC   H6Y 5087   3.842   4.516   7.093
   63SAPC   C37 5088   3.747   4.669   6.949
   63SAPC   H7X 5089   3.643   4.667   6.988
   63SAPC   H7Y 5090   3.745   4.662   6.839
   63SAPC   C38 5091   3.743   4.808   7.002
   63SAPC   H8X 5092   3.653   4.857   6.953
   63SAPC   H8Y 5093   3.838   4.845   6.965
   63SAPC   C39 5094   3.718   4.820   7.151
   63SAPC   H9X 5095   3.633   4.758   7.179
   63SAPC   H9Y 5096   3.675   4.919   7.173
   63SAPC  C310 5097   3.849   4.800   7.224
   63SAPC  H10X 5098   3.916   4.877   7.178
   63SAPC  H10Y 5099   3.893   4.701   7.199
   63SAPC  C311 5100   3.845   4.827   7.375
   63SAPC  H11X 5101   3.800   4.742   7.430
   63SAPC  H11Y 5102   3.778   4.914   7.392
   63SAPC  C312 5103   3.984   4.865   7.427
   63SAPC  H12X 5104   3.978   4.916   7.526
   63SAPC  H12Y 5105   4.029   4.939   7.358
   63SAPC  C313 5106   4.078   4.746   7.438
   63SAPC  H13X 5107   4.177   4.787   7.470
   63SAPC  H13Y 5108   4.091   4.698   7.338
   63SAPC  C314 5109   4.033   4.634   7.533
   63SAPC  H14X 5110   4.113   4.555   7.529
   63SAPC  H14Y 5111   3.940   4.590   7.495
   63SAPC  C315 5112   4.012   4.672   7.678
   63SAPC  H15X 5113   3.960   4.601   7.744
   63SAPC  H15Y 5114   3.970   4.774   7.697
   63SAPC  C316 5115   4.145   4.656   7.736
   63SAPC  H16X 5116   4.196   4.727   7.667
   63SAPC  H16Y 5117   4.205   4.568   7.707
   63SAPC  C317 5118   4.138   4.677   7.889
   63SAPC  H17X 5119   4.241   4.642   7.917
   63SAPC  H17Y 5120   4.133   4.595   7.962
   63SAPC  C318 5121   4.090   4.829   7.930
   63SAPC  H18X 5122   4.120   4.918   7.873
   63SAPC  H18Y 5123   4.118   4.865   8.034
   63SAPC  H18Z 5124   3.984   4.833   7.920
   64SAPC     N 5125   3.343   6.084   5.852
   64SAPC   C12 5126   3.434   6.200   5.890
   64SAPC  H12A 5127   3.383   6.294   5.866
   64SAPC  H12B 5128   3.524   6.196   5.831
   64SAPC   C13 5129   3.314   6.081   5.707
   64SAPC  H13A 5130   3.259   5.991   5.684
   64SAPC  H13B 5131   3.251   6.165   5.687
   64SAPC  H13C 5132   3.403   6.088   5.645
   64SAPC   C14 5133   3.402   5.952   5.888
   64SAPC  H14A 5134   3.496   5.935   5.835
   64SAPC  H14B 5135   3.424   5.948   5.993
   64SAPC  H14C 5136   3.333   5.872   5.862
   64SAPC   C15 5137   3.210   6.100   5.917
   64SAPC  H15A 5138   3.178   6.203   5.904
   64SAPC  H15B 5139   3.140   6.031   5.875
   64SAPC  H15C 5140   3.217   6.088   6.025
   64SAPC   C11 5141   3.469   6.217   6.040
   64SAPC  H11A 5142   3.543   6.301   6.047
   64SAPC  H11B 5143   3.518   6.127   6.082
   64SAPC     P 5144   3.301   6.391   6.139
   64SAPC   O13 5145   3.278   6.448   6.005
   64SAPC   O14 5146   3.198   6.398   6.243
   64SAPC   O12 5147   3.351   6.241   6.118
   64SAPC   O11 5148   3.433   6.452   6.199
   64SAPC    C1 5149   3.477   6.574   6.145
   64SAPC    HA 5150   3.530   6.561   6.047
   64SAPC    HB 5151   3.395   6.648   6.132
   64SAPC    C2 5152   3.575   6.638   6.239
   64SAPC    HS 5153   3.629   6.691   6.157
   64SAPC   O21 5154   3.654   6.557   6.322
   64SAPC   C21 5155   3.734   6.481   6.261
   64SAPC   O22 5156   3.762   6.470   6.143
   64SAPC   C22 5157   3.779   6.394   6.363
   64SAPC   H2R 5158   3.829   6.439   6.452
   64SAPC   H2S 5159   3.679   6.352   6.397
   64SAPC    C3 5160   3.521   6.737   6.336
   64SAPC    HX 5161   3.502   6.796   6.246
   64SAPC    HY 5162   3.590   6.796   6.402
   64SAPC   O31 5163   3.404   6.686   6.401
   64SAPC   C31 5164   3.410   6.676   6.534
   64SAPC   O32 5165   3.486   6.740   6.605
   64SAPC   C32 5166   3.299   6.576   6.583
   64SAPC   H2X 5167   3.284   6.491   6.517
   64SAPC   H2Y 5168   3.205   6.609   6.544
   64SAPC   C23 5169   3.882   6.293   6.310
   64SAPC   H3R 5170   3.978   6.334   6.276
   64SAPC   H3S 5171   3.842   6.225   6.228
   64SAPC   C24 5172   3.932   6.224   6.431
   64SAPC   H4R 5173   3.978   6.280   6.512
   64SAPC   H4S 5174   4.008   6.158   6.401
   64SAPC   C25 5175   3.799   6.176   6.461
   64SAPC   H5R 5176   3.758   6.108   6.385
   64SAPC   C26 5177   3.743   6.181   6.576
   64SAPC   H6R 5178   3.647   6.126   6.580
   64SAPC   C27 5179   3.812   6.234   6.697
   64SAPC   H7R 5180   3.924   6.243   6.701
   64SAPC   H7S 5181   3.796   6.176   6.785
   64SAPC   C28 5182   3.732   6.342   6.737
   64SAPC   H8R 5183   3.788   6.426   6.702
   64SAPC   C29 5184   3.607   6.343   6.787
   64SAPC   H9R 5185   3.571   6.443   6.793
   64SAPC  C210 5186   3.499   6.242   6.825
   64SAPC  H10R 5187   3.478   6.165   6.745
   64SAPC  H10S 5188   3.410   6.291   6.858
   64SAPC  C211 5189   3.521   6.167   6.945
   64SAPC  H11R 5190   3.576   6.102   6.885
   64SAPC  C212 5191   3.487   6.148   7.074
   64SAPC  H12R 5192   3.549   6.101   7.153
   64SAPC  C213 5193   3.387   6.225   7.139
   64SAPC  H13R 5194   3.332   6.272   7.056
   64SAPC  H13S 5195   3.441   6.298   7.202
   64SAPC  C214 5196   3.301   6.125   7.207
   64SAPC  H14R 5197   3.206   6.115   7.154
   64SAPC  C215 5198   3.323   6.048   7.315
   64SAPC  H15R 5199   3.240   5.986   7.347
   64SAPC  C216 5200   3.445   6.042   7.404
   64SAPC  H16R 5201   3.537   6.033   7.343
   64SAPC  H16S 5202   3.442   5.949   7.464
   64SAPC  C217 5203   3.455   6.167   7.494
   64SAPC  H17R 5204   3.471   6.256   7.429
   64SAPC  H17S 5205   3.542   6.164   7.559
   64SAPC  C218 5206   3.334   6.183   7.587
   64SAPC  H18R 5207   3.318   6.090   7.645
   64SAPC  H18S 5208   3.245   6.205   7.524
   64SAPC  C219 5209   3.344   6.296   7.688
   64SAPC  H19R 5210   3.247   6.310   7.742
   64SAPC  H19S 5211   3.364   6.391   7.633
   64SAPC  C220 5212   3.446   6.283   7.797
   64SAPC  H20R 5213   3.552   6.271   7.763
   64SAPC  H20S 5214   3.425   6.211   7.879
   64SAPC  H20T 5215   3.433   6.382   7.844
   64SAPC   C33 5216   3.255   6.566   6.733
   64SAPC   H3X 5217   3.267   6.657   6.797
   64SAPC   H3Y 5218   3.334   6.506   6.777
   64SAPC   C34 5219   3.106   6.516   6.745
   64SAPC   H4X 5220   3.106   6.410   6.727
   64SAPC   H4Y 5221   3.031   6.566   6.676
   64SAPC   C35 5222   3.044   6.530   6.882
   64SAPC   H5X 5223   2.936   6.533   6.904
   64SAPC   H5Y 5224   3.046   6.631   6.857
   64SAPC   C36 5225   3.139   6.474   6.987
   64SAPC   H6X 5226   3.247   6.493   6.968
   64SAPC   H6Y 5227   3.117   6.368   6.969
   64SAPC   C37 5228   3.117   6.505   7.133
   64SAPC   H7X 5229   3.140   6.412   7.188
   64SAPC   H7Y 5230   3.013   6.541   7.153
   64SAPC   C38 5231   3.217   6.598   7.200
   64SAPC   H8X 5232   3.175   6.640   7.293
   64SAPC   H8Y 5233   3.246   6.677   7.132
   64SAPC   C39 5234   3.357   6.572   7.224
   64SAPC   H9X 5235   3.416   6.584   7.128
   64SAPC   H9Y 5236   3.366   6.475   7.272
   64SAPC  C310 5237   3.400   6.680   7.317
   64SAPC  H10X 5238   3.349   6.697   7.414
   64SAPC  H10Y 5239   3.369   6.770   7.261
   64SAPC  C311 5240   3.548   6.667   7.329
   64SAPC  H11X 5241   3.576   6.747   7.392
   64SAPC  H11Y 5242   3.593   6.681   7.230
   64SAPC  C312 5243   3.617   6.543   7.375
   64SAPC  H12X 5244   3.727   6.562   7.366
   64SAPC  H12Y 5245   3.588   6.464   7.303
   64SAPC  C313 5246   3.569   6.514   7.515
   64SAPC  H13X 5247   3.594   6.410   7.542
   64SAPC  H13Y 5248   3.459   6.525   7.507
   64SAPC  C314 5249   3.623   6.609   7.621
   64SAPC  H14X 5250   3.680   6.692   7.576
   64SAPC  H14Y 5251   3.702   6.562   7.683
   64SAPC  C315 5252   3.519   6.663   7.715
   64SAPC  H15X 5253   3.447   6.586   7.752
   64SAPC  H15Y 5254   3.460   6.746   7.673
   64SAPC  C316 5255   3.593   6.720   7.829
   64SAPC  H16X 5256   3.693   6.761   7.816
   64SAPC  H16Y 5257   3.603   6.646   7.909
   64SAPC  C317 5258   3.510   6.817   7.887
   64SAPC  H17X 5259   3.424   6.767   7.941
   64SAPC  H17Y 5260   3.506   6.927   7.856
   64SAPC  C318 5261   3.552   6.819   8.009
   64SAPC  H18X 5262   3.662   6.841   8.014
   64SAPC  H18Y 5263   3.527   6.741   8.087
   64SAPC  H18Z 5264   3.481   6.907   8.038
   65SAPC     N 5265   4.726   6.304   5.777
   65SAPC   C12 5266   4.625   6.220   5.853
   65SAPC  H12A 5267   4.626   6.119   5.814
   65SAPC  H12B 5268   4.524   6.255   5.832
   65SAPC   C13 5269   4.865   6.272   5.823
   65SAPC  H13A 5270   4.896   6.170   5.804
   65SAPC  H13B 5271   4.934   6.338   5.774
   65SAPC  H13C 5272   4.868   6.291   5.930
   65SAPC   C14 5273   4.708   6.278   5.632
   65SAPC  H14A 5274   4.602   6.276   5.607
   65SAPC  H14B 5275   4.753   6.358   5.574
   65SAPC  H14C 5276   4.752   6.184   5.605
   65SAPC   C15 5277   4.705   6.449   5.804
   65SAPC  H15A 5278   4.779   6.507   5.751
   65SAPC  H15B 5279   4.606   6.486   5.776
   65SAPC  H15C 5280   4.715   6.466   5.911
   65SAPC   C11 5281   4.637   6.210   6.005
   65SAPC  H11A 5282   4.731   6.160   6.039
   65SAPC  H11B 5283   4.550   6.146   6.033
   65SAPC     P 5284   4.618   6.329   6.227
   65SAPC   O13 5285   4.506   6.415   6.269
   65SAPC   O14 5286   4.613   6.192   6.278
   65SAPC   O12 5287   4.624   6.336   6.066
   65SAPC   O11 5288   4.761   6.389   6.255
   65SAPC    C1 5289   4.855   6.457   6.170
   65SAPC    HA 5290   4.887   6.387   6.093
   65SAPC    HB 5291   4.816   6.531   6.100
   65SAPC    C2 5292   4.970   6.517   6.255
   65SAPC    HS 5293   5.049   6.551   6.184
   65SAPC   O21 5294   5.009   6.411   6.331
   65SAPC   C21 5295   5.128   6.405   6.362
   65SAPC   O22 5296   5.220   6.481   6.334
   65SAPC   C22 5297   5.134   6.267   6.407
   65SAPC   H2R 5298   5.122   6.210   6.313
   65SAPC   H2S 5299   5.236   6.263   6.449
   65SAPC    C3 5300   4.952   6.629   6.357
   65SAPC    HX 5301   4.934   6.720   6.292
   65SAPC    HY 5302   5.044   6.657   6.411
   65SAPC   O31 5303   4.845   6.585   6.450
   65SAPC   C31 5304   4.842   6.632   6.575
   65SAPC   O32 5305   4.935   6.693   6.625
   65SAPC   C32 5306   4.709   6.603   6.652
   65SAPC   H2X 5307   4.697   6.682   6.730
   65SAPC   H2Y 5308   4.727   6.509   6.707
   65SAPC   C23 5309   5.019   6.221   6.501
   65SAPC   H3R 5310   5.007   6.112   6.482
   65SAPC   H3S 5311   4.920   6.253   6.468
   65SAPC   C24 5312   5.045   6.256   6.649
   65SAPC   H4R 5313   5.053   6.364   6.662
   65SAPC   H4S 5314   5.144   6.229   6.684
   65SAPC   C25 5315   4.954   6.187   6.744
   65SAPC   H5R 5316   4.906   6.095   6.705
   65SAPC   C26 5317   4.934   6.224   6.871
   65SAPC   H6R 5318   4.867   6.161   6.931
   65SAPC   C27 5319   4.997   6.339   6.945
   65SAPC   H7R 5320   4.955   6.437   6.914
   65SAPC   H7S 5321   5.106   6.346   6.921
   65SAPC   C28 5322   4.967   6.318   7.091
   65SAPC   H8R 5323   4.864   6.307   7.126
   65SAPC   C29 5324   5.060   6.326   7.181
   65SAPC   H9R 5325   5.042   6.302   7.287
   65SAPC  C210 5326   5.198   6.356   7.144
   65SAPC  H10R 5327   5.236   6.289   7.067
   65SAPC  H10S 5328   5.242   6.325   7.238
   65SAPC  C211 5329   5.249   6.490   7.104
   65SAPC  H11R 5330   5.325   6.483   7.025
   65SAPC  C212 5331   5.243   6.598   7.181
   65SAPC  H12R 5332   5.277   6.690   7.140
   65SAPC  C213 5333   5.185   6.613   7.316
   65SAPC  H13R 5334   5.082   6.641   7.301
   65SAPC  H13S 5335   5.200   6.709   7.363
   65SAPC  C214 5336   5.209   6.486   7.389
   65SAPC  H14R 5337   5.308   6.488   7.438
   65SAPC  C215 5338   5.114   6.437   7.464
   65SAPC  H15R 5339   5.150   6.365   7.545
   65SAPC  C216 5340   4.988   6.530   7.480
   65SAPC  H16R 5341   4.941   6.459   7.551
   65SAPC  H16S 5342   4.903   6.482   7.442
   65SAPC  C217 5343   4.981   6.703   7.540
   65SAPC  H17R 5344   4.880   6.728   7.573
   65SAPC  H17S 5345   5.016   6.762   7.457
   65SAPC  C218 5346   5.043   6.802   7.668
   65SAPC  H18R 5347   5.096   6.889   7.623
   65SAPC  H18S 5348   5.125   6.778   7.734
   65SAPC  C219 5349   4.967   6.858   7.798
   65SAPC  H19R 5350   4.879   6.911   7.762
   65SAPC  H19S 5351   5.039   6.927   7.849
   65SAPC  C220 5352   4.930   6.775   7.922
   65SAPC  H20R 5353   4.868   6.815   7.993
   65SAPC  H20S 5354   5.020   6.732   7.977
   65SAPC  H20T 5355   4.858   6.697   7.894
   65SAPC   C33 5356   4.571   6.591   6.582
   65SAPC   H3X 5357   4.557   6.498   6.523
   65SAPC   H3Y 5358   4.542   6.675   6.523
   65SAPC   C34 5359   4.453   6.628   6.669
   65SAPC   H4X 5360   4.363   6.646   6.605
   65SAPC   H4Y 5361   4.472   6.725   6.721
   65SAPC   C35 5362   4.446   6.510   6.761
   65SAPC   H5X 5363   4.522   6.525   6.841
   65SAPC   H5Y 5364   4.455   6.416   6.704
   65SAPC   C36 5365   4.317   6.503   6.827
   65SAPC   H6X 5366   4.247   6.517   6.740
   65SAPC   H6Y 5367   4.324   6.593   6.893
   65SAPC   C37 5368   4.270   6.380   6.905
   65SAPC   H7X 5369   4.262   6.297   6.832
   65SAPC   H7Y 5370   4.166   6.391   6.943
   65SAPC   C38 5371   4.360   6.345   7.023
   65SAPC   H8X 5372   4.456   6.310   6.980
   65SAPC   H8Y 5373   4.311   6.261   7.077
   65SAPC   C39 5374   4.385   6.457   7.127
   65SAPC   H9X 5375   4.286   6.499   7.153
   65SAPC   H9Y 5376   4.445   6.540   7.084
   65SAPC  C310 5377   4.456   6.411   7.256
   65SAPC  H10X 5378   4.407   6.322   7.302
   65SAPC  H10Y 5379   4.453   6.494   7.330
   65SAPC  C311 5380   4.603   6.372   7.237
   65SAPC  H11X 5381   4.645   6.421   7.146
   65SAPC  H11Y 5382   4.610   6.262   7.223
   65SAPC  C312 5383   4.683   6.402   7.363
   65SAPC  H12X 5384   4.687   6.512   7.382
   65SAPC  H12Y 5385   4.787   6.366   7.349
   65SAPC  C313 5386   4.623   6.337   7.488
   65SAPC  H13X 5387   4.642   6.227   7.486
   65SAPC  H13Y 5388   4.514   6.353   7.498
   65SAPC  C314 5389   4.688   6.403   7.611
   65SAPC  H14X 5390   4.679   6.513   7.609
   65SAPC  H14Y 5391   4.790   6.360   7.608
   65SAPC  C315 5392   4.630   6.357   7.740
   65SAPC  H15X 5393   4.644   6.253   7.702
   65SAPC  H15Y 5394   4.524   6.390   7.748
   65SAPC  C316 5395   4.706   6.379   7.874
   65SAPC  H16X 5396   4.707   6.489   7.889
   65SAPC  H16Y 5397   4.807   6.336   7.861
   65SAPC  C317 5398   4.656   6.322   8.010
   65SAPC  H17X 5399   4.556   6.367   8.026
   65SAPC  H17Y 5400   4.711   6.362   8.097
   65SAPC  C318 5401   4.680   6.171   8.038
   65SAPC  H18X 5402   4.784   6.140   8.029
   65SAPC  H18Y 5403   4.649   6.100   7.962
   65SAPC  H18Z 5404   4.620   6.136   8.126
   66SAPC     N 5405   2.020   5.961   6.071
   66SAPC   C12 5406   2.151   6.038   6.052
   66SAPC  H12A 5407   2.217   5.975   5.994
   66SAPC  H12B 5408   2.194   6.054   6.149
   66SAPC   C13 5409   1.927   6.044   6.155
   66SAPC  H13A 5410   1.981   6.090   6.237
   66SAPC  H13B 5411   1.894   6.128   6.092
   66SAPC  H13C 5412   1.840   5.992   6.191
   66SAPC   C14 5413   1.949   5.932   5.942
   66SAPC  H14A 5414   1.917   6.026   5.897
   66SAPC  H14B 5415   2.012   5.878   5.874
   66SAPC  H14C 5416   1.860   5.872   5.957
   66SAPC   C15 5417   2.050   5.832   6.137
   66SAPC  H15A 5418   2.132   5.782   6.087
   66SAPC  H15B 5419   2.074   5.841   6.242
   66SAPC  H15C 5420   1.963   5.768   6.128
   66SAPC   C11 5421   2.154   6.176   5.981
   66SAPC  H11A 5422   2.142   6.156   5.871
   66SAPC  H11B 5423   2.256   6.219   5.997
   66SAPC     P 5424   1.977   6.356   5.924
   66SAPC   O13 5425   2.067   6.393   5.812
   66SAPC   O14 5426   1.853   6.283   5.891
   66SAPC   O12 5427   2.057   6.268   6.032
   66SAPC   O11 5428   1.942   6.487   6.006
   66SAPC    C1 5429   1.852   6.493   6.117
   66SAPC    HA 5430   1.764   6.554   6.087
   66SAPC    HB 5431   1.814   6.392   6.144
   66SAPC    C2 5432   1.918   6.563   6.239
   66SAPC    HS 5433   1.942   6.670   6.221
   66SAPC   O21 5434   2.041   6.495   6.255
   66SAPC   C21 5435   2.103   6.487   6.364
   66SAPC   O22 5436   2.095   6.549   6.467
   66SAPC   C22 5437   2.200   6.382   6.355
   66SAPC   H2R 5438   2.257   6.409   6.265
   66SAPC   H2S 5439   2.246   6.405   6.449
   66SAPC    C3 5440   1.830   6.560   6.362
   66SAPC    HX 5441   1.729   6.603   6.341
   66SAPC    HY 5442   1.876   6.626   6.441
   66SAPC   O31 5443   1.820   6.419   6.395
   66SAPC   C31 5444   1.760   6.407   6.508
   66SAPC   O32 5445   1.732   6.499   6.581
   66SAPC   C32 5446   1.729   6.263   6.539
   66SAPC   H2X 5447   1.826   6.211   6.540
   66SAPC   H2Y 5448   1.659   6.221   6.463
   66SAPC   C23 5449   2.160   6.237   6.377
   66SAPC   H3R 5450   2.251   6.173   6.363
   66SAPC   H3S 5451   2.085   6.219   6.299
   66SAPC   C24 5452   2.101   6.207   6.516
   66SAPC   H4R 5453   2.057   6.105   6.509
   66SAPC   H4S 5454   2.020   6.279   6.534
   66SAPC   C25 5455   2.203   6.204   6.627
   66SAPC   H5R 5456   2.307   6.195   6.594
   66SAPC   C26 5457   2.178   6.215   6.759
   66SAPC   H6R 5458   2.262   6.197   6.829
   66SAPC   C27 5459   2.043   6.231   6.823
   66SAPC   H7R 5460   1.964   6.195   6.753
   66SAPC   H7S 5461   2.022   6.339   6.843
   66SAPC   C28 5462   2.043   6.150   6.950
   66SAPC   H8R 5463   2.061   6.042   6.934
   66SAPC   C29 5464   2.028   6.195   7.075
   66SAPC   H9R 5465   2.028   6.119   7.155
   66SAPC  C210 5466   2.006   6.338   7.119
   66SAPC  H10R 5467   1.941   6.390   7.045
   66SAPC  H10S 5468   2.100   6.398   7.119
   66SAPC  C211 5469   1.937   6.340   7.253
   66SAPC  H11R 5470   1.867   6.258   7.273
   66SAPC  C212 5471   1.965   6.424   7.354
   66SAPC  H12R 5472   1.916   6.411   7.452
   66SAPC  C213 5473   2.070   6.530   7.347
   66SAPC  H13R 5474   2.078   6.578   7.248
   66SAPC  H13S 5475   2.165   6.471   7.353
   66SAPC  C214 5476   2.043   6.641   7.450
   66SAPC  H14R 5477   1.950   6.693   7.446
   66SAPC  C215 5478   2.107   6.658   7.567
   66SAPC  H15R 5479   2.135   6.759   7.602
   66SAPC  C216 5480   2.210   6.562   7.595
   66SAPC  H16R 5481   2.258   6.588   7.506
   66SAPC  H16S 5482   2.219   6.470   7.537
   66SAPC  C217 5483   2.285   6.551   7.727
   66SAPC  H17R 5484   2.307   6.638   7.791
   66SAPC  H17S 5485   2.392   6.534   7.731
   66SAPC  C218 5486   2.220   6.428   7.770
   66SAPC  H18R 5487   2.199   6.355   7.689
   66SAPC  H18S 5488   2.122   6.469   7.795
   66SAPC  C219 5489   2.298   6.366   7.876
   66SAPC  H19R 5490   2.235   6.334   7.959
   66SAPC  H19S 5491   2.387   6.425   7.918
   66SAPC  C220 5492   2.344   6.248   7.809
   66SAPC  H20R 5493   2.295   6.170   7.754
   66SAPC  H20S 5494   2.416   6.225   7.875
   66SAPC  H20T 5495   2.413   6.275   7.740
   66SAPC   C33 5496   1.666   6.253   6.677
   66SAPC   H3X 5497   1.560   6.262   6.653
   66SAPC   H3Y 5498   1.697   6.331   6.751
   66SAPC   C34 5499   1.664   6.115   6.738
   66SAPC   H4X 5500   1.768   6.083   6.756
   66SAPC   H4Y 5501   1.618   6.047   6.663
   66SAPC   C35 5502   1.589   6.115   6.870
   66SAPC   H5X 5503   1.484   6.152   6.863
   66SAPC   H5Y 5504   1.640   6.180   6.944
   66SAPC   C36 5505   1.583   5.976   6.926
   66SAPC   H6X 5506   1.677   5.918   6.913
   66SAPC   H6Y 5507   1.512   5.922   6.860
   66SAPC   C37 5508   1.551   5.986   7.075
   66SAPC   H7X 5509   1.520   5.889   7.113
   66SAPC   H7Y 5510   1.469   6.058   7.097
   66SAPC   C38 5511   1.669   6.002   7.166
   66SAPC   H8X 5512   1.712   6.104   7.158
   66SAPC   H8Y 5513   1.744   5.928   7.130
   66SAPC   C39 5514   1.624   5.971   7.309
   66SAPC   H9X 5515   1.612   5.861   7.318
   66SAPC   H9Y 5516   1.526   6.018   7.333
   66SAPC  C310 5517   1.728   6.010   7.411
   66SAPC  H10X 5518   1.749   6.118   7.410
   66SAPC  H10Y 5519   1.819   5.947   7.394
   66SAPC  C311 5520   1.690   5.985   7.553
   66SAPC  H11X 5521   1.674   5.876   7.553
   66SAPC  H11Y 5522   1.598   6.037   7.587
   66SAPC  C312 5523   1.811   6.007   7.642
   66SAPC  H12X 5524   1.883   5.929   7.607
   66SAPC  H12Y 5525   1.784   5.989   7.750
   66SAPC  C313 5526   1.881   6.134   7.650
   66SAPC  H13X 5527   1.908   6.167   7.549
   66SAPC  H13Y 5528   1.971   6.114   7.713
   66SAPC  C314 5529   1.785   6.227   7.719
   66SAPC  H14X 5530   1.766   6.174   7.815
   66SAPC  H14Y 5531   1.691   6.231   7.661
   66SAPC  C315 5532   1.847   6.364   7.732
   66SAPC  H15X 5533   1.917   6.378   7.647
   66SAPC  H15Y 5534   1.924   6.356   7.813
   66SAPC  C316 5535   1.749   6.489   7.741
   66SAPC  H16X 5536   1.708   6.494   7.635
   66SAPC  H16Y 5537   1.809   6.576   7.767
   66SAPC  C317 5538   1.607   6.499   7.823
   66SAPC  H17X 5539   1.577   6.405   7.772
   66SAPC  H17Y 5540   1.568   6.586   7.772
   66SAPC  C318 5541   1.533   6.543   7.978
   66SAPC  H18X 5542   1.546   6.514   8.088
   66SAPC  H18Y 5543   1.588   6.621   7.969
   66SAPC  H18Z 5544   1.564   6.483   8.070
   67SAPC     N 5545   6.701   2.093   6.076
   67SAPC   C12 5546   6.758   1.967   6.143
   67SAPC  H12A 5547   6.752   1.981   6.250
   67SAPC  H12B 5548   6.863   1.958   6.119
   67SAPC   C13 5549   6.778   2.208   6.130
   67SAPC  H13A 5550   6.762   2.216   6.237
   67SAPC  H13B 5551   6.886   2.195   6.114
   67SAPC  H13C 5552   6.748   2.300   6.082
   67SAPC   C14 5553   6.721   2.085   5.928
   67SAPC  H14A 5554   6.694   1.987   5.889
   67SAPC  H14B 5555   6.663   2.159   5.874
   67SAPC  H14C 5556   6.826   2.097   5.902
   67SAPC   C15 5557   6.556   2.108   6.110
   67SAPC  H15A 5558   6.513   2.200   6.071
   67SAPC  H15B 5559   6.498   2.024   6.070
   67SAPC  H15C 5560   6.545   2.108   6.217
   67SAPC   C11 5561   6.694   1.832   6.105
   67SAPC  H11A 5562   6.585   1.831   6.127
   67SAPC  H11B 5563   6.742   1.753   6.167
   67SAPC     P 5564   6.708   1.668   5.895
   67SAPC   O13 5565   6.569   1.618   5.898
   67SAPC   O14 5566   6.780   1.682   5.767
   67SAPC   O12 5567   6.717   1.809   5.967
   67SAPC   O11 5568   6.791   1.573   5.988
   67SAPC    C1 5569   6.930   1.549   5.978
   67SAPC    HA 5570   6.956   1.508   5.879
   67SAPC    HB 5571   6.983   1.645   5.990
   67SAPC    C2 5572   6.983   1.456   6.091
   67SAPC    HS 5573   6.963   1.351   6.070
   67SAPC   O21 5574   6.935   1.491   6.222
   67SAPC   C21 5575   6.809   1.493   6.264
   67SAPC   O22 5576   6.704   1.482   6.207
   67SAPC   C22 5577   6.807   1.534   6.410
   67SAPC   H2R 5578   6.915   1.525   6.430
   67SAPC   H2S 5579   6.784   1.641   6.411
   67SAPC    C3 5580   7.138   1.455   6.093
   67SAPC    HX 5581   7.171   1.403   6.001
   67SAPC    HY 5582   7.175   1.392   6.179
   67SAPC   O31 5583   7.188   1.591   6.092
   67SAPC   C31 5584   7.182   1.639   6.213
   67SAPC   O32 5585   7.172   1.570   6.314
   67SAPC   C32 5586   7.198   1.796   6.209
   67SAPC   H2X 5587   7.133   1.841   6.135
   67SAPC   H2Y 5588   7.300   1.819   6.174
   67SAPC   C23 5589   6.706   1.478   6.519
   67SAPC   H3R 5590   6.728   1.463   6.623
   67SAPC   H3S 5591   6.723   1.369   6.524
   67SAPC   C24 5592   6.567   1.555   6.514
   67SAPC   H4R 5593   6.538   1.567   6.408
   67SAPC   H4S 5594   6.578   1.656   6.552
   67SAPC   C25 5595   6.447   1.496   6.577
   67SAPC   H5R 5596   6.408   1.406   6.538
   67SAPC   C26 5597   6.379   1.522   6.681
   67SAPC   H6R 5598   6.327   1.432   6.718
   67SAPC   C27 5599   6.415   1.636   6.770
   67SAPC   H7R 5600   6.406   1.612   6.877
   67SAPC   H7S 5601   6.376   1.724   6.727
   67SAPC   C28 5602   6.538   1.695   6.792
   67SAPC   H8R 5603   6.591   1.601   6.773
   67SAPC   C29 5604   6.588   1.795   6.873
   67SAPC   H9R 5605   6.692   1.794   6.914
   67SAPC  C210 5606   6.513   1.870   6.965
   67SAPC  H10R 5607   6.432   1.801   6.995
   67SAPC  H10S 5608   6.491   1.939   6.884
   67SAPC  C211 5609   6.574   1.941   7.084
   67SAPC  H11R 5610   6.630   2.033   7.059
   67SAPC  C212 5611   6.575   1.897   7.211
   67SAPC  H12R 5612   6.608   1.968   7.289
   67SAPC  C213 5613   6.518   1.767   7.261
   67SAPC  H13R 5614   6.509   1.694   7.178
   67SAPC  H13S 5615   6.414   1.775   7.300
   67SAPC  C214 5616   6.605   1.705   7.366
   67SAPC  H14R 5617   6.670   1.624   7.331
   67SAPC  C215 5618   6.605   1.733   7.497
   67SAPC  H15R 5619   6.674   1.674   7.558
   67SAPC  C216 5620   6.518   1.832   7.572
   67SAPC  H16R 5621   6.433   1.870   7.510
   67SAPC  H16S 5622   6.577   1.920   7.607
   67SAPC  C217 5623   6.453   1.774   7.699
   67SAPC  H17R 5624   6.373   1.703   7.670
   67SAPC  H17S 5625   6.405   1.860   7.751
   67SAPC  C218 5626   6.554   1.708   7.793
   67SAPC  H18R 5627   6.640   1.777   7.808
   67SAPC  H18S 5628   6.591   1.615   7.745
   67SAPC  C219 5629   6.500   1.684   7.935
   67SAPC  H19R 5630   6.470   1.785   7.971
   67SAPC  H19S 5631   6.583   1.649   8.000
   67SAPC  C220 5632   6.380   1.590   7.946
   67SAPC  H20R 5633   6.300   1.623   7.876
   67SAPC  H20S 5634   6.339   1.593   8.049
   67SAPC  H20T 5635   6.408   1.486   7.920
   67SAPC   C33 5636   7.182   1.872   6.342
   67SAPC   H3X 5637   7.228   1.973   6.343
   67SAPC   H3Y 5638   7.244   1.840   6.423
   67SAPC   C34 5639   7.037   1.869   6.380
   67SAPC   H4X 5640   6.987   1.774   6.347
   67SAPC   H4Y 5641   6.989   1.958   6.336
   67SAPC   C35 5642   7.008   1.860   6.524
   67SAPC   H5X 5643   7.067   1.778   6.570
   67SAPC   H5Y 5644   6.897   1.867   6.543
   67SAPC   C36 5645   7.056   1.958   6.614
   67SAPC   H6X 5646   7.009   2.039   6.558
   67SAPC   H6Y 5647   7.164   1.960   6.590
   67SAPC   C37 5648   6.998   1.957   6.761
   67SAPC   H7X 5649   6.893   1.988   6.768
   67SAPC   H7Y 5650   7.029   2.035   6.832
   67SAPC   C38 5651   7.064   1.869   6.861
   67SAPC   H8X 5652   7.172   1.883   6.840
   67SAPC   H8Y 5653   7.047   1.765   6.841
   67SAPC   C39 5654   7.007   1.900   6.999
   67SAPC   H9X 5655   6.899   1.922   6.985
   67SAPC   H9Y 5656   7.058   1.988   7.045
   67SAPC  C310 5657   7.017   1.786   7.095
   67SAPC  H10X 5658   7.121   1.788   7.121
   67SAPC  H10Y 5659   6.998   1.686   7.053
   67SAPC  C311 5660   6.958   1.816   7.231
   67SAPC  H11X 5661   6.850   1.838   7.222
   67SAPC  H11Y 5662   7.010   1.909   7.264
   67SAPC  C312 5663   6.988   1.704   7.330
   67SAPC  H12X 5664   7.093   1.669   7.313
   67SAPC  H12Y 5665   6.920   1.617   7.315
   67SAPC  C313 5666   6.976   1.751   7.474
   67SAPC  H13X 5667   6.878   1.803   7.484
   67SAPC  H13Y 5668   7.056   1.826   7.494
   67SAPC  C314 5669   6.988   1.632   7.571
   67SAPC  H14X 5670   7.096   1.603   7.568
   67SAPC  H14Y 5671   6.930   1.545   7.533
   67SAPC  C315 5672   6.938   1.660   7.714
   67SAPC  H15X 5673   6.834   1.697   7.707
   67SAPC  H15Y 5674   7.003   1.737   7.761
   67SAPC  C316 5675   6.931   1.541   7.809
   67SAPC  H16X 5676   6.871   1.572   7.899
   67SAPC  H16Y 5677   7.033   1.519   7.847
   67SAPC  C317 5678   6.872   1.415   7.741
   67SAPC  H17X 5679   6.936   1.373   7.663
   67SAPC  H17Y 5680   6.763   1.429   7.718
   67SAPC  C318 5681   6.865   1.304   7.831
   67SAPC  H18X 5682   6.961   1.297   7.878
   67SAPC  H18Y 5683   6.843   1.200   7.812
   67SAPC  H18Z 5684   6.781   1.340   7.894
   68SAPC     N 5685   2.508   0.303   5.973
   68SAPC   C12 5686   2.556   0.187   5.903
   68SAPC  H12A 5687   2.603   0.205   5.807
   68SAPC  H12B 5688   2.462   0.142   5.877
   68SAPC   C13 5689   2.486   0.266   6.116
   68SAPC  H13A 5690   2.582   0.236   6.157
   68SAPC  H13B 5691   2.444   0.346   6.172
   68SAPC  H13C 5692   2.421   0.178   6.122
   68SAPC   C14 5693   2.615   0.400   5.952
   68SAPC  H14A 5694   2.591   0.487   6.006
   68SAPC  H14B 5695   2.708   0.355   5.986
   68SAPC  H14C 5696   2.621   0.427   5.846
   68SAPC   C15 5697   2.381   0.361   5.914
   68SAPC  H15A 5698   2.382   0.374   5.806
   68SAPC  H15B 5699   2.292   0.307   5.944
   68SAPC  H15C 5700   2.375   0.463   5.952
   68SAPC   C11 5701   2.640   0.082   5.982
   68SAPC  H11A 5702   2.672   0.028   5.888
   68SAPC  H11B 5703   2.567   0.032   6.053
   68SAPC     P 5704   2.839  -0.018   6.090
   68SAPC   O13 5705   2.745  -0.133   6.101
   68SAPC   O14 5706   2.951  -0.027   5.996
   68SAPC   O12 5707   2.757   0.116   6.053
   68SAPC   O11 5708   2.903   0.018   6.215
   68SAPC    C1 5709   2.826   0.109   6.288
   68SAPC    HA 5710   2.849   0.210   6.250
   68SAPC    HB 5711   2.714   0.090   6.289
   68SAPC    C2 5712   2.877   0.069   6.418
   68SAPC    HS 5713   2.989   0.086   6.412
   68SAPC   O21 5714   2.839  -0.071   6.424
   68SAPC   C21 5715   2.891  -0.122   6.523
   68SAPC   O22 5716   2.954  -0.059   6.609
   68SAPC   C22 5717   2.878  -0.277   6.507
   68SAPC   H2R 5718   2.877  -0.307   6.402
   68SAPC   H2S 5719   2.956  -0.337   6.556
   68SAPC    C3 5720   2.813   0.152   6.528
   68SAPC    HX 5721   2.836   0.257   6.501
   68SAPC    HY 5722   2.863   0.133   6.625
   68SAPC   O31 5723   2.672   0.121   6.531
   68SAPC   C31 5724   2.616   0.194   6.625
   68SAPC   O32 5725   2.674   0.274   6.695
   68SAPC   C32 5726   2.466   0.170   6.636
   68SAPC   H2X 5727   2.415   0.155   6.539
   68SAPC   H2Y 5728   2.422   0.256   6.689
   68SAPC   C23 5729   2.763  -0.327   6.583
   68SAPC   H3R 5730   2.741  -0.431   6.554
   68SAPC   H3S 5731   2.680  -0.260   6.553
   68SAPC   C24 5732   2.798  -0.319   6.730
   68SAPC   H4R 5733   2.880  -0.380   6.764
   68SAPC   H4S 5734   2.738  -0.400   6.779
   68SAPC   C25 5735   2.769  -0.166   6.763
   68SAPC   H5R 5736   2.675  -0.121   6.769
   68SAPC   C26 5737   2.812  -0.068   6.837
   68SAPC   H6R 5738   2.741  -0.016   6.902
   68SAPC   C27 5739   2.915  -0.084   6.919
   68SAPC   H7R 5740   3.008  -0.057   6.871
   68SAPC   H7S 5741   2.897  -0.194   6.927
   68SAPC   C28 5742   2.922  -0.039   7.053
   68SAPC   H8R 5743   2.894  -0.135   7.095
   68SAPC   C29 5744   2.968   0.063   7.123
   68SAPC   H9R 5745   2.982   0.058   7.234
   68SAPC  C210 5746   3.030   0.171   7.048
   68SAPC  H10R 5747   3.074   0.130   6.954
   68SAPC  H10S 5748   3.114   0.207   7.105
   68SAPC  C211 5749   2.929   0.278   7.017
   68SAPC  H11R 5750   2.958   0.334   6.928
   68SAPC  C212 5751   2.821   0.325   7.085
   68SAPC  H12R 5752   2.758   0.396   7.031
   68SAPC  C213 5753   2.762   0.287   7.218
   68SAPC  H13R 5754   2.743   0.379   7.274
   68SAPC  H13S 5755   2.836   0.230   7.281
   68SAPC  C214 5756   2.626   0.222   7.199
   68SAPC  H14R 5757   2.618   0.151   7.115
   68SAPC  C215 5758   2.532   0.213   7.297
   68SAPC  H15R 5759   2.447   0.144   7.281
   68SAPC  C216 5760   2.547   0.265   7.439
   68SAPC  H16R 5761   2.631   0.337   7.449
   68SAPC  H16S 5762   2.561   0.188   7.519
   68SAPC  C217 5763   2.414   0.333   7.470
   68SAPC  H17R 5764   2.335   0.254   7.476
   68SAPC  H17S 5765   2.393   0.401   7.385
   68SAPC  C218 5766   2.420   0.416   7.597
   68SAPC  H18R 5767   2.324   0.469   7.617
   68SAPC  H18S 5768   2.499   0.493   7.584
   68SAPC  C219 5769   2.459   0.333   7.718
   68SAPC  H19R 5770   2.482   0.404   7.799
   68SAPC  H19S 5771   2.555   0.284   7.697
   68SAPC  C220 5772   2.360   0.224   7.757
   68SAPC  H20R 5773   2.266   0.271   7.794
   68SAPC  H20S 5774   2.405   0.165   7.836
   68SAPC  H20T 5775   2.337   0.152   7.677
   68SAPC   C33 5776   2.449   0.053   6.732
   68SAPC   H3X 5777   2.516   0.063   6.820
   68SAPC   H3Y 5778   2.488  -0.030   6.672
   68SAPC   C34 5779   2.304   0.039   6.781
   68SAPC   H4X 5780   2.246  -0.013   6.700
   68SAPC   H4Y 5781   2.261   0.136   6.805
   68SAPC   C35 5782   2.280  -0.032   6.914
   68SAPC   H5X 5783   2.289  -0.129   6.882
   68SAPC   H5Y 5784   2.175  -0.044   6.942
   68SAPC   C36 5785   2.370  -0.018   7.037
   68SAPC   H6X 5786   2.339   0.066   7.094
   68SAPC   H6Y 5787   2.479  -0.029   7.010
   68SAPC   C37 5788   2.328  -0.120   7.141
   68SAPC   H7X 5789   2.304  -0.201   7.077
   68SAPC   H7Y 5790   2.225  -0.160   7.141
   68SAPC   C38 5791   2.409  -0.141   7.274
   68SAPC   H8X 5792   2.397  -0.234   7.334
   68SAPC   H8Y 5793   2.362  -0.073   7.342
   68SAPC   C39 5794   2.558  -0.128   7.296
   68SAPC   H9X 5795   2.588  -0.050   7.222
   68SAPC   H9Y 5796   2.646  -0.148   7.233
   68SAPC  C310 5797   2.604  -0.206   7.443
   68SAPC  H10X 5798   2.574  -0.304   7.466
   68SAPC  H10Y 5799   2.527  -0.141   7.473
   68SAPC  C311 5800   2.743  -0.206   7.534
   68SAPC  H11X 5801   2.817  -0.134   7.522
   68SAPC  H11Y 5802   2.801  -0.286   7.505
   68SAPC  C312 5803   2.814  -0.209   7.653
   68SAPC  H12X 5804   2.928  -0.185   7.656
   68SAPC  H12Y 5805   2.790  -0.307   7.682
   68SAPC  C313 5806   2.754  -0.104   7.702
   68SAPC  H13X 5807   2.793  -0.161   7.790
   68SAPC  H13Y 5808   2.642  -0.099   7.698
   68SAPC  C314 5809   2.821   0.016   7.648
   68SAPC  H14X 5810   2.877   0.068   7.560
   68SAPC  H14Y 5811   2.930  -0.006   7.630
   68SAPC  C315 5812   2.735   0.067   7.740
   68SAPC  H15X 5813   2.641   0.108   7.730
   68SAPC  H15Y 5814   2.775   0.142   7.671
   68SAPC  C316 5815   2.772   0.024   7.883
   68SAPC  H16X 5816   2.789   0.091   7.950
   68SAPC  H16Y 5817   2.862  -0.032   7.896
   68SAPC  C317 5818   2.692  -0.039   7.977
   68SAPC  H17X 5819   2.623  -0.100   7.922
   68SAPC  H17Y 5820   2.631   0.049   8.002
   68SAPC  C318 5821   2.794  -0.089   8.088
   68SAPC  H18X 5822   2.862  -0.024   8.150
   68SAPC  H18Y 5823   2.846  -0.181   8.076
   68SAPC  H18Z 5824   2.751  -0.090   8.183
   69SLPC     N 5825   3.248   4.416   9.648
   69SLPC   C13 5826   3.158   4.305   9.600
   69SLPC  H13A 5827   3.056   4.316   9.635
   69SLPC  H13B 5828   3.159   4.294   9.492
   69SLPC  H13C 5829   3.195   4.208   9.636
   69SLPC   C14 5830   3.249   4.419   9.798
   69SLPC  H14A 5831   3.160   4.466   9.837
   69SLPC  H14B 5832   3.255   4.317   9.838
   69SLPC  H14C 5833   3.337   4.471   9.832
   69SLPC   C15 5834   3.197   4.549   9.603
   69SLPC  H15A 5835   3.266   4.630   9.622
   69SLPC  H15B 5836   3.174   4.545   9.497
   69SLPC  H15C 5837   3.105   4.574   9.656
   69SLPC   C12 5838   3.388   4.387   9.594
   69SLPC  H12A 5839   3.446   4.477   9.590
   69SLPC  H12B 5840   3.375   4.350   9.492
   69SLPC   C11 5841   3.478   4.282   9.665
   69SLPC  H11A 5842   3.530   4.326   9.753
   69SLPC  H11B 5843   3.556   4.251   9.591
   69SLPC     P 5844   3.477   4.043   9.765
   69SLPC   O13 5845   3.554   3.988   9.651
   69SLPC   O14 5846   3.543   4.081   9.891
   69SLPC   O12 5847   3.400   4.170   9.706
   69SLPC   O11 5848   3.353   3.952   9.801
   69SLPC    C1 5849   3.217   3.998   9.802
   69SLPC    HA 5850   3.169   3.956   9.894
   69SLPC    HB 5851   3.207   4.107   9.803
   69SLPC    C2 5852   3.136   3.947   9.679
   69SLPC    HS 5853   3.135   3.842   9.717
   69SLPC   O21 5854   3.196   3.979   9.548
   69SLPC   C21 5855   3.286   3.885   9.516
   69SLPC   O22 5856   3.324   3.806   9.598
   69SLPC   C22 5857   3.340   3.885   9.370
   69SLPC   H2R 5858   3.449   3.886   9.390
   69SLPC   H2S 5859   3.326   3.794   9.307
   69SLPC    C3 5860   2.989   3.987   9.656
   69SLPC    HX 5861   2.995   4.097   9.643
   69SLPC    HY 5862   2.926   3.963   9.743
   69SLPC   O31 5863   2.930   3.927   9.538
   69SLPC   C31 5864   2.932   3.998   9.424
   69SLPC   O32 5865   2.983   4.105   9.405
   69SLPC   C32 5866   2.847   3.931   9.319
   69SLPC   H2X 5867   2.752   3.984   9.320
   69SLPC   H2Y 5868   2.842   3.832   9.362
   69SLPC   C23 5869   3.278   4.004   9.300
   69SLPC   H3R 5870   3.278   4.088   9.373
   69SLPC   H3S 5871   3.172   3.978   9.280
   69SLPC   C24 5872   3.349   4.060   9.177
   69SLPC   H4R 5873   3.326   3.995   9.090
   69SLPC   H4S 5874   3.459   4.060   9.191
   69SLPC   C25 5875   3.311   4.208   9.154
   69SLPC   H5R 5876   3.384   4.251   9.082
   69SLPC   H5S 5877   3.324   4.263   9.250
   69SLPC   C26 5878   3.169   4.234   9.100
   69SLPC   H6R 5879   3.157   4.344   9.096
   69SLPC   H6S 5880   3.094   4.197   9.173
   69SLPC   C27 5881   3.149   4.174   8.958
   69SLPC   H7R 5882   3.145   4.064   8.965
   69SLPC   H7S 5883   3.239   4.200   8.897
   69SLPC   C28 5884   3.024   4.217   8.880
   69SLPC   H8R 5885   2.936   4.198   8.945
   69SLPC   H8S 5886   3.011   4.152   8.789
   69SLPC   C29 5887   3.030   4.362   8.845
   69SLPC   H9R 5888   3.008   4.430   8.928
   69SLPC  C210 5889   3.058   4.418   8.726
   69SLPC  H10R 5890   3.057   4.527   8.721
   69SLPC  C211 5891   3.091   4.350   8.597
   69SLPC  H11R 5892   3.132   4.249   8.618
   69SLPC  H11S 5893   3.172   4.410   8.551
   69SLPC  C212 5894   2.972   4.337   8.504
   69SLPC  H12R 5895   2.895   4.264   8.534
   69SLPC  C213 5896   2.947   4.413   8.396
   69SLPC  H13R 5897   2.853   4.395   8.343
   69SLPC  C214 5898   3.029   4.527   8.341
   69SLPC  H14R 5899   3.063   4.595   8.421
   69SLPC  H14S 5900   2.965   4.585   8.270
   69SLPC  C215 5901   3.158   4.488   8.274
   69SLPC  H15R 5902   3.231   4.434   8.338
   69SLPC  H15S 5903   3.206   4.580   8.230
   69SLPC  C216 5904   3.129   4.403   8.158
   69SLPC  H16R 5905   3.054   4.467   8.109
   69SLPC  H16S 5906   3.078   4.304   8.174
   69SLPC  C217 5907   3.264   4.390   8.089
   69SLPC  H17R 5908   3.309   4.298   8.134
   69SLPC  H17S 5909   3.326   4.481   8.093
   69SLPC  C218 5910   3.285   4.367   7.947
   69SLPC  H18R 5911   3.277   4.261   7.916
   69SLPC  H18S 5912   3.280   4.405   7.845
   69SLPC  H18T 5913   3.232   4.452   7.898
   69SLPC   C33 5914   2.912   3.918   9.182
   69SLPC   H3X 5915   3.011   3.873   9.206
   69SLPC   H3Y 5916   2.920   4.021   9.141
   69SLPC   C34 5917   2.859   3.821   9.076
   69SLPC   H4X 5918   2.787   3.860   9.009
   69SLPC   H4Y 5919   2.815   3.727   9.115
   69SLPC   C35 5920   2.919   3.836   8.940
   69SLPC   H5X 5921   2.920   3.945   8.910
   69SLPC   H5Y 5922   2.865   3.776   8.860
   69SLPC   C36 5923   3.053   3.793   8.966
   69SLPC   H6X 5924   3.041   3.698   9.024
   69SLPC   H6Y 5925   3.105   3.868   9.028
   69SLPC   C37 5926   3.117   3.773   8.835
   69SLPC   H7X 5927   3.071   3.680   8.794
   69SLPC   H7Y 5928   3.220   3.758   8.868
   69SLPC   C38 5929   3.105   3.887   8.733
   69SLPC   H8X 5930   3.153   3.980   8.770
   69SLPC   H8Y 5931   2.997   3.900   8.709
   69SLPC   C39 5932   3.170   3.866   8.599
   69SLPC   H9X 5933   3.127   3.785   8.540
   69SLPC   H9Y 5934   3.275   3.845   8.615
   69SLPC  C310 5935   3.191   3.985   8.515
   69SLPC  H10X 5936   3.289   4.028   8.548
   69SLPC  H10Y 5937   3.106   4.050   8.539
   69SLPC  C311 5938   3.203   3.948   8.369
   69SLPC  H11X 5939   3.106   3.931   8.320
   69SLPC  H11Y 5940   3.259   3.853   8.352
   69SLPC  C312 5941   3.261   4.067   8.299
   69SLPC  H12X 5942   3.339   4.117   8.359
   69SLPC  H12Y 5943   3.181   4.142   8.281
   69SLPC  C313 5944   3.310   4.020   8.167
   69SLPC  H13X 5945   3.387   3.941   8.184
   69SLPC  H13Y 5946   3.362   4.105   8.119
   69SLPC  C314 5947   3.191   3.976   8.079
   69SLPC  H14X 5948   3.106   4.047   8.085
   69SLPC  H14Y 5949   3.159   3.872   8.104
   69SLPC  C315 5950   3.226   3.988   7.936
   69SLPC  H15X 5951   3.264   4.087   7.913
   69SLPC  H15Y 5952   3.154   3.960   7.856
   69SLPC  C316 5953   3.365   3.951   7.915
   69SLPC  H16X 5954   3.366   3.852   7.965
   69SLPC  H16Y 5955   3.443   3.940   7.989
   69SLPC  C317 5956   3.391   3.993   7.760
   69SLPC  H17X 5957   3.297   3.975   7.709
   69SLPC  H17Y 5958   3.488   3.951   7.714
   69SLPC  C318 5959   3.463   4.093   7.686
   69SLPC  H18X 5960   3.380   4.156   7.660
   69SLPC  H18Y 5961   3.544   4.082   7.606
   69SLPC  H18Z 5962   3.496   4.097   7.790
   70SLPC     N 5963   4.748   3.929   9.619
   70SLPC   C13 5964   4.808   3.927   9.755
   70SLPC  H13A 5965   4.914   3.907   9.750
   70SLPC  H13B 5966   4.791   4.019   9.810
   70SLPC  H13C 5967   4.765   3.843   9.810
   70SLPC   C14 5968   4.790   4.053   9.548
   70SLPC  H14A 5969   4.897   4.060   9.537
   70SLPC  H14B 5970   4.744   4.061   9.450
   70SLPC  H14C 5971   4.759   4.139   9.607
   70SLPC   C15 5972   4.600   3.933   9.637
   70SLPC  H15A 5973   4.544   3.928   9.543
   70SLPC  H15B 5974   4.567   3.854   9.703
   70SLPC  H15C 5975   4.571   4.028   9.682
   70SLPC   C12 5976   4.790   3.803   9.546
   70SLPC  H12A 5977   4.891   3.816   9.509
   70SLPC  H12B 5978   4.723   3.787   9.463
   70SLPC   C11 5979   4.795   3.671   9.628
   70SLPC  H11A 5980   4.889   3.667   9.688
   70SLPC  H11B 5981   4.795   3.589   9.555
   70SLPC     P 5982   4.649   3.546   9.810
   70SLPC   O13 5983   4.723   3.569   9.937
   70SLPC   O14 5984   4.502   3.536   9.811
   70SLPC   O12 5985   4.682   3.663   9.711
   70SLPC   O11 5986   4.708   3.422   9.740
   70SLPC    C1 5987   4.676   3.291   9.788
   70SLPC    HA 5988   4.740   3.262   9.873
   70SLPC    HB 5989   4.568   3.276   9.814
   70SLPC    C2 5990   4.698   3.198   9.674
   70SLPC    HS 5991   4.746   3.102   9.705
   70SLPC   O21 5992   4.791   3.245   9.579
   70SLPC   C21 5993   4.903   3.269   9.630
   70SLPC   O22 5994   4.944   3.248   9.743
   70SLPC   C22 5995   4.985   3.314   9.520
   70SLPC   H2R 5996   5.043   3.390   9.578
   70SLPC   H2S 5997   5.035   3.218   9.488
   70SLPC    C3 5998   4.552   3.182   9.614
   70SLPC    HX 5999   4.484   3.130   9.681
   70SLPC    HY 6000   4.528   3.103   9.548
   70SLPC   O31 6001   4.496   3.284   9.536
   70SLPC   C31 6002   4.547   3.317   9.421
   70SLPC   O32 6003   4.654   3.295   9.373
   70SLPC   C32 6004   4.460   3.418   9.358
   70SLPC   H2X 6005   4.427   3.475   9.447
   70SLPC   H2Y 6006   4.375   3.375   9.301
   70SLPC   C23 6007   4.937   3.400   9.402
   70SLPC   H3R 6008   4.909   3.493   9.450
   70SLPC   H3S 6009   4.859   3.338   9.359
   70SLPC   C24 6010   5.025   3.434   9.283
   70SLPC   H4R 6011   5.120   3.484   9.314
   70SLPC   H4S 6012   4.990   3.505   9.206
   70SLPC   C25 6013   5.045   3.300   9.218
   70SLPC   H5R 6014   5.081   3.222   9.287
   70SLPC   H5S 6015   5.103   3.314   9.130
   70SLPC   C26 6016   4.954   3.213   9.144
   70SLPC   H6R 6017   4.912   3.157   9.222
   70SLPC   H6S 6018   5.012   3.136   9.088
   70SLPC   C27 6019   4.871   3.302   9.063
   70SLPC   H7R 6020   4.941   3.375   9.015
   70SLPC   H7S 6021   4.802   3.359   9.131
   70SLPC   C28 6022   4.804   3.220   8.958
   70SLPC   H8R 6023   4.743   3.142   9.003
   70SLPC   H8S 6024   4.868   3.152   8.901
   70SLPC   C29 6025   4.723   3.316   8.880
   70SLPC   H9R 6026   4.636   3.354   8.938
   70SLPC  C210 6027   4.729   3.331   8.748
   70SLPC  H10R 6028   4.648   3.388   8.698
   70SLPC  C211 6029   4.818   3.258   8.652
   70SLPC  H11R 6030   4.912   3.234   8.703
   70SLPC  H11S 6031   4.839   3.340   8.581
   70SLPC  C212 6032   4.785   3.127   8.581
   70SLPC  H12R 6033   4.749   3.041   8.639
   70SLPC  C213 6034   4.767   3.113   8.452
   70SLPC  H13R 6035   4.718   3.027   8.406
   70SLPC  C214 6036   4.777   3.226   8.365
   70SLPC  H14R 6037   4.701   3.301   8.401
   70SLPC  H14S 6038   4.747   3.179   8.269
   70SLPC  C215 6039   4.909   3.292   8.338
   70SLPC  H15R 6040   4.946   3.351   8.422
   70SLPC  H15S 6041   4.907   3.364   8.260
   70SLPC  C216 6042   5.008   3.193   8.284
   70SLPC  H16R 6043   4.982   3.164   8.180
   70SLPC  H16S 6044   5.002   3.103   8.349
   70SLPC  C217 6045   5.146   3.256   8.293
   70SLPC  H17R 6046   5.216   3.179   8.263
   70SLPC  H17S 6047   5.168   3.284   8.398
   70SLPC  C218 6048   5.173   3.373   8.199
   70SLPC  H18R 6049   5.135   3.350   8.097
   70SLPC  H18S 6050   5.283   3.388   8.195
   70SLPC  H18T 6051   5.123   3.464   8.237
   70SLPC   C33 6052   4.558   3.496   9.269
   70SLPC   H3X 6053   4.584   3.440   9.177
   70SLPC   H3Y 6054   4.654   3.514   9.326
   70SLPC   C34 6055   4.501   3.631   9.231
   70SLPC   H4X 6056   4.448   3.671   9.321
   70SLPC   H4Y 6057   4.429   3.619   9.148
   70SLPC   C35 6058   4.608   3.733   9.192
   70SLPC   H5X 6059   4.679   3.743   9.277
   70SLPC   H5Y 6060   4.558   3.831   9.177
   70SLPC   C36 6061   4.696   3.692   9.073
   70SLPC   H6X 6062   4.638   3.658   8.985
   70SLPC   H6Y 6063   4.759   3.607   9.109
   70SLPC   C37 6064   4.794   3.804   9.035
   70SLPC   H7X 6065   4.849   3.832   9.128
   70SLPC   H7Y 6066   4.742   3.895   8.999
   70SLPC   C38 6067   4.896   3.760   8.928
   70SLPC   H8X 6068   4.935   3.658   8.952
   70SLPC   H8Y 6069   4.980   3.832   8.928
   70SLPC   C39 6070   4.844   3.755   8.784
   70SLPC   H9X 6071   4.763   3.830   8.770
   70SLPC   H9Y 6072   4.799   3.655   8.765
   70SLPC  C310 6073   4.961   3.778   8.686
   70SLPC  H10X 6074   5.047   3.709   8.695
   70SLPC  H10Y 6075   4.997   3.883   8.688
   70SLPC  C311 6076   4.920   3.750   8.548
   70SLPC  H11X 6077   4.901   3.642   8.529
   70SLPC  H11Y 6078   5.003   3.784   8.479
   70SLPC  C312 6079   4.797   3.823   8.520
   70SLPC  H12X 6080   4.802   3.933   8.544
   70SLPC  H12Y 6081   4.698   3.781   8.550
   70SLPC  C313 6082   4.816   3.808   8.379
   70SLPC  H13X 6083   4.905   3.854   8.334
   70SLPC  H13Y 6084   4.750   3.887   8.376
   70SLPC  C314 6085   4.793   3.675   8.317
   70SLPC  H14X 6086   4.891   3.623   8.304
   70SLPC  H14Y 6087   4.785   3.701   8.216
   70SLPC  C315 6088   4.687   3.579   8.376
   70SLPC  H15X 6089   4.695   3.562   8.482
   70SLPC  H15Y 6090   4.727   3.482   8.353
   70SLPC  C316 6091   4.535   3.578   8.327
   70SLPC  H16X 6092   4.541   3.675   8.380
   70SLPC  H16Y 6093   4.479   3.510   8.391
   70SLPC  C317 6094   4.471   3.583   8.170
   70SLPC  H17X 6095   4.482   3.510   8.100
   70SLPC  H17Y 6096   4.527   3.662   8.125
   70SLPC  C318 6097   4.332   3.582   8.093
   70SLPC  H18X 6098   4.328   3.601   7.992
   70SLPC  H18Y 6099   4.277   3.674   8.097
   70SLPC  H18Z 6100   4.259   3.512   8.127
   71SLPC     N 6101   3.576   1.832   9.518
   71SLPC   C13 6102   3.614   1.706   9.594
   71SLPC  H13A 6103   3.718   1.677   9.581
   71SLPC  H13B 6104   3.598   1.721   9.701
   71SLPC  H13C 6105   3.552   1.622   9.564
   71SLPC   C14 6106   3.592   1.816   9.377
   71SLPC  H14A 6107   3.535   1.729   9.357
   71SLPC  H14B 6108   3.549   1.880   9.302
   71SLPC  H14C 6109   3.691   1.775   9.357
   71SLPC   C15 6110   3.678   1.938   9.538
   71SLPC  H15A 6111   3.659   2.016   9.465
   71SLPC  H15B 6112   3.673   1.972   9.640
   71SLPC  H15C 6113   3.777   1.898   9.516
   71SLPC   C12 6114   3.433   1.871   9.546
   71SLPC  H12A 6115   3.366   1.798   9.502
   71SLPC  H12B 6116   3.412   1.964   9.495
   71SLPC   C11 6117   3.389   1.879   9.692
   71SLPC  H11A 6118   3.378   1.777   9.735
   71SLPC  H11B 6119   3.287   1.925   9.688
   71SLPC     P 6120   3.421   2.029   9.897
   71SLPC   O13 6121   3.333   1.938   9.973
   71SLPC   O14 6122   3.525   2.102   9.974
   71SLPC   O12 6123   3.483   1.952   9.772
   71SLPC   O11 6124   3.332   2.131   9.820
   71SLPC    C1 6125   3.402   2.204   9.720
   71SLPC    HA 6126   3.466   2.283   9.766
   71SLPC    HB 6127   3.459   2.144   9.647
   71SLPC    C2 6128   3.300   2.266   9.632
   71SLPC    HS 6129   3.231   2.302   9.709
   71SLPC   O21 6130   3.236   2.172   9.543
   71SLPC   C21 6131   3.106   2.153   9.523
   71SLPC   O22 6132   3.008   2.217   9.543
   71SLPC   C22 6133   3.077   2.018   9.473
   71SLPC   H2R 6134   3.123   1.947   9.543
   71SLPC   H2S 6135   2.965   2.007   9.483
   71SLPC    C3 6136   3.374   2.378   9.553
   71SLPC    HX 6137   3.387   2.476   9.603
   71SLPC    HY 6138   3.297   2.393   9.487
   71SLPC   O31 6139   3.490   2.336   9.478
   71SLPC   C31 6140   3.485   2.355   9.346
   71SLPC   O32 6141   3.396   2.402   9.282
   71SLPC   C32 6142   3.615   2.327   9.283
   71SLPC   H2X 6143   3.694   2.321   9.357
   71SLPC   H2Y 6144   3.623   2.406   9.208
   71SLPC   C23 6145   3.121   2.011   9.328
   71SLPC   H3R 6146   3.072   1.919   9.290
   71SLPC   H3S 6147   3.231   2.003   9.319
   71SLPC   C24 6148   3.085   2.129   9.239
   71SLPC   H4R 6149   3.116   2.230   9.273
   71SLPC   H4S 6150   2.978   2.144   9.235
   71SLPC   C25 6151   3.132   2.108   9.096
   71SLPC   H5R 6152   3.039   2.106   9.036
   71SLPC   H5S 6153   3.170   2.007   9.078
   71SLPC   C26 6154   3.239   2.216   9.064
   71SLPC   H6R 6155   3.327   2.195   9.124
   71SLPC   H6S 6156   3.195   2.316   9.092
   71SLPC   C27 6157   3.298   2.222   8.921
   71SLPC   H7R 6158   3.232   2.306   8.904
   71SLPC   H7S 6159   3.270   2.137   8.854
   71SLPC   C28 6160   3.393   2.328   8.868
   71SLPC   H8R 6161   3.485   2.278   8.897
   71SLPC   H8S 6162   3.374   2.422   8.927
   71SLPC   C29 6163   3.382   2.363   8.719
   71SLPC   H9R 6164   3.290   2.419   8.691
   71SLPC  C210 6165   3.462   2.319   8.621
   71SLPC  H10R 6166   3.444   2.354   8.518
   71SLPC  C211 6167   3.580   2.225   8.638
   71SLPC  H11R 6168   3.546   2.124   8.605
   71SLPC  H11S 6169   3.607   2.213   8.745
   71SLPC  C212 6170   3.706   2.257   8.562
   71SLPC  H12R 6171   3.790   2.297   8.621
   71SLPC  C213 6172   3.726   2.239   8.430
   71SLPC  H13R 6173   3.820   2.273   8.385
   71SLPC  C214 6174   3.627   2.184   8.332
   71SLPC  H14R 6175   3.633   2.256   8.248
   71SLPC  H14S 6176   3.523   2.185   8.370
   71SLPC  C215 6177   3.652   2.038   8.286
   71SLPC  H15R 6178   3.628   1.972   8.371
   71SLPC  H15S 6179   3.758   2.025   8.255
   71SLPC  C216 6180   3.566   1.987   8.173
   71SLPC  H16R 6181   3.458   2.014   8.187
   71SLPC  H16S 6182   3.577   1.880   8.150
   71SLPC  C217 6183   3.610   2.046   8.047
   71SLPC  H17R 6184   3.712   2.058   8.009
   71SLPC  H17S 6185   3.621   2.143   8.090
   71SLPC  C218 6186   3.507   2.019   7.939
   71SLPC  H18R 6187   3.402   2.060   7.940
   71SLPC  H18S 6188   3.540   1.937   7.877
   71SLPC  H18T 6189   3.535   2.083   7.861
   71SLPC   C33 6190   3.619   2.220   9.178
   71SLPC   H3X 6191   3.558   2.256   9.091
   71SLPC   H3Y 6192   3.571   2.130   9.221
   71SLPC   C34 6193   3.766   2.196   9.145
   71SLPC   H4X 6194   3.816   2.152   9.234
   71SLPC   H4Y 6195   3.820   2.291   9.128
   71SLPC   C35 6196   3.782   2.110   9.022
   71SLPC   H5X 6197   3.889   2.082   9.007
   71SLPC   H5Y 6198   3.747   2.170   8.935
   71SLPC   C36 6199   3.691   1.988   9.034
   71SLPC   H6X 6200   3.584   2.011   9.036
   71SLPC   H6Y 6201   3.722   1.937   9.128
   71SLPC   C37 6202   3.708   1.899   8.914
   71SLPC   H7X 6203   3.804   1.882   8.955
   71SLPC   H7Y 6204   3.737   1.938   8.816
   71SLPC   C38 6205   3.616   1.778   8.904
   71SLPC   H8X 6206   3.514   1.809   8.935
   71SLPC   H8Y 6207   3.647   1.702   8.975
   71SLPC   C39 6208   3.610   1.711   8.766
   71SLPC   H9X 6209   3.570   1.608   8.782
   71SLPC   H9Y 6210   3.712   1.701   8.721
   71SLPC  C310 6211   3.521   1.785   8.667
   71SLPC  H10X 6212   3.539   1.739   8.567
   71SLPC  H10Y 6213   3.552   1.891   8.661
   71SLPC  C311 6214   3.372   1.776   8.698
   71SLPC  H11X 6215   3.350   1.836   8.790
   71SLPC  H11Y 6216   3.341   1.672   8.722
   71SLPC  C312 6217   3.287   1.830   8.583
   71SLPC  H12X 6218   3.256   1.749   8.512
   71SLPC  H12Y 6219   3.346   1.901   8.521
   71SLPC  C313 6220   3.159   1.893   8.636
   71SLPC  H13X 6221   3.187   1.976   8.706
   71SLPC  H13Y 6222   3.099   1.822   8.694
   71SLPC  C314 6223   3.077   1.939   8.517
   71SLPC  H14X 6224   2.978   1.977   8.556
   71SLPC  H14Y 6225   3.051   1.862   8.443
   71SLPC  C315 6226   3.163   2.045   8.444
   71SLPC  H15X 6227   3.267   2.060   8.424
   71SLPC  H15Y 6228   3.160   2.103   8.529
   71SLPC  C316 6229   3.102   2.110   8.330
   71SLPC  H16X 6230   2.994   2.082   8.360
   71SLPC  H16Y 6231   3.081   2.020   8.268
   71SLPC  C317 6232   3.140   2.292   8.262
   71SLPC  H17X 6233   3.242   2.271   8.247
   71SLPC  H17Y 6234   3.151   2.374   8.333
   71SLPC  C318 6235   3.047   2.398   8.137
   71SLPC  H18X 6236   3.075   2.456   8.053
   71SLPC  H18Y 6237   2.935   2.416   8.155
   71SLPC  H18Z 6238   3.010   2.339   8.049
   72SLPC     N 6239   5.933   6.305   9.755
   72SLPC   C13 6240   5.874   6.419   9.831
   72SLPC  H13A 6241   5.835   6.494   9.764
   72SLPC  H13B 6242   5.789   6.382   9.890
   72SLPC  H13C 6243   5.945   6.467   9.897
   72SLPC   C14 6244   5.822   6.258   9.667
   72SLPC  H14A 6245   5.853   6.195   9.586
   72SLPC  H14B 6246   5.749   6.202   9.727
   72SLPC  H14C 6247   5.766   6.341   9.626
   72SLPC   C15 6248   5.972   6.195   9.851
   72SLPC  H15A 6249   6.037   6.124   9.798
   72SLPC  H15B 6250   6.029   6.232   9.934
   72SLPC  H15C 6251   5.886   6.139   9.885
   72SLPC   C12 6252   6.055   6.350   9.678
   72SLPC  H12A 6253   6.136   6.363   9.750
   72SLPC  H12B 6254   6.033   6.446   9.635
   72SLPC   C11 6255   6.109   6.252   9.571
   72SLPC  H11A 6256   6.196   6.300   9.519
   72SLPC  H11B 6257   6.035   6.234   9.490
   72SLPC     P 6258   6.293   6.110   9.677
   72SLPC   O13 6259   6.332   6.227   9.759
   72SLPC   O14 6260   6.318   5.976   9.736
   72SLPC   O12 6261   6.143   6.128   9.635
   72SLPC   O11 6262   6.356   6.117   9.532
   72SLPC    C1 6263   6.492   6.091   9.508
   72SLPC    HA 6264   6.555   6.168   9.549
   72SLPC    HB 6265   6.523   6.019   9.580
   72SLPC    C2 6266   6.528   6.063   9.357
   72SLPC    HS 6267   6.638   6.077   9.348
   72SLPC   O21 6268   6.465   6.140   9.255
   72SLPC   C21 6269   6.447   6.264   9.284
   72SLPC   O22 6270   6.485   6.323   9.381
   72SLPC   C22 6271   6.368   6.339   9.183
   72SLPC   H2R 6272   6.305   6.404   9.247
   72SLPC   H2S 6273   6.429   6.406   9.120
   72SLPC    C3 6274   6.491   5.925   9.311
   72SLPC    HX 6275   6.544   5.858   9.371
   72SLPC    HY 6276   6.533   5.905   9.211
   72SLPC   O31 6277   6.352   5.898   9.314
   72SLPC   C31 6278   6.307   5.831   9.419
   72SLPC   O32 6279   6.376   5.782   9.504
   72SLPC   C32 6280   6.162   5.814   9.413
   72SLPC   H2X 6281   6.122   5.793   9.513
   72SLPC   H2Y 6282   6.139   5.725   9.354
   72SLPC   C23 6283   6.284   6.246   9.097
   72SLPC   H3R 6284   6.197   6.309   9.068
   72SLPC   H3S 6285   6.247   6.159   9.154
   72SLPC   C24 6286   6.360   6.205   8.970
   72SLPC   H4R 6287   6.451   6.145   8.995
   72SLPC   H4S 6288   6.394   6.297   8.919
   72SLPC   C25 6289   6.270   6.127   8.875
   72SLPC   H5R 6290   6.326   6.105   8.781
   72SLPC   H5S 6291   6.174   6.176   8.853
   72SLPC   C26 6292   6.226   5.997   8.932
   72SLPC   H6R 6293   6.161   5.995   9.022
   72SLPC   H6S 6294   6.321   5.967   8.974
   72SLPC   C27 6295   6.180   5.901   8.820
   72SLPC   H7R 6296   6.094   5.942   8.767
   72SLPC   H7S 6297   6.116   5.820   8.865
   72SLPC   C28 6298   6.299   5.852   8.723
   72SLPC   H8R 6299   6.348   5.933   8.672
   72SLPC   H8S 6300   6.252   5.827   8.633
   72SLPC   C29 6301   6.388   5.728   8.724
   72SLPC   H9R 6302   6.375   5.654   8.802
   72SLPC  C210 6303   6.493   5.697   8.660
   72SLPC  H10R 6304   6.567   5.644   8.722
   72SLPC  C211 6305   6.541   5.793   8.565
   72SLPC  H11R 6306   6.454   5.819   8.509
   72SLPC  H11S 6307   6.596   5.710   8.520
   72SLPC  C212 6308   6.637   5.908   8.584
   72SLPC  H12R 6309   6.650   5.963   8.679
   72SLPC  C213 6310   6.728   5.925   8.491
   72SLPC  H13R 6311   6.823   5.974   8.523
   72SLPC  C214 6312   6.749   5.852   8.362
   72SLPC  H14R 6313   6.719   5.747   8.357
   72SLPC  H14S 6314   6.857   5.860   8.333
   72SLPC  C215 6315   6.652   5.899   8.254
   72SLPC  H15R 6316   6.695   5.852   8.167
   72SLPC  H15S 6317   6.654   5.999   8.214
   72SLPC  C216 6318   6.503   5.907   8.283
   72SLPC  H16R 6319   6.483   5.980   8.367
   72SLPC  H16S 6320   6.463   5.808   8.309
   72SLPC  C217 6321   6.438   5.965   8.157
   72SLPC  H17R 6322   6.480   6.068   8.143
   72SLPC  H17S 6323   6.330   5.976   8.172
   72SLPC  C218 6324   6.467   5.884   8.031
   72SLPC  H18R 6325   6.408   5.791   8.023
   72SLPC  H18S 6326   6.575   5.861   8.019
   72SLPC  H18T 6327   6.435   5.940   7.943
   72SLPC   C33 6328   6.110   5.940   9.355
   72SLPC   H3X 6329   6.147   5.955   9.252
   72SLPC   H3Y 6330   6.118   6.020   9.430
   72SLPC   C34 6331   5.971   5.926   9.332
   72SLPC   H4X 6332   5.937   5.895   9.432
   72SLPC   H4Y 6333   5.972   5.844   9.255
   72SLPC   C35 6334   5.891   6.050   9.291
   72SLPC   H5X 6335   5.881   6.114   9.378
   72SLPC   H5Y 6336   5.781   6.047   9.269
   72SLPC   C36 6337   5.943   6.090   9.158
   72SLPC   H6X 6338   5.962   6.004   9.090
   72SLPC   H6Y 6339   6.042   6.126   9.184
   72SLPC   C37 6340   5.846   6.187   9.096
   72SLPC   H7X 6341   5.838   6.273   9.166
   72SLPC   H7Y 6342   5.743   6.145   9.084
   72SLPC   C38 6343   5.901   6.238   8.966
   72SLPC   H8X 6344   6.011   6.254   8.977
   72SLPC   H8Y 6345   5.854   6.338   8.955
   72SLPC   C39 6346   5.872   6.152   8.843
   72SLPC   H9X 6347   5.782   6.087   8.860
   72SLPC   H9Y 6348   5.955   6.082   8.824
   72SLPC  C310 6349   5.845   6.243   8.722
   72SLPC  H10X 6350   5.776   6.322   8.758
   72SLPC  H10Y 6351   5.797   6.185   8.640
   72SLPC  C311 6352   5.967   6.313   8.660
   72SLPC  H11X 6353   6.031   6.355   8.741
   72SLPC  H11Y 6354   5.928   6.397   8.598
   72SLPC  C312 6355   6.049   6.217   8.572
   72SLPC  H12X 6356   5.981   6.161   8.505
   72SLPC  H12Y 6357   6.097   6.143   8.639
   72SLPC  C313 6358   6.158   6.286   8.486
   72SLPC  H13X 6359   6.112   6.367   8.425
   72SLPC  H13Y 6360   6.202   6.210   8.417
   72SLPC  C314 6361   6.272   6.340   8.572
   72SLPC  H14X 6362   6.298   6.258   8.642
   72SLPC  H14Y 6363   6.235   6.426   8.631
   72SLPC  C315 6364   6.400   6.381   8.496
   72SLPC  H15X 6365   6.437   6.290   8.447
   72SLPC  H15Y 6366   6.478   6.411   8.570
   72SLPC  C316 6367   6.382   6.487   8.384
   72SLPC  H16X 6368   6.338   6.582   8.425
   72SLPC  H16Y 6369   6.329   6.449   8.297
   72SLPC  C317 6370   6.507   6.537   8.320
   72SLPC  H17X 6371   6.534   6.581   8.415
   72SLPC  H17Y 6372   6.505   6.612   8.242
   72SLPC  C318 6373   6.614   6.443   8.290
   72SLPC  H18X 6374   6.580   6.350   8.243
   72SLPC  H18Y 6375   6.646   6.434   8.398
   72SLPC  H18Z 6376   6.712   6.466   8.248
   73SLPC     N 6377   6.691   5.709   9.527
   73SLPC   C13 6378   6.594   5.609   9.523
   73SLPC  H13A 6379   6.622   5.514   9.477
   73SLPC  H13B 6380   6.550   5.582   9.621
   73SLPC  H13C 6381   6.502   5.640   9.469
   73SLPC   C14 6382   6.624   5.824   9.587
   73SLPC  H14A 6383   6.535   5.849   9.528
   73SLPC  H14B 6384   6.571   5.805   9.680
   73SLPC  H14C 6385   6.674   5.919   9.581
   73SLPC   C15 6386   6.732   5.730   9.387
   73SLPC  H15A 6387   6.784   5.824   9.381
   73SLPC  H15B 6388   6.783   5.646   9.344
   73SLPC  H15C 6389   6.641   5.741   9.327
   73SLPC   C12 6390   6.796   5.662   9.618
   73SLPC  H12A 6391   6.884   5.716   9.593
   73SLPC  H12B 6392   6.810   5.555   9.605
   73SLPC   C11 6393   6.765   5.686   9.768
   73SLPC  H11A 6394   6.766   5.796   9.786
   73SLPC  H11B 6395   6.854   5.646   9.822
   73SLPC     P 6396   6.630   5.485   9.876
   73SLPC   O13 6397   6.677   5.490  10.016
   73SLPC   O14 6398   6.502   5.418   9.855
   73SLPC   O12 6399   6.640   5.631   9.812
   73SLPC   O11 6400   6.731   5.406   9.786
   73SLPC    C1 6401   6.681   5.287   9.722
   73SLPC    HA 6402   6.632   5.219   9.794
   73SLPC    HB 6403   6.609   5.318   9.643
   73SLPC    C2 6404   6.801   5.216   9.658
   73SLPC    HS 6405   6.871   5.186   9.739
   73SLPC   O21 6406   6.833   5.318   9.557
   73SLPC   C21 6407   6.958   5.312   9.543
   73SLPC   O22 6408   7.027   5.246   9.615
   73SLPC   C22 6409   7.005   5.398   9.434
   73SLPC   H2R 6410   6.929   5.396   9.354
   73SLPC   H2S 6411   7.041   5.495   9.474
   73SLPC    C3 6412   6.793   5.080   9.590
   73SLPC    HX 6413   6.759   4.991   9.645
   73SLPC    HY 6414   6.865   5.054   9.511
   73SLPC   O31 6415   6.686   5.110   9.531
   73SLPC   C31 6416   6.684   5.160   9.417
   73SLPC   O32 6417   6.763   5.165   9.325
   73SLPC   C32 6418   6.546   5.149   9.414
   73SLPC   H2X 6419   6.501   5.110   9.505
   73SLPC   H2Y 6420   6.568   5.066   9.344
   73SLPC   C23 6421   7.121   5.343   9.364
   73SLPC   H3R 6422   7.114   5.232   9.346
   73SLPC   H3S 6423   7.209   5.360   9.429
   73SLPC   C24 6424   7.153   5.420   9.237
   73SLPC   H4R 6425   7.253   5.398   9.212
   73SLPC   H4S 6426   7.177   5.525   9.252
   73SLPC   C25 6427   7.067   5.391   9.113
   73SLPC   H5R 6428   7.124   5.437   9.030
   73SLPC   H5S 6429   6.973   5.439   9.141
   73SLPC   C26 6430   7.033   5.245   9.076
   73SLPC   H6R 6431   7.033   5.177   9.165
   73SLPC   H6S 6432   7.111   5.220   8.999
   73SLPC   C27 6433   6.938   5.197   8.973
   73SLPC   H7R 6434   6.956   5.266   8.886
   73SLPC   H7S 6435   6.842   5.203   9.022
   73SLPC   C28 6436   6.977   5.054   8.927
   73SLPC   H8R 6437   7.019   4.989   9.008
   73SLPC   H8S 6438   7.058   5.081   8.860
   73SLPC   C29 6439   6.874   4.989   8.842
   73SLPC   H9R 6440   6.782   4.964   8.893
   73SLPC  C210 6441   6.874   4.964   8.710
   73SLPC  H10R 6442   6.784   4.928   8.661
   73SLPC  C211 6443   6.979   4.996   8.613
   73SLPC  H11R 6444   6.985   4.919   8.533
   73SLPC  H11S 6445   7.075   4.996   8.664
   73SLPC  C212 6446   6.934   5.127   8.559
   73SLPC  H12R 6447   6.869   5.201   8.607
   73SLPC  C213 6448   6.964   5.153   8.439
   73SLPC  H13R 6449   6.933   5.251   8.410
   73SLPC  C214 6450   7.043   5.066   8.350
   73SLPC  H14R 6451   7.113   4.990   8.390
   73SLPC  H14S 6452   7.108   5.149   8.381
   73SLPC  C215 6453   7.020   5.028   8.197
   73SLPC  H15R 6454   6.923   4.982   8.178
   73SLPC  H15S 6455   7.101   4.971   8.145
   73SLPC  C216 6456   7.024   5.140   8.098
   73SLPC  H16R 6457   7.084   5.214   8.127
   73SLPC  H16S 6458   6.965   5.211   8.116
   73SLPC  C217 6459   7.080   5.152   7.955
   73SLPC  H17R 6460   6.965   5.118   7.957
   73SLPC  H17S 6461   7.126   5.067   7.934
   73SLPC  C218 6462   7.111   5.327   7.756
   73SLPC  H18R 6463   7.023   5.411   7.741
   73SLPC  H18S 6464   7.100   5.292   7.655
   73SLPC  H18T 6465   7.184   5.348   7.806
   73SLPC   C33 6466   6.433   5.259   9.397
   73SLPC   H3X 6467   6.528   5.313   9.360
   73SLPC   H3Y 6468   6.410   5.256   9.497
   73SLPC   C34 6469   6.236   5.325   9.368
   73SLPC   H4X 6470   6.157   5.261   9.391
   73SLPC   H4Y 6471   6.213   5.371   9.281
   73SLPC   C35 6472   6.167   5.465   9.264
   73SLPC   H5X 6473   6.161   5.543   9.333
   73SLPC   H5Y 6474   6.063   5.456   9.234
   73SLPC   C36 6475   6.245   5.544   9.136
   73SLPC   H6X 6476   6.287   5.496   9.043
   73SLPC   H6Y 6477   6.353   5.565   9.136
   73SLPC   C37 6478   6.190   5.664   9.107
   73SLPC   H7X 6479   6.200   5.737   9.186
   73SLPC   H7Y 6480   6.089   5.632   9.079
   73SLPC   C38 6481   6.282   5.706   9.002
   73SLPC   H8X 6482   6.224   5.791   9.004
   73SLPC   H8Y 6483   6.250   5.639   8.922
   73SLPC   C39 6484   6.424   5.760   9.038
   73SLPC   H9X 6485   6.479   5.687   9.095
   73SLPC   H9Y 6486   6.415   5.858   9.083
   73SLPC  C310 6487   6.526   5.782   8.931
   73SLPC  H10X 6488   6.479   5.865   8.870
   73SLPC  H10Y 6489   6.538   5.673   8.904
   73SLPC  C311 6490   6.660   5.842   8.916
   73SLPC  H11X 6491   6.691   5.792   9.005
   73SLPC  H11Y 6492   6.643   5.954   8.910
   73SLPC  C312 6493   6.760   5.792   8.808
   73SLPC  H12X 6494   6.820   5.876   8.774
   73SLPC  H12Y 6495   6.718   5.759   8.718
   73SLPC  C313 6496   6.810   5.649   8.787
   73SLPC  H13X 6497   6.733   5.569   8.773
   73SLPC  H13Y 6498   6.856   5.641   8.885
   73SLPC  C314 6499   6.908   5.642   8.666
   73SLPC  H14X 6500   6.967   5.550   8.675
   73SLPC  H14Y 6501   6.968   5.736   8.666
   73SLPC  C315 6502   6.855   5.627   8.524
   73SLPC  H15X 6503   6.929   5.655   8.444
   73SLPC  H15Y 6504   6.781   5.700   8.526
   73SLPC  C316 6505   6.771   5.505   8.497
   73SLPC  H16X 6506   6.670   5.512   8.542
   73SLPC  H16Y 6507   6.829   5.421   8.541
   73SLPC  C317 6508   6.743   5.482   8.352
   73SLPC  H17X 6509   6.832   5.523   8.312
   73SLPC  H17Y 6510   6.689   5.550   8.284
   73SLPC  C318 6511   6.705   5.336   8.338
   73SLPC  H18X 6512   6.603   5.336   8.352
   73SLPC  H18Y 6513   6.740   5.264   8.413
   73SLPC  H18Z 6514   6.725   5.284   8.247
   74SLPC     N 6515   7.167   7.286   9.804
   74SLPC   C13 6516   7.127   7.177   9.898
   74SLPC  H13A 6517   7.172   7.080   9.876
   74SLPC  H13B 6518   7.159   7.202   9.999
   74SLPC  H13C 6519   7.020   7.163   9.894
   74SLPC   C14 6520   7.313   7.285   9.800
   74SLPC  H14A 6521   7.357   7.270   9.897
   74SLPC  H14B 6522   7.364   7.214   9.735
   74SLPC  H14C 6523   7.348   7.384   9.767
   74SLPC   C15 6524   7.117   7.414   9.864
   74SLPC  H15A 6525   7.159   7.428   9.964
   74SLPC  H15B 6526   7.151   7.500   9.809
   74SLPC  H15C 6527   7.010   7.416   9.872
   74SLPC   C12 6528   7.112   7.284   9.665
   74SLPC  H12A 6529   7.159   7.361   9.606
   74SLPC  H12B 6530   7.005   7.293   9.669
   74SLPC   C11 6531   7.128   7.162   9.583
   74SLPC  H11A 6532   7.224   7.133   9.601
   74SLPC  H11B 6533   7.102   7.178   9.475
   74SLPC     P 6534   6.930   7.040   9.626
   74SLPC   O13 6535   6.897   6.961   9.741
   74SLPC   O14 6536   6.863   7.170   9.604
   74SLPC   O12 6537   7.077   7.052   9.645
   74SLPC   O11 6538   6.957   6.973   9.494
   74SLPC    C1 6539   6.868   6.917   9.412
   74SLPC    HA 6540   6.867   6.804   9.413
   74SLPC    HB 6541   6.783   6.890   9.436
   74SLPC    C2 6542   6.792   7.002   9.300
   74SLPC    HS 6543   6.732   6.926   9.247
   74SLPC   O21 6544   6.889   7.051   9.217
   74SLPC   C21 6545   6.948   6.941   9.183
   74SLPC   O22 6546   6.895   6.833   9.198
   74SLPC   C22 6547   7.043   6.995   9.078
   74SLPC   H2R 6548   6.991   7.047   9.000
   74SLPC   H2S 6549   7.084   7.070   9.147
   74SLPC    C3 6550   6.689   7.123   9.323
   74SLPC    HX 6551   6.733   7.196   9.391
   74SLPC    HY 6552   6.587   7.115   9.368
   74SLPC   O31 6553   6.630   7.154   9.197
   74SLPC   C31 6554   6.588   7.272   9.199
   74SLPC   O32 6555   6.579   7.344   9.297
   74SLPC   C32 6556   6.542   7.298   9.060
   74SLPC   H2X 6557   6.521   7.398   9.099
   74SLPC   H2Y 6558   6.455   7.236   9.033
   74SLPC   C23 6559   7.138   6.897   9.007
   74SLPC   H3R 6560   7.104   6.836   8.922
   74SLPC   H3S 6561   7.176   6.835   9.091
   74SLPC   C24 6562   7.236   6.917   8.902
   74SLPC   H4R 6563   7.324   6.861   8.872
   74SLPC   H4S 6564   7.308   6.929   8.982
   74SLPC   C25 6565   7.177   7.007   8.799
   74SLPC   H5R 6566   7.242   7.081   8.758
   74SLPC   H5S 6567   7.110   7.079   8.843
   74SLPC   C26 6568   7.199   6.974   8.660
   74SLPC   H6R 6569   7.287   6.906   8.650
   74SLPC   H6S 6570   7.191   7.062   8.590
   74SLPC   C27 6571   7.078   6.913   8.647
   74SLPC   H7R 6572   6.997   6.982   8.685
   74SLPC   H7S 6573   7.090   6.820   8.706
   74SLPC   C28 6574   7.046   6.900   8.509
   74SLPC   H8R 6575   7.035   6.994   8.457
   74SLPC   H8S 6576   6.955   6.865   8.545
   74SLPC   C29 6577   7.109   6.793   8.437
   74SLPC   H9R 6578   7.082   6.692   8.476
   74SLPC  C210 6579   7.192   6.811   8.336
   74SLPC  H10R 6580   7.280   6.754   8.328
   74SLPC  C211 6581   7.243   6.924   8.268
   74SLPC  H11R 6582   7.155   6.989   8.265
   74SLPC  H11S 6583   7.261   6.886   8.169
   74SLPC  C212 6584   7.372   6.981   8.316
   74SLPC  H12R 6585   7.460   6.914   8.332
   74SLPC  C213 6586   7.376   7.106   8.354
   74SLPC  H13R 6587   7.473   7.156   8.368
   74SLPC  C214 6588   7.250   7.190   8.352
   74SLPC  H14R 6589   7.262   7.251   8.442
   74SLPC  H14S 6590   7.156   7.138   8.380
   74SLPC  C215 6591   7.216   7.271   8.218
   74SLPC  H15R 6592   7.145   7.354   8.247
   74SLPC  H15S 6593   7.188   7.215   8.129
   74SLPC  C216 6594   7.339   7.325   8.141
   74SLPC  H16R 6595   7.431   7.267   8.139
   74SLPC  H16S 6596   7.339   7.345   8.253
   74SLPC  C217 6597   7.359   7.451   8.027
   74SLPC  H17R 6598   7.449   7.523   8.034
   74SLPC  H17S 6599   7.286   7.536   8.017
   74SLPC  C218 6600   7.382   7.403   7.896
   74SLPC  H18R 6601   7.465   7.336   7.930
   74SLPC  H18S 6602   7.415   7.488   7.833
   74SLPC  H18T 6603   7.276   7.369   7.888
   74SLPC   C33 6604   6.638   7.311   8.940
   74SLPC   H3X 6605   6.710   7.369   8.981
   74SLPC   H3Y 6606   6.613   7.386   8.863
   74SLPC   C34 6607   6.743   7.203   8.921
   74SLPC   H4X 6608   6.682   7.128   8.881
   74SLPC   H4Y 6609   6.782   7.173   9.021
   74SLPC   C35 6610   6.855   7.221   8.818
   74SLPC   H5X 6611   6.933   7.147   8.826
   74SLPC   H5Y 6612   6.932   7.284   8.848
   74SLPC   C36 6613   6.811   7.270   8.681
   74SLPC   H6X 6614   6.898   7.297   8.616
   74SLPC   H6Y 6615   6.745   7.360   8.683
   74SLPC   C37 6616   6.737   7.159   8.620
   74SLPC   H7X 6617   6.631   7.159   8.657
   74SLPC   H7Y 6618   6.785   7.064   8.655
   74SLPC   C38 6619   6.743   7.177   8.472
   74SLPC   H8X 6620   6.849   7.168   8.437
   74SLPC   H8Y 6621   6.699   7.273   8.439
   74SLPC   C39 6622   6.654   7.077   8.410
   74SLPC   H9X 6623   6.548   7.080   8.439
   74SLPC   H9Y 6624   6.692   6.987   8.463
   74SLPC  C310 6625   6.665   7.082   8.258
   74SLPC  H10X 6626   6.597   7.001   8.226
   74SLPC  H10Y 6627   6.772   7.072   8.225
   74SLPC  C311 6628   6.606   7.191   8.176
   74SLPC  H11X 6629   6.669   7.278   8.203
   74SLPC  H11Y 6630   6.500   7.196   8.208
   74SLPC  C312 6631   6.612   7.167   8.024
   74SLPC  H12X 6632   6.589   7.259   7.969
   74SLPC  H12Y 6633   6.541   7.085   7.994
   74SLPC  C313 6634   6.749   7.131   7.974
   74SLPC  H13X 6635   6.729   7.026   7.987
   74SLPC  H13Y 6636   6.831   7.159   8.042
   74SLPC  C314 6637   6.784   7.164   7.828
   74SLPC  H14X 6638   6.794   7.273   7.827
   74SLPC  H14Y 6639   6.702   7.123   7.766
   74SLPC  C315 6640   6.917   7.127   7.767
   74SLPC  H15X 6641   7.000   7.156   7.838
   74SLPC  H15Y 6642   6.946   7.156   7.665
   74SLPC  C316 6643   6.907   6.989   7.730
   74SLPC  H16X 6644   6.951   6.949   7.637
   74SLPC  H16Y 6645   6.804   6.954   7.716
   74SLPC  C317 6646   6.993   6.954   7.845
   74SLPC  H17X 6647   7.094   6.994   7.827
   74SLPC  H17Y 6648   7.011   6.853   7.795
   74SLPC  C318 6649   6.959   6.966   8.011
   74SLPC  H18X 6650   6.997   7.050   8.065
   74SLPC  H18Y 6651   6.998   6.893   8.087
   74SLPC  H18Z 6652   6.866   6.929   8.051
   75SLPC     N 6653   1.209   2.397   6.181
   75SLPC   C13 6654   1.139   2.504   6.259
   75SLPC  H13A 6655   1.126   2.595   6.201
   75SLPC  H13B 6656   1.047   2.471   6.303
   75SLPC  H13C 6657   1.202   2.534   6.342
   75SLPC   C14 6658   1.111   2.342   6.087
   75SLPC  H14A 6659   1.026   2.302   6.141
   75SLPC  H14B 6660   1.070   2.420   6.023
   75SLPC  H14C 6661   1.153   2.262   6.026
   75SLPC   C15 6662   1.246   2.284   6.273
   75SLPC  H15A 6663   1.159   2.257   6.329
   75SLPC  H15B 6664   1.281   2.199   6.216
   75SLPC  H15C 6665   1.325   2.314   6.343
   75SLPC   C12 6666   1.331   2.454   6.110
   75SLPC  H12A 6667   1.301   2.518   6.028
   75SLPC  H12B 6668   1.390   2.373   6.069
   75SLPC   C11 6669   1.430   2.535   6.194
   75SLPC  H11A 6670   1.406   2.645   6.184
   75SLPC  H11B 6671   1.532   2.526   6.146
   75SLPC     P 6672   1.394   2.585   6.445
   75SLPC   O13 6673   1.394   2.530   6.582
   75SLPC   O14 6674   1.486   2.680   6.413
   75SLPC   O12 6675   1.427   2.483   6.329
   75SLPC   O11 6676   1.277   2.682   6.409
   75SLPC    C1 6677   1.291   2.825   6.380
   75SLPC    HA 6678   1.394   2.873   6.372
   75SLPC    HB 6679   1.242   2.843   6.284
   75SLPC    C2 6680   1.214   2.907   6.484
   75SLPC    HS 6681   1.207   3.013   6.454
   75SLPC   O21 6682   1.295   2.903   6.597
   75SLPC   C21 6683   1.235   2.941   6.706
   75SLPC   O22 6684   1.155   3.032   6.719
   75SLPC   C22 6685   1.296   2.857   6.817
   75SLPC   H2R 6686   1.318   2.753   6.820
   75SLPC   H2S 6687   1.399   2.886   6.781
   75SLPC    C3 6688   1.076   2.847   6.517
   75SLPC    HX 6689   1.017   2.839   6.425
   75SLPC    HY 6690   1.020   2.916   6.585
   75SLPC   O31 6691   1.090   2.715   6.570
   75SLPC   C31 6692   1.072   2.701   6.696
   75SLPC   O32 6693   1.038   2.783   6.778
   75SLPC   C32 6694   1.082   2.561   6.721
   75SLPC   H2X 6695   1.149   2.494   6.658
   75SLPC   H2Y 6696   0.981   2.529   6.715
   75SLPC   C23 6697   1.224   2.892   6.956
   75SLPC   H3R 6698   1.115   2.900   6.963
   75SLPC   H3S 6699   1.212   3.002   6.959
   75SLPC   C24 6700   1.284   2.825   7.086
   75SLPC   H4R 6701   1.395   2.804   7.109
   75SLPC   H4S 6702   1.284   2.720   7.084
   75SLPC   C25 6703   1.259   2.906   7.209
   75SLPC   H5R 6704   1.269   3.018   7.213
   75SLPC   H5S 6705   1.337   2.854   7.267
   75SLPC   C26 6706   1.155   2.883   7.301
   75SLPC   H6R 6707   1.091   2.941   7.237
   75SLPC   H6S 6708   1.148   2.933   7.400
   75SLPC   C27 6709   1.170   2.738   7.318
   75SLPC   H7R 6710   1.269   2.700   7.353
   75SLPC   H7S 6711   1.151   2.696   7.219
   75SLPC   C28 6712   1.074   2.717   7.418
   75SLPC   H8R 6713   0.989   2.781   7.389
   75SLPC   H8S 6714   1.091   2.756   7.518
   75SLPC   C29 6715   1.064   2.572   7.403
   75SLPC   H9R 6716   1.061   2.508   7.313
   75SLPC  C210 6717   1.005   2.520   7.496
   75SLPC  H10R 6718   0.972   2.431   7.455
   75SLPC  C211 6719   0.946   2.567   7.618
   75SLPC  H11R 6720   0.892   2.477   7.644
   75SLPC  H11S 6721   0.856   2.632   7.618
   75SLPC  C212 6722   1.065   2.599   7.705
   75SLPC  H12R 6723   1.143   2.521   7.712
   75SLPC  C213 6724   1.064   2.702   7.790
   75SLPC  H13R 6725   1.160   2.733   7.833
   75SLPC  C214 6726   0.947   2.795   7.811
   75SLPC  H14R 6727   0.854   2.761   7.761
   75SLPC  H14S 6728   0.967   2.896   7.773
   75SLPC  C215 6729   0.919   2.806   7.963
   75SLPC  H15R 6730   1.013   2.820   8.015
   75SLPC  H15S 6731   0.890   2.713   8.011
   75SLPC  C216 6732   0.815   2.909   8.007
   75SLPC  H16R 6733   0.785   2.881   8.110
   75SLPC  H16S 6734   0.729   2.921   7.939
   75SLPC  C217 6735   0.865   3.048   8.020
   75SLPC  H17R 6736   0.797   3.125   8.058
   75SLPC  H17S 6737   0.892   3.089   7.921
   75SLPC  C218 6738   0.972   3.051   8.119
   75SLPC  H18R 6739   0.978   3.009   8.220
   75SLPC  H18S 6740   0.998   3.160   8.111
   75SLPC  H18T 6741   1.059   2.988   8.096
   75SLPC   C33 6742   1.129   2.511   6.848
   75SLPC   H3X 6743   1.079   2.412   6.850
   75SLPC   H3Y 6744   1.225   2.557   6.813
   75SLPC   C34 6745   1.159   2.544   6.988
   75SLPC   H4X 6746   1.102   2.484   7.062
   75SLPC   H4Y 6747   1.140   2.648   7.008
   75SLPC   C35 6748   1.283   2.470   7.000
   75SLPC   H5X 6749   1.350   2.555   6.985
   75SLPC   H5Y 6750   1.281   2.391   6.917
   75SLPC   C36 6751   1.278   2.399   7.130
   75SLPC   H6X 6752   1.199   2.323   7.106
   75SLPC   H6Y 6753   1.240   2.461   7.213
   75SLPC   C37 6754   1.419   2.356   7.157
   75SLPC   H7X 6755   1.475   2.449   7.133
   75SLPC   H7Y 6756   1.445   2.275   7.085
   75SLPC   C38 6757   1.447   2.319   7.302
   75SLPC   H8X 6758   1.528   2.246   7.310
   75SLPC   H8Y 6759   1.364   2.267   7.343
   75SLPC   C39 6760   1.448   2.433   7.403
   75SLPC   H9X 6761   1.440   2.391   7.506
   75SLPC   H9Y 6762   1.359   2.499   7.390
   75SLPC  C310 6763   1.575   2.512   7.394
   75SLPC  H10X 6764   1.595   2.533   7.286
   75SLPC  H10Y 6765   1.660   2.451   7.432
   75SLPC  C311 6766   1.559   2.642   7.470
   75SLPC  H11X 6767   1.472   2.693   7.424
   75SLPC  H11Y 6768   1.652   2.697   7.453
   75SLPC  C312 6769   1.541   2.634   7.623
   75SLPC  H12X 6770   1.633   2.588   7.665
   75SLPC  H12Y 6771   1.457   2.567   7.649
   75SLPC  C313 6772   1.507   2.767   7.693
   75SLPC  H13X 6773   1.415   2.817   7.656
   75SLPC  H13Y 6774   1.583   2.843   7.674
   75SLPC  C314 6775   1.493   2.747   7.843
   75SLPC  H14X 6776   1.569   2.675   7.880
   75SLPC  H14Y 6777   1.389   2.716   7.870
   75SLPC  C315 6778   1.519   2.871   7.922
   75SLPC  H15X 6779   1.464   2.954   7.885
   75SLPC  H15Y 6780   1.624   2.898   7.926
   75SLPC  C316 6781   1.494   2.854   8.065
   75SLPC  H16X 6782   1.560   2.922   8.118
   75SLPC  H16Y 6783   1.510   2.751   8.099
   75SLPC  C317 6784   1.371   2.915   8.108
   75SLPC  H17X 6785   1.290   2.873   8.046
   75SLPC  H17Y 6786   1.398   3.020   8.105
   75SLPC  C318 6787   1.345   2.892   8.247
   75SLPC  H18X 6788   1.241   2.914   8.285
   75SLPC  H18Y 6789   1.419   2.907   8.324
   75SLPC  H18Z 6790   1.352   2.787   8.212
   76SLPC     N 6791   2.581   0.765   6.196
   76SLPC   C13 6792   2.517   0.880   6.128
   76SLPC  H13A 6793   2.528   0.971   6.187
   76SLPC  H13B 6794   2.558   0.898   6.030
   76SLPC  H13C 6795   2.411   0.863   6.117
   76SLPC   C14 6796   2.546   0.646   6.118
   76SLPC  H14A 6797   2.443   0.648   6.084
   76SLPC  H14B 6798   2.605   0.643   6.026
   76SLPC  H14C 6799   2.564   0.556   6.174
   76SLPC   C15 6800   2.530   0.751   6.336
   76SLPC  H15A 6801   2.572   0.830   6.398
   76SLPC  H15B 6802   2.423   0.759   6.343
   76SLPC  H15C 6803   2.560   0.654   6.372
   76SLPC   C12 6804   2.732   0.786   6.201
   76SLPC  H12A 6805   2.768   0.804   6.101
   76SLPC  H12B 6806   2.780   0.698   6.240
   76SLPC   C11 6807   2.785   0.898   6.291
   76SLPC  H11A 6808   2.894   0.908   6.270
   76SLPC  H11B 6809   2.772   0.859   6.396
   76SLPC     P 6810   2.693   1.116   6.394
   76SLPC   O13 6811   2.695   1.260   6.359
   76SLPC   O14 6812   2.596   1.046   6.480
   76SLPC   O12 6813   2.721   1.025   6.269
   76SLPC   O11 6814   2.819   1.090   6.462
   76SLPC    C1 6815   2.926   1.156   6.403
   76SLPC    HA 6816   2.961   1.093   6.321
   76SLPC    HB 6817   2.921   1.255   6.353
   76SLPC    C2 6818   3.001   1.192   6.520
   76SLPC    HS 6819   3.094   1.156   6.473
   76SLPC   O21 6820   2.950   1.120   6.644
   76SLPC   C21 6821   3.012   1.019   6.672
   76SLPC   O22 6822   3.109   1.005   6.600
   76SLPC   C22 6823   2.952   0.899   6.794
   76SLPC   H2R 6824   2.975   0.782   6.802
   76SLPC   H2S 6825   3.011   0.801   6.810
   76SLPC    C3 6826   2.993   1.351   6.546
   76SLPC    HX 6827   3.009   1.405   6.449
   76SLPC    HY 6828   3.087   1.405   6.577
   76SLPC   O31 6829   2.893   1.388   6.653
   76SLPC   C31 6830   2.832   1.316   6.755
   76SLPC   O32 6831   2.865   1.266   6.857
   76SLPC   C32 6832   2.694   1.332   6.776
   76SLPC   H2X 6833   2.655   1.357   6.679
   76SLPC   H2Y 6834   2.701   1.415   6.848
   76SLPC   C23 6835   2.848   0.924   6.864
   76SLPC   H3R 6836   2.790   0.951   6.776
   76SLPC   H3S 6837   2.880   1.014   6.919
   76SLPC   C24 6838   2.806   0.800   6.932
   76SLPC   H4R 6839   2.859   0.757   7.013
   76SLPC   H4S 6840   2.810   0.709   6.868
   76SLPC   C25 6841   2.699   0.846   7.016
   76SLPC   H5R 6842   2.622   0.844   6.938
   76SLPC   H5S 6843   2.721   0.950   7.054
   76SLPC   C26 6844   2.687   0.750   7.130
   76SLPC   H6R 6845   2.743   0.653   7.124
   76SLPC   H6S 6846   2.579   0.729   7.135
   76SLPC   C27 6847   2.699   0.813   7.263
   76SLPC   H7R 6848   2.665   0.717   7.313
   76SLPC   H7S 6849   2.664   0.919   7.278
   76SLPC   C28 6850   2.808   0.800   7.353
   76SLPC   H8R 6851   2.860   0.867   7.280
   76SLPC   H8S 6852   2.728   0.825   7.436
   76SLPC   C29 6853   2.867   0.881   7.444
   76SLPC   H9R 6854   2.881   0.986   7.428
   76SLPC  C210 6855   2.940   0.806   7.512
   76SLPC  H10R 6856   2.970   0.876   7.589
   76SLPC  C211 6857   2.967   0.649   7.509
   76SLPC  H11R 6858   2.886   0.597   7.458
   76SLPC  H11S 6859   2.951   0.620   7.601
   76SLPC  C212 6860   3.094   0.559   7.521
   76SLPC  H12R 6861   3.152   0.560   7.436
   76SLPC  C213 6862   3.193   0.514   7.600
   76SLPC  H13R 6863   3.287   0.507   7.542
   76SLPC  C214 6864   3.240   0.529   7.743
   76SLPC  H14R 6865   3.324   0.474   7.785
   76SLPC  H14S 6866   3.154   0.497   7.795
   76SLPC  C215 6867   3.309   0.636   7.810
   76SLPC  H15R 6868   3.232   0.670   7.754
   76SLPC  H15S 6869   3.367   0.690   7.747
   76SLPC  C216 6870   3.298   0.669   7.960
   76SLPC  H16R 6871   3.401   0.639   7.982
   76SLPC  H16S 6872   3.227   0.597   8.006
   76SLPC  C217 6873   3.262   0.807   8.032
   76SLPC  H17R 6874   3.303   0.806   8.133
   76SLPC  H17S 6875   3.158   0.823   8.045
   76SLPC  C218 6876   3.280   0.947   7.976
   76SLPC  H18R 6877   3.251   0.974   7.875
   76SLPC  H18S 6878   3.377   0.943   7.950
   76SLPC  H18T 6879   3.296   1.036   8.025
   76SLPC   C33 6880   2.651   1.198   6.847
   76SLPC   H3X 6881   2.691   1.170   6.949
   76SLPC   H3Y 6882   2.676   1.115   6.777
   76SLPC   C34 6883   2.506   1.205   6.873
   76SLPC   H4X 6884   2.466   1.255   6.782
   76SLPC   H4Y 6885   2.501   1.276   6.955
   76SLPC   C35 6886   2.431   1.074   6.895
   76SLPC   H5X 6887   2.479   0.988   6.848
   76SLPC   H5Y 6888   2.330   1.095   6.853
   76SLPC   C36 6889   2.410   1.029   7.038
   76SLPC   H6X 6890   2.336   1.102   7.060
   76SLPC   H6Y 6891   2.503   1.036   7.099
   76SLPC   C37 6892   2.296   0.936   7.092
   76SLPC   H7X 6893   2.347   0.841   7.076
   76SLPC   H7Y 6894   2.206   0.952   7.030
   76SLPC   C38 6895   2.248   0.941   7.242
   76SLPC   H8X 6896   2.152   0.890   7.258
   76SLPC   H8Y 6897   2.220   1.043   7.278
   76SLPC   C39 6898   2.361   0.880   7.331
   76SLPC   H9X 6899   2.458   0.935   7.331
   76SLPC   H9Y 6900   2.381   0.780   7.289
   76SLPC  C310 6901   2.323   0.855   7.474
   76SLPC  H10X 6902   2.376   0.773   7.524
   76SLPC  H10Y 6903   2.211   0.842   7.480
   76SLPC  C311 6904   2.359   0.956   7.578
   76SLPC  H11X 6905   2.307   0.917   7.665
   76SLPC  H11Y 6906   2.293   1.022   7.535
   76SLPC  C312 6907   2.475   1.054   7.600
   76SLPC  H12X 6908   2.441   1.154   7.642
   76SLPC  H12Y 6909   2.535   1.081   7.509
   76SLPC  C313 6910   2.564   0.980   7.683
   76SLPC  H13X 6911   2.578   0.887   7.622
   76SLPC  H13Y 6912   2.508   0.962   7.777
   76SLPC  C314 6913   2.688   1.061   7.693
   76SLPC  H14X 6914   2.709   1.121   7.601
   76SLPC  H14Y 6915   2.767   0.984   7.704
   76SLPC  C315 6916   2.678   1.151   7.815
   76SLPC  H15X 6917   2.681   1.083   7.902
   76SLPC  H15Y 6918   2.578   1.202   7.821
   76SLPC  C316 6919   2.791   1.254   7.819
   76SLPC  H16X 6920   2.805   1.284   7.925
   76SLPC  H16Y 6921   2.768   1.343   7.757
   76SLPC  C317 6922   2.930   1.205   7.785
   76SLPC  H17X 6923   2.998   1.292   7.783
   76SLPC  H17Y 6924   2.929   1.153   7.687
   76SLPC  C318 6925   2.984   1.114   7.892
   76SLPC  H18X 6926   3.084   1.079   7.862
   76SLPC  H18Y 6927   2.916   1.029   7.893
   76SLPC  H18Z 6928   2.993   1.155   7.994
   77SLPC     N 6929   6.050   1.655   6.473
   77SLPC   C13 6930   6.179   1.626   6.407
   77SLPC  H13A 6931   6.187   1.678   6.312
   77SLPC  H13B 6932   6.262   1.652   6.471
   77SLPC  H13C 6933   6.182   1.521   6.379
   77SLPC   C14 6934   6.060   1.793   6.529
   77SLPC  H14A 6935   5.977   1.816   6.594
   77SLPC  H14B 6936   6.154   1.803   6.581
   77SLPC  H14C 6937   6.059   1.866   6.448
   77SLPC   C15 6938   6.023   1.556   6.581
   77SLPC  H15A 6939   5.922   1.566   6.619
   77SLPC  H15B 6940   6.031   1.456   6.540
   77SLPC  H15C 6941   6.090   1.568   6.665
   77SLPC   C12 6942   5.939   1.656   6.368
   77SLPC  H12A 6943   5.959   1.738   6.301
   77SLPC  H12B 6944   5.847   1.685   6.417
   77SLPC   C11 6945   5.904   1.533   6.281
   77SLPC  H11A 6946   5.831   1.564   6.202
   77SLPC  H11B 6947   5.849   1.456   6.341
   77SLPC     P 6948   6.003   1.353   6.126
   77SLPC   O13 6949   6.033   1.391   5.986
   77SLPC   O14 6950   6.082   1.245   6.187
   77SLPC   O12 6951   6.021   1.478   6.222
   77SLPC   O11 6952   5.850   1.320   6.136
   77SLPC    C1 6953   5.792   1.194   6.105
   77SLPC    HA 6954   5.715   1.213   6.028
   77SLPC    HB 6955   5.867   1.122   6.066
   77SLPC    C2 6956   5.720   1.130   6.227
   77SLPC    HS 6957   5.625   1.083   6.192
   77SLPC   O21 6958   5.694   1.230   6.323
   77SLPC   C21 6959   5.623   1.198   6.426
   77SLPC   O22 6960   5.560   1.096   6.444
   77SLPC   C22 6961   5.617   1.319   6.508
   77SLPC   H2R 6962   5.596   1.389   6.422
   77SLPC   H2S 6963   5.524   1.327   6.568
   77SLPC    C3 6964   5.806   1.020   6.292
   77SLPC    HX 6965   5.836   0.950   6.212
   77SLPC    HY 6966   5.742   0.968   6.366
   77SLPC   O31 6967   5.924   1.080   6.348
   77SLPC   C31 6968   5.962   1.031   6.462
   77SLPC   O32 6969   5.911   0.935   6.518
   77SLPC   C32 6970   6.081   1.118   6.509
   77SLPC   H2X 6971   6.039   1.212   6.547
   77SLPC   H2Y 6972   6.148   1.129   6.424
   77SLPC   C23 6973   5.751   1.347   6.584
   77SLPC   H3R 6974   5.774   1.453   6.596
   77SLPC   H3S 6975   5.839   1.316   6.527
   77SLPC   C24 6976   5.768   1.312   6.732
   77SLPC   H4R 6977   5.690   1.355   6.778
   77SLPC   H4S 6978   5.835   1.379   6.788
   77SLPC   C25 6979   5.722   1.181   6.790
   77SLPC   H5R 6980   5.807   1.122   6.754
   77SLPC   H5S 6981   5.626   1.146   6.744
   77SLPC   C26 6982   5.710   1.180   6.944
   77SLPC   H6R 6983   5.709   1.072   6.971
   77SLPC   H6S 6984   5.612   1.217   6.983
   77SLPC   C27 6985   5.820   1.259   7.021
   77SLPC   H7R 6986   5.820   1.367   6.992
   77SLPC   H7S 6987   5.919   1.218   6.993
   77SLPC   C28 6988   5.801   1.259   7.173
   77SLPC   H8R 6989   5.700   1.302   7.192
   77SLPC   H8S 6990   5.872   1.327   7.225
   77SLPC   C29 6991   5.814   1.118   7.224
   77SLPC   H9R 6992   5.755   1.043   7.170
   77SLPC  C210 6993   5.885   1.074   7.328
   77SLPC  H10R 6994   5.868   0.970   7.356
   77SLPC  C211 6995   5.970   1.156   7.420
   77SLPC  H11R 6996   6.004   1.247   7.367
   77SLPC  H11S 6997   6.061   1.096   7.441
   77SLPC  C212 6998   5.906   1.208   7.547
   77SLPC  H12R 6999   5.855   1.304   7.537
   77SLPC  C213 7000   5.907   1.153   7.669
   77SLPC  H13R 7001   5.859   1.202   7.753
   77SLPC  C214 7002   5.972   1.027   7.704
   77SLPC  H14R 7003   6.043   1.037   7.788
   77SLPC  H14S 7004   6.033   0.992   7.617
   77SLPC  C215 7005   5.863   0.936   7.761
   77SLPC  H15R 7006   5.781   0.908   7.694
   77SLPC  H15S 7007   5.809   0.963   7.850
   77SLPC  C216 7008   5.929   0.818   7.811
   77SLPC  H16R 7009   5.843   0.746   7.810
   77SLPC  H16S 7010   5.990   0.819   7.905
   77SLPC  C217 7011   6.009   0.788   7.696
   77SLPC  H17R 7012   6.079   0.712   7.740
   77SLPC  H17S 7013   6.116   0.820   7.687
   77SLPC  C218 7014   5.904   0.782   7.559
   77SLPC  H18R 7015   5.829   0.697   7.538
   77SLPC  H18S 7016   5.942   0.745   7.466
   77SLPC  H18T 7017   5.898   0.870   7.501
   77SLPC   C33 7018   6.154   1.052   6.621
   77SLPC   H3X 7019   6.202   0.962   6.581
   77SLPC   H3Y 7020   6.072   1.049   6.695
   77SLPC   C34 7021   6.260   1.100   6.712
   77SLPC   H4X 7022   6.341   1.112   6.641
   77SLPC   H4Y 7023   6.277   1.011   6.776
   77SLPC   C35 7024   6.216   1.213   6.800
   77SLPC   H5X 7025   6.121   1.188   6.852
   77SLPC   H5Y 7026   6.196   1.294   6.728
   77SLPC   C36 7027   6.315   1.244   6.911
   77SLPC   H6X 7028   6.409   1.232   6.852
   77SLPC   H6Y 7029   6.318   1.173   6.995
   77SLPC   C37 7030   6.314   1.385   6.972
   77SLPC   H7X 7031   6.361   1.437   6.894
   77SLPC   H7Y 7032   6.385   1.406   7.052
   77SLPC   C38 7033   6.189   1.465   6.994
   77SLPC   H8X 7034   6.166   1.437   7.099
   77SLPC   H8Y 7035   6.115   1.432   6.920
   77SLPC   C39 7036   6.205   1.619   6.991
   77SLPC   H9X 7037   6.228   1.656   6.890
   77SLPC   H9Y 7038   6.286   1.652   7.061
   77SLPC  C310 7039   6.077   1.696   7.009
   77SLPC  H10X 7040   6.013   1.673   6.921
   77SLPC  H10Y 7041   6.102   1.805   7.006
   77SLPC  C311 7042   6.009   1.655   7.138
   77SLPC  H11X 7043   6.079   1.662   7.224
   77SLPC  H11Y 7044   5.975   1.549   7.128
   77SLPC  C312 7045   5.894   1.748   7.173
   77SLPC  H12X 7046   5.813   1.742   7.098
   77SLPC  H12Y 7047   5.934   1.852   7.175
   77SLPC  C313 7048   5.842   1.722   7.314
   77SLPC  H13X 7049   5.766   1.799   7.338
   77SLPC  H13Y 7050   5.922   1.726   7.392
   77SLPC  C314 7051   5.779   1.588   7.327
   77SLPC  H14X 7052   5.852   1.505   7.319
   77SLPC  H14Y 7053   5.702   1.574   7.247
   77SLPC  C315 7054   5.725   1.579   7.467
   77SLPC  H15X 7055   5.709   1.667   7.531
   77SLPC  H15Y 7056   5.776   1.493   7.519
   77SLPC  C316 7057   5.595   1.525   7.451
   77SLPC  H16X 7058   5.620   1.450   7.379
   77SLPC  H16Y 7059   5.520   1.585   7.398
   77SLPC  C317 7060   5.567   1.470   7.584
   77SLPC  H17X 7061   5.471   1.420   7.567
   77SLPC  H17Y 7062   5.578   1.550   7.663
   77SLPC  C318 7063   5.604   1.350   7.654
   77SLPC  H18X 7064   5.532   1.375   7.734
   77SLPC  H18Y 7065   5.708   1.354   7.683
   77SLPC  H18Z 7066   5.562   1.252   7.638
   78SLPC     N 7067   1.363   0.890   6.113
   78SLPC   C13 7068   1.216   0.889   6.081
   78SLPC  H13A 7069   1.194   0.932   5.985
   78SLPC  H13B 7070   1.170   0.790   6.088
   78SLPC  H13C 7071   1.164   0.948   6.157
   78SLPC   C14 7072   1.408   1.033   6.102
   78SLPC  H14A 7073   1.388   1.067   6.001
   78SLPC  H14B 7074   1.348   1.090   6.172
   78SLPC  H14C 7075   1.513   1.044   6.124
   78SLPC   C15 7076   1.439   0.804   6.016
   78SLPC  H15A 7077   1.546   0.812   6.031
   78SLPC  H15B 7078   1.414   0.698   6.030
   78SLPC  H15C 7079   1.416   0.829   5.913
   78SLPC   C12 7080   1.384   0.830   6.250
   78SLPC  H12A 7081   1.490   0.823   6.270
   78SLPC  H12B 7082   1.345   0.729   6.245
   78SLPC   C11 7083   1.316   0.896   6.373
   78SLPC  H11A 7084   1.336   1.005   6.375
   78SLPC  H11B 7085   1.365   0.853   6.464
   78SLPC     P 7086   1.114   0.774   6.478
   78SLPC   O13 7087   1.127   0.640   6.418
   78SLPC   O14 7088   1.178   0.794   6.610
   78SLPC   O12 7089   1.175   0.877   6.372
   78SLPC   O11 7090   0.960   0.819   6.484
   78SLPC    C1 7091   0.889   0.815   6.359
   78SLPC    HA 7092   0.930   0.892   6.290
   78SLPC    HB 7093   0.897   0.714   6.312
   78SLPC    C2 7094   0.735   0.834   6.370
   78SLPC    HS 7095   0.689   0.854   6.271
   78SLPC   O21 7096   0.700   0.942   6.448
   78SLPC   C21 7097   0.767   1.049   6.431
   78SLPC   O22 7098   0.825   1.094   6.335
   78SLPC   C22 7099   0.740   1.123   6.549
   78SLPC   H2R 7100   0.728   1.221   6.507
   78SLPC   H2S 7101   0.653   1.075   6.600
   78SLPC    C3 7102   0.661   0.715   6.434
   78SLPC    HX 7103   0.675   0.627   6.368
   78SLPC    HY 7104   0.553   0.738   6.436
   78SLPC   O31 7105   0.702   0.694   6.570
   78SLPC   C31 7106   0.796   0.603   6.588
   78SLPC   O32 7107   0.833   0.521   6.505
   78SLPC   C32 7108   0.826   0.603   6.736
   78SLPC   H2X 7109   0.731   0.587   6.792
   78SLPC   H2Y 7110   0.877   0.695   6.768
   78SLPC   C23 7111   0.842   1.164   6.647
   78SLPC   H3R 7112   0.809   1.251   6.707
   78SLPC   H3S 7113   0.927   1.199   6.587
   78SLPC   C24 7114   0.854   1.050   6.737
   78SLPC   H4R 7115   0.861   0.961   6.673
   78SLPC   H4S 7116   0.760   1.041   6.796
   78SLPC   C25 7117   0.981   1.061   6.813
   78SLPC   H5R 7118   0.972   1.139   6.888
   78SLPC   H5S 7119   1.064   1.084   6.743
   78SLPC   C26 7120   1.014   0.947   6.903
   78SLPC   H6R 7121   1.102   0.978   6.963
   78SLPC   H6S 7122   1.046   0.862   6.841
   78SLPC   C27 7123   0.896   0.896   6.988
   78SLPC   H7R 7124   0.948   0.829   7.064
   78SLPC   H7S 7125   0.833   0.833   6.927
   78SLPC   C28 7126   0.776   0.984   7.030
   78SLPC   H8R 7127   0.704   0.932   7.092
   78SLPC   H8S 7128   0.743   1.072   6.971
   78SLPC   C29 7129   0.865   1.025   7.120
   78SLPC   H9R 7130   0.830   1.138   7.096
   78SLPC  C210 7131   0.868   0.995   7.249
   78SLPC  H10R 7132   0.880   1.101   7.236
   78SLPC  C211 7133   0.795   0.926   7.383
   78SLPC  H11R 7134   0.681   0.921   7.401
   78SLPC  H11S 7135   0.771   1.000   7.465
   78SLPC  C212 7136   0.839   0.842   7.485
   78SLPC  H12R 7137   0.834   0.755   7.425
   78SLPC  C213 7138   0.864   0.857   7.615
   78SLPC  H13R 7139   0.921   0.777   7.655
   78SLPC  C214 7140   0.853   0.981   7.700
   78SLPC  H14R 7141   0.808   1.063   7.645
   78SLPC  H14S 7142   0.948   1.004   7.751
   78SLPC  C215 7143   0.746   1.007   7.799
   78SLPC  H15R 7144   0.755   0.917   7.830
   78SLPC  H15S 7145   0.645   0.979   7.778
   78SLPC  C216 7146   0.774   1.082   7.921
   78SLPC  H16R 7147   0.879   1.090   7.960
   78SLPC  H16S 7148   0.701   1.031   7.990
   78SLPC  C217 7149   0.708   1.209   7.911
   78SLPC  H17R 7150   0.601   1.181   7.904
   78SLPC  H17S 7151   0.727   1.283   7.837
   78SLPC  C218 7152   0.752   1.297   8.014
   78SLPC  H18R 7153   0.736   1.225   8.094
   78SLPC  H18S 7154   0.690   1.388   8.002
   78SLPC  H18T 7155   0.847   1.336   8.041
   78SLPC   C33 7156   0.916   0.488   6.768
   78SLPC   H3X 7157   1.015   0.489   6.717
   78SLPC   H3Y 7158   0.851   0.404   6.732
   78SLPC   C34 7159   0.937   0.468   6.916
   78SLPC   H4X 7160   0.965   0.365   6.914
   78SLPC   H4Y 7161   0.842   0.473   6.973
   78SLPC   C35 7162   1.054   0.545   6.977
   78SLPC   H5X 7163   1.055   0.643   6.926
   78SLPC   H5Y 7164   1.152   0.496   6.957
   78SLPC   C36 7165   1.034   0.561   7.128
   78SLPC   H6X 7166   1.037   0.459   7.174
   78SLPC   H6Y 7167   0.931   0.599   7.143
   78SLPC   C37 7168   1.130   0.661   7.198
   78SLPC   H7X 7169   1.102   0.663   7.306
   78SLPC   H7Y 7170   1.127   0.760   7.151
   78SLPC   C38 7171   1.279   0.632   7.179
   78SLPC   H8X 7172   1.298   0.580   7.085
   78SLPC   H8Y 7173   1.287   0.577   7.271
   78SLPC   C39 7174   1.404   0.707   7.222
   78SLPC   H9X 7175   1.420   0.782   7.144
   78SLPC   H9Y 7176   1.489   0.632   7.223
   78SLPC  C310 7177   1.398   0.763   7.363
   78SLPC  H10X 7178   1.500   0.788   7.397
   78SLPC  H10Y 7179   1.357   0.689   7.434
   78SLPC  C311 7180   1.303   0.880   7.369
   78SLPC  H11X 7181   1.200   0.846   7.345
   78SLPC  H11Y 7182   1.338   0.956   7.299
   78SLPC  C312 7183   1.296   0.944   7.504
   78SLPC  H12X 7184   1.234   1.034   7.505
   78SLPC  H12Y 7185   1.398   0.962   7.548
   78SLPC  C313 7186   1.220   0.855   7.593
   78SLPC  H13X 7187   1.293   0.776   7.587
   78SLPC  H13Y 7188   1.127   0.807   7.560
   78SLPC  C314 7189   1.203   0.925   7.725
   78SLPC  H14X 7190   1.148   1.019   7.720
   78SLPC  H14Y 7191   1.303   0.957   7.762
   78SLPC  C315 7192   1.123   0.845   7.822
   78SLPC  H15X 7193   1.165   0.762   7.876
   78SLPC  H15Y 7194   1.045   0.779   7.781
   78SLPC  C316 7195   1.100   0.928   7.936
   78SLPC  H16X 7196   1.076   1.033   7.922
   78SLPC  H16Y 7197   1.174   0.964   7.991
   78SLPC  C317 7198   1.074   0.830   8.042
   78SLPC  H17X 7199   1.043   0.730   8.017
   78SLPC  H17Y 7200   0.994   0.897   8.020
   78SLPC  C318 7201   1.086   0.830   8.186
   78SLPC  H18X 7202   1.074   0.934   8.192
   78SLPC  H18Y 7203   1.171   0.800   8.239
   78SLPC  H18Z 7204   1.011   0.772   8.242
   79SLPC     N 7205   7.078   3.128   6.253
   79SLPC   C13 7206   6.934   3.134   6.216
   79SLPC  H13A 7207   6.919   3.196   6.128
   79SLPC  H13B 7208   6.899   3.036   6.188
   79SLPC  H13C 7209   6.872   3.171   6.297
   79SLPC   C14 7210   7.145   3.063   6.136
   79SLPC  H14A 7211   7.116   2.959   6.130
   79SLPC  H14B 7212   7.115   3.114   6.046
   79SLPC  H14C 7213   7.254   3.070   6.145
   79SLPC   C15 7214   7.100   3.044   6.377
   79SLPC  H15A 7215   7.037   3.074   6.460
   79SLPC  H15B 7216   7.080   2.939   6.359
   79SLPC  H15C 7217   7.204   3.053   6.413
   79SLPC   C12 7218   7.131   3.271   6.272
   79SLPC  H12A 7219   7.103   3.306   6.371
   79SLPC  H12B 7220   7.077   3.331   6.202
   79SLPC   C11 7221   7.281   3.305   6.251
   79SLPC  H11A 7222   7.300   3.411   6.281
   79SLPC  H11B 7223   7.311   3.296   6.144
   79SLPC     P 7224   7.516   3.247   6.351
   79SLPC   O13 7225   7.577   3.115   6.358
   79SLPC   O14 7226   7.567   3.351   6.258
   79SLPC   O12 7227   7.361   3.219   6.326
   79SLPC   O11 7228   7.506   3.316   6.492
   79SLPC    C1 7229   7.586   3.285   6.606
   79SLPC    HA 7230   7.695   3.288   6.584
   79SLPC    HB 7231   7.566   3.368   6.677
   79SLPC    C2 7232   7.540   3.157   6.681
   79SLPC    HS 7233   7.597   3.070   6.639
   79SLPC   O21 7234   7.398   3.139   6.659
   79SLPC   C21 7235   7.349   3.021   6.686
   79SLPC   O22 7236   7.412   2.922   6.720
   79SLPC   C22 7237   7.196   3.030   6.687
   79SLPC   H2R 7238   7.165   3.117   6.626
   79SLPC   H2S 7239   7.156   2.937   6.645
   79SLPC    C3 7240   7.572   3.170   6.834
   79SLPC    HX 7241   7.678   3.205   6.837
   79SLPC    HY 7242   7.566   3.071   6.883
   79SLPC   O31 7243   7.482   3.263   6.900
   79SLPC   C31 7244   7.521   3.314   7.017
   79SLPC   O32 7245   7.627   3.291   7.071
   79SLPC   C32 7246   7.416   3.411   7.071
   79SLPC   H2X 7247   7.321   3.390   7.019
   79SLPC   H2Y 7248   7.451   3.514   7.047
   79SLPC   C23 7249   7.151   3.054   6.834
   79SLPC   H3R 7250   7.204   3.146   6.866
   79SLPC   H3S 7251   7.190   2.970   6.896
   79SLPC   C24 7252   6.999   3.067   6.857
   79SLPC   H4R 7253   6.956   2.965   6.846
   79SLPC   H4S 7254   6.950   3.129   6.778
   79SLPC   C25 7255   6.958   3.127   6.995
   79SLPC   H5R 7256   6.853   3.099   7.018
   79SLPC   H5S 7257   6.958   3.238   6.990
   79SLPC   C26 7258   7.039   3.082   7.119
   79SLPC   H6R 7259   7.148   3.095   7.102
   79SLPC   H6S 7260   7.023   2.974   7.136
   79SLPC   C27 7261   6.992   3.157   7.245
   79SLPC   H7R 7262   6.881   3.151   7.250
   79SLPC   H7S 7263   7.018   3.265   7.243
   79SLPC   C28 7264   7.051   3.110   7.378
   79SLPC   H8R 7265   7.002   3.166   7.459
   79SLPC   H8S 7266   7.156   3.148   7.379
   79SLPC   C29 7267   7.039   2.965   7.411
   79SLPC   H9R 7268   6.940   2.918   7.424
   79SLPC  C210 7269   7.146   2.890   7.426
   79SLPC  H10R 7270   7.138   2.784   7.453
   79SLPC  C211 7271   7.283   2.943   7.410
   79SLPC  H11R 7272   7.313   3.042   7.370
   79SLPC  H11S 7273   7.298   2.892   7.312
   79SLPC  C212 7274   7.364   2.895   7.529
   79SLPC  H12R 7275   7.361   2.787   7.537
   79SLPC  C213 7276   7.471   2.950   7.589
   79SLPC  H13R 7277   7.549   2.884   7.630
   79SLPC  C214 7278   7.528   3.080   7.551
   79SLPC  H14R 7279   7.482   3.130   7.464
   79SLPC  H14S 7280   7.634   3.082   7.539
   79SLPC  C215 7281   7.494   3.151   7.679
   79SLPC  H15R 7282   7.519   3.257   7.662
   79SLPC  H15S 7283   7.551   3.114   7.768
   79SLPC  C216 7284   7.345   3.136   7.706
   79SLPC  H16R 7285   7.319   3.037   7.752
   79SLPC  H16S 7286   7.288   3.146   7.610
   79SLPC  C217 7287   7.303   3.236   7.802
   79SLPC  H17R 7288   7.341   3.338   7.778
   79SLPC  H17S 7289   7.343   3.209   7.904
   79SLPC  C218 7290   7.154   3.229   7.799
   79SLPC  H18R 7291   7.102   3.143   7.843
   79SLPC  H18S 7292   7.102   3.280   7.716
   79SLPC  H18T 7293   7.147   3.288   7.883
   79SLPC   C33 7294   7.387   3.403   7.222
   79SLPC   H3X 7295   7.467   3.454   7.281
   79SLPC   H3Y 7296   7.379   3.296   7.252
   79SLPC   C34 7297   7.258   3.473   7.266
   79SLPC   H4X 7298   7.168   3.439   7.210
   79SLPC   H4Y 7299   7.268   3.582   7.248
   79SLPC   C35 7300   7.241   3.454   7.416
   79SLPC   H5X 7301   7.342   3.444   7.464
   79SLPC   H5Y 7302   7.187   3.359   7.439
   79SLPC   C36 7303   7.169   3.572   7.479
   79SLPC   H6X 7304   7.088   3.607   7.412
   79SLPC   H6Y 7305   7.240   3.657   7.493
   79SLPC   C37 7306   7.106   3.532   7.610
   79SLPC   H7X 7307   7.185   3.493   7.677
   79SLPC   H7Y 7308   7.034   3.449   7.591
   79SLPC   C38 7309   7.027   3.646   7.674
   79SLPC   H8X 7310   6.979   3.606   7.766
   79SLPC   H8Y 7311   6.944   3.676   7.606
   79SLPC   C39 7312   7.111   3.769   7.713
   79SLPC   H9X 7313   7.044   3.834   7.773
   79SLPC   H9Y 7314   7.140   3.823   7.621
   79SLPC  C310 7315   7.242   3.744   7.791
   79SLPC  H10X 7316   7.295   3.836   7.819
   79SLPC  H10Y 7317   7.309   3.675   7.733
   79SLPC  C311 7318   7.220   3.671   7.920
   79SLPC  H11X 7319   7.180   3.590   7.858
   79SLPC  H11Y 7320   7.140   3.711   7.987
   79SLPC  C312 7321   7.347   3.623   7.994
   79SLPC  H12X 7322   7.378   3.716   8.045
   79SLPC  H12Y 7323   7.416   3.582   7.919
   79SLPC  C313 7324   7.346   3.511   8.098
   79SLPC  H13X 7325   7.306   3.416   8.064
   79SLPC  H13Y 7326   7.292   3.559   8.174
   79SLPC  C314 7327   7.473   3.449   8.151
   79SLPC  H14X 7328   7.534   3.534   8.185
   79SLPC  H14Y 7329   7.510   3.398   8.059
   79SLPC  C315 7330   7.466   3.348   8.268
   79SLPC  H15X 7331   7.443   3.399   8.364
   79SLPC  H15Y 7332   7.566   3.299   8.272
   79SLPC  C316 7333   7.369   3.234   8.258
   79SLPC  H16X 7334   7.354   3.198   8.153
   79SLPC  H16Y 7335   7.275   3.263   8.303
   79SLPC  C317 7336   7.360   3.136   8.369
   79SLPC  H17X 7337   7.307   3.163   8.464
   79SLPC  H17Y 7338   7.464   3.103   8.388
   79SLPC  C318 7339   7.275   3.033   8.313
   79SLPC  H18X 7340   7.329   2.951   8.364
   79SLPC  H18Y 7341   7.293   3.023   8.204
   79SLPC  H18Z 7342   7.166   3.021   8.332
   80SLPC     N 7343   6.517   1.219   6.452
   80SLPC   C13 7344   6.378   1.230   6.400
   80SLPC  H13A 7345   6.314   1.150   6.426
   80SLPC  H13B 7346   6.334   1.325   6.432
   80SLPC  H13C 7347   6.387   1.244   6.291
   80SLPC   C14 7348   6.539   1.227   6.605
   80SLPC  H14A 7349   6.641   1.225   6.642
   80SLPC  H14B 7350   6.497   1.315   6.649
   80SLPC  H14C 7351   6.484   1.151   6.659
   80SLPC   C15 7352   6.567   1.320   6.364
   80SLPC  H15A 7353   6.587   1.310   6.258
   80SLPC  H15B 7354   6.514   1.411   6.382
   80SLPC  H15C 7355   6.671   1.343   6.386
   80SLPC   C12 7356   6.598   1.112   6.406
   80SLPC  H12A 7357   6.570   1.037   6.474
   80SLPC  H12B 7358   6.704   1.135   6.422
   80SLPC   C11 7359   6.573   1.055   6.270
   80SLPC  H11A 7360   6.468   1.020   6.261
   80SLPC  H11B 7361   6.640   0.970   6.268
   80SLPC     P 7362   6.759   1.153   6.125
   80SLPC   O13 7363   6.813   1.040   6.050
   80SLPC   O14 7364   6.768   1.282   6.061
   80SLPC   O12 7365   6.607   1.136   6.163
   80SLPC   O11 7366   6.829   1.156   6.268
   80SLPC    C1 7367   6.956   1.095   6.289
   80SLPC    HA 7368   6.961   0.993   6.241
   80SLPC    HB 7369   7.038   1.157   6.247
   80SLPC    C2 7370   6.975   1.075   6.440
   80SLPC    HS 7371   6.892   1.003   6.465
   80SLPC   O21 7372   6.961   1.201   6.509
   80SLPC   C21 7373   6.905   1.186   6.629
   80SLPC   O22 7374   6.850   1.086   6.667
   80SLPC   C22 7375   6.911   1.309   6.716
   80SLPC   H2R 7376   6.805   1.335   6.738
   80SLPC   H2S 7377   6.960   1.290   6.811
   80SLPC    C3 7378   7.112   1.012   6.476
   80SLPC    HX 7379   7.192   1.082   6.443
   80SLPC    HY 7380   7.129   0.916   6.422
   80SLPC   O31 7381   7.126   1.000   6.619
   80SLPC   C31 7382   7.065   0.895   6.669
   80SLPC   O32 7383   7.011   0.807   6.605
   80SLPC   C32 7384   7.068   0.906   6.820
   80SLPC   H2X 7385   7.036   1.007   6.849
   80SLPC   H2Y 7386   7.170   0.875   6.847
   80SLPC   C23 7387   6.993   1.416   6.649
   80SLPC   H3R 7388   6.921   1.436   6.577
   80SLPC   H3S 7389   7.081   1.385   6.589
   80SLPC   C24 7390   7.009   1.551   6.710
   80SLPC   H4R 7391   7.091   1.594   6.654
   80SLPC   H4S 7392   7.024   1.551   6.819
   80SLPC   C25 7393   6.909   1.652   6.676
   80SLPC   H5R 7394   6.883   1.673   6.571
   80SLPC   H5S 7395   6.933   1.752   6.707
   80SLPC   C26 7396   6.798   1.655   6.758
   80SLPC   H6R 7397   6.734   1.620   6.685
   80SLPC   H6S 7398   6.756   1.755   6.726
   80SLPC   C27 7399   6.789   1.589   6.904
   80SLPC   H7R 7400   6.842   1.667   6.958
   80SLPC   H7S 7401   6.846   1.495   6.905
   80SLPC   C28 7402   6.660   1.553   6.993
   80SLPC   H8R 7403   6.563   1.604   7.005
   80SLPC   H8S 7404   6.667   1.572   7.101
   80SLPC   C29 7405   6.610   1.428   6.932
   80SLPC   H9R 7406   6.555   1.427   6.838
   80SLPC  C210 7407   6.612   1.317   6.993
   80SLPC  H10R 7408   6.567   1.239   6.937
   80SLPC  C211 7409   6.664   1.303   7.128
   80SLPC  H11R 7410   6.719   1.394   7.157
   80SLPC  H11S 7411   6.739   1.225   7.113
   80SLPC  C212 7412   6.562   1.280   7.236
   80SLPC  H12R 7413   6.461   1.323   7.222
   80SLPC  C213 7414   6.591   1.212   7.346
   80SLPC  H13R 7415   6.517   1.193   7.424
   80SLPC  C214 7416   6.724   1.150   7.376
   80SLPC  H14R 7417   6.792   1.209   7.439
   80SLPC  H14S 7418   6.781   1.125   7.281
   80SLPC  C215 7419   6.699   1.021   7.454
   80SLPC  H15R 7420   6.783   0.953   7.425
   80SLPC  H15S 7421   6.600   0.991   7.415
   80SLPC  C216 7422   6.626   0.987   7.580
   80SLPC  H16R 7423   6.604   0.877   7.590
   80SLPC  H16S 7424   6.524   1.028   7.586
   80SLPC  C217 7425   6.726   1.021   7.677
   80SLPC  H17R 7426   6.750   1.127   7.663
   80SLPC  H17S 7427   6.818   0.968   7.639
   80SLPC  C218 7428   6.671   0.984   7.812
   80SLPC  H18R 7429   6.580   1.036   7.837
   80SLPC  H18S 7430   6.750   1.002   7.890
   80SLPC  H18T 7431   6.654   0.873   7.810
   80SLPC   C33 7432   6.976   0.807   6.885
   80SLPC   H3X 7433   7.030   0.716   6.858
   80SLPC   H3Y 7434   6.874   0.820   6.847
   80SLPC   C34 7435   6.958   0.770   7.030
   80SLPC   H4X 7436   6.876   0.701   7.059
   80SLPC   H4Y 7437   6.932   0.870   7.070
   80SLPC   C35 7438   7.075   0.695   7.086
   80SLPC   H5X 7439   7.147   0.752   7.027
   80SLPC   H5Y 7440   7.136   0.610   7.051
   80SLPC   C36 7441   7.065   0.690   7.238
   80SLPC   H6X 7442   7.158   0.633   7.262
   80SLPC   H6Y 7443   6.975   0.652   7.285
   80SLPC   C37 7444   7.054   0.820   7.315
   80SLPC   H7X 7445   7.001   0.905   7.262
   80SLPC   H7Y 7446   7.163   0.811   7.304
   80SLPC   C38 7447   7.030   0.840   7.464
   80SLPC   H8X 7448   6.931   0.816   7.465
   80SLPC   H8Y 7449   7.034   0.927   7.531
   80SLPC   C39 7450   7.110   0.758   7.547
   80SLPC   H9X 7451   7.190   0.816   7.567
   80SLPC   H9Y 7452   7.120   0.667   7.487
   80SLPC  C310 7453   7.148   0.765   7.698
   80SLPC  H10X 7454   7.176   0.656   7.704
   80SLPC  H10Y 7455   7.112   0.733   7.785
   80SLPC  C311 7456   7.188   0.898   7.783
   80SLPC  H11X 7457   7.150   0.985   7.731
   80SLPC  H11Y 7458   7.295   0.928   7.786
   80SLPC  C312 7459   7.157   0.906   7.935
   80SLPC  H12X 7460   7.175   0.823   8.005
   80SLPC  H12Y 7461   7.053   0.942   7.953
   80SLPC  C313 7462   7.270   0.989   7.994
   80SLPC  H13X 7463   7.252   1.050   7.899
   80SLPC  H13Y 7464   7.361   1.033   7.955
   80SLPC  C314 7465   7.236   1.037   8.141
   80SLPC  H14X 7466   7.289   0.997   8.227
   80SLPC  H14Y 7467   7.141   0.968   8.157
   80SLPC  C315 7468   7.228   1.215   8.182
   80SLPC  H15X 7469   7.289   1.288   8.176
   80SLPC  H15Y 7470   7.183   1.149   8.275
   80SLPC  C316 7471   7.040   1.385   8.087
   80SLPC  H16X 7472   7.075   1.425   8.002
   80SLPC  H16Y 7473   7.006   1.470   8.142
   80SLPC  C317 7474   6.858   1.333   8.104
   80SLPC  H17X 7475   6.817   1.243   8.040
   80SLPC  H17Y 7476   6.793   1.412   8.077
   80SLPC  C318 7477   6.800   1.245   8.225
   80SLPC  H18X 7478   6.777   1.305   8.310
   80SLPC  H18Y 7479   6.866   1.166   8.276
   80SLPC  H18Z 7480   6.730   1.178   8.185
   81SAPS     N 7481   3.961   4.417  10.071
   81SAPS   HN1 7482   3.948   4.469   9.982
   81SAPS   HN2 7483   3.867   4.397  10.113
   81SAPS   HN3 7484   4.023   4.467  10.136
   81SAPS   C12 7485   4.018   4.283  10.032
   81SAPS  H12A 7486   4.023   4.228  10.124
   81SAPS   C13 7487   3.918   4.203   9.944
   81SAPS  O13A 7488   3.799   4.247   9.946
   81SAPS  O13B 7489   3.948   4.084   9.918
   81SAPS   C11 7490   4.162   4.292   9.970
   81SAPS  H11A 7491   4.161   4.352   9.876
   81SAPS  H11B 7492   4.197   4.191   9.938
   81SAPS     P 7493   4.350   4.461  10.036
   81SAPS   O13 7494   4.261   4.580  10.034
   81SAPS   O14 7495   4.463   4.454  10.131
   81SAPS   O12 7496   4.253   4.340  10.069
   81SAPS   O11 7497   4.386   4.425   9.886
   81SAPS    C1 7498   4.512   4.379   9.844
   81SAPS    HA 7499   4.586   4.441   9.895
   81SAPS    HB 7500   4.526   4.271   9.869
   81SAPS    C2 7501   4.535   4.397   9.693
   81SAPS    HS 7502   4.642   4.417   9.673
   81SAPS   O21 7503   4.453   4.504   9.645
   81SAPS   C21 7504   4.471   4.532   9.519
   81SAPS   O22 7505   4.561   4.490   9.448
   81SAPS   C22 7506   4.359   4.619   9.470
   81SAPS   H2R 7507   4.288   4.555   9.413
   81SAPS   H2S 7508   4.304   4.670   9.552
   81SAPS    C3 7509   4.505   4.264   9.621
   81SAPS    HX 7510   4.562   4.186   9.674
   81SAPS    HY 7511   4.542   4.269   9.516
   81SAPS   O31 7512   4.365   4.238   9.630
   81SAPS   C31 7513   4.322   4.136   9.560
   81SAPS   O32 7514   4.391   4.057   9.498
   81SAPS   C32 7515   4.171   4.144   9.561
   81SAPS   H2X 7516   4.133   4.196   9.651
   81SAPS   H2Y 7517   4.129   4.045   9.563
   81SAPS   C23 7518   4.423   4.717   9.372
   81SAPS   H3R 7519   4.493   4.666   9.302
   81SAPS   H3S 7520   4.480   4.795   9.429
   81SAPS   C24 7521   4.317   4.773   9.283
   81SAPS   H4R 7522   4.245   4.817   9.358
   81SAPS   H4S 7523   4.255   4.710   9.218
   81SAPS   C25 7524   4.393   4.860   9.190
   81SAPS   H5R 7525   4.371   4.955   9.192
   81SAPS   C26 7526   4.458   4.851   9.078
   81SAPS   H6R 7527   4.488   4.946   9.027
   81SAPS   C27 7528   4.467   4.721   9.014
   81SAPS   H7R 7529   4.409   4.732   8.921
   81SAPS   H7S 7530   4.418   4.644   9.078
   81SAPS   C28 7531   4.610   4.687   8.992
   81SAPS   H8R 7532   4.650   4.618   9.068
   81SAPS   C29 7533   4.690   4.740   8.898
   81SAPS   H9R 7534   4.791   4.698   8.889
   81SAPS  C210 7535   4.653   4.845   8.795
   81SAPS  H10R 7536   4.711   4.938   8.815
   81SAPS  H10S 7537   4.546   4.877   8.803
   81SAPS  C211 7538   4.680   4.804   8.653
   81SAPS  H11R 7539   4.778   4.837   8.615
   81SAPS  C212 7540   4.599   4.738   8.569
   81SAPS  H12R 7541   4.636   4.723   8.467
   81SAPS  C213 7542   4.458   4.685   8.592
   81SAPS  H13R 7543   4.442   4.646   8.695
   81SAPS  H13S 7544   4.440   4.599   8.525
   81SAPS  C214 7545   4.355   4.791   8.565
   81SAPS  H14R 7546   4.321   4.847   8.653
   81SAPS  C215 7547   4.298   4.815   8.445
   81SAPS  H15R 7548   4.227   4.899   8.442
   81SAPS  C216 7549   4.323   4.746   8.313
   81SAPS  H16R 7550   4.228   4.731   8.258
   81SAPS  H16S 7551   4.380   4.651   8.319
   81SAPS  C217 7552   4.410   4.828   8.222
   81SAPS  H17R 7553   4.509   4.848   8.268
   81SAPS  H17S 7554   4.356   4.921   8.213
   81SAPS  C218 7555   4.433   4.781   8.080
   81SAPS  H18R 7556   4.449   4.673   8.072
   81SAPS  H18S 7557   4.499   4.844   8.027
   81SAPS  C219 7558   4.350   4.840   7.974
   81SAPS  H19R 7559   4.315   4.942   7.985
   81SAPS  H19S 7560   4.282   4.776   8.037
   81SAPS  C220 7561   4.356   4.813   7.819
   81SAPS  H20R 7562   4.369   4.704   7.793
   81SAPS  H20S 7563   4.413   4.858   7.743
   81SAPS  H20T 7564   4.265   4.855   7.775
   81SAPS   C33 7565   4.128   4.218   9.435
   81SAPS   H3X 7566   4.163   4.164   9.344
   81SAPS   H3Y 7567   4.181   4.316   9.440
   81SAPS   C34 7568   3.979   4.250   9.429
   81SAPS   H4X 7569   3.944   4.292   9.526
   81SAPS   H4Y 7570   3.919   4.157   9.411
   81SAPS   C35 7571   3.951   4.351   9.318
   81SAPS   H5X 7572   3.997   4.450   9.342
   81SAPS   H5Y 7573   3.841   4.369   9.309
   81SAPS   C36 7574   3.999   4.304   9.181
   81SAPS   H6X 7575   3.981   4.194   9.176
   81SAPS   H6Y 7576   4.108   4.323   9.166
   81SAPS   C37 7577   3.919   4.376   9.072
   81SAPS   H7X 7578   3.931   4.485   9.093
   81SAPS   H7Y 7579   3.811   4.352   9.083
   81SAPS   C38 7580   3.967   4.346   8.930
   81SAPS   H8X 7581   4.071   4.385   8.923
   81SAPS   H8Y 7582   3.905   4.402   8.857
   81SAPS   C39 7583   3.965   4.197   8.890
   81SAPS   H9X 7584   3.861   4.162   8.869
   81SAPS   H9Y 7585   4.004   4.135   8.974
   81SAPS  C310 7586   4.056   4.166   8.771
   81SAPS  H10X 7587   4.036   4.061   8.741
   81SAPS  H10Y 7588   4.159   4.172   8.812
   81SAPS  C311 7589   4.037   4.253   8.646
   81SAPS  H11X 7590   4.056   4.360   8.668
   81SAPS  H11Y 7591   3.932   4.246   8.610
   81SAPS  C312 7592   4.128   4.210   8.529
   81SAPS  H12X 7593   4.096   4.266   8.438
   81SAPS  H12Y 7594   4.116   4.102   8.508
   81SAPS  C313 7595   4.277   4.235   8.556
   81SAPS  H13X 7596   4.308   4.162   8.634
   81SAPS  H13Y 7597   4.296   4.336   8.596
   81SAPS  C314 7598   4.361   4.210   8.430
   81SAPS  H14X 7599   4.336   4.108   8.393
   81SAPS  H14Y 7600   4.469   4.214   8.456
   81SAPS  C315 7601   4.343   4.311   8.316
   81SAPS  H15X 7602   4.386   4.409   8.349
   81SAPS  H15Y 7603   4.236   4.327   8.291
   81SAPS  C316 7604   4.420   4.273   8.189
   81SAPS  H16X 7605   4.423   4.163   8.175
   81SAPS  H16Y 7606   4.525   4.307   8.201
   81SAPS  C317 7607   4.354   4.339   8.068
   81SAPS  H17X 7608   4.353   4.449   8.081
   81SAPS  H17Y 7609   4.247   4.309   8.072
   81SAPS  C318 7610   4.422   4.301   7.936
   81SAPS  H18X 7611   4.380   4.355   7.848
   81SAPS  H18Y 7612   4.413   4.192   7.917
   81SAPS  H18Z 7613   4.530   4.326   7.940
   82SAPS     N 7614   2.709   3.914  10.121
   82SAPS   HN1 7615   2.655   3.917  10.032
   82SAPS   HN2 7616   2.651   3.877  10.198
   82SAPS   HN3 7617   2.744   4.008  10.148
   82SAPS   C12 7618   2.824   3.820  10.098
   82SAPS  H12A 7619   2.887   3.861  10.021
   82SAPS   C13 7620   2.913   3.790  10.221
   82SAPS  O13A 7621   2.868   3.819  10.334
   82SAPS  O13B 7622   2.998   3.699  10.205
   82SAPS   C11 7623   2.767   3.682  10.055
   82SAPS  H11A 7624   2.710   3.641  10.140
   82SAPS  H11B 7625   2.854   3.612  10.040
   82SAPS     P 7626   2.741   3.651   9.804
   82SAPS   O13 7627   2.848   3.750   9.781
   82SAPS   O14 7628   2.771   3.506   9.797
   82SAPS   O12 7629   2.678   3.688   9.944
   82SAPS   O11 7630   2.627   3.680   9.702
   82SAPS    C1 7631   2.552   3.799   9.721
   82SAPS    HA 7632   2.483   3.787   9.806
   82SAPS    HB 7633   2.618   3.889   9.729
   82SAPS    C2 7634   2.465   3.830   9.600
   82SAPS    HS 7635   2.392   3.906   9.637
   82SAPS   O21 7636   2.401   3.714   9.543
   82SAPS   C21 7637   2.285   3.716   9.478
   82SAPS   O22 7638   2.210   3.807   9.454
   82SAPS   C22 7639   2.245   3.583   9.427
   82SAPS   H2R 7640   2.219   3.520   9.513
   82SAPS   H2S 7641   2.155   3.609   9.367
   82SAPS    C3 7642   2.561   3.895   9.501
   82SAPS    HX 7643   2.608   3.991   9.528
   82SAPS    HY 7644   2.505   3.920   9.417
   82SAPS   O31 7645   2.658   3.803   9.465
   82SAPS   C31 7646   2.626   3.713   9.377
   82SAPS   O32 7647   2.542   3.711   9.293
   82SAPS   C32 7648   2.719   3.612   9.381
   82SAPS   H2X 7649   2.739   3.580   9.484
   82SAPS   H2Y 7650   2.810   3.661   9.338
   82SAPS   C23 7651   2.346   3.522   9.332
   82SAPS   H3R 7652   2.441   3.511   9.387
   82SAPS   H3S 7653   2.361   3.590   9.245
   82SAPS   C24 7654   2.304   3.385   9.285
   82SAPS   H4R 7655   2.273   3.325   9.372
   82SAPS   H4S 7656   2.391   3.333   9.240
   82SAPS   C25 7657   2.185   3.391   9.195
   82SAPS   H5R 7658   2.094   3.420   9.244
   82SAPS   C26 7659   2.181   3.373   9.064
   82SAPS   H6R 7660   2.093   3.354   9.007
   82SAPS   C27 7661   2.282   3.343   8.971
   82SAPS   H7R 7662   2.269   3.237   8.940
   82SAPS   H7S 7663   2.364   3.342   9.044
   82SAPS   C28 7664   2.314   3.438   8.856
   82SAPS   H8R 7665   2.369   3.527   8.886
   82SAPS   C29 7666   2.299   3.418   8.725
   82SAPS   H9R 7667   2.320   3.499   8.656
   82SAPS  C210 7668   2.246   3.295   8.657
   82SAPS  H10R 7669   2.197   3.223   8.727
   82SAPS  H10S 7670   2.339   3.259   8.619
   82SAPS  C211 7671   2.163   3.286   8.536
   82SAPS  H11R 7672   2.058   3.258   8.539
   82SAPS  C212 7673   2.212   3.325   8.423
   82SAPS  H12R 7674   2.144   3.328   8.335
   82SAPS  C213 7675   2.358   3.384   8.410
   82SAPS  H13R 7676   2.400   3.446   8.489
   82SAPS  H13S 7677   2.392   3.418   8.315
   82SAPS  C214 7678   2.450   3.282   8.395
   82SAPS  H14R 7679   2.391   3.210   8.445
   82SAPS  C215 7680   2.576   3.264   8.360
   82SAPS  H15R 7681   2.617   3.163   8.345
   82SAPS  C216 7682   2.667   3.371   8.323
   82SAPS  H16R 7683   2.732   3.366   8.411
   82SAPS  H16S 7684   2.612   3.466   8.320
   82SAPS  C217 7685   2.780   3.360   8.221
   82SAPS  H17R 7686   2.843   3.274   8.220
   82SAPS  H17S 7687   2.835   3.456   8.225
   82SAPS  C218 7688   2.746   3.369   8.084
   82SAPS  H18R 7689   2.709   3.469   8.072
   82SAPS  H18S 7690   2.642   3.421   8.106
   82SAPS  C219 7691   2.766   3.258   7.916
   82SAPS  H19R 7692   2.746   3.168   7.879
   82SAPS  H19S 7693   2.865   3.291   7.909
   82SAPS  C220 7694   2.624   3.242   7.769
   82SAPS  H20R 7695   2.654   3.219   7.673
   82SAPS  H20S 7696   2.595   3.344   7.726
   82SAPS  H20T 7697   2.528   3.298   7.780
   82SAPS   C33 7698   2.663   3.504   9.288
   82SAPS   H3X 7699   2.639   3.538   9.185
   82SAPS   H3Y 7700   2.603   3.427   9.340
   82SAPS   C34 7701   2.771   3.428   9.242
   82SAPS   H4X 7702   2.799   3.352   9.323
   82SAPS   H4Y 7703   2.828   3.523   9.216
   82SAPS   C35 7704   2.786   3.351   9.118
   82SAPS   H5X 7705   2.699   3.312   9.166
   82SAPS   H5Y 7706   2.854   3.266   9.127
   82SAPS   C36 7707   2.807   3.432   8.990
   82SAPS   H6X 7708   2.913   3.446   8.975
   82SAPS   H6Y 7709   2.759   3.528   9.009
   82SAPS   C37 7710   2.779   3.384   8.849
   82SAPS   H7X 7711   2.696   3.325   8.859
   82SAPS   H7Y 7712   2.852   3.317   8.801
   82SAPS   C38 7713   2.723   3.469   8.744
   82SAPS   H8X 7714   2.674   3.556   8.792
   82SAPS   H8Y 7715   2.650   3.408   8.685
   82SAPS   C39 7716   2.839   3.488   8.651
   82SAPS   H9X 7717   2.862   3.390   8.602
   82SAPS   H9Y 7718   2.928   3.513   8.715
   82SAPS  C310 7719   2.799   3.599   8.560
   82SAPS  H10X 7720   2.757   3.677   8.627
   82SAPS  H10Y 7721   2.720   3.572   8.487
   82SAPS  C311 7722   2.916   3.660   8.490
   82SAPS  H11X 7723   2.945   3.606   8.397
   82SAPS  H11Y 7724   3.001   3.650   8.560
   82SAPS  C312 7725   2.888   3.806   8.457
   82SAPS  H12X 7726   2.977   3.838   8.403
   82SAPS  H12Y 7727   2.862   3.872   8.541
   82SAPS  C313 7728   2.781   3.819   8.357
   82SAPS  H13X 7729   2.680   3.797   8.398
   82SAPS  H13Y 7730   2.817   3.737   8.293
   82SAPS  C314 7731   2.772   3.949   8.283
   82SAPS  H14X 7732   2.869   3.970   8.228
   82SAPS  H14Y 7733   2.744   4.031   8.351
   82SAPS  C315 7734   2.670   3.958   8.173
   82SAPS  H15X 7735   2.710   3.910   8.084
   82SAPS  H15Y 7736   2.707   4.053   8.150
   82SAPS  C316 7737   2.513   3.979   8.181
   82SAPS  H16X 7738   2.473   4.058   8.243
   82SAPS  H16Y 7739   2.510   3.907   8.266
   82SAPS  C317 7740   2.420   3.970   8.039
   82SAPS  H17X 7741   2.409   3.878   7.975
   82SAPS  H17Y 7742   2.475   3.938   7.950
   82SAPS  C318 7743   2.269   3.975   8.040
   82SAPS  H18X 7744   2.233   3.933   7.941
   82SAPS  H18Y 7745   2.261   4.082   8.060
   82SAPS  H18Z 7746   2.218   3.917   8.120
   83SAPS     N 7747   4.164   5.024  10.094
   83SAPS   HN1 7748   4.140   4.938  10.149
   83SAPS   HN2 7749   4.114   5.109  10.126
   83SAPS   HN3 7750   4.148   5.012   9.991
   83SAPS   C12 7751   4.312   5.048  10.110
   83SAPS  H12A 7752   4.323   5.136  10.172
   83SAPS   C13 7753   4.382   4.933  10.181
   83SAPS  O13A 7754   4.314   4.833  10.216
   83SAPS  O13B 7755   4.507   4.943  10.190
   83SAPS   C11 7756   4.380   5.063   9.972
   83SAPS  H11A 7757   4.398   4.961   9.930
   83SAPS  H11B 7758   4.483   5.105   9.982
   83SAPS     P 7759   4.326   5.290   9.853
   83SAPS   O13 7760   4.233   5.338   9.749
   83SAPS   O14 7761   4.336   5.364   9.980
   83SAPS   O12 7762   4.297   5.138   9.883
   83SAPS   O11 7763   4.465   5.265   9.783
   83SAPS    C1 7764   4.453   5.176   9.669
   83SAPS    HA 7765   4.519   5.089   9.689
   83SAPS    HB 7766   4.351   5.149   9.634
   83SAPS    C2 7767   4.508   5.246   9.548
   83SAPS    HS 7768   4.596   5.267   9.602
   83SAPS   O21 7769   4.417   5.354   9.518
   83SAPS   C21 7770   4.452   5.444   9.430
   83SAPS   O22 7771   4.547   5.439   9.357
   83SAPS   C22 7772   4.352   5.554   9.416
   83SAPS   H2R 7773   4.299   5.555   9.511
   83SAPS   H2S 7774   4.382   5.659   9.396
   83SAPS    C3 7775   4.537   5.160   9.426
   83SAPS    HX 7776   4.607   5.083   9.458
   83SAPS    HY 7777   4.593   5.210   9.343
   83SAPS   O31 7778   4.411   5.103   9.398
   83SAPS   C31 7779   4.366   5.141   9.283
   83SAPS   O32 7780   4.434   5.172   9.186
   83SAPS   C32 7781   4.219   5.089   9.276
   83SAPS   H2X 7782   4.159   5.149   9.342
   83SAPS   H2Y 7783   4.209   4.992   9.325
   83SAPS   C23 7784   4.278   5.523   9.289
   83SAPS   H3R 7785   4.201   5.601   9.291
   83SAPS   H3S 7786   4.238   5.421   9.306
   83SAPS   C24 7787   4.356   5.542   9.158
   83SAPS   H4R 7788   4.438   5.468   9.151
   83SAPS   H4S 7789   4.400   5.644   9.157
   83SAPS   C25 7790   4.261   5.524   9.043
   83SAPS   H5R 7791   4.156   5.504   9.070
   83SAPS   C26 7792   4.294   5.517   8.915
   83SAPS   H6R 7793   4.214   5.493   8.843
   83SAPS   C27 7794   4.434   5.525   8.861
   83SAPS   H7R 7795   4.494   5.442   8.901
   83SAPS   H7S 7796   4.487   5.619   8.891
   83SAPS   C28 7797   4.421   5.510   8.712
   83SAPS   H8R 7798   4.335   5.563   8.666
   83SAPS   C29 7799   4.513   5.466   8.627
   83SAPS   H9R 7800   4.501   5.492   8.524
   83SAPS  C210 7801   4.651   5.419   8.648
   83SAPS  H10R 7802   4.669   5.404   8.754
   83SAPS  H10S 7803   4.724   5.496   8.612
   83SAPS  C211 7804   4.666   5.291   8.573
   83SAPS  H11R 7805   4.596   5.210   8.598
   83SAPS  C212 7806   4.738   5.277   8.463
   83SAPS  H12R 7807   4.747   5.188   8.407
   83SAPS  C213 7808   4.815   5.371   8.390
   83SAPS  H13R 7809   4.895   5.323   8.333
   83SAPS  H13S 7810   4.842   5.447   8.462
   83SAPS  C214 7811   4.749   5.442   8.287
   83SAPS  H14R 7812   4.696   5.517   8.331
   83SAPS  C215 7813   4.747   5.432   8.158
   83SAPS  H15R 7814   4.703   5.512   8.095
   83SAPS  C216 7815   4.821   5.338   8.092
   83SAPS  H16R 7816   4.918   5.345   8.129
   83SAPS  H16S 7817   4.799   5.411   8.021
   83SAPS  C217 7818   4.836   5.292   7.958
   83SAPS  H17R 7819   4.759   5.335   7.881
   83SAPS  H17S 7820   4.802   5.215   8.005
   83SAPS  C218 7821   4.956   5.205   7.939
   83SAPS  H18R 7822   5.028   5.215   8.021
   83SAPS  H18S 7823   4.980   5.251   7.845
   83SAPS  C219 7824   4.943   5.056   7.920
   83SAPS  H19R 7825   5.021   4.997   7.872
   83SAPS  H19S 7826   4.898   5.066   7.823
   83SAPS  C220 7827   4.880   4.968   8.031
   83SAPS  H20R 7828   4.786   4.994   8.072
   83SAPS  H20S 7829   4.927   4.949   8.125
   83SAPS  H20T 7830   4.820   4.890   7.991
   83SAPS   C33 7831   4.172   5.071   9.129
   83SAPS   H3X 7832   4.209   4.985   9.067
   83SAPS   H3Y 7833   4.205   5.163   9.077
   83SAPS   C34 7834   4.025   5.058   9.119
   83SAPS   H4X 7835   3.973   5.132   9.184
   83SAPS   H4Y 7836   3.998   4.953   9.148
   83SAPS   C35 7837   3.980   5.070   8.977
   83SAPS   H5X 7838   3.873   5.059   8.988
   83SAPS   H5Y 7839   4.024   4.989   8.916
   83SAPS   C36 7840   3.982   5.204   8.909
   83SAPS   H6X 7841   4.081   5.249   8.929
   83SAPS   H6Y 7842   3.905   5.270   8.954
   83SAPS   C37 7843   3.959   5.190   8.758
   83SAPS   H7X 7844   3.850   5.200   8.739
   83SAPS   H7Y 7845   3.987   5.087   8.725
   83SAPS   C38 7846   4.042   5.297   8.686
   83SAPS   H8X 7847   4.142   5.299   8.735
   83SAPS   H8Y 7848   3.996   5.397   8.700
   83SAPS   C39 7849   4.069   5.282   8.536
   83SAPS   H9X 7850   4.161   5.342   8.514
   83SAPS   H9Y 7851   3.988   5.327   8.477
   83SAPS  C310 7852   4.089   5.138   8.491
   83SAPS  H10X 7853   3.993   5.083   8.487
   83SAPS  H10Y 7854   4.164   5.084   8.553
   83SAPS  C311 7855   4.137   5.136   8.352
   83SAPS  H11X 7856   4.098   5.220   8.291
   83SAPS  H11Y 7857   4.120   5.038   8.300
   83SAPS  C312 7858   4.280   5.150   8.350
   83SAPS  H12X 7859   4.328   5.062   8.399
   83SAPS  H12Y 7860   4.322   5.231   8.414
   83SAPS  C313 7861   4.283   5.155   8.196
   83SAPS  H13X 7862   4.273   5.063   8.143
   83SAPS  H13Y 7863   4.374   5.152   8.169
   83SAPS  C314 7864   4.271   5.276   8.106
   83SAPS  H14X 7865   4.169   5.257   8.074
   83SAPS  H14Y 7866   4.346   5.268   8.020
   83SAPS  C315 7867   4.294   5.406   8.180
   83SAPS  H15X 7868   4.398   5.417   8.184
   83SAPS  H15Y 7869   4.270   5.405   8.286
   83SAPS  C316 7870   4.260   5.534   8.113
   83SAPS  H16X 7871   4.343   5.529   8.040
   83SAPS  H16Y 7872   4.290   5.636   8.142
   83SAPS  C317 7873   4.114   5.523   8.079
   83SAPS  H17X 7874   4.091   5.435   8.014
   83SAPS  H17Y 7875   4.084   5.612   8.020
   83SAPS  C318 7876   4.039   5.510   8.206
   83SAPS  H18X 7877   4.055   5.606   8.259
   83SAPS  H18Y 7878   4.078   5.428   8.270
   83SAPS  H18Z 7879   3.933   5.490   8.183
   84SAPS     N 7880   6.090   3.190  10.281
   84SAPS   HN1 7881   6.179   3.140  10.271
   84SAPS   HN2 7882   6.108   3.288  10.309
   84SAPS   HN3 7883   6.030   3.147  10.356
   84SAPS   C12 7884   6.013   3.188  10.151
   84SAPS  H12A 7885   6.014   3.086  10.116
   84SAPS   C13 7886   5.863   3.225  10.161
   84SAPS  O13A 7887   5.817   3.248  10.276
   84SAPS  O13B 7888   5.787   3.194  10.066
   84SAPS   C11 7889   6.085   3.279  10.048
   84SAPS  H11A 7890   6.192   3.247  10.040
   84SAPS  H11B 7891   6.082   3.384  10.085
   84SAPS     P 7892   6.085   3.369   9.806
   84SAPS   O13 7893   5.981   3.420   9.713
   84SAPS   O14 7894   6.179   3.463   9.871
   84SAPS   O12 7895   6.026   3.273   9.918
   84SAPS   O11 7896   6.173   3.262   9.731
   84SAPS    C1 7897   6.109   3.150   9.672
   84SAPS    HA 7898   6.057   3.087   9.748
   84SAPS    HB 7899   6.031   3.182   9.599
   84SAPS    C2 7900   6.215   3.068   9.595
   84SAPS    HS 7901   6.260   2.998   9.671
   84SAPS   O21 7902   6.314   3.146   9.534
   84SAPS   C21 7903   6.413   3.070   9.497
   84SAPS   O22 7904   6.428   2.950   9.515
   84SAPS   C22 7905   6.515   3.160   9.445
   84SAPS   H2R 7906   6.499   3.265   9.479
   84SAPS   H2S 7907   6.609   3.119   9.485
   84SAPS    C3 7908   6.146   2.987   9.486
   84SAPS    HX 7909   6.108   2.945   9.578
   84SAPS    HY 7910   6.200   2.906   9.432
   84SAPS   O31 7911   6.033   3.042   9.417
   84SAPS   C31 7912   6.064   3.082   9.294
   84SAPS   O32 7913   6.174   3.075   9.243
   84SAPS   C32 7914   5.941   3.148   9.235
   84SAPS   H2X 7915   5.846   3.097   9.260
   84SAPS   H2Y 7916   5.950   3.153   9.124
   84SAPS   C23 7917   6.498   3.152   9.297
   84SAPS   H3R 7918   6.396   3.184   9.262
   84SAPS   H3S 7919   6.524   3.054   9.251
   84SAPS   C24 7920   6.571   3.252   9.226
   84SAPS   H4R 7921   6.552   3.212   9.123
   84SAPS   H4S 7922   6.671   3.265   9.227
   84SAPS   C25 7923   6.571   3.387   9.271
   84SAPS   H5R 7924   6.641   3.435   9.341
   84SAPS   C26 7925   6.529   3.450   9.174
   84SAPS   H6R 7926   6.528   3.546   9.196
   84SAPS   C27 7927   6.488   3.397   9.045
   84SAPS   H7R 7928   6.562   3.364   8.968
   84SAPS   H7S 7929   6.515   3.467   8.982
   84SAPS   C28 7930   6.346   3.352   9.042
   84SAPS   H8R 7931   6.275   3.415   9.095
   84SAPS   C29 7932   6.298   3.270   8.950
   84SAPS   H9R 7933   6.202   3.225   8.971
   84SAPS  C210 7934   6.370   3.209   8.837
   84SAPS  H10R 7935   6.367   3.101   8.843
   84SAPS  H10S 7936   6.467   3.261   8.813
   84SAPS  C211 7937   6.309   3.234   8.711
   84SAPS  H11R 7938   6.332   3.338   8.709
   84SAPS  C212 7939   6.268   3.166   8.605
   84SAPS  H12R 7940   6.223   3.218   8.520
   84SAPS  C213 7941   6.270   3.022   8.578
   84SAPS  H13R 7942   6.197   3.006   8.496
   84SAPS  H13S 7943   6.258   2.968   8.669
   84SAPS  C214 7944   6.387   2.955   8.534
   84SAPS  H14R 7945   6.469   2.926   8.604
   84SAPS  C215 7946   6.415   2.983   8.413
   84SAPS  H15R 7947   6.518   2.977   8.417
   84SAPS  C216 7948   6.356   3.071   8.304
   84SAPS  H16R 7949   6.414   3.152   8.348
   84SAPS  H16S 7950   6.268   3.126   8.330
   84SAPS  C217 7951   6.365   3.048   8.140
   84SAPS  H17R 7952   6.466   3.050   8.098
   84SAPS  H17S 7953   6.351   3.118   8.058
   84SAPS  C218 7954   6.333   2.906   8.115
   84SAPS  H18R 7955   6.233   2.901   8.164
   84SAPS  H18S 7956   6.369   2.867   8.211
   84SAPS  C219 7957   6.382   2.834   7.967
   84SAPS  H19R 7958   6.330   2.891   7.894
   84SAPS  H19S 7959   6.306   2.758   8.001
   84SAPS  C220 7960   6.533   2.779   7.883
   84SAPS  H20R 7961   6.611   2.851   7.871
   84SAPS  H20S 7962   6.558   2.738   7.791
   84SAPS  H20T 7963   6.600   2.693   7.930
   84SAPS   C33 7964   5.951   3.285   9.303
   84SAPS   H3X 7965   6.046   3.335   9.275
   84SAPS   H3Y 7966   5.943   3.273   9.414
   84SAPS   C34 7967   5.844   3.381   9.263
   84SAPS   H4X 7968   5.834   3.467   9.332
   84SAPS   H4Y 7969   5.759   3.318   9.276
   84SAPS   C35 7970   5.841   3.420   9.118
   84SAPS   H5X 7971   5.768   3.504   9.112
   84SAPS   H5Y 7972   5.810   3.332   9.055
   84SAPS   C36 7973   5.957   3.499   9.071
   84SAPS   H6X 7974   6.047   3.437   9.086
   84SAPS   H6Y 7975   5.957   3.588   9.140
   84SAPS   C37 7976   5.937   3.538   8.924
   84SAPS   H7X 7977   5.835   3.578   8.905
   84SAPS   H7Y 7978   5.946   3.441   8.869
   84SAPS   C38 7979   6.041   3.640   8.877
   84SAPS   H8X 7980   6.140   3.597   8.901
   84SAPS   H8Y 7981   6.031   3.733   8.938
   84SAPS   C39 7982   6.024   3.694   8.732
   84SAPS   H9X 7983   6.089   3.785   8.723
   84SAPS   H9Y 7984   5.919   3.717   8.708
   84SAPS  C310 7985   6.070   3.601   8.623
   84SAPS  H10X 7986   6.028   3.499   8.625
   84SAPS  H10Y 7987   6.164   3.585   8.675
   84SAPS  C311 7988   6.086   3.656   8.474
   84SAPS  H11X 7989   6.161   3.739   8.475
   84SAPS  H11Y 7990   5.988   3.684   8.436
   84SAPS  C312 7991   6.128   3.560   8.357
   84SAPS  H12X 7992   6.102   3.453   8.374
   84SAPS  H12Y 7993   6.236   3.578   8.362
   84SAPS  C313 7994   6.134   3.596   8.213
   84SAPS  H13X 7995   6.193   3.692   8.214
   84SAPS  H13Y 7996   6.028   3.597   8.192
   84SAPS  C314 7997   6.209   3.504   8.117
   84SAPS  H14X 7998   6.312   3.535   8.128
   84SAPS  H14Y 7999   6.210   3.547   8.017
   84SAPS  C315 8000   6.177   3.351   8.115
   84SAPS  H15X 8001   6.191   3.297   8.209
   84SAPS  H15Y 8002   6.241   3.294   8.043
   84SAPS  C316 8003   6.045   3.318   8.055
   84SAPS  H16X 8004   6.046   3.373   7.958
   84SAPS  H16Y 8005   5.966   3.355   8.122
   84SAPS  C317 8006   6.029   3.167   8.036
   84SAPS  H17X 8007   6.108   3.121   7.972
   84SAPS  H17Y 8008   5.932   3.160   7.982
   84SAPS  C318 8009   6.023   3.090   8.168
   84SAPS  H18X 8010   6.116   3.104   8.225
   84SAPS  H18Y 8011   6.010   2.981   8.151
   84SAPS  H18Z 8012   5.941   3.126   8.233
   85SAPS     N 8013   2.730   6.214   9.941
   85SAPS   HN1 8014   2.787   6.134   9.978
   85SAPS   HN2 8015   2.663   6.185   9.867
   85SAPS   HN3 8016   2.792   6.291   9.911
   85SAPS   C12 8017   2.650   6.266  10.057
   85SAPS  H12A 8018   2.635   6.185  10.126
   85SAPS   C13 8019   2.715   6.383  10.133
   85SAPS  O13A 8020   2.829   6.423  10.097
   85SAPS  O13B 8021   2.658   6.417  10.240
   85SAPS   C11 8022   2.513   6.314  10.007
   85SAPS  H11A 8023   2.533   6.396   9.936
   85SAPS  H11B 8024   2.459   6.357  10.094
   85SAPS     P 8025   2.288   6.228   9.904
   85SAPS   O13 8026   2.266   6.151   9.781
   85SAPS   O14 8027   2.204   6.207  10.024
   85SAPS   O12 8028   2.442   6.207   9.944
   85SAPS   O11 8029   2.285   6.379   9.864
   85SAPS    C1 8030   2.162   6.448   9.879
   85SAPS    HA 8031   2.074   6.385   9.910
   85SAPS    HB 8032   2.177   6.522   9.958
   85SAPS    C2 8033   2.128   6.524   9.750
   85SAPS    HS 8034   2.022   6.550   9.750
   85SAPS   O21 8035   2.148   6.450   9.630
   85SAPS   C21 8036   2.096   6.336   9.606
   85SAPS   O22 8037   2.018   6.267   9.666
   85SAPS   C22 8038   2.145   6.280   9.479
   85SAPS   H2R 8039   2.223   6.344   9.436
   85SAPS   H2S 8040   2.184   6.187   9.526
   85SAPS    C3 8041   2.211   6.659   9.742
   85SAPS    HX 8042   2.208   6.727   9.828
   85SAPS    HY 8043   2.172   6.722   9.657
   85SAPS   O31 8044   2.347   6.638   9.754
   85SAPS   C31 8045   2.383   6.584   9.649
   85SAPS   O32 8046   2.332   6.592   9.536
   85SAPS   C32 8047   2.524   6.547   9.693
   85SAPS   H2X 8048   2.526   6.484   9.779
   85SAPS   H2Y 8049   2.583   6.635   9.725
   85SAPS   C23 8050   2.038   6.229   9.383
   85SAPS   H3R 8051   1.980   6.309   9.337
   85SAPS   H3S 8052   1.963   6.169   9.437
   85SAPS   C24 8053   2.100   6.149   9.273
   85SAPS   H4R 8054   2.130   6.051   9.314
   85SAPS   H4S 8055   2.195   6.197   9.245
   85SAPS   C25 8056   2.001   6.144   9.162
   85SAPS   H5R 8057   1.910   6.087   9.182
   85SAPS   C26 8058   2.013   6.208   9.047
   85SAPS   H6R 8059   1.942   6.179   8.968
   85SAPS   C27 8060   2.132   6.295   9.013
   85SAPS   H7R 8061   2.140   6.298   8.903
   85SAPS   H7S 8062   2.225   6.247   9.046
   85SAPS   C28 8063   2.129   6.438   9.067
   85SAPS   H8R 8064   2.038   6.460   9.121
   85SAPS   C29 8065   2.207   6.544   9.037
   85SAPS   H9R 8066   2.181   6.643   9.077
   85SAPS  C210 8067   2.321   6.539   8.937
   85SAPS  H10R 8068   2.322   6.434   8.896
   85SAPS  H10S 8069   2.413   6.539   8.987
   85SAPS  C211 8070   2.371   6.631   8.829
   85SAPS  H11R 8071   2.366   6.739   8.848
   85SAPS  C212 8072   2.288   6.636   8.738
   85SAPS  H12R 8073   2.305   6.710   8.657
   85SAPS  C213 8074   2.160   6.559   8.764
   85SAPS  H13R 8075   2.185   6.437   8.779
   85SAPS  H13S 8076   2.240   6.490   8.690
   85SAPS  C214 8077   1.973   6.621   8.706
   85SAPS  H14R 8078   1.954   6.722   8.725
   85SAPS  C215 8079   1.841   6.542   8.617
   85SAPS  H15R 8080   1.763   6.466   8.630
   85SAPS  C216 8081   1.820   6.356   8.564
   85SAPS  H16R 8082   1.842   6.268   8.653
   85SAPS  H16S 8083   1.890   6.273   8.633
   85SAPS  C217 8084   1.808   6.295   8.380
   85SAPS  H17R 8085   1.861   6.338   8.294
   85SAPS  H17S 8086   1.717   6.341   8.398
   85SAPS  C218 8087   1.805   6.127   8.291
   85SAPS  H18R 8088   1.816   6.024   8.339
   85SAPS  H18S 8089   1.871   6.041   8.327
   85SAPS  C219 8090   1.823   6.115   8.152
   85SAPS  H19R 8091   1.916   6.148   8.103
   85SAPS  H19S 8092   1.754   6.195   8.149
   85SAPS  C220 8093   1.787   5.979   8.104
   85SAPS  H20R 8094   1.787   5.972   7.998
   85SAPS  H20S 8095   1.744   5.902   8.172
   85SAPS  H20T 8096   1.877   5.923   8.098
   85SAPS   C33 8097   2.593   6.488   9.578
   85SAPS   H3X 8098   2.700   6.507   9.590
   85SAPS   H3Y 8099   2.548   6.548   9.501
   85SAPS   C34 8100   2.544   6.353   9.540
   85SAPS   H4X 8101   2.437   6.363   9.512
   85SAPS   H4Y 8102   2.563   6.303   9.636
   85SAPS   C35 8103   2.614   6.278   9.428
   85SAPS   H5X 8104   2.593   6.171   9.442
   85SAPS   H5Y 8105   2.719   6.293   9.454
   85SAPS   C36 8106   2.577   6.315   9.285
   85SAPS   H6X 8107   2.636   6.407   9.260
   85SAPS   H6Y 8108   2.472   6.344   9.272
   85SAPS   C37 8109   2.585   6.208   9.175
   85SAPS   H7X 8110   2.509   6.131   9.165
   85SAPS   H7Y 8111   2.672   6.139   9.193
   85SAPS   C38 8112   2.575   6.305   9.051
   85SAPS   H8X 8113   2.646   6.385   9.076
   85SAPS   H8Y 8114   2.482   6.350   9.027
   85SAPS   C39 8115   2.608   6.240   8.924
   85SAPS   H9X 8116   2.558   6.143   8.941
   85SAPS   H9Y 8117   2.712   6.242   8.963
   85SAPS  C310 8118   2.601   6.259   8.766
   85SAPS  H10X 8119   2.597   6.164   8.707
   85SAPS  H10Y 8120   2.680   6.307   8.704
   85SAPS  C311 8121   2.489   6.331   8.733
   85SAPS  H11X 8122   2.526   6.422   8.785
   85SAPS  H11Y 8123   2.413   6.267   8.785
   85SAPS  C312 8124   2.487   6.339   8.584
   85SAPS  H12X 8125   2.586   6.344   8.533
   85SAPS  H12Y 8126   2.439   6.437   8.572
   85SAPS  C313 8127   2.402   6.229   8.525
   85SAPS  H13X 8128   2.302   6.239   8.571
   85SAPS  H13Y 8129   2.438   6.126   8.551
   85SAPS  C314 8130   2.395   6.249   8.376
   85SAPS  H14X 8131   2.495   6.269   8.333
   85SAPS  H14Y 8132   2.332   6.339   8.356
   85SAPS  C315 8133   2.339   6.128   8.307
   85SAPS  H15X 8134   2.264   6.166   8.235
   85SAPS  H15Y 8135   2.307   6.042   8.371
   85SAPS  C316 8136   2.423   6.072   8.205
   85SAPS  H16X 8137   2.417   5.963   8.186
   85SAPS  H16Y 8138   2.510   6.079   8.250
   85SAPS  C317 8139   2.435   6.160   8.089
   85SAPS  H17X 8140   2.477   6.263   8.102
   85SAPS  H17Y 8141   2.337   6.177   8.043
   85SAPS  C318 8142   2.521   6.080   8.002
   85SAPS  H18X 8143   2.560   6.156   7.938
   85SAPS  H18Y 8144   2.472   6.012   7.927
   85SAPS  H18Z 8145   2.625   6.063   8.029
   86SAPS     N 8146   5.103   5.915  10.112
   86SAPS   HN1 8147   5.129   5.943  10.208
   86SAPS   HN2 8148   5.001   5.935  10.100
   86SAPS   HN3 8149   5.127   5.816  10.092
   86SAPS   C12 8150   5.178   6.011  10.025
   86SAPS  H12A 8151   5.147   5.994   9.923
   86SAPS   C13 8152   5.144   6.155  10.063
   86SAPS  O13A 8153   5.068   6.175  10.162
   86SAPS  O13B 8154   5.189   6.246   9.991
   86SAPS   C11 8155   5.331   5.988  10.043
   86SAPS  H11A 8156   5.348   5.879  10.034
   86SAPS  H11B 8157   5.363   6.018  10.145
   86SAPS     P 8158   5.561   6.021   9.928
   86SAPS   O13 8159   5.635   6.126   9.857
   86SAPS   O14 8160   5.609   5.975  10.060
   86SAPS   O12 8161   5.408   6.058   9.944
   86SAPS   O11 8162   5.547   5.893   9.837
   86SAPS    C1 8163   5.448   5.904   9.733
   86SAPS    HA 8164   5.345   5.896   9.772
   86SAPS    HB 8165   5.464   5.996   9.672
   86SAPS    C2 8166   5.460   5.791   9.635
   86SAPS    HS 8167   5.435   5.695   9.687
   86SAPS   O21 8168   5.595   5.799   9.605
   86SAPS   C21 8169   5.625   5.699   9.541
   86SAPS   O22 8170   5.561   5.594   9.529
   86SAPS   C22 8171   5.743   5.753   9.477
   86SAPS   H2R 8172   5.789   5.840   9.525
   86SAPS   H2S 8173   5.813   5.685   9.490
   86SAPS    C3 8174   5.375   5.809   9.506
   86SAPS    HX 8175   5.272   5.828   9.545
   86SAPS    HY 8176   5.374   5.715   9.445
   86SAPS   O31 8177   5.425   5.916   9.425
   86SAPS   C31 8178   5.332   5.964   9.346
   86SAPS   O32 8179   5.216   5.926   9.341
   86SAPS   C32 8180   5.392   6.069   9.257
   86SAPS   H2X 8181   5.475   6.028   9.197
   86SAPS   H2Y 8182   5.426   6.158   9.313
   86SAPS   C23 8183   5.788   5.717   9.342
   86SAPS   H3R 8184   5.737   5.630   9.316
   86SAPS   H3S 8185   5.901   5.697   9.340
   86SAPS   C24 8186   5.722   5.819   9.264
   86SAPS   H4R 8187   5.752   5.889   9.334
   86SAPS   H4S 8188   5.625   5.851   9.303
   86SAPS   C25 8189   5.750   5.858   9.122
   86SAPS   H5R 8190   5.856   5.854   9.089
   86SAPS   C26 8191   5.655   5.840   9.035
   86SAPS   H6R 8192   5.691   5.825   8.931
   86SAPS   C27 8193   5.523   5.776   9.086
   86SAPS   H7R 8194   5.505   5.768   9.195
   86SAPS   H7S 8195   5.508   5.668   9.083
   86SAPS   C28 8196   5.412   5.814   9.004
   86SAPS   H8R 8197   5.379   5.907   9.045
   86SAPS   C29 8198   5.351   5.762   8.897
   86SAPS   H9R 8199   5.264   5.814   8.863
   86SAPS  C210 8200   5.368   5.644   8.813
   86SAPS  H10R 8201   5.301   5.633   8.729
   86SAPS  H10S 8202   5.345   5.557   8.876
   86SAPS  C211 8203   5.490   5.640   8.736
   86SAPS  H11R 8204   5.563   5.589   8.785
   86SAPS  C212 8205   5.525   5.654   8.615
   86SAPS  H12R 8206   5.630   5.658   8.594
   86SAPS  C213 8207   5.449   5.681   8.502
   86SAPS  H13R 8208   5.433   5.786   8.514
   86SAPS  H13S 8209   5.368   5.608   8.497
   86SAPS  C214 8210   5.534   5.657   8.392
   86SAPS  H14R 8211   5.507   5.566   8.366
   86SAPS  C215 8212   5.630   5.714   8.331
   86SAPS  H15R 8213   5.678   5.672   8.239
   86SAPS  C216 8214   5.663   5.839   8.392
   86SAPS  H16R 8215   5.756   5.818   8.418
   86SAPS  H16S 8216   5.644   5.851   8.499
   86SAPS  C217 8217   5.693   5.947   8.293
   86SAPS  H17R 8218   5.595   5.994   8.283
   86SAPS  H17S 8219   5.724   5.911   8.191
   86SAPS  C218 8220   5.803   6.040   8.341
   86SAPS  H18R 8221   5.906   5.998   8.332
   86SAPS  H18S 8222   5.784   6.066   8.448
   86SAPS  C219 8223   5.802   6.165   8.256
   86SAPS  H19R 8224   5.808   6.131   8.150
   86SAPS  H19S 8225   5.892   6.225   8.280
   86SAPS  C220 8226   5.673   6.243   8.278
   86SAPS  H20R 8227   5.676   6.336   8.222
   86SAPS  H20S 8228   5.654   6.269   8.385
   86SAPS  H20T 8229   5.585   6.189   8.238
   86SAPS   C33 8230   5.288   6.116   9.161
   86SAPS   H3X 8231   5.209   6.174   9.217
   86SAPS   H3Y 8232   5.232   6.036   9.107
   86SAPS   C34 8233   5.362   6.196   9.054
   86SAPS   H4X 8234   5.398   6.293   9.097
   86SAPS   H4Y 8235   5.264   6.197   9.005
   86SAPS   C35 8236   5.425   6.142   8.921
   86SAPS   H5X 8237   5.361   6.055   8.900
   86SAPS   H5Y 8238   5.527   6.123   8.957
   86SAPS   C36 8239   5.438   6.226   8.788
   86SAPS   H6X 8240   5.516   6.299   8.814
   86SAPS   H6Y 8241   5.350   6.272   8.736
   86SAPS   C37 8242   5.503   6.187   8.662
   86SAPS   H7X 8243   5.609   6.182   8.692
   86SAPS   H7Y 8244   5.495   6.271   8.589
   86SAPS   C38 8245   5.437   6.060   8.615
   86SAPS   H8X 8246   5.455   5.989   8.698
   86SAPS   H8Y 8247   5.493   6.032   8.524
   86SAPS   C39 8248   5.284   6.059   8.591
   86SAPS   H9X 8249   5.226   6.082   8.684
   86SAPS   H9Y 8250   5.252   5.959   8.555
   86SAPS  C310 8251   5.239   6.160   8.490
   86SAPS  H10X 8252   5.275   6.253   8.539
   86SAPS  H10Y 8253   5.129   6.173   8.479
   86SAPS  C311 8254   5.302   6.147   8.351
   86SAPS  H11X 8255   5.408   6.180   8.353
   86SAPS  H11Y 8256   5.246   6.211   8.279
   86SAPS  C312 8257   5.275   6.021   8.281
   86SAPS  H12X 8258   5.174   5.985   8.311
   86SAPS  H12Y 8259   5.355   5.953   8.315
   86SAPS  C313 8260   5.268   6.045   8.131
   86SAPS  H13X 8261   5.370   6.064   8.089
   86SAPS  H13Y 8262   5.194   6.116   8.090
   86SAPS  C314 8263   5.218   5.920   8.079
   86SAPS  H14X 8264   5.227   5.938   7.972
   86SAPS  H14Y 8265   5.112   5.887   8.089
   86SAPS  C315 8266   5.316   5.815   8.130
   86SAPS  H15X 8267   5.306   5.769   8.232
   86SAPS  H15Y 8268   5.410   5.868   8.130
   86SAPS  C316 8269   5.294   5.699   8.040
   86SAPS  H16X 8270   5.197   5.725   8.068
   86SAPS  H16Y 8271   5.288   5.611   8.082
   86SAPS  C317 8272   5.349   5.615   7.889
   86SAPS  H17X 8273   5.297   5.689   7.836
   86SAPS  H17Y 8274   5.385   5.531   7.842
   86SAPS  C318 8275   5.547   5.549   7.839
   86SAPS  H18X 8276   5.627   5.616   7.790
   86SAPS  H18Y 8277   5.612   5.539   7.912
   86SAPS  H18Z 8278   5.621   5.643   7.829
   87SAPS     N 8279   5.568   6.937  10.207
   87SAPS   HN1 8280   5.577   7.029  10.255
   87SAPS   HN2 8281   5.471   6.903  10.195
   87SAPS   HN3 8282   5.621   6.866  10.261
   87SAPS   C12 8283   5.621   6.953  10.069
   87SAPS  H12A 8284   5.554   7.022  10.021
   87SAPS   C13 8285   5.761   7.015  10.063
   87SAPS  O13A 8286   5.818   7.039  10.173
   87SAPS  O13B 8287   5.817   7.016   9.951
   87SAPS   C11 8288   5.624   6.814   9.997
   87SAPS  H11A 8289   5.711   6.760  10.038
   87SAPS  H11B 8290   5.644   6.830   9.889
   87SAPS     P 8291   5.434   6.655   9.907
   87SAPS   O13 8292   5.531   6.576   9.829
   87SAPS   O14 8293   5.312   6.600   9.968
   87SAPS   O12 8294   5.506   6.737  10.023
   87SAPS   O11 8295   5.393   6.779   9.819
   87SAPS    C1 8296   5.297   6.871   9.865
   87SAPS    HA 8297   5.206   6.813   9.870
   87SAPS    HB 8298   5.323   6.916   9.964
   87SAPS    C2 8299   5.257   6.978   9.760
   87SAPS    HS 8300   5.158   7.021   9.793
   87SAPS   O21 8301   5.253   6.924   9.627
   87SAPS   C21 8302   5.145   6.856   9.607
   87SAPS   O22 8303   5.051   6.854   9.687
   87SAPS   C22 8304   5.147   6.809   9.460
   87SAPS   H2R 8305   5.250   6.820   9.422
   87SAPS   H2S 8306   5.138   6.702   9.444
   87SAPS    C3 8307   5.355   7.090   9.752
   87SAPS    HX 8308   5.364   7.139   9.850
   87SAPS    HY 8309   5.311   7.162   9.679
   87SAPS   O31 8310   5.486   7.043   9.714
   87SAPS   C31 8311   5.531   7.070   9.591
   87SAPS   O32 8312   5.479   7.140   9.508
   87SAPS   C32 8313   5.658   6.998   9.557
   87SAPS   H2X 8314   5.738   7.042   9.621
   87SAPS   H2Y 8315   5.685   7.020   9.451
   87SAPS   C23 8316   5.042   6.888   9.377
   87SAPS   H3R 8317   5.064   6.995   9.390
   87SAPS   H3S 8318   4.938   6.881   9.415
   87SAPS   C24 8319   5.036   6.860   9.227
   87SAPS   H4R 8320   4.959   6.923   9.179
   87SAPS   H4S 8321   4.980   6.775   9.204
   87SAPS   C25 8322   5.173   6.848   9.165
   87SAPS   H5R 8323   5.238   6.927   9.198
   87SAPS   C26 8324   5.228   6.760   9.078
   87SAPS   H6R 8325   5.330   6.772   9.043
   87SAPS   C27 8326   5.165   6.646   9.014
   87SAPS   H7R 8327   5.177   6.635   8.903
   87SAPS   H7S 8328   5.069   6.687   9.009
   87SAPS   C28 8329   5.155   6.517   9.087
   87SAPS   H8R 8330   5.138   6.503   9.193
   87SAPS   C29 8331   5.181   6.409   9.028
   87SAPS   H9R 8332   5.169   6.324   9.094
   87SAPS  C210 8333   5.228   6.400   8.887
   87SAPS  H10R 8334   5.165   6.437   8.806
   87SAPS  H10S 8335   5.215   6.292   8.859
   87SAPS  C211 8336   5.371   6.462   8.894
   87SAPS  H11R 8337   5.445   6.410   8.959
   87SAPS  C212 8338   5.433   6.529   8.797
   87SAPS  H12R 8339   5.543   6.522   8.793
   87SAPS  C213 8340   5.367   6.556   8.667
   87SAPS  H13R 8341   5.354   6.664   8.668
   87SAPS  H13S 8342   5.264   6.514   8.658
   87SAPS  C214 8343   5.452   6.517   8.549
   87SAPS  H14R 8344   5.558   6.545   8.553
   87SAPS  C215 8345   5.405   6.473   8.432
   87SAPS  H15R 8346   5.478   6.442   8.355
   87SAPS  C216 8347   5.261   6.456   8.399
   87SAPS  H16R 8348   5.185   6.472   8.477
   87SAPS  H16S 8349   5.246   6.356   8.386
   87SAPS  C217 8350   5.213   6.485   8.261
   87SAPS  H17R 8351   5.202   6.594   8.260
   87SAPS  H17S 8352   5.113   6.435   8.247
   87SAPS  C218 8353   5.306   6.435   8.151
   87SAPS  H18R 8354   5.317   6.325   8.141
   87SAPS  H18S 8355   5.405   6.481   8.155
   87SAPS  C219 8356   5.243   6.479   8.026
   87SAPS  H19R 8357   5.248   6.590   8.011
   87SAPS  H19S 8358   5.136   6.453   8.052
   87SAPS  C220 8359   5.292   6.399   7.907
   87SAPS  H20R 8360   5.287   6.290   7.920
   87SAPS  H20S 8361   5.387   6.440   7.874
   87SAPS  H20T 8362   5.236   6.402   7.816
   87SAPS   C33 8363   5.638   6.850   9.590
   87SAPS   H3X 8364   5.573   6.839   9.679
   87SAPS   H3Y 8365   5.736   6.807   9.620
   87SAPS   C34 8366   5.573   6.765   9.481
   87SAPS   H4X 8367   5.507   6.825   9.414
   87SAPS   H4Y 8368   5.509   6.688   9.532
   87SAPS   C35 8369   5.679   6.690   9.403
   87SAPS   H5X 8370   5.740   6.633   9.476
   87SAPS   H5Y 8371   5.744   6.766   9.353
   87SAPS   C36 8372   5.620   6.589   9.305
   87SAPS   H6X 8373   5.540   6.631   9.240
   87SAPS   H6Y 8374   5.576   6.507   9.364
   87SAPS   C37 8375   5.724   6.527   9.216
   87SAPS   H7X 8376   5.679   6.446   9.155
   87SAPS   H7Y 8377   5.816   6.496   9.272
   87SAPS   C38 8378   5.774   6.625   9.120
   87SAPS   H8X 8379   5.823   6.562   9.040
   87SAPS   H8Y 8380   5.853   6.682   9.175
   87SAPS   C39 8381   5.672   6.724   9.065
   87SAPS   H9X 8382   5.654   6.815   9.127
   87SAPS   H9Y 8383   5.592   6.672   9.009
   87SAPS  C310 8384   5.696   6.786   8.938
   87SAPS  H10X 8385   5.748   6.705   8.883
   87SAPS  H10Y 8386   5.794   6.793   8.927
   87SAPS  C311 8387   5.643   6.934   8.917
   87SAPS  H11X 8388   5.682   7.000   8.838
   87SAPS  H11Y 8389   5.662   7.006   8.999
   87SAPS  C312 8390   5.523   6.934   8.827
   87SAPS  H12X 8391   5.456   6.898   8.903
   87SAPS  H12Y 8392   5.534   6.852   8.753
   87SAPS  C313 8393   5.499   7.067   8.749
   87SAPS  H13X 8394   5.578   7.097   8.675
   87SAPS  H13Y 8395   5.495   7.148   8.824
   87SAPS  C314 8396   5.365   7.067   8.678
   87SAPS  H14X 8397   5.312   7.162   8.698
   87SAPS  H14Y 8398   5.307   6.978   8.712
   87SAPS  C315 8399   5.376   7.051   8.529
   87SAPS  H15X 8400   5.429   6.954   8.533
   87SAPS  H15Y 8401   5.437   7.136   8.487
   87SAPS  C316 8402   5.239   7.031   8.463
   87SAPS  H16X 8403   5.186   7.125   8.487
   87SAPS  H16Y 8404   5.199   6.935   8.502
   87SAPS  C317 8405   5.224   7.014   8.313
   87SAPS  H17X 8406   5.288   6.925   8.281
   87SAPS  H17Y 8407   5.255   7.117   8.277
   87SAPS  C318 8408   5.104   6.994   8.234
   87SAPS  H18X 8409   5.061   6.902   8.278
   87SAPS  H18Y 8410   5.135   6.976   8.128
   87SAPS  H18Z 8411   5.053   7.091   8.246
   88SAPS     N 8412  -0.076   2.925  10.155
   88SAPS   HN1 8413  -0.060   3.025  10.178
   88SAPS   HN2 8414  -0.148   2.922  10.080
   88SAPS   HN3 8415  -0.108   2.880  10.242
   88SAPS   C12 8416   0.050   2.864  10.105
   88SAPS  H12A 8417   0.080   2.924  10.021
   88SAPS   C13 8418   0.171   2.866  10.203
   88SAPS  O13A 8419   0.160   2.924  10.315
   88SAPS  O13B 8420   0.277   2.812  10.164
   88SAPS   C11 8421   0.020   2.721  10.048
   88SAPS  H11A 8422  -0.011   2.654  10.130
   88SAPS  H11B 8423   0.115   2.686  10.004
   88SAPS     P 8424  -0.043   2.716   9.790
   88SAPS   O13 8425   0.067   2.810   9.770
   88SAPS   O14 8426  -0.040   2.577   9.745
   88SAPS   O12 8427  -0.081   2.718   9.948
   88SAPS   O11 8428  -0.167   2.783   9.733
   88SAPS    C1 8429  -0.283   2.773   9.809
   88SAPS    HA 8430  -0.314   2.667   9.832
   88SAPS    HB 8431  -0.261   2.831   9.901
   88SAPS    C2 8432  -0.395   2.840   9.736
   88SAPS    HS 8433  -0.495   2.810   9.771
   88SAPS   O21 8434  -0.373   2.820   9.596
   88SAPS   C21 8435  -0.348   2.696   9.549
   88SAPS   O22 8436  -0.355   2.591   9.611
   88SAPS   C22 8437  -0.333   2.701   9.397
   88SAPS   H2R 8438  -0.413   2.660   9.335
   88SAPS   H2S 8439  -0.329   2.802   9.356
   88SAPS    C3 8440  -0.395   2.984   9.778
   88SAPS    HX 8441  -0.428   3.002   9.881
   88SAPS    HY 8442  -0.474   3.037   9.717
   88SAPS   O31 8443  -0.258   3.023   9.764
   88SAPS   C31 8444  -0.200   3.095   9.855
   88SAPS   O32 8445  -0.243   3.110   9.969
   88SAPS   C32 8446  -0.060   3.133   9.803
   88SAPS   H2X 8447   0.012   3.066   9.855
   88SAPS   H2Y 8448  -0.036   3.239   9.822
   88SAPS   C23 8449  -0.233   2.609   9.350
   88SAPS   H3R 8450  -0.282   2.546   9.273
   88SAPS   H3S 8451  -0.219   2.542   9.437
   88SAPS   C24 8452  -0.121   2.699   9.294
   88SAPS   H4R 8453  -0.096   2.763   9.382
   88SAPS   H4S 8454  -0.174   2.758   9.217
   88SAPS   C25 8455  -0.001   2.642   9.223
   88SAPS   H5R 8456  -0.024   2.573   9.144
   88SAPS   C26 8457   0.126   2.628   9.262
   88SAPS   H6R 8458   0.171   2.532   9.228
   88SAPS   C27 8459   0.181   2.669   9.394
   88SAPS   H7R 8460   0.144   2.614   9.484
   88SAPS   H7S 8461   0.147   2.773   9.402
   88SAPS   C28 8462   0.330   2.658   9.373
   88SAPS   H8R 8463   0.379   2.566   9.408
   88SAPS   C29 8464   0.404   2.751   9.309
   88SAPS   H9R 8465   0.511   2.732   9.301
   88SAPS  C210 8466   0.362   2.882   9.247
   88SAPS  H10R 8467   0.454   2.923   9.201
   88SAPS  H10S 8468   0.341   2.948   9.334
   88SAPS  C211 8469   0.250   2.905   9.147
   88SAPS  H11R 8470   0.160   2.952   9.190
   88SAPS  C212 8471   0.249   2.881   9.014
   88SAPS  H12R 8472   0.163   2.919   8.956
   88SAPS  C213 8473   0.361   2.825   8.931
   88SAPS  H13R 8474   0.457   2.837   8.986
   88SAPS  H13S 8475   0.372   2.887   8.839
   88SAPS  C214 8476   0.351   2.678   8.894
   88SAPS  H14R 8477   0.360   2.608   8.979
   88SAPS  C215 8478   0.332   2.627   8.771
   88SAPS  H15R 8479   0.325   2.518   8.765
   88SAPS  C216 8480   0.316   2.702   8.640
   88SAPS  H16R 8481   0.272   2.803   8.656
   88SAPS  H16S 8482   0.242   2.648   8.578
   88SAPS  C217 8483   0.447   2.718   8.560
   88SAPS  H17R 8484   0.495   2.618   8.549
   88SAPS  H17S 8485   0.517   2.784   8.614
   88SAPS  C218 8486   0.432   2.778   8.420
   88SAPS  H18R 8487   0.532   2.795   8.373
   88SAPS  H18S 8488   0.376   2.874   8.417
   88SAPS  C219 8489   0.365   2.681   8.332
   88SAPS  H19R 8490   0.254   2.672   8.347
   88SAPS  H19S 8491   0.407   2.582   8.347
   88SAPS  C220 8492   0.400   2.700   8.189
   88SAPS  H20R 8493   0.377   2.797   8.143
   88SAPS  H20S 8494   0.321   2.628   8.172
   88SAPS  H20T 8495   0.489   2.650   8.146
   88SAPS   C33 8496  -0.047   3.111   9.651
   88SAPS   H3X 8497  -0.121   3.176   9.600
   88SAPS   H3Y 8498  -0.069   3.006   9.622
   88SAPS   C34 8499   0.089   3.145   9.594
   88SAPS   H4X 8500   0.165   3.076   9.639
   88SAPS   H4Y 8501   0.119   3.248   9.624
   88SAPS   C35 8502   0.076   3.127   9.443
   88SAPS   H5X 8503   0.025   3.032   9.418
   88SAPS   H5Y 8504   0.176   3.125   9.395
   88SAPS   C36 8505  -0.011   3.237   9.383
   88SAPS   H6X 8506   0.063   3.305   9.395
   88SAPS   H6Y 8507  -0.091   3.285   9.441
   88SAPS   C37 8508  -0.030   3.233   9.234
   88SAPS   H7X 8509   0.058   3.185   9.189
   88SAPS   H7Y 8510  -0.047   3.334   9.186
   88SAPS   C38 8511  -0.152   3.150   9.223
   88SAPS   H8X 8512  -0.224   3.231   9.252
   88SAPS   H8Y 8513  -0.159   3.071   9.301
   88SAPS   C39 8514  -0.175   3.091   9.085
   88SAPS   H9X 8515  -0.084   3.035   9.060
   88SAPS   H9Y 8516  -0.186   3.178   9.018
   88SAPS  C310 8517  -0.280   2.979   9.065
   88SAPS  H10X 8518  -0.384   2.993   9.073
   88SAPS  H10Y 8519  -0.280   2.905   9.146
   88SAPS  C311 8520  -0.317   2.953   8.922
   88SAPS  H11X 8521  -0.347   3.044   8.866
   88SAPS  H11Y 8522  -0.406   2.888   8.924
   88SAPS  C312 8523  -0.199   2.890   8.864
   88SAPS  H12X 8524  -0.173   2.810   8.938
   88SAPS  H12Y 8525  -0.122   2.969   8.859
   88SAPS  C313 8526  -0.216   2.843   8.722
   88SAPS  H13X 8527  -0.221   2.918   8.645
   88SAPS  H13Y 8528  -0.320   2.828   8.700
   88SAPS  C314 8529  -0.114   2.734   8.693
   88SAPS  H14X 8530  -0.102   2.653   8.763
   88SAPS  H14Y 8531  -0.014   2.777   8.709
   88SAPS  C315 8532  -0.132   2.675   8.556
   88SAPS  H15X 8533  -0.238   2.659   8.529
   88SAPS  H15Y 8534  -0.082   2.576   8.552
   88SAPS  C316 8535  -0.066   2.776   8.466
   88SAPS  H16X 8536   0.040   2.794   8.497
   88SAPS  H16Y 8537  -0.126   2.868   8.470
   88SAPS  C317 8538  -0.057   2.726   8.326
   88SAPS  H17X 8539  -0.155   2.676   8.307
   88SAPS  H17Y 8540   0.033   2.663   8.346
   88SAPS  C318 8541  -0.013   2.788   8.192
   88SAPS  H18X 8542   0.013   2.728   8.104
   88SAPS  H18Y 8543   0.083   2.840   8.215
   88SAPS  H18Z 8544  -0.101   2.852   8.165
   89SAPS     N 8545   6.435   0.642  10.128
   89SAPS   HN1 8546   6.462   0.734  10.090
   89SAPS   HN2 8547   6.338   0.641  10.163
   89SAPS   HN3 8548   6.504   0.614  10.201
   89SAPS   C12 8549   6.449   0.545  10.014
   89SAPS  H12A 8550   6.435   0.447  10.055
   89SAPS   C13 8551   6.350   0.553   9.897
   89SAPS  O13A 8552   6.266   0.641   9.902
   89SAPS  O13B 8553   6.361   0.479   9.797
   89SAPS   C11 8554   6.589   0.568   9.954
   89SAPS  H11A 8555   6.594   0.671   9.913
   89SAPS  H11B 8556   6.601   0.496   9.869
   89SAPS     P 8557   6.799   0.440  10.056
   89SAPS   O13 8558   6.911   0.484  10.141
   89SAPS   O14 8559   6.732   0.320  10.108
   89SAPS   O12 8560   6.691   0.557  10.053
   89SAPS   O11 8561   6.845   0.417   9.909
   89SAPS    C1 8562   6.935   0.507   9.847
   89SAPS    HA 8563   6.918   0.614   9.873
   89SAPS    HB 8564   7.039   0.484   9.880
   89SAPS    C2 8565   6.922   0.491   9.694
   89SAPS    HS 8566   6.991   0.569   9.648
   89SAPS   O21 8567   6.787   0.498   9.642
   89SAPS   C21 8568   6.747   0.618   9.643
   89SAPS   O22 8569   6.814   0.709   9.690
   89SAPS   C22 8570   6.607   0.629   9.578
   89SAPS   H2R 8571   6.548   0.553   9.632
   89SAPS   H2S 8572   6.558   0.726   9.599
   89SAPS    C3 8573   6.969   0.355   9.651
   89SAPS    HX 8574   6.907   0.278   9.698
   89SAPS    HY 8575   7.071   0.336   9.691
   89SAPS   O31 8576   6.966   0.355   9.508
   89SAPS   C31 8577   6.857   0.306   9.455
   89SAPS   O32 8578   6.769   0.246   9.514
   89SAPS   C32 8579   6.867   0.322   9.306
   89SAPS   H2X 8580   6.969   0.297   9.269
   89SAPS   H2Y 8581   6.833   0.420   9.267
   89SAPS   C23 8582   6.602   0.605   9.424
   89SAPS   H3R 8583   6.604   0.494   9.409
   89SAPS   H3S 8584   6.689   0.647   9.370
   89SAPS   C24 8585   6.481   0.667   9.355
   89SAPS   H4R 8586   6.482   0.645   9.246
   89SAPS   H4S 8587   6.475   0.775   9.371
   89SAPS   C25 8588   6.366   0.603   9.421
   89SAPS   H5R 8589   6.334   0.642   9.519
   89SAPS   C26 8590   6.286   0.518   9.361
   89SAPS   H6R 8591   6.225   0.466   9.433
   89SAPS   C27 8592   6.276   0.462   9.221
   89SAPS   H7R 8593   6.373   0.473   9.171
   89SAPS   H7S 8594   6.206   0.526   9.162
   89SAPS   C28 8595   6.225   0.318   9.225
   89SAPS   H8R 8596   6.143   0.287   9.291
   89SAPS   C29 8597   6.263   0.221   9.148
   89SAPS   H9R 8598   6.225   0.119   9.165
   89SAPS  C210 8599   6.365   0.246   9.044
   89SAPS  H10R 8600   6.375   0.142   9.014
   89SAPS  H10S 8601   6.458   0.293   9.082
   89SAPS  C211 8602   6.328   0.295   8.913
   89SAPS  H11R 8603   6.271   0.215   8.880
   89SAPS  C212 8604   6.347   0.399   8.835
   89SAPS  H12R 8605   6.299   0.400   8.736
   89SAPS  C213 8606   6.429   0.516   8.875
   89SAPS  H13R 8607   6.428   0.526   8.985
   89SAPS  H13S 8608   6.374   0.606   8.840
   89SAPS  C214 8609   6.573   0.503   8.833
   89SAPS  H14R 8610   6.632   0.420   8.872
   89SAPS  C215 8611   6.632   0.584   8.749
   89SAPS  H15R 8612   6.742   0.592   8.737
   89SAPS  C216 8613   6.558   0.695   8.692
   89SAPS  H16R 8614   6.648   0.752   8.667
   89SAPS  H16S 8615   6.497   0.743   8.774
   89SAPS  C217 8616   6.490   0.707   8.557
   89SAPS  H17R 8617   6.444   0.808   8.543
   89SAPS  H17S 8618   6.409   0.633   8.554
   89SAPS  C218 8619   6.591   0.695   8.445
   89SAPS  H18R 8620   6.665   0.617   8.469
   89SAPS  H18S 8621   6.654   0.785   8.454
   89SAPS  C219 8622   6.526   0.660   8.310
   89SAPS  H19R 8623   6.466   0.569   8.322
   89SAPS  H19S 8624   6.608   0.643   8.235
   89SAPS  C220 8625   6.432   0.761   8.247
   89SAPS  H20R 8626   6.382   0.738   8.152
   89SAPS  H20S 8627   6.509   0.820   8.203
   89SAPS  H20T 8628   6.370   0.822   8.317
   89SAPS   C33 8629   6.776   0.220   9.252
   89SAPS   H3X 8630   6.671   0.243   9.286
   89SAPS   H3Y 8631   6.806   0.116   9.283
   89SAPS   C34 8632   6.779   0.235   9.105
   89SAPS   H4X 8633   6.768   0.335   9.064
   89SAPS   H4Y 8634   6.674   0.209   9.080
   89SAPS   C35 8635   6.900   0.158   9.045
   89SAPS   H5X 8636   6.884   0.047   9.057
   89SAPS   H5Y 8637   6.994   0.162   9.100
   89SAPS   C36 8638   6.919   0.189   8.896
   89SAPS   H6X 8639   6.827   0.151   8.845
   89SAPS   H6Y 8640   7.013   0.142   8.858
   89SAPS   C37 8641   6.917   0.320   8.830
   89SAPS   H7X 8642   7.014   0.361   8.863
   89SAPS   H7Y 8643   6.828   0.370   8.872
   89SAPS   C38 8644   6.895   0.301   8.678
   89SAPS   H8X 8645   6.788   0.275   8.660
   89SAPS   H8Y 8646   6.953   0.216   8.634
   89SAPS   C39 8647   6.936   0.425   8.599
   89SAPS   H9X 8648   7.041   0.446   8.630
   89SAPS   H9Y 8649   6.876   0.513   8.628
   89SAPS  C310 8650   6.932   0.403   8.448
   89SAPS  H10X 8651   7.006   0.322   8.426
   89SAPS  H10Y 8652   6.967   0.496   8.397
   89SAPS  C311 8653   6.794   0.366   8.391
   89SAPS  H11X 8654   6.727   0.453   8.397
   89SAPS  H11Y 8655   6.744   0.287   8.450
   89SAPS  C312 8656   6.801   0.335   8.241
   89SAPS  H12X 8657   6.855   0.241   8.220
   89SAPS  H12Y 8658   6.859   0.419   8.195
   89SAPS  C313 8659   6.663   0.332   8.177
   89SAPS  H13X 8660   6.603   0.417   8.216
   89SAPS  H13Y 8661   6.609   0.238   8.199
   89SAPS  C314 8662   6.668   0.347   8.027
   89SAPS  H14X 8663   6.715   0.257   7.979
   89SAPS  H14Y 8664   6.726   0.438   7.997
   89SAPS  C315 8665   6.527   0.368   7.973
   89SAPS  H15X 8666   6.559   0.391   7.869
   89SAPS  H15Y 8667   6.479   0.461   8.005
   89SAPS  C316 8668   6.430   0.248   8.000
   89SAPS  H16X 8669   6.402   0.243   8.107
   89SAPS  H16Y 8670   6.481   0.152   7.973
   89SAPS  C317 8671   6.288   0.250   7.942
   89SAPS  H17X 8672   6.258   0.144   7.942
   89SAPS  H17Y 8673   6.251   0.268   7.838
   89SAPS  C318 8674   6.206   0.370   7.971
   89SAPS  H18X 8675   6.112   0.370   7.911
   89SAPS  H18Y 8676   6.264   0.459   7.938
   89SAPS  H18Z 8677   6.185   0.351   8.076
   90SAPS     N 8678   0.023   0.769   9.811
   90SAPS   HN1 8679  -0.006   0.681   9.764
   90SAPS   HN2 8680  -0.030   0.849   9.769
   90SAPS   HN3 8681   0.125   0.785   9.806
   90SAPS   C12 8682  -0.009   0.756   9.958
   90SAPS  H12A 8683   0.060   0.811  10.018
   90SAPS   C13 8684  -0.151   0.789   9.990
   90SAPS  O13A 8685  -0.226   0.831   9.897
   90SAPS  O13B 8686  -0.178   0.790  10.113
   90SAPS   C11 8687  -0.018   0.616  10.019
   90SAPS  H11A 8688  -0.099   0.569   9.957
   90SAPS  H11B 8689  -0.058   0.607  10.122
   90SAPS     P 8690   0.239   0.564  10.077
   90SAPS   O13 8691   0.210   0.661  10.183
   90SAPS   O14 8692   0.309   0.437  10.104
   90SAPS   O12 8693   0.102   0.540  10.017
   90SAPS   O11 8694   0.325   0.644   9.965
   90SAPS    C1 8695   0.367   0.582   9.844
   90SAPS    HA 8696   0.383   0.471   9.854
   90SAPS    HB 8697   0.284   0.617   9.780
   90SAPS    C2 8698   0.471   0.638   9.745
   90SAPS    HS 8699   0.552   0.658   9.816
   90SAPS   O21 8700   0.414   0.757   9.689
   90SAPS   C21 8701   0.505   0.840   9.641
   90SAPS   O22 8702   0.625   0.821   9.642
   90SAPS   C22 8703   0.433   0.966   9.597
   90SAPS   H2R 8704   0.432   1.034   9.684
   90SAPS   H2S 8705   0.494   1.011   9.517
   90SAPS    C3 8706   0.521   0.542   9.626
   90SAPS    HX 8707   0.550   0.444   9.668
   90SAPS    HY 8708   0.610   0.591   9.583
   90SAPS   O31 8709   0.437   0.526   9.510
   90SAPS   C31 8710   0.416   0.403   9.467
   90SAPS   O32 8711   0.484   0.309   9.500
   90SAPS   C32 8712   0.293   0.395   9.372
   90SAPS   H2X 8713   0.332   0.410   9.271
   90SAPS   H2Y 8714   0.252   0.485   9.375
   90SAPS   C23 8715   0.288   0.940   9.547
   90SAPS   H3R 8716   0.229   0.881   9.620
   90SAPS   H3S 8717   0.300   0.885   9.452
   90SAPS   C24 8718   0.215   1.071   9.522
   90SAPS   H4R 8719   0.282   1.125   9.452
   90SAPS   H4S 8720   0.215   1.131   9.616
   90SAPS   C25 8721   0.077   1.071   9.463
   90SAPS   H5R 8722  -0.008   1.066   9.532
   90SAPS   C26 8723   0.051   1.067   9.332
   90SAPS   H6R 8724  -0.053   1.080   9.298
   90SAPS   C27 8725   0.150   1.061   9.221
   90SAPS   H7R 8726   0.106   1.003   9.138
   90SAPS   H7S 8727   0.247   1.016   9.251
   90SAPS   C28 8728   0.169   1.186   9.151
   90SAPS   H8R 8729   0.179   1.273   9.220
   90SAPS   C29 8730   0.220   1.188   9.027
   90SAPS   H9R 8731   0.249   1.280   8.979
   90SAPS  C210 8732   0.270   1.084   8.939
   90SAPS  H10R 8733   0.222   0.993   8.961
   90SAPS  H10S 8734   0.377   1.066   8.969
   90SAPS  C211 8735   0.234   1.137   8.801
   90SAPS  H11R 8736   0.172   1.230   8.805
   90SAPS  C212 8737   0.291   1.109   8.683
   90SAPS  H12R 8738   0.283   1.193   8.610
   90SAPS  C213 8739   0.410   1.013   8.665
   90SAPS  H13R 8740   0.367   0.915   8.674
   90SAPS  H13S 8741   0.483   1.032   8.748
   90SAPS  C214 8742   0.500   0.987   8.545
   90SAPS  H14R 8743   0.599   1.039   8.551
   90SAPS  C215 8744   0.461   0.980   8.417
   90SAPS  H15R 8745   0.540   0.997   8.342
   90SAPS  C216 8746   0.322   0.998   8.358
   90SAPS  H16R 8747   0.292   1.100   8.316
   90SAPS  H16S 8748   0.250   0.986   8.439
   90SAPS  C217 8749   0.323   0.904   8.238
   90SAPS  H17R 8750   0.219   0.874   8.225
   90SAPS  H17S 8751   0.393   0.820   8.258
   90SAPS  C218 8752   0.355   0.952   8.096
   90SAPS  H18R 8753   0.462   0.973   8.081
   90SAPS  H18S 8754   0.296   1.041   8.064
   90SAPS  C219 8755   0.381   0.844   8.001
   90SAPS  H19R 8756   0.285   0.792   8.000
   90SAPS  H19S 8757   0.463   0.784   8.048
   90SAPS  C220 8758   0.427   0.907   7.871
   90SAPS  H20R 8759   0.347   0.968   7.824
   90SAPS  H20S 8760   0.465   0.827   7.805
   90SAPS  H20T 8761   0.505   0.984   7.891
   90SAPS   C33 8762   0.153   0.316   9.375
   90SAPS   H3X 8763   0.169   0.218   9.381
   90SAPS   H3Y 8764   0.133   0.301   9.277
   90SAPS   C34 8765   0.016   0.318   9.458
   90SAPS   H4X 8766   0.082   0.342   9.527
   90SAPS   H4Y 8767  -0.011   0.222   9.506
   90SAPS   C35 8768  -0.085   0.438   9.491
   90SAPS   H5X 8769  -0.074   0.549   9.513
   90SAPS   H5Y 8770  -0.131   0.428   9.582
   90SAPS   C36 8771  -0.130   0.505   9.381
   90SAPS   H6X 8772  -0.187   0.429   9.331
   90SAPS   H6Y 8773  -0.015   0.493   9.370
   90SAPS   C37 8774  -0.161   0.654   9.354
   90SAPS   H7X 8775  -0.074   0.713   9.350
   90SAPS   H7Y 8776  -0.219   0.687   9.441
   90SAPS   C38 8777  -0.191   0.713   9.212
   90SAPS   H8X 8778  -0.221   0.818   9.227
   90SAPS   H8Y 8779  -0.267   0.642   9.175
   90SAPS   C39 8780  -0.079   0.734   9.104
   90SAPS   H9X 8781  -0.066   0.642   9.049
   90SAPS   H9Y 8782   0.017   0.774   9.139
   90SAPS  C310 8783  -0.102   0.804   8.974
   90SAPS  H10X 8784  -0.094   0.909   9.007
   90SAPS  H10Y 8785  -0.203   0.771   8.941
   90SAPS  C311 8786   0.004   0.773   8.865
   90SAPS  H11X 8787   0.030   0.665   8.859
   90SAPS  H11Y 8788   0.098   0.828   8.887
   90SAPS  C312 8789  -0.051   0.808   8.727
   90SAPS  H12X 8790  -0.110   0.902   8.733
   90SAPS  H12Y 8791  -0.121   0.727   8.697
   90SAPS  C313 8792   0.056   0.834   8.621
   90SAPS  H13X 8793   0.118   0.919   8.657
   90SAPS  H13Y 8794   0.006   0.868   8.528
   90SAPS  C314 8795   0.155   0.720   8.593
   90SAPS  H14X 8796   0.206   0.692   8.687
   90SAPS  H14Y 8797   0.232   0.758   8.522
   90SAPS  C315 8798   0.094   0.592   8.536
   90SAPS  H15X 8799   0.035   0.539   8.614
   90SAPS  H15Y 8800   0.180   0.528   8.503
   90SAPS  C316 8801   0.001   0.610   8.418
   90SAPS  H16X 8802  -0.088   0.666   8.455
   90SAPS  H16Y 8803  -0.035   0.512   8.381
   90SAPS  C317 8804   0.072   0.691   8.312
   90SAPS  H17X 8805   0.172   0.648   8.289
   90SAPS  H17Y 8806   0.087   0.795   8.348
   90SAPS  C318 8807  -0.005   0.697   8.186
   90SAPS  H18X 8808   0.047   0.758   8.110
   90SAPS  H18Y 8809  -0.109   0.735   8.194
   90SAPS  H18Z 8810  -0.002   0.592   8.156
   91SAPS     N 8811   3.377   3.690   5.770
   91SAPS   HN1 8812   3.380   3.587   5.783
   91SAPS   HN2 8813   3.331   3.712   5.680
   91SAPS   HN3 8814   3.472   3.731   5.772
   91SAPS   C12 8815   3.303   3.746   5.887
   91SAPS  H12A 8816   3.282   3.851   5.869
   91SAPS   C13 8817   3.169   3.683   5.921
   91SAPS  O13A 8818   3.122   3.604   5.835
   91SAPS  O13B 8819   3.105   3.731   6.019
   91SAPS   C11 8820   3.396   3.732   6.009
   91SAPS  H11A 8821   3.433   3.628   6.023
   91SAPS  H11B 8822   3.336   3.758   6.100
   91SAPS     P 8823   3.606   3.838   6.108
   91SAPS   O13 8824   3.652   3.703   6.145
   91SAPS   O14 8825   3.706   3.939   6.068
   91SAPS   O12 8826   3.503   3.825   5.989
   91SAPS   O11 8827   3.516   3.888   6.226
   91SAPS    C1 8828   3.441   4.006   6.209
   91SAPS    HA 8829   3.514   4.089   6.212
   91SAPS    HB 8830   3.390   4.011   6.109
   91SAPS    C2 8831   3.333   4.024   6.321
   91SAPS    HS 8832   3.282   4.115   6.334
   91SAPS   O21 8833   3.374   3.979   6.452
   91SAPS   C21 8834   3.456   4.064   6.512
   91SAPS   O22 8835   3.492   4.172   6.473
   91SAPS   C22 8836   3.508   4.011   6.640
   91SAPS   H2R 8837   3.431   3.942   6.678
   91SAPS   H2S 8838   3.601   3.957   6.612
   91SAPS    C3 8839   3.202   3.962   6.284
   91SAPS    HX 8840   3.168   3.987   6.182
   91SAPS    HY 8841   3.130   4.001   6.361
   91SAPS   O31 8842   3.219   3.833   6.284
   91SAPS   C31 8843   3.174   3.780   6.382
   91SAPS   O32 8844   3.104   3.812   6.476
   91SAPS   C32 8845   3.237   3.664   6.351
   91SAPS   H2X 8846   3.179   3.620   6.264
   91SAPS   H2Y 8847   3.218   3.627   6.451
   91SAPS   C23 8848   3.544   4.117   6.747
   91SAPS   H3R 8849   3.523   4.072   6.847
   91SAPS   H3S 8850   3.480   4.207   6.743
   91SAPS   C24 8851   3.690   4.164   6.743
   91SAPS   H4R 8852   3.695   4.243   6.819
   91SAPS   H4S 8853   3.725   4.210   6.649
   91SAPS   C25 8854   3.780   4.052   6.781
   91SAPS   H5R 8855   3.813   3.987   6.700
   91SAPS   C26 8856   3.818   4.039   6.908
   91SAPS   H6R 8857   3.885   3.969   6.952
   91SAPS   C27 8858   3.781   4.125   7.018
   91SAPS   H7R 8859   3.680   4.164   7.006
   91SAPS   H7S 8860   3.866   4.194   7.017
   91SAPS   C28 8861   3.784   4.058   7.147
   91SAPS   H8R 8862   3.868   3.993   7.161
   91SAPS   C29 8863   3.761   4.125   7.256
   91SAPS   H9R 8864   3.785   4.070   7.344
   91SAPS  C210 8865   3.732   4.268   7.274
   91SAPS  H10R 8866   3.680   4.282   7.180
   91SAPS  H10S 8867   3.809   4.342   7.252
   91SAPS  C211 8868   3.672   4.325   7.398
   91SAPS  H11R 8869   3.566   4.326   7.388
   91SAPS  C212 8870   3.711   4.359   7.521
   91SAPS  H12R 8871   3.647   4.382   7.598
   91SAPS  C213 8872   3.826   4.355   7.599
   91SAPS  H13R 8873   3.848   4.457   7.645
   91SAPS  H13S 8874   3.910   4.392   7.528
   91SAPS  C214 8875   3.839   4.200   7.664
   91SAPS  H14R 8876   3.908   4.123   7.636
   91SAPS  C215 8877   3.836   4.128   7.772
   91SAPS  H15R 8878   3.923   4.059   7.794
   91SAPS  C216 8879   3.795   4.222   7.878
   91SAPS  H16R 8880   3.758   4.323   7.839
   91SAPS  H16S 8881   3.856   4.237   7.964
   91SAPS  C217 8882   3.684   4.134   7.897
   91SAPS  H17R 8883   3.693   4.024   7.913
   91SAPS  H17S 8884   3.637   4.174   7.803
   91SAPS  C218 8885   3.586   4.181   7.992
   91SAPS  H18R 8886   3.628   4.180   8.092
   91SAPS  H18S 8887   3.495   4.121   7.984
   91SAPS  C219 8888   3.547   4.316   7.953
   91SAPS  H19R 8889   3.601   4.397   8.000
   91SAPS  H19S 8890   3.478   4.317   8.036
   91SAPS  C220 8891   3.497   4.342   7.805
   91SAPS  H20R 8892   3.452   4.438   7.797
   91SAPS  H20S 8893   3.408   4.289   7.774
   91SAPS  H20T 8894   3.557   4.323   7.723
   91SAPS   C33 8895   3.378   3.616   6.378
   91SAPS   H3X 8896   3.440   3.682   6.319
   91SAPS   H3Y 8897   3.385   3.513   6.336
   91SAPS   C34 8898   3.414   3.599   6.528
   91SAPS   H4X 8899   3.347   3.535   6.590
   91SAPS   H4Y 8900   3.421   3.699   6.576
   91SAPS   C35 8901   3.548   3.530   6.535
   91SAPS   H5X 8902   3.604   3.595   6.464
   91SAPS   H5Y 8903   3.548   3.428   6.489
   91SAPS   C36 8904   3.601   3.514   6.679
   91SAPS   H6X 8905   3.684   3.439   6.677
   91SAPS   H6Y 8906   3.522   3.475   6.745
   91SAPS   C37 8907   3.643   3.645   6.744
   91SAPS   H7X 8908   3.579   3.733   6.736
   91SAPS   H7Y 8909   3.707   3.686   6.673
   91SAPS   C38 8910   3.712   3.633   6.880
   91SAPS   H8X 8911   3.772   3.726   6.897
   91SAPS   H8Y 8912   3.784   3.548   6.884
   91SAPS   C39 8913   3.612   3.637   6.992
   91SAPS   H9X 8914   3.670   3.622   7.086
   91SAPS   H9Y 8915   3.538   3.555   6.983
   91SAPS  C310 8916   3.547   3.777   6.999
   91SAPS  H10X 8917   3.468   3.791   6.923
   91SAPS  H10Y 8918   3.627   3.850   6.973
   91SAPS  C311 8919   3.498   3.809   7.141
   91SAPS  H11X 8920   3.476   3.918   7.151
   91SAPS  H11Y 8921   3.582   3.787   7.211
   91SAPS  C312 8922   3.374   3.730   7.184
   91SAPS  H12X 8923   3.378   3.625   7.149
   91SAPS  H12Y 8924   3.282   3.780   7.146
   91SAPS  C313 8925   3.363   3.724   7.334
   91SAPS  H13X 8926   3.464   3.695   7.369
   91SAPS  H13Y 8927   3.297   3.643   7.371
   91SAPS  C314 8928   3.301   3.851   7.391
   91SAPS  H14X 8929   3.200   3.873   7.350
   91SAPS  H14Y 8930   3.364   3.942   7.375
   91SAPS  C315 8931   3.282   3.818   7.537
   91SAPS  H15X 8932   3.236   3.724   7.566
   91SAPS  H15Y 8933   3.210   3.898   7.570
   91SAPS  C316 8934   3.425   3.792   7.592
   91SAPS  H16X 8935   3.460   3.890   7.547
   91SAPS  H16Y 8936   3.508   3.752   7.537
   91SAPS  C317 8937   3.445   3.742   7.748
   91SAPS  H17X 8938   3.496   3.816   7.814
   91SAPS  H17Y 8939   3.532   3.767   7.814
   91SAPS  C318 8940   3.318   3.690   7.819
   91SAPS  H18X 8941   3.219   3.740   7.795
   91SAPS  H18Y 8942   3.311   3.679   7.929
   91SAPS  H18Z 8943   3.346   3.591   7.789
   92SAPS     N 8944   2.709   3.186   5.862
   92SAPS   HN1 8945   2.629   3.144   5.811
   92SAPS   HN2 8946   2.795   3.175   5.807
   92SAPS   HN3 8947   2.719   3.139   5.954
   92SAPS   C12 8948   2.680   3.332   5.888
   92SAPS  H12A 8949   2.772   3.380   5.921
   92SAPS   C13 8950   2.630   3.413   5.769
   92SAPS  O13A 8951   2.620   3.355   5.658
   92SAPS  O13B 8952   2.615   3.536   5.785
   92SAPS   C11 8953   2.572   3.346   5.998
   92SAPS  H11A 8954   2.473   3.312   5.963
   92SAPS  H11B 8955   2.558   3.455   6.019
   92SAPS     P 8956   2.705   3.342   6.219
   92SAPS   O13 8957   2.703   3.487   6.205
   92SAPS   O14 8958   2.681   3.282   6.350
   92SAPS   O12 8959   2.606   3.273   6.115
   92SAPS   O11 8960   2.838   3.293   6.154
   92SAPS    C1 8961   2.858   3.156   6.144
   92SAPS    HA 8962   2.766   3.091   6.147
   92SAPS    HB 8963   2.908   3.132   6.047
   92SAPS    C2 8964   2.949   3.116   6.256
   92SAPS    HS 8965   2.984   3.021   6.233
   92SAPS   O21 8966   2.909   3.140   6.396
   92SAPS   C21 8967   2.813   3.074   6.466
   92SAPS   O22 8968   2.731   2.993   6.427
   92SAPS   C22 8969   2.826   3.095   6.615
   92SAPS   H2R 8970   2.915   3.053   6.664
   92SAPS   H2S 8971   2.835   3.204   6.622
   92SAPS    C3 8972   3.089   3.177   6.238
   92SAPS    HX 8973   3.112   3.188   6.134
   92SAPS    HY 8974   3.164   3.116   6.288
   92SAPS   O31 8975   3.106   3.304   6.266
   92SAPS   C31 8976   3.142   3.317   6.387
   92SAPS   O32 8977   3.225   3.259   6.454
   92SAPS   C32 8978   3.091   3.448   6.402
   92SAPS   H2X 8979   3.029   3.492   6.320
   92SAPS   H2Y 8980   3.196   3.460   6.365
   92SAPS   C23 8981   2.699   3.032   6.676
   92SAPS   H3R 8982   2.704   2.922   6.691
   92SAPS   H3S 8983   2.610   3.049   6.610
   92SAPS   C24 8984   2.660   3.107   6.801
   92SAPS   H4R 8985   2.567   3.055   6.828
   92SAPS   H4S 8986   2.638   3.211   6.767
   92SAPS   C25 8987   2.764   3.107   6.909
   92SAPS   H5R 8988   2.859   3.154   6.879
   92SAPS   C26 8989   2.755   3.052   7.031
   92SAPS   H6R 8990   2.836   3.069   7.103
   92SAPS   C27 8991   2.637   2.979   7.088
   92SAPS   H7R 8992   2.657   2.870   7.085
   92SAPS   H7S 8993   2.552   2.977   7.020
   92SAPS   C28 8994   2.603   3.028   7.228
   92SAPS   H8R 8995   2.592   2.943   7.299
   92SAPS   C29 8996   2.567   3.155   7.271
   92SAPS   H9R 8997   2.507   3.146   7.360
   92SAPS  C210 8998   2.546   3.293   7.194
   92SAPS  H10R 8999   2.562   3.243   7.095
   92SAPS  H10S 9000   2.633   3.345   7.173
   92SAPS  C211 9001   2.420   3.400   7.191
   92SAPS  H11R 9002   2.317   3.380   7.153
   92SAPS  C212 9003   2.392   3.521   7.203
   92SAPS  H12R 9004   2.289   3.543   7.245
   92SAPS  C213 9005   2.523   3.572   7.231
   92SAPS  H13R 9006   2.588   3.551   7.141
   92SAPS  H13S 9007   2.569   3.524   7.322
   92SAPS  C214 9008   2.499   3.714   7.246
   92SAPS  H14R 9009   2.502   3.767   7.150
   92SAPS  C215 9010   2.446   3.768   7.354
   92SAPS  H15R 9011   2.463   3.875   7.361
   92SAPS  C216 9012   2.399   3.697   7.479
   92SAPS  H16R 9013   2.372   3.591   7.462
   92SAPS  H16S 9014   2.318   3.757   7.524
   92SAPS  C217 9015   2.497   3.686   7.589
   92SAPS  H17R 9016   2.530   3.790   7.589
   92SAPS  H17S 9017   2.573   3.605   7.571
   92SAPS  C218 9018   2.448   3.671   7.727
   92SAPS  H18R 9019   2.389   3.760   7.759
   92SAPS  H18S 9020   2.539   3.670   7.789
   92SAPS  C219 9021   2.375   3.542   7.721
   92SAPS  H19R 9022   2.450   3.461   7.720
   92SAPS  H19S 9023   2.310   3.525   7.636
   92SAPS  C220 9024   2.285   3.522   7.829
   92SAPS  H20R 9025   2.229   3.428   7.846
   92SAPS  H20S 9026   2.236   3.612   7.874
   92SAPS  H20T 9027   2.371   3.488   7.887
   92SAPS   C33 9028   3.066   3.499   6.543
   92SAPS   H3X 9029   3.079   3.608   6.566
   92SAPS   H3Y 9030   3.140   3.456   6.612
   92SAPS   C34 9031   2.920   3.492   6.560
   92SAPS   H4X 9032   2.899   3.385   6.545
   92SAPS   H4Y 9033   2.871   3.551   6.478
   92SAPS   C35 9034   2.875   3.546   6.694
   92SAPS   H5X 9035   2.772   3.506   6.702
   92SAPS   H5Y 9036   2.871   3.658   6.696
   92SAPS   C36 9037   2.963   3.496   6.809
   92SAPS   H6X 9038   3.054   3.560   6.816
   92SAPS   H6Y 9039   2.993   3.392   6.785
   92SAPS   C37 9040   2.881   3.493   6.937
   92SAPS   H7X 9041   2.794   3.425   6.918
   92SAPS   H7Y 9042   2.840   3.595   6.956
   92SAPS   C38 9043   2.959   3.444   7.060
   92SAPS   H8X 9044   3.034   3.522   7.084
   92SAPS   H8Y 9045   3.010   3.347   7.040
   92SAPS   C39 9046   2.867   3.425   7.179
   92SAPS   H9X 9047   2.802   3.346   7.139
   92SAPS   H9Y 9048   2.808   3.518   7.198
   92SAPS  C310 9049   2.929   3.369   7.306
   92SAPS  H10X 9050   3.024   3.422   7.329
   92SAPS  H10Y 9051   2.952   3.260   7.296
   92SAPS  C311 9052   2.846   3.386   7.430
   92SAPS  H11X 9053   2.747   3.334   7.424
   92SAPS  H11Y 9054   2.819   3.490   7.451
   92SAPS  C312 9055   2.935   3.344   7.547
   92SAPS  H12X 9056   3.042   3.358   7.533
   92SAPS  H12Y 9057   2.913   3.235   7.557
   92SAPS  C313 9058   2.928   3.440   7.672
   92SAPS  H13X 9059   2.869   3.532   7.669
   92SAPS  H13Y 9060   2.989   3.406   7.761
   92SAPS  C314 9061   2.798   3.409   7.723
   92SAPS  H14X 9062   2.842   3.298   7.726
   92SAPS  H14Y 9063   2.738   3.393   7.632
   92SAPS  C315 9064   2.685   3.459   7.866
   92SAPS  H15X 9065   2.626   3.528   7.885
   92SAPS  H15Y 9066   2.799   3.475   7.914
   92SAPS  C316 9067   2.544   3.296   7.987
   92SAPS  H16X 9068   2.461   3.253   7.939
   92SAPS  H16Y 9069   2.522   3.290   8.093
   92SAPS  C317 9070   2.620   3.142   8.054
   92SAPS  H17X 9071   2.709   3.164   8.111
   92SAPS  H17Y 9072   2.680   3.067   7.995
   92SAPS  C318 9073   2.577   3.033   8.095
   92SAPS  H18X 9074   2.490   3.014   8.033
   92SAPS  H18Y 9075   2.553   3.094   8.183
   92SAPS  H18Z 9076   2.644   2.949   8.136
   93SAPS     N 9077   3.789   2.577   6.197
   93SAPS   HN1 9078   3.742   2.658   6.244
   93SAPS   HN2 9079   3.719   2.514   6.154
   93SAPS   HN3 9080   3.851   2.525   6.263
   93SAPS   C12 9081   3.866   2.633   6.081
   93SAPS  H12A 9082   3.812   2.599   5.995
   93SAPS   C13 9083   3.857   2.788   6.076
   93SAPS  O13A 9084   3.765   2.841   6.147
   93SAPS  O13B 9085   3.910   2.849   5.981
   93SAPS   C11 9086   4.011   2.574   6.072
   93SAPS  H11A 9087   4.008   2.466   6.100
   93SAPS  H11B 9088   4.077   2.628   6.144
   93SAPS     P 9089   4.169   2.490   5.873
   93SAPS   O13 9090   4.106   2.387   5.789
   93SAPS   O14 9091   4.279   2.572   5.816
   93SAPS   O12 9092   4.061   2.585   5.938
   93SAPS   O11 9093   4.225   2.417   5.998
   93SAPS    C1 9094   4.326   2.472   6.078
   93SAPS    HA 9095   4.424   2.468   6.024
   93SAPS    HB 9096   4.309   2.577   6.112
   93SAPS    C2 9097   4.319   2.390   6.205
   93SAPS    HS 9098   4.338   2.285   6.169
   93SAPS   O21 9099   4.193   2.393   6.269
   93SAPS   C21 9100   4.172   2.296   6.355
   93SAPS   O22 9101   4.233   2.192   6.368
   93SAPS   C22 9102   4.044   2.328   6.419
   93SAPS   H2R 9103   4.041   2.427   6.469
   93SAPS   H2S 9104   3.971   2.325   6.335
   93SAPS    C3 9105   4.417   2.451   6.302
   93SAPS    HX 9106   4.512   2.465   6.248
   93SAPS    HY 9107   4.425   2.373   6.377
   93SAPS   O31 9108   4.390   2.577   6.359
   93SAPS   C31 9109   4.352   2.573   6.485
   93SAPS   O32 9110   4.320   2.477   6.551
   93SAPS   C32 9111   4.361   2.713   6.532
   93SAPS   H2X 9112   4.462   2.752   6.508
   93SAPS   H2Y 9113   4.348   2.716   6.642
   93SAPS   C23 9114   4.016   2.216   6.514
   93SAPS   H3R 9115   4.043   2.115   6.482
   93SAPS   H3S 9116   3.912   2.198   6.488
   93SAPS   C24 9117   4.058   2.247   6.659
   93SAPS   H4R 9118   4.011   2.339   6.702
   93SAPS   H4S 9119   4.166   2.250   6.675
   93SAPS   C25 9120   4.002   2.137   6.733
   93SAPS   H5R 9121   3.995   2.033   6.693
   93SAPS   C26 9122   3.958   2.160   6.852
   93SAPS   H6R 9123   3.923   2.060   6.864
   93SAPS   C27 9124   3.940   2.271   6.963
   93SAPS   H7R 9125   3.963   2.370   6.921
   93SAPS   H7S 9126   4.033   2.262   7.029
   93SAPS   C28 9127   3.818   2.284   7.063
   93SAPS   H8R 9128   3.746   2.354   7.027
   93SAPS   C29 9129   3.779   2.235   7.189
   93SAPS   H9R 9130   3.705   2.270   7.260
   93SAPS  C210 9131   3.832   2.149   7.289
   93SAPS  H10R 9132   3.873   2.195   7.381
   93SAPS  H10S 9133   3.912   2.157   7.223
   93SAPS  C211 9134   3.812   2.007   7.325
   93SAPS  H11R 9135   3.899   1.945   7.304
   93SAPS  C212 9136   3.763   1.944   7.419
   93SAPS  H12R 9137   3.770   1.833   7.425
   93SAPS  C213 9138   3.716   2.043   7.514
   93SAPS  H13R 9139   3.614   2.049   7.499
   93SAPS  H13S 9140   3.736   2.148   7.496
   93SAPS  C214 9141   3.742   2.006   7.650
   93SAPS  H14R 9142   3.771   1.902   7.661
   93SAPS  C215 9143   3.747   2.083   7.754
   93SAPS  H15R 9144   3.790   2.049   7.847
   93SAPS  C216 9145   3.724   2.221   7.753
   93SAPS  H16R 9146   3.664   2.212   7.845
   93SAPS  H16S 9147   3.665   2.239   7.661
   93SAPS  C217 9148   3.799   2.337   7.807
   93SAPS  H17R 9149   3.875   2.293   7.873
   93SAPS  H17S 9150   3.727   2.396   7.870
   93SAPS  C218 9151   3.841   2.427   7.693
   93SAPS  H18R 9152   3.753   2.452   7.630
   93SAPS  H18S 9153   3.912   2.372   7.627
   93SAPS  C219 9154   3.900   2.557   7.746
   93SAPS  H19R 9155   3.832   2.600   7.823
   93SAPS  H19S 9156   3.911   2.632   7.665
   93SAPS  C220 9157   4.037   2.526   7.804
   93SAPS  H20R 9158   4.091   2.482   7.719
   93SAPS  H20S 9159   4.032   2.453   7.887
   93SAPS  H20T 9160   4.096   2.615   7.831
   93SAPS   C33 9161   4.253   2.783   6.454
   93SAPS   H3X 9162   4.283   2.788   6.346
   93SAPS   H3Y 9163   4.248   2.886   6.495
   93SAPS   C34 9164   4.117   2.713   6.468
   93SAPS   H4X 9165   4.124   2.617   6.413
   93SAPS   H4Y 9166   4.041   2.775   6.416
   93SAPS   C35 9167   4.074   2.684   6.612
   93SAPS   H5X 9168   4.142   2.607   6.656
   93SAPS   H5Y 9169   3.975   2.635   6.612
   93SAPS   C36 9170   4.075   2.808   6.703
   93SAPS   H6X 9171   4.018   2.892   6.659
   93SAPS   H6Y 9172   4.180   2.844   6.711
   93SAPS   C37 9173   4.025   2.778   6.846
   93SAPS   H7X 9174   4.088   2.695   6.885
   93SAPS   H7Y 9175   3.919   2.744   6.843
   93SAPS   C38 9176   4.031   2.900   6.939
   93SAPS   H8X 9177   3.970   2.980   6.891
   93SAPS   H8Y 9178   4.136   2.939   6.944
   93SAPS   C39 9179   3.972   2.879   7.080
   93SAPS   H9X 9180   3.862   2.870   7.073
   93SAPS   H9Y 9181   3.995   2.965   7.146
   93SAPS  C310 9182   4.023   2.757   7.156
   93SAPS  H10X 9183   3.996   2.663   7.103
   93SAPS  H10Y 9184   3.972   2.757   7.255
   93SAPS  C311 9185   4.173   2.759   7.176
   93SAPS  H11X 9186   4.207   2.842   7.242
   93SAPS  H11Y 9187   4.225   2.774   7.079
   93SAPS  C312 9188   4.215   2.624   7.233
   93SAPS  H12X 9189   4.323   2.642   7.220
   93SAPS  H12Y 9190   4.195   2.539   7.166
   93SAPS  C313 9191   4.168   2.597   7.380
   93SAPS  H13X 9192   4.057   2.596   7.383
   93SAPS  H13Y 9193   4.206   2.679   7.445
   93SAPS  C314 9194   4.217   2.477   7.463
   93SAPS  H14X 9195   4.231   2.498   7.570
   93SAPS  H14Y 9196   4.313   2.432   7.439
   93SAPS  C315 9197   4.159   2.346   7.440
   93SAPS  H15X 9198   4.185   2.324   7.332
   93SAPS  H15Y 9199   4.049   2.356   7.449
   93SAPS  C316 9200   4.238   2.258   7.539
   93SAPS  H16X 9201   4.345   2.274   7.543
   93SAPS  H16Y 9202   4.275   2.159   7.520
   93SAPS  C317 9203   4.184   2.246   7.674
   93SAPS  H17X 9204   4.072   2.232   7.678
   93SAPS  H17Y 9205   4.194   2.335   7.730
   93SAPS  C318 9206   4.268   2.136   7.736
   93SAPS  H18X 9207   4.311   2.132   7.835
   93SAPS  H18Y 9208   4.288   2.039   7.679
   93SAPS  H18Z 9209   4.171   2.117   7.780
   94SAPS     N 9210   4.892   4.554   5.814
   94SAPS   HN1 9211   4.828   4.473   5.818
   94SAPS   HN2 9212   4.906   4.578   5.713
   94SAPS   HN3 9213   4.981   4.539   5.863
   94SAPS   C12 9214   4.807   4.664   5.870
   94SAPS  H12A 9215   4.856   4.758   5.849
   94SAPS   C13 9216   4.671   4.663   5.798
   94SAPS  O13A 9217   4.654   4.575   5.708
   94SAPS  O13B 9218   4.588   4.754   5.820
   94SAPS   C11 9219   4.786   4.644   6.023
   94SAPS  H11A 9220   4.879   4.615   6.075
   94SAPS  H11B 9221   4.711   4.562   6.039
   94SAPS     P 9222   4.633   4.766   6.194
   94SAPS   O13 9223   4.628   4.901   6.254
   94SAPS   O14 9224   4.510   4.705   6.141
   94SAPS   O12 9225   4.744   4.768   6.079
   94SAPS   O11 9226   4.703   4.663   6.298
   94SAPS    C1 9227   4.804   4.717   6.385
   94SAPS    HA 9228   4.877   4.781   6.331
   94SAPS    HB 9229   4.753   4.781   6.462
   94SAPS    C2 9230   4.894   4.614   6.462
   94SAPS    HS 9231   4.945   4.549   6.388
   94SAPS   O21 9232   4.828   4.528   6.550
   94SAPS   C21 9233   4.870   4.419   6.595
   94SAPS   O22 9234   4.951   4.339   6.551
   94SAPS   C22 9235   4.785   4.395   6.706
   94SAPS   H2R 9236   4.744   4.481   6.767
   94SAPS   H2S 9237   4.701   4.329   6.676
   94SAPS    C3 9238   4.989   4.692   6.552
   94SAPS    HX 9239   5.079   4.717   6.493
   94SAPS    HY 9240   5.012   4.622   6.636
   94SAPS   O31 9241   4.933   4.812   6.604
   94SAPS   C31 9242   4.882   4.810   6.725
   94SAPS   O32 9243   4.881   4.716   6.802
   94SAPS   C32 9244   4.824   4.946   6.748
   94SAPS   H2X 9245   4.748   4.969   6.670
   94SAPS   H2Y 9246   4.903   5.024   6.739
   94SAPS   C23 9247   4.796   4.273   6.767
   94SAPS   H3R 9248   4.887   4.217   6.726
   94SAPS   H3S 9249   4.781   4.181   6.694
   94SAPS   C24 9250   4.700   4.320   6.902
   94SAPS   H4R 9251   4.607   4.249   6.907
   94SAPS   H4S 9252   4.716   4.386   6.977
   94SAPS   C25 9253   4.799   4.284   6.973
   94SAPS   H5R 9254   4.745   4.175   6.945
   94SAPS   C26 9255   4.909   4.316   7.104
   94SAPS   H6R 9256   5.004   4.217   7.148
   94SAPS   C27 9257   4.936   4.449   7.132
   94SAPS   H7R 9258   4.823   4.404   7.173
   94SAPS   H7S 9259   4.852   4.497   7.125
   94SAPS   C28 9260   5.029   4.437   7.251
   94SAPS   H8R 9261   5.069   4.366   7.325
   94SAPS   C29 9262   5.056   4.556   7.273
   94SAPS   H9R 9263   5.154   4.544   7.322
   94SAPS  C210 9264   4.995   4.666   7.181
   94SAPS  H10R 9265   4.886   4.666   7.198
   94SAPS  H10S 9266   5.011   4.633   7.078
   94SAPS  C211 9267   5.027   4.811   7.164
   94SAPS  H11R 9268   5.122   4.831   7.116
   94SAPS  C212 9269   5.010   4.897   7.260
   94SAPS  H12R 9270   5.096   4.966   7.283
   94SAPS  C213 9271   4.953   4.845   7.386
   94SAPS  H13R 9272   5.006   4.827   7.485
   94SAPS  H13S 9273   4.884   4.760   7.374
   94SAPS  C214 9274   4.895   4.976   7.388
   94SAPS  H14R 9275   4.900   5.075   7.331
   94SAPS  C215 9276   4.829   4.961   7.490
   94SAPS  H15R 9277   4.763   5.043   7.454
   94SAPS  C216 9278   4.793   4.849   7.608
   94SAPS  H16R 9279   4.873   4.783   7.629
   94SAPS  H16S 9280   4.706   4.778   7.601
   94SAPS  C217 9281   4.726   4.879   7.746
   94SAPS  H17R 9282   4.635   4.936   7.757
   94SAPS  H17S 9283   4.796   4.932   7.795
   94SAPS  C218 9284   4.658   4.801   7.843
   94SAPS  H18R 9285   4.565   4.772   7.807
   94SAPS  H18S 9286   4.641   4.866   7.932
   94SAPS  C219 9287   4.746   4.700   7.875
   94SAPS  H19R 9288   4.844   4.741   7.901
   94SAPS  H19S 9289   4.764   4.644   7.784
   94SAPS  C220 9290   4.673   4.647   7.989
   94SAPS  H20R 9291   4.735   4.577   8.031
   94SAPS  H20S 9292   4.580   4.598   7.955
   94SAPS  H20T 9293   4.656   4.724   8.069
   94SAPS   C33 9294   4.758   4.943   6.885
   94SAPS   H3X 9295   4.737   5.051   6.895
   94SAPS   H3Y 9296   4.819   4.923   6.973
   94SAPS   C34 9297   4.639   4.843   6.886
   94SAPS   H4X 9298   4.649   4.737   6.871
   94SAPS   H4Y 9299   4.581   4.876   6.797
   94SAPS   C35 9300   4.554   4.832   7.011
   94SAPS   H5X 9301   4.444   4.821   7.002
   94SAPS   H5Y 9302   4.547   4.919   7.070
   94SAPS   C36 9303   4.630   4.773   7.124
   94SAPS   H6X 9304   4.707   4.851   7.153
   94SAPS   H6Y 9305   4.694   4.693   7.090
   94SAPS   C37 9306   4.514   4.726   7.212
   94SAPS   H7X 9307   4.420   4.785   7.207
   94SAPS   H7Y 9308   4.529   4.736   7.317
   94SAPS   C38 9309   4.513   4.589   7.264
   94SAPS   H8X 9310   4.548   4.540   7.172
   94SAPS   H8Y 9311   4.407   4.578   7.294
   94SAPS   C39 9312   4.603   4.565   7.387
   94SAPS   H9X 9313   4.586   4.631   7.476
   94SAPS   H9Y 9314   4.707   4.585   7.353
   94SAPS  C310 9315   4.573   4.428   7.439
   94SAPS  H10X 9316   4.579   4.358   7.354
   94SAPS  H10Y 9317   4.467   4.411   7.464
   94SAPS  C311 9318   4.658   4.408   7.562
   94SAPS  H11X 9319   4.671   4.299   7.570
   94SAPS  H11Y 9320   4.605   4.434   7.655
   94SAPS  C312 9321   4.787   4.492   7.565
   94SAPS  H12X 9322   4.778   4.597   7.590
   94SAPS  H12Y 9323   4.837   4.497   7.466
   94SAPS  C313 9324   4.878   4.433   7.670
   94SAPS  H13X 9325   4.908   4.344   7.657
   94SAPS  H13Y 9326   4.830   4.415   7.762
   94SAPS  C314 9327   5.037   4.397   7.646
   94SAPS  H14X 9328   5.090   4.415   7.547
   94SAPS  H14Y 9329   5.096   4.335   7.716
   94SAPS  C315 9330   5.079   4.505   7.669
   94SAPS  H15X 9331   4.996   4.549   7.745
   94SAPS  H15Y 9332   5.006   4.575   7.613
   94SAPS  C316 9333   5.260   4.532   7.720
   94SAPS  H16X 9334   5.338   4.581   7.724
   94SAPS  H16Y 9335   5.302   4.451   7.771
   94SAPS  C317 9336   5.300   4.734   7.819
   94SAPS  H17X 9337   5.252   4.759   7.923
   94SAPS  H17Y 9338   5.213   4.813   7.844
   94SAPS  C318 9339   5.385   4.833   7.775
   94SAPS  H18X 9340   5.442   4.888   7.851
   94SAPS  H18Y 9341   5.448   4.828   7.693
   94SAPS  H18Z 9342   5.412   4.727   7.776
   95SAPS     N 9343   1.487   3.261   5.983
   95SAPS   HN1 9344   1.424   3.200   6.040
   95SAPS   HN2 9345   1.533   3.208   5.906
   95SAPS   HN3 9346   1.559   3.302   6.046
   95SAPS   C12 9347   1.404   3.371   5.922
   95SAPS  H12A 9348   1.442   3.465   5.955
   95SAPS   C13 9349   1.400   3.378   5.769
   95SAPS  O13A 9350   1.467   3.293   5.705
   95SAPS  O13B 9351   1.326   3.463   5.714
   95SAPS   C11 9352   1.257   3.365   5.970
   95SAPS  H11A 9353   1.211   3.273   5.926
   95SAPS  H11B 9354   1.203   3.453   5.928
   95SAPS     P 9355   1.170   3.258   6.189
   95SAPS   O13 9356   1.039   3.246   6.123
   95SAPS   O14 9357   1.262   3.143   6.188
   95SAPS   O12 9358   1.250   3.372   6.113
   95SAPS   O11 9359   1.153   3.315   6.334
   95SAPS    C1 9360   1.110   3.449   6.359
   95SAPS    HA 9361   1.078   3.503   6.267
   95SAPS    HB 9362   1.022   3.445   6.427
   95SAPS    C2 9363   1.224   3.530   6.424
   95SAPS    HS 9364   1.200   3.639   6.414
   95SAPS   O21 9365   1.343   3.491   6.355
   95SAPS   C21 9366   1.430   3.584   6.340
   95SAPS   O22 9367   1.420   3.697   6.382
   95SAPS   C22 9368   1.545   3.529   6.258
   95SAPS   H2R 9369   1.515   3.435   6.209
   95SAPS   H2S 9370   1.569   3.605   6.180
   95SAPS    C3 9371   1.239   3.500   6.575
   95SAPS    HX 9372   1.137   3.509   6.618
   95SAPS    HY 9373   1.308   3.574   6.621
   95SAPS   O31 9374   1.291   3.369   6.595
   95SAPS   C31 9375   1.310   3.339   6.720
   95SAPS   O32 9376   1.273   3.404   6.817
   95SAPS   C32 9377   1.384   3.209   6.721
   95SAPS   H2X 9378   1.482   3.207   6.673
   95SAPS   H2Y 9379   1.329   3.146   6.651
   95SAPS   C23 9380   1.667   3.509   6.349
   95SAPS   H3R 9381   1.684   3.607   6.398
   95SAPS   H3S 9382   1.753   3.486   6.283
   95SAPS   C24 9383   1.655   3.401   6.457
   95SAPS   H4R 9384   1.630   3.307   6.405
   95SAPS   H4S 9385   1.566   3.420   6.518
   95SAPS   C25 9386   1.774   3.375   6.548
   95SAPS   H5R 9387   1.862   3.340   6.494
   95SAPS   C26 9388   1.794   3.413   6.676
   95SAPS   H6R 9389   1.893   3.396   6.721
   95SAPS   C27 9390   1.696   3.495   6.754
   95SAPS   H7R 9391   1.618   3.536   6.689
   95SAPS   H7S 9392   1.737   3.587   6.796
   95SAPS   C28 9393   1.637   3.416   6.863
   95SAPS   H8R 9394   1.604   3.319   6.830
   95SAPS   C29 9395   1.629   3.440   6.992
   95SAPS   H9R 9396   1.569   3.377   7.056
   95SAPS  C210 9397   1.679   3.555   7.064
   95SAPS  H10R 9398   1.632   3.641   7.022
   95SAPS  H10S 9399   1.786   3.571   7.036
   95SAPS  C211 9400   1.648   3.558   7.211
   95SAPS  H11R 9401   1.737   3.560   7.274
   95SAPS  C212 9402   1.526   3.581   7.265
   95SAPS  H12R 9403   1.516   3.573   7.374
   95SAPS  C213 9404   1.396   3.609   7.193
   95SAPS  H13R 9405   1.400   3.656   7.093
   95SAPS  H13S 9406   1.336   3.681   7.252
   95SAPS  C214 9407   1.339   3.471   7.179
   95SAPS  H14R 9408   1.379   3.401   7.107
   95SAPS  C215 9409   1.240   3.431   7.254
   95SAPS  H15R 9410   1.191   3.334   7.241
   95SAPS  C216 9411   1.182   3.524   7.352
   95SAPS  H16R 9412   1.087   3.485   7.335
   95SAPS  H16S 9413   1.167   3.631   7.328
   95SAPS  C217 9414   1.208   3.507   7.496
   95SAPS  H17R 9415   1.314   3.480   7.501
   95SAPS  H17S 9416   1.151   3.417   7.532
   95SAPS  C218 9417   1.181   3.638   7.575
   95SAPS  H18R 9418   1.074   3.666   7.586
   95SAPS  H18S 9419   1.216   3.733   7.534
   95SAPS  C219 9420   1.228   3.602   7.713
   95SAPS  H19R 9421   1.225   3.490   7.726
   95SAPS  H19S 9422   1.176   3.652   7.804
   95SAPS  C220 9423   1.357   3.597   7.728
   95SAPS  H20R 9424   1.385   3.548   7.820
   95SAPS  H20S 9425   1.331   3.703   7.743
   95SAPS  H20T 9426   1.422   3.578   7.645
   95SAPS   C33 9427   1.404   3.184   6.870
   95SAPS   H3X 9428   1.308   3.201   6.928
   95SAPS   H3Y 9429   1.483   3.233   6.924
   95SAPS   C34 9430   1.481   3.063   6.904
   95SAPS   H4X 9431   1.548   2.992   6.851
   95SAPS   H4Y 9432   1.382   3.042   6.868
   95SAPS   C35 9433   1.453   3.016   7.036
   95SAPS   H5X 9434   1.469   2.911   6.997
   95SAPS   H5Y 9435   1.351   3.056   7.057
   95SAPS   C36 9436   1.511   3.077   7.154
   95SAPS   H6X 9437   1.464   3.176   7.161
   95SAPS   H6Y 9438   1.610   3.072   7.103
   95SAPS   C37 9439   1.513   3.009   7.294
   95SAPS   H7X 9440   1.596   3.065   7.342
   95SAPS   H7Y 9441   1.532   2.904   7.262
   95SAPS   C38 9442   1.417   2.986   7.413
   95SAPS   H8X 9443   1.408   2.880   7.445
   95SAPS   H8Y 9444   1.317   3.015   7.390
   95SAPS   C39 9445   1.395   3.089   7.509
   95SAPS   H9X 9446   1.403   3.184   7.452
   95SAPS   H9Y 9447   1.481   3.057   7.568
   95SAPS  C310 9448   1.263   3.076   7.584
   95SAPS  H10X 9449   1.255   2.974   7.630
   95SAPS  H10Y 9450   1.170   3.088   7.525
   95SAPS  C311 9451   1.272   3.194   7.677
   95SAPS  H11X 9452   1.179   3.202   7.735
   95SAPS  H11Y 9453   1.282   3.288   7.621
   95SAPS  C312 9454   1.397   3.180   7.762
   95SAPS  H12X 9455   1.492   3.164   7.711
   95SAPS  H12Y 9456   1.381   3.083   7.804
   95SAPS  C313 9457   1.417   3.289   7.863
   95SAPS  H13X 9458   1.385   3.282   7.968
   95SAPS  H13Y 9459   1.370   3.377   7.833
   95SAPS  C314 9460   1.556   3.291   7.896
   95SAPS  H14X 9461   1.624   3.301   7.811
   95SAPS  H14Y 9462   1.554   3.188   7.938
   95SAPS  C315 9463   1.592   3.404   7.983
   95SAPS  H15X 9464   1.532   3.409   8.077
   95SAPS  H15Y 9465   1.549   3.487   7.925
   95SAPS  C316 9466   1.745   3.403   7.996
   95SAPS  H16X 9467   1.815   3.405   7.911
   95SAPS  H16Y 9468   1.796   3.331   8.060
   95SAPS  C317 9469   1.781   3.519   8.063
   95SAPS  H17X 9470   1.888   3.492   8.084
   95SAPS  H17Y 9471   1.749   3.554   8.159
   95SAPS  C318 9472   1.723   3.616   7.985
   95SAPS  H18X 9473   1.779   3.609   7.898
   95SAPS  H18Y 9474   1.739   3.723   7.990
   95SAPS  H18Z 9475   1.626   3.648   8.017
   96SAPS     N 9476   1.578   4.993   5.938
   96SAPS   HN1 9477   1.618   4.922   5.873
   96SAPS   HN2 9478   1.626   5.083   5.922
   96SAPS   HN3 9479   1.580   4.961   6.037
   96SAPS   C12 9480   1.434   5.002   5.899
   96SAPS  H12A 9481   1.398   5.099   5.931
   96SAPS   C13 9482   1.416   4.998   5.746
   96SAPS  O13A 9483   1.520   4.997   5.674
   96SAPS  O13B 9484   1.298   4.993   5.699
   96SAPS   C11 9485   1.352   4.893   5.975
   96SAPS  H11A 9486   1.369   4.789   5.941
   96SAPS  H11B 9487   1.246   4.917   5.950
   96SAPS     P 9488   1.275   4.829   6.215
   96SAPS   O13 9489   1.267   4.685   6.184
   96SAPS   O14 9490   1.308   4.873   6.353
   96SAPS   O12 9491   1.376   4.901   6.115
   96SAPS   O11 9492   1.140   4.888   6.163
   96SAPS    C1 9493   1.017   4.843   6.220
   96SAPS    HA 9494   0.954   4.793   6.145
   96SAPS    HB 9495   1.026   4.787   6.314
   96SAPS    C2 9496   0.952   4.962   6.279
   96SAPS    HS 9497   0.911   5.003   6.181
   96SAPS   O21 9498   1.068   5.021   6.358
   96SAPS   C21 9499   1.063   5.145   6.327
   96SAPS   O22 9500   0.962   5.178   6.264
   96SAPS   C22 9501   1.170   5.239   6.415
   96SAPS   H2R 9502   1.269   5.235   6.373
   96SAPS   H2S 9503   1.142   5.348   6.414
   96SAPS    C3 9504   0.826   4.937   6.366
   96SAPS    HX 9505   0.785   4.838   6.335
   96SAPS    HY 9506   0.746   5.013   6.359
   96SAPS   O31 9507   0.872   4.951   6.498
   96SAPS   C31 9508   0.871   4.853   6.570
   96SAPS   O32 9509   0.795   4.756   6.560
   96SAPS   C32 9510   0.998   4.887   6.667
   96SAPS   H2X 9511   0.925   4.926   6.741
   96SAPS   H2Y 9512   1.048   4.976   6.639
   96SAPS   C23 9513   1.201   5.200   6.568
   96SAPS   H3R 9514   1.241   5.101   6.586
   96SAPS   H3S 9515   1.113   5.150   6.598
   96SAPS   C24 9516   1.201   5.294   6.690
   96SAPS   H4R 9517   1.203   5.244   6.788
   96SAPS   H4S 9518   1.142   5.382   6.704
   96SAPS   C25 9519   1.317   5.351   6.701
   96SAPS   H5R 9520   1.321   5.436   6.634
   96SAPS   C26 9521   1.415   5.279   6.745
   96SAPS   H6R 9522   1.483   5.346   6.774
   96SAPS   C27 9523   1.448   5.145   6.792
   96SAPS   H7R 9524   1.533   5.106   6.730
   96SAPS   H7S 9525   1.360   5.085   6.793
   96SAPS   C28 9526   1.496   5.164   6.930
   96SAPS   H8R 9527   1.604   5.152   6.919
   96SAPS   C29 9528   1.443   5.221   7.043
   96SAPS   H9R 9529   1.510   5.241   7.129
   96SAPS  C210 9530   1.314   5.286   7.070
   96SAPS  H10R 9531   1.277   5.342   6.982
   96SAPS  H10S 9532   1.314   5.355   7.159
   96SAPS  C211 9533   1.255   5.150   7.091
   96SAPS  H11R 9534   1.265   5.081   7.004
   96SAPS  C212 9535   1.182   5.111   7.192
   96SAPS  H12R 9536   1.135   5.012   7.179
   96SAPS  C213 9537   1.148   5.208   7.303
   96SAPS  H13R 9538   1.114   5.305   7.259
   96SAPS  H13S 9539   1.224   5.221   7.378
   96SAPS  C214 9540   1.031   5.170   7.375
   96SAPS  H14R 9541   0.962   5.187   7.295
   96SAPS  C215 9542   1.001   5.120   7.497
   96SAPS  H15R 9543   0.902   5.078   7.524
   96SAPS  C216 9544   1.102   5.092   7.597
   96SAPS  H16R 9545   1.146   5.190   7.614
   96SAPS  H16S 9546   1.175   5.019   7.556
   96SAPS  C217 9547   1.044   5.035   7.724
   96SAPS  H17R 9548   1.121   5.005   7.797
   96SAPS  H17S 9549   1.002   4.942   7.687
   96SAPS  C218 9550   0.941   5.123   7.794
   96SAPS  H18R 9551   0.881   5.069   7.869
   96SAPS  H18S 9552   0.874   5.178   7.723
   96SAPS  C219 9553   1.011   5.223   7.874
   96SAPS  H19R 9554   1.072   5.273   7.796
   96SAPS  H19S 9555   1.084   5.181   7.948
   96SAPS  C220 9556   0.914   5.315   7.944
   96SAPS  H20R 9557   0.871   5.392   7.877
   96SAPS  H20S 9558   0.971   5.369   8.019
   96SAPS  H20T 9559   0.835   5.258   7.996
   96SAPS   C33 9560   1.129   4.800   6.724
   96SAPS   H3X 9561   1.149   4.707   6.679
   96SAPS   H3Y 9562   1.104   4.741   6.809
   96SAPS   C34 9563   1.220   4.835   6.846
   96SAPS   H4X 9564   1.158   4.869   6.931
   96SAPS   H4Y 9565   1.255   4.928   6.807
   96SAPS   C35 9566   1.350   4.749   6.884
   96SAPS   H5X 9567   1.402   4.766   6.790
   96SAPS   H5Y 9568   1.391   4.646   6.861
   96SAPS   C36 9569   1.381   4.754   7.037
   96SAPS   H6X 9570   1.295   4.799   7.093
   96SAPS   H6Y 9571   1.468   4.815   7.023
   96SAPS   C37 9572   1.430   4.633   7.127
   96SAPS   H7X 9573   1.481   4.551   7.069
   96SAPS   H7Y 9574   1.337   4.602   7.176
   96SAPS   C38 9575   1.498   4.629   7.255
   96SAPS   H8X 9576   1.508   4.521   7.284
   96SAPS   H8Y 9577   1.433   4.682   7.329
   96SAPS   C39 9578   1.629   4.682   7.212
   96SAPS   H9X 9579   1.641   4.689   7.100
   96SAPS   H9Y 9580   1.701   4.611   7.253
   96SAPS  C310 9581   1.639   4.813   7.275
   96SAPS  H10X 9582   1.742   4.849   7.267
   96SAPS  H10Y 9583   1.619   4.792   7.383
   96SAPS  C311 9584   1.539   4.915   7.221
   96SAPS  H11X 9585   1.433   4.888   7.214
   96SAPS  H11Y 9586   1.574   4.964   7.127
   96SAPS  C312 9587   1.523   5.012   7.327
   96SAPS  H12X 9588   1.489   5.107   7.279
   96SAPS  H12Y 9589   1.631   5.011   7.352
   96SAPS  C313 9590   1.443   4.968   7.451
   96SAPS  H13X 9591   1.514   4.907   7.514
   96SAPS  H13Y 9592   1.345   4.928   7.427
   96SAPS  C314 9593   1.409   5.074   7.552
   96SAPS  H14X 9594   1.341   5.157   7.525
   96SAPS  H14Y 9595   1.503   5.105   7.516
   96SAPS  C315 9596   1.435   5.036   7.702
   96SAPS  H15X 9597   1.537   5.003   7.723
   96SAPS  H15Y 9598   1.344   4.982   7.736
   96SAPS  C316 9599   1.432   5.145   7.802
   96SAPS  H16X 9600   1.333   5.175   7.758
   96SAPS  H16Y 9601   1.511   5.215   7.782
   96SAPS  C317 9602   1.498   5.186   7.941
   96SAPS  H17X 9603   1.511   5.085   7.977
   96SAPS  H17Y 9604   1.421   5.235   8.006
   96SAPS  C318 9605   1.623   5.290   7.948
   96SAPS  H18X 9606   1.671   5.303   8.047
   96SAPS  H18Y 9607   1.605   5.400   7.929
   96SAPS  H18Z 9608   1.695   5.270   7.868
   97SAPS     N 9609   1.722   1.259   6.150
   97SAPS   HN1 9610   1.726   1.162   6.114
   97SAPS   HN2 9611   1.747   1.258   6.252
   97SAPS   HN3 9612   1.629   1.304   6.133
   97SAPS   C12 9613   1.828   1.339   6.079
   97SAPS  H12A 9614   1.783   1.423   6.028
   97SAPS   C13 9615   1.936   1.398   6.171
   97SAPS  O13A 9616   1.941   1.354   6.289
   97SAPS  O13B 9617   2.019   1.478   6.121
   97SAPS   C11 9618   1.897   1.245   5.979
   97SAPS  H11A 9619   1.823   1.195   5.913
   97SAPS  H11B 9620   1.950   1.165   6.036
   97SAPS     P 9621   2.114   1.252   5.836
   97SAPS   O13 9622   2.066   1.169   5.723
   97SAPS   O14 9623   2.213   1.356   5.801
   97SAPS   O12 9624   1.984   1.321   5.896
   97SAPS   O11 9625   2.172   1.155   5.949
   97SAPS    C1 9626   2.245   1.210   6.059
   97SAPS    HA 9627   2.339   1.257   6.023
   97SAPS    HB 9628   2.186   1.287   6.113
   97SAPS    C2 9629   2.282   1.100   6.160
   97SAPS    HS 9630   2.329   1.021   6.100
   97SAPS   O21 9631   2.168   1.052   6.229
   97SAPS   C21 9632   2.098   0.961   6.171
   97SAPS   O22 9633   2.130   0.886   6.080
   97SAPS   C22 9634   1.966   0.951   6.246
   97SAPS   H2R 9635   1.922   1.046   6.278
   97SAPS   H2S 9636   1.897   0.891   6.181
   97SAPS    C3 9637   2.380   1.154   6.265
   97SAPS    HX 9638   2.470   1.187   6.208
   97SAPS    HY 9639   2.411   1.074   6.336
   97SAPS   O31 9640   2.318   1.265   6.331
   97SAPS   C31 9641   2.377   1.310   6.438
   97SAPS   O32 9642   2.472   1.266   6.496
   97SAPS   C32 9643   2.315   1.431   6.494
   97SAPS   H2X 9644   2.208   1.432   6.472
   97SAPS   H2Y 9645   2.370   1.514   6.445
   97SAPS   C23 9646   1.991   0.871   6.371
   97SAPS   H3R 9647   2.019   0.784   6.313
   97SAPS   H3S 9648   1.897   0.832   6.415
   97SAPS   C24 9649   2.099   0.918   6.478
   97SAPS   H4R 9650   2.199   0.930   6.434
   97SAPS   H4S 9651   2.139   0.850   6.557
   97SAPS   C25 9652   2.041   1.031   6.558
   97SAPS   H5R 9653   2.088   1.121   6.525
   97SAPS   C26 9654   1.946   1.045   6.655
   97SAPS   H6R 9655   1.937   1.140   6.703
   97SAPS   C27 9656   1.854   0.954   6.729
   97SAPS   H7R 9657   1.905   0.877   6.689
   97SAPS   H7S 9658   1.754   0.923   6.691
   97SAPS   C28 9659   1.864   0.948   6.877
   97SAPS   H8R 9660   1.961   0.916   6.915
   97SAPS   C29 9661   1.780   1.008   6.960
   97SAPS   H9R 9662   1.796   1.006   7.070
   97SAPS  C210 9663   1.670   1.088   6.900
   97SAPS  H10R 9664   1.573   1.054   6.939
   97SAPS  H10S 9665   1.660   1.070   6.791
   97SAPS  C211 9666   1.687   1.237   6.907
   97SAPS  H11R 9667   1.592   1.284   6.878
   97SAPS  C212 9668   1.792   1.318   6.935
   97SAPS  H12R 9669   1.775   1.426   6.930
   97SAPS  C213 9670   1.937   1.288   6.972
   97SAPS  H13R 9671   1.996   1.379   6.951
   97SAPS  H13S 9672   1.983   1.212   6.906
   97SAPS  C214 9673   1.957   1.251   7.117
   97SAPS  H14R 9674   1.994   1.148   7.132
   97SAPS  C215 9675   1.941   1.331   7.224
   97SAPS  H15R 9676   1.958   1.289   7.325
   97SAPS  C216 9677   1.899   1.477   7.227
   97SAPS  H16R 9678   1.880   1.518   7.125
   97SAPS  H16S 9679   1.983   1.538   7.267
   97SAPS  C217 9680   1.777   1.505   7.315
   97SAPS  H17R 9681   1.685   1.457   7.276
   97SAPS  H17S 9682   1.760   1.615   7.309
   97SAPS  C218 9683   1.792   1.460   7.462
   97SAPS  H18R 9684   1.806   1.350   7.464
   97SAPS  H18S 9685   1.696   1.479   7.514
   97SAPS  C219 9686   1.906   1.524   7.545
   97SAPS  H19R 9687   1.882   1.631   7.566
   97SAPS  H19S 9688   2.003   1.524   7.490
   97SAPS  C220 9689   1.925   1.452   7.679
   97SAPS  H20R 9690   1.829   1.446   7.735
   97SAPS  H20S 9691   2.000   1.504   7.741
   97SAPS  H20T 9692   1.958   1.348   7.662
   97SAPS   C33 9693   2.332   1.422   6.648
   97SAPS   H3X 9694   2.441   1.411   6.673
   97SAPS   H3Y 9695   2.272   1.339   6.690
   97SAPS   C34 9696   2.277   1.548   6.710
   97SAPS   H4X 9697   2.184   1.587   6.668
   97SAPS   H4Y 9698   2.347   1.603   6.649
   97SAPS   C35 9699   2.275   1.569   6.864
   97SAPS   H5X 9700   2.172   1.543   6.896
   97SAPS   H5Y 9701   2.293   1.673   6.897
   97SAPS   C36 9702   2.370   1.487   6.946
   97SAPS   H6X 9703   2.477   1.512   6.927
   97SAPS   H6Y 9704   2.348   1.384   6.917
   97SAPS   C37 9705   2.349   1.498   7.096
   97SAPS   H7X 9706   2.249   1.516   7.139
   97SAPS   H7Y 9707   2.390   1.596   7.107
   97SAPS   C38 9708   2.425   1.387   7.166
   97SAPS   H8X 9709   2.466   1.400   7.267
   97SAPS   H8Y 9710   2.522   1.355   7.121
   97SAPS   C39 9711   2.338   1.282   7.186
   97SAPS   H9X 9712   2.331   1.271   7.078
   97SAPS   H9Y 9713   2.235   1.298   7.218
   97SAPS  C310 9714   2.414   1.196   7.277
   97SAPS  H10X 9715   2.523   1.169   7.275
   97SAPS  H10Y 9716   2.398   1.100   7.243
   97SAPS  C311 9717   2.356   1.215   7.414
   97SAPS  H11X 9718   2.437   1.252   7.472
   97SAPS  H11Y 9719   2.374   1.113   7.414
   97SAPS  C312 9720   2.211   1.239   7.472
   97SAPS  H12X 9721   2.157   1.284   7.389
   97SAPS  H12Y 9722   2.226   1.308   7.558
   97SAPS  C313 9723   2.113   1.135   7.540
   97SAPS  H13X 9724   2.109   1.043   7.477
   97SAPS  H13Y 9725   2.012   1.179   7.536
   97SAPS  C314 9726   2.140   1.098   7.692
   97SAPS  H14X 9727   2.147   1.185   7.757
   97SAPS  H14Y 9728   2.240   1.073   7.729
   97SAPS  C315 9729   2.055   0.979   7.735
   97SAPS  H15X 9730   2.089   0.941   7.834
   97SAPS  H15Y 9731   2.061   0.892   7.665
   97SAPS  C316 9732   1.912   1.029   7.731
   97SAPS  H16X 9733   1.879   1.048   7.628
   97SAPS  H16Y 9734   1.905   1.121   7.795
   97SAPS  C317 9735   1.819   0.929   7.787
   97SAPS  H17X 9736   1.862   0.949   7.885
   97SAPS  H17Y 9737   1.835   0.824   7.755
   97SAPS  C318 9738   1.675   0.969   7.799
   97SAPS  H18X 9739   1.623   0.968   7.702
   97SAPS  H18Y 9740   1.666   1.066   7.853
   97SAPS  H18Z 9741   1.627   0.900   7.867
   98SAPS     N 9742   0.576   2.970   5.826
   98SAPS   HN1 9743   0.635   3.039   5.877
   98SAPS   HN2 9744   0.590   2.981   5.723
   98SAPS   HN3 9745   0.478   2.976   5.860
   98SAPS   C12 9746   0.631   2.831   5.854
   98SAPS  H12A 9747   0.553   2.760   5.833
   98SAPS   C13 9748   0.747   2.798   5.759
   98SAPS  O13A 9749   0.773   2.885   5.672
   98SAPS  O13B 9750   0.774   2.676   5.747
   98SAPS   C11 9751   0.678   2.816   6.000
   98SAPS  H11A 9752   0.775   2.871   6.011
   98SAPS  H11B 9753   0.699   2.709   6.022
   98SAPS     P 9754   0.609   2.930   6.226
   98SAPS   O13 9755   0.736   3.004   6.219
   98SAPS   O14 9756   0.488   3.001   6.261
   98SAPS   O12 9757   0.577   2.864   6.086
   98SAPS   O11 9758   0.620   2.810   6.325
   98SAPS    C1 9759   0.731   2.726   6.324
   98SAPS    HA 9760   0.738   2.668   6.229
   98SAPS    HB 9761   0.825   2.783   6.340
   98SAPS    C2 9762   0.718   2.628   6.439
   98SAPS    HS 9763   0.769   2.538   6.405
   98SAPS   O21 9764   0.587   2.597   6.472
   98SAPS   C21 9765   0.546   2.479   6.431
   98SAPS   O22 9766   0.596   2.405   6.351
   98SAPS   C22 9767   0.414   2.453   6.490
   98SAPS   H2R 9768   0.404   2.550   6.540
   98SAPS   H2S 9769   0.362   2.460   6.393
   98SAPS    C3 9770   0.783   2.685   6.565
   98SAPS    HX 9771   0.766   2.791   6.582
   98SAPS    HY 9772   0.888   2.659   6.543
   98SAPS   O31 9773   0.730   2.629   6.682
   98SAPS   C31 9774   0.759   2.673   6.810
   98SAPS   O32 9775   0.798   2.780   6.844
   98SAPS   C32 9776   0.767   2.560   6.905
   98SAPS   H2X 9777   0.783   2.499   6.814
   98SAPS   H2Y 9778   0.692   2.520   6.972
   98SAPS   C23 9779   0.356   2.315   6.558
   98SAPS   H3R 9780   0.436   2.245   6.527
   98SAPS   H3S 9781   0.266   2.299   6.501
   98SAPS   C24 9782   0.275   2.281   6.711
   98SAPS   H4R 9783   0.397   2.306   6.717
   98SAPS   H4S 9784   0.342   2.196   6.748
   98SAPS   C25 9785   0.146   2.386   6.833
   98SAPS   H5R 9786   0.051   2.391   6.781
   98SAPS   C26 9787   0.180   2.524   6.934
   98SAPS   H6R 9788   0.134   2.620   6.901
   98SAPS   C27 9789   0.339   2.613   6.973
   98SAPS   H7R 9790   0.445   2.584   6.925
   98SAPS   H7S 9791   0.406   2.581   7.060
   98SAPS   C28 9792   0.386   2.754   6.952
   98SAPS   H8R 9793   0.446   2.792   6.866
   98SAPS   C29 9794   0.382   2.819   7.064
   98SAPS   H9R 9795   0.407   2.923   7.075
   98SAPS  C210 9796   0.333   2.742   7.178
   98SAPS  H10R 9797   0.420   2.715   7.243
   98SAPS  H10S 9798   0.268   2.648   7.167
   98SAPS  C211 9799   0.229   2.816   7.232
   98SAPS  H11R 9800   0.160   2.886   7.182
   98SAPS  C212 9801   0.220   2.786   7.353
   98SAPS  H12R 9802   0.115   2.757   7.355
   98SAPS  C213 9803   0.290   2.699   7.449
   98SAPS  H13R 9804   0.242   2.714   7.549
   98SAPS  H13S 9805   0.380   2.738   7.499
   98SAPS  C214 9806   0.281   2.559   7.395
   98SAPS  H14R 9807   0.183   2.520   7.360
   98SAPS  C215 9808   0.370   2.470   7.414
   98SAPS  H15R 9809   0.332   2.370   7.410
   98SAPS  C216 9810   0.493   2.492   7.487
   98SAPS  H16R 9811   0.510   2.600   7.506
   98SAPS  H16S 9812   0.572   2.456   7.419
   98SAPS  C217 9813   0.517   2.417   7.613
   98SAPS  H17R 9814   0.501   2.308   7.602
   98SAPS  H17S 9815   0.474   2.427   7.709
   98SAPS  C218 9816   0.639   2.488   7.664
   98SAPS  H18R 9817   0.655   2.595   7.676
   98SAPS  H18S 9818   0.707   2.455   7.591
   98SAPS  C219 9819   0.674   2.462   7.800
   98SAPS  H19R 9820   0.643   2.351   7.806
   98SAPS  H19S 9821   0.587   2.463   7.869
   98SAPS  C220 9822   0.818   2.532   7.857
   98SAPS  H20R 9823   0.893   2.473   7.921
   98SAPS  H20S 9824   0.792   2.590   7.938
   98SAPS  H20T 9825   0.927   2.493   7.865
   98SAPS   C33 9826   0.879   2.542   7.014
   98SAPS   H3X 9827   0.947   2.536   6.948
   98SAPS   H3Y 9828   0.913   2.448   7.061
   98SAPS   C34 9829   0.917   2.632   7.119
   98SAPS   H4X 9830   0.950   2.726   7.075
   98SAPS   H4Y 9831   1.006   2.597   7.170
   98SAPS   C35 9832   0.800   2.595   7.198
   98SAPS   H5X 9833   0.812   2.487   7.230
   98SAPS   H5Y 9834   0.715   2.621   7.134
   98SAPS   C36 9835   0.775   2.682   7.308
   98SAPS   H6X 9836   0.867   2.666   7.346
   98SAPS   H6Y 9837   0.721   2.635   7.390
   98SAPS   C37 9838   0.749   2.827   7.270
   98SAPS   H7X 9839   0.737   2.870   7.372
   98SAPS   H7Y 9840   0.659   2.821   7.208
   98SAPS   C38 9841   0.848   2.914   7.188
   98SAPS   H8X 9842   0.855   2.892   7.080
   98SAPS   H8Y 9843   0.937   2.871   7.226
   98SAPS   C39 9844   0.839   3.067   7.196
   98SAPS   H9X 9845   0.930   3.115   7.151
   98SAPS   H9Y 9846   0.835   3.102   7.301
   98SAPS  C310 9847   0.717   3.111   7.115
   98SAPS  H10X 9848   0.643   3.027   7.115
   98SAPS  H10Y 9849   0.746   3.126   7.008
   98SAPS  C311 9850   0.643   3.234   7.166
   98SAPS  H11X 9851   0.606   3.289   7.076
   98SAPS  H11Y 9852   0.711   3.302   7.222
   98SAPS  C312 9853   0.520   3.198   7.251
   98SAPS  H12X 9854   0.446   3.141   7.190
   98SAPS  H12Y 9855   0.470   3.292   7.283
   98SAPS  C313 9856   0.549   3.107   7.371
   98SAPS  H13X 9857   0.592   3.012   7.338
   98SAPS  H13Y 9858   0.452   3.078   7.409
   98SAPS  C314 9859   0.632   3.172   7.482
   98SAPS  H14X 9860   0.575   3.256   7.527
   98SAPS  H14Y 9861   0.723   3.213   7.435
   98SAPS  C315 9862   0.677   3.077   7.594
   98SAPS  H15X 9863   0.753   3.131   7.654
   98SAPS  H15Y 9864   0.726   2.986   7.551
   98SAPS  C316 9865   0.566   3.035   7.690
   98SAPS  H16X 9866   0.467   3.058   7.651
   98SAPS  H16Y 9867   0.568   3.090   7.786
   98SAPS  C317 9868   0.557   2.888   7.706
   98SAPS  H17X 9869   0.651   2.840   7.740
   98SAPS  H17Y 9870   0.526   2.840   7.609
   98SAPS  C318 9871   0.455   2.854   7.808
   98SAPS  H18X 9872   0.352   2.888   7.784
   98SAPS  H18Y 9873   0.475   2.874   7.915
   98SAPS  H18Z 9874   0.468   2.746   7.793
   99SAPS     N 9875   5.777   7.332   5.836
   99SAPS   HN1 9876   5.694   7.314   5.894
   99SAPS   HN2 9877   5.794   7.429   5.872
   99SAPS   HN3 9878   5.766   7.382   5.744
   99SAPS   C12 9879   5.909   7.256   5.879
   99SAPS  H12A 9880   5.900   7.165   5.828
   99SAPS   C13 9881   6.035   7.319   5.819
   99SAPS  O13A 9882   5.996   7.394   5.729
   99SAPS  O13B 9883   6.142   7.254   5.808
   99SAPS   C11 9884   5.938   7.228   6.033
   99SAPS  H11A 9885   5.849   7.183   6.080
   99SAPS  H11B 9886   5.952   7.314   6.096
   99SAPS     P 9887   6.059   7.045   6.164
   99SAPS   O13 9888   5.938   6.965   6.145
   99SAPS   O14 9889   6.192   6.978   6.164
   99SAPS   O12 9890   6.062   7.157   6.054
   99SAPS   O11 9891   6.050   7.132   6.292
   99SAPS    C1 9892   6.158   7.219   6.325
   99SAPS    HA 9893   6.207   7.267   6.237
   99SAPS    HB 9894   6.107   7.294   6.384
   99SAPS    C2 9895   6.267   7.165   6.421
   99SAPS    HS 9896   6.355   7.146   6.355
   99SAPS   O21 9897   6.218   7.046   6.478
   99SAPS   C21 9898   6.304   6.961   6.521
   99SAPS   O22 9899   6.423   6.956   6.493
   99SAPS   C22 9900   6.227   6.864   6.607
   99SAPS   H2R 9901   6.171   6.926   6.681
   99SAPS   H2S 9902   6.152   6.809   6.547
   99SAPS    C3 9903   6.307   7.264   6.536
   99SAPS    HX 9904   6.343   7.356   6.485
   99SAPS    HY 9905   6.395   7.233   6.596
   99SAPS   O31 9906   6.195   7.298   6.621
   99SAPS   C31 9907   6.172   7.228   6.728
   99SAPS   O32 9908   6.247   7.143   6.774
   99SAPS   C32 9909   6.041   7.272   6.794
   99SAPS   H2X 9910   5.983   7.339   6.727
   99SAPS   H2Y 9911   6.063   7.320   6.891
   99SAPS   C23 9912   6.318   6.766   6.682
   99SAPS   H3R 9913   6.385   6.828   6.748
   99SAPS   H3S 9914   6.374   6.690   6.625
   99SAPS   C24 9915   6.230   6.684   6.767
   99SAPS   H4R 9916   6.170   6.602   6.728
   99SAPS   H4S 9917   6.160   6.760   6.781
   99SAPS   C25 9918   6.291   6.673   6.898
   99SAPS   H5R 9919   6.386   6.612   6.900
   99SAPS   C26 9920   6.228   6.715   7.011
   99SAPS   H6R 9921   6.285   6.642   7.075
   99SAPS   C27 9922   6.079   6.786   7.069
   99SAPS   H7R 9923   5.984   6.724   7.113
   99SAPS   H7S 9924   5.972   6.737   7.068
   99SAPS   C28 9925   6.049   6.893   7.144
   99SAPS   H8R 9926   6.132   6.894   7.211
   99SAPS   C29 9927   5.921   6.925   7.169
   99SAPS   H9R 9928   5.918   7.006   7.234
   99SAPS  C210 9929   5.789   6.853   7.124
   99SAPS  H10R 9930   5.768   6.819   7.021
   99SAPS  H10S 9931   5.715   6.932   7.130
   99SAPS  C211 9932   5.756   6.719   7.183
   99SAPS  H11R 9933   5.711   6.639   7.119
   99SAPS  C212 9934   5.748   6.706   7.310
   99SAPS  H12R 9935   5.663   6.645   7.334
   99SAPS  C213 9936   5.771   6.816   7.405
   99SAPS  H13R 9937   5.694   6.885   7.424
   99SAPS  H13S 9938   5.798   6.918   7.373
   99SAPS  C214 9939   5.769   6.757   7.538
   99SAPS  H14R 9940   5.692   6.682   7.565
   99SAPS  C215 9941   5.856   6.804   7.621
   99SAPS  H15R 9942   5.872   6.743   7.709
   99SAPS  C216 9943   5.952   6.914   7.584
   99SAPS  H16R 9944   5.934   6.991   7.659
   99SAPS  H16S 9945   5.938   6.962   7.486
   99SAPS  C217 9946   6.103   6.886   7.573
   99SAPS  H17R 9947   6.159   6.976   7.546
   99SAPS  H17S 9948   6.126   6.797   7.508
   99SAPS  C218 9949   6.153   6.856   7.709
   99SAPS  H18R 9950   6.246   6.796   7.707
   99SAPS  H18S 9951   6.068   6.786   7.720
   99SAPS  C219 9952   6.145   6.964   7.824
   99SAPS  H19R 9953   6.042   7.002   7.822
   99SAPS  H19S 9954   6.227   7.030   7.794
   99SAPS  C220 9955   6.158   6.946   7.977
   99SAPS  H20R 9956   6.267   6.944   8.002
   99SAPS  H20S 9957   6.094   6.859   8.006
   99SAPS  H20T 9958   6.159   7.014   8.060
   99SAPS   C33 9959   5.959   7.148   6.825
   99SAPS   H3X 9960   6.016   7.080   6.892
   99SAPS   H3Y 9961   5.952   7.101   6.726
   99SAPS   C34 9962   5.825   7.174   6.893
   99SAPS   H4X 9963   5.781   7.077   6.920
   99SAPS   H4Y 9964   5.751   7.230   6.833
   99SAPS   C35 9965   5.844   7.238   7.028
   99SAPS   H5X 9966   5.886   7.341   7.018
   99SAPS   H5Y 9967   5.915   7.177   7.087
   99SAPS   C36 9968   5.711   7.238   7.099
   99SAPS   H6X 9969   5.666   7.141   7.124
   99SAPS   H6Y 9970   5.638   7.305   7.045
   99SAPS   C37 9971   5.732   7.298   7.231
   99SAPS   H7X 9972   5.628   7.307   7.275
   99SAPS   H7Y 9973   5.765   7.397   7.193
   99SAPS   C38 9974   5.817   7.237   7.347
   99SAPS   H8X 9975   5.794   7.131   7.349
   99SAPS   H8Y 9976   5.777   7.282   7.442
   99SAPS   C39 9977   5.970   7.241   7.356
   99SAPS   H9X 9978   6.012   7.261   7.255
   99SAPS   H9Y 9979   6.026   7.149   7.377
   99SAPS  C310 9980   6.022   7.342   7.458
   99SAPS  H10X 9981   5.975   7.441   7.451
   99SAPS  H10Y 9982   6.131   7.341   7.441
   99SAPS  C311 9983   6.017   7.333   7.601
   99SAPS  H11X 9984   6.077   7.242   7.620
   99SAPS  H11Y 9985   5.910   7.333   7.630
   99SAPS  C312 9986   6.086   7.451   7.667
   99SAPS  H12X 9987   6.066   7.548   7.618
   99SAPS  H12Y 9988   6.194   7.443   7.650
   99SAPS  C313 9989   6.036   7.438   7.810
   99SAPS  H13X 9990   5.942   7.493   7.829
   99SAPS  H13Y 9991   6.086   7.495   7.877
   99SAPS  C314 9992   6.067   7.301   7.875
   99SAPS  H14X 9993   6.170   7.268   7.850
   99SAPS  H14Y 9994   5.993   7.235   7.826
   99SAPS  C315 9995   6.066   7.284   8.031
   99SAPS  H15X 9996   6.110   7.368   8.088
   99SAPS  H15Y 9997   6.108   7.190   8.065
   99SAPS  C316 9998   5.922   7.256   8.059
   99SAPS  H16X 9999   5.888   7.185   7.983
   99SAPS  H16Y10000   5.902   7.360   8.023
   99SAPS  C31710001   5.855   7.209   8.199
   99SAPS  H17X10002   5.944   7.252   8.245
   99SAPS  H17Y10003   5.880   7.108   8.228
   99SAPS  C31810004   5.700   7.241   8.271
   99SAPS  H18X10005   5.670   7.272   8.372
   99SAPS  H18Y10006   5.659   7.155   8.265
   99SAPS  H18Z10007   5.631   7.327   8.254
  100SAPS     N10008   1.180   0.073   5.824
  100SAPS   HN110009   1.170   0.109   5.727
  100SAPS   HN210010   1.257   0.003   5.839
  100SAPS   HN310011   1.089   0.022   5.836
  100SAPS   C1210012   1.172   0.180   5.926
  100SAPS  H12A10013   1.234   0.264   5.897
  100SAPS   C1310014   1.027   0.229   5.945
  100SAPS  O13A10015   0.939   0.191   5.863
  100SAPS  O13B10016   1.010   0.323   6.025
  100SAPS   C1110017   1.230   0.123   6.056
  100SAPS  H11A10018   1.174   0.028   6.077
  100SAPS  H11B10019   1.213   0.193   6.140
  100SAPS     P10020   1.433  -0.037   6.071
  100SAPS   O1310021   1.364  -0.133   5.984
  100SAPS   O1410022   1.579  -0.023   6.058
  100SAPS   O1210023   1.371   0.104   6.038
  100SAPS   O1110024   1.390  -0.054   6.222
  100SAPS    C110025   1.452   0.041   6.310
  100SAPS    HA10026   1.558   0.013   6.326
  100SAPS    HB10027   1.449   0.145   6.269
  100SAPS    C210028   1.378   0.050   6.446
  100SAPS    HS10029   1.436   0.117   6.514
  100SAPS   O2110030   1.355  -0.080   6.503
  100SAPS   C2110031   1.460  -0.135   6.560
  100SAPS   O2210032   1.566  -0.080   6.583
  100SAPS   C2210033   1.424  -0.279   6.601
  100SAPS   H2R10034   1.349  -0.316   6.527
  100SAPS   H2S10035   1.512  -0.344   6.597
  100SAPS    C310036   1.239   0.114   6.425
  100SAPS    HX10037   1.183   0.047   6.356
  100SAPS    HY10038   1.247   0.214   6.375
  100SAPS   O3110039   1.172   0.114   6.551
  100SAPS   C3110040   1.103   0.220   6.579
  100SAPS   O3210041   1.089   0.320   6.512
  100SAPS   C3210042   1.037   0.193   6.715
  100SAPS   H2X10043   0.970   0.107   6.707
  100SAPS   H2Y10044   0.971   0.274   6.727
  100SAPS   C2310045   1.362  -0.282   6.743
  100SAPS   H3R10046   1.308  -0.379   6.755
  100SAPS   H3S10047   1.287  -0.200   6.750
  100SAPS   C2410048   1.465  -0.282   6.858
  100SAPS   H4R10049   1.543  -0.203   6.846
  100SAPS   H4S10050   1.518  -0.380   6.850
  100SAPS   C2510051   1.391  -0.278   6.990
  100SAPS   H5R10052   1.341  -0.372   7.017
  100SAPS   C2610053   1.372  -0.175   7.074
  100SAPS   H6R10054   1.314  -0.192   7.166
  100SAPS   C2710055   1.419  -0.034   7.058
  100SAPS   H7R10056   1.339   0.031   7.099
  100SAPS   H7S10057   1.429  -0.006   6.951
  100SAPS   C2810058   1.551  -0.012   7.128
  100SAPS   H8R10059   1.636  -0.072   7.094
  100SAPS   C2910060   1.575   0.076   7.226
  100SAPS   H9R10061   1.678   0.087   7.260
  100SAPS  C21010062   1.480   0.173   7.290
  100SAPS  H10R10063   1.535   0.230   7.367
  100SAPS  H10S10064   1.397   0.124   7.344
  100SAPS  C21110065   1.423   0.269   7.191
  100SAPS  H11R10066   1.473   0.288   7.094
  100SAPS  C21210067   1.327   0.350   7.225
  100SAPS  H12R10068   1.297   0.408   7.140
  100SAPS  C21310069   1.252   0.373   7.355
  100SAPS  H13R10070   1.209   0.281   7.393
  100SAPS  H13S10071   1.165   0.442   7.340
  100SAPS  C21410072   1.347   0.434   7.455
  100SAPS  H14R10073   1.413   0.515   7.422
  100SAPS  C21510074   1.352   0.408   7.582
  100SAPS  H15R10075   1.425   0.468   7.640
  100SAPS  C21610076   1.269   0.316   7.663
  100SAPS  H16R10077   1.221   0.248   7.595
  100SAPS  H16S10078   1.188   0.361   7.727
  100SAPS  C21710079   1.378   0.248   7.742
  100SAPS  H17R10080   1.466   0.221   7.680
  100SAPS  H17S10081   1.334   0.156   7.786
  100SAPS  C21810082   1.440   0.328   7.853
  100SAPS  H18R10083   1.362   0.351   7.926
  100SAPS  H18S10084   1.500   0.417   7.831
  100SAPS  C21910085   1.531   0.242   7.926
  100SAPS  H19R10086   1.602   0.181   7.868
  100SAPS  H19S10087   1.453   0.171   7.959
  100SAPS  C22010088   1.604   0.312   8.038
  100SAPS  H20R10089   1.652   0.410   8.029
  100SAPS  H20S10090   1.692   0.253   8.066
  100SAPS  H20T10091   1.535   0.320   8.126
  100SAPS   C3310092   1.135   0.189   6.835
  100SAPS   H3X10093   1.202   0.278   6.829
  100SAPS   H3Y10094   1.196   0.099   6.814
  100SAPS   C3410095   1.078   0.167   6.978
  100SAPS   H4X10096   1.028   0.249   7.030
  100SAPS   H4Y10097   1.162   0.161   7.049
  100SAPS   C3510098   0.973   0.055   6.994
  100SAPS   H5X10099   1.028  -0.042   6.996
  100SAPS   H5Y10100   0.902   0.051   6.909
  100SAPS   C3610101   0.892   0.073   7.125
  100SAPS   H6X10102   0.820  -0.011   7.131
  100SAPS   H6Y10103   0.832   0.166   7.121
  100SAPS   C3710104   0.980   0.073   7.252
  100SAPS   H7X10105   1.063   0.146   7.242
  100SAPS   H7Y10106   1.025  -0.028   7.265
  100SAPS   C3810107   0.901   0.113   7.378
  100SAPS   H8X10108   0.812   0.047   7.386
  100SAPS   H8Y10109   0.867   0.218   7.364
  100SAPS   C3910110   0.981   0.112   7.509
  100SAPS   H9X10111   0.921   0.168   7.584
  100SAPS   H9Y10112   1.075   0.169   7.494
  100SAPS  C31010113   1.013  -0.030   7.561
  100SAPS  H10X10114   1.053  -0.091   7.477
  100SAPS  H10Y10115   0.917  -0.078   7.592
  100SAPS  C31110116   1.115  -0.036   7.675
  100SAPS  H11X10117   1.079   0.023   7.763
  100SAPS  H11Y10118   1.210   0.011   7.644
  100SAPS  C31210119   1.147  -0.180   7.720
  100SAPS  H12X10120   1.060  -0.247   7.703
  100SAPS  H12Y10121   1.162  -0.176   7.830
  100SAPS  C31310122   1.273  -0.244   7.657
  100SAPS  H13X10123   1.262  -0.254   7.547
  100SAPS  H13Y10124   1.278  -0.346   7.701
  100SAPS  C31410125   1.408  -0.172   7.679
  100SAPS  H14X10126   1.425  -0.156   7.787
  100SAPS  H14Y10127   1.403  -0.074   7.628
  100SAPS  C31510128   1.530  -0.246   7.618
  100SAPS  H15X10129   1.498  -0.308   7.532
  100SAPS  H15Y10130   1.571  -0.316   7.695
  100SAPS  C31610131   1.641  -0.155   7.560
  100SAPS  H16X10132   1.601  -0.100   7.472
  100SAPS  H16Y10133   1.725  -0.218   7.524
  100SAPS  C31710134   1.693  -0.050   7.657
  100SAPS  H17X10135   1.606   0.017   7.679
  100SAPS  H17Y10136   1.771   0.012   7.608
  100SAPS  C31810137   1.754  -0.108   7.784
  100SAPS  H18X10138   1.787  -0.029   7.856
  100SAPS  H18Y10139   1.831  -0.185   7.773
  100SAPS  H18Z10140   1.681  -0.176   7.828
  101OSM      N10141   4.669   2.979  10.213
  101OSM    C1510142   4.813   2.958  10.248
  101OSM   H15A10143   4.862   3.051  10.276
  101OSM   H15B10144   4.870   2.918  10.165
  101OSM   H15C10145   4.824   2.890  10.331
  101OSM    C1410146   4.608   3.062  10.322
  101OSM   H14A10147   4.604   3.006  10.415
  101OSM   H14B10148   4.508   3.096  10.296
  101OSM   H14C10149   4.664   3.153  10.340
  101OSM    C1310150   4.659   3.055  10.084
  101OSM   H13A10151   4.733   3.133  10.079
  101OSM   H13B10152   4.560   3.099  10.074
  101OSM   H13C10153   4.668   2.986  10.000
  101OSM    C1210154   4.601   2.842  10.195
  101OSM   H12A10155   4.613   2.790  10.289
  101OSM   H12B10156   4.653   2.787  10.117
  101OSM    C1110157   4.452   2.832  10.153
  101OSM   H11A10158   4.389   2.883  10.229
  101OSM   H11B10159   4.421   2.725  10.154
  101OSM      P10160   4.301   2.955   9.981
  101OSM    O1310161   4.189   2.868  10.023
  101OSM    O1410162   4.305   3.091  10.037
  101OSM    O1110163   4.314   2.963   9.822
  101OSM    O1210164   4.435   2.882  10.020
  101OSM    C1S10165   4.334   2.849   9.738
  101OSM    H1S10166   4.236   2.820   9.693
  101OSM    H1T10167   4.376   2.762   9.793
  101OSM     NF10168   4.419   2.773   9.522
  101OSM    HNF10169   4.493   2.708   9.511
  101OSM    C2S10170   4.435   2.874   9.622
  101OSM    H2S10171   4.402   2.969   9.574
  101OSM    C3S10172   4.585   2.874   9.669
  101OSM    H3S10173   4.613   2.776   9.708
  101OSM     O310174   4.608   2.958   9.783
  101OSM    HO310175   4.524   3.003   9.801
  101OSM    C4S10176   4.665   2.892   9.533
  101OSM    H4S10177   4.697   2.799   9.490
  101OSM    C5S10178   4.696   2.994   9.451
  101OSM    H5S10179   4.682   3.096   9.469
  101OSM    C6S10180   4.759   3.032   9.331
  101OSM    H6S10181   4.828   2.955   9.301
  101OSM    H6T10182   4.818   3.125   9.364
  101OSM    C7S10183   4.648   3.078   9.230
  101OSM    H7S10184   4.701   3.150   9.172
  101OSM    H7T10185   4.567   3.151   9.244
  101OSM    C8S10186   4.543   2.981   9.181
  101OSM    H8S10187   4.479   2.958   9.271
  101OSM    H8T10188   4.599   2.894   9.145
  101OSM    C9S10189   4.445   3.034   9.074
  101OSM    H9S10190   4.372   3.109   9.114
  101OSM    H9T10191   4.394   2.941   9.041
  101OSM   C10S10192   4.500   3.097   8.947
  101OSM   H10S10193   4.568   3.025   8.895
  101OSM   H10T10194   4.559   3.178   8.988
  101OSM   C11S10195   4.391   3.162   8.857
  101OSM   H11S10196   4.329   3.233   8.916
  101OSM   H11T10197   4.330   3.081   8.815
  101OSM   C12S10198   4.442   3.248   8.744
  101OSM   H12S10199   4.498   3.320   8.801
  101OSM   H12T10200   4.379   3.318   8.686
  101OSM   C13S10201   4.507   3.163   8.638
  101OSM   H13S10202   4.569   3.085   8.688
  101OSM   H13T10203   4.563   3.232   8.572
  101OSM   C14S10204   4.406   3.093   8.552
  101OSM   H14S10205   4.348   3.169   8.497
  101OSM   H14T10206   4.341   3.039   8.623
  101OSM   C15S10207   4.465   2.991   8.457
  101OSM   H15S10208   4.523   2.915   8.516
  101OSM   H15T10209   4.532   3.042   8.386
  101OSM   C16S10210   4.359   2.922   8.372
  101OSM   H16S10211   4.284   2.880   8.442
  101OSM   H16T10212   4.408   2.839   8.317
  101OSM   C17S10213   4.275   3.008   8.276
  101OSM   H17S10214   4.186   3.049   8.327
  101OSM   H17T10215   4.254   2.951   8.183
  101OSM   C18S10216   4.340   3.126   8.223
  101OSM   H18S10217   4.280   3.198   8.162
  101OSM   H18T10218   4.414   3.079   8.153
  101OSM   H18U10219   4.391   3.188   8.300
  101OSM    C1F10220   4.311   2.767   9.448
  101OSM     OF10221   4.238   2.864   9.438
  101OSM    C2F10222   4.288   2.637   9.379
  101OSM    H2F10223   4.230   2.570   9.446
  101OSM    H2G10224   4.383   2.589   9.348
  101OSM    C3F10225   4.217   2.660   9.246
  101OSM    H3F10226   4.265   2.727   9.174
  101OSM    H3G10227   4.148   2.737   9.274
  101OSM    C4F10228   4.175   2.522   9.191
  101OSM    H4F10229   4.110   2.470   9.264
  101OSM    H4G10230   4.262   2.459   9.171
  101OSM    C5F10231   4.109   2.507   9.056
  101OSM    H5F10232   4.022   2.559   9.059
  101OSM    H5G10233   4.061   2.410   9.035
  101OSM    C6F10234   4.167   2.570   8.936
  101OSM    H6F10235   4.190   2.680   8.946
  101OSM    H6G10236   4.095   2.549   8.854
  101OSM    C7F10237   4.278   2.486   8.894
  101OSM    H7F10238   4.238   2.382   8.907
  101OSM    H7G10239   4.355   2.508   8.971
  101OSM    C8F10240   4.309   2.511   8.748
  101OSM    H8F10241   4.226   2.478   8.683
  101OSM    H8G10242   4.395   2.444   8.727
  101OSM    C9F10243   4.335   2.658   8.722
  101OSM    H9F10244   4.248   2.722   8.703
  101OSM   C10F10245   4.456   2.713   8.715
  101OSM   H10F10246   4.471   2.820   8.697
  101OSM   C11F10247   4.582   2.639   8.731
  101OSM   H11F10248   4.569   2.534   8.764
  101OSM   H11G10249   4.654   2.692   8.796
  101OSM   C12F10250   4.631   2.634   8.590
  101OSM   H12F10251   4.730   2.590   8.601
  101OSM   H12G10252   4.654   2.734   8.547
  101OSM   C13F10253   4.550   2.544   8.495
  101OSM   H13F10254   4.453   2.588   8.469
  101OSM   H13G10255   4.552   2.436   8.523
  101OSM   C14F10256   4.615   2.556   8.364
  101OSM   H14F10257   4.711   2.515   8.397
  101OSM   H14G10258   4.614   2.667   8.351
  101OSM   C15F10259   4.577   2.481   8.236
  101OSM   H15F10260   4.479   2.523   8.206
  101OSM   H15G10261   4.566   2.381   8.280
  101OSM   C16F10262   4.667   2.484   8.105
  101OSM   H16F10263   4.631   2.416   8.024
  101OSM   H16G10264   4.769   2.442   8.107
  101OSM   C17F10265   4.680   2.633   8.056
  101OSM   H17F10266   4.773   2.660   7.992
  101OSM   H17G10267   4.679   2.711   8.131
  101OSM   C18F10268   4.558   2.705   8.037
  101OSM   H18F10269   4.569   2.800   7.979
  101OSM   H18G10270   4.457   2.664   8.027
  101OSM   H18H10271   4.598   2.624   7.973
  102OSM      N10272   2.882   2.538  10.287
  102OSM    C1510273   2.994   2.445  10.311
  102OSM   H15A10274   2.966   2.366  10.378
  102OSM   H15B10275   3.078   2.502  10.350
  102OSM   H15C10276   3.027   2.402  10.216
  102OSM    C1410277   2.761   2.462  10.244
  102OSM   H14A10278   2.727   2.401  10.327
  102OSM   H14B10279   2.786   2.402  10.158
  102OSM   H14C10280   2.684   2.535  10.214
  102OSM    C1310281   2.847   2.612  10.412
  102OSM   H13A10282   2.767   2.682  10.388
  102OSM   H13B10283   2.930   2.671  10.450
  102OSM   H13C10284   2.814   2.542  10.487
  102OSM    C1210285   2.924   2.642  10.188
  102OSM   H12A10286   3.013   2.692  10.222
  102OSM   H12B10287   2.849   2.720  10.184
  102OSM    C1110288   2.957   2.599  10.046
  102OSM   H11A10289   2.961   2.691   9.983
  102OSM   H11B10290   2.877   2.529  10.012
  102OSM      P10291   3.110   2.433   9.930
  102OSM    O1310292   3.256   2.424   9.913
  102OSM    O1410293   3.029   2.311   9.960
  102OSM    O1110294   3.045   2.513   9.804
  102OSM    O1210295   3.084   2.539  10.043
  102OSM    C1S10296   3.047   2.436   9.684
  102OSM    H1S10297   3.001   2.338   9.710
  102OSM    H1T10298   3.144   2.437   9.640
  102OSM     NF10299   3.073   2.598   9.495
  102OSM    HNF10300   3.039   2.691   9.502
  102OSM    C2S10301   2.996   2.488   9.544
  102OSM    H2S10302   2.974   2.412   9.465
  102OSM    C3S10303   2.870   2.518   9.580
  102OSM    H3S10304   2.894   2.594   9.658
  102OSM     O310305   2.795   2.412   9.645
  102OSM    HO310306   2.837   2.410   9.733
  102OSM    C4S10307   2.798   2.574   9.459
  102OSM    H4S10308   2.786   2.680   9.448
  102OSM    C5S10309   2.712   2.514   9.385
  102OSM    H5S10310   2.684   2.415   9.420
  102OSM    C6S10311   2.644   2.572   9.264
  102OSM    H6S10312   2.631   2.678   9.251
  102OSM    H6T10313   2.547   2.537   9.242
  102OSM    C7S10314   2.713   2.515   9.147
  102OSM    H7S10315   2.823   2.521   9.156
  102OSM    H7T10316   2.668   2.543   9.049
  102OSM    C8S10317   2.691   2.373   9.149
  102OSM    H8S10318   2.592   2.337   9.181
  102OSM    H8T10319   2.758   2.335   9.232
  102OSM    C9S10320   2.722   2.327   9.006
  102OSM    H9S10321   2.661   2.325   8.917
  102OSM    H9T10322   2.660   2.238   9.013
  102OSM   C10S10323   2.874   2.311   8.981
  102OSM   H10S10324   2.936   2.270   9.065
  102OSM   H10T10325   2.920   2.407   8.985
  102OSM   C11S10326   2.905   2.242   8.849
  102OSM   H11S10327   2.839   2.271   8.769
  102OSM   H11T10328   2.916   2.130   8.846
  102OSM   C12S10329   3.040   2.267   8.818
  102OSM   H12S10330   3.084   2.192   8.881
  102OSM   H12T10331   3.077   2.363   8.845
  102OSM   C13S10332   3.084   2.227   8.691
  102OSM   H13S10333   3.043   2.124   8.684
  102OSM   H13T10334   3.194   2.213   8.678
  102OSM   C14S10335   3.017   2.330   8.605
  102OSM   H14S10336   3.089   2.414   8.594
  102OSM   H14T10337   2.909   2.341   8.617
  102OSM   C15S10338   2.993   2.274   8.478
  102OSM   H15S10339   2.955   2.177   8.509
  102OSM   H15T10340   3.109   2.274   8.477
  102OSM   C16S10341   2.901   2.291   8.340
  102OSM   H16S10342   2.945   2.395   8.338
  102OSM   H16T10343   2.806   2.337   8.366
  102OSM   C17S10344   2.920   2.184   8.179
  102OSM   H17S10345   2.854   2.228   8.106
  102OSM   H17T10346   2.865   2.097   8.212
  102OSM   C18S10347   3.080   2.133   8.079
  102OSM   H18S10348   3.108   2.133   7.977
  102OSM   H18T10349   3.173   2.091   8.130
  102OSM   H18U10350   3.158   2.215   8.064
  102OSM    C1F10351   3.163   2.563   9.414
  102OSM     OF10352   3.151   2.454   9.360
  102OSM    C2F10353   3.258   2.665   9.374
  102OSM    H2F10354   3.354   2.658   9.415
  102OSM    H2G10355   3.223   2.764   9.411
  102OSM    C3F10356   3.261   2.648   9.224
  102OSM    H3F10357   3.305   2.561   9.175
  102OSM    H3G10358   3.328   2.720   9.173
  102OSM    C4F10359   3.117   2.642   9.182
  102OSM    H4F10360   3.094   2.735   9.239
  102OSM    H4G10361   3.027   2.597   9.224
  102OSM    C5F10362   3.120   2.618   9.038
  102OSM    H5F10363   3.163   2.525   9.002
  102OSM    H5G10364   3.203   2.684   9.002
  102OSM    C6F10365   2.984   2.634   8.979
  102OSM    H6F10366   2.929   2.715   9.016
  102OSM    H6G10367   2.893   2.580   9.001
  102OSM    C7F10368   3.014   2.628   8.838
  102OSM    H7F10369   3.037   2.525   8.835
  102OSM    H7G10370   3.099   2.690   8.801
  102OSM    C8F10371   2.903   2.650   8.756
  102OSM    H8F10372   2.892   2.750   8.748
  102OSM    H8G10373   2.802   2.620   8.787
  102OSM    C9F10374   2.969   2.601   8.635
  102OSM    H9F10375   2.891   2.528   8.614
  102OSM   C10F10376   3.044   2.646   8.532
  102OSM   H10F10377   3.045   2.591   8.438
  102OSM   C11F10378   3.090   2.779   8.499
  102OSM   H11F10379   3.200   2.779   8.519
  102OSM   H11G10380   3.014   2.845   8.542
  102OSM   C12F10381   3.061   2.900   8.396
  102OSM   H12F10382   3.138   2.824   8.358
  102OSM   H12G10383   3.097   2.992   8.405
  102OSM   C13F10384   2.938   2.992   8.321
  102OSM   H13F10385   2.920   3.079   8.382
  102OSM   H13G10386   2.831   2.962   8.322
  102OSM   C14F10387   2.897   3.007   8.169
  102OSM   H14F10388   2.825   3.081   8.199
  102OSM   H14G10389   2.840   2.925   8.116
  102OSM   C15F10390   2.988   3.086   8.072
  102OSM   H15F10391   3.061   3.027   8.017
  102OSM   H15G10392   3.036   3.173   8.120
  102OSM   C16F10393   2.958   3.086   7.929
  102OSM   H16F10394   3.003   3.171   7.873
  102OSM   H16G10395   2.886   3.119   8.001
  102OSM   C17F10396   2.870   2.986   7.858
  102OSM   H17F10397   2.772   2.951   7.892
  102OSM   H17G10398   2.918   2.895   7.887
  102OSM   C18F10399   2.843   3.035   7.717
  102OSM   H18F10400   2.813   2.959   7.645
  102OSM   H18G10401   2.932   3.092   7.681
  102OSM   H18H10402   2.752   3.081   7.704
  103OSM      N10403   2.686   4.778  10.250
  103OSM    C1510404   2.798   4.844  10.324
  103OSM   H15A10405   2.760   4.922  10.389
  103OSM   H15B10406   2.868   4.890  10.254
  103OSM   H15C10407   2.852   4.775  10.386
  103OSM    C1410408   2.733   4.645  10.198
  103OSM   H14A10409   2.828   4.658  10.146
  103OSM   H14B10410   2.665   4.603  10.125
  103OSM   H14C10411   2.746   4.576  10.280
  103OSM    C1310412   2.571   4.763  10.343
  103OSM   H13A10413   2.547   4.862  10.381
  103OSM   H13B10414   2.597   4.700  10.426
  103OSM   H13C10415   2.486   4.725  10.290
  103OSM    C1210416   2.640   4.870  10.137
  103OSM   H12A10417   2.638   4.974  10.171
  103OSM   H12B10418   2.538   4.845  10.110
  103OSM    C1110419   2.720   4.868  10.006
  103OSM   H11A10420   2.663   4.933   9.935
  103OSM   H11B10421   2.717   4.765   9.965
  103OSM      P10422   2.916   5.048   9.979
  103OSM    O1310423   2.865   5.156  10.067
  103OSM    O1410424   3.062   5.041   9.965
  103OSM    O1110425   2.854   5.071   9.834
  103OSM    O1210426   2.856   4.907  10.026
  103OSM    C1S10427   2.864   4.968   9.736
  103OSM    H1S10428   2.807   4.878   9.768
  103OSM    H1T10429   2.970   4.939   9.721
  103OSM     NF10430   2.732   4.908   9.540
  103OSM    HNF10431   2.776   4.870   9.459
  103OSM    C2S10432   2.801   5.017   9.604
  103OSM    H2S10433   2.725   5.095   9.627
  103OSM    C3S10434   2.914   5.075   9.516
  103OSM    H3S10435   2.992   4.995   9.501
  103OSM     O310436   2.977   5.188   9.573
  103OSM    HO310437   2.938   5.190   9.661
  103OSM    C4S10438   2.864   5.118   9.382
  103OSM    H4S10439   2.791   5.200   9.377
  103OSM    C5S10440   2.911   5.060   9.271
  103OSM    H5S10441   2.986   4.982   9.291
  103OSM    C6S10442   2.880   5.086   9.124
  103OSM    H6S10443   2.848   4.992   9.077
  103OSM    H6T10444   2.966   5.117   9.061
  103OSM    C7S10445   2.790   5.206   9.100
  103OSM    H7S10446   2.844   5.300   9.128
  103OSM    H7T10447   2.701   5.189   9.165
  103OSM    C8S10448   2.745   5.222   8.956
  103OSM    H8S10449   2.644   5.270   8.957
  103OSM    H8T10450   2.735   5.121   8.910
  103OSM    C9S10451   2.834   5.315   8.872
  103OSM    H9S10452   2.941   5.285   8.881
  103OSM    H9T10453   2.826   5.420   8.907
  103OSM   C10S10454   2.788   5.308   8.726
  103OSM   H10S10455   2.681   5.340   8.723
  103OSM   H10T10456   2.791   5.201   8.695
  103OSM   C11S10457   2.872   5.392   8.629
  103OSM   H11S10458   2.972   5.413   8.672
  103OSM   H11T10459   2.817   5.488   8.620
  103OSM   C12S10460   2.893   5.321   8.494
  103OSM   H12S10461   2.918   5.391   8.412
  103OSM   H12T10462   2.799   5.269   8.467
  103OSM   C13S10463   3.003   5.214   8.503
  103OSM   H13S10464   2.967   5.129   8.565
  103OSM   H13T10465   3.094   5.254   8.554
  103OSM   C14S10466   3.048   5.156   8.369
  103OSM   H14S10467   3.099   5.066   8.402
  103OSM   H14T10468   3.124   5.223   8.325
  103OSM   C15S10469   2.937   5.114   8.269
  103OSM   H15S10470   2.888   5.207   8.236
  103OSM   H15T10471   2.864   5.050   8.324
  103OSM   C16S10472   2.987   5.035   8.145
  103OSM   H16S10473   3.035   4.941   8.180
  103OSM   H16T10474   3.065   5.094   8.093
  103OSM   C17S10475   2.879   4.997   8.040
  103OSM   H17S10476   2.817   5.085   8.010
  103OSM   H17T10477   2.807   4.927   8.088
  103OSM   C18S10478   2.937   4.929   7.914
  103OSM   H18S10479   2.863   4.866   7.861
  103OSM   H18T10480   3.026   4.866   7.939
  103OSM   H18U10481   2.971   5.004   7.841
  103OSM    C1F10482   2.622   4.851   9.588
  103OSM     OF10483   2.565   4.889   9.689
  103OSM    C2F10484   2.575   4.734   9.512
  103OSM    H2F10485   2.491   4.687   9.568
  103OSM    H2G10486   2.659   4.661   9.506
  103OSM    C3F10487   2.542   4.783   9.371
  103OSM    H3F10488   2.597   4.871   9.336
  103OSM    H3G10489   2.432   4.803   9.362
  103OSM    C4F10490   2.602   4.696   9.261
  103OSM    H4F10491   2.510   4.651   9.248
  103OSM    H4G10492   2.671   4.619   9.287
  103OSM    C5F10493   2.570   4.716   9.117
  103OSM    H5F10494   2.481   4.783   9.119
  103OSM    H5G10495   2.553   4.621   9.057
  103OSM    C6F10496   2.684   4.768   9.050
  103OSM    H6F10497   2.758   4.685   9.057
  103OSM    H6G10498   2.713   4.853   9.115
  103OSM    C7F10499   2.645   4.802   8.909
  103OSM    H7F10500   2.590   4.899   8.911
  103OSM    H7G10501   2.575   4.729   8.863
  103OSM    C8F10502   2.776   4.810   8.833
  103OSM    H8F10503   2.854   4.853   8.899
  103OSM    H8G10504   2.761   4.884   8.752
  103OSM    C9F10505   2.823   4.676   8.784
  103OSM    H9F10506   2.827   4.594   8.857
  103OSM   C10F10507   2.853   4.649   8.657
  103OSM   H10F10508   2.869   4.544   8.627
  103OSM   C11F10509   2.844   4.749   8.543
  103OSM   H11F10510   2.899   4.704   8.459
  103OSM   H11G10511   2.896   4.843   8.565
  103OSM   C12F10512   2.704   4.806   8.501
  103OSM   H12F10513   2.706   4.852   8.399
  103OSM   H12G10514   2.657   4.867   8.579
  103OSM   C13F10515   2.597   4.706   8.490
  103OSM   H13F10516   2.648   4.647   8.565
  103OSM   H13G10517   2.527   4.677   8.568
  103OSM   C14F10518   2.624   4.634   8.365
  103OSM   H14F10519   2.553   4.557   8.376
  103OSM   H14G10520   2.735   4.617   8.366
  103OSM   C15F10521   2.578   4.671   8.229
  103OSM   H15F10522   2.654   4.740   8.194
  103OSM   H15G10523   2.464   4.695   8.226
  103OSM   C16F10524   2.648   4.567   8.138
  103OSM   H16F10525   2.563   4.508   8.119
  103OSM   H16G10526   2.738   4.509   8.176
  103OSM   C17F10527   2.670   4.582   7.990
  103OSM   H17F10528   2.652   4.493   7.924
  103OSM   H17G10529   2.780   4.591   7.981
  103OSM   C18F10530   2.598   4.700   7.933
  103OSM   H18F10531   2.660   4.784   7.963
  103OSM   H18G10532   2.499   4.734   7.974
  103OSM   H18H10533   2.613   4.702   7.823
  104OSM      N10534   2.221   4.470  10.252
  104OSM    C1510535   2.147   4.488  10.123
  104OSM   H15A10536   2.070   4.563  10.133
  104OSM   H15B10537   2.100   4.396  10.087
  104OSM   H15C10538   2.218   4.514  10.045
  104OSM    C1410539   2.293   4.596  10.285
  104OSM   H14A10540   2.374   4.606  10.213
  104OSM   H14B10541   2.329   4.589  10.386
  104OSM   H14C10542   2.227   4.681  10.276
  104OSM    C1310543   2.123   4.430  10.357
  104OSM   H13A10544   2.082   4.333  10.332
  104OSM   H13B10545   2.038   4.497  10.364
  104OSM   H13C10546   2.170   4.425  10.455
  104OSM    C1210547   2.322   4.358  10.240
  104OSM   H12A10548   2.268   4.265  10.220
  104OSM   H12B10549   2.369   4.349  10.337
  104OSM    C1110550   2.435   4.365  10.134
  104OSM   H11A10551   2.504   4.278  10.147
  104OSM   H11B10552   2.500   4.453  10.148
  104OSM      P10553   2.335   4.224   9.947
  104OSM    O1310554   2.455   4.141   9.926
  104OSM    O1410555   2.234   4.170  10.042
  104OSM    O1110556   2.265   4.263   9.809
  104OSM    O1210557   2.381   4.366  10.002
  104OSM    C1S10558   2.339   4.314   9.698
  104OSM    H1S10559   2.418   4.387   9.729
  104OSM    H1T10560   2.269   4.370   9.631
  104OSM     NF10561   2.519   4.230   9.544
  104OSM    HNF10562   2.515   4.234   9.445
  104OSM    C2S10563   2.395   4.198   9.613
  104OSM    H2S10564   2.416   4.112   9.681
  104OSM    C3S10565   2.279   4.162   9.514
  104OSM    H3S10566   2.253   4.246   9.448
  104OSM     O310567   2.167   4.109   9.584
  104OSM    HO310568   2.192   4.115   9.677
  104OSM    C4S10569   2.318   4.058   9.421
  104OSM    H4S10570   2.328   3.971   9.479
  104OSM    C5S10571   2.339   4.050   9.289
  104OSM    H5S10572   2.336   4.142   9.232
  104OSM    C6S10573   2.382   3.929   9.212
  104OSM    H6S10574   2.333   3.906   9.116
  104OSM    H6T10575   2.375   3.834   9.270
  104OSM    C7S10576   2.523   3.963   9.179
  104OSM    H7S10577   2.587   3.930   9.261
  104OSM    H7T10578   2.554   4.070   9.171
  104OSM    C8S10579   2.580   3.876   9.072
  104OSM    H8S10580   2.600   3.768   9.087
  104OSM    H8T10581   2.669   3.935   9.102
  104OSM    C9S10582   2.563   3.897   8.924
  104OSM    H9S10583   2.477   3.833   8.898
  104OSM    H9T10584   2.651   3.861   8.865
  104OSM   C10S10585   2.544   4.041   8.889
  104OSM   H10S10586   2.475   4.084   8.965
  104OSM   H10T10587   2.491   4.038   8.792
  104OSM   C11S10588   2.677   4.118   8.881
  104OSM   H11S10589   2.747   4.071   8.808
  104OSM   H11T10590   2.728   4.121   8.980
  104OSM   C12S10591   2.657   4.262   8.842
  104OSM   H12S10592   2.752   4.320   8.849
  104OSM   H12T10593   2.586   4.310   8.914
  104OSM   C13S10594   2.608   4.268   8.700
  104OSM   H13S10595   2.515   4.212   8.679
  104OSM   H13T10596   2.687   4.232   8.630
  104OSM   C14S10597   2.582   4.409   8.663
  104OSM   H14S10598   2.687   4.444   8.677
  104OSM   H14T10599   2.529   4.470   8.740
  104OSM   C15S10600   2.496   4.398   8.533
  104OSM   H15S10601   2.456   4.496   8.509
  104OSM   H15T10602   2.394   4.368   8.561
  104OSM   C16S10603   2.541   4.303   8.414
  104OSM   H16S10604   2.529   4.195   8.430
  104OSM   H16T10605   2.650   4.288   8.398
  104OSM   C17S10606   2.510   4.348   8.273
  104OSM   H17S10607   2.475   4.449   8.262
  104OSM   H17T10608   2.404   4.340   8.239
  104OSM   C18S10609   2.627   4.296   8.182
  104OSM   H18S10610   2.614   4.193   8.206
  104OSM   H18T10611   2.735   4.314   8.150
  104OSM   H18U10612   2.597   4.328   8.081
  104OSM    C1F10613   2.636   4.247   9.607
  104OSM     OF10614   2.649   4.240   9.728
  104OSM    C2F10615   2.760   4.262   9.523
  104OSM    H2F10616   2.821   4.176   9.552
  104OSM    H2G10617   2.820   4.349   9.556
  104OSM    C3F10618   2.739   4.264   9.370
  104OSM    H3F10619   2.680   4.179   9.330
  104OSM    H3G10620   2.839   4.259   9.322
  104OSM    C4F10621   2.679   4.393   9.318
  104OSM    H4F10622   2.754   4.440   9.249
  104OSM    H4G10623   2.669   4.461   9.405
  104OSM    C5F10624   2.540   4.366   9.254
  104OSM    H5F10625   2.488   4.298   9.320
  104OSM    H5G10626   2.548   4.322   9.152
  104OSM    C6F10627   2.423   4.462   9.269
  104OSM    H6F10628   2.459   4.500   9.170
  104OSM    H6G10629   2.427   4.533   9.357
  104OSM    C7F10630   2.290   4.469   9.200
  104OSM    H7F10631   2.217   4.468   9.284
  104OSM    H7G10632   2.276   4.400   9.116
  104OSM    C8F10633   2.267   4.599   9.129
  104OSM    H8F10634   2.283   4.679   9.210
  104OSM    H8G10635   2.155   4.600   9.120
  104OSM    C9F10636   2.328   4.631   8.989
  104OSM    H9F10637   2.383   4.726   8.979
  104OSM   C10F10638   2.279   4.611   8.869
  104OSM   H10F10639   2.307   4.687   8.793
  104OSM   C11F10640   2.147   4.546   8.849
  104OSM   H11F10641   2.080   4.606   8.784
  104OSM   H11G10642   2.091   4.524   8.942
  104OSM   C12F10643   2.197   4.416   8.790
  104OSM   H12F10644   2.256   4.363   8.868
  104OSM   H12G10645   2.266   4.434   8.704
  104OSM   C13F10646   2.082   4.330   8.739
  104OSM   H13F10647   2.025   4.390   8.665
  104OSM   H13G10648   2.014   4.303   8.822
  104OSM   C14F10649   2.138   4.204   8.674
  104OSM   H14F10650   2.063   4.122   8.680
  104OSM   H14G10651   2.229   4.175   8.731
  104OSM   C15F10652   2.170   4.220   8.526
  104OSM   H15F10653   2.245   4.142   8.499
  104OSM   H15G10654   2.209   4.320   8.502
  104OSM   C16F10655   2.047   4.196   8.441
  104OSM   H16F10656   1.964   4.264   8.471
  104OSM   H16G10657   2.015   4.091   8.459
  104OSM   C17F10658   2.080   4.227   8.295
  104OSM   H17F10659   2.145   4.149   8.247
  104OSM   H17G10660   2.112   4.330   8.276
  104OSM   C18F10661   1.960   4.227   8.216
  104OSM   H18F10662   1.869   4.271   8.262
  104OSM   H18G10663   1.953   4.116   8.216
  104OSM   H18H10664   1.963   4.260   8.111
  105OSM      N10665   1.987   3.792  10.271
  105OSM    C1510666   1.845   3.752  10.253
  105OSM   H15A10667   1.841   3.648  10.218
  105OSM   H15B10668   1.798   3.810  10.174
  105OSM   H15C10669   1.792   3.764  10.346
  105OSM    C1410670   1.983   3.933  10.319
  105OSM   H14A10671   1.962   4.002  10.238
  105OSM   H14B10672   2.079   3.959  10.361
  105OSM   H14C10673   1.906   3.941  10.393
  105OSM    C1310674   2.050   3.707  10.376
  105OSM   H13A10675   2.065   3.607  10.339
  105OSM   H13B10676   1.987   3.706  10.464
  105OSM   H13C10677   2.146   3.748  10.406
  105OSM    C1210678   2.066   3.785  10.142
  105OSM   H12A10679   2.167   3.821  10.158
  105OSM   H12B10680   2.021   3.852  10.069
  105OSM    C1110681   2.077   3.648  10.072
  105OSM   H11A10682   2.127   3.574  10.138
  105OSM   H11B10683   2.140   3.666   9.981
  105OSM      P10684   1.933   3.480   9.936
  105OSM    O1310685   2.061   3.405   9.928
  105OSM    O1410686   1.811   3.408   9.978
  105OSM    O1110687   1.910   3.560   9.800
  105OSM    O1210688   1.948   3.602  10.037
  105OSM    C1S10689   1.804   3.656   9.807
  105OSM    H1S10690   1.829   3.734   9.880
  105OSM    H1T10691   1.708   3.606   9.837
  105OSM     NF10692   1.742   3.633   9.572
  105OSM    HNF10693   1.805   3.584   9.515
  105OSM    C2S10694   1.782   3.727   9.671
  105OSM    H2S10695   1.699   3.803   9.685
  105OSM    C3S10696   1.906   3.802   9.625
  105OSM    H3S10697   1.982   3.724   9.600
  105OSM     O310698   1.957   3.884   9.728
  105OSM    HO310699   1.929   3.840   9.808
  105OSM    C4S10700   1.874   3.885   9.506
  105OSM    H4S10701   1.817   3.977   9.523
  105OSM    C5S10702   1.912   3.851   9.382
  105OSM    H5S10703   1.964   3.757   9.365
  105OSM    C6S10704   1.884   3.929   9.260
  105OSM    H6S10705   1.969   3.930   9.188
  105OSM    H6T10706   1.854   4.032   9.284
  105OSM    C7S10707   1.768   3.865   9.192
  105OSM    H7S10708   1.680   3.885   9.257
  105OSM    H7T10709   1.779   3.756   9.173
  105OSM    C8S10710   1.759   3.932   9.061
  105OSM    H8S10711   1.849   3.918   8.999
  105OSM    H8T10712   1.732   4.041   9.067
  105OSM    C9S10713   1.655   3.879   8.979
  105OSM    H9S10714   1.577   3.908   9.048
  105OSM    H9T10715   1.645   3.769   8.964
  105OSM   C10S10716   1.673   3.973   8.861
  105OSM   H10S10717   1.612   4.062   8.837
  105OSM   H10T10718   1.573   3.963   8.842
  105OSM   C11S10719   1.783   3.901   8.765
  105OSM   H11S10720   1.781   3.795   8.795
  105OSM   H11T10721   1.860   3.969   8.808
  105OSM   C12S10722   1.791   3.875   8.597
  105OSM   H12S10723   1.872   3.903   8.540
  105OSM   H12T10724   1.769   3.977   8.645
  105OSM   C13S10725   1.683   3.773   8.480
  105OSM   H13S10726   1.590   3.828   8.450
  105OSM   H13T10727   1.642   3.679   8.516
  105OSM   C14S10728   1.616   3.774   8.338
  105OSM   H14S10729   1.605   3.859   8.271
  105OSM   H14T10730   1.509   3.757   8.301
  105OSM   C15S10731   1.750   3.718   8.323
  105OSM   H15S10732   1.729   3.613   8.349
  105OSM   H15T10733   1.842   3.757   8.379
  105OSM   C16S10734   1.795   3.769   8.198
  105OSM   H16S10735   1.817   3.869   8.198
  105OSM   H16T10736   1.694   3.750   8.158
  105OSM   C17S10737   1.929   3.733   8.133
  105OSM   H17S10738   1.942   3.635   8.164
  105OSM   H17T10739   1.999   3.763   8.205
  105OSM   C18S10740   1.968   3.753   7.979
  105OSM   H18S10741   2.053   3.697   7.941
  105OSM   H18T10742   1.943   3.854   7.952
  105OSM   H18U10743   1.909   3.723   7.890
  105OSM    C1F10744   1.627   3.582   9.579
  105OSM     OF10745   1.550   3.623   9.666
  105OSM    C2F10746   1.598   3.493   9.458
  105OSM    H2F10747   1.563   3.557   9.374
  105OSM    H2G10748   1.524   3.415   9.474
  105OSM    C3F10749   1.712   3.432   9.388
  105OSM    H3F10750   1.763   3.378   9.470
  105OSM    H3G10751   1.767   3.518   9.344
  105OSM    C4F10752   1.673   3.333   9.278
  105OSM    H4F10753   1.603   3.369   9.201
  105OSM    H4G10754   1.625   3.245   9.320
  105OSM    C5F10755   1.800   3.285   9.215
  105OSM    H5F10756   1.776   3.207   9.139
  105OSM    H5G10757   1.862   3.236   9.295
  105OSM    C6F10758   1.873   3.400   9.148
  105OSM    H6F10759   1.954   3.340   9.109
  105OSM    H6G10760   1.913   3.478   9.216
  105OSM    C7F10761   1.800   3.470   9.034
  105OSM    H7F10762   1.726   3.534   9.087
  105OSM    H7G10763   1.747   3.394   8.974
  105OSM    C8F10764   1.880   3.570   8.946
  105OSM    H8F10765   1.918   3.655   9.005
  105OSM    H8G10766   1.810   3.609   8.870
  105OSM    C9F10767   1.996   3.518   8.874
  105OSM    H9F10768   2.096   3.536   8.915
  105OSM   C10F10769   1.994   3.449   8.766
  105OSM   H10F10770   2.079   3.407   8.730
  105OSM   C11F10771   1.889   3.403   8.684
  105OSM   H11F10772   1.802   3.388   8.749
  105OSM   H11G10773   1.914   3.304   8.640
  105OSM   C12F10774   1.860   3.513   8.584
  105OSM   H12F10775   1.835   3.611   8.624
  105OSM   H12G10776   1.757   3.487   8.554
  105OSM   C13F10777   1.964   3.528   8.469
  105OSM   H13F10778   1.918   3.572   8.380
  105OSM   H13G10779   1.989   3.430   8.425
  105OSM   C14F10780   2.083   3.613   8.507
  105OSM   H14F10781   2.154   3.550   8.562
  105OSM   H14G10782   2.044   3.693   8.571
  105OSM   C15F10783   2.154   3.671   8.389
  105OSM   H15F10784   2.255   3.707   8.424
  105OSM   H15G10785   2.109   3.761   8.347
  105OSM   C16F10786   2.149   3.567   8.280
  105OSM   H16F10787   2.075   3.533   8.211
  105OSM   H16G10788   2.205   3.488   8.292
  105OSM   C17F10789   2.257   3.580   8.202
  105OSM   H17F10790   2.350   3.583   8.268
  105OSM   H17G10791   2.214   3.675   8.155
  105OSM   C18F10792   2.313   3.488   8.102
  105OSM   H18F10793   2.364   3.396   8.124
  105OSM   H18G10794   2.401   3.534   8.051
  105OSM   H18H10795   2.225   3.487   8.040
  106OSM      N10796   2.756   1.982  10.034
  106OSM    C1510797   2.754   2.083  10.145
  106OSM   H15A10798   2.740   2.032  10.241
  106OSM   H15B10799   2.677   2.156  10.130
  106OSM   H15C10800   2.851   2.133  10.148
  106OSM    C1410801   2.785   2.047   9.904
  106OSM   H14A10802   2.778   1.972   9.826
  106OSM   H14B10803   2.887   2.086   9.901
  106OSM   H14C10804   2.716   2.126   9.882
  106OSM    C1310805   2.870   1.886  10.058
  106OSM   H13A10806   2.966   1.936  10.055
  106OSM   H13B10807   2.871   1.807   9.985
  106OSM   H13C10808   2.859   1.838  10.156
  106OSM    C1210809   2.624   1.907  10.019
  106OSM   H12A10810   2.632   1.835   9.937
  106OSM   H12B10811   2.549   1.976   9.986
  106OSM    C1110812   2.563   1.834  10.141
  106OSM   H11A10813   2.467   1.783  10.115
  106OSM   H11B10814   2.538   1.913  10.214
  106OSM      P10815   2.673   1.593  10.157
  106OSM    O1310816   2.799   1.541  10.213
  106OSM    O1410817   2.549   1.516  10.186
  106OSM    O1110818   2.688   1.609   9.998
  106OSM    O1210819   2.654   1.744  10.200
  106OSM    C1S10820   2.576   1.562   9.922
  106OSM    H1S10821   2.483   1.617   9.946
  106OSM    H1T10822   2.556   1.453   9.941
  106OSM     NF10823   2.486   1.599   9.698
  106OSM    HNF10824   2.465   1.526   9.633
  106OSM    C2S10825   2.596   1.575   9.767
  106OSM    H2S10826   2.668   1.660   9.750
  106OSM    C3S10827   2.641   1.454   9.702
  106OSM    H3S10828   2.603   1.357   9.735
  106OSM     O310829   2.732   1.425   9.779
  106OSM    HO310830   2.763   1.507   9.823
  106OSM    C4S10831   2.701   1.465   9.571
  106OSM    H4S10832   2.805   1.499   9.556
  106OSM    C5S10833   2.637   1.400   9.478
  106OSM    H5S10834   2.564   1.325   9.514
  106OSM    C6S10835   2.681   1.397   9.338
  106OSM    H6S10836   2.596   1.353   9.283
  106OSM    H6T10837   2.776   1.342   9.325
  106OSM    C7S10838   2.732   1.523   9.275
  106OSM    H7S10839   2.822   1.558   9.331
  106OSM    H7T10840   2.649   1.595   9.280
  106OSM    C8S10841   2.759   1.500   9.128
  106OSM    H8S10842   2.843   1.429   9.108
  106OSM    H8T10843   2.793   1.598   9.088
  106OSM    C9S10844   2.628   1.462   9.057
  106OSM    H9S10845   2.552   1.541   9.062
  106OSM    H9T10846   2.585   1.363   9.089
  106OSM   C10S10847   2.656   1.446   8.914
  106OSM   H10S10848   2.678   1.337   8.925
  106OSM   H10T10849   2.744   1.509   8.885
  106OSM   C11S10850   2.559   1.491   8.807
  106OSM   H11S10851   2.550   1.600   8.824
  106OSM   H11T10852   2.460   1.442   8.821
  106OSM   C12S10853   2.611   1.468   8.663
  106OSM   H12S10854   2.603   1.359   8.646
  106OSM   H12T10855   2.711   1.509   8.638
  106OSM   C13S10856   2.514   1.510   8.561
  106OSM   H13S10857   2.497   1.617   8.581
  106OSM   H13T10858   2.436   1.438   8.593
  106OSM   C14S10859   2.541   1.502   8.412
  106OSM   H14S10860   2.551   1.394   8.387
  106OSM   H14T10861   2.633   1.561   8.399
  106OSM   C15S10862   2.440   1.569   8.315
  106OSM   H15S10863   2.414   1.669   8.350
  106OSM   H15T10864   2.354   1.503   8.306
  106OSM   C16S10865   2.474   1.586   8.166
  106OSM   H16S10866   2.560   1.658   8.163
  106OSM   H16T10867   2.390   1.621   8.104
  106OSM   C17S10868   2.515   1.457   8.105
  106OSM   H17S10869   2.461   1.360   8.110
  106OSM   H17T10870   2.573   1.448   8.192
  106OSM   C18S10871   2.606   1.468   7.986
  106OSM   H18S10872   2.543   1.463   7.900
  106OSM   H18T10873   2.655   1.374   7.966
  106OSM   H18U10874   2.686   1.546   7.992
  106OSM    C1F10875   2.421   1.706   9.719
  106OSM     OF10876   2.461   1.800   9.788
  106OSM    C2F10877   2.308   1.704   9.636
  106OSM    H2F10878   2.210   1.680   9.680
  106OSM    H2G10879   2.344   1.639   9.551
  106OSM    C3F10880   2.299   1.831   9.567
  106OSM    H3F10881   2.275   1.905   9.645
  106OSM    H3G10882   2.206   1.825   9.504
  106OSM    C4F10883   2.436   1.855   9.501
  106OSM    H4F10884   2.474   1.777   9.436
  106OSM    H4G10885   2.509   1.910   9.562
  106OSM    C5F10886   2.436   1.948   9.397
  106OSM    H5F10887   2.443   2.048   9.444
  106OSM    H5G10888   2.332   1.916   9.370
  106OSM    C6F10889   2.538   1.964   9.290
  106OSM    H6F10890   2.479   1.998   9.210
  106OSM    H6G10891   2.566   1.886   9.219
  106OSM    C7F10892   2.636   2.072   9.334
  106OSM    H7F10893   2.643   2.049   9.442
  106OSM    H7G10894   2.621   2.183   9.336
  106OSM    C8F10895   2.765   2.043   9.276
  106OSM    H8F10896   2.784   1.939   9.266
  106OSM    H8G10897   2.829   2.113   9.337
  106OSM    C9F10898   2.767   2.079   9.139
  106OSM    H9F10899   2.777   2.178   9.156
  106OSM   C10F10900   2.780   2.036   9.016
  106OSM   H10F10901   2.757   2.101   8.931
  106OSM   C11F10902   2.802   1.907   8.963
  106OSM   H11F10903   2.793   1.848   9.054
  106OSM   H11G10904   2.904   1.915   8.919
  106OSM   C12F10905   2.690   1.886   8.862
  106OSM   H12F10906   2.595   1.943   8.883
  106OSM   H12G10907   2.670   1.779   8.880
  106OSM   C13F10908   2.730   1.910   8.716
  106OSM   H13F10909   2.808   1.835   8.687
  106OSM   H13G10910   2.774   2.012   8.707
  106OSM   C14F10911   2.616   1.900   8.615
  106OSM   H14F10912   2.517   1.916   8.662
  106OSM   H14G10913   2.617   1.796   8.573
  106OSM   C15F10914   2.635   2.002   8.502
  106OSM   H15F10915   2.737   1.992   8.460
  106OSM   H15G10916   2.625   2.107   8.538
  106OSM   C16F10917   2.534   1.978   8.390
  106OSM   H16F10918   2.433   1.994   8.434
  106OSM   H16G10919   2.537   1.871   8.359
  106OSM   C17F10920   2.548   2.074   8.272
  106OSM   H17F10921   2.653   2.090   8.242
  106OSM   H17G10922   2.510   2.173   8.307
  106OSM   C18F10923   2.471   2.027   8.149
  106OSM   H18F10924   2.479   2.105   8.070
  106OSM   H18G10925   2.364   2.013   8.176
  106OSM   H18H10926   2.502   1.928   8.111
  107OSM      N10927   3.842   5.959   9.960
  107OSM    C1510928   3.892   6.068  10.047
  107OSM   H15A10929   3.860   6.048  10.150
  107OSM   H15B10930   3.848   6.161  10.013
  107OSM   H15C10931   4.000   6.073  10.045
  107OSM    C1410932   3.692   5.959   9.975
  107OSM   H14A10933   3.644   6.031   9.910
  107OSM   H14B10934   3.665   5.985  10.077
  107OSM   H14C10935   3.647   5.862   9.957
  107OSM    C1310936   3.874   5.989   9.817
  107OSM   H13A10937   3.819   6.077   9.783
  107OSM   H13B10938   3.846   5.907   9.751
  107OSM   H13C10939   3.979   6.012   9.806
  107OSM    C1210940   3.907   5.828  10.005
  107OSM   H12A10941   4.012   5.828   9.977
  107OSM   H12B10942   3.861   5.749   9.950
  107OSM    C1110943   3.903   5.783  10.154
  107OSM   H11A10944   3.926   5.865  10.223
  107OSM   H11B10945   3.983   5.705  10.164
  107OSM      P10946   3.764   5.588  10.247
  107OSM    O1310947   3.871   5.544  10.339
  107OSM    O1410948   3.625   5.558  10.288
  107OSM    O1110949   3.799   5.535  10.100
  107OSM    O1210950   3.776   5.738  10.200
  107OSM    C1S10951   3.715   5.579   9.990
  107OSM    H1S10952   3.626   5.626  10.022
  107OSM    H1T10953   3.637   5.514   9.962
  107OSM     NF10954   3.633   5.563   9.751
  107OSM    HNF10955   3.641   5.494   9.678
  107OSM    C2S10956   3.749   5.581   9.838
  107OSM    H2S10957   3.787   5.682   9.836
  107OSM    C3S10958   3.846   5.483   9.793
  107OSM    H3S10959   3.779   5.395   9.769
  107OSM     O310960   3.966   5.473   9.873
  107OSM    HO310961   3.938   5.474   9.965
  107OSM    C4S10962   3.886   5.510   9.661
  107OSM    H4S10963   3.863   5.445   9.577
  107OSM    C5S10964   3.960   5.609   9.644
  107OSM    H5S10965   3.981   5.676   9.728
  107OSM    C6S10966   3.998   5.629   9.513
  107OSM    H6S10967   4.104   5.603   9.516
  107OSM    H6T10968   3.961   5.731   9.520
  107OSM    C7S10969   3.961   5.560   9.384
  107OSM    H7S10970   3.993   5.454   9.387
  107OSM    H7T10971   4.020   5.613   9.307
  107OSM    C8S10972   3.817   5.580   9.347
  107OSM    H8S10973   3.786   5.686   9.361
  107OSM    H8T10974   3.760   5.515   9.416
  107OSM    C9S10975   3.792   5.533   9.206
  107OSM    H9S10976   3.683   5.539   9.185
  107OSM    H9T10977   3.824   5.426   9.201
  107OSM   C10S10978   3.868   5.609   9.097
  107OSM   H10S10979   3.976   5.586   9.106
  107OSM   H10T10980   3.854   5.719   9.106
  107OSM   C11S10981   3.815   5.563   8.963
  107OSM   H11S10982   3.710   5.599   8.954
  107OSM   H11T10983   3.814   5.452   8.967
  107OSM   C12S10984   3.896   5.608   8.842
  107OSM   H12S10985   3.851   5.564   8.750
  107OSM   H12T10986   4.001   5.574   8.852
  107OSM   C13S10987   3.900   5.758   8.821
  107OSM   H13S10988   3.956   5.808   8.904
  107OSM   H13T10989   3.798   5.802   8.821
  107OSM   C14S10990   3.974   5.786   8.689
  107OSM   H14S10991   4.082   5.767   8.695
  107OSM   H14T10992   3.981   5.891   8.697
  107OSM   C15S10993   3.909   5.744   8.552
  107OSM   H15S10994   3.824   5.676   8.570
  107OSM   H15T10995   3.987   5.697   8.488
  107OSM   C16S10996   3.850   5.853   8.462
  107OSM   H16S10997   3.927   5.915   8.410
  107OSM   H16T10998   3.777   5.910   8.521
  107OSM   C17S10999   3.790   5.816   8.330
  107OSM   H17S11000   3.702   5.753   8.351
  107OSM   H17T11001   3.869   5.759   8.277
  107OSM   C18S11002   3.756   5.946   8.256
  107OSM   H18S11003   3.714   5.922   8.157
  107OSM   H18T11004   3.847   6.009   8.241
  107OSM   H18U11005   3.683   6.008   8.313
  107OSM    C1F11006   3.527   5.639   9.759
  107OSM     OF11007   3.517   5.725   9.845
  107OSM    C2F11008   3.430   5.625   9.651
  107OSM    H2F11009   3.330   5.608   9.692
  107OSM    H2G11010   3.452   5.541   9.583
  107OSM    C3F11011   3.440   5.753   9.570
  107OSM    H3F11012   3.544   5.773   9.538
  107OSM    H3G11013   3.401   5.840   9.629
  107OSM    C4F11014   3.363   5.730   9.445
  107OSM    H4F11015   3.262   5.746   9.486
  107OSM    H4G11016   3.360   5.629   9.402
  107OSM    C5F11017   3.397   5.810   9.322
  107OSM    H5F11018   3.478   5.884   9.321
  107OSM    H5G11019   3.315   5.872   9.335
  107OSM    C6F11020   3.350   5.748   9.193
  107OSM    H6F11021   3.240   5.742   9.190
  107OSM    H6G11022   3.371   5.646   9.170
  107OSM    C7F11023   3.366   5.822   9.066
  107OSM    H7F11024   3.322   5.911   9.078
  107OSM    H7G11025   3.288   5.779   9.004
  107OSM    C8F11026   3.479   5.909   9.021
  107OSM    H8F11027   3.522   5.957   9.111
  107OSM    H8G11028   3.458   5.982   8.943
  107OSM    C9F11029   3.527   5.788   8.959
  107OSM    H9F11030   3.555   5.717   9.037
  107OSM   C10F11031   3.530   5.757   8.829
  107OSM   H10F11032   3.564   5.657   8.806
  107OSM   C11F11033   3.491   5.829   8.703
  107OSM   H11F11034   3.576   5.828   8.634
  107OSM   H11G11035   3.473   5.937   8.720
  107OSM   C12F11036   3.378   5.748   8.634
  107OSM   H12F11037   3.303   5.754   8.710
  107OSM   H12G11038   3.394   5.642   8.616
  107OSM   C13F11039   3.325   5.805   8.503
  107OSM   H13F11040   3.344   5.909   8.518
  107OSM   H13G11041   3.219   5.784   8.477
  107OSM   C14F11042   3.415   5.780   8.389
  107OSM   H14F11043   3.415   5.671   8.379
  107OSM   H14G11044   3.513   5.826   8.420
  107OSM   C15F11045   3.369   5.841   8.259
  107OSM   H15F11046   3.395   5.944   8.283
  107OSM   H15G11047   3.260   5.835   8.238
  107OSM   C16F11048   3.451   5.797   8.139
  107OSM   H16F11049   3.558   5.800   8.167
  107OSM   H16G11050   3.430   5.864   8.053
  107OSM   C17F11051   3.416   5.655   8.100
  107OSM   H17F11052   3.306   5.653   8.085
  107OSM   H17G11053   3.438   5.588   8.187
  107OSM   C18F11054   3.489   5.609   7.972
  107OSM   H18F11055   3.457   5.671   7.886
  107OSM   H18G11056   3.466   5.502   7.952
  107OSM   H18H11057   3.599   5.621   7.978
  108OSM      N11058   1.762   2.930  10.246
  108OSM    C1511059   1.843   3.049  10.203
  108OSM   H15A11060   1.936   3.021  10.154
  108OSM   H15B11061   1.867   3.104  10.292
  108OSM   H15C11062   1.788   3.116  10.137
  108OSM    C1411063   1.752   2.829  10.134
  108OSM   H14A11064   1.844   2.783  10.103
  108OSM   H14B11065   1.711   2.879  10.045
  108OSM   H14C11066   1.678   2.755  10.160
  108OSM    C1311067   1.823   2.867  10.364
  108OSM   H13A11068   1.897   2.794  10.335
  108OSM   H13B11069   1.746   2.820  10.425
  108OSM   H13C11070   1.872   2.945  10.422
  108OSM    C1211071   1.622   2.976  10.288
  108OSM   H12A11072   1.626   3.032  10.381
  108OSM   H12B11073   1.559   2.890  10.313
  108OSM    C1111074   1.549   3.061  10.185
  108OSM   H11A11075   1.586   3.166  10.183
  108OSM   H11B11076   1.440   3.068  10.214
  108OSM      P11077   1.469   3.030   9.956
  108OSM    O1311078   1.346   2.981  10.021
  108OSM    O1411079   1.490   3.172   9.925
  108OSM    O1111080   1.486   2.943   9.825
  108OSM    O1211081   1.575   2.998  10.058
  108OSM    C1S11082   1.606   2.962   9.752
  108OSM    H1S11083   1.684   2.913   9.813
  108OSM    H1T11084   1.635   3.068   9.738
  108OSM     NF11085   1.500   2.951   9.524
  108OSM    HNF11086   1.414   2.904   9.515
  108OSM    C2S11087   1.596   2.890   9.613
  108OSM    H2S11088   1.697   2.897   9.566
  108OSM    C3S11089   1.559   2.745   9.642
  108OSM    H3S11090   1.457   2.737   9.686
  108OSM     O311091   1.649   2.685   9.736
  108OSM    HO311092   1.715   2.751   9.761
  108OSM    C4S11093   1.542   2.674   9.507
  108OSM    H4S11094   1.441   2.660   9.474
  108OSM    C5S11095   1.635   2.632   9.425
  108OSM    H5S11096   1.728   2.660   9.462
  108OSM    C6S11097   1.636   2.561   9.292
  108OSM    H6S11098   1.614   2.453   9.309
  108OSM    H6T11099   1.738   2.560   9.246
  108OSM    C7S11100   1.543   2.626   9.191
  108OSM    H7S11101   1.439   2.627   9.230
  108OSM    H7T11102   1.544   2.562   9.100
  108OSM    C8S11103   1.584   2.771   9.155
  108OSM    H8S11104   1.587   2.839   9.242
  108OSM    H8T11105   1.503   2.809   9.089
  108OSM    C9S11106   1.719   2.786   9.081
  108OSM    H9S11107   1.742   2.691   9.028
  108OSM    H9T11108   1.800   2.802   9.156
  108OSM   C10S11109   1.710   2.901   8.979
  108OSM   H10S11110   1.672   2.992   9.029
  108OSM   H10T11111   1.636   2.872   8.902
  108OSM   C11S11112   1.839   2.934   8.904
  108OSM   H11S11113   1.866   2.840   8.852
  108OSM   H11T11114   1.920   2.960   8.976
  108OSM   C12S11115   1.828   3.042   8.794
  108OSM   H12S11116   1.932   3.067   8.761
  108OSM   H12T11117   1.785   3.132   8.841
  108OSM   C13S11118   1.743   2.998   8.672
  108OSM   H13S11119   1.635   2.995   8.699
  108OSM   H13T11120   1.771   2.895   8.641
  108OSM   C14S11121   1.749   3.085   8.546
  108OSM   H14S11122   1.695   3.032   8.464
  108OSM   H14T11123   1.854   3.103   8.511
  108OSM   C15S11124   1.668   3.210   8.564
  108OSM   H15S11125   1.723   3.278   8.623
  108OSM   H15T11126   1.575   3.205   8.621
  108OSM   C16S11127   1.639   3.275   8.438
  108OSM   H16S11128   1.587   3.373   8.454
  108OSM   H16T11129   1.582   3.214   8.365
  108OSM   C17S11130   1.760   3.314   8.374
  108OSM   H17S11131   1.849   3.255   8.342
  108OSM   H17T11132   1.799   3.405   8.405
  108OSM   C18S11133   1.690   3.377   8.272
  108OSM   H18S11134   1.790   3.394   8.232
  108OSM   H18T11135   1.631   3.472   8.286
  108OSM   H18U11136   1.638   3.317   8.202
  108OSM    C1F11137   1.521   3.071   9.477
  108OSM     OF11138   1.626   3.126   9.503
  108OSM    C2F11139   1.416   3.137   9.392
  108OSM    H2F11140   1.436   3.246   9.389
  108OSM    H2G11141   1.317   3.130   9.438
  108OSM    C3F11142   1.418   3.087   9.247
  108OSM    H3F11143   1.389   2.980   9.243
  108OSM    H3G11144   1.518   3.101   9.202
  108OSM    C4F11145   1.323   3.166   9.157
  108OSM    H4F11146   1.332   3.276   9.173
  108OSM    H4G11147   1.225   3.128   9.190
  108OSM    C5F11148   1.346   3.136   9.009
  108OSM    H5F11149   1.452   3.150   8.986
  108OSM    H5G11150   1.309   3.213   8.942
  108OSM    C6F11151   1.289   3.001   8.965
  108OSM    H6F11152   1.187   2.984   9.007
  108OSM    H6G11153   1.355   2.924   9.009
  108OSM    C7F11154   1.281   2.988   8.812
  108OSM    H7F11155   1.366   3.027   8.755
  108OSM    H7G11156   1.184   3.034   8.782
  108OSM    C8F11157   1.277   2.847   8.765
  108OSM    H8F11158   1.217   2.840   8.672
  108OSM    H8G11159   1.216   2.817   8.841
  108OSM    C9F11160   1.392   2.753   8.777
  108OSM    H9F11161   1.400   2.693   8.870
  108OSM   C10F11162   1.472   2.731   8.673
  108OSM   H10F11163   1.560   2.668   8.687
  108OSM   C11F11164   1.458   2.793   8.537
  108OSM   H11F11165   1.538   2.866   8.514
  108OSM   H11G11166   1.359   2.845   8.521
  108OSM   C12F11167   1.465   2.680   8.435
  108OSM   H12F11168   1.435   2.701   8.336
  108OSM   H12G11169   1.407   2.596   8.467
  108OSM   C13F11170   1.589   2.608   8.402
  108OSM   H13F11171   1.561   2.544   8.314
  108OSM   H13G11172   1.609   2.544   8.489
  108OSM   C14F11173   1.702   2.702   8.374
  108OSM   H14F11174   1.783   2.639   8.348
  108OSM   H14G11175   1.729   2.757   8.466
  108OSM   C15F11176   1.711   2.780   8.248
  108OSM   H15F11177   1.627   2.848   8.265
  108OSM   H15G11178   1.699   2.712   8.159
  108OSM   C16F11179   1.844   2.852   8.238
  108OSM   H16F11180   1.927   2.783   8.260
  108OSM   H16G11181   1.843   2.943   8.304
  108OSM   C17F11182   1.889   2.893   8.101
  108OSM   H17F11183   1.793   2.901   8.047
  108OSM   H17G11184   1.914   2.819   8.027
  108OSM   C18F11185   1.996   3.009   8.116
  108OSM   H18F11186   1.970   3.087   8.191
  108OSM   H18G11187   2.017   3.075   8.029
  108OSM   H18H11188   2.090   2.962   8.139
  109OSM      N11189   1.511   4.030  10.173
  109OSM    C1511190   1.496   3.882  10.155
  109OSM   H15A11191   1.587   3.831  10.183
  109OSM   H15B11192   1.476   3.854  10.052
  109OSM   H15C11193   1.415   3.841  10.215
  109OSM    C1411194   1.380   4.100  10.139
  109OSM   H14A11195   1.335   4.069  10.046
  109OSM   H14B11196   1.399   4.208  10.124
  109OSM   H14C11197   1.306   4.090  10.216
  109OSM    C1311198   1.546   4.060  10.316
  109OSM   H13A11199   1.455   4.066  10.375
  109OSM   H13B11200   1.593   4.157  10.322
  109OSM   H13C11201   1.609   3.984  10.359
  109OSM    C1211202   1.620   4.081  10.082
  109OSM   H12A11203   1.590   4.064   9.980
  109OSM   H12B11204   1.707   4.020  10.102
  109OSM    C1111205   1.667   4.230  10.091
  109OSM   H11A11206   1.719   4.259   9.998
  109OSM   H11B11207   1.741   4.232  10.173
  109OSM      P11208   1.497   4.432  10.032
  109OSM    O1311209   1.360   4.382  10.007
  109OSM    O1411210   1.508   4.557  10.109
  109OSM    O1111211   1.585   4.437   9.896
  109OSM    O1211212   1.566   4.322  10.125
  109OSM    C1S11213   1.525   4.360   9.788
  109OSM    H1S11214   1.417   4.381   9.784
  109OSM    H1T11215   1.539   4.252   9.807
  109OSM     NF11216   1.504   4.305   9.543
  109OSM    HNF11217   1.546   4.236   9.489
  109OSM    C2S11218   1.580   4.380   9.642
  109OSM    H2S11219   1.577   4.483   9.610
  109OSM    C3S11220   1.727   4.340   9.635
  109OSM    H3S11221   1.727   4.233   9.667
  109OSM     O311222   1.805   4.420   9.722
  109OSM    HO311223   1.739   4.461   9.781
  109OSM    C4S11224   1.773   4.350   9.489
  109OSM    H4S11225   1.734   4.438   9.442
  109OSM    C5S11226   1.845   4.270   9.410
  109OSM    H5S11227   1.887   4.178   9.454
  109OSM    C6S11228   1.881   4.297   9.263
  109OSM    H6S11229   1.893   4.199   9.215
  109OSM    H6T11230   1.981   4.347   9.254
  109OSM    C7S11231   1.793   4.356   9.151
  109OSM    H7S11232   1.850   4.355   9.056
  109OSM    H7T11233   1.787   4.461   9.150
  109OSM    C8S11234   1.647   4.311   9.140
  109OSM    H8S11235   1.595   4.324   9.237
  109OSM    H8T11236   1.651   4.205   9.114
  109OSM    C9S11237   1.569   4.385   9.030
  109OSM    H9S11238   1.570   4.492   9.050
  109OSM    H9T11239   1.460   4.364   9.035
  109OSM   C10S11240   1.616   4.354   8.887
  109OSM   H10S11241   1.633   4.246   8.878
  109OSM   H10T11242   1.716   4.397   8.864
  109OSM   C11S11243   1.513   4.399   8.782
  109OSM   H11S11244   1.509   4.508   8.779
  109OSM   H11T11245   1.413   4.364   8.815
  109OSM   C12S11246   1.537   4.349   8.640
  109OSM   H12S11247   1.542   4.243   8.657
  109OSM   H12T11248   1.635   4.380   8.599
  109OSM   C13S11249   1.421   4.392   8.550
  109OSM   H13S11250   1.408   4.502   8.563
  109OSM   H13T11251   1.326   4.345   8.586
  109OSM   C14S11252   1.428   4.362   8.400
  109OSM   H14S11253   1.428   4.253   8.379
  109OSM   H14T11254   1.519   4.405   8.353
  109OSM   C15S11255   1.302   4.427   8.342
  109OSM   H15S11256   1.291   4.532   8.375
  109OSM   H15T11257   1.214   4.370   8.379
  109OSM   C16S11258   1.295   4.434   8.191
  109OSM   H16S11259   1.217   4.502   8.158
  109OSM   H16T11260   1.240   4.337   8.176
  109OSM   C17S11261   1.427   4.470   8.109
  109OSM   H17S11262   1.496   4.395   8.151
  109OSM   H17T11263   1.477   4.561   8.141
  109OSM   C18S11264   1.430   4.478   7.950
  109OSM   H18S11265   1.345   4.508   7.893
  109OSM   H18T11266   1.423   4.382   7.899
  109OSM   H18U11267   1.524   4.506   7.902
  109OSM    C1F11268   1.380   4.335   9.525
  109OSM     OF11269   1.343   4.427   9.592
  109OSM    C2F11270   1.295   4.250   9.435
  109OSM    H2F11271   1.198   4.225   9.484
  109OSM    H2G11272   1.354   4.158   9.417
  109OSM    C3F11273   1.273   4.308   9.297
  109OSM    H3F11274   1.366   4.348   9.252
  109OSM    H3G11275   1.210   4.395   9.306
  109OSM    C4F11276   1.219   4.207   9.198
  109OSM    H4F11277   1.227   4.251   9.097
  109OSM    H4G11278   1.112   4.174   9.206
  109OSM    C5F11279   1.316   4.100   9.165
  109OSM    H5F11280   1.311   4.019   9.240
  109OSM    H5G11281   1.420   4.136   9.151
  109OSM    C6F11282   1.268   4.048   9.032
  109OSM    H6F11283   1.266   4.122   8.949
  109OSM    H6G11284   1.167   4.007   9.055
  109OSM    C7F11285   1.372   3.949   8.989
  109OSM    H7F11286   1.377   3.885   9.071
  109OSM    H7G11287   1.452   4.020   8.979
  109OSM    C8F11288   1.389   3.863   8.866
  109OSM    H8F11289   1.346   3.769   8.893
  109OSM    H8G11290   1.435   3.758   8.859
  109OSM    C9F11291   1.352   3.960   8.742
  109OSM    H9F11292   1.255   4.000   8.716
  109OSM   C10F11293   1.389   3.915   8.623
  109OSM   H10F11294   1.366   3.956   8.521
  109OSM   C11F11295   1.455   3.785   8.611
  109OSM   H11F11296   1.443   3.744   8.517
  109OSM   H11G11297   1.455   3.679   8.651
  109OSM   C12F11298   1.546   3.888   8.643
  109OSM   H12F11299   1.606   3.793   8.668
  109OSM   H12G11300   1.576   3.831   8.733
  109OSM   C13F11301   1.592   4.032   8.546
  109OSM   H13F11302   1.689   4.090   8.544
  109OSM   H13G11303   1.516   4.105   8.552
  109OSM   C14F11304   1.633   4.034   8.398
  109OSM   H14F11305   1.539   4.015   8.348
  109OSM   H14G11306   1.719   3.962   8.388
  109OSM   C15F11307   1.734   4.097   8.315
  109OSM   H15F11308   1.839   4.080   8.354
  109OSM   H15G11309   1.698   4.199   8.331
  109OSM   C16F11310   1.702   4.049   8.171
  109OSM   H16F11311   1.596   4.064   8.174
  109OSM   H16G11312   1.674   3.952   8.134
  109OSM   C17F11313   1.796   4.076   8.057
  109OSM   H17F11314   1.897   4.030   8.071
  109OSM   H17G11315   1.788   4.186   8.066
  109OSM   C18F11316   1.775   4.033   7.916
  109OSM   H18F11317   1.792   3.932   7.885
  109OSM   H18G11318   1.834   4.108   7.860
  109OSM   H18H11319   1.670   4.040   7.896
  110OSM      N11320   2.043   4.993  10.193
  110OSM    C1511321   2.055   5.021  10.045
  110OSM   H15A11322   2.107   5.113  10.026
  110OSM   H15B11323   1.955   5.027   9.999
  110OSM   H15C11324   2.103   4.941   9.992
  110OSM    C1411325   2.175   4.969  10.256
  110OSM   H14A11326   2.163   4.963  10.364
  110OSM   H14B11327   2.244   5.050  10.234
  110OSM   H14C11328   2.220   4.879  10.219
  110OSM    C1311329   1.985   5.113  10.260
  110OSM   H13A11330   1.914   5.083  10.335
  110OSM   H13B11331   1.930   5.171  10.187
  110OSM   H13C11332   2.064   5.176  10.300
  110OSM    C1211333   1.955   4.869  10.207
  110OSM   H12A11334   1.971   4.822  10.303
  110OSM   H12B11335   1.981   4.803  10.125
  110OSM    C1111336   1.803   4.882  10.192
  110OSM   H11A11337   1.763   4.934  10.282
  110OSM   H11B11338   1.764   4.777  10.193
  110OSM      P11339   1.643   4.904   9.989
  110OSM    O1311340   1.675   4.771   9.933
  110OSM    O1411341   1.526   4.920  10.078
  110OSM    O1111342   1.634   5.009   9.870
  110OSM    O1211343   1.770   4.952  10.071
  110OSM    C1S11344   1.566   4.970   9.750
  110OSM    H1S11345   1.525   5.060   9.700
  110OSM    H1T11346   1.479   4.904   9.772
  110OSM     NF11347   1.701   4.987   9.556
  110OSM    HNF11348   1.657   5.006   9.469
  110OSM    C2S11349   1.652   4.894   9.645
  110OSM    H2S11350   1.739   4.840   9.691
  110OSM    C3S11351   1.563   4.797   9.574
  110OSM    H3S11352   1.460   4.834   9.562
  110OSM     O311353   1.555   4.685   9.656
  110OSM    HO311354   1.635   4.685   9.712
  110OSM    C4S11355   1.614   4.762   9.436
  110OSM    H4S11356   1.566   4.813   9.352
  110OSM    C5S11357   1.716   4.682   9.409
  110OSM    H5S11358   1.763   4.624   9.490
  110OSM    C6S11359   1.762   4.649   9.273
  110OSM    H6S11360   1.743   4.545   9.295
  110OSM    H6T11361   1.872   4.660   9.256
  110OSM    C7S11362   1.684   4.692   9.147
  110OSM    H7S11363   1.680   4.802   9.154
  110OSM    H7T11364   1.579   4.655   9.153
  110OSM    C8S11365   1.748   4.660   9.008
  110OSM    H8S11366   1.751   4.552   8.984
  110OSM    H8T11367   1.854   4.688   9.008
  110OSM    C9S11368   1.671   4.724   8.891
  110OSM    H9S11369   1.697   4.832   8.894
  110OSM    H9T11370   1.561   4.715   8.912
  110OSM   C10S11371   1.703   4.667   8.751
  110OSM   H10S11372   1.704   4.557   8.753
  110OSM   H10T11373   1.806   4.692   8.722
  110OSM   C11S11374   1.601   4.709   8.643
  110OSM   H11S11375   1.596   4.819   8.640
  110OSM   H11T11376   1.500   4.675   8.675
  110OSM   C12S11377   1.629   4.658   8.500
  110OSM   H12S11378   1.545   4.694   8.435
  110OSM   H12T11379   1.631   4.548   8.491
  110OSM   C13S11380   1.761   4.708   8.442
  110OSM   H13S11381   1.845   4.641   8.472
  110OSM   H13T11382   1.780   4.809   8.485
  110OSM   C14S11383   1.755   4.721   8.290
  110OSM   H14S11384   1.666   4.783   8.266
  110OSM   H14T11385   1.741   4.622   8.242
  110OSM   C15S11386   1.883   4.789   8.240
  110OSM   H15S11387   1.970   4.723   8.259
  110OSM   H15T11388   1.901   4.882   8.298
  110OSM   C16S11389   1.881   4.830   8.094
  110OSM   H16S11390   1.786   4.881   8.066
  110OSM   H16T11391   1.898   4.745   8.025
  110OSM   C17S11392   1.989   4.933   8.074
  110OSM   H17S11393   2.090   4.890   8.094
  110OSM   H17T11394   1.971   5.020   8.141
  110OSM   C18S11395   1.982   4.986   7.935
  110OSM   H18S11396   1.898   5.053   7.912
  110OSM   H18T11397   1.989   4.903   7.861
  110OSM   H18U11398   2.065   5.053   7.935
  110OSM    C1F11399   1.798   5.060   9.590
  110OSM     OF11400   1.884   5.044   9.675
  110OSM    C2F11401   1.806   5.144   9.484
  110OSM    H2F11402   1.827   5.248   9.518
  110OSM    H2G11403   1.717   5.158   9.418
  110OSM    C3F11404   1.922   5.056   9.431
  110OSM    H3F11405   2.018   5.076   9.483
  110OSM    H3G11406   1.875   5.113   9.343
  110OSM    C4F11407   1.980   4.936   9.354
  110OSM    H4F11408   1.895   4.913   9.287
  110OSM    H4G11409   1.997   4.868   9.439
  110OSM    C5F11410   2.122   4.936   9.280
  110OSM    H5F11411   2.217   4.935   9.336
  110OSM    H5G11412   2.175   4.999   9.207
  110OSM    C6F11413   2.092   4.844   9.169
  110OSM    H6F11414   1.996   4.850   9.115
  110OSM    H6G11415   2.088   4.749   9.229
  110OSM    C7F11416   2.201   4.856   9.066
  110OSM    H7F11417   2.152   4.767   9.023
  110OSM    H7G11418   2.299   4.852   9.120
  110OSM    C8F11419   2.225   4.939   8.943
  110OSM    H8F11420   2.330   4.918   8.907
  110OSM    H8G11421   2.223   5.041   8.983
  110OSM    C9F11422   2.127   4.898   8.836
  110OSM    H9F11423   2.126   4.793   8.806
  110OSM   C10F11424   2.038   4.973   8.779
  110OSM   H10F11425   1.978   4.928   8.700
  110OSM   C11F11426   2.021   5.116   8.812
  110OSM   H11F11427   2.083   5.176   8.743
  110OSM   H11G11428   2.066   5.134   8.910
  110OSM   C12F11429   1.877   5.169   8.809
  110OSM   H12F11430   1.882   5.280   8.827
  110OSM   H12G11431   1.809   5.126   8.887
  110OSM   C13F11432   1.813   5.135   8.679
  110OSM   H13F11433   1.788   5.027   8.681
  110OSM   H13G11434   1.890   5.154   8.601
  110OSM   C14F11435   1.688   5.217   8.656
  110OSM   H14F11436   1.718   5.323   8.640
  110OSM   H14G11437   1.623   5.213   8.746
  110OSM   C15F11438   1.617   5.166   8.532
  110OSM   H15F11439   1.533   5.235   8.512
  110OSM   H15G11440   1.576   5.065   8.551
  110OSM   C16F11441   1.711   5.157   8.410
  110OSM   H16F11442   1.799   5.093   8.432
  110OSM   H16G11443   1.747   5.260   8.385
  110OSM   C17F11444   1.643   5.096   8.290
  110OSM   H17F11445   1.595   4.999   8.317
  110OSM   H17G11446   1.715   5.075   8.207
  110OSM   C18F11447   1.534   5.186   8.243
  110OSM   H18F11448   1.485   5.134   8.161
  110OSM   H18G11449   1.573   5.287   8.213
  110OSM   H18H11450   1.455   5.199   8.317
  111OSM      N11451   4.124   1.189  10.224
  111OSM    C1511452   4.043   1.114  10.121
  111OSM   H15A11453   3.977   1.186  10.072
  111OSM   H15B11454   3.981   1.035  10.161
  111OSM   H15C11455   4.106   1.071  10.044
  111OSM    C1411456   4.037   1.251  10.329
  111OSM   H14A11457   3.975   1.179  10.379
  111OSM   H14B11458   3.976   1.329  10.283
  111OSM   H14C11459   4.097   1.303  10.404
  111OSM    C1311460   4.223   1.099  10.287
  111OSM   H13A11461   4.280   1.047  10.210
  111OSM   H13B11462   4.173   1.022  10.345
  111OSM   H13C11463   4.290   1.157  10.350
  111OSM    C1211464   4.197   1.303  10.154
  111OSM   H12A11465   4.287   1.265  10.108
  111OSM   H12B11466   4.228   1.375  10.229
  111OSM    C1111467   4.117   1.380  10.046
  111OSM   H11A11468   4.111   1.316   9.954
  111OSM   H11B11469   4.172   1.472  10.018
  111OSM      P11470   3.894   1.493   9.988
  111OSM    O1311471   3.753   1.487  10.030
  111OSM    O1411472   3.956   1.624   9.958
  111OSM    O1111473   3.911   1.396   9.861
  111OSM    O1211474   3.985   1.415  10.092
  111OSM    C1S11475   3.825   1.418   9.749
  111OSM    H1S11476   3.826   1.527   9.723
  111OSM    H1T11477   3.720   1.391   9.771
  111OSM     NF11478   3.819   1.390   9.496
  111OSM    HNF11479   3.747   1.352   9.440
  111OSM    C2S11480   3.865   1.332   9.621
  111OSM    H2S11481   3.978   1.321   9.626
  111OSM    C3S11482   3.805   1.196   9.622
  111OSM    H3S11483   3.695   1.214   9.612
  111OSM     O311484   3.844   1.126   9.739
  111OSM    HO311485   3.920   1.176   9.771
  111OSM    C4S11486   3.858   1.116   9.505
  111OSM    H4S11487   3.961   1.080   9.518
  111OSM    C5S11488   3.795   1.092   9.388
  111OSM    H5S11489   3.697   1.139   9.373
  111OSM    C6S11490   3.850   1.010   9.271
  111OSM    H6S11491   3.774   0.932   9.247
  111OSM    H6T11492   3.943   0.955   9.296
  111OSM    C7S11493   3.882   1.087   9.141
  111OSM    H7S11494   3.908   1.018   9.057
  111OSM    H7T11495   3.960   1.166   9.152
  111OSM    C8S11496   3.766   1.163   9.087
  111OSM    H8S11497   3.718   1.208   9.174
  111OSM    H8T11498   3.692   1.085   9.060
  111OSM    C9S11499   3.809   1.271   8.978
  111OSM    H9S11500   3.892   1.326   9.009
  111OSM    H9T11501   3.751   1.367   8.970
  111OSM   C10S11502   3.786   1.219   8.835
  111OSM   H10S11503   3.716   1.135   8.853
  111OSM   H10T11504   3.874   1.166   8.800
  111OSM   C11S11505   3.729   1.322   8.731
  111OSM   H11S11506   3.790   1.407   8.727
  111OSM   H11T11507   3.640   1.378   8.761
  111OSM   C12S11508   3.713   1.279   8.583
  111OSM   H12S11509   3.679   1.367   8.522
  111OSM   H12T11510   3.638   1.201   8.575
  111OSM   C13S11511   3.839   1.220   8.523
  111OSM   H13S11512   3.875   1.133   8.579
  111OSM   H13T11513   3.910   1.296   8.544
  111OSM   C14S11514   3.830   1.190   8.372
  111OSM   H14S11515   3.751   1.256   8.329
  111OSM   H14T11516   3.794   1.085   8.368
  111OSM   C15S11517   3.961   1.202   8.291
  111OSM   H15S11518   4.026   1.116   8.318
  111OSM   H15T11519   4.016   1.295   8.319
  111OSM   C16S11520   3.941   1.200   8.138
  111OSM   H16S11521   3.918   1.304   8.106
  111OSM   H16T11522   3.855   1.133   8.114
  111OSM   C17S11523   4.064   1.152   8.057
  111OSM   H17S11524   4.046   1.166   7.947
  111OSM   H17T11525   4.075   1.042   8.067
  111OSM   C18S11526   4.189   1.227   8.104
  111OSM   H18S11527   4.173   1.336   8.097
  111OSM   H18T11528   4.283   1.208   8.050
  111OSM   H18U11529   4.216   1.198   8.207
  111OSM    C1F11530   3.878   1.497   9.469
  111OSM     OF11531   3.955   1.523   9.550
  111OSM    C2F11532   3.850   1.580   9.352
  111OSM    H2F11533   3.823   1.685   9.365
  111OSM    H2G11534   3.786   1.505   9.312
  111OSM    C3F11535   3.893   1.551   9.212
  111OSM    H3F11536   3.919   1.443   9.200
  111OSM    H3G11537   3.978   1.555   9.255
  111OSM    C4F11538   3.865   1.658   9.096
  111OSM    H4F11539   3.816   1.743   9.147
  111OSM    H4G11540   3.796   1.602   9.031
  111OSM    C5F11541   3.956   1.734   8.989
  111OSM    H5F11542   4.005   1.826   9.021
  111OSM    H5G11543   3.892   1.747   8.896
  111OSM    C6F11544   4.042   1.664   8.898
  111OSM    H6F11545   3.967   1.586   8.904
  111OSM    H6G11546   4.138   1.626   8.922
  111OSM    C7F11547   4.145   1.698   8.787
  111OSM    H7F11548   4.162   1.800   8.817
  111OSM    H7G11549   4.060   1.725   8.737
  111OSM    C8F11550   4.282   1.586   8.742
  111OSM    H8F11551   4.336   1.566   8.834
  111OSM    H8G11552   4.329   1.663   8.677
  111OSM    C9F11553   4.305   1.431   8.678
  111OSM    H9F11554   4.255   1.348   8.733
  111OSM   C10F11555   4.298   1.385   8.546
  111OSM   H10F11556   4.213   1.319   8.509
  111OSM   C11F11557   4.271   1.472   8.433
  111OSM   H11F11558   4.296   1.406   8.346
  111OSM   H11G11559   4.354   1.534   8.472
  111OSM   C12F11560   4.173   1.590   8.377
  111OSM   H12F11561   4.187   1.676   8.446
  111OSM   H12G11562   4.071   1.552   8.328
  111OSM   C13F11563   4.193   1.710   8.290
  111OSM   H13F11564   4.217   1.601   8.279
  111OSM   H13G11565   4.278   1.784   8.280
  111OSM   C14F11566   4.118   1.770   8.182
  111OSM   H14F11567   4.200   1.819   8.126
  111OSM   H14G11568   4.107   1.843   8.258
  111OSM   C15F11569   3.995   1.695   8.133
  111OSM   H15F11570   3.918   1.696   8.203
  111OSM   H15G11571   4.008   1.589   8.111
  111OSM   C16F11572   3.908   1.737   8.025
  111OSM   H16F11573   3.873   1.841   8.048
  111OSM   H16G11574   3.812   1.685   8.011
  111OSM   C17F11575   3.989   1.694   7.905
  111OSM   H17F11576   4.080   1.737   7.933
  111OSM   H17G11577   3.934   1.729   7.818
  111OSM   C18F11578   4.126   1.627   7.863
  111OSM   H18F11579   4.149   1.647   7.753
  111OSM   H18G11580   4.078   1.531   7.888
  111OSM   H18H11581   4.204   1.563   7.888
  112OSM      N11582   2.240   5.632  10.309
  112OSM    C1511583   2.150   5.751  10.319
  112OSM   H15A11584   2.185   5.823  10.392
  112OSM   H15B11585   2.048   5.723  10.340
  112OSM   H15C11586   2.147   5.803  10.223
  112OSM    C1411587   2.377   5.670  10.263
  112OSM   H14A11588   2.373   5.719  10.166
  112OSM   H14B11589   2.438   5.580  10.250
  112OSM   H14C11590   2.434   5.738  10.326
  112OSM    C1311591   2.253   5.581  10.447
  112OSM   H13A11592   2.154   5.573  10.489
  112OSM   H13B11593   2.311   5.653  10.505
  112OSM   H13C11594   2.307   5.488  10.449
  112OSM    C1211595   2.176   5.528  10.216
  112OSM   H12A11596   2.091   5.487  10.266
  112OSM   H12B11597   2.245   5.447  10.192
  112OSM    C1111598   2.120   5.572  10.078
  112OSM   H11A11599   2.053   5.661  10.092
  112OSM   H11B11600   2.057   5.488  10.039
  112OSM      P11601   2.296   5.502   9.894
  112OSM    O1311602   2.381   5.570   9.795
  112OSM    O1411603   2.354   5.403   9.986
  112OSM    O1111604   2.174   5.434   9.818
  112OSM    O1211605   2.224   5.608   9.988
  112OSM    C1S11606   2.095   5.509   9.724
  112OSM    H1S11607   2.116   5.618   9.725
  112OSM    H1T11608   1.987   5.492   9.745
  112OSM     NF11609   2.043   5.532   9.478
  112OSM    HNF11610   1.973   5.483   9.427
  112OSM    C2S11611   2.122   5.463   9.579
  112OSM    H2S11612   2.231   5.471   9.558
  112OSM    C3S11613   2.097   5.320   9.562
  112OSM    H3S11614   1.991   5.301   9.591
  112OSM     O311615   2.154   5.225   9.651
  112OSM    HO311616   2.195   5.280   9.718
  112OSM    C4S11617   2.148   5.282   9.421
  112OSM    H4S11618   2.248   5.258   9.392
  112OSM    C5S11619   2.054   5.250   9.340
  112OSM    H5S11620   1.966   5.280   9.392
  112OSM    C6S11621   2.018   5.195   9.203
  112OSM    H6S11622   1.959   5.097   9.187
  112OSM    H6T11623   2.107   5.150   9.196
  112OSM    C7S11624   1.948   5.257   9.098
  112OSM    H7S11625   1.844   5.277   9.130
  112OSM    H7T11626   1.932   5.179   9.025
  112OSM    C8S11627   2.049   5.365   9.085
  112OSM    H8S11628   2.046   5.422   9.180
  112OSM    H8T11629   2.009   5.423   9.003
  112OSM    C9S11630   2.195   5.316   9.065
  112OSM    H9S11631   2.194   5.253   8.976
  112OSM    H9T11632   2.240   5.255   9.147
  112OSM   C10S11633   2.296   5.427   9.047
  112OSM   H10S11634   2.395   5.377   9.037
  112OSM   H10T11635   2.301   5.492   9.137
  112OSM   C11S11636   2.269   5.507   8.921
  112OSM   H11S11637   2.328   5.600   8.930
  112OSM   H11T11638   2.161   5.534   8.910
  112OSM   C12S11639   2.314   5.428   8.798
  112OSM   H12S11640   2.258   5.332   8.794
  112OSM   H12T11641   2.423   5.406   8.811
  112OSM   C13S11642   2.294   5.498   8.664
  112OSM   H13S11643   2.371   5.577   8.653
  112OSM   H13T11644   2.194   5.545   8.657
  112OSM   C14S11645   2.300   5.396   8.549
  112OSM   H14S11646   2.223   5.317   8.567
  112OSM   H14T11647   2.399   5.347   8.554
  112OSM   C15S11648   2.268   5.460   8.413
  112OSM   H15S11649   2.320   5.411   8.328
  112OSM   H15T11650   2.305   5.566   8.415
  112OSM   C16S11651   2.119   5.450   8.379
  112OSM   H16S11652   2.056   5.488   8.463
  112OSM   H16T11653   2.092   5.342   8.371
  112OSM   C17S11654   2.086   5.519   8.246
  112OSM   H17S11655   2.132   5.620   8.246
  112OSM   H17T11656   1.975   5.531   8.237
  112OSM   C18S11657   2.139   5.452   8.121
  112OSM   H18S11658   2.102   5.348   8.113
  112OSM   H18T11659   2.251   5.451   8.120
  112OSM   H18U11660   2.106   5.512   8.033
  112OSM    C1F11661   2.085   5.645   9.430
  112OSM     OF11662   2.167   5.714   9.488
  112OSM    C2F11663   2.035   5.674   9.296
  112OSM    H2F11664   1.929   5.640   9.290
  112OSM    H2G11665   2.096   5.618   9.221
  112OSM    C3F11666   2.052   5.822   9.267
  112OSM    H3F11667   2.154   5.855   9.293
  112OSM    H3G11668   1.979   5.885   9.325
  112OSM    C4F11669   2.038   5.836   9.118
  112OSM    H4F11670   2.105   5.769   9.063
  112OSM    H4G11671   2.061   5.936   9.081
  112OSM    C5F11672   1.899   5.806   9.082
  112OSM    H5F11673   1.854   5.870   9.159
  112OSM    H5G11674   1.857   5.706   9.104
  112OSM    C6F11675   1.868   5.845   8.939
  112OSM    H6F11676   1.867   5.954   8.916
  112OSM    H6G11677   1.766   5.804   8.939
  112OSM    C7F11678   1.923   5.757   8.828
  112OSM    H7F11679   1.858   5.666   8.821
  112OSM    H7G11680   2.021   5.732   8.870
  112OSM    C8F11681   1.944   5.819   8.688
  112OSM    H8F11682   2.008   5.750   8.634
  112OSM    H8G11683   1.989   5.920   8.697
  112OSM    C9F11684   1.830   5.828   8.596
  112OSM    H9F11685   1.765   5.904   8.615
  112OSM   C10F11686   1.798   5.799   8.477
  112OSM   H10F11687   1.704   5.845   8.435
  112OSM   C11F11688   1.898   5.736   8.390
  112OSM   H11F11689   1.834   5.681   8.316
  112OSM   H11G11690   1.988   5.706   8.442
  112OSM   C12F11691   1.962   5.811   8.275
  112OSM   H12F11692   1.951   5.906   8.260
  112OSM   H12G11693   1.875   5.861   8.282
  112OSM   C13F11694   2.093   5.864   8.205
  112OSM   H13F11695   2.075   5.775   8.144
  112OSM   H13G11696   2.175   5.872   8.279
  112OSM   C14F11697   2.097   5.979   8.088
  112OSM   H14F11698   2.117   6.085   8.115
  112OSM   H14G11699   2.016   5.999   8.017
  112OSM   C15F11700   2.210   5.978   7.997
  112OSM   H15F11701   2.280   5.979   8.073
  112OSM   H15G11702   2.216   6.070   7.935
  112OSM   C16F11703   2.225   5.850   7.931
  112OSM   H16F11704   2.191   5.772   8.001
  112OSM   H16G11705   2.335   5.836   7.917
  112OSM   C17F11706   2.130   5.871   7.815
  112OSM   H17F11707   2.162   5.962   7.761
  112OSM   H17G11708   2.028   5.882   7.858
  112OSM   C18F11709   2.119   5.760   7.720
  112OSM   H18F11710   2.127   5.670   7.785
  112OSM   H18G11711   2.203   5.776   7.648
  112OSM   H18H11712   2.029   5.742   7.662
  113OSM      N11713   1.367   2.418  10.093
  113OSM    C1511714   1.516   2.408  10.104
  113OSM   H15A11715   1.561   2.433  10.009
  113OSM   H15B11716   1.551   2.308  10.132
  113OSM   H15C11717   1.552   2.479  10.177
  113OSM    C1411718   1.301   2.369  10.220
  113OSM   H14A11719   1.197   2.401  10.226
  113OSM   H14B11720   1.353   2.400  10.310
  113OSM   H14C11721   1.296   2.259  10.220
  113OSM    C1311722   1.338   2.562  10.074
  113OSM   H13A11723   1.234   2.581  10.049
  113OSM   H13B11724   1.398   2.606   9.996
  113OSM   H13C11725   1.357   2.615  10.167
  113OSM    C1211726   1.313   2.345   9.973
  113OSM   H12A11727   1.361   2.383   9.883
  113OSM   H12B11728   1.207   2.366   9.964
  113OSM    C1111729   1.322   2.193   9.970
  113OSM   H11A11730   1.425   2.158   9.996
  113OSM   H11B11731   1.301   2.168   9.863
  113OSM      P11732   1.240   2.011  10.150
  113OSM    O1311733   1.355   2.033  10.240
  113OSM    O1411734   1.106   1.988  10.212
  113OSM    O1111735   1.289   1.892  10.058
  113OSM    O1211736   1.221   2.140  10.054
  113OSM    C1S11737   1.201   1.821   9.976
  113OSM    H1S11738   1.095   1.844  10.012
  113OSM    H1T11739   1.189   1.712   9.977
  113OSM     NF11740   1.122   1.804   9.760
  113OSM    HNF11741   1.127   1.769   9.670
  113OSM    C2S11742   1.235   1.854   9.826
  113OSM    H2S11743   1.259   1.965   9.810
  113OSM    C3S11744   1.353   1.787   9.764
  113OSM    H3S11745   1.332   1.679   9.768
  113OSM     O311746   1.471   1.812   9.834
  113OSM    HO311747   1.433   1.859   9.910
  113OSM    C4S11748   1.377   1.832   9.621
  113OSM    H4S11749   1.410   1.934   9.601
  113OSM    C5S11750   1.359   1.749   9.520
  113OSM    H5S11751   1.310   1.660   9.553
  113OSM    C6S11752   1.382   1.771   9.373
  113OSM    H6S11753   1.389   1.674   9.316
  113OSM    H6T11754   1.471   1.831   9.357
  113OSM    C7S11755   1.293   1.861   9.299
  113OSM    H7S11756   1.252   1.934   9.373
  113OSM    H7T11757   1.235   1.771   9.269
  113OSM    C8S11758   1.351   1.927   9.175
  113OSM    H8S11759   1.386   1.848   9.109
  113OSM    H8T11760   1.417   2.006   9.214
  113OSM    C9S11761   1.271   2.003   9.076
  113OSM    H9S11762   1.310   2.090   9.020
  113OSM    H9T11763   1.230   2.073   9.151
  113OSM   C10S11764   1.190   1.905   8.981
  113OSM   H10S11765   1.132   1.969   8.922
  113OSM   H10T11766   1.102   1.844   9.006
  113OSM   C11S11767   1.243   1.854   8.858
  113OSM   H11S11768   1.155   1.812   8.800
  113OSM   H11T11769   1.303   1.776   8.907
  113OSM   C12S11770   1.310   1.970   8.789
  113OSM   H12S11771   1.392   2.012   8.850
  113OSM   H12T11772   1.246   2.059   8.770
  113OSM   C13S11773   1.353   1.915   8.659
  113OSM   H13S11774   1.260   1.875   8.611
  113OSM   H13T11775   1.420   1.830   8.684
  113OSM   C14S11776   1.419   2.024   8.576
  113OSM   H14S11777   1.530   2.011   8.580
  113OSM   H14T11778   1.392   2.123   8.617
  113OSM   C15S11779   1.359   2.038   8.439
  113OSM   H15S11780   1.388   2.129   8.382
  113OSM   H15T11781   1.251   2.019   8.443
  113OSM   C16S11782   1.398   1.933   8.350
  113OSM   H16S11783   1.364   1.840   8.402
  113OSM   H16T11784   1.509   1.941   8.361
  113OSM   C17S11785   1.323   1.944   8.214
  113OSM   H17S11786   1.241   1.876   8.213
  113OSM   H17T11787   1.345   1.863   8.154
  113OSM   C18S11788   1.341   2.044   8.097
  113OSM   H18S11789   1.265   2.116   8.118
  113OSM   H18T11790   1.344   1.991   7.996
  113OSM   H18U11791   1.433   2.104   8.092
  113OSM    C1F11792   1.010   1.860   9.780
  113OSM     OF11793   1.047   1.958   9.857
  113OSM    C2F11794   0.811   1.862   9.647
  113OSM    H2F11795   0.742   1.948   9.652
  113OSM    H2G11796   0.787   1.770   9.662
  113OSM    C3F11797   0.767   1.994   9.518
  113OSM    H3F11798   0.789   2.108   9.526
  113OSM    H3G11799   0.667   2.002   9.493
  113OSM    C4F11800   0.852   2.036   9.410
  113OSM    H4F11801   0.873   1.944   9.373
  113OSM    H4G11802   0.961   2.071   9.419
  113OSM    C5F11803   0.766   2.051   9.301
  113OSM    H5F11804   0.698   1.965   9.302
  113OSM    H5G11805   0.773   2.007   9.205
  113OSM    C6F11806   0.784   2.195   9.292
  113OSM    H6F11807   0.898   2.210   9.292
  113OSM    H6G11808   0.752   2.241   9.383
  113OSM    C7F11809   0.716   2.247   9.170
  113OSM    H7F11810   0.611   2.242   9.150
  113OSM    H7G11811   0.705   2.159   9.105
  113OSM    C8F11812   0.803   2.362   9.117
  113OSM    H8F11813   0.779   2.436   9.192
  113OSM    H8G11814   0.751   2.378   9.021
  113OSM    C9F11815   0.955   2.342   9.107
  113OSM    H9F11816   1.019   2.373   9.193
  113OSM   C10F11817   1.014   2.328   8.989
  113OSM   H10F11818   1.129   2.324   8.992
  113OSM   C11F11819   0.928   2.348   8.851
  113OSM   H11F11820   0.820   2.368   8.848
  113OSM   H11G11821   0.962   2.279   8.794
  113OSM   C12F11822   0.957   2.377   8.694
  113OSM   H12F11823   0.911   2.473   8.662
  113OSM   H12G11824   0.882   2.345   8.619
  113OSM   C13F11825   1.110   2.339   8.665
  113OSM   H13F11826   1.211   2.367   8.704
  113OSM   H13G11827   1.173   2.430   8.675
  113OSM   C14F11828   1.141   2.249   8.556
  113OSM   H14F11829   1.155   2.170   8.631
  113OSM   H14G11830   1.241   2.258   8.511
  113OSM   C15F11831   1.034   2.228   8.451
  113OSM   H15F11832   0.927   2.218   8.481
  113OSM   H15G11833   1.078   2.133   8.415
  113OSM   C16F11834   1.035   2.298   8.325
  113OSM   H16F11835   1.137   2.290   8.281
  113OSM   H16G11836   1.004   2.396   8.346
  113OSM   C17F11837   0.923   2.283   8.234
  113OSM   H17F11838   0.915   2.375   8.184
  113OSM   H17G11839   0.824   2.254   8.280
  113OSM   C18F11840   0.982   2.218   8.117
  113OSM   H18F11841   1.083   2.183   8.133
  113OSM   H18G11842   0.950   2.186   8.021
  113OSM   H18H11843   0.896   2.155   8.148
  114OSM      N11844   1.209   5.356  10.191
  114OSM    C1511845   1.277   5.324  10.322
  114OSM   H15A11846   1.354   5.397  10.344
  114OSM   H15B11847   1.327   5.226  10.321
  114OSM   H15C11848   1.206   5.319  10.404
  114OSM    C1411849   1.111   5.247  10.167
  114OSM   H14A11850   1.034   5.249  10.243
  114OSM   H14B11851   1.161   5.151  10.173
  114OSM   H14C11852   1.066   5.259  10.070
  114OSM    C1311853   1.134   5.487  10.200
  114OSM   H13A11854   1.057   5.481  10.275
  114OSM   H13B11855   1.089   5.513  10.104
  114OSM   H13C11856   1.199   5.571  10.226
  114OSM    C1211857   1.313   5.352  10.078
  114OSM   H12A11858   1.266   5.384   9.985
  114OSM   H12B11859   1.349   5.251  10.067
  114OSM    C1111860   1.443   5.431  10.091
  114OSM   H11A11861   1.511   5.405  10.007
  114OSM   H11B11862   1.495   5.409  10.186
  114OSM      P11863   1.496   5.674  10.020
  114OSM    O1311864   1.465   5.793  10.100
  114OSM    O1411865   1.637   5.630  10.002
  114OSM    O1111866   1.422   5.681   9.881
  114OSM    O1211867   1.407   5.565  10.089
  114OSM    C1S11868   1.293   5.744   9.880
  114OSM    H1S11869   1.302   5.852   9.909
  114OSM    H1T11870   1.224   5.696   9.950
  114OSM     NF11871   1.194   5.602   9.704
  114OSM    HNF11872   1.260   5.555   9.646
  114OSM    C2S11873   1.235   5.733   9.737
  114OSM    H2S11874   1.151   5.807   9.727
  114OSM    C3S11875   1.341   5.772   9.643
  114OSM    H3S11876   1.421   5.696   9.628
  114OSM     O311877   1.406   5.883   9.702
  114OSM    HO311878   1.355   5.918   9.774
  114OSM    C4S11879   1.277   5.780   9.503
  114OSM    H4S11880   1.253   5.687   9.452
  114OSM    C5S11881   1.238   5.887   9.438
  114OSM    H5S11882   1.268   5.984   9.481
  114OSM    C6S11883   1.179   5.896   9.302
  114OSM    H6S11884   1.239   5.979   9.260
  114OSM    H6T11885   1.073   5.929   9.313
  114OSM    C7S11886   1.188   5.785   9.198
  114OSM    H7S11887   1.129   5.702   9.242
  114OSM    H7T11888   1.293   5.755   9.179
  114OSM    C8S11889   1.119   5.812   9.065
  114OSM    H8S11890   1.148   5.909   9.017
  114OSM    H8T11891   1.011   5.813   9.092
  114OSM    C9S11892   1.135   5.697   8.967
  114OSM    H9S11893   1.074   5.721   8.878
  114OSM    H9T11894   1.104   5.602   9.012
  114OSM   C10S11895   1.272   5.674   8.913
  114OSM   H10S11896   1.271   5.588   8.842
  114OSM   H10T11897   1.351   5.654   8.989
  114OSM   C11S11898   1.308   5.785   8.824
  114OSM   H11S11899   1.335   5.872   8.881
  114OSM   H11T11900   1.235   5.833   8.757
  114OSM   C12S11901   1.421   5.730   8.747
  114OSM   H12S11902   1.504   5.695   8.816
  114OSM   H12T11903   1.424   5.826   8.689
  114OSM   C13S11904   1.419   5.635   8.635
  114OSM   H13S11905   1.319   5.659   8.595
  114OSM   H13T11906   1.434   5.538   8.687
  114OSM   C14S11907   1.523   5.646   8.522
  114OSM   H14S11908   1.517   5.546   8.474
  114OSM   H14T11909   1.627   5.653   8.557
  114OSM   C15S11910   1.486   5.747   8.413
  114OSM   H15S11911   1.511   5.852   8.438
  114OSM   H15T11912   1.376   5.747   8.405
  114OSM   C16S11913   1.542   5.710   8.275
  114OSM   H16S11914   1.484   5.622   8.239
  114OSM   H16T11915   1.648   5.680   8.273
  114OSM   C17S11916   1.525   5.817   8.169
  114OSM   H17S11917   1.564   5.774   8.076
  114OSM   H17T11918   1.563   5.918   8.195
  114OSM   C18S11919   1.384   5.836   8.148
  114OSM   H18S11920   1.336   5.743   8.150
  114OSM   H18T11921   1.357   5.896   8.058
  114OSM   H18U11922   1.353   5.875   8.245
  114OSM    C1F11923   1.092   5.543   9.760
  114OSM     OF11924   1.029   5.597   9.851
  114OSM    C2F11925   1.064   5.406   9.713
  114OSM    H2F11926   1.019   5.349   9.797
  114OSM    H2G11927   1.161   5.358   9.685
  114OSM    C3F11928   0.967   5.411   9.593
  114OSM    H3F11929   0.879   5.473   9.624
  114OSM    H3G11930   0.925   5.310   9.575
  114OSM    C4F11931   1.025   5.469   9.461
  114OSM    H4F11932   1.052   5.575   9.479
  114OSM    H4G11933   0.942   5.474   9.387
  114OSM    C5F11934   1.146   5.393   9.400
  114OSM    H5F11935   1.118   5.287   9.387
  114OSM    H5G11936   1.235   5.394   9.466
  114OSM    C6F11937   1.190   5.441   9.260
  114OSM    H6F11938   1.251   5.533   9.265
  114OSM    H6G11939   1.098   5.464   9.202
  114OSM    C7F11940   1.268   5.329   9.187
  114OSM    H7F11941   1.199   5.244   9.171
  114OSM    H7G11942   1.348   5.292   9.255
  114OSM    C8F11943   1.335   5.372   9.055
  114OSM    H8F11944   1.403   5.458   9.075
  114OSM    H8G11945   1.257   5.409   8.985
  114OSM    C9F11946   1.415   5.259   8.994
  114OSM    H9F11947   1.524   5.267   9.010
  114OSM   C10F11948   1.364   5.163   8.915
  114OSM   H10F11949   1.428   5.083   8.874
  114OSM   C11F11950   1.218   5.155   8.876
  114OSM   H11F11951   1.153   5.206   8.951
  114OSM   H11G11952   1.182   5.051   8.870
  114OSM   C12F11953   1.198   5.226   8.741
  114OSM   H12F11954   1.225   5.334   8.752
  114OSM   H12G11955   1.089   5.221   8.719
  114OSM   C13F11956   1.273   5.165   8.622
  114OSM   H13F11957   1.249   5.056   8.616
  114OSM   H13G11958   1.382   5.172   8.640
  114OSM   C14F11959   1.237   5.230   8.487
  114OSM   H14F11960   1.126   5.238   8.480
  114OSM   H14G11961   1.270   5.168   8.400
  114OSM   C15F11962   1.289   5.372   8.469
  114OSM   H15F11963   1.391   5.381   8.511
  114OSM   H15G11964   1.224   5.441   8.526
  114OSM   C16F11965   1.290   5.415   8.322
  114OSM   H16F11966   1.381   5.376   8.274
  114OSM   H16G11967   1.298   5.525   8.314
  114OSM   C17F11968   1.170   5.368   8.240
  114OSM   H17F11969   1.151   5.259   8.236
  114OSM   H17G11970   1.203   5.395   8.139
  114OSM   C18F11971   1.037   5.434   8.271
  114OSM   H18F11972   0.969   5.421   8.187
  114OSM   H18G11973   1.040   5.545   8.284
  114OSM   H18H11974   0.988   5.388   8.356
  115OSM      N11975   6.600   3.392  10.231
  115OSM    C1511976   6.455   3.406  10.261
  115OSM   H15A11977   6.430   3.328  10.332
  115OSM   H15B11978   6.396   3.397  10.170
  115OSM   H15C11979   6.437   3.501  10.309
  115OSM    C1411980   6.664   3.380  10.366
  115OSM   H14A11981   6.645   3.468  10.427
  115OSM   H14B11982   6.772   3.368  10.360
  115OSM   H14C11983   6.622   3.295  10.418
  115OSM    C1311984   6.616   3.269  10.146
  115OSM   H13A11985   6.550   3.189  10.177
  115OSM   H13B11986   6.719   3.237  10.144
  115OSM   H13C11987   6.593   3.293  10.042
  115OSM    C1211988   6.647   3.516  10.158
  115OSM   H12A11989   6.622   3.599  10.223
  115OSM   H12B11990   6.588   3.529  10.069
  115OSM    C1111991   6.795   3.532  10.115
  115OSM   H11A11992   6.862   3.542  10.204
  115OSM   H11B11993   6.796   3.632  10.064
  115OSM      P11994   6.994   3.452   9.973
  115OSM    O1311995   7.018   3.597   9.970
  115OSM    O1411996   7.087   3.367  10.050
  115OSM    O1111997   6.992   3.396   9.822
  115OSM    O1211998   6.842   3.429  10.026
  115OSM    C1S11999   6.909   3.462   9.726
  115OSM    H1S12000   6.922   3.571   9.728
  115OSM    H1T12001   6.803   3.438   9.750
  115OSM     NF12002   6.897   3.508   9.473
  115OSM    HNF12003   6.831   3.475   9.408
  115OSM    C2S12004   6.943   3.418   9.579
  115OSM    H2S12005   7.054   3.406   9.569
  115OSM    C3S12006   6.884   3.282   9.561
  115OSM    H3S12007   6.777   3.269   9.588
  115OSM     O312008   6.950   3.197   9.640
  115OSM    HO312009   7.015   3.242   9.695
  115OSM    C4S12010   6.923   3.218   9.439
  115OSM    H4S12011   7.025   3.180   9.430
  115OSM    C5S12012   6.832   3.186   9.354
  115OSM    H5S12013   6.734   3.206   9.388
  115OSM    C6S12014   6.835   3.123   9.221
  115OSM    H6S12015   6.814   3.015   9.227
  115OSM    H6T12016   6.934   3.140   9.201
  115OSM    C7S12017   6.810   3.189   9.077
  115OSM    H7S12018   6.709   3.192   9.051
  115OSM    H7T12019   6.819   3.124   8.990
  115OSM    C8S12020   6.855   3.328   9.047
  115OSM    H8S12021   6.928   3.362   9.123
  115OSM    H8T12022   6.771   3.401   9.045
  115OSM    C9S12023   6.908   3.318   8.906
  115OSM    H9S12024   6.825   3.291   8.838
  115OSM    H9T12025   6.979   3.234   8.899
  115OSM   C10S12026   6.979   3.445   8.869
  115OSM   H10S12027   7.079   3.443   8.918
  115OSM   H10T12028   6.923   3.530   8.914
  115OSM   C11S12029   6.988   3.465   8.719
  115OSM   H11S12030   6.887   3.486   8.674
  115OSM   H11T12031   7.029   3.372   8.674
  115OSM   C12S12032   7.073   3.586   8.683
  115OSM   H12S12033   7.172   3.581   8.734
  115OSM   H12T12034   7.021   3.678   8.719
  115OSM   C13S12035   7.092   3.602   8.533
  115OSM   H13S12036   7.177   3.673   8.518
  115OSM   H13T12037   7.000   3.649   8.490
  115OSM   C14S12038   7.115   3.471   8.458
  115OSM   H14S12039   7.035   3.396   8.469
  115OSM   H14T12040   7.212   3.424   8.488
  115OSM   C15S12041   7.112   3.498   8.309
  115OSM   H15S12042   7.206   3.553   8.322
  115OSM   H15T12043   7.038   3.570   8.271
  115OSM   C16S12044   7.097   3.368   8.227
  115OSM   H16S12045   7.075   3.282   8.293
  115OSM   H16T12046   7.188   3.342   8.176
  115OSM   C17S12047   7.028   3.357   8.093
  115OSM   H17S12048   6.924   3.376   8.102
  115OSM   H17T12049   7.055   3.256   8.051
  115OSM   C18S12050   7.058   3.457   7.991
  115OSM   H18S12051   7.164   3.449   7.966
  115OSM   H18T12052   7.022   3.558   8.011
  115OSM   H18U12053   7.023   3.434   7.889
  115OSM    C1F12054   6.959   3.624   9.452
  115OSM     OF12055   7.066   3.646   9.507
  115OSM    C2F12056   6.896   3.726   9.359
  115OSM    H2F12057   6.973   3.774   9.296
  115OSM    H2G12058   6.854   3.806   9.425
  115OSM    C3F12059   6.788   3.670   9.263
  115OSM    H3F12060   6.707   3.626   9.325
  115OSM    H3G12061   6.827   3.594   9.192
  115OSM    C4F12062   6.719   3.779   9.182
  115OSM    H4F12063   6.776   3.831   9.103
  115OSM    H4G12064   6.710   3.852   9.263
  115OSM    C5F12065   6.581   3.740   9.133
  115OSM    H5F12066   6.511   3.813   9.120
  115OSM    H5G12067   6.515   3.708   9.213
  115OSM    C6F12068   6.569   3.677   8.994
  115OSM    H6F12069   6.638   3.595   9.016
  115OSM    H6G12070   6.631   3.705   8.910
  115OSM    C7F12071   6.417   3.656   8.948
  115OSM    H7F12072   6.378   3.753   8.920
  115OSM    H7G12073   6.350   3.618   9.030
  115OSM    C8F12074   6.397   3.563   8.823
  115OSM    H8F12075   6.293   3.541   8.798
  115OSM    H8G12076   6.406   3.457   8.837
  115OSM    C9F12077   6.516   3.544   8.736
  115OSM    H9F12078   6.605   3.492   8.775
  115OSM   C10F12079   6.506   3.562   8.609
  115OSM   H10F12080   6.589   3.544   8.541
  115OSM   C11F12081   6.378   3.602   8.552
  115OSM   H11F12082   6.393   3.655   8.458
  115OSM   H11G12083   6.321   3.673   8.616
  115OSM   C12F12084   6.317   3.464   8.535
  115OSM   H12F12085   6.215   3.465   8.523
  115OSM   H12G12086   6.241   3.427   8.604
  115OSM   C13F12087   6.354   3.380   8.414
  115OSM   H13F12088   6.263   3.330   8.375
  115OSM   H13G12089   6.415   3.306   8.468
  115OSM   C14F12090   6.439   3.452   8.309
  115OSM   H14F12091   6.524   3.480   8.371
  115OSM   H14G12092   6.405   3.550   8.288
  115OSM   C15F12093   6.475   3.395   8.169
  115OSM   H15F12094   6.551   3.440   8.108
  115OSM   H15G12095   6.402   3.372   8.089
  115OSM   C16F12096   6.541   3.281   8.191
  115OSM   H16F12097   6.560   3.215   8.105
  115OSM   H16G12098   6.443   3.245   8.209
  115OSM   C17F12099   6.636   3.305   8.309
  115OSM   H17F12100   6.594   3.230   8.374
  115OSM   H17G12101   6.618   3.321   8.416
  115OSM   C18F12102   6.780   3.310   8.266
  115OSM   H18F12103   6.859   3.290   8.340
  115OSM   H18G12104   6.782   3.411   8.226
  115OSM   H18H12105   6.814   3.239   8.186
  116OSM      N12106   3.190   0.443  10.145
  116OSM    C1512107   3.159   0.589  10.130
  116OSM   H15A12108   3.198   0.632  10.039
  116OSM   H15B12109   3.193   0.641  10.218
  116OSM   H15C12110   3.049   0.600  10.126
  116OSM    C1412111   3.333   0.415  10.114
  116OSM   H14A12112   3.348   0.307  10.109
  116OSM   H14B12113   3.394   0.456  10.194
  116OSM   H14C12114   3.363   0.456  10.019
  116OSM    C1312115   3.166   0.410  10.289
  116OSM   H13A12116   3.232   0.472  10.349
  116OSM   H13B12117   3.187   0.307  10.313
  116OSM   H13C12118   3.062   0.432  10.314
  116OSM    C1212119   3.101   0.359  10.053
  116OSM   H12A12120   3.139   0.258  10.042
  116OSM   H12B12121   3.106   0.402   9.953
  116OSM    C1112122   2.951   0.348  10.093
  116OSM   H11A12123   2.938   0.289  10.186
  116OSM   H11B12124   2.902   0.287  10.012
  116OSM      P12125   2.744   0.505  10.061
  116OSM    O1312126   2.660   0.401  10.123
  116OSM    O1412127   2.708   0.647  10.087
  116OSM    O1112128   2.756   0.484   9.904
  116OSM    O1212129   2.895   0.479  10.109
  116OSM    C1S12130   2.845   0.576   9.839
  116OSM    H1S12131   2.947   0.567   9.882
  116OSM    H1T12132   2.807   0.680   9.853
  116OSM     NF12133   2.983   0.592   9.636
  116OSM    HNF12134   2.980   0.668   9.572
  116OSM    C2S12135   2.856   0.544   9.688
  116OSM    H2S12136   2.851   0.434   9.674
  116OSM    C3S12137   2.739   0.604   9.608
  116OSM    H3S12138   2.740   0.715   9.623
  116OSM     O312139   2.610   0.555   9.643
  116OSM    HO312140   2.617   0.526   9.735
  116OSM    C4S12141   2.761   0.577   9.462
  116OSM    H4S12142   2.821   0.486   9.443
  116OSM    C5S12143   2.722   0.654   9.359
  116OSM    H5S12144   2.667   0.747   9.380
  116OSM    C6S12145   2.747   0.620   9.215
  116OSM    H6S12146   2.836   0.677   9.180
  116OSM    H6T12147   2.660   0.652   9.152
  116OSM    C7S12148   2.762   0.469   9.188
  116OSM    H7S12149   2.664   0.420   9.210
  116OSM    H7T12150   2.841   0.424   9.253
  116OSM    C8S12151   2.804   0.431   9.046
  116OSM    H8S12152   2.825   0.321   9.044
  116OSM    H8T12153   2.899   0.483   9.021
  116OSM    C9S12154   2.696   0.457   8.942
  116OSM    H9S12155   2.659   0.562   8.951
  116OSM    H9T12156   2.611   0.389   8.967
  116OSM   C10S12157   2.737   0.425   8.798
  116OSM   H10S12158   2.644   0.426   8.737
  116OSM   H10T12159   2.779   0.322   8.795
  116OSM   C11S12160   2.843   0.515   8.730
  116OSM   H11S12161   2.941   0.504   8.782
  116OSM   H11T12162   2.811   0.621   8.735
  116OSM   C12S12163   2.863   0.475   8.583
  116OSM   H12S12164   2.768   0.434   8.542
  116OSM   H12T12165   2.938   0.393   8.578
  116OSM   C13S12166   2.905   0.592   8.493
  116OSM   H13S12167   2.953   0.549   8.401
  116OSM   H13T12168   2.982   0.656   8.542
  116OSM   C14S12169   2.782   0.674   8.453
  116OSM   H14S12170   2.733   0.721   8.540
  116OSM   H14T12171   2.710   0.604   8.405
  116OSM   C15S12172   2.810   0.787   8.357
  116OSM   H15S12173   2.879   0.864   8.396
  116OSM   H15T12174   2.712   0.837   8.332
  116OSM   C16S12175   2.866   0.735   8.231
  116OSM   H16S12176   2.803   0.651   8.191
  116OSM   H16T12177   2.969   0.692   8.237
  116OSM   C17S12178   2.866   0.855   8.143
  116OSM   H17S12179   2.951   0.928   8.144
  116OSM   H17T12180   2.766   0.896   8.112
  116OSM   C18S12181   2.900   0.790   8.031
  116OSM   H18S12182   3.001   0.756   8.034
  116OSM   H18T12183   2.896   0.864   7.951
  116OSM   H18U12184   2.840   0.700   8.008
  116OSM    C1F12185   3.092   0.523   9.665
  116OSM     OF12186   3.088   0.420   9.730
  116OSM    C2F12187   3.221   0.573   9.617
  116OSM    H2F12188   3.294   0.566   9.701
  116OSM    H2G12189   3.216   0.677   9.581
  116OSM    C3F12190   3.269   0.479   9.508
  116OSM    H3F12191   3.225   0.506   9.409
  116OSM    H3G12192   3.256   0.370   9.525
  116OSM    C4F12193   3.414   0.498   9.499
  116OSM    H4F12194   3.469   0.440   9.579
  116OSM    H4G12195   3.443   0.605   9.513
  116OSM    C5F12196   3.455   0.454   9.363
  116OSM    H5F12197   3.435   0.355   9.319
  116OSM    H5G12198   3.549   0.423   9.412
  116OSM    C6F12199   3.445   0.572   9.260
  116OSM    H6F12200   3.521   0.652   9.283
  116OSM    H6G12201   3.342   0.607   9.249
  116OSM    C7F12202   3.476   0.544   9.115
  116OSM    H7F12203   3.542   0.470   9.160
  116OSM    H7G12204   3.536   0.620   9.058
  116OSM    C8F12205   3.405   0.449   9.020
  116OSM    H8F12206   3.383   0.351   9.068
  116OSM    H8G12207   3.469   0.430   8.933
  116OSM    C9F12208   3.294   0.520   8.959
  116OSM    H9F12209   3.213   0.523   9.031
  116OSM   C10F12210   3.281   0.567   8.834
  116OSM   H10F12211   3.191   0.625   8.815
  116OSM   C11F12212   3.367   0.568   8.710
  116OSM   H11F12213   3.471   0.545   8.724
  116OSM   H11G12214   3.390   0.670   8.674
  116OSM   C12F12215   3.299   0.487   8.599
  116OSM   H12F12216   3.194   0.524   8.591
  116OSM   H12G12217   3.289   0.377   8.621
  116OSM   C13F12218   3.374   0.514   8.469
  116OSM   H13F12219   3.451   0.436   8.451
  116OSM   H13G12220   3.419   0.614   8.475
  116OSM   C14F12221   3.288   0.522   8.348
  116OSM   H14F12222   3.349   0.520   8.253
  116OSM   H14G12223   3.216   0.606   8.342
  116OSM   C15F12224   3.211   0.401   8.359
  116OSM   H15F12225   3.116   0.402   8.419
  116OSM   H15G12226   3.268   0.310   8.390
  116OSM   C16F12227   3.180   0.393   8.224
  116OSM   H16F12228   3.241   0.380   8.131
  116OSM   H16G12229   3.113   0.488   8.204
  116OSM   C17F12230   3.138   0.257   8.255
  116OSM   H17F12231   3.078   0.213   8.347
  116OSM   H17G12232   3.183   0.194   8.177
  116OSM   C18F12233   3.042   0.307   8.200
  116OSM   H18F12234   2.965   0.377   8.230
  116OSM   H18G12235   3.000   0.195   8.204
  116OSM   H18H12236   3.040   0.361   8.095
  117OSM      N12237   1.769   0.822  10.260
  117OSM    C1512238   1.846   0.857  10.135
  117OSM   H15A12239   1.779   0.847  10.048
  117OSM   H15B12240   1.932   0.796  10.119
  117OSM   H15C12241   1.877   0.961  10.132
  117OSM    C1412242   1.735   0.678  10.261
  117OSM   H14A12243   1.676   0.650  10.173
  117OSM   H14B12244   1.680   0.656  10.351
  117OSM   H14C12245   1.827   0.622  10.261
  117OSM    C1312246   1.853   0.844  10.382
  117OSM   H13A12247   1.882   0.948  10.393
  117OSM   H13B12248   1.944   0.786  10.378
  117OSM   H13C12249   1.799   0.814  10.472
  117OSM    C1212250   1.642   0.907  10.263
  117OSM   H12A12251   1.669   1.013  10.266
  117OSM   H12B12252   1.591   0.890  10.357
  117OSM    C1112253   1.539   0.893  10.148
  117OSM   H11A12254   1.459   0.968  10.169
  117OSM   H11B12255   1.492   0.792  10.149
  117OSM      P12256   1.553   1.045   9.935
  117OSM    O1312257   1.516   1.155  10.027
  117OSM    O1412258   1.663   1.076   9.841
  117OSM    O1112259   1.429   0.985   9.858
  117OSM    O1212260   1.596   0.915  10.019
  117OSM    C1S12261   1.456   0.863   9.786
  117OSM    H1S12262   1.370   0.796   9.797
  117OSM    H1T12263   1.532   0.797   9.830
  117OSM     NF12264   1.626   0.887   9.602
  117OSM    HNF12265   1.652   0.970   9.558
  117OSM    C2S12266   1.488   0.886   9.635
  117OSM    H2S12267   1.456   0.790   9.587
  117OSM    C3S12268   1.424   1.021   9.588
  117OSM    H3S12269   1.471   1.110   9.631
  117OSM     O312270   1.287   1.038   9.627
  117OSM    HO312271   1.256   0.951   9.657
  117OSM    C4S12272   1.446   1.039   9.431
  117OSM    H4S12273   1.531   1.102   9.408
  117OSM    C5S12274   1.383   0.991   9.322
  117OSM    H5S12275   1.317   0.914   9.345
  117OSM    C6S12276   1.383   0.996   9.172
  117OSM    H6S12277   1.287   1.025   9.123
  117OSM    H6T12278   1.401   0.900   9.120
  117OSM    C7S12279   1.463   1.101   9.120
  117OSM    H7S12280   1.564   1.080   9.155
  117OSM    H7T12281   1.437   1.205   9.151
  117OSM    C8S12282   1.452   1.079   8.973
  117OSM    H8S12283   1.365   1.089   8.909
  117OSM    H8T12284   1.488   0.979   8.945
  117OSM    C9S12285   1.529   1.188   8.930
  117OSM    H9S12286   1.617   1.180   8.989
  117OSM    H9T12287   1.501   1.296   8.910
  117OSM   C10S12288   1.581   1.144   8.819
  117OSM   H10S12289   1.493   1.126   8.752
  117OSM   H10T12290   1.621   1.037   8.803
  117OSM   C11S12291   1.692   1.272   8.797
  117OSM   H11S12292   1.712   1.178   8.812
  117OSM   H11T12293   1.746   1.355   8.755
  117OSM   C12S12294   1.813   1.235   8.524
  117OSM   H12S12295   1.846   1.328   8.508
  117OSM   H12T12296   1.742   1.199   8.448
  117OSM   C13S12297   1.863   1.090   8.508
  117OSM   H13S12298   1.840   1.007   8.578
  117OSM   H13T12299   1.959   1.136   8.529
  117OSM   C14S12300   1.858   1.039   8.382
  117OSM   H14S12301   1.888   1.130   8.325
  117OSM   H14T12302   1.756   1.028   8.351
  117OSM   C15S12303   1.930   0.902   8.371
  117OSM   H15S12304   1.918   0.828   8.448
  117OSM   H15T12305   2.030   0.876   8.406
  117OSM   C16S12306   1.911   0.882   8.229
  117OSM   H16S12307   1.987   0.877   8.151
  117OSM   H16T12308   1.870   0.978   8.198
  117OSM   C17S12309   1.845   0.768   8.188
  117OSM   H17S12310   1.768   0.771   8.261
  117OSM   H17T12311   1.918   0.684   8.189
  117OSM   C18S12312   1.806   0.809   8.054
  117OSM   H18S12313   1.734   0.739   8.017
  117OSM   H18T12314   1.901   0.808   7.993
  117OSM   H18U12315   1.760   0.911   8.051
  117OSM    C1F12316   1.717   0.798   9.634
  117OSM     OF12317   1.699   0.709   9.710
  117OSM    C2F12318   1.854   0.811   9.589
  117OSM    H2F12319   1.912   0.781   9.680
  117OSM    H2G12320   1.859   0.917   9.565
  117OSM    C3F12321   1.899   0.718   9.475
  117OSM    H3F12322   1.883   0.610   9.498
  117OSM    H3G12323   2.009   0.734   9.467
  117OSM    C4F12324   1.831   0.741   9.341
  117OSM    H4F12325   1.723   0.727   9.334
  117OSM    H4G12326   1.879   0.675   9.266
  117OSM    C5F12327   1.827   0.880   9.294
  117OSM    H5F12328   1.935   0.881   9.271
  117OSM    H5G12329   1.791   0.955   9.369
  117OSM    C6F12330   1.751   0.893   9.164
  117OSM    H6F12331   1.726   0.997   9.144
  117OSM    H6G12332   1.655   0.847   9.165
  117OSM    C7F12333   1.823   0.821   9.053
  117OSM    H7F12334   1.888   0.737   9.081
  117OSM    H7G12335   1.877   0.906   9.029
  117OSM    C8F12336   1.781   0.834   8.908
  117OSM    H8F12337   1.735   0.930   8.893
  117OSM    H8G12338   1.692   0.771   8.922
  117OSM    C9F12339   1.888   0.805   8.799
  117OSM    H9F12340   1.959   0.875   8.757
  117OSM   C10F12341   1.903   0.707   8.720
  117OSM   H10F12342   1.971   0.705   8.636
  117OSM   C11F12343   1.806   0.610   8.727
  117OSM   H11F12344   1.733   0.638   8.803
  117OSM   H11G12345   1.831   0.505   8.750
  117OSM   C12F12346   1.766   0.639   8.581
  117OSM   H12F12347   1.706   0.546   8.599
  117OSM   H12G12348   1.815   0.586   8.501
  117OSM   C13F12349   1.704   0.788   8.523
  117OSM   H13F12350   1.761   0.863   8.501
  117OSM   H13G12351   1.676   0.842   8.619
  117OSM   C14F12352   1.594   0.818   8.395
  117OSM   H14F12353   1.494   0.771   8.387
  117OSM   H14G12354   1.592   0.749   8.315
  117OSM   C15F12355   1.514   0.938   8.378
  117OSM   H15F12356   1.589   0.995   8.333
  117OSM   H15G12357   1.473   0.970   8.474
  117OSM   C16F12358   1.408   0.916   8.275
  117OSM   H16F12359   1.354   1.001   8.260
  117OSM   H16G12360   1.332   0.836   8.297
  117OSM   C17F12361   1.464   0.876   8.152
  117OSM   H17F12362   1.459   0.777   8.184
  117OSM   H17G12363   1.560   0.886   8.106
  117OSM   C18F12364   1.358   0.887   8.071
  117OSM   H18F12365   1.286   0.808   8.092
  117OSM   H18G12366   1.355   0.834   7.987
  117OSM   H18H12367   1.328   0.989   8.055
  118OSM      N12368   0.823   2.221  10.078
  118OSM    C1512369   0.951   2.245  10.006
  118OSM   H15A12370   0.967   2.172   9.927
  118OSM   H15B12371   1.036   2.231  10.073
  118OSM   H15C12372   0.954   2.344   9.964
  118OSM    C1412373   0.835   2.096  10.160
  118OSM   H14A12374   0.910   2.103  10.238
  118OSM   H14B12375   0.867   2.011  10.101
  118OSM   H14C12376   0.738   2.073  10.204
  118OSM    C1312377   0.791   2.333  10.170
  118OSM   H13A12378   0.687   2.321  10.201
  118OSM   H13B12379   0.802   2.428  10.120
  118OSM   H13C12380   0.851   2.330  10.260
  118OSM    C1212381   0.707   2.205   9.983
  118OSM   H12A12382   0.713   2.107   9.940
  118OSM   H12B12383   0.715   2.277   9.905
  118OSM    C1112384   0.564   2.208  10.041
  118OSM   H11A12385   0.497   2.191   9.953
  118OSM   H11B12386   0.539   2.308  10.082
  118OSM      P12387   0.436   1.999  10.142
  118OSM    O1312388   0.477   1.889  10.231
  118OSM    O1412389   0.306   2.063  10.163
  118OSM    O1112390   0.447   1.939   9.998
  118OSM    O1212391   0.550   2.109  10.143
  118OSM    C1S12392   0.534   1.828   9.976
  118OSM    H1S12393   0.493   1.733  10.011
  118OSM    H1T12394   0.631   1.843  10.030
  118OSM     NF12395   0.656   1.940   9.837
  118OSM    HNF12396   0.638   1.973   9.750
  118OSM    C2S12397   0.559   1.827   9.830
  118OSM    H2S12398   0.594   1.724   9.790
  118OSM    C3S12399   0.427   1.863   9.746
  118OSM    H3S12400   0.393   1.964   9.774
  118OSM     O312401   0.323   1.768   9.763
  118OSM    HO312402   0.350   1.719   9.842
  118OSM    C4S12403   0.448   1.871   9.595
  118OSM    H4S12404   0.466   1.783   9.540
  118OSM    C5S12405   0.445   1.978   9.515
  118OSM    H5S12406   0.456   2.076   9.563
  118OSM    C6S12407   0.466   1.973   9.365
  118OSM    H6S12408   0.544   2.041   9.336
  118OSM    H6T12409   0.385   2.028   9.317
  118OSM    C7S12410   0.470   1.840   9.288
  118OSM    H7S12411   0.373   1.790   9.309
  118OSM    H7T12412   0.558   1.775   9.311
  118OSM    C8S12413   0.470   1.857   9.137
  118OSM    H8S12414   0.515   1.767   9.091
  118OSM    H8T12415   0.536   1.944   9.117
  118OSM    C9S12416   0.327   1.880   9.087
  118OSM    H9S12417   0.266   1.919   9.172
  118OSM    H9T12418   0.277   1.784   9.059
  118OSM   C10S12419   0.324   1.984   8.975
  118OSM   H10S12420   0.347   2.082   9.021
  118OSM   H10T12421   0.221   1.988   8.933
  118OSM   C11S12422   0.424   1.957   8.861
  118OSM   H11S12423   0.419   1.848   8.839
  118OSM   H11T12424   0.529   1.979   8.891
  118OSM   C12S12425   0.385   2.030   8.731
  118OSM   H12S12426   0.280   2.000   8.713
  118OSM   H12T12427   0.446   1.994   8.646
  118OSM   C13S12428   0.386   2.184   8.737
  118OSM   H13S12429   0.482   2.223   8.774
  118OSM   H13T12430   0.307   2.211   8.812
  118OSM   C14S12431   0.356   2.253   8.602
  118OSM   H14S12432   0.334   2.361   8.621
  118OSM   H14T12433   0.265   2.209   8.556
  118OSM   C15S12434   0.468   2.241   8.495
  118OSM   H15S12435   0.466   2.138   8.455
  118OSM   H15T12436   0.568   2.263   8.537
  118OSM   C16S12437   0.446   2.338   8.380
  118OSM   H16S12438   0.440   2.432   8.435
  118OSM   H16T12439   0.351   2.317   8.326
  118OSM   C17S12440   0.559   2.344   8.277
  118OSM   H17S12441   0.658   2.353   8.326
  118OSM   H17T12442   0.549   2.437   8.217
  118OSM   C18S12443   0.549   2.219   8.190
  118OSM   H18S12444   0.457   2.212   8.128
  118OSM   H18T12445   0.574   2.126   8.243
  118OSM   H18U12446   0.629   2.208   8.125
  118OSM    C1F12447   0.795   1.955   9.863
  118OSM     OF12448   0.814   1.838   9.914
  118OSM    C2F12449   0.918   2.058   9.699
  118OSM    H2F12450   0.972   2.124   9.755
  118OSM    H2G12451   0.841   2.121   9.687
  118OSM    C3F12452   1.010   1.903   9.544
  118OSM    H3F12453   1.017   1.790   9.576
  118OSM    H3G12454   1.105   1.923   9.518
  118OSM    C4F12455   0.918   1.759   9.460
  118OSM    H4F12456   0.811   1.787   9.428
  118OSM    H4G12457   0.856   1.678   9.512
  118OSM    C5F12458   0.965   1.723   9.330
  118OSM    H5F12459   0.882   1.681   9.270
  118OSM    H5G12460   1.052   1.661   9.354
  118OSM    C6F12461   1.030   1.834   9.260
  118OSM    H6F12462   1.083   1.783   9.180
  118OSM    H6G12463   1.081   1.899   9.332
  118OSM    C7F12464   0.972   1.923   9.167
  118OSM    H7F12465   0.978   2.004   9.242
  118OSM    H7G12466   0.881   1.871   9.136
  118OSM    C8F12467   1.010   2.054   9.119
  118OSM    H8F12468   1.062   2.068   9.039
  118OSM    H8G12469   1.061   2.142   9.177
  118OSM    C9F12470   0.905   2.075   9.030
  118OSM    H9F12471   0.885   2.143   9.100
  118OSM   C10F12472   0.864   2.084   8.911
  118OSM   H10F12473   0.799   2.174   8.912
  118OSM   C11F12474   0.958   2.064   8.795
  118OSM   H11F12475   1.065   2.062   8.798
  118OSM   H11G12476   0.989   2.136   8.718
  118OSM   C12F12477   0.859   2.019   8.702
  118OSM   H12F12478   0.790   2.104   8.674
  118OSM   H12G12479   0.809   1.932   8.748
  118OSM   C13F12480   0.941   1.967   8.589
  118OSM   H13F12481   1.032   1.916   8.625
  118OSM   H13G12482   0.986   2.048   8.547
  118OSM   C14F12483   0.857   1.906   8.482
  118OSM   H14F12484   0.796   1.983   8.429
  118OSM   H14G12485   0.792   1.841   8.545
  118OSM   C15F12486   0.934   1.816   8.389
  118OSM   H15F12487   0.865   1.763   8.321
  118OSM   H15G12488   0.994   1.749   8.454
  118OSM   C16F12489   1.037   1.869   8.298
  118OSM   H16F12490   1.076   1.792   8.228
  118OSM   H16G12491   1.118   1.922   8.353
  118OSM   C17F12492   0.990   1.964   8.199
  118OSM   H17F12493   1.081   1.996   8.143
  118OSM   H17G12494   0.964   2.039   8.278
  118OSM   C18F12495   0.873   1.938   8.100
  118OSM   H18F12496   0.778   1.939   8.157
  118OSM   H18G12497   0.894   1.861   8.027
  118OSM   H18H12498   0.848   2.021   8.030
  119OSM      N12499   2.013   0.327  10.252
  119OSM    C1512500   1.912   0.392  10.164
  119OSM   H15A12501   1.907   0.497  10.184
  119OSM   H15B12502   1.815   0.348  10.177
  119OSM   H15C12503   1.942   0.381  10.060
  119OSM    C1412504   1.979   0.355  10.395
  119OSM   H14A12505   1.964   0.461  10.412
  119OSM   H14B12506   2.059   0.323  10.461
  119OSM   H14C12507   1.887   0.306  10.421
  119OSM    C1312508   2.012   0.180  10.223
  119OSM   H13A12509   2.009   0.166  10.115
  119OSM   H13B12510   1.931   0.128  10.269
  119OSM   H13C12511   2.108   0.137  10.251
  119OSM    C1212512   2.150   0.388  10.217
  119OSM   H12A12513   2.224   0.350  10.287
  119OSM   H12B12514   2.145   0.494  10.232
  119OSM    C1112515   2.211   0.364  10.077
  119OSM   H11A12516   2.305   0.425  10.068
  119OSM   H11B12517   2.143   0.398   9.997
  119OSM      P12518   2.346   0.173   9.956
  119OSM    O1312519   2.480   0.205  10.006
  119OSM    O1412520   2.319   0.029   9.939
  119OSM    O1112521   2.307   0.255   9.826
  119OSM    O1212522   2.240   0.225  10.062
  119OSM    C1S12523   2.190   0.215   9.754
  119OSM    H1S12524   2.100   0.249   9.808
  119OSM    H1T12525   2.179   0.104   9.746
  119OSM     NF12526   2.291   0.241   9.529
  119OSM    HNF12527   2.348   0.302   9.477
  119OSM    C2S12528   2.189   0.286   9.616
  119OSM    H2S12529   2.092   0.261   9.566
  119OSM    C3S12530   2.201   0.438   9.638
  119OSM    H3S12531   2.296   0.459   9.693
  119OSM     O312532   2.093   0.487   9.716
  119OSM    HO312533   2.075   0.411   9.773
  119OSM    C4S12534   2.208   0.503   9.502
  119OSM    H4S12535   2.112   0.536   9.461
  119OSM    C5S12536   2.324   0.533   9.440
  119OSM    H5S12537   2.419   0.525   9.494
  119OSM    C6S12538   2.338   0.596   9.304
  119OSM    H6S12539   2.438   0.580   9.261
  119OSM    H6T12540   2.342   0.705   9.294
  119OSM    C7S12541   2.215   0.572   9.220
  119OSM    H7S12542   2.126   0.634   9.252
  119OSM    H7T12543   2.197   0.467   9.203
  119OSM    C8S12544   2.254   0.621   9.089
  119OSM    H8S12545   2.357   0.596   9.056
  119OSM    H8T12546   2.269   0.725   9.129
  119OSM    C9S12547   2.154   0.600   8.968
  119OSM    H9S12548   2.205   0.615   8.869
  119OSM    H9T12549   2.068   0.670   8.960
  119OSM   C10S12550   2.081   0.477   8.961
  119OSM   H10S12551   2.011   0.489   8.875
  119OSM   H10T12552   2.026   0.465   9.056
  119OSM   C11S12553   2.189   0.383   8.931
  119OSM   H11S12554   2.268   0.385   9.010
  119OSM   H11T12555   2.244   0.411   8.837
  119OSM   C12S12556   2.121   0.251   8.920
  119OSM   H12S12557   2.080   0.210   9.013
  119OSM   H12T12558   2.212   0.208   8.907
  119OSM   C13S12559   2.027   0.226   8.802
  119OSM   H13S12560   1.940   0.293   8.816
  119OSM   H13T12561   1.991   0.121   8.813
  119OSM   C14S12562   2.090   0.243   8.662
  119OSM   H14S12563   2.193   0.205   8.666
  119OSM   H14T12564   2.101   0.352   8.641
  119OSM   C15S12565   2.011   0.172   8.549
  119OSM   H15S12566   1.904   0.203   8.557
  119OSM   H15T12567   2.011   0.062   8.565
  119OSM   C16S12568   2.062   0.201   8.405
  119OSM   H16S12569   2.167   0.166   8.395
  119OSM   H16T12570   2.065   0.311   8.390
  119OSM   C17S12571   1.975   0.141   8.292
  119OSM   H17S12572   2.000   0.186   8.193
  119OSM   H17T12573   1.868   0.165   8.312
  119OSM   C18S12574   1.989  -0.010   8.272
  119OSM   H18S12575   1.935  -0.038   8.179
  119OSM   H18T12576   1.948  -0.067   8.357
  119OSM   H18U12577   2.097  -0.036   8.259
  119OSM    C1F12578   2.283   0.127   9.480
  119OSM     OF12579   2.201   0.044   9.514
  119OSM    C2F12580   2.373   0.127   9.360
  119OSM    H2F12581   2.468   0.181   9.378
  119OSM    H2G12582   2.320   0.133   9.263
  119OSM    C3F12583   2.451   0.007   9.350
  119OSM    H3F12584   2.349  -0.048   9.357
  119OSM    H3G12585   2.506  -0.006   9.446
  119OSM    C4F12586   2.564  -0.033   9.241
  119OSM    H4F12587   2.582  -0.141   9.224
  119OSM    H4G12588   2.666  -0.017   9.272
  119OSM    C5F12589   2.548  -0.000   9.095
  119OSM    H5F12590   2.549   0.104   9.067
  119OSM    H5G12591   2.441   0.018   9.119
  119OSM    C6F12592   2.603  -0.110   8.977
  119OSM    H6F12593   2.613  -0.216   8.991
  119OSM    H6G12594   2.709  -0.077   8.973
  119OSM    C7F12595   2.537  -0.144   8.820
  119OSM    H7F12596   2.621  -0.139   8.755
  119OSM    H7G12597   2.529  -0.035   8.853
  119OSM    C8F12598   2.369  -0.222   8.735
  119OSM    H8F12599   2.293  -0.270   8.802
  119OSM    H8G12600   2.432  -0.299   8.702
  119OSM    C9F12601   2.238  -0.156   8.641
  119OSM    H9F12602   2.184  -0.057   8.667
  119OSM   C10F12603   2.247  -0.138   8.509
  119OSM   H10F12604   2.243  -0.030   8.471
  119OSM   C11F12605   2.374  -0.191   8.464
  119OSM   H11F12606   2.333  -0.290   8.466
  119OSM   H11G12607   2.466  -0.224   8.517
  119OSM   C12F12608   2.399  -0.130   8.335
  119OSM   H12F12609   2.335  -0.072   8.268
  119OSM   H12G12610   2.368  -0.218   8.281
  119OSM   C13F12611   2.537  -0.086   8.317
  119OSM   H13F12612   2.627  -0.140   8.354
  119OSM   H13G12613   2.582  -0.011   8.361
  119OSM   C14F12614   2.530   0.004   8.204
  119OSM   H14F12615   2.521  -0.056   8.117
  119OSM   H14G12616   2.628   0.029   8.204
  119OSM   C15F12617   2.463   0.140   8.205
  119OSM   H15F12618   2.498   0.226   8.266
  119OSM   H15G12619   2.368   0.117   8.250
  119OSM   C16F12620   2.465   0.193   8.063
  119OSM   H16F12621   2.438   0.104   8.005
  119OSM   H16G12622   2.554   0.227   8.004
  119OSM   C17F12623   2.411   0.327   8.067
  119OSM   H17F12624   2.429   0.374   7.970
  119OSM   H17G12625   2.465   0.387   8.145
  119OSM   C18F12626   2.267   0.302   8.092
  119OSM   H18F12627   2.254   0.284   8.200
  119OSM   H18G12628   2.238   0.209   8.037
  119OSM   H18H12629   2.213   0.390   8.054
  120OSM      N12630   0.898   5.904  10.218
  120OSM    C1512631   0.994   5.914  10.104
  120OSM   H15A12632   1.095   5.898  10.140
  120OSM   H15B12633   0.990   6.013  10.057
  120OSM   H15C12634   0.971   5.841  10.028
  120OSM    C1412635   0.904   5.765  10.269
  120OSM   H14A12636   0.852   5.757  10.363
  120OSM   H14B12637   1.007   5.735  10.284
  120OSM   H14C12638   0.860   5.697  10.196
  120OSM    C1312639   0.946   5.994  10.327
  120OSM   H13A12640   1.040   5.958  10.367
  120OSM   H13B12641   0.872   5.998  10.406
  120OSM   H13C12642   0.959   6.095  10.290
  120OSM    C1212643   0.755   5.939  10.178
  120OSM   H12A12644   0.692   5.911  10.262
  120OSM   H12B12645   0.729   5.878  10.093
  120OSM    C1112646   0.717   6.083  10.140
  120OSM   H11A12647   0.757   6.151  10.218
  120OSM   H11B12648   0.606   6.092  10.139
  120OSM      P12649   0.824   6.255   9.975
  120OSM    O1312650   0.775   6.347  10.082
  120OSM    O1412651   0.969   6.234   9.958
  120OSM    O1112652   0.751   6.289   9.839
  120OSM    O1212653   0.763   6.114  10.010
  120OSM    C1S12654   0.727   6.190   9.739
  120OSM    H1S12655   0.627   6.145   9.760
  120OSM    H1T12656   0.805   6.112   9.738
  120OSM     NF12657   0.855   6.282   9.543
  120OSM    HNF12658   0.870   6.380   9.549
  120OSM    C2S12659   0.726   6.248   9.593
  120OSM    H2S12660   0.682   6.170   9.526
  120OSM    C3S12661   0.641   6.372   9.590
  120OSM    H3S12662   0.679   6.453   9.655
  120OSM     O312663   0.512   6.350   9.642
  120OSM    HO312664   0.501   6.254   9.641
  120OSM    C4S12665   0.622   6.424   9.450
  120OSM    H4S12666   0.664   6.523   9.433
  120OSM    C5S12667   0.563   6.362   9.346
  120OSM    H5S12668   0.500   6.274   9.371
  120OSM    C6S12669   0.539   6.433   9.214
  120OSM    H6S12670   0.567   6.541   9.218
  120OSM    H6T12671   0.428   6.439   9.188
  120OSM    C7S12672   0.606   6.360   9.104
  120OSM    H7S12673   0.547   6.269   9.080
  120OSM    H7T12674   0.706   6.332   9.142
  120OSM    C8S12675   0.624   6.444   8.979
  120OSM    H8S12676   0.711   6.513   8.991
  120OSM    H8T12677   0.535   6.510   8.964
  120OSM    C9S12678   0.643   6.351   8.859
  120OSM    H9S12679   0.548   6.292   8.847
  120OSM    H9T12680   0.733   6.288   8.860
  120OSM   C10S12681   0.662   6.435   8.739
  120OSM   H10S12682   0.707   6.535   8.766
  120OSM   H10T12683   0.553   6.430   8.725
  120OSM   C11S12684   0.706   6.395   8.599
  120OSM   H11S12685   0.669   6.467   8.521
  120OSM   H11T12686   0.668   6.297   8.569
  120OSM   C12S12687   0.855   6.406   8.598
  120OSM   H12S12688   0.899   6.324   8.656
  120OSM   H12T12689   0.878   6.492   8.660
  120OSM   C13S12690   0.907   6.431   8.459
  120OSM   H13S12691   1.019   6.429   8.460
  120OSM   H13T12692   0.878   6.533   8.424
  120OSM   C14S12693   0.851   6.329   8.363
  120OSM   H14S12694   0.742   6.346   8.346
  120OSM   H14T12695   0.863   6.226   8.401
  120OSM   C15S12696   0.934   6.336   8.238
  120OSM   H15S12697   1.040   6.311   8.255
  120OSM   H15T12698   0.937   6.442   8.211
  120OSM   C16S12699   0.877   6.250   8.132
  120OSM   H16S12700   0.872   6.143   8.164
  120OSM   H16T12701   0.942   6.252   8.041
  120OSM   C17S12702   0.740   6.299   8.102
  120OSM   H17S12703   0.708   6.404   8.103
  120OSM   H17T12704   0.663   6.240   8.160
  120OSM   C18S12705   0.735   6.273   7.963
  120OSM   H18S12706   0.625   6.297   7.968
  120OSM   H18T12707   0.758   6.163   7.949
  120OSM   H18U12708   0.735   6.327   7.867
  120OSM    C1F12709   0.952   6.198   9.518
  120OSM     OF12710   0.932   6.079   9.496
  120OSM    C2F12711   1.089   6.257   9.525
  120OSM    H2F12712   1.138   6.219   9.618
  120OSM    H2G12713   1.084   6.368   9.531
  120OSM    C3F12714   1.173   6.222   9.401
  120OSM    H3F12715   1.173   6.114   9.397
  120OSM    H3G12716   1.278   6.252   9.417
  120OSM    C4F12717   1.115   6.264   9.264
  120OSM    H4F12718   1.152   6.366   9.246
  120OSM    H4G12719   1.004   6.262   9.270
  120OSM    C5F12720   1.152   6.171   9.146
  120OSM    H5F12721   1.105   6.076   9.173
  120OSM    H5G12722   1.262   6.159   9.140
  120OSM    C6F12723   1.093   6.190   9.006
  120OSM    H6F12724   1.144   6.121   8.934
  120OSM    H6G12725   1.114   6.293   8.974
  120OSM    C7F12726   0.941   6.168   8.998
  120OSM    H7F12727   0.915   6.169   8.890
  120OSM    H7G12728   0.894   6.254   9.050
  120OSM    C8F12729   0.884   6.043   9.067
  120OSM    H8F12730   0.910   6.044   9.175
  120OSM    H8G12731   0.928   5.958   9.014
  120OSM    C9F12732   0.737   6.034   9.051
  120OSM    H9F12733   0.678   6.062   9.139
  120OSM   C10F12734   0.682   5.988   8.938
  120OSM   H10F12735   0.576   5.987   8.916
  120OSM   C11F12736   0.736   5.938   8.812
  120OSM   H11F12737   0.673   5.850   8.796
  120OSM   H11G12738   0.843   5.912   8.821
  120OSM   C12F12739   0.694   6.014   8.690
  120OSM   H12F12740   0.727   6.117   8.705
  120OSM   H12G12741   0.582   6.012   8.683
  120OSM   C13F12742   0.759   5.954   8.565
  120OSM   H13F12743   0.698   5.992   8.480
  120OSM   H13G12744   0.755   5.843   8.565
  120OSM   C14F12745   0.906   5.998   8.551
  120OSM   H14F12746   0.966   5.953   8.633
  120OSM   H14G12747   0.910   6.108   8.565
  120OSM   C15F12748   0.972   5.960   8.419
  120OSM   H15F12749   0.902   5.970   8.333
  120OSM   H15G12750   1.005   5.854   8.423
  120OSM   C16F12751   1.098   6.042   8.392
  120OSM   H16F12752   1.170   6.019   8.475
  120OSM   H16G12753   1.083   6.151   8.387
  120OSM   C17F12754   1.157   6.001   8.259
  120OSM   H17F12755   1.083   5.992   8.177
  120OSM   H17G12756   1.177   5.893   8.283
  120OSM   C18F12757   1.272   6.095   8.212
  120OSM   H18F12758   1.359   6.100   8.282
  120OSM   H18G12759   1.236   6.194   8.181
  120OSM   H18H12760   1.317   6.067   8.116
  121OSM      N12761   6.927   2.100  10.231
  121OSM    C1512762   6.825   2.196  10.178
  121OSM   H15A12763   6.847   2.226  10.075
  121OSM   H15B12764   6.820   2.286  10.237
  121OSM   H15C12765   6.727   2.151  10.178
  121OSM    C1412766   6.904   2.085  10.378
  121OSM   H14A12767   6.941   1.991  10.418
  121OSM   H14B12768   6.798   2.092  10.398
  121OSM   H14C12769   6.952   2.166  10.434
  121OSM    C1312770   6.913   1.966  10.163
  121OSM   H13A12771   6.821   1.917  10.189
  121OSM   H13B12772   6.996   1.899  10.185
  121OSM   H13C12773   6.917   1.978  10.054
  121OSM    C1212774   7.067   2.152  10.209
  121OSM   H12A12775   7.132   2.081  10.258
  121OSM   H12B12776   7.077   2.248  10.258
  121OSM    C1112777   7.115   2.170  10.062
  121OSM   H11A12778   7.211   2.228  10.060
  121OSM   H11B12779   7.044   2.235  10.007
  121OSM      P12780   7.265   1.966   9.986
  121OSM    O1312781   7.360   2.045  10.064
  121OSM    O1412782   7.241   1.823  10.020
  121OSM    O1112783   7.299   1.977   9.833
  121OSM    O1212784   7.126   2.044   9.994
  121OSM    C1S12785   7.192   1.969   9.739
  121OSM    H1S12786   7.105   1.910   9.778
  121OSM    H1T12787   7.228   1.914   9.649
  121OSM     NF12788   7.067   2.097   9.569
  121OSM    HNF12789   7.102   2.150   9.493
  121OSM    C2S12790   7.146   2.110   9.694
  121OSM    H2S12791   7.083   2.157   9.772
  121OSM    C3S12792   7.273   2.199   9.679
  121OSM    H3S12793   7.361   2.142   9.641
  121OSM     O312794   7.312   2.268   9.797
  121OSM    HO312795   7.259   2.232   9.867
  121OSM    C4S12796   7.245   2.305   9.583
  121OSM    H4S12797   7.173   2.384   9.608
  121OSM    C5S12798   7.306   2.305   9.465
  121OSM    H5S12799   7.382   2.235   9.428
  121OSM    C6S12800   7.283   2.406   9.370
  121OSM    H6S12801   7.385   2.416   9.343
  121OSM    H6T12802   7.260   2.499   9.425
  121OSM    C7S12803   7.212   2.369   9.242
  121OSM    H7S12804   7.275   2.324   9.163
  121OSM    H7T12805   7.159   2.449   9.186
  121OSM    C8S12806   7.099   2.301   9.296
  121OSM    H8S12807   7.061   2.362   9.381
  121OSM    H8T12808   7.118   2.195   9.321
  121OSM    C9S12809   6.999   2.301   9.195
  121OSM    H9S12810   6.955   2.398   9.178
  121OSM    H9T12811   6.939   2.251   9.271
  121OSM   C10S12812   7.061   2.237   9.075
  121OSM   H10S12813   7.103   2.142   9.119
  121OSM   H10T12814   7.122   2.288   9.002
  121OSM   C11S12815   6.974   2.202   8.967
  121OSM   H11S12816   6.883   2.239   8.939
  121OSM   H11T12817   6.943   2.132   9.045
  121OSM   C12S12818   6.978   2.185   8.809
  121OSM   H12S12819   6.942   2.085   8.786
  121OSM   H12T12820   7.068   2.186   8.758
  121OSM   C13S12821   6.875   2.234   8.705
  121OSM   H13S12822   6.818   2.322   8.726
  121OSM   H13T12823   6.788   2.207   8.754
  121OSM   C14S12824   6.879   2.164   8.561
  121OSM   H14S12825   6.966   2.213   8.519
  121OSM   H14T12826   6.802   2.204   8.494
  121OSM   C15S12827   6.898   2.005   8.538
  121OSM   H15S12828   6.820   1.929   8.565
  121OSM   H15T12829   6.980   1.978   8.606
  121OSM   C16S12830   6.913   1.951   8.397
  121OSM   H16S12831   6.956   1.848   8.411
  121OSM   H16T12832   6.983   2.021   8.349
  121OSM   C17S12833   6.785   1.929   8.315
  121OSM   H17S12834   6.717   2.013   8.325
  121OSM   H17T12835   6.726   1.842   8.352
  121OSM   C18S12836   6.809   1.925   8.165
  121OSM   H18S12837   6.870   1.837   8.139
  121OSM   H18T12838   6.856   2.020   8.130
  121OSM   H18U12839   6.713   1.915   8.112
  121OSM    C1F12840   6.951   2.033   9.563
  121OSM     OF12841   6.895   2.000   9.666
  121OSM    C2F12842   6.897   1.998   9.426
  121OSM    H2F12843   6.990   1.956   9.390
  121OSM    H2G12844   6.931   2.027   9.326
  121OSM    C3F12845   6.793   1.886   9.433
  121OSM    H3F12846   6.755   1.871   9.330
  121OSM    H3G12847   6.706   1.904   9.501
  121OSM    C4F12848   6.861   1.756   9.468
  121OSM    H4F12849   6.786   1.673   9.471
  121OSM    H4G12850   6.903   1.758   9.571
  121OSM    C5F12851   6.981   1.731   9.374
  121OSM    H5F12852   7.011   1.639   9.425
  121OSM    H5G12853   7.069   1.794   9.386
  121OSM    C6F12854   6.957   1.739   9.221
  121OSM    H6F12855   6.931   1.832   9.167
  121OSM    H6G12856   6.866   1.696   9.235
  121OSM    C7F12857   7.024   1.650   9.119
  121OSM    H7F12858   6.963   1.648   9.033
  121OSM    H7G12859   7.011   1.544   9.119
  121OSM    C8F12860   7.168   1.678   9.102
  121OSM    H8F12861   7.210   1.594   9.043
  121OSM    H8G12862   7.207   1.680   9.206
  121OSM    C9F12863   7.177   1.811   9.039
  121OSM    H9F12864   7.163   1.891   9.112
  121OSM   C10F12865   7.190   1.838   8.908
  121OSM   H10F12866   7.199   1.943   8.882
  121OSM   C11F12867   7.198   1.742   8.792
  121OSM   H11F12868   7.124   1.768   8.713
  121OSM   H11G12869   7.172   1.640   8.827
  121OSM   C12F12870   7.335   1.735   8.722
  121OSM   H12F12871   7.330   1.661   8.639
  121OSM   H12G12872   7.412   1.700   8.794
  121OSM   C13F12873   7.376   1.870   8.662
  121OSM   H13F12874   7.478   1.856   8.618
  121OSM   H13G12875   7.382   1.948   8.741
  121OSM   C14F12876   7.289   1.920   8.546
  121OSM   H14F12877   7.195   1.968   8.580
  121OSM   H14G12878   7.266   1.834   8.479
  121OSM   C15F12879   7.365   2.027   8.470
  121OSM   H15F12880   7.459   1.986   8.428
  121OSM   H15G12881   7.389   2.108   8.543
  121OSM   C16F12882   7.288   2.087   8.354
  121OSM   H16F12883   7.350   2.176   8.324
  121OSM   H16G12884   7.190   2.128   8.387
  121OSM   C17F12885   7.274   1.990   8.236
  121OSM   H17F12886   7.181   2.014   8.179
  121OSM   H17G12887   7.263   1.887   8.273
  121OSM   C18F12888   7.390   1.993   8.138
  121OSM   H18F12889   7.488   1.978   8.185
  121OSM   H18G12890   7.394   2.087   8.087
  121OSM   H18H12891   7.372   1.929   8.052
  122OSM      N12892   0.558   0.116  10.128
  122OSM    C1512893   0.527   0.187  10.000
  122OSM   H15A12894   0.420   0.208   9.997
  122OSM   H15B12895   0.556   0.130   9.912
  122OSM   H15C12896   0.576   0.283  10.002
  122OSM    C1412897   0.533  -0.031  10.108
  122OSM   H14A12898   0.429  -0.053  10.082
  122OSM   H14B12899   0.553  -0.088  10.199
  122OSM   H14C12900   0.592  -0.075  10.029
  122OSM    C1312901   0.702   0.149  10.145
  122OSM   H13A12902   0.759   0.095  10.071
  122OSM   H13B12903   0.753   0.122  10.239
  122OSM   H13C12904   0.717   0.254  10.160
  122OSM    C1212905   0.455   0.170  10.227
  122OSM   H12A12906   0.425   0.271  10.195
  122OSM   H12B12907   0.492   0.174  10.328
  122OSM    C1112908   0.320   0.096  10.233
  122OSM   H11A12909   0.254   0.142  10.311
  122OSM   H11B12910   0.328  -0.011  10.261
  122OSM      P12911   0.128   0.167  10.078
  122OSM    O1312912   0.035   0.061  10.044
  122OSM    O1412913   0.071   0.249  10.187
  122OSM    O1112914   0.158   0.264   9.961
  122OSM    O1212915   0.266   0.103  10.104
  122OSM    C1S12916   0.224   0.228   9.845
  122OSM    H1S12917   0.233   0.119   9.828
  122OSM    H1T12918   0.326   0.274   9.841
  122OSM     NF12919   0.245   0.241   9.633
  122OSM    HNF12920   0.279   0.308   9.571
  122OSM    C2S12921   0.151   0.287   9.730
  122OSM    H2S12922   0.046   0.250   9.717
  122OSM    C3S12923   0.142   0.444   9.742
  122OSM    H3S12924   0.246   0.444   9.748
  122OSM     O312925   0.028   0.472   9.807
  122OSM    HO312926   0.035   0.429   9.894
  122OSM    C4S12927   0.121   0.529   9.620
  122OSM    H4S12928   0.023   0.577   9.640
  122OSM    C5S12929   0.179   0.609   9.530
  122OSM    H5S12930   0.280   0.633   9.548
  122OSM    C6S12931   0.136   0.677   9.394
  122OSM    H6S12932   0.225   0.734   9.361
  122OSM    H6T12933   0.075   0.762   9.424
  122OSM    C7S12934   0.117   0.592   9.234
  122OSM    H7S12935   0.187   0.515   9.212
  122OSM    H7T12936   0.160   0.655   9.158
  122OSM    C8S12937   0.010   0.474   9.169
  122OSM    H8S12938  -0.094   0.509   9.168
  122OSM    H8T12939  -0.016   0.381   9.225
  122OSM    C9S12940  -0.006   0.410   9.043
  122OSM    H9S12941  -0.006   0.490   8.970
  122OSM    H9T12942  -0.110   0.361   9.048
  122OSM   C10S12943   0.107   0.318   9.036
  122OSM   H10S12944   0.107   0.242   9.115
  122OSM   H10T12945   0.199   0.382   9.045
  122OSM   C11S12946   0.086   0.247   8.910
  122OSM   H11S12947  -0.009   0.190   8.917
  122OSM   H11T12948   0.172   0.177   8.905
  122OSM   C12S12949   0.080   0.349   8.798
  122OSM   H12S12950   0.162   0.423   8.815
  122OSM   H12T12951  -0.015   0.407   8.802
  122OSM   C13S12952   0.092   0.289   8.659
  122OSM   H13S12953   0.138   0.367   8.597
  122OSM   H13T12954  -0.008   0.268   8.615
  122OSM   C14S12955   0.186   0.170   8.646
  122OSM   H14S12956   0.157   0.094   8.719
  122OSM   H14T12957   0.293   0.201   8.659
  122OSM   C15S12958   0.166   0.101   8.514
  122OSM   H15S12959   0.059   0.087   8.503
  122OSM   H15T12960   0.222   0.007   8.503
  122OSM   C16S12961   0.214   0.199   8.416
  122OSM   H16S12962   0.321   0.194   8.432
  122OSM   H16T12963   0.167   0.298   8.427
  122OSM   C17S12964   0.177   0.190   8.279
  122OSM   H17S12965   0.208   0.080   8.289
  122OSM   H17T12966   0.218   0.146   8.185
  122OSM   C18S12967   0.044   0.274   8.259
  122OSM   H18S12968  -0.054   0.234   8.289
  122OSM   H18T12969  -0.037   0.229   8.198
  122OSM   H18U12970   0.068   0.351   8.181
  122OSM    C1F12971   0.242   0.125   9.580
  122OSM     OF12972   0.148   0.058   9.604
  122OSM    C2F12973   0.331   0.095   9.469
  122OSM    H2F12974   0.426   0.054   9.504
  122OSM    H2G12975   0.354   0.169   9.390
  122OSM    C3F12976   0.241   0.013   9.383
  122OSM    H3F12977   0.133   0.027   9.359
  122OSM    H3G12978   0.268  -0.077   9.440
  122OSM    C4F12979   0.295   0.005   9.250
  122OSM    H4F12980   0.368  -0.040   9.310
  122OSM    H4G12981   0.326   0.092   9.193
  122OSM    C5F12982   0.280  -0.105   9.162
  122OSM    H5F12983   0.218  -0.033   9.109
  122OSM    H5G12984   0.257  -0.213   9.198
  122OSM    C6F12985   0.345  -0.126   9.034
  122OSM    H6F12986   0.263  -0.191   9.028
  122OSM    H6G12987   0.401  -0.211   9.067
  122OSM    C7F12988   0.385  -0.036   8.895
  122OSM    H7F12989   0.417   0.063   8.929
  122OSM    H7G12990   0.295  -0.009   8.839
  122OSM    C8F12991   0.512  -0.086   8.788
  122OSM    H8F12992   0.603  -0.153   8.802
  122OSM    H8G12993   0.593  -0.011   8.779
  122OSM    C9F12994   0.426  -0.139   8.691
  122OSM    H9F12995   0.411  -0.250   8.691
  122OSM   C10F12996   0.439  -0.091   8.580
  122OSM   H10F12997   0.376  -0.152   8.516
  122OSM   C11F12998   0.546   0.011   8.546
  122OSM   H11F12999   0.536   0.095   8.615
  122OSM   H11G13000   0.508   0.025   8.444
  122OSM   C12F13001   0.708  -0.013   8.539
  122OSM   H12F13002   0.751  -0.085   8.463
  122OSM   H12G13003   0.760  -0.043   8.630
  122OSM   C13F13004   0.795   0.095   8.501
  122OSM   H13F13005   0.898   0.059   8.470
  122OSM   H13G13006   0.794   0.176   8.573
  122OSM   C14F13007   0.733   0.156   8.390
  122OSM   H14F13008   0.818   0.192   8.330
  122OSM   H14G13009   0.625   0.182   8.380
  122OSM   C15F13010   0.733   0.085   8.275
  122OSM   H15F13011   0.663   0.005   8.306
  122OSM   H15G13012   0.819   0.009   8.296
  122OSM   C16F13013   0.712   0.167   8.121
  122OSM   H16F13014   0.804   0.198   8.072
  122OSM   H16G13015   0.643   0.237   8.096
  122OSM   C17F13016   0.620   0.115   7.988
  122OSM   H17F13017   0.555   0.051   8.060
  122OSM   H17G13018   0.594   0.027   8.049
  122OSM   C18F13019   0.653   0.085   7.812
  122OSM   H18F13020   0.758   0.073   7.770
  122OSM   H18G13021   0.584   0.141   7.757
  122OSM   H18H13022   0.651  -0.026   7.765
  123OSM      N13023   3.460   4.708   5.935
  123OSM    C1513024   3.533   4.588   5.925
  123OSM   H15A13025   3.525   4.537   5.830
  123OSM   H15B13026   3.511   4.515   6.004
  123OSM   H15C13027   3.638   4.612   5.933
  123OSM    C1413028   3.521   4.780   6.048
  123OSM   H14A13029   3.513   4.721   6.139
  123OSM   H14B13030   3.467   4.871   6.065
  123OSM   H14C13031   3.623   4.807   6.028
  123OSM    C1313032   3.482   4.774   5.802
  123OSM   H13A13033   3.586   4.771   5.772
  123OSM   H13B13034   3.451   4.877   5.800
  123OSM   H13C13035   3.426   4.719   5.726
  123OSM    C1213036   3.317   4.672   5.966
  123OSM   H12A13037   3.265   4.764   5.989
  123OSM   H12B13038   3.316   4.610   6.056
  123OSM    C1113039   3.234   4.597   5.860
  123OSM   H11A13040   3.213   4.668   5.778
  123OSM   H11B13041   3.137   4.570   5.909
  123OSM      P13042   3.271   4.341   5.865
  123OSM    O1313043   3.130   4.306   5.849
  123OSM    O1413044   3.375   4.246   5.821
  123OSM    O1113045   3.303   4.381   6.015
  123OSM    O1213046   3.299   4.483   5.804
  123OSM    C1S13047   3.326   4.268   6.097
  123OSM    H1S13048   3.411   4.209   6.060
  123OSM    H1T13049   3.248   4.187   6.088
  123OSM     NF13050   3.215   4.341   6.302
  123OSM    HNF13051   3.219   4.423   6.355
  123OSM    C2S13052   3.346   4.309   6.244
  123OSM    H2S13053   3.404   4.232   6.291
  123OSM    C3S13054   3.445   4.417   6.286
  123OSM    H3S13055   3.431   4.503   6.221
  123OSM     O313056   3.578   4.376   6.269
  123OSM    HO313057   3.566   4.301   6.210
  123OSM    C4S13058   3.448   4.446   6.433
  123OSM    H4S13059   3.431   4.369   6.509
  123OSM    C5S13060   3.474   4.565   6.482
  123OSM    H5S13061   3.492   4.646   6.412
  123OSM    C6S13062   3.480   4.590   6.629
  123OSM    H6S13063   3.383   4.623   6.670
  123OSM    H6T13064   3.553   4.674   6.640
  123OSM    C7S13065   3.525   4.476   6.724
  123OSM    H7S13066   3.627   4.442   6.692
  123OSM    H7T13067   3.457   4.391   6.729
  123OSM    C8S13068   3.518   4.529   6.865
  123OSM    H8S13069   3.427   4.575   6.903
  123OSM    H8T13070   3.559   4.627   6.834
  123OSM    C9S13071   3.563   4.441   6.987
  123OSM    H9S13072   3.651   4.387   6.975
  123OSM    H9T13073   3.516   4.342   6.983
  123OSM   C10S13074   3.601   4.501   7.127
  123OSM   H10S13075   3.669   4.582   7.147
  123OSM   H10T13076   3.682   4.457   7.176
  123OSM   C11S13077   3.489   4.536   7.206
  123OSM   H11S13078   3.446   4.434   7.207
  123OSM   H11T13079   3.442   4.610   7.138
  123OSM   C12S13080   3.530   4.598   7.339
  123OSM   H12S13081   3.605   4.678   7.341
  123OSM   H12T13082   3.579   4.530   7.405
  123OSM   C13S13083   3.406   4.637   7.409
  123OSM   H13S13084   3.344   4.544   7.414
  123OSM   H13T13085   3.360   4.712   7.342
  123OSM   C14S13086   3.423   4.696   7.547
  123OSM   H14S13087   3.319   4.716   7.583
  123OSM   H14T13088   3.483   4.789   7.544
  123OSM   C15S13089   3.495   4.610   7.647
  123OSM   H15S13090   3.602   4.605   7.622
  123OSM   H15T13091   3.461   4.507   7.627
  123OSM   C16S13092   3.478   4.667   7.791
  123OSM   H16S13093   3.379   4.636   7.832
  123OSM   H16T13094   3.485   4.777   7.791
  123OSM   C17S13095   3.591   4.628   7.885
  123OSM   H17S13096   3.603   4.524   7.874
  123OSM   H17T13097   3.570   4.648   7.992
  123OSM   C18S13098   3.731   4.656   7.841
  123OSM   H18S13099   3.803   4.601   7.907
  123OSM   H18T13100   3.748   4.765   7.840
  123OSM   H18U13101   3.752   4.616   7.741
  123OSM    C1F13102   3.098   4.275   6.302
  123OSM     OF13103   3.066   4.178   6.239
  123OSM    C2F13104   2.992   4.330   6.383
  123OSM    H2F13105   2.895   4.295   6.338
  123OSM    H2G13106   3.000   4.440   6.380
  123OSM    C3F13107   3.010   4.278   6.525
  123OSM    H3F13108   3.112   4.282   6.565
  123OSM    H3G13109   2.996   4.171   6.533
  123OSM    C4F13110   2.911   4.345   6.618
  123OSM    H4F13111   2.906   4.283   6.710
  123OSM    H4G13112   2.814   4.343   6.565
  123OSM    C5F13113   2.952   4.482   6.662
  123OSM    H5F13114   2.872   4.526   6.725
  123OSM    H5G13115   2.965   4.543   6.571
  123OSM    C6F13116   3.080   4.478   6.747
  123OSM    H6F13117   3.105   4.583   6.770
  123OSM    H6G13118   3.165   4.437   6.688
  123OSM    C7F13119   3.066   4.392   6.875
  123OSM    H7F13120   3.077   4.285   6.848
  123OSM    H7G13121   2.964   4.403   6.917
  123OSM    C8F13122   3.172   4.427   6.982
  123OSM    H8F13123   3.270   4.423   6.930
  123OSM    H8G13124   3.173   4.347   7.060
  123OSM    C9F13125   3.156   4.566   7.038
  123OSM    H9F13126   3.224   4.641   6.996
  123OSM   C10F13127   3.066   4.609   7.128
  123OSM   H10F13128   3.056   4.714   7.158
  123OSM   C11F13129   2.963   4.526   7.191
  123OSM   H11F13130   2.967   4.420   7.154
  123OSM   H11G13131   2.863   4.562   7.158
  123OSM   C12F13132   2.963   4.543   7.346
  123OSM   H12F13133   2.897   4.481   7.404
  123OSM   H12G13134   2.915   4.636   7.377
  123OSM   C13F13135   3.091   4.505   7.417
  123OSM   H13F13136   3.152   4.595   7.395
  123OSM   H13G13137   3.134   4.412   7.372
  123OSM   C14F13138   3.075   4.490   7.570
  123OSM   H14F13139   3.004   4.567   7.607
  123OSM   H14G13140   3.175   4.503   7.614
  123OSM   C15F13141   3.028   4.356   7.622
  123OSM   H15F13142   3.097   4.271   7.605
  123OSM   H15G13143   2.939   4.331   7.570
  123OSM   C16F13144   2.941   4.353   7.749
  123OSM   H16F13145   2.904   4.245   7.762
  123OSM   H16G13146   2.867   4.433   7.741
  123OSM   C17F13147   2.965   4.412   7.875
  123OSM   H17F13148   2.897   4.402   7.965
  123OSM   H17G13149   3.007   4.518   7.858
  123OSM   C18F13150   3.044   4.294   7.891
  123OSM   H18F13151   3.123   4.281   7.811
  123OSM   H18G13152   3.071   4.233   7.977
  123OSM   H18H13153   3.076   4.380   7.947
  124OSM      N13154   5.155   2.958   5.981
  124OSM    C1513155   5.162   2.989   5.834
  124OSM   H15A13156   5.064   3.010   5.793
  124OSM   H15B13157   5.206   2.904   5.781
  124OSM   H15C13158   5.225   3.074   5.818
  124OSM    C1413159   5.295   2.954   6.037
  124OSM   H14A13160   5.297   2.938   6.144
  124OSM   H14B13161   5.346   3.049   6.018
  124OSM   H14C13162   5.355   2.873   5.995
  124OSM    C1313163   5.088   3.069   6.053
  124OSM   H13A13164   5.148   3.159   6.043
  124OSM   H13B13165   5.074   3.046   6.157
  124OSM   H13C13166   4.990   3.092   6.011
  124OSM    C1213167   5.077   2.831   6.002
  124OSM   H12A13168   4.973   2.856   5.983
  124OSM   H12B13169   5.085   2.804   6.107
  124OSM    C1113170   5.110   2.712   5.908
  124OSM   H11A13171   5.073   2.736   5.805
  124OSM   H11B13172   5.055   2.621   5.940
  124OSM      P13173   5.308   2.570   5.812
  124OSM    O1313174   5.213   2.550   5.700
  124OSM    O1413175   5.450   2.595   5.784
  124OSM    O1113176   5.291   2.448   5.914
  124OSM    O1213177   5.250   2.687   5.902
  124OSM    C1S13178   5.350   2.456   6.047
  124OSM    H1S13179   5.446   2.511   6.047
  124OSM    H1T13180   5.372   2.353   6.080
  124OSM     NF13181   5.341   2.542   6.281
  124OSM    HNF13182   5.332   2.473   6.352
  124OSM    C2S13183   5.263   2.524   6.159
  124OSM    H2S13184   5.230   2.624   6.127
  124OSM    C3S13185   5.137   2.438   6.185
  124OSM    H3S13186   5.171   2.340   6.228
  124OSM     O313187   5.060   2.410   6.068
  124OSM    HO313188   5.119   2.438   5.996
  124OSM    C4S13189   5.054   2.506   6.291
  124OSM    H4S13190   5.040   2.614   6.281
  124OSM    C5S13191   4.996   2.447   6.395
  124OSM    H5S13192   4.984   2.336   6.398
  124OSM    C6S13193   4.916   2.518   6.497
  124OSM    H6S13194   4.839   2.456   6.470
  124OSM    H6T13195   4.881   2.623   6.479
  124OSM    C7S13196   4.935   2.490   6.645
  124OSM    H7S13197   4.935   2.381   6.666
  124OSM    H7T13198   4.850   2.531   6.704
  124OSM    C8S13199   5.059   2.568   6.683
  124OSM    H8S13200   5.037   2.673   6.652
  124OSM    H8T13201   5.142   2.532   6.618
  124OSM    C9S13202   5.103   2.561   6.829
  124OSM    H9S13203   5.130   2.455   6.850
  124OSM    H9T13204   5.021   2.591   6.898
  124OSM   C10S13205   5.230   2.641   6.857
  124OSM   H10S13206   5.219   2.750   6.838
  124OSM   H10T13207   5.309   2.603   6.788
  124OSM   C11S13208   5.272   2.621   7.002
  124OSM   H11S13209   5.273   2.512   7.025
  124OSM   H11T13210   5.193   2.664   7.066
  124OSM   C12S13211   5.407   2.684   7.038
  124OSM   H12S13212   5.391   2.793   7.054
  124OSM   H12T13213   5.477   2.674   6.952
  124OSM   C13S13214   5.467   2.620   7.165
  124OSM   H13S13215   5.489   2.513   7.145
  124OSM   H13T13216   5.391   2.624   7.246
  124OSM   C14S13217   5.590   2.692   7.219
  124OSM   H14S13218   5.568   2.797   7.240
  124OSM   H14T13219   5.666   2.695   7.139
  124OSM   C15S13220   5.642   2.629   7.349
  124OSM   H15S13221   5.744   2.670   7.374
  124OSM   H15T13222   5.650   2.521   7.329
  124OSM   C16S13223   5.549   2.646   7.470
  124OSM   H16S13224   5.452   2.596   7.457
  124OSM   H16T13225   5.530   2.754   7.478
  124OSM   C17S13226   5.605   2.585   7.597
  124OSM   H17S13227   5.694   2.641   7.631
  124OSM   H17T13228   5.631   2.483   7.562
  124OSM   C18S13229   5.515   2.559   7.714
  124OSM   H18S13230   5.440   2.482   7.688
  124OSM   H18T13231   5.459   2.650   7.738
  124OSM   H18U13232   5.575   2.526   7.802
  124OSM    C1F13233   5.428   2.643   6.296
  124OSM     OF13234   5.445   2.726   6.208
  124OSM    C2F13235   5.497   2.656   6.427
  124OSM    H2F13236   5.592   2.712   6.414
  124OSM    H2G13237   5.523   2.555   6.467
  124OSM    C3F13238   5.402   2.731   6.525
  124OSM    H3F13239   5.450   2.732   6.625
  124OSM    H3G13240   5.306   2.675   6.533
  124OSM    C4F13241   5.371   2.876   6.484
  124OSM    H4F13242   5.302   2.877   6.397
  124OSM    H4G13243   5.468   2.922   6.453
  124OSM    C5F13244   5.310   2.968   6.593
  124OSM    H5F13245   5.325   3.072   6.557
  124OSM    H5G13246   5.363   2.956   6.689
  124OSM    C6F13247   5.159   2.948   6.617
  124OSM    H6F13248   5.148   2.852   6.670
  124OSM    H6G13249   5.107   2.938   6.519
  124OSM    C7F13250   5.091   3.058   6.702
  124OSM    H7F13251   5.092   3.156   6.649
  124OSM    H7G13252   5.147   3.072   6.797
  124OSM    C8F13253   4.942   3.025   6.727
  124OSM    H8F13254   4.900   3.022   6.624
  124OSM    H8G13255   4.891   3.111   6.776
  124OSM    C9F13256   4.906   2.892   6.790
  124OSM    H9F13257   4.867   2.820   6.717
  124OSM   C10F13258   4.905   2.857   6.921
  124OSM   H10F13259   4.873   2.756   6.952
  124OSM   C11F13260   4.942   2.948   7.035
  124OSM   H11F13261   4.863   2.940   7.112
  124OSM   H11G13262   4.941   3.053   6.999
  124OSM   C12F13263   5.079   2.927   7.102
  124OSM   H12F13264   5.159   2.955   7.028
  124OSM   H12G13265   5.093   2.821   7.132
  124OSM   C13F13266   5.097   3.012   7.228
  124OSM   H13F13267   5.008   2.997   7.293
  124OSM   H13G13268   5.101   3.119   7.198
  124OSM   C14F13269   5.225   2.979   7.307
  124OSM   H14F13270   5.313   2.994   7.242
  124OSM   H14G13271   5.223   2.871   7.333
  124OSM   C15F13272   5.239   3.066   7.434
  124OSM   H15F13273   5.227   3.174   7.407
  124OSM   H15G13274   5.339   3.051   7.480
  124OSM   C16F13275   5.135   3.037   7.543
  124OSM   H16F13276   5.032   3.055   7.504
  124OSM   H16G13277   5.152   3.111   7.624
  124OSM   C17F13278   5.145   2.896   7.600
  124OSM   H17F13279   5.241   2.883   7.656
  124OSM   H17G13280   5.147   2.819   7.520
  124OSM   C18F13281   5.029   2.866   7.693
  124OSM   H18F13282   5.043   2.766   7.740
  124OSM   H18G13283   4.933   2.865   7.637
  124OSM   H18H13284   5.023   2.944   7.772
  125OSM      N13285   5.220   4.412   5.740
  125OSM    C1513286   5.241   4.507   5.853
  125OSM   H15A13287   5.163   4.581   5.863
  125OSM   H15B13288   5.331   4.566   5.839
  125OSM   H15C13289   5.261   4.453   5.946
  125OSM    C1413290   5.098   4.330   5.761
  125OSM   H14A13291   5.103   4.284   5.859
  125OSM   H14B13292   5.093   4.253   5.684
  125OSM   H14C13293   5.011   4.391   5.750
  125OSM    C1313294   5.209   4.483   5.609
  125OSM   H13A13295   5.135   4.561   5.613
  125OSM   H13B13296   5.187   4.418   5.525
  125OSM   H13C13297   5.301   4.536   5.583
  125OSM    C1213298   5.344   4.325   5.727
  125OSM   H12A13299   5.427   4.395   5.732
  125OSM   H12B13300   5.344   4.281   5.628
  125OSM    C1113301   5.370   4.211   5.829
  125OSM   H11A13302   5.474   4.172   5.809
  125OSM   H11B13303   5.303   4.126   5.807
  125OSM      P13304   5.448   4.208   6.079
  125OSM    O1313305   5.513   4.084   6.032
  125OSM    O1413306   5.531   4.325   6.113
  125OSM    O1113307   5.353   4.168   6.201
  125OSM    O1213308   5.348   4.254   5.963
  125OSM    C1S13309   5.218   4.213   6.206
  125OSM    H1S13310   5.158   4.142   6.145
  125OSM    H1T13311   5.206   4.316   6.168
  125OSM     NF13312   5.206   4.296   6.445
  125OSM    HNF13313   5.221   4.257   6.535
  125OSM    C2S13314   5.152   4.205   6.347
  125OSM    H2S13315   5.043   4.230   6.338
  125OSM    C3S13316   5.164   4.058   6.393
  125OSM    H3S13317   5.267   4.019   6.383
  125OSM     O313318   5.082   3.969   6.320
  125OSM    HO313319   5.022   4.023   6.270
  125OSM    C4S13320   5.131   4.047   6.538
  125OSM    H4S13321   5.039   4.102   6.569
  125OSM    C5S13322   5.199   3.966   6.621
  125OSM    H5S13323   5.277   3.899   6.584
  125OSM    C6S13324   5.179   3.945   6.766
  125OSM    H6S13325   5.271   3.961   6.824
  125OSM    H6T13326   5.128   3.849   6.795
  125OSM    C7S13327   5.114   4.057   6.831
  125OSM    H7S13328   5.033   4.051   6.763
  125OSM    H7T13329   5.124   4.164   6.816
  125OSM    C8S13330   5.087   4.015   6.970
  125OSM    H8S13331   5.042   3.912   6.979
  125OSM    H8T13332   5.015   4.092   6.988
  125OSM    C9S13333   5.187   4.045   7.075
  125OSM    H9S13334   5.269   3.978   7.047
  125OSM    H9T13335   5.143   4.021   7.175
  125OSM   C10S13336   5.251   4.181   7.056
  125OSM   H10S13337   5.188   4.270   7.055
  125OSM   H10T13338   5.294   4.186   6.955
  125OSM   C11S13339   5.355   4.207   7.160
  125OSM   H11S13340   5.399   4.306   7.136
  125OSM   H11T13341   5.430   4.128   7.149
  125OSM   C12S13342   5.299   4.208   7.302
  125OSM   H12S13343   5.276   4.108   7.342
  125OSM   H12T13344   5.203   4.257   7.301
  125OSM   C13S13345   5.386   4.287   7.396
  125OSM   H13S13346   5.331   4.292   7.493
  125OSM   H13T13347   5.401   4.392   7.361
  125OSM   C14S13348   5.519   4.218   7.411
  125OSM   H14S13349   5.579   4.233   7.318
  125OSM   H14T13350   5.508   4.108   7.425
  125OSM   C15S13351   5.593   4.276   7.528
  125OSM   H15S13352   5.596   4.387   7.514
  125OSM   H15T13353   5.693   4.231   7.516
  125OSM   C16S13354   5.539   4.241   7.667
  125OSM   H16S13355   5.602   4.164   7.718
  125OSM   H16T13356   5.438   4.199   7.651
  125OSM   C17S13357   5.529   4.360   7.762
  125OSM   H17S13358   5.491   4.452   7.716
  125OSM   H17T13359   5.627   4.393   7.780
  125OSM   C18S13360   5.493   4.328   7.907
  125OSM   H18S13361   5.385   4.317   7.919
  125OSM   H18T13362   5.522   4.409   7.976
  125OSM   H18U13363   5.552   4.241   7.941
  125OSM    C1F13364   5.211   4.427   6.436
  125OSM     OF13365   5.182   4.489   6.335
  125OSM    C2F13366   5.249   4.497   6.562
  125OSM    H2F13367   5.181   4.577   6.578
  125OSM    H2G13368   5.345   4.548   6.553
  125OSM    C3F13369   5.236   4.413   6.690
  125OSM    H3F13370   5.300   4.324   6.682
  125OSM    H3G13371   5.130   4.381   6.706
  125OSM    C4F13372   5.280   4.492   6.812
  125OSM    H4F13373   5.368   4.557   6.793
  125OSM    H4G13374   5.305   4.421   6.893
  125OSM    C5F13375   5.172   4.578   6.867
  125OSM    H5F13376   5.090   4.514   6.908
  125OSM    H5G13377   5.122   4.644   6.793
  125OSM    C6F13378   5.236   4.667   6.973
  125OSM    H6F13379   5.154   4.739   6.974
  125OSM    H6G13380   5.324   4.728   6.951
  125OSM    C7F13381   5.278   4.587   7.096
  125OSM    H7F13382   5.355   4.511   7.081
  125OSM    H7G13383   5.199   4.513   7.095
  125OSM    C8F13384   5.329   4.666   7.221
  125OSM    H8F13385   5.392   4.744   7.178
  125OSM    H8G13386   5.375   4.600   7.296
  125OSM    C9F13387   5.250   4.757   7.302
  125OSM    H9F13388   5.240   4.847   7.251
  125OSM   C10F13389   5.244   4.813   7.417
  125OSM   H10F13390   5.168   4.878   7.459
  125OSM   C11F13391   5.340   4.786   7.503
  125OSM   H11F13392   5.339   4.880   7.558
  125OSM   H11G13393   5.434   4.752   7.451
  125OSM   C12F13394   5.237   4.692   7.547
  125OSM   H12F13395   5.348   4.662   7.578
  125OSM   H12G13396   5.232   4.588   7.499
  125OSM   C13F13397   5.119   4.730   7.686
  125OSM   H13F13398   5.028   4.751   7.708
  125OSM   H13G13399   5.165   4.825   7.669
  125OSM   C14F13400   5.121   4.602   7.886
  125OSM   H14F13401   5.229   4.563   7.921
  125OSM   H14G13402   5.121   4.486   7.872
  125OSM   C15F13403   5.093   4.593   8.007
  125OSM   H15F13404   4.992   4.604   7.963
  125OSM   H15G13405   5.118   4.681   8.061
  125OSM   C16F13406   5.142   4.447   8.066
  125OSM   H16F13407   5.151   4.456   8.172
  125OSM   H16G13408   5.247   4.418   8.072
  125OSM   C17F13409   5.053   4.326   8.021
  125OSM   H17F13410   5.049   4.258   8.108
  125OSM   H17G13411   5.110   4.279   7.939
  125OSM   C18F13412   4.905   4.355   7.979
  125OSM   H18F13413   4.827   4.354   8.057
  125OSM   H18G13414   4.866   4.283   7.910
  125OSM   H18H13415   4.892   4.452   7.930
  126OSM      N13416   2.193   3.022   5.916
  126OSM    C1513417   2.232   2.970   5.781
  126OSM   H15A13418   2.338   2.943   5.778
  126OSM   H15B13419   2.213   3.042   5.704
  126OSM   H15C13420   2.173   2.881   5.758
  126OSM    C1413421   2.183   2.912   6.018
  126OSM   H14A13422   2.107   2.839   5.989
  126OSM   H14B13423   2.149   2.954   6.112
  126OSM   H14C13424   2.278   2.863   6.036
  126OSM    C1313425   2.298   3.120   5.957
  126OSM   H13A13426   2.398   3.079   5.943
  126OSM   H13B13427   2.289   3.151   6.061
  126OSM   H13C13428   2.294   3.209   5.894
  126OSM    C1213429   2.057   3.093   5.910
  126OSM   H12A13430   2.073   3.191   5.868
  126OSM   H12B13431   2.023   3.111   6.011
  126OSM    C1113432   1.940   3.029   5.830
  126OSM   H11A13433   1.958   3.035   5.721
  126OSM   H11B13434   1.847   3.088   5.848
  126OSM      P13435   1.779   2.831   5.889
  126OSM    O1313436   1.696   2.836   5.767
  126OSM    O1413437   1.806   2.702   5.954
  126OSM    O1113438   1.714   2.930   5.995
  126OSM    O1213439   1.923   2.893   5.865
  126OSM    C1S13440   1.788   2.983   6.106
  126OSM    H1S13441   1.785   3.093   6.100
  126OSM    H1T13442   1.894   2.948   6.107
  126OSM     NF13443   1.818   2.987   6.354
  126OSM    HNF13444   1.840   2.918   6.421
  126OSM    C2S13445   1.735   2.943   6.246
  126OSM    H2S13446   1.633   2.987   6.259
  126OSM    C3S13447   1.731   2.795   6.260
  126OSM    H3S13448   1.821   2.740   6.229
  126OSM     O313449   1.626   2.745   6.177
  126OSM    HO313450   1.587   2.820   6.131
  126OSM    C4S13451   1.709   2.763   6.406
  126OSM    H4S13452   1.629   2.829   6.448
  126OSM    C5S13453   1.750   2.658   6.479
  126OSM    H5S13454   1.822   2.590   6.433
  126OSM    C6S13455   1.712   2.627   6.622
  126OSM    H6S13456   1.753   2.529   6.654
  126OSM    H6T13457   1.604   2.601   6.626
  126OSM    C7S13458   1.718   2.733   6.730
  126OSM    H7S13459   1.647   2.816   6.706
  126OSM    H7T13460   1.823   2.767   6.722
  126OSM    C8S13461   1.682   2.679   6.869
  126OSM    H8S13462   1.722   2.575   6.879
  126OSM    H8T13463   1.571   2.668   6.879
  126OSM    C9S13464   1.740   2.770   6.978
  126OSM    H9S13465   1.691   2.869   6.977
  126OSM    H9T13466   1.847   2.790   6.951
  126OSM   C10S13467   1.732   2.711   7.119
  126OSM   H10S13468   1.777   2.610   7.114
  126OSM   H10T13469   1.625   2.698   7.148
  126OSM   C11S13470   1.820   2.780   7.227
  126OSM   H11S13471   1.912   2.818   7.179
  126OSM   H11T13472   1.842   2.700   7.301
  126OSM   C12S13473   1.762   2.894   7.306
  126OSM   H12S13474   1.677   2.854   7.363
  126OSM   H12T13475   1.732   2.969   7.230
  126OSM   C13S13476   1.836   2.967   7.419
  126OSM   H13S13477   1.863   3.068   7.383
  126OSM   H13T13478   1.925   2.906   7.440
  126OSM   C14S13479   1.758   2.982   7.550
  126OSM   H14S13480   1.739   2.878   7.584
  126OSM   H14T13481   1.661   3.032   7.538
  126OSM   C15S13482   1.832   3.057   7.661
  126OSM   H15S13483   1.851   3.163   7.638
  126OSM   H15T13484   1.927   3.002   7.681
  126OSM   C16S13485   1.749   3.059   7.787
  126OSM   H16S13486   1.719   2.954   7.790
  126OSM   H16T13487   1.663   3.121   7.778
  126OSM   C17S13488   1.819   3.103   7.912
  126OSM   H17S13489   1.887   3.188   7.896
  126OSM   H17T13490   1.886   3.015   7.904
  126OSM   C18S13491   1.741   3.118   8.051
  126OSM   H18S13492   1.799   3.141   8.141
  126OSM   H18T13493   1.680   3.040   8.083
  126OSM   H18U13494   1.673   3.195   8.067
  126OSM    C1F13495   1.850   3.108   6.376
  126OSM     OF13496   1.796   3.195   6.312
  126OSM    C2F13497   1.959   3.129   6.475
  126OSM    H2F13498   1.915   3.166   6.571
  126OSM    H2G13499   2.022   3.210   6.432
  126OSM    C3F13500   2.032   2.998   6.509
  126OSM    H3F13501   2.047   2.929   6.423
  126OSM    H3G13502   1.968   2.946   6.585
  126OSM    C4F13503   2.169   3.020   6.570
  126OSM    H4F13504   2.240   3.066   6.498
  126OSM    H4G13505   2.210   2.921   6.603
  126OSM    C5F13506   2.161   3.109   6.691
  126OSM    H5F13507   2.064   3.104   6.746
  126OSM    H5G13508   2.182   3.215   6.663
  126OSM    C6F13509   2.263   3.062   6.788
  126OSM    H6F13510   2.361   3.036   6.741
  126OSM    H6G13511   2.231   2.972   6.847
  126OSM    C7F13512   2.270   3.168   6.890
  126OSM    H7F13513   2.170   3.191   6.933
  126OSM    H7G13514   2.319   3.264   6.855
  126OSM    C8F13515   2.339   3.096   6.985
  126OSM    H8F13516   2.451   3.113   6.953
  126OSM    H8G13517   2.339   2.991   7.024
  126OSM    C9F13518   2.352   3.148   7.117
  126OSM    H9F13519   2.381   3.241   7.054
  126OSM   C10F13520   2.263   3.189   7.224
  126OSM   H10F13521   2.326   3.236   7.313
  126OSM   C11F13522   2.173   3.113   7.296
  126OSM   H11F13523   2.117   3.092   7.203
  126OSM   H11G13524   2.130   3.205   7.350
  126OSM   C12F13525   2.241   3.015   7.374
  126OSM   H12F13526   2.324   2.969   7.317
  126OSM   H12G13527   2.161   2.939   7.391
  126OSM   C13F13528   2.304   3.062   7.506
  126OSM   H13F13529   2.231   3.116   7.569
  126OSM   H13G13530   2.394   3.123   7.497
  126OSM   C14F13531   2.344   2.942   7.582
  126OSM   H14F13532   2.433   2.943   7.647
  126OSM   H14G13533   2.387   2.890   7.495
  126OSM   C15F13534   2.217   2.903   7.657
  126OSM   H15F13535   2.122   2.952   7.631
  126OSM   H15G13536   2.239   2.900   7.766
  126OSM   C16F13537   2.156   2.778   7.615
  126OSM   H16F13538   2.262   2.746   7.643
  126OSM   H16G13539   2.145   2.753   7.508
  126OSM   C17F13540   2.041   2.716   7.704
  126OSM   H17F13541   2.026   2.616   7.663
  126OSM   H17G13542   1.940   2.713   7.667
  126OSM   C18F13543   2.070   2.697   7.857
  126OSM   H18F13544   2.175   2.681   7.893
  126OSM   H18G13545   2.016   2.610   7.903
  126OSM   H18H13546   2.054   2.795   7.898
  127OSM      N13547   3.981   1.725   5.694
  127OSM    C1513548   4.024   1.676   5.563
  127OSM   H15A13549   4.051   1.571   5.578
  127OSM   H15B13550   4.113   1.727   5.528
  127OSM   H15C13551   3.942   1.680   5.492
  127OSM    C1413552   3.933   1.867   5.685
  127OSM   H14A13553   3.836   1.873   5.638
  127OSM   H14B13554   4.008   1.926   5.634
  127OSM   H14C13555   3.923   1.905   5.788
  127OSM    C1313556   3.866   1.638   5.740
  127OSM   H13A13557   3.894   1.533   5.733
  127OSM   H13B13558   3.779   1.655   5.678
  127OSM   H13C13559   3.835   1.658   5.843
  127OSM    C1213560   4.105   1.715   5.785
  127OSM   H12A13561   4.171   1.795   5.756
  127OSM   H12B13562   4.159   1.623   5.766
  127OSM    C1113563   4.097   1.731   5.935
  127OSM   H11A13564   4.198   1.753   5.978
  127OSM   H11B13565   4.054   1.642   5.988
  127OSM      P13566   3.965   1.864   6.093
  127OSM    O1313567   3.937   2.009   6.090
  127OSM    O1413568   3.859   1.763   6.105
  127OSM    O1113569   4.073   1.824   6.201
  127OSM    O1213570   4.024   1.846   5.954
  127OSM    C1S13571   4.025   1.764   6.324
  127OSM    H1S13572   3.980   1.662   6.307
  127OSM    H1T13573   3.946   1.825   6.374
  127OSM     NF13574   4.101   1.691   6.546
  127OSM    HNF13575   4.091   1.746   6.627
  127OSM    C2S13576   4.143   1.750   6.422
  127OSM    H2S13577   4.220   1.685   6.372
  127OSM    C3S13578   4.207   1.885   6.448
  127OSM    H3S13579   4.127   1.958   6.466
  127OSM     O313580   4.289   1.921   6.341
  127OSM    HO313581   4.280   1.851   6.276
  127OSM    C4S13582   4.300   1.875   6.566
  127OSM    H4S13583   4.401   1.840   6.541
  127OSM    C5S13584   4.274   1.910   6.693
  127OSM    H5S13585   4.176   1.947   6.721
  127OSM    C6S13586   4.372   1.895   6.805
  127OSM    H6S13587   4.393   1.988   6.858
  127OSM    H6T13588   4.470   1.857   6.768
  127OSM    C7S13589   4.306   1.802   6.906
  127OSM    H7S13590   4.274   1.708   6.856
  127OSM    H7T13591   4.222   1.850   6.959
  127OSM    C8S13592   4.401   1.753   7.010
  127OSM    H8S13593   4.447   1.829   7.076
  127OSM    H8T13594   4.479   1.728   6.933
  127OSM    C9S13595   4.351   1.625   7.082
  127OSM    H9S13596   4.424   1.552   7.116
  127OSM    H9T13597   4.300   1.563   7.007
  127OSM   C10S13598   4.278   1.634   7.215
  127OSM   H10S13599   4.190   1.689   7.189
  127OSM   H10T13600   4.323   1.699   7.292
  127OSM   C11S13601   4.251   1.491   7.270
  127OSM   H11S13602   4.339   1.423   7.272
  127OSM   H11T13603   4.179   1.443   7.202
  127OSM   C12S13604   4.198   1.486   7.412
  127OSM   H12S13605   4.269   1.531   7.483
  127OSM   H12T13606   4.184   1.381   7.446
  127OSM   C13S13607   4.071   1.564   7.427
  127OSM   H13S13608   4.073   1.663   7.379
  127OSM   H13T13609   4.068   1.589   7.532
  127OSM   C14S13610   3.948   1.486   7.381
  127OSM   H14S13611   3.946   1.378   7.410
  127OSM   H14T13612   3.971   1.464   7.276
  127OSM   C15S13613   3.812   1.565   7.406
  127OSM   H15S13614   3.746   1.518   7.337
  127OSM   H15T13615   3.817   1.666   7.382
  127OSM   C16S13616   3.745   1.590   7.548
  127OSM   H16S13617   3.786   1.669   7.602
  127OSM   H16T13618   3.805   1.498   7.544
  127OSM   C17S13619   3.607   1.580   7.639
  127OSM   H17S13620   3.526   1.512   7.622
  127OSM   H17T13621   3.560   1.639   7.565
  127OSM   C18S13622   3.572   1.534   7.797
  127OSM   H18S13623   3.463   1.512   7.806
  127OSM   H18T13624   3.636   1.586   7.868
  127OSM   H18U13625   3.597   1.431   7.842
  127OSM    C1F13626   4.087   1.564   6.558
  127OSM     OF13627   4.138   1.494   6.480
  127OSM    C2F13628   4.013   1.514   6.669
  127OSM    H2F13629   3.960   1.423   6.645
  127OSM    H2G13630   3.949   1.600   6.662
  127OSM    C3F13631   4.095   1.470   6.789
  127OSM    H3F13632   4.143   1.559   6.829
  127OSM    H3G13633   4.160   1.392   6.743
  127OSM    C4F13634   4.040   1.385   6.902
  127OSM    H4F13635   4.113   1.361   6.979
  127OSM    H4G13636   3.986   1.290   6.865
  127OSM    C5F13637   3.983   1.448   7.030
  127OSM    H5F13638   3.904   1.364   7.034
  127OSM    H5G13639   3.897   1.417   6.964
  127OSM    C6F13640   3.982   1.631   7.090
  127OSM    H6F13641   4.027   1.705   7.016
  127OSM    H6G13642   4.035   1.609   7.174
  127OSM    C7F13643   3.840   1.733   7.143
  127OSM    H7F13644   3.766   1.707   7.223
  127OSM    H7G13645   3.749   1.743   7.070
  127OSM    C8F13646   3.800   1.859   7.118
  127OSM    H8F13647   3.883   1.832   7.187
  127OSM    H8G13648   3.703   1.896   7.166
  127OSM    C9F13649   3.864   1.941   7.034
  127OSM    H9F13650   3.793   1.968   6.951
  127OSM   C10F13651   3.983   1.993   7.073
  127OSM   H10F13652   3.988   2.087   7.051
  127OSM   C11F13653   4.092   2.009   7.173
  127OSM   H11F13654   4.153   2.094   7.131
  127OSM   H11G13655   4.140   1.914   7.189
  127OSM   C12F13656   4.094   2.087   7.304
  127OSM   H12F13657   4.019   2.046   7.356
  127OSM   H12G13658   4.057   2.192   7.316
  127OSM   C13F13659   4.134   2.017   7.420
  127OSM   H13F13660   4.202   2.095   7.384
  127OSM   H13G13661   4.184   1.923   7.405
  127OSM   C14F13662   4.044   2.031   7.545
  127OSM   H14F13663   3.974   2.118   7.563
  127OSM   H14G13664   4.130   2.035   7.597
  127OSM   C15F13665   4.007   1.909   7.612
  127OSM   H15F13666   4.056   1.816   7.582
  127OSM   H15G13667   3.926   1.894   7.553
  127OSM   C16F13668   3.987   1.949   7.755
  127OSM   H16F13669   3.897   1.902   7.805
  127OSM   H16G13670   3.977   2.057   7.783
  127OSM   C17F13671   4.105   1.923   7.820
  127OSM   H17F13672   4.210   1.928   7.806
  127OSM   H17G13673   4.132   1.831   7.769
  127OSM   C18F13674   4.098   1.973   7.958
  127OSM   H18F13675   4.134   1.888   7.994
  127OSM   H18G13676   4.003   1.930   7.969
  127OSM   H18H13677   4.035   2.035   8.022
  128OSM      N13678   4.615   5.656   5.744
  128OSM    C1513679   4.555   5.790   5.717
  128OSM   H15A13680   4.461   5.774   5.664
  128OSM   H15B13681   4.620   5.852   5.656
  128OSM   H15C13682   4.532   5.843   5.808
  128OSM    C1413683   4.647   5.591   5.612
  128OSM   H14A13684   4.556   5.579   5.554
  128OSM   H14B13685   4.682   5.489   5.628
  128OSM   H14C13686   4.718   5.648   5.555
  128OSM    C1313687   4.732   5.662   5.838
  128OSM   H13A13688   4.810   5.727   5.805
  128OSM   H13B13689   4.772   5.561   5.857
  128OSM   H13C13690   4.698   5.692   5.937
  128OSM    C1213691   4.506   5.571   5.808
  128OSM   H12A13692   4.423   5.568   5.739
  128OSM   H12B13693   4.469   5.620   5.897
  128OSM    C1113694   4.543   5.425   5.841
  128OSM   H11A13695   4.591   5.382   5.752
  128OSM   H11B13696   4.450   5.365   5.857
  128OSM      P13697   4.608   5.319   6.067
  128OSM    O1313698   4.573   5.186   6.013
  128OSM    O1413699   4.718   5.324   6.165
  128OSM    O1113700   4.478   5.390   6.127
  128OSM    O1213701   4.639   5.415   5.946
  128OSM    C1S13702   4.423   5.336   6.248
  128OSM    H1S13703   4.421   5.224   6.245
  128OSM    H1T13704   4.316   5.366   6.252
  128OSM     NF13705   4.456   5.342   6.504
  128OSM    HNF13706   4.371   5.383   6.536
  128OSM    C2S13707   4.501   5.387   6.377
  128OSM    H2S13708   4.603   5.345   6.367
  128OSM    C3S13709   4.504   5.541   6.384
  128OSM    H3S13710   4.399   5.580   6.378
  128OSM     O313711   4.575   5.599   6.278
  128OSM    HO313712   4.577   5.525   6.216
  128OSM    C4S13713   4.567   5.589   6.514
  128OSM    H4S13714   4.662   5.539   6.539
  128OSM    C5S13715   4.519   5.686   6.594
  128OSM    H5S13716   4.433   5.745   6.560
  128OSM    C6S13717   4.582   5.735   6.722
  128OSM    H6S13718   4.600   5.844   6.713
  128OSM    H6T13719   4.680   5.686   6.743
  128OSM    C7S13720   4.501   5.712   6.849
  128OSM    H7S13721   4.404   5.767   6.848
  128OSM    H7T13722   4.560   5.751   6.936
  128OSM    C8S13723   4.475   5.568   6.881
  128OSM    H8S13724   4.567   5.509   6.904
  128OSM    H8T13725   4.424   5.515   6.796
  128OSM    C9S13726   4.379   5.571   6.998
  128OSM    H9S13727   4.388   5.472   7.038
  128OSM    H9T13728   4.276   5.596   6.964
  128OSM   C10S13729   4.414   5.607   7.141
  128OSM   H10S13730   4.333   5.564   7.206
  128OSM   H10T13731   4.410   5.716   7.145
  128OSM   C11S13732   4.550   5.548   7.182
  128OSM   H11S13733   4.625   5.617   7.137
  128OSM   H11T13734   4.572   5.445   7.144
  128OSM   C12S13735   4.578   5.539   7.331
  128OSM   H12S13736   4.687   5.517   7.334
  128OSM   H12T13737   4.524   5.456   7.383
  128OSM   C13S13738   4.553   5.671   7.403
  128OSM   H13S13739   4.444   5.680   7.422
  128OSM   H13T13740   4.580   5.754   7.334
  128OSM   C14S13741   4.633   5.680   7.533
  128OSM   H14S13742   4.622   5.782   7.574
  128OSM   H14T13743   4.741   5.657   7.520
  128OSM   C15S13744   4.580   5.584   7.637
  128OSM   H15S13745   4.639   5.593   7.727
  128OSM   H15T13746   4.609   5.483   7.601
  128OSM   C16S13747   4.434   5.618   7.674
  128OSM   H16S13748   4.368   5.585   7.589
  128OSM   H16T13749   4.415   5.722   7.703
  128OSM   C17S13750   4.377   5.555   7.797
  128OSM   H17S13751   4.448   5.507   7.871
  128OSM   H17T13752   4.314   5.485   7.744
  128OSM   C18S13753   4.242   5.576   7.841
  128OSM   H18S13754   4.240   5.478   7.901
  128OSM   H18T13755   4.145   5.542   7.800
  128OSM   H18U13756   4.252   5.667   7.902
  128OSM    C1F13757   4.498   5.228   6.558
  128OSM     OF13758   4.581   5.152   6.513
  128OSM    C2F13759   4.421   5.194   6.673
  128OSM    H2F13760   4.321   5.206   6.646
  128OSM    H2G13761   4.414   5.275   6.747
  128OSM    C3F13762   4.444   5.054   6.728
  128OSM    H3F13763   4.463   4.985   6.646
  128OSM    H3G13764   4.386   4.979   6.790
  128OSM    C4F13765   4.522   5.112   6.837
  128OSM    H4F13766   4.613   5.149   6.793
  128OSM    H4G13767   4.534   5.024   6.883
  128OSM    C5F13768   4.492   5.120   6.986
  128OSM    H5F13769   4.429   5.045   7.040
  128OSM    H5G13770   4.423   5.194   6.974
  128OSM    C6F13771   4.613   5.139   7.078
  128OSM    H6F13772   4.659   5.227   7.033
  128OSM    H6G13773   4.680   5.052   7.080
  128OSM    C7F13774   4.598   5.155   7.226
  128OSM    H7F13775   4.552   5.254   7.222
  128OSM    H7G13776   4.689   5.171   7.284
  128OSM    C8F13777   4.516   5.058   7.305
  128OSM    H8F13778   4.440   4.992   7.256
  128OSM    H8G13779   4.460   5.101   7.386
  128OSM    C9F13780   4.552   4.946   7.354
  128OSM    H9F13781   4.642   4.923   7.298
  128OSM   C10F13782   4.574   4.910   7.465
  128OSM   H10F13783   4.641   4.821   7.448
  128OSM   C11F13784   4.570   5.015   7.571
  128OSM   H11F13785   4.522   4.934   7.625
  128OSM   H11G13786   4.494   5.084   7.557
  128OSM   C12F13787   4.688   5.118   7.638
  128OSM   H12F13788   4.754   5.183   7.575
  128OSM   H12G13789   4.790   5.074   7.665
  128OSM   C13F13790   4.682   5.168   7.772
  128OSM   H13F13791   4.640   5.257   7.764
  128OSM   H13G13792   4.787   5.208   7.767
  128OSM   C14F13793   4.623   5.102   7.899
  128OSM   H14F13794   4.703   5.040   7.913
  128OSM   H14G13795   4.541   5.034   7.888
  128OSM   C15F13796   4.611   5.144   8.041
  128OSM   H15F13797   4.578   5.246   8.021
  128OSM   H15G13798   4.698   5.142   8.114
  128OSM   C16F13799   4.558   5.047   8.129
  128OSM   H16F13800   4.608   4.949   8.129
  128OSM   H16G13801   4.465   5.040   8.070
  128OSM   C17F13802   4.567   5.103   8.271
  128OSM   H17F13803   4.663   5.072   8.311
  128OSM   H17G13804   4.500   5.056   8.338
  128OSM   C18F13805   4.537   5.251   8.274
  128OSM   H18F13806   4.580   5.319   8.219
  128OSM   H18G13807   4.469   5.303   8.340
  128OSM   H18H13808   4.497   5.275   8.177
  129OSM      N13809   2.505   1.850   5.810
  129OSM    C1513810   2.491   1.903   5.947
  129OSM   H15A13811   2.466   2.008   5.946
  129OSM   H15B13812   2.585   1.887   6.000
  129OSM   H15C13813   2.412   1.848   5.999
  129OSM    C1413814   2.398   1.908   5.725
  129OSM   H14A13815   2.303   1.907   5.777
  129OSM   H14B13816   2.389   1.849   5.634
  129OSM   H14C13817   2.427   2.009   5.699
  129OSM    C1313818   2.640   1.890   5.755
  129OSM   H13A13819   2.648   1.871   5.648
  129OSM   H13B13820   2.719   1.830   5.801
  129OSM   H13C13821   2.663   1.993   5.773
  129OSM    C1213822   2.492   1.699   5.817
  129OSM   H12A13823   2.501   1.658   5.718
  129OSM   H12B13824   2.392   1.674   5.852
  129OSM    C1113825   2.588   1.620   5.911
  129OSM   H11A13826   2.560   1.512   5.905
  129OSM   H11B13827   2.566   1.649   6.016
  129OSM      P13828   2.838   1.664   5.985
  129OSM    O1313829   2.893   1.535   6.034
  129OSM    O1413830   2.928   1.767   5.929
  129OSM    O1113831   2.749   1.736   6.098
  129OSM    O1213832   2.726   1.636   5.877
  129OSM    C1S13833   2.810   1.779   6.220
  129OSM    H1S13834   2.882   1.861   6.199
  129OSM    H1T13835   2.865   1.696   6.269
  129OSM     NF13836   2.772   1.888   6.438
  129OSM    HNF13837   2.761   1.835   6.521
  129OSM    C2S13838   2.705   1.830   6.322
  129OSM    H2S13839   2.643   1.909   6.273
  129OSM    C3S13840   2.608   1.716   6.368
  129OSM    H3S13841   2.672   1.636   6.414
  129OSM     O313842   2.530   1.656   6.265
  129OSM    HO313843   2.570   1.685   6.183
  129OSM    C4S13844   2.512   1.769   6.472
  129OSM    H4S13845   2.426   1.828   6.438
  129OSM    C5S13846   2.527   1.748   6.603
  129OSM    H5S13847   2.603   1.679   6.640
  129OSM    C6S13848   2.433   1.797   6.707
  129OSM    H6S13849   2.441   1.713   6.779
  129OSM    H6T13850   2.326   1.809   6.673
  129OSM    C7S13851   2.472   1.905   6.798
  129OSM    H7S13852   2.465   1.998   6.737
  129OSM    H7T13853   2.575   1.884   6.833
  129OSM    C8S13854   2.383   1.908   6.920
  129OSM    H8S13855   2.420   1.853   7.008
  129OSM    H8T13856   2.276   1.880   6.903
  129OSM    C9S13857   2.384   2.047   6.959
  129OSM    H9S13858   2.287   2.073   6.915
  129OSM    H9T13859   2.470   2.107   6.919
  129OSM   C10S13860   2.368   2.060   7.106
  129OSM   H10S13861   2.270   2.027   7.145
  129OSM   H10T13862   2.359   2.162   7.094
  129OSM   C11S13863   2.493   2.057   7.191
  129OSM   H11S13864   2.567   2.134   7.156
  129OSM   H11T13865   2.537   1.961   7.172
  129OSM   C12S13866   2.468   2.076   7.339
  129OSM   H12S13867   2.385   2.017   7.380
  129OSM   H12T13868   2.426   2.168   7.349
  129OSM   C13S13869   2.592   2.101   7.423
  129OSM   H13S13870   2.557   2.121   7.527
  129OSM   H13T13871   2.648   2.191   7.387
  129OSM   C14S13872   2.671   1.974   7.418
  129OSM   H14S13873   2.690   1.945   7.312
  129OSM   H14T13874   2.603   1.901   7.467
  129OSM   C15S13875   2.804   1.972   7.491
  129OSM   H15S13876   2.877   2.028   7.429
  129OSM   H15T13877   2.837   1.866   7.499
  129OSM   C16S13878   2.793   2.033   7.630
  129OSM   H16S13879   2.701   1.995   7.680
  129OSM   H16T13880   2.788   2.143   7.621
  129OSM   C17S13881   2.910   1.996   7.718
  129OSM   H17S13882   3.008   2.012   7.668
  129OSM   H17T13883   2.903   1.889   7.745
  129OSM   C18S13884   2.906   2.079   7.844
  129OSM   H18S13885   2.822   2.059   7.913
  129OSM   H18T13886   2.916   2.189   7.827
  129OSM   H18U13887   2.993   2.040   7.894
  129OSM    C1F13888   2.852   1.995   6.442
  129OSM     OF13889   2.884   2.057   6.341
  129OSM    C2F13890   2.899   2.035   6.580
  129OSM    H2F13891   2.986   2.104   6.575
  129OSM    H2G13892   2.931   1.953   6.642
  129OSM    C3F13893   2.782   2.076   6.667
  129OSM    H3F13894   2.709   1.991   6.676
  129OSM    H3G13895   2.729   2.151   6.611
  129OSM    C4F13896   2.820   2.133   6.804
  129OSM    H4F13897   2.725   2.151   6.858
  129OSM    H4G13898   2.870   2.232   6.789
  129OSM    C5F13899   2.912   2.050   6.892
  129OSM    H5F13900   2.946   2.114   6.978
  129OSM    H5G13901   3.003   2.023   6.834
  129OSM    C6F13902   2.849   1.924   6.952
  129OSM    H6F13903   2.796   1.864   6.876
  129OSM    H6G13904   2.776   1.953   7.031
  129OSM    C7F13905   2.958   1.837   7.013
  129OSM    H7F13906   3.028   1.897   7.075
  129OSM    H7G13907   3.012   1.787   6.933
  129OSM    C8F13908   2.916   1.716   7.093
  129OSM    H8F13909   2.857   1.754   7.178
  129OSM    H8G13910   3.009   1.668   7.128
  129OSM    C9F13911   2.844   1.614   7.012
  129OSM    H9F13912   2.903   1.548   6.946
  129OSM   C10F13913   2.713   1.600   7.022
  129OSM   H10F13914   2.667   1.506   6.993
  129OSM   C11F13915   2.620   1.680   7.108
  129OSM   H11F13916   2.532   1.693   7.042
  129OSM   H11G13917   2.652   1.779   7.141
  129OSM   C12F13918   2.592   1.608   7.242
  129OSM   H12F13919   2.677   1.574   7.301
  129OSM   H12G13920   2.592   1.512   7.199
  129OSM   C13F13921   2.464   1.652   7.323
  129OSM   H13F13922   2.378   1.691   7.264
  129OSM   H13G13923   2.502   1.739   7.376
  129OSM   C14F13924   2.388   1.553   7.416
  129OSM   H14F13925   2.322   1.483   7.359
  129OSM   H14G13926   2.309   1.604   7.474
  129OSM   C15F13927   2.478   1.470   7.507
  129OSM   H15F13928   2.542   1.401   7.447
  129OSM   H15G13929   2.410   1.414   7.575
  129OSM   C16F13930   2.587   1.538   7.584
  129OSM   H16F13931   2.664   1.569   7.511
  129OSM   H16G13932   2.632   1.460   7.650
  129OSM   C17F13933   2.533   1.658   7.659
  129OSM   H17F13934   2.487   1.728   7.588
  129OSM   H17G13935   2.623   1.709   7.703
  129OSM   C18F13936   2.431   1.627   7.768
  129OSM   H18F13937   2.496   1.625   7.854
  129OSM   H18G13938   2.371   1.534   7.755
  129OSM   H18H13939   2.370   1.708   7.807
  130OSM      N13940   5.309   5.257   5.709
  130OSM    C1513941   5.186   5.190   5.766
  130OSM   H15A13942   5.144   5.124   5.692
  130OSM   H15B13943   5.108   5.258   5.797
  130OSM   H15C13944   5.212   5.129   5.853
  130OSM    C1413945   5.407   5.147   5.681
  130OSM   H14A13946   5.366   5.088   5.600
  130OSM   H14B13947   5.418   5.082   5.770
  130OSM   H14C13948   5.505   5.183   5.657
  130OSM    C1313949   5.274   5.326   5.583
  130OSM   H13A13950   5.210   5.412   5.602
  130OSM   H13B13951   5.223   5.258   5.516
  130OSM   H13C13952   5.364   5.363   5.536
  130OSM    C1213953   5.365   5.356   5.808
  130OSM   H12A13954   5.290   5.428   5.837
  130OSM   H12B13955   5.442   5.417   5.762
  130OSM    C1113956   5.421   5.296   5.938
  130OSM   H11A13957   5.442   5.381   6.009
  130OSM   H11B13958   5.514   5.248   5.907
  130OSM      P13959   5.424   5.076   6.074
  130OSM    O1313960   5.340   5.038   6.189
  130OSM    O1413961   5.471   4.973   5.979
  130OSM    O1113962   5.549   5.165   6.119
  130OSM    O1213963   5.345   5.192   5.996
  130OSM    C1S13964   5.525   5.259   6.221
  130OSM    H1S13965   5.424   5.308   6.211
  130OSM    H1T13966   5.600   5.342   6.220
  130OSM     NF13967   5.465   5.303   6.421
  130OSM    HNF13968   5.531   5.362   6.466
  130OSM    C2S13969   5.533   5.184   6.351
  130OSM    H2S13970   5.472   5.097   6.370
  130OSM    C3S13971   5.703   5.136   6.362
  130OSM    H3S13972   5.757   5.215   6.312
  130OSM     O313973   5.711   5.028   6.274
  130OSM    HO313974   5.620   5.001   6.282
  130OSM    C4S13975   5.758   5.101   6.520
  130OSM    H4S13976   5.702   5.018   6.557
  130OSM    C5S13977   5.827   5.173   6.626
  130OSM    H5S13978   5.853   5.279   6.643
  130OSM    C6S13979   5.882   5.197   6.755
  130OSM    H6S13980   5.895   5.297   6.803
  130OSM    H6T13981   5.988   5.206   6.777
  130OSM    C7S13982   5.740   5.116   6.765
  130OSM    H7S13983   5.821   5.126   6.826
  130OSM    H7T13984   5.722   5.007   6.764
  130OSM    C8S13985   5.604   5.123   6.843
  130OSM    H8S13986   5.548   5.122   6.746
  130OSM    H8T13987   5.590   5.209   6.906
  130OSM    C9S13988   5.536   5.000   6.918
  130OSM    H9S13989   5.562   4.909   6.861
  130OSM    H9T13990   5.428   5.024   6.904
  130OSM   C10S13991   5.560   4.964   7.069
  130OSM   H10S13992   5.659   4.923   7.099
  130OSM   H10T13993   5.505   4.874   7.098
  130OSM   C11S13994   5.532   5.077   7.165
  130OSM   H11S13995   5.424   5.074   7.183
  130OSM   H11T13996   5.547   5.170   7.110
  130OSM   C12S13997   5.610   5.071   7.298
  130OSM   H12S13998   5.586   5.163   7.354
  130OSM   H12T13999   5.720   5.073   7.283
  130OSM   C13S14000   5.560   4.960   7.389
  130OSM   H13S14001   5.554   4.866   7.331
  130OSM   H13T14002   5.456   4.990   7.414
  130OSM   C14S14003   5.643   4.923   7.514
  130OSM   H14S14004   5.751   4.920   7.490
  130OSM   H14T14005   5.611   4.821   7.545
  130OSM   C15S14006   5.622   5.001   7.641
  130OSM   H15S14007   5.677   4.956   7.726
  130OSM   H15T14008   5.516   5.018   7.671
  130OSM   C16S14009   5.677   5.133   7.632
  130OSM   H16S14010   5.587   5.179   7.587
  130OSM   H16T14011   5.759   5.150   7.557
  130OSM   C17S14012   5.714   5.176   7.775
  130OSM   H17S14013   5.808   5.225   7.773
  130OSM   H17T14014   5.752   5.103   7.845
  130OSM   C18S14015   5.609   5.246   7.851
  130OSM   H18S14016   5.506   5.218   7.836
  130OSM   H18T14017   5.611   5.335   7.801
  130OSM   H18U14018   5.630   5.314   7.930
  130OSM    C1F14019   5.349   5.301   6.489
  130OSM     OF14020   5.279   5.203   6.489
  130OSM    C2F14021   5.311   5.422   6.573
  130OSM    H2F14022   5.239   5.474   6.507
  130OSM    H2G14023   5.397   5.488   6.594
  130OSM    C3F14024   5.239   5.393   6.709
  130OSM    H3F14025   5.159   5.320   6.693
  130OSM    H3G14026   5.195   5.489   6.744
  130OSM    C4F14027   5.336   5.346   6.818
  130OSM    H4F14028   5.409   5.425   6.802
  130OSM    H4G14029   5.380   5.248   6.790
  130OSM    C5F14030   5.302   5.342   6.968
  130OSM    H5F14031   5.393   5.322   7.031
  130OSM    H5G14032   5.233   5.257   6.981
  130OSM    C6F14033   5.233   5.467   7.022
  130OSM    H6F14034   5.139   5.478   6.966
  130OSM    H6G14035   5.297   5.555   7.002
  130OSM    C7F14036   5.205   5.462   7.174
  130OSM    H7F14037   5.160   5.559   7.205
  130OSM    H7G14038   5.300   5.452   7.229
  130OSM    C8F14039   5.114   5.344   7.212
  130OSM    H8F14040   5.177   5.252   7.215
  130OSM    H8G14041   5.039   5.330   7.131
  130OSM    C9F14042   5.036   5.360   7.338
  130OSM    H9F14043   4.935   5.403   7.330
  130OSM   C10F14044   5.078   5.323   7.457
  130OSM   H10F14045   5.011   5.338   7.541
  130OSM   C11F14046   5.211   5.260   7.486
  130OSM   H11F14047   5.287   5.279   7.408
  130OSM   H11G14048   5.199   5.153   7.513
  130OSM   C12F14049   5.276   5.329   7.600
  130OSM   H12F14050   5.262   5.435   7.557
  130OSM   H12G14051   5.384   5.329   7.610
  130OSM   C13F14052   5.222   5.262   7.732
  130OSM   H13F14053   5.262   5.165   7.762
  130OSM   H13G14054   5.112   5.267   7.733
  130OSM   C14F14055   5.252   5.338   7.847
  130OSM   H14F14056   5.365   5.333   7.866
  130OSM   H14G14057   5.210   5.312   7.952
  130OSM   C15F14058   5.185   5.461   7.753
  130OSM   H15F14059   5.236   5.549   7.718
  130OSM   H15G14060   5.232   5.454   7.845
  130OSM   C16F14061   5.022   5.521   7.731
  130OSM   H16F14062   5.007   5.457   7.657
  130OSM   H16G14063   5.004   5.618   7.684
  130OSM   C17F14064   4.889   5.560   7.842
  130OSM   H17F14065   4.909   5.480   7.904
  130OSM   H17G14066   4.792   5.536   7.820
  130OSM   C18F14067   4.871   5.632   7.992
  130OSM   H18F14068   4.886   5.561   8.065
  130OSM   H18G14069   4.856   5.730   8.037
  130OSM   H18H14070   4.950   5.694   8.034
  131OSM      N14071   3.382   1.107   5.843
  131OSM    C1514072   3.328   0.977   5.793
  131OSM   H15A14073   3.243   0.939   5.848
  131OSM   H15B14074   3.401   0.896   5.800
  131OSM   H15C14075   3.305   0.977   5.687
  131OSM    C1414076   3.422   1.111   5.985
  131OSM   H14A14077   3.468   1.017   6.013
  131OSM   H14B14078   3.325   1.113   6.035
  131OSM   H14C14079   3.470   1.193   6.033
  131OSM    C1314080   3.508   1.139   5.774
  131OSM   H13A14081   3.490   1.158   5.670
  131OSM   H13B14082   3.581   1.060   5.789
  131OSM   H13C14083   3.545   1.230   5.821
  131OSM    C1214084   3.271   1.207   5.818
  131OSM   H12A14085   3.174   1.161   5.836
  131OSM   H12B14086   3.276   1.231   5.713
  131OSM    C1114087   3.273   1.336   5.898
  131OSM   H11A14088   3.246   1.317   6.004
  131OSM   H11B14089   3.192   1.402   5.857
  131OSM      P14090   3.407   1.549   5.929
  131OSM    O1314091   3.508   1.618   5.847
  131OSM    O1414092   3.274   1.612   5.938
  131OSM    O1114093   3.446   1.522   6.076
  131OSM    O1214094   3.399   1.398   5.883
  131OSM    C1S14095   3.516   1.423   6.143
  131OSM    H1S14096   3.624   1.447   6.141
  131OSM    H1T14097   3.501   1.330   6.091
  131OSM     NF14098   3.542   1.316   6.348
  131OSM    HNF14099   3.505   1.250   6.415
  131OSM    C2S14100   3.458   1.399   6.283
  131OSM    H2S14101   3.456   1.483   6.358
  131OSM    C3S14102   3.319   1.343   6.283
  131OSM    H3S14103   3.325   1.245   6.230
  131OSM     O314104   3.221   1.417   6.216
  131OSM    HO314105   3.268   1.490   6.172
  131OSM    C4S14106   3.294   1.331   6.428
  131OSM    H4S14107   3.268   1.417   6.489
  131OSM    C5S14108   3.306   1.219   6.487
  131OSM    H5S14109   3.267   1.145   6.410
  131OSM    C6S14110   3.282   1.215   6.639
  131OSM    H6S14111   3.347   1.157   6.703
  131OSM    H6T14112   3.242   1.133   6.621
  131OSM    C7S14113   3.181   1.281   6.736
  131OSM    H7S14114   3.078   1.266   6.715
  131OSM    H7T14115   3.203   1.385   6.745
  131OSM    C8S14116   3.107   1.242   6.858
  131OSM    H8S14117   3.037   1.155   6.851
  131OSM    H8T14118   3.051   1.343   6.875
  131OSM    C9S14119   3.192   1.246   6.966
  131OSM    H9S14120   3.225   1.352   6.953
  131OSM    H9T14121   3.264   1.171   6.928
  131OSM   C10S14122   3.117   1.237   7.095
  131OSM   H10S14123   3.012   1.275   7.098
  131OSM   H10T14124   3.190   1.272   7.169
  131OSM   C11S14125   3.097   1.104   7.146
  131OSM   H11S14126   3.197   1.053   7.149
  131OSM   H11T14127   3.017   1.068   7.078
  131OSM   C12S14128   3.014   1.071   7.266
  131OSM   H12S14129   3.039   0.969   7.301
  131OSM   H12T14130   2.906   1.072   7.240
  131OSM   C13S14131   3.054   1.141   7.384
  131OSM   H13S14132   2.994   1.115   7.474
  131OSM   H13T14133   3.040   1.244   7.359
  131OSM   C14S14134   3.192   1.107   7.414
  131OSM   H14S14135   3.269   1.111   7.333
  131OSM   H14T14136   3.195   1.010   7.455
  131OSM   C15S14137   3.221   1.174   7.539
  131OSM   H15S14138   3.155   1.148   7.626
  131OSM   H15T14139   3.228   1.280   7.523
  131OSM   C16S14140   3.351   1.129   7.569
  131OSM   H16S14141   3.409   1.119   7.481
  131OSM   H16T14142   3.357   1.019   7.564
  131OSM   C17S14143   3.400   1.218   7.682
  131OSM   H17S14144   3.397   1.326   7.675
  131OSM   H17T14145   3.503   1.197   7.702
  131OSM   C18S14146   3.343   1.190   7.814
  131OSM   H18S14147   3.385   1.099   7.847
  131OSM   H18T14148   3.236   1.184   7.826
  131OSM   H18U14149   3.406   1.228   7.889
  131OSM    C1F14150   3.649   1.375   6.383
  131OSM     OF14151   3.706   1.477   6.346
  131OSM    C2F14152   3.684   1.296   6.482
  131OSM    H2F14153   3.786   1.315   6.449
  131OSM    H2G14154   3.641   1.192   6.475
  131OSM    C3F14155   3.713   1.333   6.613
  131OSM    H3F14156   3.823   1.299   6.632
  131OSM    H3G14157   3.632   1.279   6.669
  131OSM    C4F14158   3.716   1.466   6.638
  131OSM    H4F14159   3.620   1.512   6.616
  131OSM    H4G14160   3.798   1.498   6.569
  131OSM    C5F14161   3.738   1.454   6.781
  131OSM    H5F14162   3.826   1.389   6.793
  131OSM    H5G14163   3.667   1.399   6.845
  131OSM    C6F14164   3.752   1.594   6.810
  131OSM    H6F14165   3.674   1.664   6.820
  131OSM    H6G14166   3.824   1.659   6.756
  131OSM    C7F14167   3.803   1.600   6.929
  131OSM    H7F14168   3.837   1.710   6.926
  131OSM    H7G14169   3.913   1.592   6.892
  131OSM    C8F14170   3.745   1.512   7.077
  131OSM    H8F14171   3.812   1.527   7.167
  131OSM    H8G14172   3.771   1.419   7.127
  131OSM    C9F14173   3.624   1.540   7.129
  131OSM    H9F14174   3.624   1.638   7.128
  131OSM   C10F14175   3.528   1.487   7.184
  131OSM   H10F14176   3.439   1.549   7.192
  131OSM   C11F14177   3.546   1.347   7.203
  131OSM   H11F14178   3.650   1.325   7.239
  131OSM   H11G14179   3.523   1.298   7.108
  131OSM   C12F14180   3.462   1.321   7.319
  131OSM   H12F14181   3.479   1.217   7.343
  131OSM   H12G14182   3.355   1.344   7.299
  131OSM   C13F14183   3.502   1.399   7.440
  131OSM   H13F14184   3.417   1.390   7.507
  131OSM   H13G14185   3.500   1.509   7.416
  131OSM   C14F14186   3.639   1.357   7.504
  131OSM   H14F14187   3.695   1.376   7.420
  131OSM   H14G14188   3.717   1.302   7.480
  131OSM   C15F14189   3.699   1.340   7.654
  131OSM   H15F14190   3.610   1.326   7.699
  131OSM   H15G14191   3.734   1.422   7.707
  131OSM   C16F14192   3.833   1.297   7.715
  131OSM   H16F14193   3.857   1.203   7.670
  131OSM   H16G14194   3.820   1.301   7.828
  131OSM   C17F14195   3.954   1.378   7.686
  131OSM   H17F14196   3.986   1.380   7.584
  131OSM   H17G14197   4.041   1.341   7.743
  131OSM   C18F14198   3.931   1.515   7.719
  131OSM   H18F14199   4.035   1.525   7.698
  131OSM   H18G14200   3.882   1.524   7.818
  131OSM   H18H14201   3.937   1.614   7.668
  132OSM      N14202   4.757   1.255   5.882
  132OSM    C1514203   4.810   1.256   5.743
  132OSM   H15A14204   4.789   1.351   5.695
  132OSM   H15B14205   4.769   1.176   5.683
  132OSM   H15C14206   4.917   1.242   5.747
  132OSM    C1414207   4.790   1.124   5.945
  132OSM   H14A14208   4.763   1.119   6.051
  132OSM   H14B14209   4.896   1.104   5.937
  132OSM   H14C14210   4.739   1.043   5.897
  132OSM    C1314211   4.835   1.362   5.952
  132OSM   H13A14212   4.940   1.335   5.959
  132OSM   H13B14213   4.797   1.380   6.052
  132OSM   H13C14214   4.822   1.456   5.898
  132OSM    C1214215   4.606   1.277   5.888
  132OSM   H12A14216   4.573   1.287   5.992
  132OSM   H12B14217   4.559   1.187   5.852
  132OSM    C1114218   4.538   1.391   5.807
  132OSM   H11A14219   4.429   1.391   5.832
  132OSM   H11B14220   4.547   1.366   5.699
  132OSM      P14221   4.558   1.621   5.939
  132OSM    O1314222   4.648   1.737   5.919
  132OSM    O1414223   4.412   1.642   5.939
  132OSM    O1114224   4.602   1.543   6.068
  132OSM    O1214225   4.598   1.519   5.825
  132OSM    C1S14226   4.515   1.517   6.178
  132OSM    H1S14227   4.459   1.423   6.160
  132OSM    H1T14228   4.441   1.600   6.196
  132OSM     NF14229   4.551   1.425   6.411
  132OSM    HNF14230   4.543   1.466   6.501
  132OSM    C2S14231   4.604   1.506   6.304
  132OSM    H2S14232   4.700   1.460   6.270
  132OSM    C3S14233   4.630   1.651   6.353
  132OSM    H3S14234   4.533   1.704   6.366
  132OSM     O314235   4.712   1.723   6.264
  132OSM    HO314236   4.722   1.662   6.190
  132OSM    C4S14237   4.703   1.648   6.483
  132OSM    H4S14238   4.799   1.594   6.478
  132OSM    C5S14239   4.666   1.712   6.594
  132OSM    H5S14240   4.581   1.783   6.591
  132OSM    C6S14241   4.736   1.709   6.725
  132OSM    H6S14242   4.722   1.803   6.782
  132OSM    H6T14243   4.846   1.693   6.716
  132OSM    C7S14244   4.675   1.591   6.800
  132OSM    H7S14245   4.693   1.494   6.748
  132OSM    H7T14246   4.564   1.588   6.799
  132OSM    C8S14247   4.733   1.588   6.943
  132OSM    H8S14248   4.829   1.640   6.958
  132OSM    H8T14249   4.735   1.484   6.977
  132OSM    C9S14250   4.638   1.608   7.051
  132OSM    H9S14251   4.561   1.538   7.008
  132OSM    H9T14252   4.617   1.715   7.055
  132OSM   C10S14253   4.682   1.594   7.195
  132OSM   H10S14254   4.739   1.688   7.213
  132OSM   H10T14255   4.745   1.506   7.199
  132OSM   C11S14256   4.570   1.596   7.300
  132OSM   H11S14257   4.506   1.508   7.285
  132OSM   H11T14258   4.513   1.690   7.284
  132OSM   C12S14259   4.608   1.595   7.446
  132OSM   H12S14260   4.665   1.686   7.471
  132OSM   H12T14261   4.669   1.509   7.469
  132OSM   C13S14262   4.494   1.576   7.542
  132OSM   H13S14263   4.452   1.473   7.529
  132OSM   H13T14264   4.415   1.652   7.525
  132OSM   C14S14265   4.547   1.594   7.681
  132OSM   H14S14266   4.606   1.688   7.690
  132OSM   H14T14267   4.613   1.509   7.711
  132OSM   C15S14268   4.438   1.602   7.781
  132OSM   H15S14269   4.362   1.524   7.767
  132OSM   H15T14270   4.387   1.703   7.782
  132OSM   C16S14271   4.512   1.578   7.909
  132OSM   H16S14272   4.506   1.479   7.960
  132OSM   H16T14273   4.445   1.645   7.952
  132OSM   C17S14274   4.613   1.678   7.950
  132OSM   H17S14275   4.573   1.785   7.954
  132OSM   H17T14276   4.689   1.661   7.877
  132OSM   C18S14277   4.705   1.646   8.061
  132OSM   H18S14278   4.671   1.728   8.125
  132OSM   H18T14279   4.749   1.729   8.101
  132OSM   H18U14280   4.689   1.554   8.123
  132OSM    C1F14281   4.533   1.294   6.405
  132OSM     OF14282   4.565   1.228   6.308
  132OSM    C2F14283   4.479   1.235   6.530
  132OSM    H2F14284   4.377   1.195   6.511
  132OSM    H2G14285   4.479   1.304   6.616
  132OSM    C3F14286   4.567   1.120   6.569
  132OSM    H3F14287   4.537   1.039   6.501
  132OSM    H3G14288   4.539   1.092   6.673
  132OSM    C4F14289   4.716   1.147   6.558
  132OSM    H4F14290   4.731   1.249   6.597
  132OSM    H4G14291   4.754   1.144   6.452
  132OSM    C5F14292   4.804   1.058   6.640
  132OSM    H5F14293   4.907   1.090   6.627
  132OSM    H5G14294   4.808   0.958   6.594
  132OSM    C6F14295   4.779   1.050   6.792
  132OSM    H6F14296   4.826   0.961   6.838
  132OSM    H6G14297   4.672   1.045   6.819
  132OSM    C7F14298   4.778   1.168   6.857
  132OSM    H7F14299   4.711   1.240   6.805
  132OSM    H7G14300   4.885   1.173   6.832
  132OSM    C8F14301   4.763   1.177   7.004
  132OSM    H8F14302   4.672   1.116   7.016
  132OSM    H8G14303   4.728   1.270   7.049
  132OSM    C9F14304   4.900   1.135   7.057
  132OSM    H9F14305   4.924   1.043   7.014
  132OSM   C10F14306   4.974   1.178   7.166
  132OSM   H10F14307   5.036   1.093   7.207
  132OSM   C11F14308   4.934   1.298   7.267
  132OSM   H11F14309   4.918   1.393   7.221
  132OSM   H11G14310   5.021   1.301   7.335
  132OSM   C12F14311   4.796   1.331   7.359
  132OSM   H12F14312   4.719   1.305   7.285
  132OSM   H12G14313   4.808   1.439   7.372
  132OSM   C13F14314   4.759   1.296   7.516
  132OSM   H13F14315   4.834   1.336   7.585
  132OSM   H13G14316   4.764   1.193   7.526
  132OSM   C14F14317   4.621   1.260   7.593
  132OSM   H14F14318   4.542   1.208   7.538
  132OSM   H14G14319   4.585   1.355   7.606
  132OSM   C15F14320   4.606   1.187   7.733
  132OSM   H15F14321   4.681   1.195   7.812
  132OSM   H15G14322   4.609   1.088   7.713
  132OSM   C16F14323   4.482   1.106   7.769
  132OSM   H16F14324   4.497   1.023   7.846
  132OSM   H16G14325   4.429   1.055   7.684
  132OSM   C17F14326   4.425   1.226   7.822
  132OSM   H17F14327   4.451   1.319   7.765
  132OSM   H17G14328   4.475   1.233   7.923
  132OSM   C18F14329   4.281   1.200   7.815
  132OSM   H18F14330   4.231   1.292   7.850
  132OSM   H18G14331   4.269   1.113   7.884
  132OSM   H18H14332   4.245   1.167   7.716
  133OSM      N14333   5.144   1.802   5.818
  133OSM    C1514334   5.147   1.681   5.906
  133OSM   H15A14335   5.236   1.689   5.968
  133OSM   H15B14336   5.153   1.585   5.857
  133OSM   H15C14337   5.059   1.681   5.969
  133OSM    C1414338   5.244   1.786   5.708
  133OSM   H14A14339   5.222   1.692   5.657
  133OSM   H14B14340   5.345   1.776   5.747
  133OSM   H14C14341   5.241   1.867   5.637
  133OSM    C1314342   5.017   1.811   5.743
  133OSM   H13A14343   5.011   1.910   5.699
  133OSM   H13B14344   4.930   1.794   5.807
  133OSM   H13C14345   5.020   1.737   5.664
  133OSM    C1214346   5.163   1.923   5.909
  133OSM   H12A14347   5.084   1.920   5.985
  133OSM   H12B14348   5.149   2.015   5.854
  133OSM    C1114349   5.295   1.936   5.989
  133OSM   H11A14350   5.305   1.849   6.058
  133OSM   H11B14351   5.291   2.027   6.054
  133OSM      P14352   5.551   1.940   5.960
  133OSM    O1314353   5.584   1.799   5.984
  133OSM    O1414354   5.645   2.021   5.881
  133OSM    O1114355   5.525   2.010   6.099
  133OSM    O1214356   5.405   1.944   5.898
  133OSM    C1S14357   5.623   2.021   6.200
  133OSM    H1S14358   5.673   2.120   6.192
  133OSM    H1T14359   5.703   1.944   6.192
  133OSM     NF14360   5.512   1.875   6.360
  133OSM    HNF14361   5.417   1.851   6.359
  133OSM    C2S14362   5.550   2.012   6.337
  133OSM    H2S14363   5.620   2.041   6.418
  133OSM    C3S14364   5.428   2.108   6.341
  133OSM    H3S14365   5.353   2.080   6.263
  133OSM     O314366   5.467   2.243   6.321
  133OSM    HO314367   5.555   2.234   6.282
  133OSM    C4S14368   5.354   2.097   6.472
  133OSM    H4S14369   5.284   2.012   6.473
  133OSM    C5S14370   5.358   2.172   6.583
  133OSM    H5S14371   5.429   2.256   6.593
  133OSM    C6S14372   5.274   2.141   6.704
  133OSM    H6S14373   5.176   2.195   6.698
  133OSM    H6T14374   5.326   2.180   6.794
  133OSM    C7S14375   5.245   1.990   6.724
  133OSM    H7S14376   5.180   1.953   6.642
  133OSM    H7T14377   5.190   1.976   6.820
  133OSM    C8S14378   5.369   1.898   6.724
  133OSM    H8S14379   5.403   1.884   6.619
  133OSM    H8T14380   5.339   1.796   6.758
  133OSM    C9S14381   5.482   1.940   6.817
  133OSM    H9S14382   5.522   2.040   6.792
  133OSM    H9T14383   5.566   1.868   6.809
  133OSM   C10S14384   5.429   1.931   6.960
  133OSM   H10S14385   5.364   1.840   6.968
  133OSM   H10T14386   5.366   2.018   6.985
  133OSM   C11S14387   5.539   1.913   7.063
  133OSM   H11S14388   5.635   1.901   7.007
  133OSM   H11T14389   5.521   1.819   7.120
  133OSM   C12S14390   5.552   2.033   7.155
  133OSM   H12S14391   5.532   2.129   7.103
  133OSM   H12T14392   5.658   2.031   7.186
  133OSM   C13S14393   5.471   2.025   7.285
  133OSM   H13S14394   5.516   2.103   7.351
  133OSM   H13T14395   5.485   1.928   7.338
  133OSM   C14S14396   5.320   2.051   7.269
  133OSM   H14S14397   5.275   1.998   7.182
  133OSM   H14T14398   5.303   2.160   7.256
  133OSM   C15S14399   5.242   2.013   7.394
  133OSM   H15S14400   5.256   1.904   7.412
  133OSM   H15T14401   5.135   2.028   7.369
  133OSM   C16S14402   5.285   2.101   7.512
  133OSM   H16S14403   5.284   2.209   7.486
  133OSM   H16T14404   5.391   2.079   7.537
  133OSM   C17S14405   5.202   2.081   7.640
  133OSM   H17S14406   5.161   1.978   7.637
  133OSM   H17T14407   5.113   2.149   7.640
  133OSM   C18S14408   5.291   2.106   7.763
  133OSM   H18S14409   5.380   2.040   7.761
  133OSM   H18T14410   5.239   2.092   7.860
  133OSM   H18U14411   5.329   2.211   7.759
  133OSM    C1F14412   5.605   1.784   6.370
  133OSM     OF14413   5.723   1.814   6.387
  133OSM    C2F14414   5.557   1.647   6.373
  133OSM    H2F14415   5.598   1.583   6.290
  133OSM    H2G14416   5.447   1.635   6.376
  133OSM    C3F14417   5.608   1.601   6.507
  133OSM    H3F14418   5.712   1.572   6.481
  133OSM    H3G14419   5.533   1.524   6.533
  133OSM    C4F14420   5.591   1.670   6.638
  133OSM    H4F14421   5.482   1.689   6.646
  133OSM    H4G14422   5.651   1.761   6.632
  133OSM    C5F14423   5.633   1.590   6.763
  133OSM    H5F14424   5.642   1.661   6.848
  133OSM    H5G14425   5.737   1.557   6.754
  133OSM    C6F14426   5.533   1.485   6.811
  133OSM    H6F14427   5.573   1.441   6.908
  133OSM    H6G14428   5.511   1.393   6.750
  133OSM    C7F14429   5.408   1.548   6.824
  133OSM    H7F14430   5.347   1.525   6.730
  133OSM    H7G14431   5.436   1.653   6.844
  133OSM    C8F14432   5.357   1.492   6.943
  133OSM    H8F14433   5.412   1.476   7.038
  133OSM    H8G14434   5.349   1.387   6.897
  133OSM    C9F14435   5.242   1.590   6.943
  133OSM    H9F14436   5.179   1.562   6.858
  133OSM   C10F14437   5.184   1.659   7.044
  133OSM   H10F14438   5.074   1.641   7.045
  133OSM   C11F14439   5.228   1.658   7.187
  133OSM   H11F14440   5.185   1.749   7.229
  133OSM   H11G14441   5.338   1.663   7.175
  133OSM   C12F14442   5.211   1.563   7.307
  133OSM   H12F14443   5.295   1.503   7.275
  133OSM   H12G14444   5.118   1.505   7.325
  133OSM   C13F14445   5.257   1.613   7.442
  133OSM   H13F14446   5.194   1.693   7.480
  133OSM   H13G14447   5.355   1.658   7.417
  133OSM   C14F14448   5.261   1.510   7.556
  133OSM   H14F14449   5.307   1.423   7.502
  133OSM   H14G14450   5.177   1.458   7.600
  133OSM   C15F14451   5.344   1.572   7.670
  133OSM   H15F14452   5.416   1.640   7.615
  133OSM   H15G14453   5.384   1.489   7.733
  133OSM   C16F14454   5.315   1.658   7.785
  133OSM   H16F14455   5.250   1.599   7.853
  133OSM   H16G14456   5.272   1.747   7.736
  133OSM   C17F14457   5.447   1.698   7.855
  133OSM   H17F14458   5.526   1.739   7.788
  133OSM   H17G14459   5.492   1.617   7.916
  133OSM   C18F14460   5.416   1.802   7.956
  133OSM   H18F14461   5.375   1.748   8.042
  133OSM   H18G14462   5.345   1.877   7.915
  133OSM   H18H14463   5.509   1.846   7.989
  134OSM      N14464   6.018   4.724   5.692
  134OSM    C1514465   6.121   4.640   5.622
  134OSM   H15A14466   6.215   4.639   5.678
  134OSM   H15B14467   6.139   4.673   5.521
  134OSM   H15C14468   6.084   4.538   5.615
  134OSM    C1414469   6.079   4.849   5.744
  134OSM   H14A14470   6.104   4.921   5.668
  134OSM   H14B14471   6.171   4.824   5.797
  134OSM   H14C14472   6.015   4.893   5.821
  134OSM    C1314473   5.911   4.755   5.591
  134OSM   H13A14474   5.839   4.828   5.626
  134OSM   H13B14475   5.857   4.665   5.565
  134OSM   H13C14476   5.958   4.789   5.501
  134OSM    C1214477   5.964   4.642   5.809
  134OSM   H12A14478   6.050   4.604   5.866
  134OSM   H12B14479   5.916   4.553   5.770
  134OSM    C1114480   5.871   4.713   5.910
  134OSM   H11A14481   5.811   4.638   5.967
  134OSM   H11B14482   5.800   4.777   5.855
  134OSM      P14483   6.053   4.738   6.099
  134OSM    O1314484   6.138   4.642   6.026
  134OSM    O1414485   6.114   4.853   6.167
  134OSM    O1114486   5.966   4.657   6.201
  134OSM    O1214487   5.944   4.797   5.998
  134OSM    C1S14488   5.854   4.718   6.263
  134OSM    H1S14489   5.758   4.685   6.220
  134OSM    H1T14490   5.852   4.828   6.242
  134OSM     NF14491   5.954   4.767   6.493
  134OSM    HNF14492   6.045   4.750   6.523
  134OSM    C2S14493   5.861   4.684   6.419
  134OSM    H2S14494   5.754   4.693   6.463
  134OSM    C3S14495   5.907   4.553   6.448
  134OSM    H3S14496   6.018   4.558   6.426
  134OSM     O314497   5.836   4.456   6.374
  134OSM    HO314498   5.765   4.509   6.336
  134OSM    C4S14499   5.886   4.529   6.594
  134OSM    H4S14500   5.783   4.511   6.626
  134OSM    C5S14501   5.978   4.539   6.689
  134OSM    H5S14502   6.086   4.549   6.664
  134OSM    C6S14503   5.936   4.506   6.827
  134OSM    H6S14504   5.964   4.401   6.831
  134OSM    H6T14505   5.830   4.486   6.847
  134OSM    C7S14506   5.987   4.604   6.934
  134OSM    H7S14507   5.931   4.693   6.905
  134OSM    H7T14508   6.097   4.622   6.928
  134OSM    C8S14509   5.949   4.569   7.080
  134OSM    H8S14510   6.043   4.547   7.137
  134OSM    H8T14511   5.881   4.481   7.083
  134OSM    C9S14512   5.891   4.684   7.161
  134OSM    H9S14513   5.819   4.737   7.097
  134OSM    H9T14514   5.976   4.753   7.182
  134OSM   C10S14515   5.826   4.640   7.294
  134OSM   H10S14516   5.753   4.558   7.277
  134OSM   H10T14517   5.768   4.727   7.330
  134OSM   C11S14518   5.931   4.593   7.397
  134OSM   H11S14519   6.005   4.674   7.416
  134OSM   H11T14520   5.987   4.507   7.353
  134OSM   C12S14521   5.880   4.546   7.533
  134OSM   H12S14522   5.778   4.583   7.558
  134OSM   H12T14523   5.950   4.579   7.613
  134OSM   C13S14524   5.883   4.394   7.537
  134OSM   H13S14525   5.980   4.352   7.508
  134OSM   H13T14526   5.811   4.370   7.455
  134OSM   C14S14527   5.840   4.341   7.673
  134OSM   H14S14528   5.805   4.236   7.674
  134OSM   H14T14529   5.755   4.409   7.670
  134OSM   C15S14530   5.924   4.361   7.799
  134OSM   H15S14531   5.977   4.458   7.798
  134OSM   H15T14532   5.997   4.278   7.789
  134OSM   C16S14533   5.855   4.335   7.934
  134OSM   H16S14534   5.931   4.316   8.012
  134OSM   H16T14535   5.789   4.245   7.925
  134OSM   C17S14536   5.772   4.448   7.992
  134OSM   H17S14537   5.712   4.414   8.079
  134OSM   H17T14538   5.703   4.472   7.915
  134OSM   C18S14539   5.836   4.583   8.004
  134OSM   H18S14540   5.770   4.650   8.060
  134OSM   H18T14541   5.845   4.630   7.903
  134OSM   H18U14542   5.931   4.579   8.058
  134OSM    C1F14543   5.932   4.880   6.482
  134OSM     OF14544   5.821   4.888   6.444
  134OSM    C2F14545   6.028   4.973   6.548
  134OSM    H2F14546   6.045   5.069   6.490
  134OSM    H2G14547   6.125   4.929   6.561
  134OSM    C3F14548   6.021   4.979   6.711
  134OSM    H3F14549   5.924   4.988   6.673
  134OSM    H3G14550   6.071   5.077   6.704
  134OSM    C4F14551   5.921   4.935   6.842
  134OSM    H4F14552   5.987   4.869   6.891
  134OSM    H4G14553   5.845   4.872   6.780
  134OSM    C5F14554   5.851   5.020   6.987
  134OSM    H5F14555   5.762   4.971   6.963
  134OSM    H5G14556   5.773   5.106   6.989
  134OSM    C6F14557   5.883   5.174   7.033
  134OSM    H6F14558   5.821   5.257   7.082
  134OSM    H6G14559   5.945   5.242   6.971
  134OSM    C7F14560   5.965   5.098   7.123
  134OSM    H7F14561   6.035   5.037   7.056
  134OSM    H7G14562   5.901   5.039   7.190
  134OSM    C8F14563   6.037   5.192   7.194
  134OSM    H8F14564   5.976   5.270   7.244
  134OSM    H8G14565   6.078   5.225   7.100
  134OSM    C9F14566   6.160   5.148   7.254
  134OSM    H9F14567   6.246   5.162   7.187
  134OSM   C10F14568   6.176   5.146   7.383
  134OSM   H10F14569   6.279   5.145   7.417
  134OSM   C11F14570   6.068   5.185   7.479
  134OSM   H11F14571   5.983   5.244   7.442
  134OSM   H11G14572   6.106   5.262   7.544
  134OSM   C12F14573   6.026   5.048   7.538
  134OSM   H12F14574   6.110   4.979   7.553
  134OSM   H12G14575   5.954   5.006   7.465
  134OSM   C13F14576   5.952   5.058   7.670
  134OSM   H13F14577   5.870   4.986   7.685
  134OSM   H13G14578   5.925   5.164   7.652
  134OSM   C14F14579   6.022   5.047   7.801
  134OSM   H14F14580   5.980   5.087   7.896
  134OSM   H14G14581   6.067   5.137   7.771
  134OSM   C15F14582   6.099   4.916   7.802
  134OSM   H15F14583   6.181   4.911   7.727
  134OSM   H15G14584   6.022   4.837   7.791
  134OSM   C16F14585   6.151   4.870   7.930
  134OSM   H16F14586   6.160   4.765   7.960
  134OSM   H16G14587   6.077   4.919   7.996
  134OSM   C17F14588   6.290   4.912   7.941
  134OSM   H17F14589   6.291   4.893   8.049
  134OSM   H17G14590   6.282   5.018   7.917
  134OSM   C18F14591   6.417   4.849   7.881
  134OSM   H18F14592   6.509   4.913   7.881
  134OSM   H18G14593   6.394   4.822   7.779
  134OSM   H18H14594   6.452   4.762   7.941
  135OSM      N14595   5.823   5.431   5.899
  135OSM    C1514596   5.700   5.364   5.872
  135OSM   H15A14597   5.612   5.427   5.859
  135OSM   H15B14598   5.673   5.303   5.960
  135OSM   H15C14599   5.705   5.289   5.794
  135OSM    C1414600   5.798   5.538   5.999
  135OSM   H14A14601   5.785   5.493   6.096
  135OSM   H14B14602   5.714   5.600   5.974
  135OSM   H14C14603   5.888   5.599   6.006
  135OSM    C1314604   5.911   5.330   5.964
  135OSM   H13A14605   5.921   5.241   5.903
  135OSM   H13B14606   5.869   5.299   6.059
  135OSM   H13C14607   6.010   5.370   5.983
  135OSM    C1214608   5.878   5.490   5.773
  135OSM   H12A14609   5.810   5.569   5.742
  135OSM   H12B14610   5.877   5.413   5.697
  135OSM    C1114611   6.022   5.539   5.783
  135OSM   H11A14612   6.051   5.583   5.687
  135OSM   H11B14613   6.087   5.448   5.792
  135OSM      P14614   6.195   5.677   5.917
  135OSM    O1314615   6.277   5.580   5.844
  135OSM    O1414616   6.202   5.821   5.879
  135OSM    O1114617   6.209   5.663   6.074
  135OSM    O1214618   6.043   5.633   5.889
  135OSM    C1S14619   6.098   5.620   6.151
  135OSM    H1S14620   6.087   5.511   6.133
  135OSM    H1T14621   6.002   5.669   6.121
  135OSM     NF14622   6.020   5.588   6.373
  135OSM    HNF14623   5.948   5.637   6.422
  135OSM    C2S14624   6.117   5.655   6.301
  135OSM    H2S14625   6.214   5.616   6.340
  135OSM    C3S14626   6.104   5.805   6.325
  135OSM    H3S14627   6.012   5.840   6.273
  135OSM     O314628   6.215   5.880   6.280
  135OSM    HO314629   6.278   5.814   6.251
  135OSM    C4S14630   6.081   5.831   6.473
  135OSM    H4S14631   5.978   5.818   6.508
  135OSM    C5S14632   6.175   5.858   6.566
  135OSM    H5S14633   6.280   5.863   6.537
  135OSM    C6S14634   6.143   5.883   6.709
  135OSM    H6S14635   6.037   5.914   6.717
  135OSM    H6T14636   6.207   5.967   6.741
  135OSM    C7S14637   6.160   5.774   6.814
  135OSM    H7S14638   6.156   5.819   6.917
  135OSM    H7T14639   6.260   5.729   6.799
  135OSM    C8S14640   6.047   5.673   6.799
  135OSM    H8S14641   6.024   5.661   6.691
  135OSM    H8T14642   5.956   5.711   6.853
  135OSM    C9S14643   6.083   5.536   6.852
  135OSM    H9S14644   6.158   5.488   6.785
  135OSM    H9T14645   5.991   5.473   6.853
  135OSM   C10S14646   6.137   5.553   6.992
  135OSM   H10S14647   6.062   5.615   7.047
  135OSM   H10T14648   6.239   5.596   6.998
  135OSM   C11S14649   6.145   5.427   7.067
  135OSM   H11S14650   6.185   5.344   7.004
  135OSM   H11T14651   6.037   5.412   7.096
  135OSM   C12S14652   6.228   5.435   7.192
  135OSM   H12S14653   6.330   5.465   7.162
  135OSM   H12T14654   6.260   5.349   7.250
  135OSM   C13S14655   6.155   5.516   7.295
  135OSM   H13S14656   6.056   5.485   7.333
  135OSM   H13T14657   6.149   5.617   7.250
  135OSM   C14S14658   6.242   5.527   7.413
  135OSM   H14S14659   6.339   5.493   7.371
  135OSM   H14T14660   6.230   5.451   7.489
  135OSM   C15S14661   6.230   5.674   7.448
  135OSM   H15S14662   6.252   5.743   7.365
  135OSM   H15T14663   6.318   5.708   7.489
  135OSM   C16S14664   6.119   5.720   7.542
  135OSM   H16S14665   6.028   5.712   7.482
  135OSM   H16T14666   6.151   5.825   7.565
  135OSM   C17S14667   6.096   5.663   7.683
  135OSM   H17S14668   6.180   5.618   7.730
  135OSM   H17T14669   6.040   5.570   7.689
  135OSM   C18S14670   6.070   5.779   7.779
  135OSM   H18S14671   6.150   5.857   7.780
  135OSM   H18T14672   6.072   5.753   7.884
  135OSM   H18U14673   5.971   5.821   7.754
  135OSM    C1F14674   6.013   5.465   6.355
  135OSM     OF14675   6.106   5.387   6.341
  135OSM    C2F14676   5.877   5.437   6.367
  135OSM    H2F14677   5.820   5.394   6.284
  135OSM    H2G14678   5.828   5.498   6.448
  135OSM    C3F14679   5.874   5.341   6.454
  135OSM    H3F14680   5.965   5.337   6.528
  135OSM    H3G14681   5.923   5.241   6.415
  135OSM    C4F14682   5.702   5.363   6.520
  135OSM    H4F14683   5.654   5.280   6.579
  135OSM    H4G14684   5.640   5.277   6.520
  135OSM    C5F14685   5.629   5.378   6.660
  135OSM    H5F14686   5.536   5.315   6.694
  135OSM    H5G14687   5.589   5.457   6.600
  135OSM    C6F14688   5.710   5.416   6.774
  135OSM    H6F14689   5.799   5.467   6.734
  135OSM    H6G14690   5.735   5.342   6.854
  135OSM    C7F14691   5.622   5.478   6.866
  135OSM    H7F14692   5.561   5.393   6.908
  135OSM    H7G14693   5.568   5.539   6.792
  135OSM    C8F14694   5.709   5.537   6.970
  135OSM    H8F14695   5.751   5.628   6.922
  135OSM    H8G14696   5.794   5.473   7.001
  135OSM    C9F14697   5.620   5.566   7.084
  135OSM    H9F14698   5.613   5.670   7.094
  135OSM   C10F14699   5.578   5.506   7.192
  135OSM   H10F14700   5.505   5.556   7.257
  135OSM   C11F14701   5.618   5.373   7.232
  135OSM   H11F14702   5.646   5.320   7.140
  135OSM   H11G14703   5.529   5.329   7.280
  135OSM   C12F14704   5.745   5.372   7.316
  135OSM   H12F14705   5.829   5.404   7.253
  135OSM   H12G14706   5.767   5.268   7.351
  135OSM   C13F14707   5.741   5.467   7.430
  135OSM   H13F14708   5.718   5.573   7.408
  135OSM   H13G14709   5.837   5.458   7.488
  135OSM   C14F14710   5.635   5.422   7.514
  135OSM   H14F14711   5.665   5.329   7.547
  135OSM   H14G14712   5.523   5.434   7.495
  135OSM   C15F14713   5.661   5.474   7.637
  135OSM   H15F14714   5.557   5.432   7.670
  135OSM   H15G14715   5.647   5.581   7.617
  135OSM   C16F14716   5.793   5.472   7.737
  135OSM   H16F14717   5.864   5.532   7.687
  135OSM   H16G14718   5.843   5.384   7.725
  135OSM   C17F14719   5.813   5.479   7.900
  135OSM   H17F14720   5.906   5.424   7.914
  135OSM   H17G14721   5.764   5.417   7.978
  135OSM   C18F14722   5.806   5.622   7.965
  135OSM   H18F14723   5.801   5.615   8.076
  135OSM   H18G14724   5.726   5.686   7.974
  135OSM   H18H14725   5.858   5.695   7.902
  136OSM      N14726   4.115   6.655   5.922
  136OSM    C1514727   4.163   6.617   6.057
  136OSM   H15A14728   4.231   6.533   6.063
  136OSM   H15B14729   4.126   6.660   6.150
  136OSM   H15C14730   4.240   6.692   6.071
  136OSM    C1414731   4.193   6.582   5.815
  136OSM   H14A14732   4.287   6.631   5.789
  136OSM   H14B14733   4.135   6.572   5.725
  136OSM   H14C14734   4.223   6.484   5.850
  136OSM    C1314735   3.987   6.599   5.954
  136OSM   H13A14736   4.004   6.500   5.995
  136OSM   H13B14737   3.923   6.604   5.870
  136OSM   H13C14738   3.945   6.658   6.037
  136OSM    C1214739   4.102   6.808   5.899
  136OSM   H12A14740   4.201   6.847   5.876
  136OSM   H12B14741   4.078   6.856   5.994
  136OSM    C1114742   4.046   6.879   5.781
  136OSM   H11A14743   4.092   6.833   5.691
  136OSM   H11B14744   4.082   6.986   5.787
  136OSM      P14745   3.821   6.952   5.880
  136OSM    O1314746   3.835   7.088   5.824
  136OSM    O1414747   3.686   6.890   5.892
  136OSM    O1114748   3.899   6.941   6.022
  136OSM    O1214749   3.908   6.862   5.784
  136OSM    C1S14750   3.854   7.017   6.136
  136OSM    H1S14751   3.742   7.017   6.141
  136OSM    H1T14752   3.888   7.122   6.130
  136OSM     NF14753   4.016   7.009   6.328
  136OSM    HNF14754   4.088   6.940   6.332
  136OSM    C2S14755   3.901   6.957   6.274
  136OSM    H2S14756   3.827   6.979   6.354
  136OSM    C3S14757   3.921   6.810   6.266
  136OSM    H3S14758   3.981   6.768   6.184
  136OSM     O314759   3.805   6.765   6.225
  136OSM    HO314760   3.753   6.840   6.195
  136OSM    C4S14761   3.941   6.741   6.395
  136OSM    H4S14762   3.853   6.736   6.462
  136OSM    C5S14763   4.054   6.681   6.428
  136OSM    H5S14764   4.143   6.683   6.362
  136OSM    C6S14765   4.073   6.611   6.557
  136OSM    H6S14766   4.162   6.658   6.602
  136OSM    H6T14767   4.095   6.504   6.537
  136OSM    C7S14768   3.961   6.623   6.661
  136OSM    H7S14769   3.868   6.576   6.625
  136OSM    H7T14770   3.941   6.730   6.685
  136OSM    C8S14771   4.003   6.558   6.791
  136OSM    H8S14772   4.055   6.462   6.762
  136OSM    H8T14773   3.919   6.531   6.857
  136OSM    C9S14774   4.096   6.651   6.866
  136OSM    H9S14775   4.173   6.699   6.800
  136OSM    H9T14776   4.140   6.582   6.941
  136OSM   C10S14777   4.057   6.744   6.972
  136OSM   H10S14778   4.017   6.679   7.054
  136OSM   H10T14779   3.984   6.815   6.932
  136OSM   C11S14780   4.183   6.816   7.018
  136OSM   H11S14781   4.213   6.895   6.946
  136OSM   H11T14782   4.270   6.747   7.033
  136OSM   C12S14783   4.155   6.881   7.149
  136OSM   H12S14784   4.116   6.809   7.224
  136OSM   H12T14785   4.082   6.964   7.139
  136OSM   C13S14786   4.285   6.930   7.200
  136OSM   H13S14787   4.324   7.017   7.140
  136OSM   H13T14788   4.368   6.856   7.209
  136OSM   C14S14789   4.251   6.971   7.339
  136OSM   H14S14790   4.163   7.036   7.347
  136OSM   H14T14791   4.347   7.024   7.332
  136OSM   C15S14792   4.235   6.876   7.461
  136OSM   H15S14793   4.330   6.819   7.461
  136OSM   H15T14794   4.148   6.812   7.441
  136OSM   C16S14795   4.221   6.918   7.610
  136OSM   H16S14796   4.131   6.870   7.654
  136OSM   H16T14797   4.189   7.016   7.657
  136OSM   C17S14798   4.365   6.880   7.664
  136OSM   H17S14799   4.359   6.775   7.687
  136OSM   H17T14800   4.331   6.908   7.767
  136OSM   C18S14801   4.524   6.912   7.599
  136OSM   H18S14802   4.611   6.878   7.655
  136OSM   H18T14803   4.583   7.006   7.622
  136OSM   H18U14804   4.537   6.962   7.500
  136OSM    C1F14805   4.033   7.126   6.374
  136OSM     OF14806   3.987   7.230   6.330
  136OSM    C2F14807   4.144   7.130   6.459
  136OSM    H2F14808   4.182   7.185   6.371
  136OSM    H2G14809   4.221   7.054   6.489
  136OSM    C3F14810   4.146   7.202   6.585
  136OSM    H3F14811   4.102   7.302   6.574
  136OSM    H3G14812   4.253   7.219   6.604
  136OSM    C4F14813   4.096   7.098   6.682
  136OSM    H4F14814   4.150   7.104   6.778
  136OSM    H4G14815   4.115   6.994   6.645
  136OSM    C5F14816   3.951   7.133   6.691
  136OSM    H5F14817   3.900   7.126   6.592
  136OSM    H5G14818   3.955   7.240   6.721
  136OSM    C6F14819   3.877   7.056   6.798
  136OSM    H6F14820   3.943   7.058   6.888
  136OSM    H6G14821   3.862   6.950   6.769
  136OSM    C7F14822   3.744   7.124   6.832
  136OSM    H7F14823   3.671   7.119   6.748
  136OSM    H7G14824   3.766   7.231   6.851
  136OSM    C8F14825   3.685   7.066   6.959
  136OSM    H8F14826   3.619   7.142   7.006
  136OSM    H8G14827   3.769   7.049   7.029
  136OSM    C9F14828   3.609   6.939   6.929
  136OSM    H9F14829   3.596   6.909   6.825
  136OSM   C10F14830   3.561   6.866   7.029
  136OSM   H10F14831   3.490   6.782   7.010
  136OSM   C11F14832   3.587   6.915   7.168
  136OSM   H11F14833   3.512   6.870   7.225
  136OSM   H11G14834   3.555   7.019   7.190
  136OSM   C12F14835   3.724   6.885   7.233
  136OSM   H12F14836   3.802   6.928   7.169
  136OSM   H12G14837   3.756   6.778   7.233
  136OSM   C13F14838   3.743   6.943   7.375
  136OSM   H13F14839   3.768   7.049   7.355
  136OSM   H13G14840   3.831   6.890   7.419
  136OSM   C14F14841   3.626   6.948   7.477
  136OSM   H14F14842   3.614   6.854   7.530
  136OSM   H14G14843   3.527   6.966   7.431
  136OSM   C15F14844   3.648   7.030   7.601
  136OSM   H15F14845   3.584   6.984   7.681
  136OSM   H15G14846   3.608   7.130   7.577
  136OSM   C16F14847   3.793   7.024   7.651
  136OSM   H16F14848   3.865   7.047   7.570
  136OSM   H16G14849   3.814   6.918   7.681
  136OSM   C17F14850   3.813   7.114   7.773
  136OSM   H17F14851   3.722   7.103   7.836
  136OSM   H17G14852   3.818   7.221   7.742
  136OSM   C18F14853   3.929   7.075   7.864
  136OSM   H18F14854   3.921   7.133   7.958
  136OSM   H18G14855   4.030   7.094   7.821
  136OSM   H18H14856   3.921   6.966   7.887
  137OSM      N14857   0.869   4.482   5.766
  137OSM    C1514858   0.865   4.599   5.857
  137OSM   H15A14859   0.761   4.626   5.873
  137OSM   H15B14860   0.921   4.684   5.818
  137OSM   H15C14861   0.903   4.576   5.957
  137OSM    C1414862   0.803   4.515   5.635
  137OSM   H14A14863   0.845   4.604   5.588
  137OSM   H14B14864   0.696   4.533   5.652
  137OSM   H14C14865   0.804   4.434   5.563
  137OSM    C1314866   1.008   4.450   5.750
  137OSM   H13A14867   1.065   4.534   5.713
  137OSM   H13B14868   1.024   4.360   5.691
  137OSM   H13C14869   1.043   4.426   5.851
  137OSM    C1214870   0.798   4.368   5.836
  137OSM   H12A14871   0.836   4.364   5.938
  137OSM   H12B14872   0.816   4.272   5.790
  137OSM    C1114873   0.645   4.379   5.849
  137OSM   H11A14874   0.620   4.290   5.906
  137OSM   H11B14875   0.593   4.372   5.751
  137OSM      P14876   0.497   4.484   6.042
  137OSM    O1314877   0.503   4.614   6.111
  137OSM    O1414878   0.371   4.430   5.986
  137OSM    O1114879   0.551   4.370   6.137
  137OSM    O1214880   0.606   4.492   5.924
  137OSM    C1S14881   0.685   4.352   6.178
  137OSM    H1S14882   0.756   4.420   6.125
  137OSM    H1T14883   0.717   4.248   6.156
  137OSM     NF14884   0.834   4.396   6.362
  137OSM    HNF14885   0.897   4.325   6.395
  137OSM    C2S14886   0.697   4.365   6.331
  137OSM    H2S14887   0.631   4.446   6.371
  137OSM    C3S14888   0.649   4.233   6.393
  137OSM    H3S14889   0.704   4.148   6.345
  137OSM     O314890   0.510   4.206   6.376
  137OSM    HO314891   0.480   4.278   6.319
  137OSM    C4S14892   0.681   4.238   6.537
  137OSM    H4S14893   0.631   4.314   6.597
  137OSM    C5S14894   0.769   4.154   6.592
  137OSM    H5S14895   0.805   4.071   6.528
  137OSM    C6S14896   0.806   4.155   6.738
  137OSM    H6S14897   0.910   4.190   6.748
  137OSM    H6T14898   0.813   4.053   6.775
  137OSM    C7S14899   0.711   4.216   6.845
  137OSM    H7S14900   0.616   4.159   6.851
  137OSM    H7T14901   0.683   4.319   6.819
  137OSM    C8S14902   0.772   4.214   6.986
  137OSM    H8S14903   0.863   4.275   6.992
  137OSM    H8T14904   0.819   4.120   7.008
  137OSM    C9S14905   0.673   4.243   7.099
  137OSM    H9S14906   0.569   4.225   7.064
  137OSM    H9T14907   0.686   4.351   7.120
  137OSM   C10S14908   0.699   4.162   7.228
  137OSM   H10S14909   0.810   4.155   7.240
  137OSM   H10T14910   0.660   4.058   7.219
  137OSM   C11S14911   0.646   4.231   7.355
  137OSM   H11S14912   0.537   4.253   7.351
  137OSM   H11T14913   0.697   4.329   7.357
  137OSM   C12S14914   0.688   4.155   7.482
  137OSM   H12S14915   0.799   4.156   7.476
  137OSM   H12T14916   0.654   4.050   7.482
  137OSM   C13S14917   0.650   4.220   7.616
  137OSM   H13S14918   0.684   4.326   7.613
  137OSM   H13T14919   0.706   4.166   7.696
  137OSM   C14S14920   0.503   4.216   7.662
  137OSM   H14S14921   0.473   4.110   7.682
  137OSM   H14T14922   0.435   4.250   7.581
  137OSM   C15S14923   0.490   4.297   7.793
  137OSM   H15S14924   0.567   4.258   7.863
  137OSM   H15T14925   0.390   4.278   7.838
  137OSM   C16S14926   0.514   4.450   7.792
  137OSM   H16S14927   0.618   4.474   7.761
  137OSM   H16T14928   0.505   4.483   7.898
  137OSM   C17S14929   0.419   4.531   7.705
  137OSM   H17S14930   0.425   4.491   7.601
  137OSM   H17T14931   0.455   4.637   7.701
  137OSM   C18S14932   0.272   4.529   7.749
  137OSM   H18S14933   0.260   4.563   7.854
  137OSM   H18T14934   0.232   4.426   7.739
  137OSM   H18U14935   0.212   4.595   7.683
  137OSM    C1F14936   0.877   4.519   6.343
  137OSM     OF14937   0.810   4.605   6.290
  137OSM    C2F14938   1.017   4.539   6.381
  137OSM    H2F14939   1.065   4.610   6.313
  137OSM    H2G14940   1.076   4.447   6.378
  137OSM    C3F14941   1.029   4.589   6.523
  137OSM    H3F14942   0.991   4.684   6.520
  137OSM    H3G14943   1.133   4.625   6.523
  137OSM    C4F14944   0.955   4.508   6.636
  137OSM    H4F14945   1.019   4.418   6.625
  137OSM    H4G14946   0.853   4.477   6.616
  137OSM    C5F14947   0.935   4.559   6.785
  137OSM    H5F14948   1.033   4.590   6.773
  137OSM    H5G14949   0.947   4.494   6.872
  137OSM    C6F14950   0.866   4.686   6.835
  137OSM    H6F14951   0.800   4.732   6.768
  137OSM    H6G14952   0.934   4.758   6.820
  137OSM    C7F14953   0.904   4.762   6.962
  137OSM    H7F14954   0.869   4.869   6.940
  137OSM    H7G14955   1.011   4.770   6.992
  137OSM    C8F14956   0.851   4.667   7.062
  137OSM    H8F14957   0.913   4.576   7.057
  137OSM    H8G14958   0.750   4.653   7.020
  137OSM    C9F14959   0.838   4.698   7.202
  137OSM    H9F14960   0.777   4.785   7.216
  137OSM   C10F14961   0.881   4.639   7.312
  137OSM   H10F14962   0.861   4.671   7.410
  137OSM   C11F14963   0.951   4.529   7.358
  137OSM   H11F14964   0.985   4.492   7.262
  137OSM   H11G14965   0.875   4.464   7.404
  137OSM   C12F14966   1.058   4.582   7.459
  137OSM   H12F14967   1.142   4.632   7.405
  137OSM   H12G14968   1.106   4.494   7.498
  137OSM   C13F14969   1.028   4.632   7.599
  137OSM   H13F14970   0.993   4.734   7.581
  137OSM   H13G14971   1.127   4.639   7.650
  137OSM   C14F14972   0.928   4.543   7.677
  137OSM   H14F14973   0.947   4.436   7.676
  137OSM   H14G14974   0.831   4.536   7.626
  137OSM   C15F14975   0.908   4.576   7.825
  137OSM   H15F14976   0.849   4.493   7.870
  137OSM   H15G14977   0.852   4.668   7.839
  137OSM   C16F14978   1.034   4.593   7.906
  137OSM   H16F14979   1.010   4.625   8.007
  137OSM   H16G14980   1.106   4.666   7.861
  137OSM   C17F14981   1.095   4.459   7.919
  137OSM   H17F14982   1.190   4.468   7.971
  137OSM   H17G14983   1.106   4.436   7.812
  137OSM   C18F14984   1.024   4.350   7.993
  137OSM   H18F14985   1.054   4.251   7.965
  137OSM   H18G14986   0.919   4.340   7.966
  137OSM   H18H14987   1.045   4.362   8.102
  138OSM      N14988   1.281   5.881   5.803
  138OSM    C1514989   1.376   5.927   5.908
  138OSM   H15A14990   1.322   5.991   5.977
  138OSM   H15B14991   1.455   5.984   5.861
  138OSM   H15C14992   1.422   5.844   5.961
  138OSM    C1414993   1.204   6.003   5.764
  138OSM   H14A14994   1.140   5.984   5.679
  138OSM   H14B14995   1.273   6.081   5.741
  138OSM   H14C14996   1.140   6.037   5.846
  138OSM    C1314997   1.359   5.826   5.688
  138OSM   H13A14998   1.296   5.804   5.603
  138OSM   H13B14999   1.406   5.730   5.716
  138OSM   H13C15000   1.438   5.892   5.660
  138OSM    C1215001   1.188   5.771   5.858
  138OSM   H12A15002   1.097   5.774   5.800
  138OSM   H12B15003   1.158   5.796   5.960
  138OSM    C1115004   1.235   5.621   5.860
  138OSM   H11A15005   1.205   5.567   5.768
  138OSM   H11B15006   1.179   5.566   5.941
  138OSM      P15007   1.450   5.571   6.006
  138OSM    O1315008   1.473   5.425   6.010
  138OSM    O1415009   1.566   5.661   6.019
  138OSM    O1115010   1.336   5.612   6.108
  138OSM    O1215011   1.376   5.608   5.871
  138OSM    C1S15012   1.327   5.546   6.233
  138OSM    H1S15013   1.391   5.456   6.240
  138OSM    H1T15014   1.226   5.507   6.247
  138OSM     NF15015   1.392   5.577   6.459
  138OSM    HNF15016   1.329   5.566   6.535
  138OSM    C2S15017   1.353   5.648   6.346
  138OSM    H2S15018   1.442   5.711   6.323
  138OSM    C3S15019   1.231   5.735   6.374
  138OSM    H3S15020   1.141   5.670   6.386
  138OSM     O315021   1.205   5.832   6.275
  138OSM    HO315022   1.285   5.829   6.221
  138OSM    C4S15023   1.249   5.812   6.503
  138OSM    H4S15024   1.345   5.864   6.513
  138OSM    C5S15025   1.158   5.821   6.602
  138OSM    H5S15026   1.060   5.771   6.590
  138OSM    C6S15027   1.176   5.899   6.730
  138OSM    H6S15028   1.116   5.992   6.725
  138OSM    H6T15029   1.281   5.933   6.742
  138OSM    C7S15030   1.127   5.815   6.851
  138OSM    H7S15031   1.169   5.712   6.848
  138OSM    H7T15032   1.017   5.809   6.843
  138OSM    C8S15033   1.156   5.873   6.989
  138OSM    H8S15034   1.100   5.829   7.074
  138OSM    H8T15035   1.137   5.983   6.990
  138OSM    C9S15036   1.301   5.855   7.022
  138OSM    H9S15037   1.319   5.929   7.102
  138OSM    H9T15038   1.348   5.890   6.929
  138OSM   C10S15039   1.357   5.718   7.067
  138OSM   H10S15040   1.468   5.717   7.068
  138OSM   H10T15041   1.335   5.640   6.992
  138OSM   C11S15042   1.308   5.678   7.207
  138OSM   H11S15043   1.341   5.574   7.227
  138OSM   H11T15044   1.197   5.682   7.206
  138OSM   C12S15045   1.360   5.759   7.328
  138OSM   H12S15046   1.339   5.867   7.318
  138OSM   H12T15047   1.469   5.744   7.334
  138OSM   C13S15048   1.303   5.704   7.459
  138OSM   H13S15049   1.331   5.596   7.469
  138OSM   H13T15050   1.193   5.711   7.449
  138OSM   C14S15051   1.339   5.782   7.587
  138OSM   H14S15052   1.270   5.752   7.668
  138OSM   H14T15053   1.326   5.891   7.567
  138OSM   C15S15054   1.479   5.755   7.639
  138OSM   H15S15055   1.539   5.759   7.548
  138OSM   H15T15056   1.495   5.652   7.671
  138OSM   C16S15057   1.516   5.837   7.764
  138OSM   H16S15058   1.423   5.838   7.826
  138OSM   H16T15059   1.534   5.944   7.744
  138OSM   C17S15060   1.634   5.780   7.846
  138OSM   H17S15061   1.602   5.688   7.898
  138OSM   H17T15062   1.658   5.856   7.924
  138OSM   C18S15063   1.758   5.733   7.772
  138OSM   H18S15064   1.776   5.813   7.712
  138OSM   H18T15065   1.749   5.686   7.673
  138OSM   H18U15066   1.856   5.740   7.824
  138OSM    C1F15067   1.511   5.522   6.458
  138OSM     OF15068   1.582   5.490   6.364
  138OSM    C2F15069   1.533   5.477   6.586
  138OSM    H2F15070   1.479   5.384   6.548
  138OSM    H2G15071   1.498   5.531   6.677
  138OSM    C3F15072   1.634   5.387   6.621
  138OSM    H3F15073   1.691   5.482   6.629
  138OSM    H3G15074   1.648   5.305   6.543
  138OSM    C4F15075   1.691   5.349   6.757
  138OSM    H4F15076   1.794   5.344   6.765
  138OSM    H4G15077   1.674   5.241   6.759
  138OSM    C5F15078   1.658   5.442   6.872
  138OSM    H5F15079   1.555   5.479   6.873
  138OSM    H5G15080   1.732   5.524   6.879
  138OSM    C6F15081   1.657   5.372   7.001
  138OSM    H6F15082   1.719   5.290   6.954
  138OSM    H6G15083   1.670   5.275   7.050
  138OSM    C7F15084   1.655   5.468   7.119
  138OSM    H7F15085   1.548   5.483   7.124
  138OSM    H7G15086   1.714   5.560   7.097
  138OSM    C8F15087   1.701   5.425   7.258
  138OSM    H8F15088   1.707   5.498   7.343
  138OSM    H8G15089   1.800   5.444   7.243
  138OSM    C9F15090   1.720   5.288   7.302
  138OSM    H9F15091   1.794   5.215   7.263
  138OSM   C10F15092   1.647   5.247   7.390
  138OSM   H10F15093   1.685   5.155   7.434
  138OSM   C11F15094   1.538   5.324   7.449
  138OSM   H11F15095   1.450   5.274   7.401
  138OSM   H11G15096   1.531   5.430   7.424
  138OSM   C12F15097   1.543   5.321   7.599
  138OSM   H12F15098   1.641   5.335   7.646
  138OSM   H12G15099   1.578   5.219   7.621
  138OSM   C13F15100   1.407   5.385   7.661
  138OSM   H13F15101   1.318   5.351   7.605
  138OSM   H13G15102   1.434   5.487   7.646
  138OSM   C14F15103   1.353   5.388   7.812
  138OSM   H14F15104   1.449   5.395   7.851
  138OSM   H14G15105   1.298   5.305   7.866
  138OSM   C15F15106   1.320   5.491   7.906
  138OSM   H15F15107   1.364   5.575   7.853
  138OSM   H15G15108   1.363   5.465   8.009
  138OSM   C16F15109   1.174   5.466   7.899
  138OSM   H16F15110   1.157   5.378   7.965
  138OSM   H16G15111   1.149   5.439   7.793
  138OSM   C17F15112   1.094   5.585   7.925
  138OSM   H17F15113   0.987   5.560   7.925
  138OSM   H17G15114   1.126   5.654   7.845
  138OSM   C18F15115   1.137   5.645   8.051
  138OSM   H18F15116   1.131   5.577   8.130
  138OSM   H18G15117   1.085   5.737   8.082
  138OSM   H18H15118   1.244   5.645   8.049
  139OSM      N15119   5.296   6.551   5.827
  139OSM    C1515120   5.267   6.539   5.974
  139OSM   H15A15121   5.292   6.636   6.020
  139OSM   H15B15122   5.330   6.468   6.026
  139OSM   H15C15123   5.164   6.514   5.992
  139OSM    C1415124   5.445   6.561   5.813
  139OSM   H14A15125   5.492   6.478   5.863
  139OSM   H14B15126   5.479   6.654   5.858
  139OSM   H14C15127   5.474   6.565   5.709
  139OSM    C1315128   5.252   6.433   5.750
  139OSM   H13A15129   5.145   6.426   5.746
  139OSM   H13B15130   5.296   6.344   5.793
  139OSM   H13C15131   5.286   6.439   5.646
  139OSM    C1215132   5.233   6.677   5.770
  139OSM   H12A15133   5.129   6.658   5.747
  139OSM   H12B15134   5.281   6.705   5.676
  139OSM    C1115135   5.238   6.800   5.861
  139OSM   H11A15136   5.185   6.777   5.956
  139OSM   H11B15137   5.182   6.881   5.809
  139OSM      P15138   5.390   6.965   5.978
  139OSM    O1315139   5.530   7.014   5.981
  139OSM    O1415140   5.287   7.061   5.934
  139OSM    O1115141   5.350   6.896   6.118
  139OSM    O1215142   5.375   6.838   5.884
  139OSM    C1S15143   5.374   6.975   6.234
  139OSM    H1S15144   5.309   7.064   6.232
  139OSM    H1T15145   5.480   7.009   6.242
  139OSM     NF15146   5.335   6.983   6.475
  139OSM    HNF15147   5.395   6.970   6.552
  139OSM    C2S15148   5.346   6.894   6.362
  139OSM    H2S15149   5.252   6.834   6.348
  139OSM    C3S15150   5.455   6.792   6.387
  139OSM    H3S15151   5.540   6.860   6.411
  139OSM     O315152   5.487   6.705   6.280
  139OSM    HO315153   5.437   6.741   6.206
  139OSM    C4S15154   5.404   6.715   6.506
  139OSM    H4S15155   5.309   6.666   6.496
  139OSM    C5S15156   5.469   6.695   6.617
  139OSM    H5S15157   5.572   6.704   6.601
  139OSM    C6S15158   5.445   6.627   6.746
  139OSM    H6S15159   5.533   6.564   6.775
  139OSM    H6T15160   5.358   6.565   6.725
  139OSM    C7S15161   5.408   6.720   6.865
  139OSM    H7S15162   5.402   6.658   6.956
  139OSM    H7T15163   5.309   6.765   6.843
  139OSM    C8S15164   5.503   6.835   6.896
  139OSM    H8S15165   5.503   6.908   6.814
  139OSM    H8T15166   5.605   6.791   6.907
  139OSM    C9S15167   5.467   6.919   7.019
  139OSM    H9S15168   5.363   6.955   7.016
  139OSM    H9T15169   5.538   7.005   7.021
  139OSM   C10S15170   5.484   6.842   7.146
  139OSM   H10S15171   5.558   6.775   7.111
  139OSM   H10T15172   5.430   6.756   7.166
  139OSM   C11S15173   5.495   6.930   7.271
  139OSM   H11S15174   5.410   6.998   7.270
  139OSM   H11T15175   5.586   6.993   7.268
  139OSM   C12S15176   5.486   6.865   7.409
  139OSM   H12S15177   5.519   6.928   7.493
  139OSM   H12T15178   5.548   6.775   7.405
  139OSM   C13S15179   5.386   6.774   7.450
  139OSM   H13S15180   5.386   6.706   7.361
  139OSM   H13T15181   5.300   6.838   7.465
  139OSM   C14S15182   5.424   6.694   7.573
  139OSM   H14S15183   5.494   6.758   7.632
  139OSM   H14T15184   5.468   6.602   7.533
  139OSM   C15S15185   5.315   6.675   7.676
  139OSM   H15S15186   5.278   6.776   7.650
  139OSM   H15T15187   5.341   6.650   7.778
  139OSM   C16S15188   5.216   6.565   7.663
  139OSM   H16S15189   5.283   6.479   7.640
  139OSM   H16T15190   5.193   6.623   7.571
  139OSM   C17S15191   5.069   6.515   7.720
  139OSM   H17S15192   5.057   6.405   7.711
  139OSM   H17T15193   4.963   6.557   7.694
  139OSM   C18S15194   5.030   6.544   7.838
  139OSM   H18S15195   5.087   6.637   7.836
  139OSM   H18T15196   5.069   6.485   7.901
  139OSM   H18U15197   4.921   6.534   7.859
  139OSM    C1F15198   5.253   7.083   6.479
  139OSM     OF15199   5.161   7.091   6.400
  139OSM    C2F15200   5.277   7.181   6.590
  139OSM    H2F15201   5.187   7.204   6.642
  139OSM    H2G15202   5.289   7.284   6.555
  139OSM    C3F15203   5.371   7.128   6.700
  139OSM    H3F15204   5.468   7.106   6.648
  139OSM    H3G15205   5.335   7.033   6.748
  139OSM    C4F15206   5.405   7.232   6.807
  139OSM    H4F15207   5.439   7.320   6.748
  139OSM    H4G15208   5.486   7.191   6.871
  139OSM    C5F15209   5.296   7.293   6.895
  139OSM    H5F15210   5.207   7.320   6.835
  139OSM    H5G15211   5.330   7.391   6.934
  139OSM    C6F15212   5.260   7.215   7.019
  139OSM    H6F15213   5.343   7.170   7.077
  139OSM    H6G15214   5.206   7.123   6.987
  139OSM    C7F15215   5.191   7.310   7.116
  139OSM    H7F15216   5.105   7.369   7.074
  139OSM    H7G15217   5.252   7.386   7.165
  139OSM    C8F15218   5.145   7.234   7.237
  139OSM    H8F15219   5.077   7.163   7.194
  139OSM    H8G15220   5.084   7.315   7.286
  139OSM    C9F15221   5.187   7.109   7.305
  139OSM    H9F15222   5.212   7.029   7.232
  139OSM   C10F15223   5.159   7.072   7.431
  139OSM   H10F15224   5.201   6.982   7.470
  139OSM   C11F15225   5.083   7.142   7.537
  139OSM   H11F15226   5.009   7.075   7.588
  139OSM   H11G15227   5.032   7.219   7.483
  139OSM   C12F15228   5.150   7.237   7.634
  139OSM   H12F15229   5.073   7.299   7.686
  139OSM   H12G15230   5.214   7.307   7.576
  139OSM   C13F15231   5.214   7.151   7.737
  139OSM   H13F15232   5.306   7.103   7.696
  139OSM   H13G15233   5.139   7.073   7.763
  139OSM   C14F15234   5.240   7.222   7.866
  139OSM   H14F15235   5.149   7.277   7.898
  139OSM   H14G15236   5.324   7.293   7.856
  139OSM   C15F15237   5.272   7.117   7.968
  139OSM   H15F15238   5.237   7.014   7.945
  139OSM   H15G15239   5.224   7.149   8.063
  139OSM   C16F15240   5.418   7.107   7.984
  139OSM   H16F15241   5.483   7.155   7.908
  139OSM   H16G15242   5.454   7.002   7.993
  139OSM   C17F15243   5.438   7.173   8.113
  139OSM   H17F15244   5.397   7.268   8.153
  139OSM   H17G15245   5.539   7.191   8.107
  139OSM   C18F15246   5.470   7.073   8.202
  139OSM   H18F15247   5.492   6.969   8.175
  139OSM   H18G15248   5.423   7.040   8.280
  139OSM   H18H15249   5.492   7.126   8.299
  140OSM      N15250   0.797   1.564   5.763
  140OSM    C1515251   0.780   1.674   5.664
  140OSM   H15A15252   0.860   1.744   5.678
  140OSM   H15B15253   0.686   1.728   5.676
  140OSM   H15C15254   0.782   1.636   5.563
  140OSM    C1415255   0.923   1.491   5.732
  140OSM   H14A15256   0.917   1.445   5.634
  140OSM   H14B15257   0.935   1.404   5.799
  140OSM   H14C15258   1.010   1.554   5.739
  140OSM    C1315259   0.802   1.621   5.901
  140OSM   H13A15260   0.881   1.694   5.914
  140OSM   H13B15261   0.819   1.540   5.972
  140OSM   H13C15262   0.710   1.671   5.929
  140OSM    C1215263   0.682   1.469   5.750
  140OSM   H12A15264   0.675   1.441   5.645
  140OSM   H12B15265   0.594   1.526   5.775
  140OSM    C1115266   0.683   1.334   5.828
  140OSM   H11A15267   0.704   1.250   5.758
  140OSM   H11B15268   0.580   1.321   5.868
  140OSM      P15269   0.756   1.215   6.043
  140OSM    O1315270   0.690   1.096   5.988
  140OSM    O1415271   0.889   1.206   6.107
  140OSM    O1115272   0.646   1.282   6.133
  140OSM    O1215273   0.778   1.328   5.934
  140OSM    C1S15274   0.666   1.415   6.176
  140OSM    H1S15275   0.583   1.479   6.139
  140OSM    H1T15276   0.759   1.465   6.140
  140OSM     NF15277   0.799   1.399   6.384
  140OSM    HNF15278   0.821   1.313   6.430
  140OSM    C2S15279   0.666   1.424   6.329
  140OSM    H2S15280   0.641   1.518   6.350
  140OSM    C3S15281   0.554   1.335   6.396
  140OSM    H3S15282   0.582   1.230   6.378
  140OSM     O315283   0.428   1.351   6.335
  140OSM    HO315284   0.446   1.430   6.282
  140OSM    C4S15285   0.555   1.379   6.548
  140OSM    H4S15286   0.551   1.482   6.573
  140OSM    C5S15287   0.571   1.305   6.656
  140OSM    H5S15288   0.552   1.207   6.636
  140OSM    C6S15289   0.583   1.296   6.803
  140OSM    H6S15290   0.671   1.235   6.834
  140OSM    H6T15291   0.506   1.234   6.841
  140OSM    C7S15292   0.608   1.430   6.856
  140OSM    H7S15293   0.537   1.495   6.808
  140OSM    H7T15294   0.710   1.467   6.832
  140OSM    C8S15295   0.582   1.429   7.002
  140OSM    H8S15296   0.620   1.335   7.048
  140OSM    H8T15297   0.472   1.427   7.016
  140OSM    C9S15298   0.638   1.556   7.062
  140OSM    H9S15299   0.588   1.568   7.159
  140OSM    H9T15300   0.614   1.644   6.998
  140OSM   C10S15301   0.787   1.555   7.090
  140OSM   H10S15302   0.846   1.538   7.000
  140OSM   H10T15303   0.809   1.482   7.170
  140OSM   C11S15304   0.826   1.688   7.136
  140OSM   H11S15305   0.773   1.767   7.076
  140OSM   H11T15306   0.933   1.711   7.154
  140OSM   C12S15307   0.780   1.711   7.268
  140OSM   H12S15308   0.671   1.706   7.264
  140OSM   H12T15309   0.819   1.815   7.275
  140OSM   C13S15310   0.817   1.620   7.379
  140OSM   H13S15311   0.759   1.528   7.382
  140OSM   H13T15312   0.765   1.666   7.462
  140OSM   C14S15313   0.967   1.601   7.388
  140OSM   H14S15314   1.013   1.703   7.382
  140OSM   H14T15315   1.007   1.548   7.302
  140OSM   C15S15316   1.013   1.523   7.510
  140OSM   H15S15317   0.987   1.573   7.596
  140OSM   H15T15318   1.118   1.511   7.528
  140OSM   C16S15319   0.936   1.413   7.568
  140OSM   H16S15320   1.002   1.352   7.509
  140OSM   H16T15321   0.828   1.414   7.542
  140OSM   C17S15322   0.961   1.374   7.711
  140OSM   H17S15323   0.913   1.438   7.788
  140OSM   H17T15324   1.069   1.349   7.734
  140OSM   C18S15325   0.930   1.244   7.735
  140OSM   H18S15326   0.949   1.221   7.842
  140OSM   H18T15327   0.991   1.176   7.677
  140OSM   H18U15328   0.824   1.238   7.700
  140OSM    C1F15329   0.898   1.487   6.380
  140OSM     OF15330   0.898   1.586   6.306
  140OSM    C2F15331   1.006   1.454   6.477
  140OSM    H2F15332   1.092   1.516   6.463
  140OSM    H2G15333   1.058   1.362   6.450
  140OSM    C3F15334   0.957   1.453   6.623
  140OSM    H3F15335   0.863   1.402   6.621
  140OSM    H3G15336   0.929   1.552   6.664
  140OSM    C4F15337   1.056   1.378   6.714
  140OSM    H4F15338   1.140   1.437   6.697
  140OSM    H4G15339   1.099   1.285   6.674
  140OSM    C5F15340   1.016   1.364   6.862
  140OSM    H5F15341   0.922   1.310   6.862
  140OSM    H5G15342   0.982   1.457   6.905
  140OSM    C6F15343   1.127   1.303   6.955
  140OSM    H6F15344   1.203   1.377   6.933
  140OSM    H6G15345   1.174   1.210   6.919
  140OSM    C7F15346   1.112   1.311   7.112
  140OSM    H7F15347   1.045   1.395   7.145
  140OSM    H7G15348   1.209   1.310   7.162
  140OSM    C8F15349   1.072   1.192   7.187
  140OSM    H8F15350   1.104   1.101   7.123
  140OSM    H8G15351   0.990   1.217   7.115
  140OSM    C9F15352   1.029   1.198   7.348
  140OSM    H9F15353   1.131   1.202   7.404
  140OSM   C10F15354   0.886   1.192   7.415
  140OSM   H10F15355   0.896   1.156   7.521
  140OSM   C11F15356   0.716   1.173   7.343
  140OSM   H11F15357   0.659   1.071   7.304
  140OSM   H11G15358   0.683   1.146   7.233
  140OSM   C12F15359   0.594   1.215   7.393
  140OSM   H12F15360   0.510   1.185   7.323
  140OSM   H12G15361   0.648   1.308   7.366
  140OSM   C13F15362   0.589   1.162   7.532
  140OSM   H13F15363   0.662   1.222   7.588
  140OSM   H13G15364   0.609   1.056   7.561
  140OSM   C14F15365   0.447   1.162   7.565
  140OSM   H14F15366   0.442   1.122   7.669
  140OSM   H14G15367   0.399   1.090   7.493
  140OSM   C15F15368   0.395   1.302   7.545
  140OSM   H15F15369   0.291   1.296   7.581
  140OSM   H15G15370   0.393   1.332   7.438
  140OSM   C16F15371   0.478   1.413   7.612
  140OSM   H16F15372   0.424   1.507   7.592
  140OSM   H16G15373   0.579   1.423   7.567
  140OSM   C17F15374   0.490   1.397   7.762
  140OSM   H17F15375   0.554   1.312   7.777
  140OSM   H17G15376   0.392   1.368   7.805
  140OSM   C18F15377   0.549   1.518   7.833
  140OSM   H18F15378   0.650   1.544   7.797
  140OSM   H18G15379   0.545   1.505   7.943
  140OSM   H18H15380   0.488   1.604   7.812
  141OSM      N15381   7.268   4.963   5.764
  141OSM    C1515382   7.187   5.037   5.662
  141OSM   H15A15383   7.229   5.136   5.652
  141OSM   H15B15384   7.083   5.049   5.691
  141OSM   H15C15385   7.190   4.991   5.563
  141OSM    C1415386   7.403   4.930   5.711
  141OSM   H14A15387   7.455   5.016   5.674
  141OSM   H14B15388   7.395   4.854   5.634
  141OSM   H14C15389   7.459   4.884   5.792
  141OSM    C1315390   7.262   5.027   5.897
  141OSM   H13A15391   7.292   5.131   5.898
  141OSM   H13B15392   7.324   4.968   5.965
  141OSM   H13C15393   7.160   5.022   5.936
  141OSM    C1215394   7.212   4.832   5.788
  141OSM   H12A15395   7.212   4.795   5.686
  141OSM   H12B15396   7.113   4.845   5.830
  141OSM    C1115397   7.273   4.711   5.856
  141OSM   H11A15398   7.363   4.681   5.796
  141OSM   H11B15399   7.205   4.622   5.851
  141OSM      P15400   7.434   4.728   6.052
  141OSM    O1315401   7.485   4.610   5.980
  141OSM    O1415402   7.498   4.858   6.030
  141OSM    O1115403   7.393   4.705   6.204
  141OSM    O1215404   7.290   4.745   5.991
  141OSM    C1S15405   7.291   4.792   6.255
  141OSM    H1S15406   7.194   4.764   6.207
  141OSM    H1T15407   7.308   4.899   6.229
  141OSM     NF15408   7.146   4.819   6.453
  141OSM    HNF15409   7.142   4.895   6.518
  141OSM    C2S15410   7.281   4.779   6.410
  141OSM    H2S15411   7.289   4.674   6.440
  141OSM    C3S15412   7.397   4.862   6.487
  141OSM    H3S15413   7.391   4.971   6.465
  141OSM     O315414   7.527   4.846   6.440
  141OSM    HO315415   7.513   4.845   6.344
  141OSM    C4S15416   7.382   4.827   6.637
  141OSM    H4S15417   7.422   4.731   6.663
  141OSM    C5S15418   7.369   4.903   6.746
  141OSM    H5S15419   7.395   5.008   6.729
  141OSM    C6S15420   7.348   4.875   6.895
  141OSM    H6S15421   7.320   4.772   6.917
  141OSM    H6T15422   7.271   4.937   6.948
  141OSM    C7S15423   7.469   4.910   6.969
  141OSM    H7S15424   7.485   5.013   6.927
  141OSM    H7T15425   7.544   4.836   6.932
  141OSM    C8S15426   7.479   4.906   7.123
  141OSM    H8S15427   7.587   4.897   7.149
  141OSM    H8T15428   7.436   4.810   7.159
  141OSM    C9S15429   7.429   5.031   7.199
  141OSM    H9S15430   7.325   5.059   7.171
  141OSM    H9T15431   7.492   5.118   7.171
  141OSM   C10S15432   7.438   5.020   7.351
  141OSM   H10S15433   7.544   5.035   7.383
  141OSM   H10T15434   7.406   4.919   7.385
  141OSM   C11S15435   7.355   5.130   7.419
  141OSM   H11S15436   7.257   5.150   7.372
  141OSM   H11T15437   7.417   5.223   7.417
  141OSM   C12S15438   7.318   5.100   7.561
  141OSM   H12S15439   7.235   5.026   7.569
  141OSM   H12T15440   7.283   5.193   7.611
  141OSM   C13S15441   7.425   5.040   7.642
  141OSM   H13S15442   7.522   5.095   7.650
  141OSM   H13T15443   7.452   4.937   7.606
  141OSM   C14S15444   7.344   5.031   7.769
  141OSM   H14S15445   7.371   4.929   7.794
  141OSM   H14T15446   7.250   4.978   7.784
  141OSM   C15S15447   7.353   5.148   7.871
  141OSM   H15S15448   7.280   5.213   7.839
  141OSM   H15T15449   7.436   5.223   7.875
  141OSM   C16S15450   7.325   5.098   8.017
  141OSM   H16S15451   7.390   5.086   8.096
  141OSM   H16T15452   7.306   4.992   8.043
  141OSM   C17S15453   7.319   5.211   8.104
  141OSM   H17S15454   7.247   5.185   8.047
  141OSM   H17T15455   7.328   5.316   8.079
  141OSM   C18S15456   7.268   5.170   8.225
  141OSM   H18S15457   7.247   5.059   8.235
  141OSM   H18T15458   7.199   5.239   8.262
  141OSM   H18U15459   7.320   5.198   8.299
  141OSM    C1F15460   7.028   4.764   6.421
  141OSM     OF15461   7.008   4.701   6.320
  141OSM    C2F15462   6.923   4.791   6.521
  141OSM    H2F15463   6.820   4.773   6.480
  141OSM    H2G15464   6.937   4.896   6.546
  141OSM    C3F15465   6.959   4.733   6.659
  141OSM    H3F15466   7.062   4.750   6.690
  141OSM    H3G15467   6.964   4.631   6.666
  141OSM    C4F15468   6.856   4.761   6.764
  141OSM    H4F15469   6.754   4.781   6.721
  141OSM    H4G15470   6.916   4.844   6.806
  141OSM    C5F15471   6.841   4.707   6.902
  141OSM    H5F15472   6.791   4.618   6.867
  141OSM    H5G15473   6.759   4.755   6.958
  141OSM    C6F15474   6.968   4.703   6.992
  141OSM    H6F15475   7.007   4.804   7.003
  141OSM    H6G15476   7.049   4.650   6.936
  141OSM    C7F15477   6.951   4.645   7.138
  141OSM    H7F15478   6.889   4.555   7.151
  141OSM    H7G15479   6.881   4.698   7.202
  141OSM    C8F15480   7.081   4.588   7.195
  141OSM    H8F15481   7.145   4.533   7.123
  141OSM    H8G15482   7.058   4.518   7.277
  141OSM    C9F15483   7.158   4.696   7.252
  141OSM    H9F15484   7.201   4.760   7.174
  141OSM   C10F15485   7.177   4.713   7.382
  141OSM   H10F15486   7.230   4.805   7.407
  141OSM   C11F15487   7.125   4.626   7.496
  141OSM   H11F15488   7.123   4.516   7.472
  141OSM   H11G15489   7.018   4.651   7.517
  141OSM   C12F15490   7.199   4.649   7.630
  141OSM   H12F15491   7.227   4.756   7.637
  141OSM   H12G15492   7.291   4.587   7.638
  141OSM   C13F15493   7.113   4.618   7.753
  141OSM   H13F15494   7.116   4.510   7.769
  141OSM   H13G15495   7.007   4.648   7.736
  141OSM   C14F15496   7.161   4.675   7.885
  141OSM   H14F15497   7.143   4.785   7.882
  141OSM   H14G15498   7.270   4.653   7.895
  141OSM   C15F15499   7.082   4.619   8.004
  141OSM   H15F15500   7.081   4.508   8.002
  141OSM   H15G15501   6.978   4.656   7.990
  141OSM   C16F15502   7.134   4.664   8.141
  141OSM   H16F15503   7.158   4.773   8.133
  141OSM   H16G15504   7.230   4.613   8.166
  141OSM   C17F15505   7.033   4.650   8.258
  141OSM   H17F15506   6.949   4.719   8.233
  141OSM   H17G15507   7.082   4.691   8.349
  141OSM   C18F15508   6.964   4.515   8.287
  141OSM   H18F15509   7.030   4.433   8.323
  141OSM   H18G15510   6.906   4.482   8.198
  141OSM   H18H15511   6.891   4.530   8.368
  142OSM      N15512   7.251   5.764   5.778
  142OSM    C1515513   7.237   5.648   5.694
  142OSM   H15A15514   7.320   5.647   5.626
  142OSM   H15B15515   7.149   5.664   5.633
  142OSM   H15C15516   7.225   5.557   5.749
  142OSM    C1415517   7.382   5.762   5.848
  142OSM   H14A15518   7.464   5.743   5.780
  142OSM   H14B15519   7.376   5.679   5.918
  142OSM   H14C15520   7.399   5.854   5.900
  142OSM    C1315521   7.249   5.869   5.696
  142OSM   H13A15522   7.154   5.888   5.643
  142OSM   H13B15523   7.328   5.889   5.624
  142OSM   H13C15524   7.253   5.953   5.767
  142OSM    C1215525   7.134   5.786   5.868
  142OSM   H12A15526   7.039   5.784   5.813
  142OSM   H12B15527   7.138   5.885   5.911
  142OSM    C1115528   7.138   5.684   5.979
  142OSM   H11A15529   7.038   5.687   6.028
  142OSM   H11B15530   7.220   5.721   6.046
  142OSM      P15531   7.214   5.440   6.024
  142OSM    O1315532   7.208   5.313   5.947
  142OSM    O1415533   7.343   5.484   6.079
  142OSM    O1115534   7.099   5.446   6.130
  142OSM    O1215535   7.168   5.553   5.930
  142OSM    C1S15536   7.086   5.334   6.218
  142OSM    H1S15537   7.172   5.264   6.211
  142OSM    H1T15538   6.999   5.273   6.186
  142OSM     NF15539   7.096   5.279   6.454
  142OSM    HNF15540   7.028   5.260   6.524
  142OSM    C2S15541   7.067   5.384   6.363
  142OSM    H2S15542   7.140   5.466   6.385
  142OSM    C3S15543   6.924   5.438   6.386
  142OSM    H3S15544   6.853   5.356   6.378
  142OSM     O315545   6.880   5.522   6.282
  142OSM    HO315546   6.945   5.503   6.214
  142OSM    C4S15547   6.912   5.512   6.517
  142OSM    H4S15548   6.972   5.602   6.526
  142OSM    C5S15549   6.828   5.482   6.618
  142OSM    H5S15550   6.761   5.395   6.607
  142OSM    C6S15551   6.811   5.551   6.751
  142OSM    H6S15552   6.796   5.476   6.831
  142OSM    H6T15553   6.715   5.608   6.747
  142OSM    C7S15554   6.921   5.649   6.798
  142OSM    H7S15555   6.884   5.690   6.895
  142OSM    H7T15556   6.936   5.728   6.723
  142OSM    C8S15557   7.062   5.594   6.818
  142OSM    H8S15558   7.100   5.544   6.728
  142OSM    H8T15559   7.053   5.519   6.892
  142OSM    C9S15560   7.164   5.688   6.882
  142OSM    H9S15561   7.177   5.778   6.819
  142OSM    H9T15562   7.263   5.637   6.883
  142OSM   C10S15563   7.130   5.728   7.027
  142OSM   H10S15564   7.021   5.748   7.041
  142OSM   H10T15565   7.186   5.820   7.052
  142OSM   C11S15566   7.182   5.632   7.132
  142OSM   H11S15567   7.290   5.610   7.121
  142OSM   H11T15568   7.133   5.536   7.112
  142OSM   C12S15569   7.146   5.685   7.270
  142OSM   H12S15570   7.036   5.679   7.282
  142OSM   H12T15571   7.170   5.793   7.271
  142OSM   C13S15572   7.214   5.611   7.386
  142OSM   H13S15573   7.319   5.645   7.398
  142OSM   H13T15574   7.218   5.501   7.369
  142OSM   C14S15575   7.144   5.639   7.519
  142OSM   H14S15576   7.038   5.605   7.518
  142OSM   H14T15577   7.145   5.749   7.534
  142OSM   C15S15578   7.219   5.576   7.635
  142OSM   H15S15579   7.266   5.478   7.607
  142OSM   H15T15580   7.147   5.562   7.718
  142OSM   C16S15581   7.320   5.671   7.693
  142OSM   H16S15582   7.270   5.769   7.713
  142OSM   H16T15583   7.402   5.687   7.618
  142OSM   C17S15584   7.391   5.617   7.814
  142OSM   H17S15585   7.447   5.526   7.786
  142OSM   H17T15586   7.332   5.600   7.907
  142OSM   C18S15587   7.496   5.712   7.846
  142OSM   H18S15588   7.560   5.659   7.920
  142OSM   H18T15589   7.457   5.807   7.891
  142OSM   H18U15590   7.567   5.738   7.764
  142OSM    C1F15591   7.199   5.200   6.453
  142OSM     OF15592   7.301   5.203   6.387
  142OSM    C2F15593   7.170   5.094   6.540
  142OSM    H2F15594   7.232   5.015   6.519
  142OSM    H2G15595   7.070   5.048   6.535
  142OSM    C3F15596   7.218   5.130   6.673
  142OSM    H3F15597   7.319   5.172   6.690
  142OSM    H3G15598   7.194   5.028   6.712
  142OSM    C4F15599   7.135   5.198   6.757
  142OSM    H4F15600   7.045   5.178   6.699
  142OSM    H4G15601   7.145   5.308   6.763
  142OSM    C5F15602   7.142   5.111   6.882
  142OSM    H5F15603   7.193   5.125   6.980
  142OSM    H5G15604   7.100   5.007   6.875
  142OSM    C6F15605   7.058   5.167   6.953
  142OSM    H6F15606   6.974   5.221   6.873
  142OSM    H6G15607   7.064   5.278   6.940
  142OSM    C7F15608   7.003   5.059   7.112
  142OSM    H7F15609   7.013   4.954   7.106
  142OSM    H7G15610   6.880   5.038   7.137
  142OSM    C8F15611   7.002   5.112   7.261
  142OSM    H8F15612   7.073   5.193   7.272
  142OSM    H8G15613   7.039   5.023   7.313
  142OSM    C9F15614   6.884   5.186   7.322
  142OSM    H9F15615   6.818   5.242   7.267
  142OSM   C10F15616   6.801   5.170   7.412
  142OSM   H10F15617   6.724   5.243   7.455
  142OSM   C11F15618   6.852   5.041   7.446
  142OSM   H11F15619   6.846   4.954   7.379
  142OSM   H11G15620   6.751   5.050   7.473
  142OSM   C12F15621   6.972   5.016   7.535
  142OSM   H12F15622   7.052   5.094   7.526
  142OSM   H12G15623   6.979   4.917   7.585
  142OSM   C13F15624   6.930   5.064   7.656
  142OSM   H13F15625   6.865   4.998   7.717
  142OSM   H13G15626   6.890   5.152   7.608
  142OSM   C14F15627   7.003   5.128   7.752
  142OSM   H14F15628   7.115   5.118   7.729
  142OSM   H14G15629   7.009   5.028   7.806
  142OSM   C15F15630   6.978   5.347   7.934
  142OSM   H15F15631   6.919   5.336   7.998
  142OSM   H15G15632   6.977   5.456   7.906
  142OSM   C16F15633   7.103   5.419   8.009
  142OSM   H16F15634   7.180   5.475   7.951
  142OSM   H16G15635   7.165   5.341   8.012
  142OSM   C17F15636   7.047   5.475   8.137
  142OSM   H17F15637   6.967   5.547   8.109
  142OSM   H17G15638   7.139   5.505   8.182
  142OSM   C18F15639   6.990   5.390   8.242
  142OSM   H18F15640   7.050   5.313   8.273
  142OSM   H18G15641   6.900   5.333   8.216
  142OSM   H18H15642   6.980   5.424   8.344
  143OSM      N15643   0.589   6.805   5.731
  143OSM    C1515644   0.703   6.709   5.750
  143OSM   H15A15645   0.771   6.715   5.666
  143OSM   H15B15646   0.672   6.606   5.757
  143OSM   H15C15647   0.759   6.738   5.839
  143OSM    C1415648   0.652   6.937   5.703
  143OSM   H14A15649   0.728   6.956   5.779
  143OSM   H14B15650   0.579   7.016   5.711
  143OSM   H14C15651   0.696   6.938   5.605
  143OSM    C1315652   0.514   6.762   5.611
  143OSM   H13A15653   0.464   6.669   5.633
  143OSM   H13B15654   0.585   6.749   5.530
  143OSM   H13C15655   0.439   6.836   5.584
  143OSM    C1215656   0.494   6.810   5.851
  143OSM   H12A15657   0.441   6.716   5.854
  143OSM   H12B15658   0.420   6.888   5.837
  143OSM    C1115659   0.554   6.835   5.991
  143OSM   H11A15660   0.622   6.750   6.018
  143OSM   H11B15661   0.473   6.836   6.068
  143OSM      P15662   0.762   6.981   6.050
  143OSM    O1315663   0.851   6.914   5.951
  143OSM    O1415664   0.790   7.122   6.080
  143OSM    O1115665   0.763   6.897   6.184
  143OSM    O1215666   0.614   6.964   5.994
  143OSM    C1S15667   0.718   6.958   6.306
  143OSM    H1S15668   0.612   6.990   6.298
  143OSM    H1T15669   0.779   7.048   6.330
  143OSM     NF15670   0.655   6.902   6.541
  143OSM    HNF15671   0.713   6.911   6.621
  143OSM    C2S15672   0.725   6.856   6.423
  143OSM    H2S15673   0.680   6.760   6.390
  143OSM    C3S15674   0.871   6.827   6.458
  143OSM    H3S15675   0.933   6.919   6.469
  143OSM     O315676   0.931   6.749   6.357
  143OSM    HO315677   0.875   6.767   6.280
  143OSM    C4S15678   0.883   6.751   6.589
  143OSM    H4S15679   0.868   6.642   6.584
  143OSM    C5S15680   0.922   6.808   6.704
  143OSM    H5S15681   0.965   6.910   6.704
  143OSM    C6S15682   0.938   6.732   6.833
  143OSM    H6S15683   1.041   6.756   6.860
  143OSM    H6T15684   0.930   6.620   6.824
  143OSM    C7S15685   0.877   6.785   6.959
  143OSM    H7S15686   0.771   6.769   6.936
  143OSM    H7T15687   0.916   6.890   6.963
  143OSM    C8S15688   0.907   6.716   7.093
  143OSM    H8S15689   1.006   6.750   7.128
  143OSM    H8T15690   0.904   6.604   7.090
  143OSM    C9S15691   0.848   6.774   7.216
  143OSM    H9S15692   0.895   6.874   7.233
  143OSM    H9T15693   0.882   6.705   7.298
  143OSM   C10S15694   0.700   6.780   7.194
  143OSM   H10S15695   0.665   6.678   7.166
  143OSM   H10T15696   0.683   6.849   7.108
  143OSM   C11S15697   0.624   6.838   7.312
  143OSM   H11S15698   0.517   6.824   7.288
  143OSM   H11T15699   0.645   6.947   7.315
  143OSM   C12S15700   0.656   6.773   7.448
  143OSM   H12S15701   0.690   6.668   7.434
  143OSM   H12T15702   0.561   6.770   7.506
  143OSM   C13S15703   0.757   6.854   7.532
  143OSM   H13S15704   0.717   6.958   7.537
  143OSM   H13T15705   0.856   6.859   7.481
  143OSM   C14S15706   0.780   6.803   7.677
  143OSM   H14S15707   0.681   6.803   7.727
  143OSM   H14T15708   0.843   6.879   7.730
  143OSM   C15S15709   0.849   6.664   7.686
  143OSM   H15S15710   0.955   6.674   7.653
  143OSM   H15T15711   0.795   6.598   7.614
  143OSM   C16S15712   0.851   6.587   7.820
  143OSM   H16S15713   0.911   6.493   7.813
  143OSM   H16T15714   0.747   6.551   7.837
  143OSM   C17S15715   0.907   6.660   7.943
  143OSM   H17S15716   0.898   6.769   7.933
  143OSM   H17T15717   1.017   6.650   7.951
  143OSM   C18S15718   0.843   6.606   8.070
  143OSM   H18S15719   0.863   6.500   8.055
  143OSM   H18T15720   0.733   6.607   8.081
  143OSM   H18U15721   0.884   6.644   8.165
  143OSM    C1F15722   0.525   6.922   6.559
  143OSM     OF15723   0.440   6.904   6.474
  143OSM    C2F15724   0.493   6.965   6.698
  143OSM    H2F15725   0.584   6.956   6.762
  143OSM    H2G15726   0.412   6.903   6.743
  143OSM    C3F15727   0.454   7.110   6.698
  143OSM    H3F15728   0.374   7.126   6.622
  143OSM    H3G15729   0.533   7.181   6.667
  143OSM    C4F15730   0.408   7.147   6.839
  143OSM    H4F15731   0.305   7.107   6.857
  143OSM    H4G15732   0.412   7.257   6.831
  143OSM    C5F15733   0.495   7.141   6.963
  143OSM    H5F15734   0.586   7.197   6.932
  143OSM    H5G15735   0.517   7.035   6.987
  143OSM    C6F15736   0.432   7.204   7.089
  143OSM    H6F15737   0.413   7.312   7.073
  143OSM    H6G15738   0.508   7.218   7.167
  143OSM    C7F15739   0.308   7.118   7.133
  143OSM    H7F15740   0.341   7.018   7.163
  143OSM    H7G15741   0.228   7.114   7.057
  143OSM    C8F15742   0.227   7.159   7.253
  143OSM    H8F15743   0.164   7.236   7.199
  143OSM    H8G15744   0.307   7.195   7.324
  143OSM    C9F15745   0.112   7.110   7.331
  143OSM    H9F15746   0.015   7.150   7.299
  143OSM   C10F15747   0.126   7.041   7.442
  143OSM   H10F15748   0.036   7.011   7.495
  143OSM   C11F15749   0.256   6.999   7.503
  143OSM   H11F15750   0.342   6.989   7.433
  143OSM   H11G15751   0.238   6.898   7.544
  143OSM   C12F15752   0.303   7.085   7.618
  143OSM   H12F15753   0.226   7.088   7.699
  143OSM   H12G15754   0.324   7.190   7.586
  143OSM   C13F15755   0.432   7.016   7.663
  143OSM   H13F15756   0.516   7.055   7.601
  143OSM   H13G15757   0.423   6.907   7.661
  143OSM   C14F15758   0.466   7.049   7.799
  143OSM   H14F15759   0.576   7.023   7.820
  143OSM   H14G15760   0.401   7.005   7.879
  143OSM   C15F15761   0.440   7.192   7.803
  143OSM   H15F15762   0.333   7.231   7.818
  143OSM   H15G15763   0.471   7.258   7.721
  143OSM   C16F15764   0.528   7.184   7.927
  143OSM   H16F15765   0.472   7.141   8.007
  143OSM   H16G15766   0.450   7.269   7.951
  143OSM   C17F15767   0.722   7.191   7.951
  143OSM   H17F15768   0.796   7.291   7.936
  143OSM   H17G15769   0.779   7.133   7.885
  143OSM   C18F15770   0.797   7.231   8.075
  143OSM   H18F15771   0.708   7.243   8.136
  143OSM   H18G15772   0.875   7.314   8.106
  143OSM   H18H15773   0.788   7.178   8.157
  144OSM      N15774   6.419   0.351   5.871
  144OSM    C1515775   6.377   0.369   6.013
  144OSM   H15A15776   6.317   0.286   6.050
  144OSM   H15B15777   6.318   0.460   6.029
  144OSM   H15C15778   6.466   0.382   6.075
  144OSM    C1415779   6.513   0.237   5.860
  144OSM   H14A15780   6.467   0.147   5.895
  144OSM   H14B15781   6.603   0.263   5.917
  144OSM   H14C15782   6.545   0.222   5.758
  144OSM    C1315783   6.302   0.323   5.782
  144OSM   H13A15784   6.333   0.305   5.679
  144OSM   H13B15785   6.229   0.403   5.781
  144OSM   H13C15786   6.253   0.233   5.817
  144OSM    C1215787   6.491   0.473   5.823
  144OSM   H12A15788   6.420   0.555   5.820
  144OSM   H12B15789   6.526   0.453   5.724
  144OSM    C1115790   6.615   0.513   5.907
  144OSM   H11A15791   6.586   0.537   6.011
  144OSM   H11B15792   6.646   0.607   5.859
  144OSM      P15793   6.875   0.452   5.921
  144OSM    O1315794   6.960   0.344   5.864
  144OSM    O1415795   6.892   0.586   5.863
  144OSM    O1115796   6.894   0.463   6.078
  144OSM    O1215797   6.720   0.415   5.905
  144OSM    C1S15798   6.829   0.391   6.180
  144OSM    H1S15799   6.880   0.293   6.191
  144OSM    H1T15800   6.723   0.369   6.156
  144OSM     NF15801   6.779   0.595   6.317
  144OSM    HNF15802   6.833   0.675   6.293
  144OSM    C2S15803   6.840   0.468   6.317
  144OSM    H2S15804   6.787   0.408   6.396
  144OSM    C3S15805   6.985   0.485   6.353
  144OSM    H3S15806   7.033   0.559   6.287
  144OSM     O315807   7.060   0.370   6.332
  144OSM    HO315808   7.004   0.307   6.289
  144OSM    C4S15809   6.997   0.530   6.494
  144OSM    H4S15810   7.032   0.632   6.496
  144OSM    C5S15811   6.965   0.464   6.608
  144OSM    H5S15812   6.913   0.368   6.601
  144OSM    C6S15813   6.980   0.514   6.747
  144OSM    H6S15814   7.070   0.580   6.746
  144OSM    H6T15815   7.011   0.440   6.824
  144OSM    C7S15816   6.852   0.582   6.795
  144OSM    H7S15817   6.841   0.675   6.736
  144OSM    H7T15818   6.872   0.599   6.902
  144OSM    C8S15819   6.716   0.523   6.807
  144OSM    H8S15820   6.686   0.507   6.702
  144OSM    H8T15821   6.648   0.600   6.852
  144OSM    C9S15822   6.725   0.396   6.891
  144OSM    H9S15823   6.806   0.334   6.848
  144OSM    H9T15824   6.630   0.342   6.876
  144OSM   C10S15825   6.766   0.417   7.038
  144OSM   H10S15826   6.861   0.474   7.047
  144OSM   H10T15827   6.796   0.319   7.081
  144OSM   C11S15828   6.663   0.480   7.131
  144OSM   H11S15829   6.566   0.504   7.081
  144OSM   H11T15830   6.702   0.575   7.173
  144OSM   C12S15831   6.638   0.389   7.250
  144OSM   H12S15832   6.549   0.437   7.302
  144OSM   H12T15833   6.720   0.376   7.321
  144OSM   C13S15834   6.609   0.244   7.220
  144OSM   H13S15835   6.649   0.156   7.169
  144OSM   H13T15836   6.577   0.273   7.119
  144OSM   C14S15837   6.516   0.209   7.333
  144OSM   H14S15838   6.464   0.117   7.313
  144OSM   H14T15839   6.443   0.292   7.351
  144OSM   C15S15840   6.565   0.142   7.451
  144OSM   H15S15841   6.648   0.210   7.472
  144OSM   H15T15842   6.589   0.036   7.429
  144OSM   C16S15843   6.462   0.145   7.556
  144OSM   H16S15844   6.522   0.093   7.636
  144OSM   H16T15845   6.368   0.085   7.548
  144OSM   C17S15846   6.429   0.289   7.587
  144OSM   H17S15847   6.325   0.324   7.563
  144OSM   H17T15848   6.503   0.373   7.586
  144OSM   C18S15849   6.433   0.263   7.721
  144OSM   H18S15850   6.399   0.360   7.767
  144OSM   H18T15851   6.523   0.225   7.773
  144OSM   H18U15852   6.365   0.175   7.739
  144OSM    C1F15853   6.653   0.597   6.300
  144OSM     OF15854   6.589   0.495   6.286
  144OSM    C2F15855   6.601   0.735   6.294
  144OSM    H2F15856   6.531   0.745   6.207
  144OSM    H2G15857   6.690   0.799   6.293
  144OSM    C3F15858   6.541   0.802   6.418
  144OSM    H3F15859   6.505   0.705   6.435
  144OSM    H3G15860   6.455   0.866   6.385
  144OSM    C4F15861   6.558   0.781   6.570
  144OSM    H4F15862   6.633   0.703   6.592
  144OSM    H4G15863   6.466   0.749   6.624
  144OSM    C5F15864   6.580   0.917   6.616
  144OSM    H5F15865   6.485   0.973   6.594
  144OSM    H5G15866   6.666   0.945   6.550
  144OSM    C6F15867   6.627   0.943   6.754
  144OSM    H6F15868   6.650   1.051   6.760
  144OSM    H6G15869   6.720   0.885   6.762
  144OSM    C7F15870   6.525   0.915   6.861
  144OSM    H7F15871   6.495   0.809   6.872
  144OSM    H7G15872   6.441   0.973   6.828
  144OSM    C8F15873   6.556   0.977   6.994
  144OSM    H8F15874   6.467   0.981   7.061
  144OSM    H8G15875   6.588   1.077   6.983
  144OSM    C9F15876   6.677   0.906   7.034
  144OSM    H9F15877   6.758   0.907   6.963
  144OSM   C10F15878   6.696   0.845   7.149
  144OSM   H10F15879   6.797   0.821   7.189
  144OSM   C11F15880   6.598   0.842   7.252
  144OSM   H11F15881   6.507   0.904   7.248
  144OSM   H11G15882   6.668   0.921   7.270
  144OSM   C12F15883   6.595   0.741   7.366
  144OSM   H12F15884   6.572   0.650   7.312
  144OSM   H12G15885   6.511   0.767   7.435
  144OSM   C13F15886   6.715   0.707   7.454
  144OSM   H13F15887   6.748   0.793   7.513
  144OSM   H13G15888   6.805   0.685   7.394
  144OSM   C14F15889   6.679   0.598   7.561
  144OSM   H14F15890   6.707   0.503   7.514
  144OSM   H14G15891   6.569   0.606   7.570
  144OSM   C15F15892   6.730   0.595   7.710
  144OSM   H15F15893   6.687   0.519   7.772
  144OSM   H15G15894   6.707   0.692   7.762
  144OSM   C16F15895   6.873   0.557   7.725
  144OSM   H16F15896   6.906   0.481   7.645
  144OSM   H16G15897   6.935   0.548   7.816
  144OSM   C17F15898   6.897   0.692   7.690
  144OSM   H17F15899   6.882   0.714   7.594
  144OSM   H17G15900   6.975   0.640   7.642
  144OSM   C18F15901   6.914   0.813   7.784
  144OSM   H18F15902   6.971   0.898   7.736
  144OSM   H18G15903   6.964   0.781   7.875
  144OSM   H18H15904   6.850   0.872   7.821
  145SAPE     N15905   2.545   3.217   9.938
  145SAPE   HN115906   2.648   3.209   9.944
  145SAPE   HN215907   2.515   3.303   9.886
  145SAPE   HN315908   2.513   3.223  10.037
  145SAPE   C1215909   2.499   3.090   9.874
  145SAPE  H12A15910   2.575   3.059   9.799
  145SAPE  H12B15911   2.404   3.112   9.821
  145SAPE   C1115912   2.477   2.982   9.982
  145SAPE  H11A15913   2.438   2.888   9.937
  145SAPE  H11B15914   2.396   3.017  10.049
  145SAPE     P15915   2.682   2.835  10.055
  145SAPE   O1315916   2.818   2.877  10.091
  145SAPE   O1415917   2.634   2.715  10.126
  145SAPE   O1215918   2.591   2.963  10.065
  145SAPE   O1115919   2.675   2.818   9.903
  145SAPE    C115920   2.754   2.719   9.847
  145SAPE    HA15921   2.859   2.749   9.829
  145SAPE    HB15922   2.757   2.621   9.899
  145SAPE    C215923   2.694   2.684   9.720
  145SAPE    HS15924   2.717   2.597   9.692
  145SAPE   O2115925   2.707   2.798   9.630
  145SAPE   C2115926   2.834   2.838   9.597
  145SAPE   O2215927   2.943   2.797   9.626
  145SAPE   C2215928   2.837   2.945   9.498
  145SAPE   H2R15929   2.796   3.024   9.564
  145SAPE   H2S15930   2.946   2.966   9.480
  145SAPE    C315931   2.552   2.623   9.721
  145SAPE    HX15932   2.551   2.534   9.791
  145SAPE    HY15933   2.538   2.562   9.623
  145SAPE   O3115934   2.471   2.731   9.765
  145SAPE   C3115935   2.388   2.760   9.671
  145SAPE   O3215936   2.355   2.687   9.590
  145SAPE   C3215937   2.311   2.883   9.658
  145SAPE   H2X15938   2.379   2.943   9.716
  145SAPE   H2Y15939   2.218   2.846   9.705
  145SAPE   C2315940   2.754   2.915   9.372
  145SAPE   H3R15941   2.739   3.018   9.331
  145SAPE   H3S15942   2.655   2.872   9.393
  145SAPE   C2415943   2.805   2.816   9.266
  145SAPE   H4R15944   2.736   2.802   9.182
  145SAPE   H4S15945   2.861   2.724   9.285
  145SAPE   C2515946   2.900   2.898   9.218
  145SAPE   H5R15947   2.987   2.892   9.287
  145SAPE   C2615948   2.899   2.932   9.091
  145SAPE   H6R15949   2.964   3.017   9.083
  145SAPE   C2715950   2.816   2.906   8.963
  145SAPE   H7R15951   2.736   2.840   8.988
  145SAPE   H7S15952   2.870   2.843   8.898
  145SAPE   C2815953   2.794   3.014   8.865
  145SAPE   H8R15954   2.857   3.077   8.797
  145SAPE   C2915955   2.736   3.098   8.924
  145SAPE   H9R15956   2.801   3.183   8.918
  145SAPE  C21015957   2.682   3.100   9.055
  145SAPE  H10R15958   2.753   3.117   9.134
  145SAPE  H10S15959   2.647   3.004   9.086
  145SAPE  C21115960   2.575   3.201   9.026
  145SAPE  H11R15961   2.542   3.259   9.114
  145SAPE  C21215962   2.511   3.228   8.915
  145SAPE  H12R15963   2.508   3.337   8.918
  145SAPE  C21315964   2.515   3.178   8.776
  145SAPE  H13R15965   2.603   3.127   8.742
  145SAPE  H13S15966   2.516   3.272   8.717
  145SAPE  C21415967   2.403   3.086   8.754
  145SAPE  H14R15968   2.324   3.094   8.829
  145SAPE  C21515969   2.377   3.018   8.642
  145SAPE  H15R15970   2.270   3.010   8.623
  145SAPE  C21615971   2.460   3.021   8.517
  145SAPE  H16R15972   2.530   2.940   8.526
  145SAPE  H16S15973   2.532   3.105   8.531
  145SAPE  C21715974   2.382   3.013   8.377
  145SAPE  H17R15975   2.385   3.095   8.294
  145SAPE  H17S15976   2.275   3.002   8.383
  145SAPE  C21815977   2.454   2.928   8.292
  145SAPE  H18R15978   2.560   2.967   8.314
  145SAPE  H18S15979   2.402   2.946   8.191
  145SAPE  C21915980   2.456   2.789   8.299
  145SAPE  H19R15981   2.355   2.772   8.342
  145SAPE  H19S15982   2.542   2.775   8.367
  145SAPE  C22015983   2.475   2.730   8.160
  145SAPE  H20R15984   2.391   2.757   8.091
  145SAPE  H20S15985   2.475   2.622   8.176
  145SAPE  H20T15986   2.571   2.762   8.112
  145SAPE   C3315987   2.284   2.955   9.517
  145SAPE   H3X15988   2.381   2.989   9.474
  145SAPE   H3Y15989   2.220   3.037   9.553
  145SAPE   C3415990   2.188   2.924   9.399
  145SAPE   H4X15991   2.112   2.844   9.400
  145SAPE   H4Y15992   2.265   2.896   9.330
  145SAPE   C3515993   2.149   3.015   9.285
  145SAPE   H5X15994   2.083   3.094   9.322
  145SAPE   H5Y15995   2.072   2.951   9.232
  145SAPE   C3615996   2.268   3.063   9.189
  145SAPE   H6X15997   2.312   3.145   9.247
  145SAPE   H6Y15998   2.213   3.103   9.101
  145SAPE   C3715999   2.401   2.979   9.145
  145SAPE   H7X16000   2.465   2.949   9.226
  145SAPE   H7Y16001   2.454   3.038   9.080
  145SAPE   C3816002   2.419   2.906   9.004
  145SAPE   H8X16003   2.326   2.958   8.980
  145SAPE   H8Y16004   2.396   2.804   9.020
  145SAPE   C3916005   2.487   2.776   8.938
  145SAPE   H9X16006   2.568   2.741   9.006
  145SAPE   H9Y16007   2.507   2.850   8.859
  145SAPE  C31016008   2.424   2.644   8.864
  145SAPE  H10X16009   2.369   2.675   8.770
  145SAPE  H10Y16010   2.350   2.578   8.916
  145SAPE  C31116011   2.519   2.571   8.784
  145SAPE  H11X16012   2.470   2.503   8.709
  145SAPE  H11Y16013   2.582   2.515   8.855
  145SAPE  C31216014   2.582   2.686   8.710
  145SAPE  H12X16015   2.651   2.741   8.778
  145SAPE  H12Y16016   2.514   2.765   8.671
  145SAPE  C31316017   2.639   2.622   8.592
  145SAPE  H13X16018   2.574   2.613   8.503
  145SAPE  H13Y16019   2.682   2.522   8.616
  145SAPE  C31416020   2.724   2.715   8.528
  145SAPE  H14X16021   2.791   2.752   8.602
  145SAPE  H14Y16022   2.720   2.826   8.551
  145SAPE  C31516023   2.798   2.638   8.408
  145SAPE  H15X16024   2.757   2.585   8.328
  145SAPE  H15Y16025   2.854   2.548   8.437
  145SAPE  C31616026   2.865   2.744   8.326
  145SAPE  H16X16027   2.890   2.774   8.426
  145SAPE  H16Y16028   2.837   2.821   8.402
  145SAPE  C31716029   3.001   2.753   8.204
  145SAPE  H17X16030   2.939   2.745   8.118
  145SAPE  H17Y16031   3.051   2.666   8.248
  145SAPE  C31816032   3.133   2.870   8.151
  145SAPE  H18X16033   3.209   2.867   8.076
  145SAPE  H18Y16034   3.214   2.892   8.219
  145SAPE  H18Z16035   3.131   2.980   8.188
  146SAPE     N16036   2.427   2.199  10.093
  146SAPE   HN116037   2.402   2.209  10.193
  146SAPE   HN216038   2.438   2.097  10.074
  146SAPE   HN316039   2.519   2.246  10.077
  146SAPE   C1216040   2.326   2.262   9.998
  146SAPE  H12A16041   2.327   2.202   9.905
  146SAPE  H12B16042   2.361   2.366   9.976
  146SAPE   C1116043   2.183   2.269  10.056
  146SAPE  H11A16044   2.185   2.325  10.153
  146SAPE  H11B16045   2.149   2.166  10.078
  146SAPE     P16046   2.067   2.486   9.971
  146SAPE   O1316047   2.023   2.506  10.111
  146SAPE   O1416048   2.191   2.550   9.923
  146SAPE   O1216049   2.090   2.327   9.964
  146SAPE   O1116050   1.941   2.519   9.881
  146SAPE    C116051   1.822   2.441   9.901
  146SAPE    HA16052   1.830   2.372   9.989
  146SAPE    HB16053   1.739   2.510   9.923
  146SAPE    C216054   1.789   2.347   9.781
  146SAPE    HS16055   1.710   2.277   9.815
  146SAPE   O2116056   1.909   2.278   9.745
  146SAPE   C2116057   1.894   2.201   9.642
  146SAPE   O2216058   1.790   2.147   9.605
  146SAPE   C2216059   2.021   2.192   9.566
  146SAPE   H2R16060   1.995   2.123   9.483
  146SAPE   H2S16061   2.048   2.289   9.519
  146SAPE    C316062   1.732   2.424   9.659
  146SAPE    HX16063   1.639   2.466   9.702
  146SAPE    HY16064   1.694   2.362   9.576
  146SAPE   O3116065   1.826   2.525   9.617
  146SAPE   C3116066   1.888   2.518   9.500
  146SAPE   O3216067   1.873   2.432   9.416
  146SAPE   C3216068   1.955   2.656   9.477
  146SAPE   H2X16069   1.887   2.742   9.494
  146SAPE   H2Y16070   1.990   2.665   9.372
  146SAPE   C2316071   2.142   2.143   9.649
  146SAPE   H3R16072   2.120   2.036   9.680
  146SAPE   H3S16073   2.159   2.203   9.740
  146SAPE   C2416074   2.271   2.153   9.568
  146SAPE   H4R16075   2.340   2.089   9.632
  146SAPE   H4S16076   2.329   2.243   9.557
  146SAPE   C2516077   2.223   2.106   9.432
  146SAPE   H5R16078   2.193   2.008   9.466
  146SAPE   C2616079   2.258   2.125   9.299
  146SAPE   H6R16080   2.268   2.038   9.225
  146SAPE   C2716081   2.369   2.210   9.260
  146SAPE   H7R16082   2.446   2.208   9.333
  146SAPE   H7S16083   2.328   2.302   9.297
  146SAPE   C2816084   2.418   2.191   9.115
  146SAPE   H8R16085   2.504   2.126   9.086
  146SAPE   C2916086   2.353   2.239   9.017
  146SAPE   H9R16087   2.373   2.192   8.919
  146SAPE  C21016088   2.230   2.314   9.055
  146SAPE  H10R16089   2.221   2.381   8.970
  146SAPE  H10S16090   2.257   2.381   9.140
  146SAPE  C21116091   2.095   2.256   9.091
  146SAPE  H11R16092   2.070   2.251   9.199
  146SAPE  C21216093   2.009   2.208   9.003
  146SAPE  H12R16094   1.909   2.177   9.037
  146SAPE  C21316095   2.039   2.209   8.856
  146SAPE  H13R16096   2.143   2.173   8.841
  146SAPE  H13S16097   2.037   2.314   8.819
  146SAPE  C21416098   1.942   2.123   8.778
  146SAPE  H14R16099   1.847   2.104   8.830
  146SAPE  C21516100   1.970   2.056   8.665
  146SAPE  H15R16101   1.893   1.990   8.621
  146SAPE  C21616102   2.103   2.055   8.594
  146SAPE  H16R16103   2.136   1.950   8.575
  146SAPE  H16S16104   2.182   2.101   8.657
  146SAPE  C21716105   2.106   2.136   8.462
  146SAPE  H17R16106   2.064   2.235   8.489
  146SAPE  H17S16107   2.049   2.088   8.379
  146SAPE  C21816108   2.247   2.166   8.411
  146SAPE  H18R16109   2.279   2.077   8.353
  146SAPE  H18S16110   2.312   2.174   8.502
  146SAPE  C21916111   2.261   2.295   8.327
  146SAPE  H19R16112   2.357   2.343   8.356
  146SAPE  H19S16113   2.182   2.367   8.352
  146SAPE  C22016114   2.258   2.275   8.175
  146SAPE  H20R16115   2.161   2.243   8.134
  146SAPE  H20S16116   2.319   2.191   8.158
  146SAPE  H20T16117   2.311   2.350   8.114
  146SAPE   C3316118   2.063   2.671   9.579
  146SAPE   H3X16119   2.027   2.699   9.681
  146SAPE   H3Y16120   2.119   2.761   9.560
  146SAPE   C3416121   2.150   2.544   9.584
  146SAPE   H4X16122   2.089   2.460   9.620
  146SAPE   H4Y16123   2.206   2.559   9.678
  146SAPE   C3516124   2.238   2.501   9.457
  146SAPE   H5X16125   2.171   2.480   9.371
  146SAPE   H5Y16126   2.293   2.415   9.492
  146SAPE   C3616127   2.365   2.565   9.386
  146SAPE   H6X16128   2.403   2.487   9.324
  146SAPE   H6Y16129   2.459   2.604   9.436
  146SAPE   C3716130   2.328   2.686   9.317
  146SAPE   H7X16131   2.399   2.773   9.340
  146SAPE   H7Y16132   2.224   2.701   9.352
  146SAPE   C3816133   2.300   2.660   9.171
  146SAPE   H8X16134   2.235   2.575   9.160
  146SAPE   H8Y16135   2.407   2.646   9.142
  146SAPE   C3916136   2.201   2.762   9.100
  146SAPE   H9X16137   2.284   2.803   9.156
  146SAPE   H9Y16138   2.178   2.861   9.122
  146SAPE  C31016139   2.187   2.792   8.942
  146SAPE  H10X16140   2.259   2.766   8.877
  146SAPE  H10Y16141   2.215   2.881   8.876
  146SAPE  C31116142   2.081   2.729   8.883
  146SAPE  H11X16143   2.042   2.832   8.880
  146SAPE  H11Y16144   2.064   2.660   8.968
  146SAPE  C31216145   2.123   2.669   8.751
  146SAPE  H12X16146   2.193   2.583   8.759
  146SAPE  H12Y16147   2.169   2.744   8.681
  146SAPE  C31316148   1.996   2.618   8.700
  146SAPE  H13X16149   1.923   2.700   8.718
  146SAPE  H13Y16150   1.968   2.533   8.766
  146SAPE  C31416151   2.021   2.580   8.556
  146SAPE  H14X16152   2.109   2.512   8.550
  146SAPE  H14Y16153   2.044   2.671   8.496
  146SAPE  C31516154   1.901   2.505   8.504
  146SAPE  H15X16155   1.822   2.578   8.527
  146SAPE  H15Y16156   1.876   2.421   8.570
  146SAPE  C31616157   1.912   2.458   8.356
  146SAPE  H16X16158   1.996   2.389   8.350
  146SAPE  H16Y16159   1.936   2.543   8.288
  146SAPE  C31716160   1.787   2.383   8.302
  146SAPE  H17X16161   1.717   2.452   8.253
  146SAPE  H17Y16162   1.732   2.343   8.390
  146SAPE  C31816163   1.814   2.276   8.197
  146SAPE  H18X16164   1.900   2.211   8.222
  146SAPE  H18Y16165   1.834   2.326   8.099
  146SAPE  H18Z16166   1.723   2.213   8.184
  147SAPE     N16167   4.447   5.857  10.317
  147SAPE   HN116168   4.427   5.762  10.280
  147SAPE   HN216169   4.491   5.848  10.411
  147SAPE   HN316170   4.357   5.908  10.326
  147SAPE   C1216171   4.535   5.939  10.225
  147SAPE  H12A16172   4.631   5.885  10.209
  147SAPE  H12B16173   4.558   6.035  10.275
  147SAPE   C1116174   4.460   5.960  10.093
  147SAPE  H11A16175   4.367   6.019  10.110
  147SAPE  H11B16176   4.434   5.858  10.056
  147SAPE     P16177   4.600   5.963   9.872
  147SAPE   O1316178   4.614   6.060   9.762
  147SAPE   O1416179   4.717   5.886   9.920
  147SAPE   O1216180   4.536   6.034   9.999
  147SAPE   O1116181   4.487   5.859   9.838
  147SAPE    C116182   4.359   5.893   9.789
  147SAPE    HA16183   4.285   5.889   9.870
  147SAPE    HB16184   4.357   5.992   9.738
  147SAPE    C216185   4.321   5.788   9.687
  147SAPE    HS16186   4.302   5.687   9.734
  147SAPE   O2116187   4.420   5.783   9.586
  147SAPE   C2116188   4.515   5.698   9.605
  147SAPE   O2216189   4.514   5.603   9.682
  147SAPE   C2216190   4.605   5.720   9.483
  147SAPE   H2R16191   4.568   5.667   9.392
  147SAPE   H2S16192   4.601   5.820   9.444
  147SAPE    C316193   4.192   5.821   9.617
  147SAPE    HX16194   4.103   5.819   9.682
  147SAPE    HY16195   4.205   5.739   9.548
  147SAPE   O3116196   4.190   5.930   9.533
  147SAPE   C3116197   4.123   5.919   9.420
  147SAPE   O3216198   4.053   5.836   9.372
  147SAPE   C3216199   4.123   6.046   9.370
  147SAPE   H2X16200   4.072   6.094   9.457
  147SAPE   H2Y16201   4.069   6.030   9.278
  147SAPE   C2316202   4.748   5.689   9.515
  147SAPE   H3R16203   4.706   5.592   9.491
  147SAPE   H3S16204   4.787   5.661   9.615
  147SAPE   C2416205   4.857   5.714   9.412
  147SAPE   H4R16206   4.828   5.686   9.314
  147SAPE   H4S16207   4.950   5.654   9.432
  147SAPE   C2516208   4.886   5.840   9.354
  147SAPE   H5R16209   4.971   5.868   9.415
  147SAPE   C2616210   4.840   5.898   9.240
  147SAPE   H6R16211   4.899   5.985   9.216
  147SAPE   C2716212   4.740   5.853   9.130
  147SAPE   H7R16213   4.664   5.930   9.110
  147SAPE   H7S16214   4.683   5.755   9.144
  147SAPE   C2816215   4.831   5.845   9.011
  147SAPE   H8R16216   4.903   5.770   9.013
  147SAPE   C2916217   4.863   5.910   8.902
  147SAPE   H9R16218   4.953   5.876   8.847
  147SAPE  C21016219   4.810   6.033   8.856
  147SAPE  H10R16220   4.904   6.092   8.860
  147SAPE  H10S16221   4.738   6.067   8.932
  147SAPE  C21116222   4.757   6.022   8.715
  147SAPE  H11R16223   4.774   6.115   8.661
  147SAPE  C21216224   4.690   5.926   8.648
  147SAPE  H12R16225   4.666   5.946   8.543
  147SAPE  C21316226   4.641   5.791   8.692
  147SAPE  H13R16227   4.625   5.782   8.801
  147SAPE  H13S16228   4.716   5.712   8.666
  147SAPE  C21416229   4.507   5.773   8.628
  147SAPE  H14R16230   4.425   5.770   8.701
  147SAPE  C21516231   4.473   5.733   8.505
  147SAPE  H15R16232   4.373   5.688   8.490
  147SAPE  C21616233   4.566   5.696   8.398
  147SAPE  H16R16234   4.663   5.655   8.438
  147SAPE  H16S16235   4.592   5.782   8.336
  147SAPE  C21716236   4.488   5.597   8.311
  147SAPE  H17R16237   4.380   5.600   8.308
  147SAPE  H17S16238   4.509   5.493   8.345
  147SAPE  C21816239   4.535   5.607   8.169
  147SAPE  H18R16240   4.527   5.513   8.108
  147SAPE  H18S16241   4.637   5.632   8.202
  147SAPE  C21916242   4.552   5.721   8.077
  147SAPE  H19R16243   4.599   5.804   8.134
  147SAPE  H19S16244   4.451   5.723   8.039
  147SAPE  C22016245   4.619   5.700   7.946
  147SAPE  H20R16246   4.711   5.751   7.946
  147SAPE  H20S16247   4.615   5.780   7.873
  147SAPE  H20T16248   4.635   5.595   7.913
  147SAPE   C3316249   4.255   6.104   9.343
  147SAPE   H3X16250   4.329   6.021   9.335
  147SAPE   H3Y16251   4.280   6.169   9.429
  147SAPE   C3416252   4.250   6.179   9.213
  147SAPE   H4X16253   4.175   6.261   9.209
  147SAPE   H4Y16254   4.234   6.109   9.128
  147SAPE   C3516255   4.383   6.237   9.194
  147SAPE   H5X16256   4.464   6.160   9.189
  147SAPE   H5Y16257   4.409   6.306   9.280
  147SAPE   C3616258   4.381   6.309   9.063
  147SAPE   H6X16259   4.481   6.331   9.094
  147SAPE   H6Y16260   4.320   6.400   9.056
  147SAPE   C3716261   4.397   6.234   8.932
  147SAPE   H7X16262   4.296   6.193   8.917
  147SAPE   H7Y16263   4.476   6.157   8.942
  147SAPE   C3816264   4.437   6.320   8.813
  147SAPE   H8X16265   4.545   6.342   8.823
  147SAPE   H8Y16266   4.373   6.411   8.800
  147SAPE   C3916267   4.427   6.253   8.681
  147SAPE   H9X16268   4.503   6.174   8.665
  147SAPE   H9Y16269   4.437   6.329   8.599
  147SAPE  C31016270   4.298   6.183   8.675
  147SAPE  H10X16271   4.209   6.251   8.697
  147SAPE  H10Y16272   4.285   6.092   8.737
  147SAPE  C31116273   4.307   6.142   8.533
  147SAPE  H11X16274   4.335   6.223   8.464
  147SAPE  H11Y16275   4.205   6.156   8.533
  147SAPE  C31216276   4.333   5.997   8.482
  147SAPE  H12X16277   4.290   5.923   8.554
  147SAPE  H12Y16278   4.442   6.004   8.488
  147SAPE  C31316279   4.293   5.943   8.337
  147SAPE  H13X16280   4.185   5.913   8.341
  147SAPE  H13Y16281   4.341   5.849   8.308
  147SAPE  C31416282   4.329   6.030   8.214
  147SAPE  H14X16283   4.403   6.110   8.236
  147SAPE  H14Y16284   4.249   6.093   8.189
  147SAPE  C31516285   4.273   5.993   8.075
  147SAPE  H15X16286   4.167   5.960   8.076
  147SAPE  H15Y16287   4.345   5.913   8.055
  147SAPE  C31616288   4.275   6.105   7.970
  147SAPE  H16X16289   4.226   6.203   7.988
  147SAPE  H16Y16290   4.245   6.067   7.871
  147SAPE  C31716291   4.413   6.142   7.956
  147SAPE  H17X16292   4.469   6.060   8.006
  147SAPE  H17Y16293   4.428   6.236   8.012
  147SAPE  C31816294   4.454   6.146   7.813
  147SAPE  H18X16295   4.561   6.155   7.819
  147SAPE  H18Y16296   4.411   6.232   7.759
  147SAPE  H18Z16297   4.453   6.052   7.757
  148SAPE     N16298   3.245   0.897  10.140
  148SAPE   HN116299   3.295   0.960  10.208
  148SAPE   HN216300   3.147   0.885  10.173
  148SAPE   HN316301   3.293   0.805  10.135
  148SAPE   C1216302   3.243   0.960  10.002
  148SAPE  H12A16303   3.221   0.878   9.930
  148SAPE  H12B16304   3.343   1.003   9.985
  148SAPE   C1116305   3.140   1.072   9.982
  148SAPE  H11A16306   3.037   1.044  10.015
  148SAPE  H11B16307   3.131   1.089   9.872
  148SAPE     P16308   3.265   1.306   9.974
  148SAPE   O1316309   3.297   1.414  10.068
  148SAPE   O1416310   3.369   1.245   9.890
  148SAPE   O1216311   3.184   1.188  10.049
  148SAPE   O1116312   3.162   1.367   9.882
  148SAPE    C116313   3.054   1.418   9.958
  148SAPE    HA16314   2.994   1.341  10.017
  148SAPE    HB16315   3.069   1.513  10.016
  148SAPE    C216316   2.961   1.457   9.858
  148SAPE    HS16317   2.871   1.455   9.926
  148SAPE   O2116318   2.966   1.358   9.747
  148SAPE   C2116319   2.908   1.237   9.758
  148SAPE   O2216320   2.854   1.190   9.856
  148SAPE   C2216321   2.901   1.171   9.620
  148SAPE   H2R16322   2.921   1.244   9.540
  148SAPE   H2S16323   2.977   1.091   9.622
  148SAPE    C316324   2.965   1.601   9.792
  148SAPE    HX16325   2.942   1.671   9.874
  148SAPE    HY16326   2.883   1.622   9.719
  148SAPE   O3116327   3.091   1.635   9.735
  148SAPE   C3116328   3.110   1.577   9.619
  148SAPE   O3216329   3.024   1.544   9.538
  148SAPE   C3216330   3.255   1.566   9.590
  148SAPE   H2X16331   3.308   1.525   9.679
  148SAPE   H2Y16332   3.292   1.665   9.561
  148SAPE   C2316333   2.767   1.101   9.592
  148SAPE   H3R16334   2.683   1.174   9.603
  148SAPE   H3S16335   2.753   1.023   9.671
  148SAPE   C2416336   2.766   1.025   9.457
  148SAPE   H4R16337   2.689   0.948   9.458
  148SAPE   H4S16338   2.857   0.965   9.452
  148SAPE   C2516339   2.749   1.113   9.338
  148SAPE   H5R16340   2.658   1.173   9.344
  148SAPE   C2616341   2.812   1.114   9.220
  148SAPE   H6R16342   2.813   1.205   9.157
  148SAPE   C2716343   2.917   1.013   9.194
  148SAPE   H7R16344   2.910   0.929   9.266
  148SAPE   H7S16345   3.017   1.058   9.205
  148SAPE   C2816346   2.889   0.960   9.057
  148SAPE   H8R16347   2.789   0.915   9.043
  148SAPE   C2916348   2.971   0.970   8.952
  148SAPE   H9R16349   2.939   0.924   8.858
  148SAPE  C21016350   3.108   1.035   8.948
  148SAPE  H10R16351   3.135   1.036   8.841
  148SAPE  H10S16352   3.181   0.967   8.996
  148SAPE  C21116353   3.138   1.173   9.002
  148SAPE  H11R16354   3.210   1.168   9.084
  148SAPE  C21216355   3.116   1.295   8.947
  148SAPE  H12R16356   3.149   1.385   9.001
  148SAPE  C21316357   3.053   1.327   8.814
  148SAPE  H13R16358   3.073   1.252   8.737
  148SAPE  H13S16359   3.082   1.428   8.780
  148SAPE  C21416360   2.909   1.332   8.826
  148SAPE  H14R16361   2.883   1.392   8.914
  148SAPE  C21516362   2.818   1.275   8.744
  148SAPE  H15R16363   2.714   1.283   8.764
  148SAPE  C21616364   2.821   1.194   8.623
  148SAPE  H16R16365   2.746   1.112   8.637
  148SAPE  H16S16366   2.921   1.153   8.613
  148SAPE  C21716367   2.782   1.267   8.494
  148SAPE  H17R16368   2.833   1.366   8.486
  148SAPE  H17S16369   2.673   1.285   8.491
  148SAPE  C21816370   2.805   1.173   8.378
  148SAPE  H18R16371   2.771   1.072   8.404
  148SAPE  H18S16372   2.912   1.175   8.348
  148SAPE  C21916373   2.728   1.211   8.258
  148SAPE  H19R16374   2.616   1.199   8.272
  148SAPE  H19S16375   2.755   1.152   8.168
  148SAPE  C22016376   2.769   1.351   8.229
  148SAPE  H20R16377   2.730   1.428   8.297
  148SAPE  H20S16378   2.711   1.342   8.140
  148SAPE  H20T16379   2.852   1.392   8.172
  148SAPE   C3316380   3.262   1.473   9.469
  148SAPE   H3X16381   3.209   1.521   9.383
  148SAPE   H3Y16382   3.218   1.375   9.498
  148SAPE   C3416383   3.401   1.446   9.422
  148SAPE   H4X16384   3.408   1.358   9.356
  148SAPE   H4Y16385   3.470   1.434   9.510
  148SAPE   C3516386   3.440   1.565   9.342
  148SAPE   H5X16387   3.435   1.638   9.424
  148SAPE   H5Y16388   3.385   1.606   9.256
  148SAPE   C3616389   3.577   1.541   9.297
  148SAPE   H6X16390   3.623   1.485   9.381
  148SAPE   H6Y16391   3.640   1.628   9.276
  148SAPE   C3716392   3.597   1.496   9.157
  148SAPE   H7X16393   3.701   1.472   9.135
  148SAPE   H7Y16394   3.569   1.579   9.090
  148SAPE   C3816395   3.528   1.368   9.136
  148SAPE   H8X16396   3.424   1.390   9.153
  148SAPE   H8Y16397   3.566   1.301   9.216
  148SAPE   C3916398   3.524   1.324   8.992
  148SAPE   H9X16399   3.599   1.257   8.979
  148SAPE   H9Y16400   3.541   1.404   8.918
  148SAPE  C31016401   3.466   1.191   8.951
  148SAPE  H10X16402   3.369   1.222   8.981
  148SAPE  H10Y16403   3.498   1.102   9.012
  148SAPE  C31116404   3.476   1.156   8.802
  148SAPE  H11X16405   3.430   1.056   8.799
  148SAPE  H11Y16406   3.570   1.134   8.748
  148SAPE  C31216407   3.407   1.256   8.713
  148SAPE  H12X16408   3.470   1.343   8.682
  148SAPE  H12Y16409   3.324   1.297   8.773
  148SAPE  C31316410   3.366   1.184   8.586
  148SAPE  H13X16411   3.314   1.089   8.611
  148SAPE  H13Y16412   3.459   1.154   8.532
  148SAPE  C31416413   3.279   1.270   8.495
  148SAPE  H14X16414   3.328   1.369   8.481
  148SAPE  H14Y16415   3.181   1.286   8.543
  148SAPE  C31516416   3.254   1.197   8.365
  148SAPE  H15X16417   3.194   1.105   8.383
  148SAPE  H15Y16418   3.353   1.158   8.329
  148SAPE  C31616419   3.184   1.281   8.257
  148SAPE  H16X16420   3.205   1.390   8.259
  148SAPE  H16Y16421   3.075   1.264   8.261
  148SAPE  C31716422   3.237   1.233   8.126
  148SAPE  H17X16423   3.174   1.260   8.038
  148SAPE  H17Y16424   3.221   1.126   8.148
  148SAPE  C31816425   3.383   1.278   8.111
  148SAPE  H18X16426   3.447   1.207   8.057
  148SAPE  H18Y16427   3.445   1.269   8.199
  148SAPE  H18Z16428   3.386   1.381   8.068
  149SAPE     N16429   0.889   3.800   9.859
  149SAPE   HN116430   0.876   3.769   9.958
  149SAPE   HN216431   0.852   3.896   9.840
  149SAPE   HN316432   0.840   3.728   9.802
  149SAPE   C1216433   1.038   3.800   9.834
  149SAPE  H12A16434   1.080   3.877   9.901
  149SAPE  H12B16435   1.057   3.826   9.728
  149SAPE   C1116436   1.102   3.663   9.861
  149SAPE  H11A16437   1.210   3.679   9.886
  149SAPE  H11B16438   1.096   3.605   9.766
  149SAPE     P16439   1.094   3.535  10.095
  149SAPE   O1316440   1.178   3.644  10.148
  149SAPE   O1416441   0.981   3.498  10.181
  149SAPE   O1216442   1.031   3.592   9.961
  149SAPE   O1116443   1.184   3.413  10.052
  149SAPE    C116444   1.142   3.322   9.951
  149SAPE    HA16445   1.117   3.224  10.000
  149SAPE    HB16446   1.054   3.356   9.892
  149SAPE    C216447   1.252   3.305   9.845
  149SAPE    HS16448   1.347   3.329   9.897
  149SAPE   O2116449   1.231   3.396   9.739
  149SAPE   C2116450   1.331   3.411   9.657
  149SAPE   O2216451   1.434   3.347   9.654
  149SAPE   C2216452   1.276   3.528   9.571
  149SAPE   H2R16453   1.178   3.500   9.531
  149SAPE   H2S16454   1.276   3.614   9.642
  149SAPE    C316455   1.248   3.165   9.787
  149SAPE    HX16456   1.253   3.101   9.871
  149SAPE    HY16457   1.329   3.144   9.712
  149SAPE   O3116458   1.121   3.121   9.758
  149SAPE   C3116459   1.111   3.075   9.644
  149SAPE   O3216460   1.189   3.016   9.571
  149SAPE   C3216461   0.974   3.107   9.619
  149SAPE   H2X16462   0.911   3.150   9.700
  149SAPE   H2Y16463   0.951   3.001   9.604
  149SAPE   C2316464   1.341   3.582   9.447
  149SAPE   H3R16465   1.370   3.503   9.375
  149SAPE   H3S16466   1.422   3.629   9.501
  149SAPE   C2416467   1.307   3.717   9.389
  149SAPE   H4R16468   1.275   3.783   9.471
  149SAPE   H4S16469   1.230   3.687   9.318
  149SAPE   C2516470   1.433   3.772   9.330
  149SAPE   H5R16471   1.496   3.843   9.387
  149SAPE   C2616472   1.463   3.738   9.209
  149SAPE   H6R16473   1.548   3.790   9.173
  149SAPE   C2716474   1.392   3.654   9.106
  149SAPE   H7R16475   1.421   3.547   9.114
  149SAPE   H7S16476   1.468   3.675   9.027
  149SAPE   C2816477   1.235   3.685   9.076
  149SAPE   H8R16478   1.185   3.601   9.122
  149SAPE   C2916479   1.144   3.747   8.984
  149SAPE   H9R16480   1.048   3.709   8.959
  149SAPE  C21016481   1.133   3.822   8.850
  149SAPE  H10R16482   1.182   3.912   8.880
  149SAPE  H10S16483   1.120   3.938   8.839
  149SAPE  C21116484   1.195   3.726   8.733
  149SAPE  H11R16485   1.288   3.665   8.750
  149SAPE  C21216486   1.195   3.743   8.596
  149SAPE  H12R16487   1.266   3.688   8.529
  149SAPE  C21316488   1.133   3.857   8.520
  149SAPE  H13R16489   1.141   3.823   8.416
  149SAPE  H13S16490   1.181   3.958   8.518
  149SAPE  C21416491   1.006   3.876   8.595
  149SAPE  H14R16492   1.013   3.963   8.664
  149SAPE  C21516493   0.923   3.771   8.621
  149SAPE  H15R16494   0.850   3.786   8.700
  149SAPE  C21616495   0.950   3.625   8.574
  149SAPE  H16R16496   0.957   3.549   8.654
  149SAPE  H16S16497   1.043   3.601   8.515
  149SAPE  C21716498   0.850   3.589   8.470
  149SAPE  H17R16499   0.753   3.587   8.522
  149SAPE  H17S16500   0.877   3.486   8.438
  149SAPE  C21816501   0.856   3.679   8.345
  149SAPE  H18R16502   0.880   3.785   8.367
  149SAPE  H18S16503   0.756   3.679   8.298
  149SAPE  C21916504   0.956   3.627   8.241
  149SAPE  H19R16505   0.919   3.528   8.204
  149SAPE  H19S16506   1.056   3.608   8.285
  149SAPE  C22016507   0.965   3.725   8.124
  149SAPE  H20R16508   0.864   3.732   8.077
  149SAPE  H20S16509   1.038   3.695   8.047
  149SAPE  H20T16510   0.992   3.825   8.163
  149SAPE   C3316511   0.946   3.163   9.486
  149SAPE   H3X16512   0.835   3.168   9.501
  149SAPE   H3Y16513   0.994   3.087   9.421
  149SAPE   C3416514   0.986   3.295   9.437
  149SAPE   H4X16515   1.097   3.289   9.442
  149SAPE   H4Y16516   0.939   3.359   9.513
  149SAPE   C3516517   0.933   3.330   9.295
  149SAPE   H5X16518   0.916   3.439   9.292
  149SAPE   H5Y16519   0.838   3.281   9.265
  149SAPE   C3616520   1.037   3.305   9.187
  149SAPE   H6X16521   1.058   3.198   9.195
  149SAPE   H6Y16522   1.128   3.366   9.211
  149SAPE   C3716523   0.993   3.335   9.043
  149SAPE   H7X16524   0.962   3.441   9.034
  149SAPE   H7Y16525   0.909   3.267   9.016
  149SAPE   C3816526   1.104   3.309   8.943
  149SAPE   H8X16527   1.116   3.198   8.947
  149SAPE   H8Y16528   1.195   3.365   8.975
  149SAPE   C3916529   1.069   3.344   8.799
  149SAPE   H9X16530   1.058   3.454   8.797
  149SAPE   H9Y16531   0.974   3.292   8.778
  149SAPE  C31016532   1.166   3.310   8.685
  149SAPE  H10X16533   1.103   3.313   8.592
  149SAPE  H10Y16534   1.214   3.211   8.689
  149SAPE  C31116535   1.271   3.416   8.661
  149SAPE  H11X16536   1.327   3.442   8.753
  149SAPE  H11Y16537   1.218   3.504   8.625
  149SAPE  C31216538   1.368   3.375   8.552
  149SAPE  H12X16539   1.383   3.265   8.559
  149SAPE  H12Y16540   1.461   3.430   8.575
  149SAPE  C31316541   1.324   3.403   8.409
  149SAPE  H13X16542   1.411   3.433   8.346
  149SAPE  H13Y16543   1.244   3.480   8.401
  149SAPE  C31416544   1.273   3.275   8.347
  149SAPE  H14X16545   1.180   3.241   8.397
  149SAPE  H14Y16546   1.349   3.194   8.357
  149SAPE  C31516547   1.250   3.298   8.199
  149SAPE  H15X16548   1.342   3.334   8.150
  149SAPE  H15Y16549   1.159   3.360   8.179
  149SAPE  C31616550   1.222   3.164   8.146
  149SAPE  H16X16551   1.144   3.142   8.216
  149SAPE  H16Y16552   1.263   3.092   8.208
  149SAPE  C31716553   1.216   3.138   7.991
  149SAPE  H17X16554   1.320   3.111   7.976
  149SAPE  H17Y16555   1.191   3.235   7.944
  149SAPE  C31816556   1.159   3.026   7.901
  149SAPE  H18X16557   1.154   2.925   7.940
  149SAPE  H18Y16558   1.196   3.011   7.802
  149SAPE  H18Z16559   1.062   3.063   7.876
  150SAPE     N16560   1.734   1.450  10.236
  150SAPE   HN116561   1.645   1.396  10.247
  150SAPE   HN216562   1.809   1.385  10.200
  150SAPE   HN316563   1.764   1.488  10.327
  150SAPE   C1216564   1.722   1.563  10.138
  150SAPE  H12A16565   1.682   1.654  10.189
  150SAPE  H12B16566   1.655   1.528  10.060
  150SAPE   C1116567   1.855   1.591  10.071
  150SAPE  H11A16568   1.878   1.509   9.998
  150SAPE  H11B16569   1.932   1.588  10.151
  150SAPE     P16570   1.985   1.743   9.915
  150SAPE   O1316571   1.997   1.883   9.871
  150SAPE   O1416572   2.096   1.681   9.991
  150SAPE   O1216573   1.856   1.720  10.008
  150SAPE   O1116574   1.950   1.651   9.791
  150SAPE    C116575   1.837   1.682   9.710
  150SAPE    HA16576   1.742   1.670   9.766
  150SAPE    HB16577   1.843   1.788   9.675
  150SAPE    C216578   1.832   1.591   9.585
  150SAPE    HS16579   1.811   1.486   9.617
  150SAPE   O2116580   1.954   1.599   9.512
  150SAPE   C2116581   2.046   1.512   9.546
  150SAPE   O2216582   2.040   1.426   9.631
  150SAPE   C2216583   2.167   1.532   9.459
  150SAPE   H2R16584   2.177   1.642   9.460
  150SAPE   H2S16585   2.254   1.478   9.502
  150SAPE    C316586   1.716   1.635   9.492
  150SAPE    HX16587   1.720   1.745   9.482
  150SAPE    HY16588   1.620   1.610   9.541
  150SAPE   O3116589   1.730   1.582   9.358
  150SAPE   C3116590   1.648   1.486   9.329
  150SAPE   O3216591   1.579   1.421   9.406
  150SAPE   C3216592   1.647   1.470   9.182
  150SAPE   H2X16593   1.726   1.527   9.129
  150SAPE   H2Y16594   1.547   1.489   9.138
  150SAPE   C2316595   2.159   1.521   9.309
  150SAPE   H3R16596   2.095   1.609   9.282
  150SAPE   H3S16597   2.110   1.427   9.280
  150SAPE   C2416598   2.294   1.527   9.237
  150SAPE   H4R16599   2.271   1.519   9.130
  150SAPE   H4S16600   2.371   1.454   9.265
  150SAPE   C2516601   2.354   1.658   9.244
  150SAPE   H5R16602   2.447   1.662   9.302
  150SAPE   C2616603   2.294   1.769   9.203
  150SAPE   H6R16604   2.358   1.852   9.205
  150SAPE   C2716605   2.165   1.813   9.144
  150SAPE   H7R16606   2.125   1.719   9.104
  150SAPE   H7S16607   2.190   1.877   9.056
  150SAPE   C2816608   2.062   1.891   9.226
  150SAPE   H8R16609   2.083   1.980   9.283
  150SAPE   C2916610   1.932   1.878   9.213
  150SAPE   H9R16611   1.865   1.951   9.262
  150SAPE  C21016612   1.877   1.784   9.113
  150SAPE  H10R16613   1.771   1.774   9.138
  150SAPE  H10S16614   1.926   1.685   9.130
  150SAPE  C21116615   1.899   1.836   8.973
  150SAPE  H11R16616   1.905   1.946   8.964
  150SAPE  C21216617   1.912   1.762   8.863
  150SAPE  H12R16618   1.946   1.807   8.769
  150SAPE  C21316619   1.907   1.612   8.856
  150SAPE  H13R16620   1.858   1.582   8.761
  150SAPE  H13S16621   1.845   1.570   8.938
  150SAPE  C21416622   2.045   1.555   8.866
  150SAPE  H14R16623   2.061   1.491   8.954
  150SAPE  C21516624   2.142   1.566   8.776
  150SAPE  H15R16625   2.240   1.519   8.798
  150SAPE  C21616626   2.133   1.641   8.645
  150SAPE  H16R16627   2.155   1.750   8.656
  150SAPE  H16S16628   2.038   1.624   8.589
  150SAPE  C21716629   2.241   1.590   8.555
  150SAPE  H17R16630   2.323   1.611   8.626
  150SAPE  H17S16631   2.261   1.657   8.469
  150SAPE  C21816632   2.227   1.443   8.514
  150SAPE  H18R16633   2.228   1.378   8.603
  150SAPE  H18S16634   2.312   1.401   8.455
  150SAPE  C21916635   2.111   1.413   8.425
  150SAPE  H19R16636   2.021   1.408   8.487
  150SAPE  H19S16637   2.143   1.318   8.386
  150SAPE  C22016638   2.093   1.496   8.300
  150SAPE  H20R16639   2.185   1.503   8.240
  150SAPE  H20S16640   2.059   1.596   8.330
  150SAPE  H20T16641   2.022   1.445   8.231
  150SAPE   C3316642   1.677   1.329   9.152
  150SAPE   H3X16643   1.641   1.342   9.049
  150SAPE   H3Y16644   1.628   1.250   9.212
  150SAPE   C3416645   1.822   1.315   9.151
  150SAPE   H4X16646   1.858   1.305   9.256
  150SAPE   H4Y16647   1.873   1.389   9.086
  150SAPE   C3516648   1.876   1.195   9.100
  150SAPE   H5X16649   1.856   1.117   9.173
  150SAPE   H5Y16650   1.984   1.214   9.099
  150SAPE   C3616651   1.866   1.157   8.962
  150SAPE   H6X16652   1.772   1.106   8.959
  150SAPE   H6Y16653   1.875   1.059   8.919
  150SAPE   C3716654   1.934   1.250   8.861
  150SAPE   H7X16655   2.044   1.247   8.846
  150SAPE   H7Y16656   1.905   1.355   8.874
  150SAPE   C3816657   1.886   1.199   8.727
  150SAPE   H8X16658   1.869   1.095   8.727
  150SAPE   H8Y16659   1.943   1.280   8.674
  150SAPE   C3916660   1.612   1.233   8.600
  150SAPE   H9X16661   1.657   1.137   8.626
  150SAPE   H9Y16662   1.564   1.151   8.567
  150SAPE  C31016663   1.561   1.388   8.634
  150SAPE  H10X16664   1.598   1.450   8.727
  150SAPE  H10Y16665   1.476   1.388   8.701
  150SAPE  C31116666   1.657   1.482   8.568
  150SAPE  H11X16667   1.767   1.476   8.594
  150SAPE  H11Y16668   1.628   1.584   8.598
  150SAPE  C31216669   1.629   1.437   8.428
  150SAPE  H12X16670   1.522   1.409   8.421
  150SAPE  H12Y16671   1.669   1.345   8.389
  150SAPE  C31316672   1.694   1.520   8.325
  150SAPE  H13X16673   1.644   1.486   8.232
  150SAPE  H13Y16674   1.804   1.506   8.325
  150SAPE  C31416675   1.672   1.662   8.354
  150SAPE  H14X16676   1.716   1.722   8.273
  150SAPE  H14Y16677   1.717   1.698   8.450
  150SAPE  C31516678   1.525   1.677   8.358
  150SAPE  H15X16679   1.538   1.767   8.418
  150SAPE  H15Y16680   1.460   1.620   8.428
  150SAPE  C31616681   1.462   1.680   8.217
  150SAPE  H16X16682   1.354   1.698   8.240
  150SAPE  H16Y16683   1.444   1.579   8.175
  150SAPE  C31716684   1.535   1.773   8.106
  150SAPE  H17X16685   1.459   1.787   8.023
  150SAPE  H17Y16686   1.618   1.718   8.063
  150SAPE  C31816687   1.599   1.915   8.137
  150SAPE  H18X16688   1.548   1.995   8.190
  150SAPE  H18Y16689   1.609   1.984   8.050
  150SAPE  H18Z16690   1.666   1.915   8.223
  151SAPE     N16691   5.612   5.518  10.097
  151SAPE   HN116692   5.653   5.538  10.189
  151SAPE   HN216693   5.511   5.546  10.098
  151SAPE   HN316694   5.620   5.418  10.071
  151SAPE   C1216695   5.688   5.601   9.997
  151SAPE  H12A16696   5.666   5.707  10.024
  151SAPE  H12B16697   5.650   5.578   9.896
  151SAPE   C1116698   5.841   5.579  10.006
  151SAPE  H11A16699   5.871   5.565  10.112
  151SAPE  H11B16700   5.890   5.673   9.973
  151SAPE     P16701   5.985   5.363   9.982
  151SAPE   O1316702   5.920   5.324  10.109
  151SAPE   O1416703   6.008   5.257   9.882
  151SAPE   O1216704   5.886   5.471   9.923
  151SAPE   O1116705   6.112   5.451  10.012
  151SAPE    C116706   6.213   5.470   9.913
  151SAPE    HA16707   6.310   5.478   9.963
  151SAPE    HB16708   6.219   5.386   9.839
  151SAPE    C216709   6.198   5.604   9.841
  151SAPE    HS16710   6.178   5.689   9.907
  151SAPE   O2116711   6.092   5.580   9.755
  151SAPE   C2116712   6.025   5.679   9.728
  151SAPE   O2216713   6.050   5.799   9.745
  151SAPE   C2216714   5.905   5.624   9.668
  151SAPE   H2R16715   5.810   5.619   9.719
  151SAPE   H2S16716   5.887   5.731   9.645
  151SAPE    C316717   6.321   5.637   9.765
  151SAPE    HX16718   6.408   5.642   9.829
  151SAPE    HY16719   6.319   5.731   9.708
  151SAPE   O3116720   6.347   5.530   9.686
  151SAPE   C3116721   6.295   5.542   9.572
  151SAPE   O3216722   6.196   5.592   9.533
  151SAPE   C3216723   6.380   5.473   9.493
  151SAPE   H2X16724   6.310   5.389   9.545
  151SAPE   H2Y16725   6.464   5.428   9.545
  151SAPE   C2316726   5.926   5.513   9.550
  151SAPE   H3R16727   5.978   5.428   9.594
  151SAPE   H3S16728   5.989   5.557   9.468
  151SAPE   C2416729   5.802   5.448   9.476
  151SAPE   H4R16730   5.724   5.504   9.431
  151SAPE   H4S16731   5.729   5.419   9.555
  151SAPE   C2516732   5.813   5.366   9.351
  151SAPE   H5R16733   5.778   5.265   9.371
  151SAPE   C2616734   5.836   5.397   9.220
  151SAPE   H6R16735   5.821   5.322   9.144
  151SAPE   C2716736   5.861   5.523   9.144
  151SAPE   H7R16737   5.936   5.525   9.068
  151SAPE   H7S16738   5.910   5.601   9.195
  151SAPE   C2816739   5.742   5.575   9.089
  151SAPE   H8R16740   5.669   5.615   9.159
  151SAPE   C2916741   5.701   5.566   8.969
  151SAPE   H9R16742   5.609   5.617   8.944
  151SAPE  C21016743   5.773   5.496   8.870
  151SAPE  H10R16744   5.721   5.404   8.893
  151SAPE  H10S16745   5.871   5.488   8.903
  151SAPE  C21116746   5.780   5.550   8.735
  151SAPE  H11R16747   5.752   5.656   8.730
  151SAPE  C21216748   5.781   5.487   8.619
  151SAPE  H12R16749   5.741   5.536   8.528
  151SAPE  C21316750   5.776   5.347   8.594
  151SAPE  H13R16751   5.675   5.377   8.584
  151SAPE  H13S16752   5.789   5.270   8.671
  151SAPE  C21416753   5.740   5.307   8.463
  151SAPE  H14R16754   5.650   5.252   8.443
  151SAPE  C21516755   5.820   5.305   8.375
  151SAPE  H15R16756   5.776   5.233   8.305
  151SAPE  C21616757   5.958   5.345   8.429
  151SAPE  H16R16758   5.991   5.327   8.538
  151SAPE  H16S16759   6.005   5.413   8.358
  151SAPE  C21716760   6.059   5.254   8.405
  151SAPE  H17R16761   6.021   5.251   8.291
  151SAPE  H17S16762   6.042   5.164   8.476
  151SAPE  C21816763   6.213   5.258   8.411
  151SAPE  H18R16764   6.257   5.161   8.394
  151SAPE  H18S16765   6.260   5.253   8.511
  151SAPE  C21916766   6.258   5.312   8.276
  151SAPE  H19R16767   6.201   5.405   8.279
  151SAPE  H19S16768   6.226   5.265   8.180
  151SAPE  C22016769   6.400   5.330   8.253
  151SAPE  H20R16770   6.422   5.385   8.158
  151SAPE  H20S16771   6.460   5.238   8.256
  151SAPE  H20T16772   6.432   5.370   8.348
  151SAPE   C3316773   6.424   5.481   9.314
  151SAPE   H3X16774   6.502   5.547   9.290
  151SAPE   H3Y16775   6.354   5.554   9.319
  151SAPE   C3416776   6.387   5.344   9.169
  151SAPE   H4X16777   6.420   5.253   9.188
  151SAPE   H4Y16778   6.466   5.347   9.097
  151SAPE   C3516779   6.237   5.226   9.149
  151SAPE   H5X16780   6.173   5.166   9.224
  151SAPE   H5Y16781   6.270   5.137   9.160
  151SAPE   C3616782   6.110   5.236   9.081
  151SAPE   H6X16783   6.043   5.280   9.157
  151SAPE   H6Y16784   6.062   5.138   9.059
  151SAPE   C3716785   6.158   5.322   8.977
  151SAPE   H7X16786   6.265   5.335   8.944
  151SAPE   H7Y16787   6.123   5.411   9.027
  151SAPE   C3816788   6.067   5.333   8.872
  151SAPE   H8X16789   5.972   5.318   8.929
  151SAPE   H8Y16790   6.099   5.251   8.806
  151SAPE   C3916791   6.080   5.469   8.817
  151SAPE   H9X16792   6.065   5.553   8.891
  151SAPE   H9Y16793   6.000   5.476   8.745
  151SAPE  C31016794   6.199   5.487   8.733
  151SAPE  H10X16795   6.224   5.415   8.655
  151SAPE  H10Y16796   6.291   5.489   8.797
  151SAPE  C31116797   6.169   5.609   8.652
  151SAPE  H11X16798   6.248   5.628   8.576
  151SAPE  H11Y16799   6.167   5.664   8.749
  151SAPE  C31216800   6.057   5.702   8.622
  151SAPE  H12X16801   6.077   5.812   8.610
  151SAPE  H12Y16802   5.975   5.702   8.695
  151SAPE  C31316803   6.041   5.656   8.485
  151SAPE  H13X16804   5.991   5.560   8.502
  151SAPE  H13Y16805   6.132   5.644   8.423
  151SAPE  C31416806   5.959   5.757   8.427
  151SAPE  H14X16807   5.986   5.864   8.443
  151SAPE  H14Y16808   5.881   5.744   8.509
  151SAPE  C31516809   5.922   5.718   8.284
  151SAPE  H15X16810   5.840   5.774   8.246
  151SAPE  H15Y16811   5.875   5.618   8.276
  151SAPE  C31616812   6.003   5.777   8.172
  151SAPE  H16X16813   6.054   5.864   8.217
  151SAPE  H16Y16814   5.939   5.820   8.089
  151SAPE  C31716815   6.100   5.672   8.122
  151SAPE  H17X16816   6.142   5.620   8.210
  151SAPE  H17Y16817   6.169   5.727   8.058
  151SAPE  C31816818   6.050   5.555   8.046
  151SAPE  H18X16819   5.962   5.511   8.099
  151SAPE  H18Y16820   6.107   5.475   8.002
  151SAPE  H18Z16821   6.023   5.593   7.946
  152SAPE     N16822   0.682   5.216  10.201
  152SAPE   HN116823   0.756   5.199  10.272
  152SAPE   HN216824   0.627   5.129  10.184
  152SAPE   HN316825   0.723   5.242  10.108
  152SAPE   C1216826   0.592   5.330  10.242
  152SAPE  H12A16827   0.656   5.419  10.260
  152SAPE  H12B16828   0.543   5.300  10.337
  152SAPE   C1116829   0.490   5.366  10.132
  152SAPE  H11A16830   0.420   5.441  10.172
  152SAPE  H11B16831   0.431   5.275  10.105
  152SAPE     P16832   0.567   5.354   9.877
  152SAPE   O1316833   0.656   5.439   9.797
  152SAPE   O1416834   0.616   5.218   9.907
  152SAPE   O1216835   0.553   5.426  10.019
  152SAPE   O1116836   0.417   5.356   9.824
  152SAPE    C116837   0.375   5.468   9.743
  152SAPE    HA16838   0.276   5.503   9.779
  152SAPE    HB16839   0.445   5.555   9.750
  152SAPE    C216840   0.369   5.434   9.592
  152SAPE    HS16841   0.295   5.353   9.576
  152SAPE   O2116842   0.502   5.403   9.545
  152SAPE   C2116843   0.522   5.296   9.471
  152SAPE   O2216844   0.437   5.220   9.430
  152SAPE   C2216845   0.671   5.283   9.436
  152SAPE   H2R16846   0.700   5.377   9.386
  152SAPE   H2S16847   0.730   5.270   9.529
  152SAPE    C316848   0.318   5.556   9.514
  152SAPE    HX16849   0.399   5.630   9.516
  152SAPE    HY16850   0.226   5.600   9.559
  152SAPE   O3116851   0.303   5.525   9.378
  152SAPE   C3116852   0.187   5.478   9.350
  152SAPE   O3216853   0.090   5.472   9.423
  152SAPE   C3216854   0.205   5.428   9.211
  152SAPE   H2X16855   0.121   5.376   9.178
  152SAPE   H2Y16856   0.290   5.357   9.205
  152SAPE   C2316857   0.704   5.167   9.340
  152SAPE   H3R16858   0.651   5.074   9.371
  152SAPE   H3S16859   0.814   5.149   9.351
  152SAPE   C2416860   0.675   5.208   9.195
  152SAPE   H4R16861   0.727   5.306   9.183
  152SAPE   H4S16862   0.566   5.231   9.187
  152SAPE   C2516863   0.721   5.116   9.084
  152SAPE   H5R16864   0.818   5.140   9.038
  152SAPE   C2616865   0.658   5.007   9.038
  152SAPE   H6R16866   0.695   4.957   8.948
  152SAPE   C2716867   0.528   4.955   9.088
  152SAPE   H7R16868   0.512   4.973   9.196
  152SAPE   H7S16869   0.508   4.850   9.065
  152SAPE   C2816870   0.421   5.028   9.024
  152SAPE   H8R16871   0.362   5.063   9.106
  152SAPE   C2916872   0.382   5.033   8.895
  152SAPE   H9R16873   0.288   5.070   8.859
  152SAPE  C21016874   0.425   4.973   8.777
  152SAPE  H10R16875   0.346   4.937   8.707
  152SAPE  H10S16876   0.463   4.889   8.832
  152SAPE  C21116877   0.527   5.058   8.713
  152SAPE  H11R16878   0.626   5.033   8.748
  152SAPE  C21216879   0.508   5.157   8.626
  152SAPE  H12R16880   0.587   5.187   8.560
  152SAPE  C21316881   0.381   5.202   8.574
  152SAPE  H13R16882   0.310   5.224   8.656
  152SAPE  H13S16883   0.352   5.096   8.548
  152SAPE  C21416884   0.383   5.313   8.462
  152SAPE  H14R16885   0.281   5.358   8.478
  152SAPE  C21516886   0.421   5.309   8.322
  152SAPE  H15R16887   0.341   5.359   8.261
  152SAPE  C21616888   0.473   5.183   8.233
  152SAPE  H16R16889   0.448   5.086   8.274
  152SAPE  H16S16890   0.571   5.141   8.255
  152SAPE  C21716891   0.420   5.127   8.095
  152SAPE  H17R16892   0.453   5.026   8.055
  152SAPE  H17S16893   0.404   5.220   8.036
  152SAPE  C21816894   0.290   5.084   8.051
  152SAPE  H18R16895   0.232   5.185   8.052
  152SAPE  H18S16896   0.238   5.004   8.109
  152SAPE  C21916897   0.275   5.020   7.920
  152SAPE  H19R16898   0.282   5.098   7.843
  152SAPE  H19S16899   0.175   4.981   7.938
  152SAPE  C22016900   0.283   4.879   7.879
  152SAPE  H20R16901   0.245   4.873   7.775
  152SAPE  H20S16902   0.216   4.807   7.937
  152SAPE  H20T16903   0.389   4.871   7.866
  152SAPE   C3316904   0.190   5.527   9.101
  152SAPE   H3X16905   0.092   5.580   9.107
  152SAPE   H3Y16906   0.186   5.475   9.003
  152SAPE   C3416907   0.311   5.612   9.115
  152SAPE   H4X16908   0.308   5.678   9.203
  152SAPE   H4Y16909   0.289   5.689   9.050
  152SAPE   C3516910   0.449   5.553   9.076
  152SAPE   H5X16911   0.435   5.456   9.022
  152SAPE   H5Y16912   0.496   5.530   9.174
  152SAPE   C3616913   0.548   5.639   8.990
  152SAPE   H6X16914   0.591   5.728   9.038
  152SAPE   H6Y16915   0.512   5.673   8.891
  152SAPE   C3716916   0.672   5.564   8.954
  152SAPE   H7X16917   0.638   5.480   8.891
  152SAPE   H7Y16918   0.721   5.538   9.050
  152SAPE   C3816919   0.766   5.647   8.871
  152SAPE   H8X16920   0.797   5.737   8.931
  152SAPE   H8Y16921   0.711   5.675   8.778
  152SAPE   C3916922   0.887   5.574   8.820
  152SAPE   H9X16923   0.942   5.542   8.910
  152SAPE   H9Y16924   0.945   5.647   8.760
  152SAPE  C31016925   0.857   5.457   8.726
  152SAPE  H10X16926   0.796   5.383   8.781
  152SAPE  H10Y16927   0.953   5.407   8.700
  152SAPE  C31116928   0.785   5.503   8.597
  152SAPE  H11X16929   0.694   5.560   8.620
  152SAPE  H11Y16930   0.752   5.413   8.540
  152SAPE  C31216931   0.871   5.589   8.504
  152SAPE  H12X16932   0.953   5.524   8.475
  152SAPE  H12Y16933   0.924   5.673   8.552
  152SAPE  C31316934   0.794   5.649   8.386
  152SAPE  H13X16935   0.861   5.721   8.333
  152SAPE  H13Y16936   0.706   5.703   8.427
  152SAPE  C31416937   0.738   5.552   8.283
  152SAPE  H14X16938   0.670   5.480   8.331
  152SAPE  H14Y16939   0.811   5.490   8.235
  152SAPE  C31516940   0.675   5.623   8.164
  152SAPE  H15X16941   0.740   5.692   8.107
  152SAPE  H15Y16942   0.610   5.693   8.218
  152SAPE  C31616943   0.610   5.521   8.070
  152SAPE  H16X16944   0.537   5.461   8.128
  152SAPE  H16Y16945   0.688   5.449   8.041
  152SAPE  C31716946   0.548   5.575   7.938
  152SAPE  H17X16947   0.621   5.628   7.875
  152SAPE  H17Y16948   0.472   5.649   7.932
  152SAPE  C31816949   0.457   5.478   7.873
  152SAPE  H18X16950   0.395   5.406   7.932
  152SAPE  H18Y16951   0.544   5.430   7.836
  152SAPE  H18Z16952   0.407   5.508   7.780
  153SAPE     N16953   7.079   1.409   9.939
  153SAPE   HN116954   7.107   1.455  10.028
  153SAPE   HN216955   7.151   1.410   9.865
  153SAPE   HN316956   6.986   1.441   9.905
  153SAPE   C1216957   7.053   1.268   9.971
  153SAPE  H12A16958   7.153   1.224   9.992
  153SAPE  H12B16959   7.013   1.215   9.881
  153SAPE   C1116960   6.959   1.259  10.094
  153SAPE  H11A16961   7.016   1.287  10.185
  153SAPE  H11B16962   6.927   1.156  10.122
  153SAPE     P16963   6.721   1.270   9.997
  153SAPE   O1316964   6.633   1.193  10.088
  153SAPE   O1416965   6.663   1.379   9.916
  153SAPE   O1216966   6.843   1.337  10.077
  153SAPE   O1116967   6.790   1.170   9.898
  153SAPE    C116968   6.713   1.092   9.809
  153SAPE    HA16969   6.660   1.013   9.866
  153SAPE    HB16970   6.639   1.152   9.752
  153SAPE    C216971   6.808   1.030   9.704
  153SAPE    HS16972   6.886   0.971   9.760
  153SAPE   O2116973   6.867   1.125   9.617
  153SAPE   C2116974   6.994   1.131   9.595
  153SAPE   O2216975   7.085   1.100   9.671
  153SAPE   C2216976   7.014   1.189   9.457
  153SAPE   H2R16977   7.110   1.243   9.461
  153SAPE   H2S16978   7.020   1.107   9.383
  153SAPE    C316979   6.729   0.936   9.613
  153SAPE    HX16980   6.663   0.874   9.678
  153SAPE    HY16981   6.811   0.878   9.565
  153SAPE   O3116982   6.646   0.995   9.515
  153SAPE   C3116983   6.668   0.952   9.393
  153SAPE   O3216984   6.750   0.870   9.354
  153SAPE   C3216985   6.565   1.020   9.311
  153SAPE   H2X16986   6.563   1.127   9.342
  153SAPE   H2Y16987   6.465   0.976   9.333
  153SAPE   C2316988   6.893   1.278   9.421
  153SAPE   H3R16989   6.877   1.354   9.501
  153SAPE   H3S16990   6.802   1.215   9.410
  153SAPE   C2416991   6.906   1.347   9.289
  153SAPE   H4R16992   6.819   1.414   9.280
  153SAPE   H4S16993   6.902   1.287   9.197
  153SAPE   C2516994   7.035   1.419   9.303
  153SAPE   H5R16995   7.013   1.519   9.307
  153SAPE   C2616996   7.154   1.399   9.248
  153SAPE   H6R16997   7.220   1.485   9.232
  153SAPE   C2716998   7.174   1.288   9.155
  153SAPE   H7R16999   7.098   1.210   9.169
  153SAPE   H7S17000   7.260   1.250   9.204
  153SAPE   C2817001   7.209   1.318   9.012
  153SAPE   H8R17002   7.286   1.395   8.992
  153SAPE   C2917003   7.154   1.256   8.908
  153SAPE   H9R17004   7.186   1.284   8.807
  153SAPE  C21017005   7.050   1.148   8.918
  153SAPE  H10R17006   6.958   1.192   8.964
  153SAPE  H10S17007   7.081   1.065   8.985
  153SAPE  C21117008   7.027   1.095   8.780
  153SAPE  H11R17009   7.110   1.105   8.710
  153SAPE  C21217010   6.912   1.045   8.734
  153SAPE  H12R17011   6.906   1.006   8.631
  153SAPE  C21317012   6.793   1.040   8.824
  153SAPE  H13R17013   6.745   1.139   8.821
  153SAPE  H13S17014   6.821   1.014   8.928
  153SAPE  C21417015   6.688   0.945   8.794
  153SAPE  H14R17016   6.715   0.842   8.825
  153SAPE  C21517017   6.582   0.974   8.716
  153SAPE  H15R17018   6.499   0.908   8.701
  153SAPE  C21617019   6.535   1.089   8.642
  153SAPE  H16R17020   6.590   1.178   8.676
  153SAPE  H16S17021   6.428   1.087   8.667
  153SAPE  C21717022   6.531   1.074   8.492
  153SAPE  H17R17023   6.482   1.167   8.452
  153SAPE  H17S17024   6.467   0.989   8.461
  153SAPE  C21817025   6.669   1.066   8.431
  153SAPE  H18R17026   6.748   1.032   8.500
  153SAPE  H18S17027   6.687   1.174   8.416
  153SAPE  C21917028   6.679   0.988   8.301
  153SAPE  H19R17029   6.681   0.880   8.306
  153SAPE  H19S17030   6.781   0.995   8.259
  153SAPE  C22017031   6.569   1.030   8.202
  153SAPE  H20R17032   6.555   1.138   8.188
  153SAPE  H20S17033   6.472   1.003   8.245
  153SAPE  H20T17034   6.591   0.978   8.105
  153SAPE   C3317035   6.597   1.004   9.165
  153SAPE   H3X17036   6.606   0.898   9.133
  153SAPE   H3Y17037   6.686   1.063   9.134
  153SAPE   C3417038   6.483   1.061   9.091
  153SAPE   H4X17039   6.389   1.012   9.122
  153SAPE   H4Y17040   6.501   1.017   8.990
  153SAPE   C3517041   6.486   1.218   9.106
  153SAPE   H5X17042   6.450   1.250   9.204
  153SAPE   H5Y17043   6.409   1.286   9.067
  153SAPE   C3617044   6.589   1.281   9.017
  153SAPE   H6X17045   6.608   1.221   8.926
  153SAPE   H6Y17046   6.675   1.294   9.085
  153SAPE   C3717047   6.554   1.415   8.955
  153SAPE   H7X17048   6.548   1.467   9.048
  153SAPE   H7Y17049   6.456   1.434   8.907
  153SAPE   C3817050   6.668   1.469   8.870
  153SAPE   H8X17051   6.640   1.564   8.823
  153SAPE   H8Y17052   6.677   1.402   8.783
  153SAPE   C3917053   6.807   1.475   8.937
  153SAPE   H9X17054   6.841   1.374   8.962
  153SAPE   H9Y17055   6.809   1.518   9.037
  153SAPE  C31017056   6.908   1.543   8.845
  153SAPE  H10X17057   7.011   1.527   8.884
  153SAPE  H10Y17058   6.892   1.654   8.838
  153SAPE  C31117059   6.901   1.484   8.709
  153SAPE  H11X17060   6.813   1.525   8.655
  153SAPE  H11Y17061   6.891   1.373   8.721
  153SAPE  C31217062   7.022   1.519   8.632
  153SAPE  H12X17063   7.116   1.518   8.691
  153SAPE  H12Y17064   7.008   1.615   8.577
  153SAPE  C31317065   7.037   1.417   8.532
  153SAPE  H13X17066   6.941   1.413   8.476
  153SAPE  H13Y17067   7.048   1.314   8.577
  153SAPE  C31417068   7.156   1.461   8.455
  153SAPE  H14X17069   7.257   1.467   8.503
  153SAPE  H14Y17070   7.145   1.539   8.374
  153SAPE  C31517071   7.171   1.335   8.391
  153SAPE  H15X17072   7.169   1.242   8.447
  153SAPE  H15Y17073   7.276   1.356   8.347
  153SAPE  C31617074   7.043   1.295   8.300
  153SAPE  H16X17075   7.121   1.383   8.264
  153SAPE  H16Y17076   6.966   1.366   8.305
  153SAPE  C31717077   7.021   1.160   8.119
  153SAPE  H17X17078   6.953   1.138   8.047
  153SAPE  H17Y17079   7.009   1.080   8.179
  153SAPE  C31817080   7.133   1.205   7.966
  153SAPE  H18X17081   7.092   1.140   7.903
  153SAPE  H18Y17082   7.250   1.206   7.982
  153SAPE  H18Z17083   7.184   1.303   7.938
  154SAPE     N17084   0.814   0.426  10.054
  154SAPE   HN117085   0.770   0.432   9.960
  154SAPE   HN217086   0.905   0.376  10.046
  154SAPE   HN317087   0.753   0.375  10.120
  154SAPE   C1217088   0.842   0.564  10.103
  154SAPE  H12A17089   0.888   0.562  10.203
  154SAPE  H12B17090   0.747   0.618  10.111
  154SAPE   C1117091   0.924   0.636   9.999
  154SAPE  H11A17092   0.862   0.647   9.906
  154SAPE  H11B17093   1.019   0.583   9.976
  154SAPE     P17094   0.968   0.892   9.971
  154SAPE   O1317095   0.832   0.948   9.971
  154SAPE   O1417096   1.087   0.958  10.029
  154SAPE   O1217097   0.957   0.760  10.054
  154SAPE   O1117098   1.003   0.845   9.828
  154SAPE    C117099   1.132   0.795   9.810
  154SAPE    HA17100   1.201   0.882   9.809
  154SAPE    HB17101   1.164   0.726   9.890
  154SAPE    C217102   1.127   0.714   9.682
  154SAPE    HS17103   1.234   0.676   9.666
  154SAPE   O2117104   1.060   0.791   9.579
  154SAPE   C2117105   1.148   0.845   9.510
  154SAPE   O2217106   1.263   0.804   9.506
  154SAPE   C2217107   1.096   0.955   9.422
  154SAPE   H2R17108   0.998   0.987   9.454
  154SAPE   H2S17109   1.159   1.047   9.421
  154SAPE    C317110   1.044   0.590   9.699
  154SAPE    HX17111   0.941   0.627   9.696
  154SAPE    HY17112   1.067   0.531   9.788
  154SAPE   O3117113   1.052   0.514   9.584
  154SAPE   C3117114   1.156   0.447   9.581
  154SAPE   O3217115   1.236   0.420   9.669
  154SAPE   C3217116   1.160   0.421   9.437
  154SAPE   H2X17117   1.074   0.375   9.392
  154SAPE   H2Y17118   1.202   0.321   9.472
  154SAPE   C2317119   1.104   0.887   9.286
  154SAPE   H3R17120   1.157   0.793   9.283
  154SAPE   H3S17121   1.168   0.949   9.227
  154SAPE   C2417122   0.998   0.904   9.189
  154SAPE   H4R17123   1.045   0.889   9.088
  154SAPE   H4S17124   0.969   1.007   9.196
  154SAPE   C2517125   0.891   0.812   9.223
  154SAPE   H5R17126   0.892   0.767   9.323
  154SAPE   C2617127   0.803   0.778   9.131
  154SAPE   H6R17128   0.720   0.715   9.161
  154SAPE   C2717129   0.807   0.829   8.989
  154SAPE   H7R17130   0.835   0.935   8.989
  154SAPE   H7S17131   0.702   0.831   8.956
  154SAPE   C2817132   0.899   0.758   8.892
  154SAPE   H8R17133   1.008   0.766   8.913
  154SAPE   C2917134   0.862   0.692   8.781
  154SAPE   H9R17135   0.941   0.652   8.715
  154SAPE  C21017136   0.722   0.672   8.728
  154SAPE  H10R17137   0.648   0.733   8.784
  154SAPE  H10S17138   0.689   0.567   8.745
  154SAPE  C21117139   0.714   0.703   8.581
  154SAPE  H11R17140   0.727   0.808   8.551
  154SAPE  C21217141   0.692   0.617   8.484
  154SAPE  H12R17142   0.693   0.656   8.380
  154SAPE  C21317143   0.673   0.469   8.501
  154SAPE  H13R17144   0.564   0.442   8.507
  154SAPE  H13S17145   0.728   0.412   8.576
  154SAPE  C21417146   0.724   0.420   8.375
  154SAPE  H14R17147   0.642   0.356   8.341
  154SAPE  C21517148   0.838   0.405   8.308
  154SAPE  H15R17149   0.845   0.348   8.212
  154SAPE  C21617150   0.962   0.444   8.366
  154SAPE  H16R17151   1.017   0.352   8.395
  154SAPE  H16S17152   0.940   0.509   8.452
  154SAPE  C21717153   1.033   0.508   8.258
  154SAPE  H17R17154   1.103   0.575   8.313
  154SAPE  H17S17155   0.969   0.576   8.197
  154SAPE  C21817156   1.102   0.405   8.167
  154SAPE  H18R17157   1.050   0.312   8.146
  154SAPE  H18S17158   1.200   0.380   8.216
  154SAPE  C21917159   1.120   0.459   8.029
  154SAPE  H19R17160   1.042   0.504   7.966
  154SAPE  H19S17161   1.195   0.402   7.971
  154SAPE  C22017162   1.189   0.573   8.063
  154SAPE  H20R17163   1.176   0.636   8.145
  154SAPE  H20S17164   1.229   0.633   7.984
  154SAPE  H20T17165   1.269   0.525   8.107
  154SAPE   C3317166   1.239   0.536   9.345
  154SAPE   H3X17167   1.319   0.582   9.406
  154SAPE   H3Y17168   1.169   0.614   9.324
  154SAPE   C3417169   1.300   0.515   9.197
  154SAPE   H4X17170   1.227   0.465   9.129
  154SAPE   H4Y17171   1.386   0.448   9.189
  154SAPE   C3517172   1.384   0.610   9.121
  154SAPE   H5X17173   1.439   0.565   9.037
  154SAPE   H5Y17174   1.478   0.644   9.166
  154SAPE   C3617175   1.274   0.678   9.052
  154SAPE   H6X17176   1.257   0.758   9.122
  154SAPE   H6Y17177   1.182   0.617   9.035
  154SAPE   C3717178   1.313   0.719   8.919
  154SAPE   H7X17179   1.423   0.723   8.937
  154SAPE   H7Y17180   1.286   0.823   8.901
  154SAPE   C3817181   1.241   0.627   8.816
  154SAPE   H8X17182   1.134   0.626   8.828
  154SAPE   H8Y17183   1.276   0.522   8.815
  154SAPE   C3917184   1.228   0.670   8.673
  154SAPE   H9X17185   1.197   0.610   8.589
  154SAPE   H9Y17186   1.304   0.602   8.646
  154SAPE  C31017187   1.220   0.818   8.645
  154SAPE  H10X17188   1.285   0.890   8.701
  154SAPE  H10Y17189   1.112   0.838   8.651
  154SAPE  C31117190   1.237   0.851   8.504
  154SAPE  H11X17191   1.194   0.779   8.432
  154SAPE  H11Y17192   1.338   0.831   8.485
  154SAPE  C31217193   1.213   0.998   8.489
  154SAPE  H12X17194   1.301   1.060   8.455
  154SAPE  H12Y17195   1.167   1.043   8.578
  154SAPE  C31317196   1.104   1.013   8.395
  154SAPE  H13X17197   1.177   0.986   8.319
  154SAPE  H13Y17198   1.076   1.096   8.341
  154SAPE  C31417199   0.976   0.935   8.417
  154SAPE  H14X17200   0.947   0.942   8.521
  154SAPE  H14Y17201   1.009   0.832   8.415
  154SAPE  C31517202   0.854   0.963   8.323
  154SAPE  H15X17203   0.825   1.071   8.333
  154SAPE  H15Y17204   0.777   0.886   8.339
  154SAPE  C31617205   0.846   0.946   8.171
  154SAPE  H16X17206   0.926   1.015   8.135
  154SAPE  H16Y17207   0.785   1.022   8.140
  154SAPE  C31717208   0.813   0.798   8.103
  154SAPE  H17X17209   0.770   0.723   8.166
  154SAPE  H17Y17210   0.888   0.727   8.124
  154SAPE  C31817211   0.832   0.760   7.950
  154SAPE  H18X17212   0.868   0.663   7.908
  154SAPE  H18Y17213   0.894   0.822   7.886
  154SAPE  H18Z17214   0.730   0.779   7.926
  155SAPE     N17215   1.481   0.113  10.299
  155SAPE   HN117216   1.383   0.102  10.262
  155SAPE   HN217217   1.491   0.057  10.385
  155SAPE   HN317218   1.495   0.214  10.314
  155SAPE   C1217219   1.582   0.080  10.192
  155SAPE  H12A17220   1.558  -0.021  10.163
  155SAPE  H12B17221   1.683   0.070  10.234
  155SAPE   C1117222   1.578   0.181  10.076
  155SAPE  H11A17223   1.646   0.151   9.993
  155SAPE  H11B17224   1.614   0.280  10.114
  155SAPE     P17225   1.382   0.188   9.882
  155SAPE   O1317226   1.413   0.061   9.816
  155SAPE   O1417227   1.242   0.236   9.890
  155SAPE   O1217228   1.445   0.194  10.030
  155SAPE   O1117229   1.472   0.284   9.805
  155SAPE    C117230   1.495   0.414   9.847
  155SAPE    HA17231   1.399   0.468   9.867
  155SAPE    HB17232   1.560   0.417   9.937
  155SAPE    C217233   1.573   0.482   9.737
  155SAPE    HS17234   1.551   0.584   9.772
  155SAPE   O2117235   1.521   0.461   9.607
  155SAPE   C2117236   1.571   0.509   9.496
  155SAPE   O2217237   1.631   0.609   9.476
  155SAPE   C2217238   1.523   0.439   9.373
  155SAPE   H2R17239   1.494   0.537   9.326
  155SAPE   H2S17240   1.601   0.401   9.308
  155SAPE    C317241   1.721   0.435   9.740
  155SAPE    HX17242   1.762   0.470   9.837
  155SAPE    HY17243   1.781   0.488   9.663
  155SAPE   O3117244   1.735   0.290   9.733
  155SAPE   C3117245   1.753   0.245   9.609
  155SAPE   O3217246   1.771   0.315   9.511
  155SAPE   C3217247   1.765   0.093   9.603
  155SAPE   H2X17248   1.679   0.047   9.657
  155SAPE   H2Y17249   1.858   0.063   9.655
  155SAPE   C2317250   1.416   0.329   9.401
  155SAPE   H3R17251   1.372   0.394   9.477
  155SAPE   H3S17252   1.441   0.260   9.481
  155SAPE   C2417253   1.316   0.263   9.290
  155SAPE   H4R17254   1.236   0.319   9.242
  155SAPE   H4S17255   1.215   0.222   9.305
  155SAPE   C2517256   1.394   0.196   9.191
  155SAPE   H5R17257   1.431   0.116   9.254
  155SAPE   C2617258   1.441   0.226   9.069
  155SAPE   H6R17259   1.507   0.154   9.025
  155SAPE   C2717260   1.436   0.345   8.977
  155SAPE   H7R17261   1.527   0.404   9.005
  155SAPE   H7S17262   1.343   0.404   8.982
  155SAPE   C2817263   1.430   0.321   8.833
  155SAPE   H8R17264   1.355   0.250   8.804
  155SAPE   C2917265   1.476   0.408   8.745
  155SAPE   H9R17266   1.469   0.385   8.637
  155SAPE  C21017267   1.539   0.535   8.787
  155SAPE  H10R17268   1.630   0.487   8.761
  155SAPE  H10S17269   1.565   0.559   8.891
  155SAPE  C21117270   1.509   0.670   8.732
  155SAPE  H11R17271   1.523   0.763   8.792
  155SAPE  C21217272   1.495   0.691   8.609
  155SAPE  H12R17273   1.476   0.804   8.598
  155SAPE  C21317274   1.516   0.584   8.490
  155SAPE  H13R17275   1.593   0.511   8.470
  155SAPE  H13S17276   1.608   0.605   8.422
  155SAPE  C21417277   1.402   0.549   8.414
  155SAPE  H14R17278   1.310   0.591   8.450
  155SAPE  C21517279   1.400   0.545   8.286
  155SAPE  H15R17280   1.293   0.554   8.274
  155SAPE  C21617281   1.499   0.571   8.168
  155SAPE  H16R17282   1.536   0.488   8.144
  155SAPE  H16S17283   1.584   0.640   8.173
  155SAPE  C21717284   1.459   0.593   8.019
  155SAPE  H17R17285   1.393   0.661   8.063
  155SAPE  H17S17286   1.400   0.517   7.979
  155SAPE  C21817287   1.503   0.674   7.901
  155SAPE  H18R17288   1.567   0.606   7.847
  155SAPE  H18S17289   1.544   0.765   7.942
  155SAPE  C21917290   1.399   0.711   7.794
  155SAPE  H19R17291   1.442   0.775   7.713
  155SAPE  H19S17292   1.348   0.792   7.829
  155SAPE  C22017293   1.283   0.619   7.755
  155SAPE  H20R17294   1.305   0.605   7.654
  155SAPE  H20S17295   1.187   0.657   7.714
  155SAPE  H20T17296   1.239   0.545   7.820
  155SAPE   C3317297   1.769   0.048   9.454
  155SAPE   H3X17298   1.710   0.119   9.391
  155SAPE   H3Y17299   1.720  -0.051   9.443
  155SAPE   C3417300   1.910   0.041   9.390
  155SAPE   H4X17301   1.973  -0.032   9.446
  155SAPE   H4Y17302   1.957   0.142   9.395
  155SAPE   C3517303   1.917  -0.009   9.245
  155SAPE   H5X17304   1.931  -0.119   9.247
  155SAPE   H5Y17305   2.008   0.035   9.197
  155SAPE   C3617306   1.792   0.016   9.161
  155SAPE   H6X17307   1.759   0.122   9.170
  155SAPE   H6Y17308   1.710  -0.049   9.201
  155SAPE   C3717309   1.810  -0.022   9.014
  155SAPE   H7X17310   1.845  -0.128   9.009
  155SAPE   H7Y17311   1.891   0.037   8.968
  155SAPE   C3817312   1.684   0.010   8.934
  155SAPE   H8X17313   1.679   0.117   8.909
  155SAPE   H8Y17314   1.591  -0.023   8.986
  155SAPE   C3917315   1.681  -0.053   8.798
  155SAPE   H9X17316   1.700  -0.155   8.838
  155SAPE   H9Y17317   1.768  -0.038   8.733
  155SAPE  C31017318   1.543  -0.025   8.731
  155SAPE  H10X17319   1.463  -0.019   8.807
  155SAPE  H10Y17320   1.495  -0.104   8.670
  155SAPE  C31117321   1.524   0.069   8.618
  155SAPE  H11X17322   1.593   0.039   8.536
  155SAPE  H11Y17323   1.551   0.163   8.665
  155SAPE  C31217324   1.377   0.052   8.572
  155SAPE  H12X17325   1.308   0.045   8.659
  155SAPE  H12Y17326   1.369  -0.045   8.516
  155SAPE  C31317327   1.325   0.164   8.483
  155SAPE  H13X17328   1.314   0.254   8.547
  155SAPE  H13Y17329   1.226   0.136   8.442
  155SAPE  C31417330   1.421   0.196   8.371
  155SAPE  H14X17331   1.509   0.247   8.417
  155SAPE  H14Y17332   1.374   0.273   8.305
  155SAPE  C31517333   1.460   0.067   8.294
  155SAPE  H15X17334   1.373   0.025   8.237
  155SAPE  H15Y17335   1.518  -0.009   8.348
  155SAPE  C31617336   1.558   0.103   8.193
  155SAPE  H16X17337   1.631   0.175   8.237
  155SAPE  H16Y17338   1.473   0.151   8.139
  155SAPE  C31717339   1.620   0.011   8.089
  155SAPE  H17X17340   1.687  -0.053   8.148
  155SAPE  H17Y17341   1.690   0.061   8.016
  155SAPE  C31817342   1.515  -0.065   8.011
  155SAPE  H18X17343   1.450  -0.012   7.937
  155SAPE  H18Y17344   1.456  -0.133   8.072
  155SAPE  H18Z17345   1.569  -0.131   7.949
  156SAPE     N17346   0.253   5.738  10.198
  156SAPE   HN117347   0.280   5.659  10.137
  156SAPE   HN217348   0.287   5.826  10.157
  156SAPE   HN317349   0.288   5.724  10.295
  156SAPE   C1217350   0.104   5.737  10.194
  156SAPE  H12A17351   0.064   5.806  10.268
  156SAPE  H12B17352   0.069   5.638  10.227
  156SAPE   C1117353   0.058   5.774  10.052
  156SAPE  H11A17354  -0.049   5.741  10.046
  156SAPE  H11B17355   0.116   5.715   9.979
  156SAPE     P17356   0.037   5.975   9.882
  156SAPE   O1317357  -0.100   5.927   9.854
  156SAPE   O1417358   0.057   6.120   9.896
  156SAPE   O1217359   0.078   5.913  10.025
  156SAPE   O1117360   0.145   5.912   9.794
  156SAPE    C117361   0.276   5.965   9.816
  156SAPE    HA17362   0.281   6.071   9.853
  156SAPE    HB17363   0.330   5.898   9.884
  156SAPE    C217364   0.343   5.971   9.681
  156SAPE    HS17365   0.436   6.032   9.689
  156SAPE   O2117366   0.257   6.025   9.585
  156SAPE   C2117367   0.237   6.145   9.603
  156SAPE   O2217368   0.287   6.223   9.684
  156SAPE   C2217369   0.150   6.184   9.491
  156SAPE   H2R17370   0.047   6.206   9.523
  156SAPE   H2S17371   0.214   6.270   9.499
  156SAPE    C317372   0.377   5.836   9.631
  156SAPE    HX17373   0.283   5.776   9.638
  156SAPE    HY17374   0.453   5.788   9.694
  156SAPE   O3117375   0.415   5.844   9.493
  156SAPE   C3117376   0.532   5.900   9.468
  156SAPE   O3217377   0.609   5.948   9.549
  156SAPE   C3217378   0.554   5.890   9.318
  156SAPE   H2X17379   0.568   5.782   9.293
  156SAPE   H2Y17380   0.648   5.942   9.296
  156SAPE   C2317381   0.184   6.140   9.346
  156SAPE   H3R17382   0.164   6.032   9.346
  156SAPE   H3S17383   0.292   6.163   9.330
  156SAPE   C2417384   0.112   6.203   9.225
  156SAPE   H4R17385   0.161   6.173   9.132
  156SAPE   H4S17386   0.142   6.305   9.210
  156SAPE   C2517387  -0.038   6.186   9.234
  156SAPE   H5R17388  -0.082   6.201   9.334
  156SAPE   C2617389  -0.116   6.148   9.132
  156SAPE   H6R17390  -0.223   6.130   9.149
  156SAPE   C2717391  -0.067   6.119   8.994
  156SAPE   H7R17392   0.041   6.140   8.981
  156SAPE   H7S17393  -0.117   6.194   8.931
  156SAPE   C2817394  -0.093   5.975   8.954
  156SAPE   H8R17395  -0.039   5.904   9.018
  156SAPE   C2917396  -0.158   5.927   8.845
  156SAPE   H9R17397  -0.173   5.818   8.837
  156SAPE  C21017398  -0.225   5.996   8.730
  156SAPE  H10R17399  -0.335   5.986   8.739
  156SAPE  H10S17400  -0.200   5.942   8.636
  156SAPE  C21117401  -0.190   6.139   8.708
  156SAPE  H11R17402  -0.243   6.202   8.779
  156SAPE  C21217403  -0.096   6.195   8.631
  156SAPE  H12R17404  -0.101   6.304   8.619
  156SAPE  C21317405   0.002   6.124   8.543
  156SAPE  H13R17406   0.003   6.180   8.450
  156SAPE  H13S17407  -0.043   6.026   8.514
  156SAPE  C21417408   0.146   6.102   8.587
  156SAPE  H14R17409   0.160   6.009   8.642
  156SAPE  C21517410   0.259   6.173   8.569
  156SAPE  H15R17411   0.353   6.145   8.614
  156SAPE  C21617412   0.278   6.299   8.499
  156SAPE  H16R17413   0.325   6.365   8.571
  156SAPE  H16S17414   0.187   6.344   8.518
  156SAPE  C21717415   0.336   6.302   8.355
  156SAPE  H17R17416   0.445   6.283   8.364
  156SAPE  H17S17417   0.333   6.406   8.321
  156SAPE  C21817418   0.291   6.189   8.252
  156SAPE  H18R17419   0.278   6.097   8.305
  156SAPE  H18S17420   0.359   6.187   8.163
  156SAPE  C21917421   0.146   6.168   8.210
  156SAPE  H19R17422   0.185   6.263   8.180
  156SAPE  H19S17423   0.054   6.178   8.272
  156SAPE  C22017424   0.077   6.125   8.092
  156SAPE  H20R17425   0.043   6.029   8.129
  156SAPE  H20S17426   0.144   6.138   8.006
  156SAPE  H20T17427  -0.017   6.185   8.085
  156SAPE   C3317428   0.435   5.955   9.243
  156SAPE   H3X17429   0.456   6.065   9.233
  156SAPE   H3Y17430   0.337   5.934   9.289
  156SAPE   C3417431   0.417   5.904   9.103
  156SAPE   H4X17432   0.443   5.802   9.109
  156SAPE   H4Y17433   0.492   5.963   9.062
  156SAPE   C3517434   0.290   5.926   9.022
  156SAPE   H5X17435   0.273   6.035   9.026
  156SAPE   H5Y17436   0.210   5.872   9.077
  156SAPE   C3617437   0.294   5.880   8.872
  156SAPE   H6X17438   0.392   5.899   8.823
  156SAPE   H6Y17439   0.215   5.940   8.822
  156SAPE   C3717440   0.252   5.735   8.844
  156SAPE   H7X17441   0.166   5.704   8.907
  156SAPE   H7Y17442   0.335   5.669   8.868
  156SAPE   C3817443   0.223   5.690   8.706
  156SAPE   H8X17444   0.244   5.580   8.699
  156SAPE   H8Y17445   0.292   5.750   8.643
  156SAPE   C3917446   0.076   5.710   8.685
  156SAPE   H9X17447   0.052   5.815   8.712
  156SAPE   H9Y17448   0.021   5.646   8.757
  156SAPE  C31017449   0.042   5.679   8.540
  156SAPE  H10X17450   0.113   5.736   8.475
  156SAPE  H10Y17451  -0.063   5.712   8.522
  156SAPE  C31117452   0.053   5.534   8.496
  156SAPE  H11X17453  -0.008   5.470   8.561
  156SAPE  H11Y17454   0.157   5.499   8.503
  156SAPE  C31217455  -0.004   5.509   8.356
  156SAPE  H12X17456  -0.114   5.522   8.367
  156SAPE  H12Y17457   0.017   5.404   8.327
  156SAPE  C31317458   0.044   5.600   8.244
  156SAPE  H13X17459   0.016   5.705   8.267
  156SAPE  H13Y17460  -0.000   5.577   8.145
  156SAPE  C31417461   0.192   5.593   8.224
  156SAPE  H14X17462   0.221   5.502   8.165
  156SAPE  H14Y17463   0.246   5.592   8.321
  156SAPE  C31517464   0.236   5.722   8.160
  156SAPE  H15X17465   0.226   5.813   8.219
  156SAPE  H15Y17466   0.170   5.740   8.075
  156SAPE  C31617467   0.381   5.705   8.137
  156SAPE  H16X17468   0.382   5.606   8.089
  156SAPE  H16Y17469   0.429   5.685   8.232
  156SAPE  C31717470   0.452   5.824   8.076
  156SAPE  H17X17471   0.560   5.811   8.048
  156SAPE  H17Y17472   0.452   5.906   8.150
  156SAPE  C31817473   0.388   5.868   7.950
  156SAPE  H18X17474   0.436   5.953   7.951
  156SAPE  H18Y17475   0.293   5.923   7.945
  156SAPE  H18Z17476   0.420   5.820   7.854
  157SAPE     N17477   6.823   6.109  10.045
  157SAPE   HN117478   6.924   6.083  10.045
  157SAPE   HN217479   6.812   6.181  10.119
  157SAPE   HN317480   6.761   6.027  10.063
  157SAPE   C1217481   6.792   6.176   9.914
  157SAPE  H12A17482   6.685   6.206   9.919
  157SAPE  H12B17483   6.805   6.103   9.832
  157SAPE   C1117484   6.879   6.302   9.900
  157SAPE  H11A17485   6.846   6.358   9.810
  157SAPE  H11B17486   6.987   6.276   9.881
  157SAPE     P17487   6.921   6.526  10.037
  157SAPE   O1317488   6.868   6.573  10.167
  157SAPE   O1417489   7.067   6.513  10.019
  157SAPE   O1217490   6.862   6.379  10.020
  157SAPE   O1117491   6.846   6.595   9.917
  157SAPE    C117492   6.707   6.624   9.947
  157SAPE    HA17493   6.653   6.533   9.977
  157SAPE    HB17494   6.700   6.704  10.024
  157SAPE    C217495   6.631   6.678   9.827
  157SAPE    HS17496   6.521   6.683   9.839
  157SAPE   O2117497   6.669   6.600   9.712
  157SAPE   C2117498   6.609   6.492   9.696
  157SAPE   O2217499   6.517   6.451   9.768
  157SAPE   C2217500   6.667   6.421   9.575
  157SAPE   H2R17501   6.766   6.379   9.598
  157SAPE   H2S17502   6.599   6.338   9.567
  157SAPE    C317503   6.677   6.824   9.826
  157SAPE    HX17504   6.787   6.813   9.831
  157SAPE    HY17505   6.645   6.879   9.914
  157SAPE   O3117506   6.624   6.903   9.722
  157SAPE   C3117507   6.664   6.858   9.613
  157SAPE   O3217508   6.756   6.779   9.601
  157SAPE   C3217509   6.595   6.938   9.501
  157SAPE   H2X17510   6.605   7.045   9.532
  157SAPE   H2Y17511   6.497   6.925   9.483
  157SAPE   C2317512   6.672   6.503   9.443
  157SAPE   H3R17513   6.736   6.592   9.461
  157SAPE   H3S17514   6.570   6.543   9.422
  157SAPE   C2417515   6.729   6.427   9.320
  157SAPE   H4R17516   6.701   6.484   9.227
  157SAPE   H4S17517   6.690   6.328   9.296
  157SAPE   C2517518   6.871   6.385   9.339
  157SAPE   H5R17519   6.891   6.281   9.360
  157SAPE   C2617520   6.973   6.463   9.323
  157SAPE   H6R17521   7.076   6.431   9.330
  157SAPE   C2717522   6.945   6.598   9.283
  157SAPE   H7R17523   6.978   6.674   9.357
  157SAPE   H7S17524   6.849   6.611   9.234
  157SAPE   C2817525   7.022   6.612   9.166
  157SAPE   H8R17526   7.107   6.655   9.225
  157SAPE   C2917527   7.002   6.674   9.049
  157SAPE   H9R17528   7.101   6.677   9.010
  157SAPE  C21017529   6.890   6.769   8.970
  157SAPE  H10R17530   6.875   6.877   8.991
  157SAPE  H10S17531   6.792   6.768   9.011
  157SAPE  C21117532   6.871   6.837   8.846
  157SAPE  H11R17533   6.899   6.946   8.830
  157SAPE  C21217534   6.886   6.743   8.761
  157SAPE  H12R17535   6.873   6.772   8.663
  157SAPE  C21317536   6.919   6.602   8.786
  157SAPE  H13R17537   7.003   6.578   8.853
  157SAPE  H13S17538   6.970   6.563   8.698
  157SAPE  C21417539   6.791   6.540   8.832
  157SAPE  H14R17540   6.720   6.606   8.886
  157SAPE  C21517541   6.764   6.414   8.817
  157SAPE  H15R17542   6.668   6.379   8.854
  157SAPE  C21617543   6.860   6.320   8.754
  157SAPE  H16R17544   6.852   6.221   8.804
  157SAPE  H16S17545   6.964   6.358   8.770
  157SAPE  C21717546   6.851   6.307   8.602
  157SAPE  H17R17547   6.939   6.250   8.563
  157SAPE  H17S17548   6.850   6.405   8.552
  157SAPE  C21817549   6.730   6.228   8.559
  157SAPE  H18R17550   6.635   6.250   8.611
  157SAPE  H18S17551   6.754   6.130   8.587
  157SAPE  C21917552   6.710   6.225   8.411
  157SAPE  H19R17553   6.774   6.310   8.380
  157SAPE  H19S17554   6.600   6.219   8.388
  157SAPE  C22017555   6.783   6.165   8.298
  157SAPE  H20R17556   6.754   6.077   8.338
  157SAPE  H20S17557   6.890   6.148   8.297
  157SAPE  H20T17558   6.726   6.178   8.202
  157SAPE   C3317559   6.558   6.859   9.364
  157SAPE   H3X17560   6.630   6.780   9.355
  157SAPE   H3Y17561   6.574   6.942   9.302
  157SAPE   C3417562   6.492   6.888   9.224
  157SAPE   H4X17563   6.438   6.984   9.197
  157SAPE   H4Y17564   6.429   6.803   9.246
  157SAPE   C3517565   6.569   6.863   9.093
  157SAPE   H5X17566   6.617   6.764   9.101
  157SAPE   H5Y17567   6.648   6.940   9.071
  157SAPE   C3617568   6.469   6.872   8.981
  157SAPE   H6X17569   6.400   6.953   9.009
  157SAPE   H6Y17570   6.414   6.776   8.979
  157SAPE   C3717571   6.526   6.908   8.847
  157SAPE   H7X17572   6.610   6.841   8.824
  157SAPE   H7Y17573   6.566   7.008   8.853
  157SAPE   C3817574   6.424   6.917   8.735
  157SAPE   H8X17575   6.465   6.976   8.649
  157SAPE   H8Y17576   6.333   6.970   8.770
  157SAPE   C3917577   6.388   6.779   8.685
  157SAPE   H9X17578   6.309   6.794   8.608
  157SAPE   H9Y17579   6.345   6.718   8.768
  157SAPE  C31017580   6.507   6.698   8.632
  157SAPE  H10X17581   6.456   6.616   8.583
  157SAPE  H10Y17582   6.564   6.654   8.716
  157SAPE  C31117583   6.608   6.769   8.539
  157SAPE  H11X17584   6.662   6.843   8.601
  157SAPE  H11Y17585   6.545   6.822   8.464
  157SAPE  C31217586   6.722   6.682   8.475
  157SAPE  H12X17587   6.699   6.636   8.381
  157SAPE  H12Y17588   6.761   6.604   8.541
  157SAPE  C31317589   6.819   6.743   8.380
  157SAPE  H13X17590   6.905   6.682   8.347
  157SAPE  H13Y17591   6.832   6.829   8.442
  157SAPE  C31417592   6.770   6.829   8.271
  157SAPE  H14X17593   6.850   6.903   8.248
  157SAPE  H14Y17594   6.687   6.866   8.330
  157SAPE  C31517595   6.675   6.795   8.163
  157SAPE  H15X17596   6.672   6.877   8.089
  157SAPE  H15Y17597   6.569   6.791   8.196
  157SAPE  C31617598   6.726   6.671   8.113
  157SAPE  H16X17599   6.645   6.603   8.090
  157SAPE  H16Y17600   6.788   6.613   8.181
  157SAPE  C31717601   6.822   6.701   8.009
  157SAPE  H17X17602   6.881   6.615   8.005
  157SAPE  H17Y17603   6.901   6.739   8.073
  157SAPE  C31817604   6.790   6.784   7.882
  157SAPE  H18X17605   6.718   6.786   7.805
  157SAPE  H18Y17606   6.848   6.775   7.796
  157SAPE  H18Z17607   6.770   6.884   7.898
  158SAPE     N17608   0.462   6.353  10.055
  158SAPE   HN117609   0.526   6.400   9.988
  158SAPE   HN217610   0.494   6.385  10.148
  158SAPE   HN317611   0.468   6.251  10.041
  158SAPE   C1217612   0.324   6.404  10.021
  158SAPE  H12A17613   0.251   6.349  10.083
  158SAPE  H12B17614   0.309   6.377   9.914
  158SAPE   C1117615   0.309   6.555  10.043
  158SAPE  H11A17616   0.293   6.578  10.150
  158SAPE  H11B17617   0.216   6.590   9.990
  158SAPE     P17618   0.405   6.783   9.988
  158SAPE   O1317619   0.290   6.822  10.072
  158SAPE   O1417620   0.527   6.859  10.013
  158SAPE   O1217621   0.427   6.624  10.001
  158SAPE   O1117622   0.356   6.791   9.841
  158SAPE    C117623   0.375   6.682   9.749
  158SAPE    HA17624   0.480   6.639   9.755
  158SAPE    HB17625   0.297   6.605   9.753
  158SAPE    C217626   0.373   6.749   9.618
  158SAPE    HS17627   0.457   6.809   9.643
  158SAPE   O2117628   0.253   6.823   9.599
  158SAPE   C2117629   0.241   6.946   9.635
  158SAPE   O2217630   0.326   7.026   9.672
  158SAPE   C2217631   0.100   6.983   9.605
  158SAPE   H2R17632   0.043   6.899   9.563
  158SAPE   H2S17633   0.060   7.026   9.698
  158SAPE    C317634   0.389   6.676   9.484
  158SAPE    HX17635   0.477   6.610   9.487
  158SAPE    HY17636   0.406   6.735   9.393
  158SAPE   O3117637   0.261   6.626   9.461
  158SAPE   C3117638   0.255   6.508   9.438
  158SAPE   O3217639   0.337   6.427   9.412
  158SAPE   C3217640   0.123   6.461   9.442
  158SAPE   H2X17641   0.100   6.425   9.543
  158SAPE   H2Y17642   0.143   6.379   9.373
  158SAPE   C2317643   0.108   7.092   9.506
  158SAPE   H3R17644   0.171   7.157   9.564
  158SAPE   H3S17645   0.033   7.169   9.472
  158SAPE   C2417646   0.149   7.038   9.380
  158SAPE   H4R17647   0.250   6.996   9.367
  158SAPE   H4S17648   0.141   7.133   9.329
  158SAPE   C2517649   0.046   6.979   9.305
  158SAPE   H5R17650  -0.019   6.911   9.361
  158SAPE   C2617651   0.005   7.026   9.190
  158SAPE   H6R17652  -0.078   6.968   9.189
  158SAPE   C2717653   0.018   7.134   9.080
  158SAPE   H7R17654   0.070   7.201   9.117
  158SAPE   H7S17655  -0.070   7.201   9.086
  158SAPE   C2817656   0.057   7.147   8.934
  158SAPE   H8R17657  -0.041   7.176   8.905
  158SAPE   C2917658   0.145   7.084   8.843
  158SAPE   H9R17659   0.125   7.049   8.738
  158SAPE  C21017660   0.241   6.977   8.865
  158SAPE  H10R17661   0.266   7.082   8.847
  158SAPE  H10S17662   0.334   7.029   8.861
  158SAPE  C21117663   0.286   6.883   8.983
  158SAPE  H11R17664   0.333   6.915   9.079
  158SAPE  C21217665   0.335   6.761   8.952
  158SAPE  H12R17666   0.417   6.728   9.018
  158SAPE  C21317667   0.342   6.719   8.808
  158SAPE  H13R17668   0.329   6.804   8.735
  158SAPE  H13S17669   0.257   6.659   8.785
  158SAPE  C21417670   0.472   6.664   8.763
  158SAPE  H14R17671   0.563   6.673   8.827
  158SAPE  C21517672   0.494   6.624   8.640
  158SAPE  H15R17673   0.599   6.620   8.609
  158SAPE  C21617674   0.406   6.615   8.527
  158SAPE  H16R17675   0.306   6.650   8.553
  158SAPE  H16S17676   0.410   6.508   8.523
  158SAPE  C21717677   0.454   6.627   8.386
  158SAPE  H17R17678   0.391   6.579   8.313
  158SAPE  H17S17679   0.564   6.604   8.370
  158SAPE  C21817680   0.415   6.761   8.354
  158SAPE  H18R17681   0.500   6.779   8.426
  158SAPE  H18S17682   0.326   6.809   8.395
  158SAPE  C21917683   0.429   6.803   8.209
  158SAPE  H19R17684   0.394   6.722   8.154
  158SAPE  H19S17685   0.537   6.780   8.194
  158SAPE  C22017686   0.384   6.948   8.165
  158SAPE  H20R17687   0.291   6.983   8.208
  158SAPE  H20S17688   0.403   6.967   8.061
  158SAPE  H20T17689   0.437   7.039   8.199
  158SAPE   C3317690   0.024   6.526   9.362
  158SAPE   H3X17691   0.017   6.620   9.419
  158SAPE   H3Y17692  -0.061   6.458   9.380
  158SAPE   C3417693   0.080   6.533   9.221
  158SAPE   H4X17694   0.057   6.448   9.151
  158SAPE   H4Y17695   0.187   6.560   9.209
  158SAPE   C3517696   0.011   6.637   9.157
  158SAPE   H5X17697  -0.016   6.722   9.226
  158SAPE   H5Y17698  -0.070   6.573   9.120
  158SAPE   C3617699   0.052   6.673   9.024
  158SAPE   H6X17700   0.110   6.759   9.031
  158SAPE   H6Y17701  -0.035   6.715   8.987
  158SAPE   C3717702   0.032   6.581   8.907
  158SAPE   H7X17703  -0.058   6.514   8.920
  158SAPE   H7Y17704   0.127   6.529   8.915
  158SAPE   C3817705   0.010   6.650   8.772
  158SAPE   H8X17706   0.079   6.734   8.751
  158SAPE   H8Y17707  -0.090   6.697   8.769
  158SAPE   C3917708   0.022   6.548   8.661
  158SAPE   H9X17709  -0.071   6.486   8.663
  158SAPE   H9Y17710   0.112   6.486   8.671
  158SAPE  C31017711   0.018   6.621   8.531
  158SAPE  H10X17712   0.084   6.708   8.511
  158SAPE  H10Y17713  -0.068   6.670   8.573
  158SAPE  C31117714  -0.035   6.549   8.408
  158SAPE  H11X17715  -0.019   6.592   8.307
  158SAPE  H11Y17716  -0.136   6.503   8.409
  158SAPE  C31217717   0.059   6.458   8.385
  158SAPE  H12X17718   0.020   6.385   8.467
  158SAPE  H12Y17719   0.165   6.497   8.392
  158SAPE  C31317720   0.040   6.411   8.249
  158SAPE  H13X17721  -0.059   6.369   8.232
  158SAPE  H13Y17722   0.097   6.344   8.313
  158SAPE  C31417723   0.115   6.462   8.119
  158SAPE  H14X17724   0.063   6.554   8.096
  158SAPE  H14Y17725   0.080   6.389   8.047
  158SAPE  C31517726   0.265   6.441   8.072
  158SAPE  H15X17727   0.300   6.337   8.049
  158SAPE  H15Y17728   0.330   6.483   8.147
  158SAPE  C31617729   0.301   6.487   7.933
  158SAPE  H16X17730   0.209   6.466   7.875
  158SAPE  H16Y17731   0.388   6.437   7.885
  158SAPE  C31717732   0.341   6.628   7.947
  158SAPE  H17X17733   0.434   6.653   7.994
  158SAPE  H17Y17734   0.265   6.661   8.026
  158SAPE  C31817735   0.352   6.696   7.812
  158SAPE  H18X17736   0.258   6.674   7.766
  158SAPE  H18Y17737   0.385   6.646   7.721
  158SAPE  H18Z17738   0.353   6.807   7.820
  159SAPE     N17739   3.538   2.883   5.798
  159SAPE   HN117740   3.504   2.803   5.855
  159SAPE   HN217741   3.458   2.930   5.752
  159SAPE   HN317742   3.612   2.856   5.731
  159SAPE   C1217743   3.595   2.987   5.891
  159SAPE  H12A17744   3.601   3.081   5.834
  159SAPE  H12B17745   3.696   2.956   5.920
  159SAPE   C1117746   3.499   3.004   6.008
  159SAPE  H11A17747   3.521   3.096   6.067
  159SAPE  H11B17748   3.511   2.919   6.080
  159SAPE     P17749   3.248   2.981   6.048
  159SAPE   O1317750   3.300   3.005   6.183
  159SAPE   O1417751   3.131   3.047   5.985
  159SAPE   O1217752   3.367   3.008   5.951
  159SAPE   O1117753   3.211   2.833   6.044
  159SAPE    C117754   3.175   2.776   5.921
  159SAPE    HA17755   3.097   2.835   5.869
  159SAPE    HB17756   3.266   2.776   5.859
  159SAPE    C217757   3.128   2.631   5.948
  159SAPE    HS17758   3.075   2.595   5.858
  159SAPE   O2117759   3.041   2.619   6.062
  159SAPE   C2117760   2.924   2.679   6.054
  159SAPE   O2217761   2.875   2.726   5.953
  159SAPE   C2217762   2.874   2.704   6.195
  159SAPE   H2R17763   2.772   2.749   6.195
  159SAPE   H2S17764   2.878   2.611   6.254
  159SAPE    C317765   3.251   2.539   5.970
  159SAPE    HX17766   3.308   2.528   5.875
  159SAPE    HY17767   3.214   2.438   5.998
  159SAPE   O3117768   3.342   2.592   6.068
  159SAPE   C3117769   3.301   2.579   6.193
  159SAPE   O3217770   3.210   2.511   6.236
  159SAPE   C3217771   3.387   2.670   6.277
  159SAPE   H2X17772   3.344   2.772   6.276
  159SAPE   H2Y17773   3.490   2.671   6.236
  159SAPE   C2317774   2.985   2.790   6.253
  159SAPE   H3R17775   2.998   2.864   6.170
  159SAPE   H3S17776   3.083   2.744   6.259
  159SAPE   C2417777   2.968   2.843   6.395
  159SAPE   H4R17778   2.896   2.796   6.464
  159SAPE   H4S17779   2.898   2.905   6.343
  159SAPE   C2517780   3.078   2.921   6.466
  159SAPE   H5R17781   3.114   3.013   6.421
  159SAPE   C2617782   3.114   2.916   6.594
  159SAPE   H6R17783   3.194   2.983   6.628
  159SAPE   C2717784   3.052   2.828   6.697
  159SAPE   H7R17785   2.947   2.861   6.715
  159SAPE   H7S17786   3.107   2.849   6.791
  159SAPE   C2817787   3.051   2.682   6.660
  159SAPE   H8R17788   3.076   2.656   6.555
  159SAPE   C2917789   3.009   2.585   6.741
  159SAPE   H9R17790   3.023   2.480   6.711
  159SAPE  C21017791   2.958   2.610   6.879
  159SAPE  H10R17792   2.855   2.571   6.882
  159SAPE  H10S17793   2.958   2.718   6.906
  159SAPE  C21117794   3.043   2.549   6.985
  159SAPE  H11R17795   3.143   2.586   6.985
  159SAPE  C21217796   3.012   2.488   7.097
  159SAPE  H12R17797   3.078   2.431   7.162
  159SAPE  C21317798   2.880   2.472   7.134
  159SAPE  H13R17799   2.846   2.383   7.077
  159SAPE  H13S17800   2.827   2.564   7.092
  159SAPE  C21417801   2.862   2.454   7.283
  159SAPE  H14R17802   2.820   2.356   7.311
  159SAPE  C21517803   2.847   2.558   7.365
  159SAPE  H15R17804   2.823   2.541   7.471
  159SAPE  C21617805   2.850   2.702   7.317
  159SAPE  H16R17806   2.764   2.732   7.253
  159SAPE  H16S17807   2.940   2.713   7.254
  159SAPE  C21717808   2.857   2.797   7.437
  159SAPE  H17R17809   2.769   2.782   7.504
  159SAPE  H17S17810   2.852   2.901   7.397
  159SAPE  C21817811   2.987   2.774   7.516
  159SAPE  H18R17812   3.065   2.842   7.475
  159SAPE  H18S17813   3.021   2.670   7.516
  159SAPE  C21917814   2.975   2.794   7.665
  159SAPE  H19R17815   2.873   2.771   7.707
  159SAPE  H19S17816   2.996   2.901   7.649
  159SAPE  C22017817   3.092   2.788   7.761
  159SAPE  H20R17818   3.179   2.821   7.702
  159SAPE  H20S17819   3.096   2.689   7.807
  159SAPE  H20T17820   3.090   2.867   7.840
  159SAPE   C3317821   3.394   2.619   6.418
  159SAPE   H3X17822   3.427   2.512   6.421
  159SAPE   H3Y17823   3.292   2.621   6.465
  159SAPE   C3417824   3.499   2.699   6.493
  159SAPE   H4X17825   3.603   2.676   6.465
  159SAPE   H4Y17826   3.484   2.666   6.591
  159SAPE   C3517827   3.479   2.847   6.517
  159SAPE   H5X17828   3.376   2.859   6.557
  159SAPE   H5Y17829   3.489   2.892   6.417
  159SAPE   C3617830   3.580   2.906   6.618
  159SAPE   H6X17831   3.685   2.874   6.595
  159SAPE   H6Y17832   3.560   2.872   6.721
  159SAPE   C3717833   3.578   3.059   6.607
  159SAPE   H7X17834   3.582   3.082   6.498
  159SAPE   H7Y17835   3.671   3.100   6.653
  159SAPE   C3817836   3.455   3.129   6.668
  159SAPE   H8X17837   3.363   3.107   6.609
  159SAPE   H8Y17838   3.469   3.240   6.662
  159SAPE   C3917839   3.422   3.085   6.812
  159SAPE   H9X17840   3.511   3.098   6.876
  159SAPE   H9Y17841   3.397   2.977   6.808
  159SAPE  C31017842   3.297   3.156   6.867
  159SAPE  H10X17843   3.214   3.136   6.796
  159SAPE  H10Y17844   3.314   3.266   6.867
  159SAPE  C31117845   3.250   3.109   7.007
  159SAPE  H11X17846   3.227   3.000   7.001
  159SAPE  H11Y17847   3.157   3.164   7.032
  159SAPE  C31217848   3.348   3.137   7.121
  159SAPE  H12X17849   3.351   3.248   7.133
  159SAPE  H12Y17850   3.449   3.104   7.088
  159SAPE  C31317851   3.316   3.066   7.254
  159SAPE  H13X17852   3.323   2.956   7.241
  159SAPE  H13Y17853   3.212   3.089   7.287
  159SAPE  C31417854   3.412   3.102   7.368
  159SAPE  H14X17855   3.400   3.209   7.391
  159SAPE  H14Y17856   3.517   3.082   7.334
  159SAPE  C31517857   3.386   3.018   7.494
  159SAPE  H15X17858   3.383   2.911   7.463
  159SAPE  H15Y17859   3.287   3.045   7.537
  159SAPE  C31617860   3.495   3.031   7.602
  159SAPE  H16X17861   3.473   3.117   7.668
  159SAPE  H16Y17862   3.590   3.057   7.550
  159SAPE  C31717863   3.526   2.900   7.677
  159SAPE  H17X17864   3.545   2.820   7.602
  159SAPE  H17Y17865   3.438   2.866   7.736
  159SAPE  C31817866   3.654   2.914   7.760
  159SAPE  H18X17867   3.688   2.821   7.812
  159SAPE  H18Y17868   3.644   2.993   7.835
  159SAPE  H18Z17869   3.736   2.946   7.694
  160SAPE     N17870   2.753   4.443   6.139
  160SAPE   HN117871   2.718   4.540   6.133
  160SAPE   HN217872   2.829   4.435   6.209
  160SAPE   HN317873   2.789   4.410   6.046
  160SAPE   C1217874   2.642   4.349   6.174
  160SAPE  H12A17875   2.573   4.401   6.244
  160SAPE  H12B17876   2.688   4.261   6.223
  160SAPE   C1117877   2.564   4.306   6.048
  160SAPE  H11A17878   2.510   4.396   6.014
  160SAPE  H11B17879   2.485   4.230   6.070
  160SAPE     P17880   2.690   4.112   5.920
  160SAPE   O1317881   2.597   4.056   5.820
  160SAPE   O1417882   2.833   4.116   5.890
  160SAPE   O1217883   2.652   4.264   5.945
  160SAPE   O1117884   2.664   4.051   6.062
  160SAPE    C117885   2.734   3.928   6.092
  160SAPE    HA17886   2.763   3.868   6.002
  160SAPE    HB17887   2.829   3.955   6.143
  160SAPE    C217888   2.653   3.832   6.183
  160SAPE    HS17889   2.598   3.758   6.121
  160SAPE   O2117890   2.565   3.910   6.259
  160SAPE   C2117891   2.448   3.866   6.271
  160SAPE   O2217892   2.403   3.754   6.254
  160SAPE   C2217893   2.375   3.980   6.327
  160SAPE   H2R17894   2.288   4.014   6.267
  160SAPE   H2S17895   2.361   3.927   6.423
  160SAPE    C317896   2.746   3.755   6.277
  160SAPE    HX17897   2.812   3.697   6.209
  160SAPE    HY17898   2.686   3.685   6.339
  160SAPE   O3117899   2.828   3.845   6.352
  160SAPE   C3117900   2.782   3.878   6.470
  160SAPE   O3217901   2.683   3.833   6.526
  160SAPE   C3217902   2.864   3.991   6.522
  160SAPE   H2X17903   2.862   4.068   6.442
  160SAPE   H2Y17904   2.969   3.965   6.538
  160SAPE   C2317905   2.451   4.097   6.379
  160SAPE   H3R17906   2.499   4.142   6.292
  160SAPE   H3S17907   2.514   4.060   6.464
  160SAPE   C2417908   2.359   4.200   6.420
  160SAPE   H4R17909   2.261   4.178   6.369
  160SAPE   H4S17910   2.386   4.303   6.392
  160SAPE   C2517911   2.344   4.185   6.564
  160SAPE   H5R17912   2.244   4.143   6.573
  160SAPE   C2617913   2.380   4.264   6.663
  160SAPE   H6R17914   2.293   4.264   6.731
  160SAPE   C2717915   2.453   4.400   6.656
  160SAPE   H7R17916   2.432   4.484   6.726
  160SAPE   H7S17917   2.433   4.455   6.562
  160SAPE   C2817918   2.587   4.375   6.708
  160SAPE   H8R17919   2.647   4.367   6.621
  160SAPE   C2917920   2.640   4.373   6.833
  160SAPE   H9R17921   2.740   4.338   6.845
  160SAPE  C21017922   2.585   4.395   6.970
  160SAPE  H10R17923   2.496   4.443   6.939
  160SAPE  H10S17924   2.607   4.486   7.028
  160SAPE  C21117925   2.582   4.265   7.051
  160SAPE  H11R17926   2.536   4.180   6.999
  160SAPE  C21217927   2.596   4.255   7.186
  160SAPE  H12R17928   2.596   4.154   7.231
  160SAPE  C21317929   2.617   4.375   7.277
  160SAPE  H13R17930   2.635   4.406   7.382
  160SAPE  H13S17931   2.607   4.472   7.226
  160SAPE  C21417932   2.753   4.330   7.299
  160SAPE  H14R17933   2.802   4.401   7.244
  160SAPE  C21517934   2.822   4.256   7.387
  160SAPE  H15R17935   2.929   4.281   7.396
  160SAPE  C21617936   2.758   4.192   7.504
  160SAPE  H16R17937   2.831   4.120   7.547
  160SAPE  H16S17938   2.672   4.139   7.461
  160SAPE  C21717939   2.696   4.267   7.621
  160SAPE  H17R17940   2.612   4.334   7.606
  160SAPE  H17S17941   2.744   4.339   7.672
  160SAPE  C21817942   2.689   4.174   7.737
  160SAPE  H18R17943   2.740   4.079   7.755
  160SAPE  H18S17944   2.625   4.125   7.664
  160SAPE  C21917945   2.652   4.240   7.869
  160SAPE  H19R17946   2.555   4.293   7.891
  160SAPE  H19S17947   2.734   4.288   7.921
  160SAPE  C22017948   2.637   4.126   7.950
  160SAPE  H20R17949   2.569   4.067   7.903
  160SAPE  H20S17950   2.572   4.141   8.035
  160SAPE  H20T17951   2.727   4.067   7.964
  160SAPE   C3317952   2.811   4.042   6.657
  160SAPE   H3X17953   2.709   4.008   6.679
  160SAPE   H3Y17954   2.792   4.148   6.649
  160SAPE   C3417955   2.906   4.018   6.775
  160SAPE   H4X17956   2.999   4.079   6.770
  160SAPE   H4Y17957   2.936   3.910   6.770
  160SAPE   C3517958   2.835   4.043   6.908
  160SAPE   H5X17959   2.726   4.028   6.890
  160SAPE   H5Y17960   2.848   4.149   6.940
  160SAPE   C3617961   2.881   3.941   7.014
  160SAPE   H6X17962   2.985   3.965   7.045
  160SAPE   H6Y17963   2.884   3.840   6.965
  160SAPE   C3717964   2.786   3.932   7.134
  160SAPE   H7X17965   2.683   3.920   7.094
  160SAPE   H7Y17966   2.791   4.029   7.189
  160SAPE   C3817967   2.812   3.817   7.234
  160SAPE   H8X17968   2.915   3.777   7.227
  160SAPE   H8Y17969   2.747   3.732   7.204
  160SAPE   C3917970   2.781   3.859   7.380
  160SAPE   H9X17971   2.685   3.916   7.381
  160SAPE   H9Y17972   2.859   3.923   7.423
  160SAPE  C31017973   2.768   3.743   7.476
  160SAPE  H10X17974   2.853   3.674   7.467
  160SAPE  H10Y17975   2.682   3.685   7.435
  160SAPE  C31117976   2.754   3.781   7.625
  160SAPE  H11X17977   2.720   3.687   7.675
  160SAPE  H11Y17978   2.684   3.867   7.638
  160SAPE  C31217979   2.870   3.826   7.707
  160SAPE  H12X17980   2.893   3.929   7.675
  160SAPE  H12Y17981   2.948   3.750   7.683
  160SAPE  C31317982   2.844   3.835   7.859
  160SAPE  H13X17983   2.762   3.903   7.882
  160SAPE  H13Y17984   2.940   3.859   7.909
  160SAPE  C31417985   2.805   3.705   7.920
  160SAPE  H14X17986   2.887   3.640   7.885
  160SAPE  H14Y17987   2.708   3.687   7.874
  160SAPE  C31517988   2.795   3.689   8.072
  160SAPE  H15X17989   2.851   3.779   8.103
  160SAPE  H15Y17990   2.858   3.607   8.107
  160SAPE  C31617991   2.656   3.671   8.141
  160SAPE  H16X17992   2.639   3.693   8.245
  160SAPE  H16Y17993   2.601   3.582   8.163
  160SAPE  C31717994   2.552   3.720   8.063
  160SAPE  H17X17995   2.528   3.685   7.966
  160SAPE  H17Y17996   2.582   3.809   8.025
  160SAPE  C31817997   2.439   3.734   8.145
  160SAPE  H18X17998   2.362   3.722   8.063
  160SAPE  H18Y17999   2.359   3.804   8.165
  160SAPE  H18Z18000   2.432   3.738   8.256
  161SAPE     N18001   3.240   2.105   5.698
  161SAPE   HN118002   3.344   2.108   5.703
  161SAPE   HN218003   3.218   2.047   5.614
  161SAPE   HN318004   3.200   2.201   5.692
  161SAPE   C1218005   3.195   2.041   5.828
  161SAPE  H12A18006   3.261   1.953   5.846
  161SAPE  H12B18007   3.090   2.009   5.814
  161SAPE   C1118008   3.204   2.137   5.948
  161SAPE  H11A18009   3.167   2.081   6.039
  161SAPE  H11B18010   3.135   2.224   5.935
  161SAPE     P18011   3.392   2.226   6.109
  161SAPE   O1318012   3.491   2.336   6.091
  161SAPE   O1418013   3.282   2.243   6.205
  161SAPE   O1218014   3.337   2.187   5.963
  161SAPE   O1118015   3.465   2.097   6.153
  161SAPE    C118016   3.562   2.034   6.076
  161SAPE    HA18017   3.520   1.962   6.002
  161SAPE    HB18018   3.627   2.105   6.020
  161SAPE    C218019   3.656   1.960   6.173
  161SAPE    HS18020   3.716   1.916   6.092
  161SAPE   O2118021   3.596   1.865   6.260
  161SAPE   C2118022   3.550   1.766   6.196
  161SAPE   O2218023   3.578   1.735   6.082
  161SAPE   C2218024   3.455   1.701   6.299
  161SAPE   H2R18025   3.406   1.620   6.250
  161SAPE   H2S18026   3.514   1.669   6.386
  161SAPE    C318027   3.744   2.040   6.270
  161SAPE    HX18028   3.790   2.126   6.218
  161SAPE    HY18029   3.827   1.972   6.297
  161SAPE   O3118030   3.679   2.088   6.388
  161SAPE   C3118031   3.711   2.028   6.500
  161SAPE   O3218032   3.775   1.925   6.515
  161SAPE   C3218033   3.671   2.122   6.614
  161SAPE   H2X18034   3.705   2.071   6.707
  161SAPE   H2Y18035   3.563   2.136   6.609
  161SAPE   C2318036   3.318   1.762   6.338
  161SAPE   H3R18037   3.271   1.797   6.243
  161SAPE   H3S18038   3.348   1.845   6.402
  161SAPE   C2418039   3.224   1.667   6.418
  161SAPE   H4R18040   3.282   1.625   6.503
  161SAPE   H4S18041   3.190   1.579   6.363
  161SAPE   C2518042   3.095   1.723   6.466
  161SAPE   H5R18043   3.016   1.739   6.391
  161SAPE   C2618044   3.068   1.758   6.591
  161SAPE   H6R18045   2.964   1.782   6.611
  161SAPE   C2718046   3.154   1.754   6.713
  161SAPE   H7R18047   3.158   1.650   6.753
  161SAPE   H7S18048   3.107   1.815   6.788
  161SAPE   C2818049   3.283   1.829   6.701
  161SAPE   H8R18050   3.281   1.926   6.650
  161SAPE   C2918051   3.388   1.797   6.772
  161SAPE   H9R18052   3.483   1.852   6.762
  161SAPE  C21018053   3.377   1.684   6.867
  161SAPE  H10R18054   3.391   1.584   6.820
  161SAPE  H10S18055   3.291   1.683   6.936
  161SAPE  C21118056   3.482   1.709   6.959
  161SAPE  H11R18057   3.553   1.629   6.944
  161SAPE  C21218058   3.507   1.811   7.043
  161SAPE  H12R18059   3.565   1.789   7.130
  161SAPE  C21318060   3.449   1.937   7.083
  161SAPE  H13R18061   3.412   1.978   6.989
  161SAPE  H13S18062   3.530   2.003   7.123
  161SAPE  C21418063   3.345   1.904   7.187
  161SAPE  H14R18064   3.248   1.886   7.141
  161SAPE  C21518065   3.361   1.877   7.318
  161SAPE  H15R18066   3.274   1.866   7.383
  161SAPE  C21618067   3.487   1.873   7.395
  161SAPE  H16R18068   3.543   1.956   7.349
  161SAPE  H16S18069   3.548   1.780   7.383
  161SAPE  C21718070   3.463   1.893   7.547
  161SAPE  H17R18071   3.425   1.995   7.569
  161SAPE  H17S18072   3.560   1.881   7.600
  161SAPE  C21818073   3.385   1.787   7.618
  161SAPE  H18R18074   3.458   1.730   7.672
  161SAPE  H18S18075   3.326   1.727   7.549
  161SAPE  C21918076   3.322   1.821   7.749
  161SAPE  H19R18077   3.247   1.898   7.735
  161SAPE  H19S18078   3.404   1.865   7.800
  161SAPE  C22018079   3.287   1.704   7.841
  161SAPE  H20R18080   3.377   1.658   7.888
  161SAPE  H20S18081   3.234   1.629   7.782
  161SAPE  H20T18082   3.224   1.739   7.925
  161SAPE   C3318083   3.731   2.264   6.604
  161SAPE   H3X18084   3.744   2.299   6.499
  161SAPE   H3Y18085   3.826   2.247   6.647
  161SAPE   C3418086   3.704   2.371   6.706
  161SAPE   H4X18087   3.794   2.439   6.719
  161SAPE   H4Y18088   3.690   2.321   6.803
  161SAPE   C3518089   3.593   2.455   6.651
  161SAPE   H5X18090   3.546   2.396   6.567
  161SAPE   H5Y18091   3.646   2.539   6.603
  161SAPE   C3618092   3.489   2.497   6.754
  161SAPE   H6X18093   3.437   2.593   6.742
  161SAPE   H6Y18094   3.534   2.517   6.852
  161SAPE   C3718095   3.372   2.402   6.747
  161SAPE   H7X18096   3.406   2.299   6.766
  161SAPE   H7Y18097   3.326   2.412   6.645
  161SAPE   C3818098   3.267   2.434   6.848
  161SAPE   H8X18099   3.177   2.370   6.832
  161SAPE   H8Y18100   3.237   2.540   6.824
  161SAPE   C3918101   3.315   2.433   6.994
  161SAPE   H9X18102   3.230   2.409   7.059
  161SAPE   H9Y18103   3.347   2.535   7.021
  161SAPE  C31018104   3.409   2.326   7.041
  161SAPE  H10X18105   3.512   2.356   7.016
  161SAPE  H10Y18106   3.384   2.234   6.982
  161SAPE  C31118107   3.390   2.302   7.194
  161SAPE  H11X18108   3.464   2.228   7.229
  161SAPE  H11Y18109   3.290   2.255   7.206
  161SAPE  C31218110   3.397   2.429   7.284
  161SAPE  H12X18111   3.323   2.505   7.250
  161SAPE  H12Y18112   3.496   2.478   7.284
  161SAPE  C31318113   3.355   2.406   7.429
  161SAPE  H13X18114   3.260   2.348   7.434
  161SAPE  H13Y18115   3.335   2.506   7.475
  161SAPE  C31418116   3.455   2.337   7.519
  161SAPE  H14X18117   3.549   2.397   7.526
  161SAPE  H14Y18118   3.483   2.235   7.484
  161SAPE  C31518119   3.381   2.336   7.653
  161SAPE  H15X18120   3.288   2.276   7.652
  161SAPE  H15Y18121   3.369   2.441   7.688
  161SAPE  C31618122   3.455   2.280   7.764
  161SAPE  H16X18123   3.544   2.344   7.756
  161SAPE  H16Y18124   3.468   2.175   7.726
  161SAPE  C31718125   3.411   2.332   7.903
  161SAPE  H17X18126   3.314   2.282   7.919
  161SAPE  H17Y18127   3.416   2.442   7.895
  161SAPE  C31818128   3.493   2.322   8.031
  161SAPE  H18X18129   3.449   2.270   8.119
  161SAPE  H18Y18130   3.602   2.340   8.041
  161SAPE  H18Z18131   3.516   2.235   7.981
  162SAPE     N18132   3.300   5.529   6.241
  162SAPE   HN118133   3.274   5.629   6.233
  162SAPE   HN218134   3.304   5.496   6.339
  162SAPE   HN318135   3.393   5.516   6.194
  162SAPE   C1218136   3.206   5.443   6.161
  162SAPE  H12A18137   3.104   5.453   6.202
  162SAPE  H12B18138   3.243   5.339   6.175
  162SAPE   C1118139   3.215   5.481   6.014
  162SAPE  H11A18140   3.168   5.580   5.994
  162SAPE  H11B18141   3.154   5.406   5.956
  162SAPE     P18142   3.421   5.361   5.907
  162SAPE   O1318143   3.352   5.331   5.779
  162SAPE   O1418144   3.567   5.377   5.911
  162SAPE   O1218145   3.352   5.488   5.975
  162SAPE   O1118146   3.377   5.250   6.014
  162SAPE    C118147   3.481   5.179   6.083
  162SAPE    HA18148   3.550   5.131   6.010
  162SAPE    HB18149   3.542   5.249   6.144
  162SAPE    C218150   3.428   5.067   6.179
  162SAPE    HS18151   3.385   4.989   6.112
  162SAPE   O2118152   3.322   5.116   6.266
  162SAPE   C2118153   3.257   5.020   6.334
  162SAPE   O2218154   3.279   4.901   6.326
  162SAPE   C2218155   3.148   5.083   6.423
  162SAPE   H2R18156   3.124   5.185   6.389
  162SAPE   H2S18157   3.055   5.023   6.416
  162SAPE    C318158   3.550   5.012   6.261
  162SAPE    HX18159   3.630   4.979   6.191
  162SAPE    HY18160   3.523   4.922   6.321
  162SAPE   O3118161   3.604   5.120   6.338
  162SAPE   C3118162   3.577   5.123   6.466
  162SAPE   O3218163   3.544   5.028   6.535
  162SAPE   C3218164   3.589   5.271   6.514
  162SAPE   H2X18165   3.491   5.314   6.534
  162SAPE   H2Y18166   3.644   5.329   6.436
  162SAPE   C2318167   3.199   5.083   6.569
  162SAPE   H3R18168   3.298   5.135   6.566
  162SAPE   H3S18169   3.215   4.978   6.602
  162SAPE   C2418170   3.113   5.152   6.677
  162SAPE   H4R18171   3.025   5.087   6.700
  162SAPE   H4S18172   3.074   5.249   6.640
  162SAPE   C2518173   3.195   5.177   6.801
  162SAPE   H5R18174   3.301   5.149   6.797
  162SAPE   C2618175   3.151   5.242   6.910
  162SAPE   H6R18176   3.223   5.262   6.992
  162SAPE   C2718177   3.015   5.303   6.927
  162SAPE   H7R18178   2.981   5.295   7.033
  162SAPE   H7S18179   2.940   5.246   6.868
  162SAPE   C2818180   3.022   5.446   6.881
  162SAPE   H8R18181   3.003   5.463   6.774
  162SAPE   C2918182   3.043   5.553   6.961
  162SAPE   H9R18183   3.050   5.652   6.913
  162SAPE  C21018184   3.063   5.546   7.111
  162SAPE  H10R18185   3.144   5.473   7.136
  162SAPE  H10S18186   2.970   5.504   7.155
  162SAPE  C21118187   3.091   5.681   7.172
  162SAPE  H11R18188   3.039   5.765   7.122
  162SAPE  C21218189   3.157   5.707   7.286
  162SAPE  H12R18190   3.173   5.813   7.309
  162SAPE  C21318191   3.221   5.612   7.386
  162SAPE  H13R18192   3.267   5.524   7.336
  162SAPE  H13S18193   3.138   5.571   7.447
  162SAPE  C21418194   3.317   5.675   7.486
  162SAPE  H14R18195   3.323   5.784   7.480
  162SAPE  C21518196   3.394   5.613   7.577
  162SAPE  H15R18197   3.461   5.675   7.639
  162SAPE  C21618198   3.405   5.465   7.604
  162SAPE  H16R18199   3.337   5.409   7.537
  162SAPE  H16S18200   3.378   5.438   7.709
  162SAPE  C21718201   3.552   5.425   7.577
  162SAPE  H17R18202   3.618   5.483   7.646
  162SAPE  H17S18203   3.573   5.458   7.472
  162SAPE  C21818204   3.586   5.274   7.586
  162SAPE  H18R18205   3.679   5.248   7.530
  162SAPE  H18S18206   3.504   5.219   7.536
  162SAPE  C21918207   3.603   5.217   7.727
  162SAPE  H19R18208   3.505   5.222   7.780
  162SAPE  H19S18209   3.675   5.280   7.784
  162SAPE  C22018210   3.655   5.073   7.726
  162SAPE  H20R18211   3.638   5.022   7.823
  162SAPE  H20S18212   3.764   5.073   7.704
  162SAPE  H20T18213   3.602   5.013   7.649
  162SAPE   C3318214   3.657   5.295   6.649
  162SAPE   H3X18215   3.711   5.202   6.636
  162SAPE   H3Y18216   3.625   5.252   6.745
  162SAPE   C3418217   3.728   5.437   6.662
  162SAPE   H4X18218   3.796   5.461   6.577
  162SAPE   H4Y18219   3.796   5.457   6.750
  162SAPE   C3518220   3.630   5.544   6.693
  162SAPE   H5X18221   3.563   5.538   6.605
  162SAPE   H5Y18222   3.683   5.642   6.691
  162SAPE   C3618223   3.553   5.513   6.823
  162SAPE   H6X18224   3.553   5.404   6.845
  162SAPE   H6Y18225   3.448   5.536   6.794
  162SAPE   C3718226   3.590   5.589   6.953
  162SAPE   H7X18227   3.581   5.697   6.928
  162SAPE   H7Y18228   3.695   5.572   6.985
  162SAPE   C3818229   3.502   5.563   7.078
  162SAPE   H8X18230   3.405   5.617   7.062
  162SAPE   H8Y18231   3.548   5.607   7.169
  162SAPE   C3918232   3.466   5.417   7.109
  162SAPE   H9X18233   3.424   5.367   7.019
  162SAPE   H9Y18234   3.389   5.419   7.190
  162SAPE  C31018235   3.576   5.327   7.165
  162SAPE  H10X18236   3.611   5.372   7.260
  162SAPE  H10Y18237   3.660   5.325   7.093
  162SAPE  C31118238   3.522   5.184   7.188
  162SAPE  H11X18239   3.602   5.123   7.235
  162SAPE  H11Y18240   3.495   5.139   7.089
  162SAPE  C31218241   3.395   5.177   7.275
  162SAPE  H12X18242   3.309   5.219   7.218
  162SAPE  H12Y18243   3.405   5.244   7.363
  162SAPE  C31318244   3.349   5.035   7.310
  162SAPE  H13X18245   3.393   4.996   7.405
  162SAPE  H13Y18246   3.384   4.968   7.228
  162SAPE  C31418247   3.195   5.024   7.311
  162SAPE  H14X18248   3.170   4.916   7.324
  162SAPE  H14Y18249   3.156   5.055   7.211
  162SAPE  C31518250   3.122   5.110   7.416
  162SAPE  H15X18251   3.015   5.077   7.416
  162SAPE  H15Y18252   3.125   5.216   7.382
  162SAPE  C31618253   3.177   5.096   7.560
  162SAPE  H16X18254   3.284   5.124   7.562
  162SAPE  H16Y18255   3.170   4.988   7.589
  162SAPE  C31718256   3.106   5.173   7.673
  162SAPE  H17X18257   3.004   5.131   7.686
  162SAPE  H17Y18258   3.094   5.282   7.650
  162SAPE  C31818259   3.181   5.159   7.807
  162SAPE  H18X18260   3.174   5.053   7.841
  162SAPE  H18Y18261   3.135   5.223   7.885
  162SAPE  H18Z18262   3.288   5.184   7.798
  163SAPE     N18263   1.214   4.293   5.819
  163SAPE   HN118264   1.169   4.350   5.745
  163SAPE   HN218265   1.154   4.294   5.905
  163SAPE   HN318266   1.304   4.339   5.843
  163SAPE   C1218267   1.215   4.151   5.773
  163SAPE  H12A18268   1.251   4.149   5.668
  163SAPE  H12B18269   1.111   4.112   5.777
  163SAPE   C1118270   1.305   4.074   5.867
  163SAPE  H11A18271   1.408   4.116   5.855
  163SAPE  H11B18272   1.304   3.967   5.835
  163SAPE     P18273   1.369   4.039   6.114
  163SAPE   O1318274   1.305   4.041   6.247
  163SAPE   O1418275   1.441   3.919   6.067
  163SAPE   O1218276   1.261   4.085   6.003
  163SAPE   O1118277   1.465   4.165   6.098
  163SAPE    C118278   1.606   4.149   6.078
  163SAPE    HA18279   1.634   4.055   6.024
  163SAPE    HB18280   1.644   4.233   6.018
  163SAPE    C218281   1.682   4.143   6.210
  163SAPE    HS18282   1.791   4.149   6.184
  163SAPE   O2118283   1.653   4.010   6.260
  163SAPE   C2118284   1.706   3.999   6.378
  163SAPE   O2218285   1.776   4.085   6.427
  163SAPE   C2218286   1.664   3.870   6.447
  163SAPE   H2R18287   1.608   3.813   6.373
  163SAPE   H2S18288   1.740   3.801   6.483
  163SAPE    C318289   1.643   4.261   6.310
  163SAPE    HX18290   1.614   4.354   6.260
  163SAPE    HY18291   1.738   4.283   6.363
  163SAPE   O3118292   1.550   4.223   6.412
  163SAPE   C3118293   1.544   4.305   6.514
  163SAPE   O3218294   1.611   4.405   6.533
  163SAPE   C3218295   1.441   4.254   6.609
  163SAPE   H2X18296   1.492   4.201   6.691
  163SAPE   H2Y18297   1.370   4.185   6.559
  163SAPE   C2318298   1.586   3.904   6.572
  163SAPE   H3R18299   1.503   3.965   6.531
  163SAPE   H3S18300   1.649   3.966   6.640
  163SAPE   C2418301   1.538   3.781   6.649
  163SAPE   H4R18302   1.617   3.754   6.721
  163SAPE   H4S18303   1.527   3.693   6.582
  163SAPE   C2518304   1.406   3.816   6.713
  163SAPE   H5R18305   1.322   3.823   6.642
  163SAPE   C2618306   1.384   3.843   6.842
  163SAPE   H6R18307   1.283   3.859   6.880
  163SAPE   C2718308   1.486   3.842   6.950
  163SAPE   H7R18309   1.516   3.739   6.937
  163SAPE   H7S18310   1.442   3.847   7.052
  163SAPE   C2818311   1.604   3.932   6.942
  163SAPE   H8R18312   1.598   4.019   6.876
  163SAPE   C2918313   1.711   3.926   7.020
  163SAPE   H9R18314   1.784   4.000   7.000
  163SAPE  C21018315   1.740   3.831   7.131
  163SAPE  H10R18316   1.798   3.748   7.095
  163SAPE  H10S18317   1.646   3.789   7.158
  163SAPE  C21118318   1.803   3.864   7.260
  163SAPE  H11R18319   1.894   3.809   7.290
  163SAPE  C21218320   1.756   3.949   7.346
  163SAPE  H12R18321   1.823   3.980   7.426
  163SAPE  C21318322   1.628   4.018   7.317
  163SAPE  H13R18323   1.554   3.946   7.274
  163SAPE  H13S18324   1.641   4.101   7.244
  163SAPE  C21418325   1.583   4.082   7.443
  163SAPE  H14R18326   1.641   4.172   7.463
  163SAPE  C21518327   1.491   4.041   7.530
  163SAPE  H15R18328   1.475   4.098   7.622
  163SAPE  C21618329   1.408   3.918   7.519
  163SAPE  H16R18330   1.410   3.870   7.419
  163SAPE  H16S18331   1.300   3.933   7.543
  163SAPE  C21718332   1.479   3.828   7.620
  163SAPE  H17R18333   1.584   3.801   7.604
  163SAPE  H17S18334   1.431   3.741   7.569
  163SAPE  C21818335   1.456   3.869   7.773
  163SAPE  H18R18336   1.347   3.890   7.784
  163SAPE  H18S18337   1.508   3.959   7.802
  163SAPE  C21918338   1.487   3.768   7.888
  163SAPE  H19R18339   1.567   3.704   7.848
  163SAPE  H19S18340   1.421   3.686   7.920
  163SAPE  C22018341   1.458   3.811   8.029
  163SAPE  H20R18342   1.479   3.729   8.102
  163SAPE  H20S18343   1.350   3.832   8.038
  163SAPE  H20T18344   1.523   3.896   8.044
  163SAPE   C3318345   1.373   4.377   6.666
  163SAPE   H3X18346   1.324   4.436   6.584
  163SAPE   H3Y18347   1.447   4.448   6.708
  163SAPE   C3418348   1.276   4.325   6.771
  163SAPE   H4X18349   1.319   4.273   6.856
  163SAPE   H4Y18350   1.208   4.253   6.718
  163SAPE   C3518351   1.177   4.428   6.812
  163SAPE   H5X18352   1.091   4.373   6.848
  163SAPE   H5Y18353   1.174   4.474   6.710
  163SAPE   C3618354   1.187   4.530   6.923
  163SAPE   H6X18355   1.139   4.618   6.981
  163SAPE   H6Y18356   1.225   4.584   6.838
  163SAPE   C3718357   1.259   4.451   7.009
  163SAPE   H7X18358   1.317   4.532   6.987
  163SAPE   H7Y18359   1.351   4.397   6.997
  163SAPE   C3818360   1.177   4.450   7.127
  163SAPE   H8X18361   1.083   4.410   7.082
  163SAPE   H8Y18362   1.154   4.552   7.169
  163SAPE   C3918363   1.256   4.366   7.224
  163SAPE   H9X18364   1.340   4.424   7.273
  163SAPE   H9Y18365   1.297   4.280   7.171
  163SAPE  C31018366   1.158   4.334   7.328
  163SAPE  H10X18367   1.057   4.313   7.287
  163SAPE  H10Y18368   1.166   4.440   7.340
  163SAPE  C31118369   1.203   4.266   7.455
  163SAPE  H11X18370   1.303   4.305   7.487
  163SAPE  H11Y18371   1.211   4.162   7.422
  163SAPE  C31218372   1.110   4.266   7.577
  163SAPE  H12X18373   1.007   4.232   7.551
  163SAPE  H12Y18374   1.102   4.364   7.622
  163SAPE  C31318375   1.159   4.187   7.699
  163SAPE  H13X18376   1.192   4.087   7.666
  163SAPE  H13Y18377   1.068   4.180   7.764
  163SAPE  C31418378   1.275   4.241   7.783
  163SAPE  H14X18379   1.255   4.342   7.810
  163SAPE  H14Y18380   1.365   4.267   7.725
  163SAPE  C31518381   1.292   4.157   7.916
  163SAPE  H15X18382   1.320   4.058   7.893
  163SAPE  H15Y18383   1.199   4.154   7.973
  163SAPE  C31618384   1.380   4.198   8.032
  163SAPE  H16X18385   1.358   4.183   8.140
  163SAPE  H16Y18386   1.327   4.288   8.023
  163SAPE  C31718387   1.531   4.203   8.013
  163SAPE  H17X18388   1.529   4.093   8.005
  163SAPE  H17Y18389   1.581   4.237   8.107
  163SAPE  C31818390   1.611   4.261   7.895
  163SAPE  H18X18391   1.575   4.212   7.803
  163SAPE  H18Y18392   1.719   4.253   7.907
  163SAPE  H18Z18393   1.635   4.366   7.889
  164SAPE     N18394   5.323   0.787   6.036
  164SAPE   HN118395   5.291   0.840   6.120
  164SAPE   HN218396   5.245   0.728   6.002
  164SAPE   HN318397   5.406   0.725   6.058
  164SAPE   C1218398   5.361   0.883   5.927
  164SAPE  H12A18399   5.370   0.827   5.832
  164SAPE  H12B18400   5.458   0.929   5.956
  164SAPE   C1118401   5.254   0.991   5.909
  164SAPE  H11A18402   5.152   0.947   5.896
  164SAPE  H11B18403   5.278   1.046   5.814
  164SAPE     P18404   5.333   1.211   6.017
  164SAPE   O1318405   5.475   1.171   6.006
  164SAPE   O1418406   5.272   1.298   5.915
  164SAPE   O1218407   5.251   1.075   6.023
  164SAPE   O1118408   5.301   1.268   6.159
  164SAPE    C118409   5.349   1.196   6.273
  164SAPE    HA18410   5.424   1.117   6.247
  164SAPE    HB18411   5.397   1.272   6.338
  164SAPE    C218412   5.235   1.133   6.353
  164SAPE    HS18413   5.166   1.088   6.277
  164SAPE   O2118414   5.173   1.240   6.425
  164SAPE   C2118415   5.045   1.220   6.442
  164SAPE   O2218416   4.981   1.123   6.403
  164SAPE   C2218417   4.992   1.338   6.519
  164SAPE   H2R18418   5.054   1.428   6.504
  164SAPE   H2S18419   4.888   1.357   6.486
  164SAPE    C318420   5.277   1.022   6.451
  164SAPE    HX18421   5.364   1.047   6.510
  164SAPE    HY18422   5.304   0.932   6.388
  164SAPE   O3118423   5.176   1.006   6.554
  164SAPE   C3118424   5.141   0.878   6.567
  164SAPE   O3218425   5.194   0.789   6.512
  164SAPE   C3218426   5.019   0.844   6.639
  164SAPE   H2X18427   4.955   0.772   6.584
  164SAPE   H2Y18428   4.986   0.938   6.620
  164SAPE   C2318429   5.002   1.310   6.667
  164SAPE   H3R18430   5.090   1.258   6.709
  164SAPE   H3S18431   4.911   1.255   6.679
  164SAPE   C2418432   4.965   1.426   6.747
  164SAPE   H4R18433   4.872   1.468   6.716
  164SAPE   H4S18434   5.040   1.500   6.762
  164SAPE   C2518435   4.923   1.400   6.877
  164SAPE   H5R18436   4.821   1.370   6.889
  164SAPE   C2618437   4.983   1.380   6.986
  164SAPE   H6R18438   4.906   1.362   7.054
  164SAPE   C2718439   5.108   1.376   7.055
  164SAPE   H7R18440   5.102   1.435   7.145
  164SAPE   H7S18441   5.109   1.438   6.981
  164SAPE   C2818442   5.218   1.273   7.044
  164SAPE   H8R18443   5.233   1.239   6.942
  164SAPE   C2918444   5.301   1.228   7.138
  164SAPE   H9R18445   5.400   1.193   7.107
  164SAPE  C21018446   5.296   1.271   7.279
  164SAPE  H10R18447   5.256   1.195   7.345
  164SAPE  H10S18448   5.213   1.339   7.292
  164SAPE  C21118449   5.435   1.314   7.312
  164SAPE  H11R18450   5.462   1.417   7.284
  164SAPE  C21218451   5.514   1.243   7.393
  164SAPE  H12R18452   5.612   1.279   7.428
  164SAPE  C21318453   5.474   1.119   7.459
  164SAPE  H13R18454   5.403   1.070   7.393
  164SAPE  H13S18455   5.426   1.145   7.556
  164SAPE  C21418456   5.594   1.036   7.480
  164SAPE  H14R18457   5.690   1.082   7.455
  164SAPE  C21518458   5.588   0.918   7.538
  164SAPE  H15R18459   5.679   0.860   7.544
  164SAPE  C21618460   5.466   0.850   7.591
  164SAPE  H16R18461   5.483   0.741   7.594
  164SAPE  H16S18462   5.378   0.868   7.527
  164SAPE  C21718463   5.428   0.898   7.732
  164SAPE  H17R18464   5.329   0.855   7.758
  164SAPE  H17S18465   5.427   1.008   7.736
  164SAPE  C21818466   5.527   0.857   7.838
  164SAPE  H18R18467   5.619   0.914   7.836
  164SAPE  H18S18468   5.577   0.770   7.807
  164SAPE  C21918469   5.472   0.842   7.978
  164SAPE  H19R18470   5.389   0.770   7.997
  164SAPE  H19S18471   5.433   0.942   8.007
  164SAPE  C22018472   5.588   0.798   8.060
  164SAPE  H20R18473   5.561   0.808   8.168
  164SAPE  H20S18474   5.679   0.858   8.036
  164SAPE  H20T18475   5.626   0.699   8.037
  164SAPE   C3318476   5.035   0.814   6.786
  164SAPE   H3X18477   5.116   0.741   6.796
  164SAPE   H3Y18478   4.941   0.768   6.824
  164SAPE   C3418479   5.070   0.935   6.869
  164SAPE   H4X18480   5.001   1.016   6.854
  164SAPE   H4Y18481   5.150   1.000   6.831
  164SAPE   C3518482   5.094   0.894   7.017
  164SAPE   H5X18483   5.105   0.989   7.068
  164SAPE   H5Y18484   5.193   0.853   7.028
  164SAPE   C3618485   4.998   0.800   7.096
  164SAPE   H6X18486   5.022   0.772   7.199
  164SAPE   H6Y18487   4.970   0.713   7.031
  164SAPE   C3718488   4.865   0.850   7.127
  164SAPE   H7X18489   4.799   0.768   7.162
  164SAPE   H7Y18490   4.855   0.880   7.022
  164SAPE   C3818491   4.822   0.950   7.221
  164SAPE   H8X18492   4.733   0.984   7.170
  164SAPE   H8Y18493   4.802   1.055   7.224
  164SAPE   C3918494   4.884   0.936   7.352
  164SAPE   H9X18495   4.982   0.898   7.335
  164SAPE   H9Y18496   4.803   0.872   7.381
  164SAPE  C31018497   4.924   1.064   7.416
  164SAPE  H10X18498   4.827   1.093   7.401
  164SAPE  H10Y18499   4.900   1.147   7.392
  164SAPE  C31118500   4.987   1.126   7.539
  164SAPE  H11X18501   4.931   1.140   7.628
  164SAPE  H11Y18502   5.011   1.236   7.533
  164SAPE  C31218503   5.080   1.028   7.571
  164SAPE  H12X18504   5.146   1.065   7.492
  164SAPE  H12Y18505   5.030   0.930   7.546
  164SAPE  C31318506   5.103   1.045   7.716
  164SAPE  H13X18507   5.130   0.947   7.756
  164SAPE  H13Y18508   5.016   1.077   7.775
  164SAPE  C31418509   5.153   1.177   7.761
  164SAPE  H14X18510   5.092   1.265   7.730
  164SAPE  H14Y18511   5.251   1.169   7.712
  164SAPE  C31518512   5.150   1.173   7.913
  164SAPE  H15X18513   5.239   1.236   7.931
  164SAPE  H15Y18514   5.167   1.067   7.944
  164SAPE  C31618515   5.028   1.228   7.995
  164SAPE  H16X18516   4.935   1.199   7.947
  164SAPE  H16Y18517   5.030   1.339   7.999
  164SAPE  C31718518   4.994   1.168   8.134
  164SAPE  H17X18519   5.037   1.066   8.146
  164SAPE  H17Y18520   4.886   1.166   8.156
  164SAPE  C31818521   5.031   1.261   8.244
  164SAPE  H18X18522   5.025   1.218   8.345
  164SAPE  H18Y18523   5.047   1.368   8.222
  164SAPE  H18Z18524   5.131   1.250   8.238
  165SAPE     N18525   6.722   2.553   6.198
  165SAPE   HN118526   6.767   2.494   6.271
  165SAPE   HN218527   6.623   2.575   6.220
  165SAPE   HN318528   6.720   2.508   6.104
  165SAPE   C1218529   6.791   2.685   6.183
  165SAPE  H12A18530   6.885   2.664   6.130
  165SAPE  H12B18531   6.819   2.720   6.284
  165SAPE   C1118532   6.700   2.785   6.110
  165SAPE  H11A18533   6.764   2.864   6.064
  165SAPE  H11B18534   6.636   2.836   6.185
  165SAPE     P18535   6.554   2.798   5.889
  165SAPE   O1318536   6.660   2.856   5.803
  165SAPE   O1418537   6.445   2.721   5.829
  165SAPE   O1218538   6.618   2.717   6.012
  165SAPE   O1118539   6.498   2.918   5.976
  165SAPE    C118540   6.375   2.886   6.040
  165SAPE    HA18541   6.299   2.878   5.960
  165SAPE    HB18542   6.364   2.783   6.084
  165SAPE    C218543   6.352   2.983   6.157
  165SAPE    HS18544   6.348   3.088   6.120
  165SAPE   O2118545   6.452   2.976   6.260
  165SAPE   C2118546   6.446   3.057   6.366
  165SAPE   O2218547   6.373   3.152   6.384
  165SAPE   C2218548   6.557   3.012   6.455
  165SAPE   H2R18549   6.576   2.904   6.434
  165SAPE   H2S18550   6.646   3.072   6.429
  165SAPE    C318551   6.222   2.947   6.220
  165SAPE    HX18552   6.128   2.960   6.169
  165SAPE    HY18553   6.225   3.018   6.301
  165SAPE   O3118554   6.199   2.819   6.265
  165SAPE   C3118555   6.191   2.796   6.393
  165SAPE   O3218556   6.203   2.868   6.488
  165SAPE   C3218557   6.170   2.657   6.409
  165SAPE   H2X18558   6.065   2.664   6.380
  165SAPE   H2Y18559   6.182   2.630   6.516
  165SAPE   C2318560   6.520   3.027   6.602
  165SAPE   H3R18561   6.409   3.032   6.614
  165SAPE   H3S18562   6.566   3.120   6.640
  165SAPE   C2418563   6.575   2.905   6.675
  165SAPE   H4R18564   6.678   2.889   6.639
  165SAPE   H4S18565   6.516   2.816   6.644
  165SAPE   C2518566   6.571   2.920   6.825
  165SAPE   H5R18567   6.658   2.969   6.872
  165SAPE   C2618568   6.461   2.899   6.898
  165SAPE   H6R18569   6.468   2.912   7.007
  165SAPE   C2718570   6.326   2.859   6.841
  165SAPE   H7R18571   6.304   2.751   6.834
  165SAPE   H7S18572   6.308   2.903   6.740
  165SAPE   C2818573   6.236   2.923   6.938
  165SAPE   H8R18574   6.170   2.851   6.993
  165SAPE   C2918575   6.193   3.048   6.920
  165SAPE   H9R18576   6.117   3.090   6.987
  165SAPE  C21018577   6.214   3.155   6.813
  165SAPE  H10R18578   6.145   3.141   6.733
  165SAPE  H10S18579   6.292   3.140   6.738
  165SAPE  C21118580   6.175   3.292   6.866
  165SAPE  H11R18581   6.072   3.333   6.855
  165SAPE  C21218582   6.259   3.342   6.951
  165SAPE  H12R18583   6.248   3.441   6.994
  165SAPE  C21318584   6.378   3.252   6.976
  165SAPE  H13R18585   6.432   3.231   6.881
  165SAPE  H13S18586   6.357   3.161   7.032
  165SAPE  C21418587   6.472   3.315   7.058
  165SAPE  H14R18588   6.490   3.397   7.001
  165SAPE  C21518589   6.530   3.285   7.172
  165SAPE  H15R18590   6.616   3.338   7.205
  165SAPE  C21618591   6.512   3.167   7.253
  165SAPE  H16R18592   6.614   3.125   7.257
  165SAPE  H16S18593   6.444   3.099   7.202
  165SAPE  C21718594   6.466   3.196   7.395
  165SAPE  H17R18595   6.360   3.230   7.400
  165SAPE  H17S18596   6.528   3.276   7.442
  165SAPE  C21818597   6.483   3.064   7.469
  165SAPE  H18R18598   6.590   3.036   7.463
  165SAPE  H18S18599   6.427   2.985   7.412
  165SAPE  C21918600   6.436   3.064   7.614
  165SAPE  H19R18601   6.478   2.975   7.665
  165SAPE  H19S18602   6.325   3.056   7.619
  165SAPE  C22018603   6.474   3.191   7.690
  165SAPE  H20R18604   6.436   3.279   7.633
  165SAPE  H20S18605   6.584   3.199   7.704
  165SAPE  H20T18606   6.423   3.192   7.789
  165SAPE   C3318607   6.247   2.580   6.305
  165SAPE   H3X18608   6.211   2.607   6.203
  165SAPE   H3Y18609   6.243   2.471   6.308
  165SAPE   C3418610   6.390   2.587   6.343
  165SAPE   H4X18611   6.409   2.692   6.370
  165SAPE   H4Y18612   6.444   2.555   6.252
  165SAPE   C3518613   6.417   2.489   6.459
  165SAPE   H5X18614   6.383   2.387   6.428
  165SAPE   H5Y18615   6.363   2.517   6.552
  165SAPE   C3618616   6.567   2.482   6.481
  165SAPE   H6X18617   6.602   2.588   6.484
  165SAPE   H6Y18618   6.605   2.432   6.389
  165SAPE   C3718619   6.620   2.408   6.604
  165SAPE   H7X18620   6.730   2.398   6.585
  165SAPE   H7Y18621   6.577   2.306   6.617
  165SAPE   C3818622   6.613   2.485   6.736
  165SAPE   H8X18623   6.511   2.473   6.780
  165SAPE   H8Y18624   6.630   2.593   6.716
  165SAPE   C3918625   6.716   2.434   6.839
  165SAPE   H9X18626   6.819   2.466   6.815
  165SAPE   H9Y18627   6.715   2.323   6.833
  165SAPE  C31018628   6.681   2.472   6.985
  165SAPE  H10X18629   6.746   2.412   7.052
  165SAPE  H10Y18630   6.576   2.442   7.003
  165SAPE  C31118631   6.694   2.622   7.020
  165SAPE  H11X18632   6.625   2.680   6.955
  165SAPE  H11Y18633   6.797   2.658   6.997
  165SAPE  C31218634   6.661   2.657   7.167
  165SAPE  H12X18635   6.686   2.765   7.183
  165SAPE  H12Y18636   6.725   2.597   7.235
  165SAPE  C31318637   6.512   2.635   7.203
  165SAPE  H13X18638   6.489   2.528   7.184
  165SAPE  H13Y18639   6.450   2.696   7.134
  165SAPE  C31418640   6.478   2.668   7.349
  165SAPE  H14X18641   6.368   2.656   7.367
  165SAPE  H14Y18642   6.504   2.775   7.367
  165SAPE  C31518643   6.558   2.579   7.444
  165SAPE  H15X18644   6.666   2.584   7.429
  165SAPE  H15Y18645   6.527   2.472   7.430
  165SAPE  C31618646   6.543   2.609   7.588
  165SAPE  H16X18647   6.547   2.718   7.613
  165SAPE  H16Y18648   6.628   2.561   7.645
  165SAPE  C31718649   6.417   2.543   7.631
  165SAPE  H17X18650   6.413   2.432   7.628
  165SAPE  H17Y18651   6.320   2.599   7.617
  165SAPE  C31818652   6.432   2.556   7.767
  165SAPE  H18X18653   6.356   2.516   7.818
  165SAPE  H18Y18654   6.388   2.656   7.785
  165SAPE  H18Z18655   6.529   2.523   7.815
  166SAPE     N18656   4.158   0.104   6.194
  166SAPE   HN118657   4.256   0.073   6.210
  166SAPE   HN218658   4.151   0.207   6.191
  166SAPE   HN318659   4.097   0.071   6.273
  166SAPE   C1218660   4.106   0.048   6.064
  166SAPE  H12A18661   4.034  -0.033   6.086
  166SAPE  H12B18662   4.191   0.007   6.007
  166SAPE   C1118663   4.039   0.156   5.977
  166SAPE  H11A18664   4.028   0.113   5.875
  166SAPE  H11B18665   4.107   0.245   5.972
  166SAPE     P18666   3.821   0.293   5.944
  166SAPE   O1318667   3.847   0.285   5.799
  166SAPE   O1418668   3.680   0.294   5.991
  166SAPE   O1218669   3.911   0.191   6.029
  166SAPE   O1118670   3.889   0.433   5.984
  166SAPE    C118671   3.913   0.457   6.122
  166SAPE    HA18672   3.838   0.408   6.190
  166SAPE    HB18673   4.013   0.420   6.152
  166SAPE    C218674   3.904   0.604   6.156
  166SAPE    HS18675   3.981   0.667   6.109
  166SAPE   O2118676   3.929   0.604   6.292
  166SAPE   C2118677   3.898   0.714   6.348
  166SAPE   O2218678   3.896   0.827   6.300
  166SAPE   C2218679   3.909   0.681   6.494
  166SAPE   H2R18680   3.996   0.612   6.513
  166SAPE   H2S18681   3.910   0.792   6.509
  166SAPE    C318682   3.767   0.662   6.120
  166SAPE    HX18683   3.764   0.674   6.010
  166SAPE    HY18684   3.755   0.769   6.150
  166SAPE   O3118685   3.654   0.577   6.152
  166SAPE   C3118686   3.634   0.538   6.273
  166SAPE   O3218687   3.694   0.574   6.371
  166SAPE   C3218688   3.517   0.442   6.289
  166SAPE   H2X18689   3.446   0.449   6.208
  166SAPE   H2Y18690   3.446   0.445   6.372
  166SAPE   C2318691   3.833   0.615   6.605
  166SAPE   H3R18692   3.801   0.529   6.546
  166SAPE   H3S18693   3.772   0.703   6.634
  166SAPE   C2418694   3.894   0.529   6.718
  166SAPE   H4R18695   3.989   0.474   6.708
  166SAPE   H4S18696   3.811   0.489   6.774
  166SAPE   C2518697   3.924   0.614   6.822
  166SAPE   H5R18698   3.963   0.688   6.765
  166SAPE   C2618699   3.894   0.646   6.941
  166SAPE   H6R18700   3.937   0.738   6.979
  166SAPE   C2718701   3.800   0.603   7.031
  166SAPE   H7R18702   3.817   0.684   7.093
  166SAPE   H7S18703   3.833   0.503   7.056
  166SAPE   C2818704   3.668   0.652   7.014
  166SAPE   H8R18705   3.663   0.689   6.913
  166SAPE   C2918706   3.584   0.692   7.109
  166SAPE   H9R18707   3.485   0.722   7.079
  166SAPE  C21018708   3.600   0.694   7.256
  166SAPE  H10R18709   3.551   0.786   7.294
  166SAPE  H10S18710   3.699   0.699   7.294
  166SAPE  C21118711   3.554   0.566   7.310
  166SAPE  H11R18712   3.564   0.480   7.248
  166SAPE  C21218713   3.510   0.548   7.432
  166SAPE  H12R18714   3.455   0.460   7.466
  166SAPE  C21318715   3.504   0.661   7.518
  166SAPE  H13R18716   3.422   0.647   7.581
  166SAPE  H13S18717   3.486   0.757   7.471
  166SAPE  C21418718   3.621   0.685   7.596
  166SAPE  H14R18719   3.653   0.782   7.585
  166SAPE  C21518720   3.683   0.621   7.688
  166SAPE  H15R18721   3.749   0.683   7.750
  166SAPE  C21618722   3.638   0.492   7.732
  166SAPE  H16R18723   3.698   0.423   7.670
  166SAPE  H16S18724   3.530   0.477   7.714
  166SAPE  C21718725   3.675   0.477   7.876
  166SAPE  H17R18726   3.619   0.551   7.937
  166SAPE  H17S18727   3.784   0.496   7.892
  166SAPE  C21818728   3.640   0.337   7.922
  166SAPE  H18R18729   3.702   0.258   7.873
  166SAPE  H18S18730   3.535   0.316   7.892
  166SAPE  C21918731   3.652   0.334   8.074
  166SAPE  H19R18732   3.588   0.253   8.107
  166SAPE  H19S18733   3.604   0.427   8.112
  166SAPE  C22018734   3.793   0.321   8.135
  166SAPE  H20R18735   3.783   0.326   8.246
  166SAPE  H20S18736   3.863   0.401   8.105
  166SAPE  H20T18737   3.840   0.224   8.110
  166SAPE   C3318738   3.586   0.323   6.350
  166SAPE   H3X18739   3.689   0.317   6.307
  166SAPE   H3Y18740   3.520   0.243   6.316
  166SAPE   C3418741   3.601   0.312   6.505
  166SAPE   H4X18742   3.668   0.386   6.553
  166SAPE   H4Y18743   3.651   0.213   6.513
  166SAPE   C3518744   3.471   0.292   6.583
  166SAPE   H5X18745   3.397   0.238   6.522
  166SAPE   H5Y18746   3.411   0.382   6.593
  166SAPE   C3618747   3.490   0.211   6.713
  166SAPE   H6X18748   3.513   0.108   6.686
  166SAPE   H6Y18749   3.387   0.206   6.757
  166SAPE   C3718750   3.601   0.255   6.813
  166SAPE   H7X18751   3.601   0.365   6.816
  166SAPE   H7Y18752   3.704   0.257   6.775
  166SAPE   C3818753   3.599   0.177   6.950
  166SAPE   H8X18754   3.632   0.074   6.931
  166SAPE   H8Y18755   3.501   0.155   6.995
  166SAPE   C3918756   3.687   0.234   7.064
  166SAPE   H9X18757   3.670   0.341   7.083
  166SAPE   H9Y18758   3.791   0.233   7.028
  166SAPE  C31018759   3.670   0.152   7.195
  166SAPE  H10X18760   3.668   0.044   7.170
  166SAPE  H10Y18761   3.574   0.172   7.245
  166SAPE  C31118762   3.775   0.175   7.303
  166SAPE  H11X18763   3.871   0.124   7.280
  166SAPE  H11Y18764   3.739   0.132   7.399
  166SAPE  C31218765   3.805   0.321   7.327
  166SAPE  H12X18766   3.716   0.377   7.362
  166SAPE  H12Y18767   3.835   0.372   7.233
  166SAPE  C31318768   3.915   0.320   7.433
  166SAPE  H13X18769   4.007   0.267   7.400
  166SAPE  H13Y18770   3.878   0.291   7.534
  166SAPE  C31418771   3.965   0.457   7.450
  166SAPE  H14X18772   3.882   0.505   7.508
  166SAPE  H14Y18773   3.962   0.483   7.341
  166SAPE  C31518774   4.108   0.481   7.511
  166SAPE  H15X18775   4.186   0.468   7.433
  166SAPE  H15Y18776   4.108   0.432   7.609
  166SAPE  C31618777   4.150   0.623   7.554
  166SAPE  H16X18778   4.050   0.646   7.595
  166SAPE  H16Y18779   4.183   0.675   7.461
  166SAPE  C31718780   4.264   0.687   7.634
  166SAPE  H17X18781   4.348   0.664   7.568
  166SAPE  H17Y18782   4.254   0.632   7.730
  166SAPE  C31818783   4.280   0.843   7.657
  166SAPE  H18X18784   4.189   0.885   7.688
  166SAPE  H18Y18785   4.265   0.920   7.580
  166SAPE  H18Z18786   4.330   0.869   7.752
  167SAPE     N18787   5.855   6.190   5.801
  167SAPE   HN118788   5.901   6.102   5.773
  167SAPE   HN218789   5.763   6.201   5.754
  167SAPE   HN318790   5.922   6.265   5.772
  167SAPE   C1218791   5.847   6.194   5.951
  167SAPE  H12A18792   5.819   6.092   5.987
  167SAPE  H12B18793   5.769   6.267   5.983
  167SAPE   C1118794   5.983   6.240   6.001
  167SAPE  H11A18795   6.063   6.177   5.954
  167SAPE  H11B18796   5.993   6.228   6.112
  167SAPE     P18797   6.067   6.486   6.048
  167SAPE   O1318798   6.200   6.442   6.098
  167SAPE   O1418799   6.062   6.613   5.973
  167SAPE   O1218800   5.997   6.374   5.959
  167SAPE   O1118801   5.970   6.498   6.171
  167SAPE    C118802   6.006   6.604   6.262
  167SAPE    HA18803   6.111   6.595   6.299
  167SAPE    HB18804   5.996   6.704   6.212
  167SAPE    C218805   5.921   6.604   6.389
  167SAPE    HS18806   5.960   6.688   6.452
  167SAPE   O2118807   5.921   6.479   6.463
  167SAPE   C2118808   6.028   6.456   6.537
  167SAPE   O2218809   6.133   6.517   6.531
  167SAPE   C2218810   5.992   6.350   6.642
  167SAPE   H2R18811   5.906   6.387   6.701
  167SAPE   H2S18812   5.965   6.257   6.588
  167SAPE    C318813   5.775   6.639   6.360
  167SAPE    HX18814   5.720   6.544   6.335
  167SAPE    HY18815   5.760   6.706   6.272
  167SAPE   O3118816   5.730   6.698   6.483
  167SAPE   C3118817   5.752   6.830   6.500
  167SAPE   O3218818   5.806   6.903   6.422
  167SAPE   C3218819   5.695   6.889   6.631
  167SAPE   H2X18820   5.634   6.831   6.696
  167SAPE   H2Y18821   5.637   6.980   6.607
  167SAPE   C2318822   6.107   6.317   6.739
  167SAPE   H3R18823   6.167   6.407   6.762
  167SAPE   H3S18824   6.174   6.247   6.685
  167SAPE   C2418825   6.063   6.259   6.875
  167SAPE   H4R18826   5.989   6.319   6.929
  167SAPE   H4S18827   6.154   6.251   6.938
  167SAPE   C2518828   6.018   6.121   6.857
  167SAPE   H5R18829   6.103   6.056   6.855
  167SAPE   C2618830   5.900   6.065   6.873
  167SAPE   H6R18831   5.885   5.957   6.855
  167SAPE   C2718832   5.782   6.140   6.916
  167SAPE   H7R18833   5.701   6.086   6.865
  167SAPE   H7S18834   5.779   6.246   6.884
  167SAPE   C2818835   5.776   6.125   7.065
  167SAPE   H8R18836   5.807   6.026   7.105
  167SAPE   C2918837   5.721   6.213   7.150
  167SAPE   H9R18838   5.688   6.161   7.239
  167SAPE  C21018839   5.652   6.345   7.114
  167SAPE  H10R18840   5.599   6.326   7.018
  167SAPE  H10S18841   5.731   6.418   7.107
  167SAPE  C21118842   5.544   6.412   7.195
  167SAPE  H11R18843   5.448   6.391   7.150
  167SAPE  C21218844   5.538   6.451   7.321
  167SAPE  H12R18845   5.451   6.417   7.375
  167SAPE  C21318846   5.649   6.438   7.414
  167SAPE  H13R18847   5.634   6.522   7.482
  167SAPE  H13S18848   5.736   6.461   7.352
  167SAPE  C21418849   5.692   6.325   7.494
  167SAPE  H14R18850   5.745   6.251   7.433
  167SAPE  C21518851   5.660   6.295   7.619
  167SAPE  H15R18852   5.718   6.214   7.663
  167SAPE  C21618853   5.571   6.361   7.720
  167SAPE  H16R18854   5.587   6.306   7.814
  167SAPE  H16S18855   5.463   6.349   7.691
  167SAPE  C21718856   5.597   6.507   7.755
  167SAPE  H17R18857   5.529   6.549   7.831
  167SAPE  H17S18858   5.581   6.564   7.667
  167SAPE  C21818859   5.739   6.545   7.788
  167SAPE  H18R18860   5.735   6.655   7.803
  167SAPE  H18S18861   5.806   6.519   7.704
  167SAPE  C21918862   5.784   6.479   7.915
  167SAPE  H19R18863   5.885   6.513   7.940
  167SAPE  H19S18864   5.792   6.370   7.894
  167SAPE  C22018865   5.687   6.509   8.028
  167SAPE  H20R18866   5.589   6.459   8.013
  167SAPE  H20S18867   5.671   6.618   8.040
  167SAPE  H20T18868   5.731   6.476   8.123
  167SAPE   C3318869   5.795   6.882   6.743
  167SAPE   H3X18870   5.743   6.924   6.832
  167SAPE   H3Y18871   5.869   6.948   6.703
  167SAPE   C3418872   5.845   6.736   6.769
  167SAPE   H4X18873   5.899   6.694   6.683
  167SAPE   H4Y18874   5.769   6.677   6.824
  167SAPE   C3518875   5.958   6.717   6.864
  167SAPE   H5X18876   5.910   6.803   6.918
  167SAPE   H5Y18877   6.019   6.814   6.859
  167SAPE   C3618878   6.011   6.565   6.965
  167SAPE   H6X18879   6.079   6.523   6.892
  167SAPE   H6Y18880   5.916   6.518   6.963
  167SAPE   C3718881   6.083   6.555   7.148
  167SAPE   H7X18882   6.036   6.611   7.238
  167SAPE   H7Y18883   6.155   6.637   7.202
  167SAPE   C3818884   6.155   6.453   7.189
  167SAPE   H8X18885   6.238   6.497   7.256
  167SAPE   H8Y18886   6.193   6.418   7.093
  167SAPE   C3918887   6.030   6.401   7.252
  167SAPE   H9X18888   5.945   6.399   7.178
  167SAPE   H9Y18889   5.993   6.463   7.338
  167SAPE  C31018890   6.085   6.273   7.295
  167SAPE  H10X18891   6.095   6.215   7.201
  167SAPE  H10Y18892   6.007   6.235   7.364
  167SAPE  C31118893   6.222   6.291   7.364
  167SAPE  H11X18894   6.307   6.325   7.299
  167SAPE  H11Y18895   6.257   6.193   7.398
  167SAPE  C31218896   6.213   6.385   7.486
  167SAPE  H12X18897   6.199   6.492   7.456
  167SAPE  H12Y18898   6.307   6.363   7.539
  167SAPE  C31318899   6.121   6.344   7.598
  167SAPE  H13X18900   6.145   6.238   7.619
  167SAPE  H13Y18901   6.016   6.361   7.565
  167SAPE  C31418902   6.143   6.416   7.730
  167SAPE  H14X18903   6.237   6.390   7.784
  167SAPE  H14Y18904   6.056   6.401   7.799
  167SAPE  C31518905   6.142   6.564   7.714
  167SAPE  H15X18906   6.057   6.590   7.649
  167SAPE  H15Y18907   6.231   6.595   7.656
  167SAPE  C31618908   6.126   6.617   7.858
  167SAPE  H16X18909   6.022   6.636   7.886
  167SAPE  H16Y18910   6.136   6.721   7.875
  167SAPE  C31718911   6.250   6.605   7.943
  167SAPE  H17X18912   6.324   6.612   7.862
  167SAPE  H17Y18913   6.246   6.517   8.004
  167SAPE  C31818914   6.295   6.718   8.028
  167SAPE  H18X18915   6.381   6.718   8.095
  167SAPE  H18Y18916   6.215   6.747   8.097
  167SAPE  H18Z18917   6.327   6.788   7.942
  168SAPE     N18918   5.847   0.929   5.857
  168SAPE   HN118919   5.827   0.934   5.959
  168SAPE   HN218920   5.862   1.027   5.824
  168SAPE   HN318921   5.767   0.887   5.807
  168SAPE   C1218922   5.973   0.845   5.837
  168SAPE  H12A18923   6.049   0.888   5.905
  168SAPE  H12B18924   6.006   0.862   5.733
  168SAPE   C1118925   5.957   0.691   5.853
  168SAPE  H11A18926   6.051   0.642   5.816
  168SAPE  H11B18927   5.878   0.652   5.787
  168SAPE     P18928   6.053   0.643   6.089
  168SAPE   O1318929   6.179   0.673   6.017
  168SAPE   O1418930   6.012   0.728   6.201
  168SAPE   O1218931   5.929   0.651   5.987
  168SAPE   O1118932   6.054   0.492   6.134
  168SAPE    C118933   5.940   0.410   6.113
  168SAPE    HA18934   5.843   0.466   6.114
  168SAPE    HB18935   5.952   0.364   6.013
  168SAPE    C218936   5.923   0.306   6.226
  168SAPE    HS18937   5.825   0.254   6.216
  168SAPE   O2118938   5.915   0.377   6.346
  168SAPE   C2118939   5.889   0.311   6.454
  168SAPE   O2218940   5.858   0.192   6.463
  168SAPE   C2218941   5.894   0.419   6.564
  168SAPE   H2R18942   5.968   0.495   6.541
  168SAPE   H2S18943   5.811   0.487   6.561
  168SAPE    C318944   6.039   0.200   6.224
  168SAPE    HX18945   6.056   0.163   6.121
  168SAPE    HY18946   6.002   0.112   6.281
  168SAPE   O3118947   6.170   0.249   6.260
  168SAPE   C3118948   6.202   0.238   6.388
  168SAPE   O3218949   6.139   0.182   6.473
  168SAPE   C3218950   6.323   0.316   6.422
  168SAPE   H2X18951   6.414   0.285   6.369
  168SAPE   H2Y18952   6.337   0.309   6.533
  168SAPE   C2318953   5.881   0.371   6.707
  168SAPE   H3R18954   5.797   0.299   6.717
  168SAPE   H3S18955   5.861   0.458   6.774
  168SAPE   C2418956   6.000   0.291   6.746
  168SAPE   H4R18957   6.023   0.222   6.662
  168SAPE   H4S18958   5.971   0.231   6.835
  168SAPE   C2518959   6.111   0.389   6.763
  168SAPE   H5R18960   6.101   0.482   6.708
  168SAPE   C2618961   6.219   0.371   6.835
  168SAPE   H6R18962   6.287   0.457   6.848
  168SAPE   C2718963   6.243   0.246   6.911
  168SAPE   H7R18964   6.274   0.155   6.857
  168SAPE   H7S18965   6.157   0.223   6.977
  168SAPE   C2818966   6.354   0.278   6.996
  168SAPE   H8R18967   6.438   0.347   6.972
  168SAPE   C2918968   6.359   0.211   7.105
  168SAPE   H9R18969   6.395   0.295   7.166
  168SAPE  C21018970   6.286   0.102   7.180
  168SAPE  H10R18971   6.355   0.018   7.209
  168SAPE  H10S18972   6.217   0.050   7.115
  168SAPE  C21118973   6.239   0.193   7.294
  168SAPE  H11R18974   6.287   0.184   7.392
  168SAPE  C21218975   6.124   0.242   7.314
  168SAPE  H12R18976   6.101   0.277   7.417
  168SAPE  C21318977   6.023   0.198   7.216
  168SAPE  H13R18978   5.949   0.132   7.254
  168SAPE  H13S18979   6.050   0.133   7.132
  168SAPE  C21418980   5.937   0.309   7.209
  168SAPE  H14R18981   5.955   0.360   7.116
  168SAPE  C21518982   5.827   0.324   7.282
  168SAPE  H15R18983   5.774   0.402   7.231
  168SAPE  C21618984   5.752   0.236   7.392
  168SAPE  H16R18985   5.803   0.173   7.460
  168SAPE  H16S18986   5.686   0.172   7.339
  168SAPE  C21718987   5.608   0.249   7.449
  168SAPE  H17R18988   5.512   0.244   7.395
  168SAPE  H17S18989   5.643   0.349   7.431
  168SAPE  C21818990   5.577   0.192   7.578
  168SAPE  H18R18991   5.549   0.086   7.565
  168SAPE  H18S18992   5.483   0.229   7.620
  168SAPE  C21918993   5.688   0.229   7.669
  168SAPE  H19R18994   5.704   0.339   7.668
  168SAPE  H19S18995   5.791   0.205   7.644
  168SAPE  C22018996   5.654   0.170   7.796
  168SAPE  H20R18997   5.732   0.198   7.868
  168SAPE  H20S18998   5.630   0.061   7.792
  168SAPE  H20T18999   5.565   0.200   7.849
  168SAPE   C3319000   6.272   0.454   6.395
  168SAPE   H3X19001   6.172   0.472   6.440
  168SAPE   H3Y19002   6.274   0.479   6.286
  168SAPE   C3419003   6.347   0.554   6.468
  168SAPE   H4X19004   6.445   0.534   6.429
  168SAPE   H4Y19005   6.380   0.546   6.572
  168SAPE   C3519006   6.288   0.686   6.418
  168SAPE   H5X19007   6.309   0.709   6.310
  168SAPE   H5Y19008   6.335   0.762   6.481
  168SAPE   C3619009   6.172   0.748   6.483
  168SAPE   H6X19010   6.090   0.688   6.445
  168SAPE   H6Y19011   6.174   0.850   6.431
  168SAPE   C3719012   6.191   0.739   6.638
  168SAPE   H7X19013   6.280   0.793   6.679
  168SAPE   H7Y19014   6.208   0.634   6.664
  168SAPE   C3819015   6.064   0.778   6.712
  168SAPE   H8X19016   5.975   0.750   6.653
  168SAPE   H8Y19017   6.049   0.881   6.719
  168SAPE   C3919018   6.055   0.759   6.861
  168SAPE   H9X19019   6.046   0.650   6.872
  168SAPE   H9Y19020   5.961   0.809   6.897
  168SAPE  C31019021   6.168   0.822   6.943
  168SAPE  H10X19022   6.166   0.933   6.937
  168SAPE  H10Y19023   6.267   0.787   6.907
  168SAPE  C31119024   6.150   0.785   7.089
  168SAPE  H11X19025   6.053   0.827   7.123
  168SAPE  H11Y19026   6.229   0.835   7.150
  168SAPE  C31219027   6.158   0.633   7.112
  168SAPE  H12X19028   6.237   0.585   7.052
  168SAPE  H12Y19029   6.060   0.585   7.087
  168SAPE  C31319030   6.204   0.602   7.252
  168SAPE  H13X19031   6.295   0.661   7.276
  168SAPE  H13Y19032   6.222   0.494   7.272
  168SAPE  C31419033   6.102   0.642   7.350
  168SAPE  H14X19034   6.002   0.600   7.325
  168SAPE  H14Y19035   6.088   0.753   7.337
  168SAPE  C31519036   6.159   0.600   7.489
  168SAPE  H15X19037   6.238   0.679   7.518
  168SAPE  H15Y19038   6.200   0.501   7.504
  168SAPE  C31619039   6.041   0.546   7.578
  168SAPE  H16X19040   5.948   0.579   7.620
  168SAPE  H16Y19041   6.072   0.647   7.559
  168SAPE  C31719042   6.035   0.494   7.727
  168SAPE  H17X19043   6.126   0.517   7.781
  168SAPE  H17Y19044   6.018   0.393   7.699
  168SAPE  C31819045   5.920   0.519   7.835
  168SAPE  H18X19046   5.936   0.470   7.932
  168SAPE  H18Y19047   5.813   0.517   7.804
  168SAPE  H18Z19048   5.939   0.611   7.889
  169SAPE     N19049   0.025   2.477   5.716
  169SAPE   HN119050   0.092   2.409   5.763
  169SAPE   HN219051   0.026   2.452   5.613
  169SAPE   HN319052   0.062   2.571   5.733
  169SAPE   C1219053  -0.095   2.457   5.799
  169SAPE  H12A19054  -0.109   2.347   5.805
  169SAPE  H12B19055  -0.172   2.508   5.740
  169SAPE   C1119056  -0.086   2.521   5.941
  169SAPE  H11A19057  -0.188   2.513   5.985
  169SAPE  H11B19058  -0.061   2.630   5.933
  169SAPE     P19059  -0.015   2.337   6.129
  169SAPE   O1319060  -0.158   2.342   6.166
  169SAPE   O1419061   0.033   2.214   6.063
  169SAPE   O1219062   0.007   2.460   6.028
  169SAPE   O1119063   0.084   2.382   6.241
  169SAPE    C119064   0.177   2.490   6.223
  169SAPE    HA19065   0.280   2.447   6.210
  169SAPE    HB19066   0.160   2.561   6.140
  169SAPE    C219067   0.163   2.590   6.337
  169SAPE    HS19068   0.258   2.649   6.334
  169SAPE   O2119069   0.167   2.526   6.451
  169SAPE   C2119070   0.195   2.608   6.548
  169SAPE   O2219071   0.238   2.719   6.553
  169SAPE   C2219072   0.201   2.525   6.647
  169SAPE   H2R19073   0.103   2.560   6.694
  169SAPE   H2S19074   0.149   2.424   6.614
  169SAPE    C319075   0.034   2.670   6.355
  169SAPE    HX19076   0.014   2.707   6.255
  169SAPE    HY19077   0.050   2.755   6.426
  169SAPE   O3119078  -0.073   2.583   6.399
  169SAPE   C3119079  -0.123   2.589   6.522
  169SAPE   O3219080  -0.098   2.671   6.608
  169SAPE   C3219081  -0.234   2.489   6.529
  169SAPE   H2X19082  -0.296   2.500   6.438
  169SAPE   H2Y19083  -0.294   2.505   6.621
  169SAPE   C2319084   0.349   2.506   6.753
  169SAPE   H3R19085   0.331   2.614   6.761
  169SAPE   H3S19086   0.448   2.511   6.723
  169SAPE   C2419087   0.373   2.364   6.916
  169SAPE   H4R19088   0.331   2.258   6.916
  169SAPE   H4S19089   0.280   2.339   6.981
  169SAPE   C2519090   0.411   2.368   7.046
  169SAPE   H5R19091   0.492   2.424   7.010
  169SAPE   C2619092   0.386   2.327   7.163
  169SAPE   H6R19093   0.454   2.387   7.218
  169SAPE   C2719094   0.278   2.238   7.202
  169SAPE   H7R19095   0.179   2.279   7.177
  169SAPE   H7S19096   0.291   2.235   7.309
  169SAPE   C2819097   0.299   2.100   7.156
  169SAPE   H8R19098   0.361   2.070   7.069
  169SAPE   C2919099   0.233   2.010   7.222
  169SAPE   H9R19100   0.266   1.913   7.197
  169SAPE  C21019101   0.141   2.034   7.335
  169SAPE  H10R19102   0.044   2.055   7.288
  169SAPE  H10S19103   0.188   2.110   7.396
  169SAPE  C21119104   0.098   1.940   7.434
  169SAPE  H11R19105   0.109   1.839   7.411
  169SAPE  C21219106   0.052   1.956   7.554
  169SAPE  H12R19107   0.034   1.863   7.605
  169SAPE  C21319108   0.032   2.084   7.622
  169SAPE  H13R19109  -0.077   2.087   7.637
  169SAPE  H13S19110   0.064   2.162   7.552
  169SAPE  C21419111   0.109   2.102   7.749
  169SAPE  H14R19112   0.206   2.052   7.759
  169SAPE  C21519113   0.065   2.171   7.854
  169SAPE  H15R19114   0.137   2.186   7.935
  169SAPE  C21619115  -0.067   2.241   7.868
  169SAPE  H16R19116  -0.140   2.207   7.791
  169SAPE  H16S19117  -0.054   2.350   7.856
  169SAPE  C21719118  -0.135   2.216   8.002
  169SAPE  H17R19119  -0.164   2.111   8.013
  169SAPE  H17S19120  -0.231   2.267   8.008
  169SAPE  C21819121  -0.059   2.273   8.119
  169SAPE  H18R19122   0.050   2.257   8.125
  169SAPE  H18S19123  -0.110   2.250   8.214
  169SAPE  C21919124  -0.058   2.416   8.114
  169SAPE  H19R19125  -0.154   2.457   8.082
  169SAPE  H19S19126   0.006   2.458   8.036
  169SAPE  C22019127  -0.013   2.459   8.248
  169SAPE  H20R19128  -0.032   2.555   8.203
  169SAPE  H20S19129   0.095   2.461   8.271
  169SAPE  H20T19130  -0.077   2.458   8.339
  169SAPE   C3319131  -0.171   2.354   6.533
  169SAPE   H3X19132  -0.074   2.357   6.589
  169SAPE   H3Y19133  -0.151   2.307   6.434
  169SAPE   C3419134  -0.259   2.270   6.613
  169SAPE   H4X19135  -0.324   2.215   6.539
  169SAPE   H4Y19136  -0.339   2.315   6.677
  169SAPE   C3519137  -0.153   2.193   6.694
  169SAPE   H5X19138  -0.084   2.121   6.649
  169SAPE   H5Y19139  -0.250   2.160   6.719
  169SAPE   C3619140  -0.103   2.191   6.836
  169SAPE   H6X19141  -0.009   2.231   6.813
  169SAPE   H6Y19142  -0.069   2.090   6.870
  169SAPE   C3719143  -0.191   2.245   6.944
  169SAPE   H7X19144  -0.265   2.169   6.976
  169SAPE   H7Y19145  -0.249   2.332   6.909
  169SAPE   C3819146  -0.104   2.272   7.064
  169SAPE   H8X19147  -0.043   2.361   7.038
  169SAPE   H8Y19148  -0.034   2.186   7.080
  169SAPE   C3919149  -0.185   2.304   7.187
  169SAPE   H9X19150  -0.246   2.218   7.223
  169SAPE   H9Y19151  -0.253   2.390   7.165
  169SAPE  C31019152  -0.092   2.346   7.299
  169SAPE  H10X19153  -0.026   2.428   7.262
  169SAPE  H10Y19154  -0.029   2.258   7.326
  169SAPE  C31119155  -0.178   2.394   7.415
  169SAPE  H11X19156  -0.243   2.310   7.448
  169SAPE  H11Y19157  -0.239   2.480   7.382
  169SAPE  C31219158  -0.100   2.432   7.535
  169SAPE  H12X19159  -0.034   2.343   7.556
  169SAPE  H12Y19160  -0.155   2.457   7.628
  169SAPE  C31319161  -0.019   2.551   7.515
  169SAPE  H13X19162  -0.060   2.644   7.559
  169SAPE  H13Y19163   0.003   2.578   7.408
  169SAPE  C31419164   0.099   2.497   7.593
  169SAPE  H14X19165   0.132   2.586   7.559
  169SAPE  H14Y19166   0.161   2.415   7.550
  169SAPE  C31519167   0.137   2.538   7.728
  169SAPE  H15X19168   0.080   2.468   7.788
  169SAPE  H15Y19169   0.119   2.647   7.745
  169SAPE  C31619170   0.282   2.514   7.750
  169SAPE  H16X19171   0.342   2.566   7.671
  169SAPE  H16Y19172   0.299   2.403   7.757
  169SAPE  C31719173   0.332   2.580   7.870
  169SAPE  H17X19174   0.308   2.683   7.840
  169SAPE  H17Y19175   0.440   2.573   7.902
  169SAPE  C31819176   0.239   2.571   7.979
  169SAPE  H18X19177   0.133   2.570   7.956
  169SAPE  H18Y19178   0.245   2.676   8.017
  169SAPE  H18Z19179   0.275   2.491   8.047
  170SAPE     N19180   6.373   6.820   6.072
  170SAPE   HN119181   6.404   6.812   5.972
  170SAPE   HN219182   6.286   6.767   6.090
  170SAPE   HN319183   6.343   6.918   6.095
  170SAPE   C1219184   6.486   6.781   6.161
  170SAPE  H12A19185   6.501   6.672   6.144
  170SAPE  H12B19186   6.455   6.800   6.266
  170SAPE   C1119187   6.615   6.856   6.124
  170SAPE  H11A19188   6.700   6.804   6.177
  170SAPE  H11B19189   6.615   6.960   6.163
  170SAPE     P19190   6.775   6.854   5.919
  170SAPE   O1319191   6.762   6.815   5.778
  170SAPE   O1419192   6.854   6.974   5.953
  170SAPE   O1219193   6.629   6.863   5.982
  170SAPE   O1119194   6.822   6.734   6.004
  170SAPE    C119195   6.822   6.603   5.949
  170SAPE    HA19196   6.721   6.566   5.926
  170SAPE    HB19197   6.891   6.598   5.862
  170SAPE    C219198   6.886   6.515   6.050
  170SAPE    HS19199   6.894   6.409   6.012
  170SAPE   O2119200   6.821   6.520   6.175
  170SAPE   C2119201   6.705   6.464   6.189
  170SAPE   O2219202   6.642   6.402   6.105
  170SAPE   C2219203   6.658   6.497   6.330
  170SAPE   H2R19204   6.713   6.584   6.371
  170SAPE   H2S19205   6.548   6.509   6.327
  170SAPE    C319206   7.025   6.579   6.056
  170SAPE    HX19207   7.066   6.564   5.955
  170SAPE    HY19208   7.093   6.518   6.098
  170SAPE   O3119209   7.051   6.711   6.106
  170SAPE   C3119210   7.053   6.747   6.233
  170SAPE   O3219211   7.005   6.695   6.329
  170SAPE   C3219212   7.108   6.874   6.264
  170SAPE   H2X19213   7.172   6.896   6.177
  170SAPE   H2Y19214   7.166   6.868   6.360
  170SAPE   C2319215   6.682   6.393   6.438
  170SAPE   H3R19216   6.782   6.362   6.457
  170SAPE   H3S19217   6.642   6.305   6.402
  170SAPE   C2419218   6.623   6.435   6.569
  170SAPE   H4R19219   6.521   6.467   6.549
  170SAPE   H4S19220   6.697   6.491   6.628
  170SAPE   C2519221   6.577   6.343   6.665
  170SAPE   H5R19222   6.610   6.252   6.621
  170SAPE   C2619223   6.579   6.342   6.796
  170SAPE   H6R19224   6.568   6.253   6.851
  170SAPE   C2719225   6.625   6.424   6.898
  170SAPE   H7R19226   6.604   6.513   6.845
  170SAPE   H7S19227   6.733   6.391   6.893
  170SAPE   C2819228   6.548   6.406   7.030
  170SAPE   H8R19229   6.447   6.365   7.026
  170SAPE   C2919230   6.607   6.389   7.149
  170SAPE   H9R19231   6.551   6.351   7.235
  170SAPE  C21019232   6.754   6.386   7.167
  170SAPE  H10R19233   6.826   6.340   7.099
  170SAPE  H10S19234   6.776   6.314   7.244
  170SAPE  C21119235   6.820   6.504   7.112
  170SAPE  H11R19236   6.819   6.512   7.006
  170SAPE  C21219237   6.892   6.587   7.179
  170SAPE  H12R19238   6.931   6.677   7.140
  170SAPE  C21319239   6.918   6.579   7.315
  170SAPE  H13R19240   6.805   6.541   7.329
  170SAPE  H13S19241   6.861   6.666   7.371
  170SAPE  C21419242   7.057   6.485   7.379
  170SAPE  H14R19243   7.133   6.528   7.317
  170SAPE  C21519244   7.093   6.415   7.532
  170SAPE  H15R19245   7.196   6.422   7.556
  170SAPE  C21619246   6.999   6.420   7.698
  170SAPE  H16R19247   6.945   6.343   7.740
  170SAPE  H16S19248   6.894   6.475   7.709
  170SAPE  C21719249   6.952   6.540   7.806
  170SAPE  H17R19250   6.858   6.520   7.866
  170SAPE  H17S19251   6.937   6.639   7.765
  170SAPE  C21819252   7.074   6.587   7.868
  170SAPE  H18R19253   7.150   6.546   7.804
  170SAPE  H18S19254   7.043   6.518   7.940
  170SAPE  C21919255   7.126   6.659   7.990
  170SAPE  H19R19256   7.228   6.632   8.000
  170SAPE  H19S19257   7.068   6.640   8.082
  170SAPE  C22019258   7.150   6.792   7.967
  170SAPE  H20R19259   7.046   6.774   7.946
  170SAPE  H20S19260   7.189   6.843   7.880
  170SAPE  H20T19261   7.169   6.881   8.024
  170SAPE   C3319262   6.968   6.934   6.289
  170SAPE   H3X19263   6.909   6.928   6.194
  170SAPE   H3Y19264   6.997   7.037   6.311
  170SAPE   C3419265   6.876   6.892   6.411
  170SAPE   H4X19266   6.834   6.787   6.402
  170SAPE   H4Y19267   6.786   6.953   6.414
  170SAPE   C3519268   6.945   6.901   6.548
  170SAPE   H5X19269   6.998   6.996   6.560
  170SAPE   H5Y19270   7.031   6.841   6.555
  170SAPE   C3619271   6.853   6.863   6.663
  170SAPE   H6X19272   6.825   6.754   6.662
  170SAPE   H6Y19273   6.763   6.923   6.639
  170SAPE   C3719274   6.913   6.901   6.799
  170SAPE   H7X19275   6.983   6.985   6.777
  170SAPE   H7Y19276   6.975   6.817   6.838
  170SAPE   C3819277   6.809   6.951   6.901
  170SAPE   H8X19278   6.745   7.027   6.851
  170SAPE   H8Y19279   6.862   7.003   6.984
  170SAPE   C3919280   6.718   6.843   6.963
  170SAPE   H9X19281   6.783   6.764   7.005
  170SAPE   H9Y19282   6.656   6.795   6.884
  170SAPE  C31019283   6.626   6.898   7.074
  170SAPE  H10X19284   6.552   6.971   7.033
  170SAPE  H10Y19285   6.690   6.955   7.145
  170SAPE  C31119286   6.551   6.786   7.150
  170SAPE  H11X19287   6.622   6.702   7.161
  170SAPE  H11Y19288   6.469   6.750   7.085
  170SAPE  C31219289   6.494   6.833   7.287
  170SAPE  H12X19290   6.413   6.905   7.264
  170SAPE  H12Y19291   6.576   6.888   7.339
  170SAPE  C31319292   6.440   6.731   7.392
  170SAPE  H13X19293   6.353   6.676   7.352
  170SAPE  H13Y19294   6.406   6.793   7.478
  170SAPE  C31419295   6.547   6.633   7.444
  170SAPE  H14X19296   6.632   6.690   7.486
  170SAPE  H14Y19297   6.576   6.572   7.355
  170SAPE  C31519298   6.513   6.526   7.548
  170SAPE  H15X19299   6.593   6.451   7.563
  170SAPE  H15Y19300   6.432   6.476   7.501
  170SAPE  C31619301   6.471   6.573   7.682
  170SAPE  H16X19302   6.416   6.497   7.743
  170SAPE  H16Y19303   6.416   6.669   7.678
  170SAPE  C31719304   6.591   6.596   7.758
  170SAPE  H17X19305   6.661   6.654   7.694
  170SAPE  H17Y19306   6.647   6.502   7.785
  170SAPE  C31819307   6.543   6.674   7.877
  170SAPE  H18X19308   6.632   6.631   7.914
  170SAPE  H18Y19309   6.502   6.641   7.970
  170SAPE  H18Z19310   6.551   6.786   7.877
  171SAPE     N19311   0.115   1.015   5.859
  171SAPE   HN119312   0.028   0.966   5.889
  171SAPE   HN219313   0.134   1.098   5.920
  171SAPE   HN319314   0.111   1.044   5.759
  171SAPE   C1219315   0.225   0.913   5.870
  171SAPE  H12A19316   0.319   0.959   5.835
  171SAPE  H12B19317   0.197   0.830   5.801
  171SAPE   C1119318   0.233   0.854   6.011
  171SAPE  H11A19319   0.266   0.927   6.088
  171SAPE  H11B19320   0.309   0.772   6.005
  171SAPE     P19321   0.070   0.653   6.046
  171SAPE   O1319322  -0.057   0.633   6.116
  171SAPE   O1419323   0.083   0.612   5.906
  171SAPE   O1219324   0.103   0.808   6.049
  171SAPE   O1119325   0.190   0.592   6.128
  171SAPE    C119326   0.160   0.505   6.236
  171SAPE    HA19327   0.072   0.439   6.215
  171SAPE    HB19328   0.246   0.437   6.253
  171SAPE    C219329   0.131   0.591   6.362
  171SAPE    HS19330   0.031   0.637   6.346
  171SAPE   O2119331   0.232   0.691   6.380
  171SAPE   C2119332   0.193   0.786   6.461
  171SAPE   O2219333   0.079   0.803   6.504
  171SAPE   C2219334   0.312   0.870   6.499
  171SAPE   H2R19335   0.388   0.806   6.548
  171SAPE   H2S19336   0.352   0.909   6.403
  171SAPE    C319337   0.125   0.506   6.488
  171SAPE    HX19338   0.061   0.419   6.463
  171SAPE    HY19339   0.071   0.567   6.565
  171SAPE   O3119340   0.259   0.461   6.525
  171SAPE   C3119341   0.257   0.425   6.652
  171SAPE   O3219342   0.163   0.447   6.725
  171SAPE   C3219343   0.394   0.353   6.687
  171SAPE   H2X19344   0.468   0.416   6.639
  171SAPE   H2Y19345   0.405   0.251   6.645
  171SAPE   C2319346   0.269   0.984   6.593
  171SAPE   H3R19347   0.199   0.949   6.672
  171SAPE   H3S19348   0.218   1.059   6.529
  171SAPE   C2419349   0.384   1.053   6.664
  171SAPE   H4R19350   0.345   1.143   6.718
  171SAPE   H4S19351   0.441   1.088   6.575
  171SAPE   C2519352   0.468   0.969   6.756
  171SAPE   H5R19353   0.539   0.899   6.708
  171SAPE   C2619354   0.464   0.973   6.891
  171SAPE   H6R19355   0.526   0.902   6.947
  171SAPE   C2719356   0.374   1.064   6.971
  171SAPE   H7R19357   0.275   1.071   6.922
  171SAPE   H7S19358   0.402   1.170   6.971
  171SAPE   C2819359   0.373   1.027   7.117
  171SAPE   H8R19360   0.456   1.069   7.173
  171SAPE   C2919361   0.291   0.942   7.180
  171SAPE   H9R19362   0.306   0.925   7.288
  171SAPE  C21019363   0.180   0.863   7.117
  171SAPE  H10R19364   0.127   0.810   7.200
  171SAPE  H10S19365   0.223   0.780   7.057
  171SAPE  C21119366   0.093   0.947   7.024
  171SAPE  H11R19367   0.125   0.957   6.922
  171SAPE  C21219368  -0.028   0.997   7.043
  171SAPE  H12R19369  -0.098   1.021   6.963
  171SAPE  C21319370  -0.101   0.974   7.160
  171SAPE  H13R19371  -0.074   0.866   7.152
  171SAPE  H13S19372  -0.199   0.941   7.113
  171SAPE  C21419373  -0.086   1.033   7.310
  171SAPE  H14R19374  -0.177   1.107   7.322
  171SAPE  C21519375  -0.023   0.957   7.424
  171SAPE  H15R19376  -0.072   0.995   7.525
  171SAPE  C21619377   0.046   0.790   7.436
  171SAPE  H16R19378   0.153   0.774   7.437
  171SAPE  H16S19379  -0.003   0.702   7.378
  171SAPE  C21719380   0.060   0.669   7.563
  171SAPE  H17R19381   0.027   0.569   7.600
  171SAPE  H17S19382  -0.030   0.602   7.544
  171SAPE  C21819383   0.092   0.744   7.698
  171SAPE  H18R19384   0.045   0.830   7.649
  171SAPE  H18S19385   0.133   0.846   7.690
  171SAPE  C21919386   0.036   0.692   7.858
  171SAPE  H19R19387   0.047   0.777   7.922
  171SAPE  H19S19388   0.131   0.657   7.878
  171SAPE  C22019389  -0.090   0.590   7.919
  171SAPE  H20R19390  -0.100   0.547   8.018
  171SAPE  H20S19391  -0.116   0.505   7.856
  171SAPE  H20T19392  -0.193   0.638   7.932
  171SAPE   C3319393   0.442   0.343   6.833
  171SAPE   H3X19394   0.548   0.325   6.852
  171SAPE   H3Y19395   0.431   0.234   6.857
  171SAPE   C3419396   0.382   0.457   6.920
  171SAPE   H4X19397   0.272   0.479   6.917
  171SAPE   H4Y19398   0.413   0.556   6.891
  171SAPE   C3519399   0.407   0.434   7.066
  171SAPE   H5X19400   0.510   0.406   7.090
  171SAPE   H5Y19401   0.354   0.352   7.105
  171SAPE   C3619402   0.341   0.537   7.148
  171SAPE   H6X19403   0.230   0.530   7.154
  171SAPE   H6Y19404   0.369   0.637   7.113
  171SAPE   C3719405   0.397   0.514   7.279
  171SAPE   H7X19406   0.506   0.521   7.292
  171SAPE   H7Y19407   0.377   0.410   7.311
  171SAPE   C3819408   0.334   0.614   7.362
  171SAPE   H8X19409   0.219   0.590   7.352
  171SAPE   H8Y19410   0.350   0.723   7.358
  171SAPE   C3919411   0.401   0.565   7.486
  171SAPE   H9X19412   0.372   0.464   7.495
  171SAPE   H9Y19413   0.301   0.610   7.507
  171SAPE  C31019414   0.526   0.586   7.601
  171SAPE  H10X19415   0.547   0.694   7.604
  171SAPE  H10Y19416   0.610   0.529   7.560
  171SAPE  C31119417   0.532   0.528   7.765
  171SAPE  H11X19418   0.482   0.433   7.807
  171SAPE  H11Y19419   0.477   0.594   7.837
  171SAPE  C31219420   0.659   0.556   7.818
  171SAPE  H12X19421   0.670   0.658   7.775
  171SAPE  H12Y19422   0.713   0.476   7.767
  171SAPE  C31319423   0.649   0.571   7.967
  171SAPE  H13X19424   0.607   0.669   8.000
  171SAPE  H13Y19425   0.752   0.553   8.007
  171SAPE  C31419426   0.565   0.474   8.025
  171SAPE  H14X19427   0.622   0.387   7.981
  171SAPE  H14Y19428   0.458   0.498   8.010
  171SAPE  C31519429   0.577   0.485   8.165
  171SAPE  H15X19430   0.649   0.561   8.197
  171SAPE  H15Y19431   0.627   0.390   8.171
  171SAPE  C31619432   0.456   0.487   8.250
  171SAPE  H16X19433   0.377   0.548   8.205
  171SAPE  H16Y19434   0.475   0.529   8.351
  171SAPE  C31719435   0.410   0.351   8.279
  171SAPE  H17X19436   0.306   0.381   8.308
  171SAPE  H17Y19437   0.457   0.298   8.364
  171SAPE  C31819438   0.407   0.252   8.168
  171SAPE  H18X19439   0.400   0.151   8.216
  171SAPE  H18Y19440   0.474   0.210   8.109
  171SAPE  H18Z19441   0.329   0.281   8.096
  172SAPE     N19442   7.422   6.290   5.809
  172SAPE   HN119443   7.459   6.264   5.716
  172SAPE   HN219444   7.471   6.374   5.851
  172SAPE   HN319445   7.423   6.212   5.876
  172SAPE   C1219446   7.281   6.330   5.792
  172SAPE  H12A19447   7.218   6.244   5.775
  172SAPE  H12B19448   7.272   6.401   5.707
  172SAPE   C1119449   7.215   6.362   5.922
  172SAPE  H11A19450   7.224   6.277   5.995
  172SAPE  H11B19451   7.105   6.368   5.897
  172SAPE     P19452   7.344   6.509   6.106
  172SAPE   O1319453   7.486   6.483   6.075
  172SAPE   O1419454   7.312   6.648   6.143
  172SAPE   O1219455   7.274   6.483   5.967
  172SAPE   O1119456   7.275   6.390   6.194
  172SAPE    C119457   7.143   6.358   6.248
  172SAPE    HA19458   7.059   6.360   6.173
  172SAPE    HB19459   7.126   6.256   6.282
  172SAPE    C219460   7.114   6.466   6.349
  172SAPE    HS19461   7.116   6.540   6.275
  172SAPE   O2119462   7.216   6.482   6.449
  172SAPE   C2119463   7.225   6.593   6.520
  172SAPE   O2219464   7.146   6.679   6.540
  172SAPE   C2219465   7.351   6.609   6.595
  172SAPE   H2R19466   7.408   6.518   6.576
  172SAPE   H2S19467   7.401   6.702   6.559
  172SAPE    C319468   6.982   6.456   6.418
  172SAPE    HX19469   6.907   6.446   6.342
  172SAPE    HY19470   6.939   6.544   6.474
  172SAPE   O3119471   6.992   6.334   6.482
  172SAPE   C3119472   6.995   6.353   6.608
  172SAPE   O3219473   6.953   6.450   6.670
  172SAPE   C3219474   7.049   6.227   6.663
  172SAPE   H2X19475   7.154   6.212   6.653
  172SAPE   H2Y19476   7.027   6.146   6.595
  172SAPE   C2319477   7.312   6.630   6.743
  172SAPE   H3R19478   7.226   6.700   6.763
  172SAPE   H3S19479   7.400   6.680   6.788
  172SAPE   C2419480   7.287   6.495   6.811
  172SAPE   H4R19481   7.384   6.442   6.813
  172SAPE   H4S19482   7.216   6.433   6.751
  172SAPE   C2519483   7.232   6.524   6.948
  172SAPE   H5R19484   7.123   6.520   6.956
  172SAPE   C2619485   7.307   6.558   7.054
  172SAPE   H6R19486   7.258   6.582   7.149
  172SAPE   C2719487   7.458   6.572   7.057
  172SAPE   H7R19488   7.491   6.648   7.131
  172SAPE   H7S19489   7.499   6.606   6.960
  172SAPE   C2819490   7.514   6.436   7.089
  172SAPE   H8R19491   7.555   6.380   7.004
  172SAPE   C2919492   7.517   6.381   7.211
  172SAPE   H9R19493   7.550   6.277   7.219
  172SAPE  C21019494   7.467   6.442   7.340
  172SAPE  H10R19495   7.400   6.373   7.395
  172SAPE  H10S19496   7.408   6.534   7.322
  172SAPE  C21119497   7.586   6.479   7.424
  172SAPE  H11R19498   7.606   6.587   7.426
  172SAPE  C21219499   7.655   6.396   7.503
  172SAPE  H12R19500   7.746   6.432   7.554
  172SAPE  C21319501   7.618   6.251   7.519
  172SAPE  H13R19502   7.691   6.188   7.470
  172SAPE  H13S19503   7.529   6.218   7.464
  172SAPE  C21419504   7.615   6.208   7.661
  172SAPE  H14R19505   7.702   6.233   7.716
  172SAPE  C21519506   7.519   6.174   7.740
  172SAPE  H15R19507   7.543   6.140   7.842
  172SAPE  C21619508   7.381   6.176   7.691
  172SAPE  H16R19509   7.328   6.088   7.730
  172SAPE  H16S19510   7.371   6.175   7.581
  172SAPE  C21719511   7.320   6.303   7.745
  172SAPE  H17R19512   7.235   6.316   7.685
  172SAPE  H17S19513   7.380   6.397   7.747
  172SAPE  C21819514   7.261   6.262   7.875
  172SAPE  H18R19515   7.361   6.269   7.913
  172SAPE  H18S19516   7.217   6.162   7.884
  172SAPE  C21919517   7.175   6.351   7.956
  172SAPE  H19R19518   7.127   6.368   7.863
  172SAPE  H19S19519   7.218   6.445   7.991
  172SAPE  C22019520   7.069   6.308   8.057
  172SAPE  H20R19521   7.008   6.392   8.101
  172SAPE  H20S19522   7.119   6.263   8.143
  172SAPE  H20T19523   7.009   6.230   8.009
  172SAPE   C3319524   6.986   6.214   6.798
  172SAPE   H3X19525   6.878   6.228   6.778
  172SAPE   H3Y19526   7.005   6.297   6.868
  172SAPE   C3419527   7.019   6.083   6.865
  172SAPE   H4X19528   6.994   5.989   6.811
  172SAPE   H4Y19529   6.975   6.082   6.964
  172SAPE   C3519530   7.156   6.043   6.885
  172SAPE   H5X19531   7.199   6.041   6.784
  172SAPE   H5Y19532   7.144   5.940   6.921
  172SAPE   C3619533   7.219   6.125   6.991
  172SAPE   H6X19534   7.202   6.231   6.962
  172SAPE   H6Y19535   7.325   6.097   6.979
  172SAPE   C3719536   7.168   6.100   7.133
  172SAPE   H7X19537   7.180   5.997   7.169
  172SAPE   H7Y19538   7.058   6.118   7.135
  172SAPE   C3819539   7.235   6.187   7.237
  172SAPE   H8X19540   7.264   6.286   7.193
  172SAPE   H8Y19541   7.330   6.144   7.275
  172SAPE   C3919542   7.138   6.197   7.356
  172SAPE   H9X19543   7.203   6.247   7.431
  172SAPE   H9Y19544   7.103   6.106   7.403
  172SAPE  C31019545   6.994   6.248   7.319
  172SAPE  H10X19546   6.956   6.260   7.219
  172SAPE  H10Y19547   7.060   6.313   7.253
  172SAPE  C31119548   6.882   6.307   7.438
  172SAPE  H11X19549   6.925   6.241   7.519
  172SAPE  H11Y19550   6.785   6.266   7.419
  172SAPE  C31219551   6.850   6.471   7.517
  172SAPE  H12X19552   6.791   6.408   7.584
  172SAPE  H12Y19553   6.796   6.557   7.517
  172SAPE  C31319554   6.989   6.628   7.563
  172SAPE  H13X19555   7.102   6.627   7.521
  172SAPE  H13Y19556   7.075   6.607   7.632
  172SAPE  C31419557   7.024   6.761   7.543
  172SAPE  H14X19558   6.938   6.763   7.611
  172SAPE  H14Y19559   7.004   6.776   7.438
  172SAPE  C31519560   7.178   6.796   7.585
  172SAPE  H15X19561   7.164   6.900   7.615
  172SAPE  H15Y19562   7.248   6.772   7.503
  172SAPE  C31619563   7.261   6.722   7.693
  172SAPE  H16X19564   7.287   6.614   7.706
  172SAPE  H16Y19565   7.175   6.734   7.747
  172SAPE  C31719566   7.370   6.799   7.757
  172SAPE  H17X19567   7.358   6.907   7.748
  172SAPE  H17Y19568   7.433   6.757   7.675
  172SAPE  C31819569   7.405   6.760   7.901
  172SAPE  H18X19570   7.409   6.648   7.903
  172SAPE  H18Y19571   7.362   6.778   8.000
  172SAPE  H18Z19572   7.492   6.818   7.934
  173SOPE     N19573   3.631   4.826   9.863
  173SOPE   HN119574   3.638   4.729   9.897
  173SOPE   HN219575   3.531   4.857   9.870
  173SOPE   HN319576   3.662   4.828   9.763
  173SOPE   C1219577   3.714   4.917   9.950
  173SOPE  H12A19578   3.694   5.022   9.920
  173SOPE  H12B19579   3.821   4.897   9.929
  173SOPE   C1119580   3.682   4.891  10.099
  173SOPE  H11A19581   3.759   4.939  10.164
  173SOPE  H11B19582   3.687   4.783  10.122
  173SOPE     P19583   3.512   5.074  10.181
  173SOPE   O1319584   3.488   5.084  10.325
  173SOPE   O1419585   3.414   5.129  10.086
  173SOPE   O1219586   3.549   4.928  10.132
  173SOPE   O1119587   3.653   5.139  10.166
  173SOPE    C119588   3.653   5.277  10.166
  173SOPE    HA19589   3.743   5.318  10.215
  173SOPE    HB19590   3.582   5.337  10.234
  173SOPE    C219591   3.658   5.308  10.016
  173SOPE    HS19592   3.566   5.351  10.065
  173SOPE   O2119593   3.593   5.262   9.903
  173SOPE   C2119594   3.478   5.317   9.868
  173SOPE   O2219595   3.422   5.416   9.911
  173SOPE   C2219596   3.429   5.217   9.774
  173SOPE   H2R19597   3.332   5.187   9.820
  173SOPE   H2S19598   3.498   5.130   9.777
  173SOPE    C319599   3.814   5.278   9.997
  173SOPE    HX19600   3.857   5.200  10.056
  173SOPE    HY19601   3.882   5.355  10.040
  173SOPE   O3119602   3.843   5.233   9.859
  173SOPE   C3119603   3.960   5.197   9.801
  173SOPE   O3219604   4.036   5.119   9.856
  173SOPE   C3219605   3.966   5.235   9.647
  173SOPE   H2X19606   4.041   5.314   9.623
  173SOPE   H2Y19607   3.868   5.264   9.606
  173SOPE   C2319608   3.422   5.277   9.636
  173SOPE   H3R19609   3.522   5.311   9.599
  173SOPE   H3S19610   3.353   5.364   9.639
  173SOPE   C2419611   3.374   5.170   9.540
  173SOPE   H4R19612   3.456   5.095   9.528
  173SOPE   H4S19613   3.287   5.117   9.587
  173SOPE   C2519614   3.331   5.225   9.405
  173SOPE   H5R19615   3.258   5.308   9.419
  173SOPE   H5S19616   3.420   5.262   9.349
  173SOPE   C2619617   3.265   5.115   9.324
  173SOPE   H6R19618   3.321   5.020   9.344
  173SOPE   H6S19619   3.161   5.104   9.361
  173SOPE   C2719620   3.264   5.143   9.174
  173SOPE   H7R19621   3.211   5.239   9.154
  173SOPE   H7S19622   3.367   5.148   9.133
  173SOPE   C2819623   3.192   5.034   9.097
  173SOPE   H8R19624   3.103   5.025   9.152
  173SOPE   H8S19625   3.162   5.070   8.997
  173SOPE   C2919626   3.229   4.891   9.112
  173SOPE   H9119627   3.218   4.851   9.214
  173SOPE  C21019628   3.272   4.816   9.011
  173SOPE  H10119629   3.292   4.710   9.026
  173SOPE  C21119630   3.289   4.868   8.870
  173SOPE  H11R19631   3.351   4.795   8.815
  173SOPE  H11S19632   3.344   4.965   8.871
  173SOPE  C21219633   3.156   4.883   8.794
  173SOPE  H12R19634   3.091   4.959   8.843
  173SOPE  H12S19635   3.101   4.786   8.799
  173SOPE  C21319636   3.175   4.922   8.647
  173SOPE  H13R19637   3.244   5.009   8.638
  173SOPE  H13S19638   3.075   4.953   8.610
  173SOPE  C21419639   3.225   4.808   8.557
  173SOPE  H14R19640   3.144   4.732   8.558
  173SOPE  H14S19641   3.315   4.760   8.601
  173SOPE  C21519642   3.256   4.848   8.411
  173SOPE  H15R19643   3.170   4.902   8.369
  173SOPE  H15S19644   3.261   4.757   8.349
  173SOPE  C21619645   3.383   4.931   8.388
  173SOPE  H16R19646   3.472   4.864   8.391
  173SOPE  H16S19647   3.393   5.004   8.470
  173SOPE  C21719648   3.381   5.007   8.254
  173SOPE  H17R19649   3.299   5.083   8.259
  173SOPE  H17S19650   3.357   4.938   8.170
  173SOPE  C21819651   3.513   5.077   8.218
  173SOPE  H18R19652   3.536   5.159   8.288
  173SOPE  H18S19653   3.503   5.119   8.115
  173SOPE  H18T19654   3.597   5.005   8.220
  173SOPE   C3319655   3.997   5.114   9.563
  173SOPE   H3X19656   4.098   5.081   9.592
  173SOPE   H3Y19657   3.996   5.140   9.454
  173SOPE   C3419658   3.884   5.016   9.590
  173SOPE   H4X19659   3.786   5.064   9.568
  173SOPE   H4Y19660   3.879   4.991   9.698
  173SOPE   C3519661   3.904   4.885   9.515
  173SOPE   H5X19662   3.832   4.814   9.559
  173SOPE   H5Y19663   4.008   4.851   9.535
  173SOPE   C3619664   3.884   4.895   9.363
  173SOPE   H6X19665   3.908   4.799   9.313
  173SOPE   H6Y19666   3.957   4.971   9.333
  173SOPE   C3719667   3.743   4.937   9.318
  173SOPE   H7X19668   3.714   5.028   9.375
  173SOPE   H7Y19669   3.674   4.854   9.337
  173SOPE   C3819670   3.724   4.975   9.170
  173SOPE   H8X19671   3.787   5.063   9.154
  173SOPE   H8Y19672   3.623   5.019   9.159
  173SOPE   C3919673   3.737   4.862   9.063
  173SOPE   H9X19674   3.654   4.792   9.085
  173SOPE   H9Y19675   3.833   4.807   9.075
  173SOPE  C31019676   3.715   4.913   8.918
  173SOPE  H10X19677   3.806   4.944   8.862
  173SOPE  H10Y19678   3.652   5.005   8.930
  173SOPE  C31119679   3.648   4.821   8.818
  173SOPE  H11X19680   3.598   4.888   8.744
  173SOPE  H11Y19681   3.572   4.766   8.876
  173SOPE  C31219682   3.740   4.730   8.735
  173SOPE  H12X19683   3.778   4.647   8.799
  173SOPE  H12Y19684   3.830   4.785   8.696
  173SOPE  C31319685   3.662   4.673   8.616
  173SOPE  H13X19686   3.619   4.757   8.556
  173SOPE  H13Y19687   3.575   4.616   8.657
  173SOPE  C31419688   3.744   4.583   8.523
  173SOPE  H14X19689   3.676   4.525   8.456
  173SOPE  H14Y19690   3.801   4.510   8.585
  173SOPE  C31519691   3.844   4.659   8.436
  173SOPE  H15X19692   3.917   4.585   8.397
  173SOPE  H15Y19693   3.900   4.731   8.499
  173SOPE  C31619694   3.778   4.741   8.325
  173SOPE  H16X19695   3.723   4.827   8.368
  173SOPE  H16Y19696   3.706   4.684   8.261
  173SOPE  C31719697   3.881   4.802   8.235
  173SOPE  H17X19698   3.985   4.781   8.269
  173SOPE  H17Y19699   3.869   4.913   8.227
  173SOPE  C31819700   3.862   4.737   8.104
  173SOPE  H18X19701   3.964   4.729   8.074
  173SOPE  H18Y19702   3.801   4.796   8.032
  173SOPE  H18Z19703   3.848   4.628   8.099
  174SOPE     N19704   5.068   4.526  10.333
  174SOPE   HN119705   5.058   4.444  10.271
  174SOPE   HN219706   5.163   4.529  10.375
  174SOPE   HN319707   4.996   4.522  10.407
  174SOPE   C1219708   5.038   4.646  10.247
  174SOPE  H12A19709   5.109   4.645  10.162
  174SOPE  H12B19710   5.055   4.738  10.306
  174SOPE   C1119711   4.892   4.643  10.200
  174SOPE  H11A19712   4.871   4.722  10.124
  174SOPE  H11B19713   4.830   4.668  10.289
  174SOPE     P19714   4.875   4.465  10.003
  174SOPE   O1319715   4.771   4.369   9.968
  174SOPE   O1419716   5.012   4.414   9.992
  174SOPE   O1219717   4.857   4.513  10.154
  174SOPE   O1119718   4.858   4.599   9.919
  174SOPE    C119719   4.786   4.601   9.795
  174SOPE    HA19720   4.680   4.637   9.807
  174SOPE    HB19721   4.785   4.502   9.749
  174SOPE    C219722   4.853   4.689   9.690
  174SOPE    HS19723   4.811   4.672   9.587
  174SOPE   O2119724   4.997   4.676   9.689
  174SOPE   C2119725   5.043   4.556   9.665
  174SOPE   O2219726   4.980   4.457   9.631
  174SOPE   C2219727   5.193   4.567   9.682
  174SOPE   H2R19728   5.214   4.610   9.782
  174SOPE   H2S19729   5.228   4.636   9.604
  174SOPE    C319730   4.820   4.833   9.712
  174SOPE    HX19731   4.859   4.863   9.813
  174SOPE    HY19732   4.715   4.866   9.708
  174SOPE   O3119733   4.891   4.883   9.604
  174SOPE   C3119734   4.842   4.932   9.493
  174SOPE   O3219735   4.733   4.908   9.447
  174SOPE   C3219736   4.954   5.017   9.428
  174SOPE   H2X19737   4.979   5.114   9.474
  174SOPE   H2Y19738   4.925   5.043   9.325
  174SOPE   C2319739   5.262   4.431   9.669
  174SOPE   H3R19740   5.202   4.353   9.723
  174SOPE   H3S19741   5.362   4.436   9.719
  174SOPE   C2419742   5.274   4.393   9.521
  174SOPE   H4R19743   5.196   4.430   9.454
  174SOPE   H4S19744   5.375   4.426   9.484
  174SOPE   C2519745   5.253   4.245   9.509
  174SOPE   H5R19746   5.339   4.237   9.564
  174SOPE   H5S19747   5.189   4.193   9.582
  174SOPE   C2619748   5.227   4.184   9.372
  174SOPE   H6R19749   5.222   4.072   9.377
  174SOPE   H6S19750   5.129   4.231   9.361
  174SOPE   C2719751   5.298   4.222   9.242
  174SOPE   H7R19752   5.302   4.331   9.224
  174SOPE   H7S19753   5.396   4.181   9.256
  174SOPE   C2819754   5.251   4.144   9.118
  174SOPE   H8R19755   5.305   4.180   9.028
  174SOPE   H8S19756   5.276   4.036   9.125
  174SOPE   C2919757   5.104   4.170   9.114
  174SOPE   H9119758   5.048   4.129   9.199
  174SOPE  C21019759   5.040   4.246   9.027
  174SOPE  H10119760   4.933   4.264   9.046
  174SOPE  C21119761   5.101   4.322   8.912
  174SOPE  H11R19762   5.202   4.283   8.887
  174SOPE  H11S19763   5.109   4.430   8.939
  174SOPE  C21219764   5.018   4.307   8.785
  174SOPE  H12R19765   4.918   4.355   8.799
  174SOPE  H12S19766   5.006   4.198   8.763
  174SOPE  C21319767   5.083   4.368   8.661
  174SOPE  H13R19768   5.192   4.346   8.660
  174SOPE  H13S19769   5.069   4.478   8.663
  174SOPE  C21419770   5.019   4.311   8.535
  174SOPE  H14R19771   4.909   4.327   8.539
  174SOPE  H14S19772   5.035   4.201   8.531
  174SOPE  C21519773   5.070   4.381   8.410
  174SOPE  H15R19774   5.046   4.308   8.328
  174SOPE  H15S19775   5.180   4.396   8.405
  174SOPE  C21619776   4.993   4.517   8.406
  174SOPE  H16R19777   5.011   4.579   8.493
  174SOPE  H16S19778   4.884   4.487   8.407
  174SOPE  C21719779   5.008   4.608   8.290
  174SOPE  H17R19780   5.108   4.618   8.249
  174SOPE  H17S19781   4.974   4.712   8.279
  174SOPE  C21819782   4.918   4.523   8.214
  174SOPE  H18R19783   4.960   4.422   8.205
  174SOPE  H18S19784   4.932   4.585   8.131
  174SOPE  H18T19785   4.840   4.528   8.150
  174SOPE   C3319786   5.073   4.923   9.446
  174SOPE   H3X19787   5.027   4.831   9.409
  174SOPE   H3Y19788   5.110   4.889   9.543
  174SOPE   C3419789   5.189   4.985   9.375
  174SOPE   H4X19790   5.208   5.077   9.408
  174SOPE   H4Y19791   5.145   5.030   9.290
  174SOPE   C3519792   5.332   4.938   9.386
  174SOPE   H5X19793   5.336   4.889   9.491
  174SOPE   H5Y19794   5.427   4.984   9.358
  174SOPE   C3619795   5.354   4.834   9.295
  174SOPE   H6X19796   5.279   4.770   9.359
  174SOPE   H6Y19797   5.348   4.762   9.366
  174SOPE   C3719798   5.394   4.769   9.109
  174SOPE   H7X19799   5.467   4.833   9.101
  174SOPE   H7Y19800   5.304   4.765   9.040
  174SOPE   C3819801   5.317   4.661   8.990
  174SOPE   H8X19802   5.214   4.611   9.009
  174SOPE   H8Y19803   5.389   4.583   8.993
  174SOPE   C3919804   5.319   4.693   8.841
  174SOPE   H9X19805   5.360   4.602   8.795
  174SOPE   H9Y19806   5.403   4.762   8.827
  174SOPE  C31019807   5.189   4.754   8.777
  174SOPE  H10X19808   5.127   4.823   8.838
  174SOPE  H10Y19809   5.128   4.665   8.755
  174SOPE  C31119810   5.222   4.836   8.653
  174SOPE  H11X19811   5.272   4.934   8.645
  174SOPE  H11Y19812   5.132   4.862   8.596
  174SOPE  C31219813   5.330   4.746   8.600
  174SOPE  H12X19814   5.272   4.652   8.583
  174SOPE  H12Y19815   5.427   4.738   8.648
  174SOPE  C31319816   5.420   4.806   8.498
  174SOPE  H13X19817   5.426   4.912   8.485
  174SOPE  H13Y19818   5.307   4.801   8.463
  174SOPE  C31419819   5.552   4.731   8.401
  174SOPE  H14X19820   5.516   4.643   8.452
  174SOPE  H14Y19821   5.645   4.726   8.449
  174SOPE  C31519822   5.565   4.707   8.210
  174SOPE  H15X19823   5.618   4.631   8.157
  174SOPE  H15Y19824   5.585   4.804   8.158
  174SOPE  C31619825   5.434   4.648   8.100
  174SOPE  H16X19826   5.318   4.683   8.110
  174SOPE  H16Y19827   5.379   4.549   8.105
  174SOPE  C31719828   5.463   4.716   8.001
  174SOPE  H17X19829   5.405   4.815   8.008
  174SOPE  H17Y19830   5.401   4.634   7.960
  174SOPE  C31819831   5.578   4.690   7.917
  174SOPE  H18X19832   5.571   4.582   7.933
  174SOPE  H18Y19833   5.645   4.767   7.955
  174SOPE  H18Z19834   5.580   4.692   7.807
  175SOPE     N19835   5.045   5.218  10.396
  175SOPE   HN119836   4.994   5.275  10.466
  175SOPE   HN219837   5.031   5.117  10.416
  175SOPE   HN319838   5.146   5.243  10.390
  175SOPE   C1219839   4.979   5.250  10.265
  175SOPE  H12A19840   4.979   5.360  10.253
  175SOPE  H12B19841   4.875   5.213  10.276
  175SOPE   C1119842   5.049   5.179  10.148
  175SOPE  H11A19843   4.979   5.178  10.061
  175SOPE  H11B19844   5.068   5.072  10.172
  175SOPE     P19845   5.186   5.349   9.999
  175SOPE   O1319846   5.329   5.388   9.991
  175SOPE   O1419847   5.084   5.454  10.021
  175SOPE   O1219848   5.173   5.242  10.118
  175SOPE   O1119849   5.146   5.267   9.872
  175SOPE    C119850   5.214   5.148   9.835
  175SOPE    HA19851   5.199   5.066   9.910
  175SOPE    HB19852   5.320   5.165   9.810
  175SOPE    C219853   5.152   5.097   9.709
  175SOPE    HS19854   5.195   4.997   9.680
  175SOPE   O2119855   5.159   5.194   9.602
  175SOPE   C2119856   5.281   5.212   9.553
  175SOPE   O2219857   5.376   5.139   9.573
  175SOPE   C2219858   5.261   5.302   9.426
  175SOPE   H2R19859   5.274   5.403   9.465
  175SOPE   H2S19860   5.159   5.289   9.383
  175SOPE    C319861   5.007   5.073   9.747
  175SOPE    HX19862   4.997   4.991   9.819
  175SOPE    HY19863   4.986   5.046   9.650
  175SOPE   O3119864   4.923   5.183   9.777
  175SOPE   C3119865   4.828   5.212   9.694
  175SOPE   O3219866   4.779   5.148   9.605
  175SOPE   C3219867   4.786   5.345   9.724
  175SOPE   H2X19868   4.859   5.408   9.778
  175SOPE   H2Y19869   4.689   5.338   9.781
  175SOPE   C2319870   5.360   5.274   9.311
  175SOPE   H3R19871   5.322   5.197   9.240
  175SOPE   H3S19872   5.458   5.237   9.350
  175SOPE   C2419873   5.385   5.401   9.232
  175SOPE   H4R19874   5.304   5.422   9.158
  175SOPE   H4S19875   5.403   5.491   9.294
  175SOPE   C2519876   5.517   5.396   9.167
  175SOPE   H5R19877   5.524   5.485   9.106
  175SOPE   H5S19878   5.599   5.370   9.232
  175SOPE   C2619879   5.534   5.303   9.066
  175SOPE   H6R19880   5.644   5.298   9.037
  175SOPE   H6S19881   5.510   5.204   9.115
  175SOPE   C2719882   5.434   5.354   8.958
  175SOPE   H7R19883   5.500   5.273   8.942
  175SOPE   H7S19884   5.328   5.327   8.965
  175SOPE   C2819885   5.456   5.374   8.812
  175SOPE   H8R19886   5.383   5.414   8.742
  175SOPE   H8S19887   5.527   5.441   8.858
  175SOPE   C2919888   5.532   5.296   8.730
  175SOPE   H9119889   5.633   5.305   8.773
  175SOPE  C21019890   5.510   5.227   8.624
  175SOPE  H10119891   5.600   5.177   8.599
  175SOPE  C21119892   5.405   5.192   8.534
  175SOPE  H11R19893   5.323   5.250   8.577
  175SOPE  H11S19894   5.398   5.084   8.543
  175SOPE  C21219895   5.431   5.214   8.387
  175SOPE  H12R19896   5.341   5.186   8.330
  175SOPE  H12S19897   5.518   5.156   8.344
  175SOPE  C21319898   5.452   5.355   8.355
  175SOPE  H13R19899   5.540   5.401   8.402
  175SOPE  H13S19900   5.368   5.420   8.389
  175SOPE  C21419901   5.472   5.364   8.208
  175SOPE  H14R19902   5.387   5.313   8.157
  175SOPE  H14S19903   5.573   5.332   8.173
  175SOPE  C21519904   5.456   5.508   8.182
  175SOPE  H15R19905   5.543   5.572   8.176
  175SOPE  H15S19906   5.370   5.555   8.229
  175SOPE  C21619907   5.492   5.551   8.069
  175SOPE  H16R19908   5.404   5.478   8.029
  175SOPE  H16S19909   5.517   5.447   8.021
  175SOPE  C21719910   5.517   5.744   7.963
  175SOPE  H17R19911   5.591   5.785   8.019
  175SOPE  H17S19912   5.446   5.818   7.953
  175SOPE  C21819913   5.469   5.743   7.729
  175SOPE  H18R19914   5.538   5.790   7.694
  175SOPE  H18S19915   5.370   5.707   7.677
  175SOPE  H18T19916   5.470   5.640   7.668
  175SOPE   C3319917   4.761   5.409   9.591
  175SOPE   H3X19918   4.704   5.488   9.643
  175SOPE   H3Y19919   4.685   5.389   9.521
  175SOPE   C3419920   4.863   5.421   9.475
  175SOPE   H4X19921   4.907   5.324   9.450
  175SOPE   H4Y19922   4.935   5.486   9.530
  175SOPE   C3519923   4.820   5.464   9.327
  175SOPE   H5X19924   4.739   5.539   9.323
  175SOPE   H5Y19925   4.739   5.431   9.263
  175SOPE   C3619926   4.942   5.494   9.236
  175SOPE   H6X19927   4.992   5.399   9.223
  175SOPE   H6Y19928   5.021   5.566   9.270
  175SOPE   C3719929   4.893   5.552   9.105
  175SOPE   H7X19930   4.880   5.653   9.138
  175SOPE   H7Y19931   4.790   5.523   9.077
  175SOPE   C3819932   4.998   5.566   8.996
  175SOPE   H8X19933   5.044   5.466   8.993
  175SOPE   H8Y19934   5.072   5.645   9.025
  175SOPE   C3919935   4.939   5.596   8.858
  175SOPE   H9X19936   4.915   5.697   8.831
  175SOPE   H9Y19937   4.841   5.548   8.843
  175SOPE  C31019938   5.044   5.578   8.756
  175SOPE  H10X19939   5.069   5.471   8.761
  175SOPE  H10Y19940   5.129   5.641   8.788
  175SOPE  C31119941   5.005   5.625   8.618
  175SOPE  H11X19942   5.010   5.737   8.609
  175SOPE  H11Y19943   4.902   5.595   8.593
  175SOPE  C31219944   5.111   5.570   8.527
  175SOPE  H12X19945   5.110   5.459   8.516
  175SOPE  H12Y19946   5.205   5.602   8.566
  175SOPE  C31319947   5.106   5.636   8.399
  175SOPE  H13X19948   5.188   5.603   8.331
  175SOPE  H13Y19949   5.097   5.747   8.395
  175SOPE  C31419950   4.987   5.584   8.349
  175SOPE  H14X19951   4.887   5.616   8.395
  175SOPE  H14Y19952   4.996   5.479   8.312
  175SOPE  C31519953   4.999   5.639   8.228
  175SOPE  H15X19954   5.005   5.749   8.220
  175SOPE  H15Y19955   4.885   5.653   8.220
  175SOPE  C31619956   5.089   5.538   8.130
  175SOPE  H16X19957   5.070   5.428   8.121
  175SOPE  H16Y19958   5.184   5.504   8.169
  175SOPE  C31719959   5.106   5.573   7.970
  175SOPE  H17X19960   5.074   5.486   7.927
  175SOPE  H17Y19961   5.096   5.469   7.956
  175SOPE  C31819962   5.081   5.736   7.873
  175SOPE  H18X19963   5.060   5.764   7.768
  175SOPE  H18Y19964   5.159   5.798   7.887
  175SOPE  H18Z19965   4.995   5.801   7.904
  176SOPE     N19966   5.559   4.913  10.237
  176SOPE   HN119967   5.508   4.904  10.147
  176SOPE   HN219968   5.508   4.972  10.306
  176SOPE   HN319969   5.651   4.957  10.219
  176SOPE   C1219970   5.583   4.779  10.299
  176SOPE  H12A19971   5.486   4.733  10.326
  176SOPE  H12B19972   5.643   4.798  10.391
  176SOPE   C1119973   5.667   4.686  10.211
  176SOPE  H11A19974   5.722   4.622  10.284
  176SOPE  H11B19975   5.743   4.744  10.153
  176SOPE     P19976   5.648   4.523  10.008
  176SOPE   O1319977   5.536   4.471   9.927
  176SOPE   O1419978   5.746   4.428  10.067
  176SOPE   O1219979   5.584   4.605  10.128
  176SOPE   O1119980   5.724   4.637   9.930
  176SOPE    C119981   5.656   4.738   9.856
  176SOPE    HA19982   5.720   4.829   9.853
  176SOPE    HB19983   5.558   4.764   9.900
  176SOPE    C219984   5.636   4.703   9.708
  176SOPE    HS19985   5.571   4.612   9.701
  176SOPE   O2119986   5.765   4.684   9.647
  176SOPE   C2119987   5.783   4.595   9.554
  176SOPE   O2219988   5.706   4.509   9.514
  176SOPE   C2219989   5.919   4.615   9.497
  176SOPE   H2R19990   5.956   4.518   9.458
  176SOPE   H2S19991   5.989   4.647   9.578
  176SOPE    C319992   5.567   4.823   9.637
  176SOPE    HX19993   5.617   4.915   9.672
  176SOPE    HY19994   5.460   4.834   9.672
  176SOPE   O3119995   5.589   4.810   9.491
  176SOPE   C3119996   5.526   4.695   9.451
  176SOPE   O3219997   5.441   4.644   9.521
  176SOPE   C3219998   5.520   4.657   9.296
  176SOPE   H2X19999   5.616   4.640   9.247
  176SOPE   H2Y20000   5.551   4.767   9.263
  176SOPE   C2320001   5.915   4.711   9.378
  176SOPE   H3R20002   5.900   4.817   9.411
  176SOPE   H3S20003   5.846   4.683   9.297
  176SOPE   C2420004   6.048   4.696   9.316
  176SOPE   H4R20005   6.096   4.736   9.405
  176SOPE   H4S20006   6.085   4.592   9.301
  176SOPE   C2520007   6.069   4.776   9.190
  176SOPE   H5R20008   6.072   4.886   9.205
  176SOPE   H5S20009   6.168   4.736   9.172
  176SOPE   C2620010   5.976   4.738   9.075
  176SOPE   H6R20011   5.926   4.643   9.100
  176SOPE   H6S20012   5.904   4.823   9.072
  176SOPE   C2720013   6.035   4.723   8.934
  176SOPE   H7R20014   6.037   4.826   8.891
  176SOPE   H7S20015   6.136   4.678   8.936
  176SOPE   C2820016   5.954   4.639   8.838
  176SOPE   H8R20017   5.849   4.663   8.864
  176SOPE   H8S20018   5.973   4.676   8.734
  176SOPE   C2920019   5.982   4.491   8.842
  176SOPE   H9120020   6.070   4.452   8.895
  176SOPE  C21020021   5.896   4.406   8.790
  176SOPE  H10120022   5.907   4.296   8.798
  176SOPE  C21120023   5.772   4.455   8.728
  176SOPE  H11R20024   5.728   4.552   8.762
  176SOPE  H11S20025   5.705   4.399   8.789
  176SOPE  C21220026   5.775   4.444   8.575
  176SOPE  H12R20027   5.797   4.348   8.528
  176SOPE  H12S20028   5.848   4.519   8.536
  176SOPE  C21320029   5.640   4.469   8.514
  176SOPE  H13R20030   5.617   4.559   8.574
  176SOPE  H13S20031   5.564   4.396   8.542
  176SOPE  C21420032   5.633   4.476   8.357
  176SOPE  H14R20033   5.696   4.395   8.314
  176SOPE  H14S20034   5.702   4.561   8.328
  176SOPE  C21520035   5.476   4.487   8.297
  176SOPE  H15R20036   5.426   4.395   8.308
  176SOPE  H15S20037   5.514   4.469   8.191
  176SOPE  C21620038   5.346   4.625   8.320
  176SOPE  H16R20039   5.340   4.606   8.421
  176SOPE  H16S20040   5.255   4.589   8.326
  176SOPE  C21720041   5.358   4.819   8.265
  176SOPE  H17R20042   5.396   4.841   8.176
  176SOPE  H17S20043   5.455   4.881   8.291
  176SOPE  C21820044   5.282   4.939   8.245
  176SOPE  H18R20045   5.278   4.975   8.347
  176SOPE  H18S20046   5.201   4.882   8.197
  176SOPE  H18T20047   5.354   5.011   8.187
  176SOPE   C3320048   5.330   4.596   9.245
  176SOPE   H3X20049   5.322   4.540   9.329
  176SOPE   H3Y20050   5.412   4.565   9.175
  176SOPE   C3420051   5.168   4.747   9.187
  176SOPE   H4X20052   5.120   4.770   9.277
  176SOPE   H4Y20053   5.103   4.685   9.142
  176SOPE   C3520054   5.217   4.938   9.107
  176SOPE   H5X20055   5.310   4.995   9.159
  176SOPE   H5Y20056   5.157   5.029   9.101
  176SOPE   C3620057   5.325   4.959   8.976
  176SOPE   H6X20058   5.270   4.892   8.926
  176SOPE   H6Y20059   5.421   4.899   8.949
  176SOPE   C3720060   5.307   5.021   8.861
  176SOPE   H7X20061   5.197   5.046   8.868
  176SOPE   H7Y20062   5.366   4.964   8.784
  176SOPE   C3820063   5.407   5.096   8.909
  176SOPE   H8X20064   5.372   5.142   9.008
  176SOPE   H8Y20065   5.358   5.168   8.840
  176SOPE   C3920066   5.567   5.052   8.926
  176SOPE   H9X20067   5.590   4.969   8.996
  176SOPE   H9Y20068   5.627   5.115   8.989
  176SOPE  C31020069   5.668   5.047   8.814
  176SOPE  H10X20070   5.773   5.051   8.849
  176SOPE  H10Y20071   5.691   5.140   8.772
  176SOPE  C31120072   5.616   4.965   8.699
  176SOPE  H11X20073   5.513   4.995   8.677
  176SOPE  H11Y20074   5.605   4.865   8.739
  176SOPE  C31220075   5.698   4.977   8.571
  176SOPE  H12X20076   5.671   5.050   8.492
  176SOPE  H12Y20077   5.680   4.886   8.518
  176SOPE  C31320078   5.843   4.987   8.604
  176SOPE  H13X20079   5.860   4.938   8.702
  176SOPE  H13Y20080   5.874   5.094   8.615
  176SOPE  C31420081   5.921   4.903   8.503
  176SOPE  H14X20082   5.890   4.798   8.512
  176SOPE  H14Y20083   6.027   4.914   8.535
  176SOPE  C31520084   5.889   4.914   8.352
  176SOPE  H15X20085   5.787   4.925   8.311
  176SOPE  H15Y20086   5.960   4.854   8.291
  176SOPE  C31620087   5.932   5.038   8.308
  176SOPE  H16X20088   5.890   5.087   8.398
  176SOPE  H16Y20089   5.878   5.100   8.234
  176SOPE  C31720090   6.081   5.024   8.310
  176SOPE  H17X20091   6.138   5.011   8.407
  176SOPE  H17Y20092   6.106   5.117   8.256
  176SOPE  C31820093   6.166   4.988   8.216
  176SOPE  H18X20094   6.184   4.886   8.253
  176SOPE  H18Y20095   6.255   5.052   8.240
  176SOPE  H18Z20096   6.133   5.023   8.117
  177SOPE     N20097   5.334   1.483  10.078
  177SOPE   HN120098   5.266   1.419  10.124
  177SOPE   HN220099   5.291   1.574  10.056
  177SOPE   HN320100   5.369   1.439   9.992
  177SOPE   C1220101   5.457   1.495  10.165
  177SOPE  H12A20102   5.495   1.393  10.185
  177SOPE  H12B20103   5.425   1.539  10.262
  177SOPE   C1120104   5.565   1.581  10.098
  177SOPE  H11A20105   5.602   1.543  10.005
  177SOPE  H11B20106   5.656   1.581  10.164
  177SOPE     P20107   5.603   1.829  10.098
  177SOPE   O1320108   5.736   1.813  10.038
  177SOPE   O1420109   5.594   1.834  10.245
  177SOPE   O1220110   5.512   1.706  10.058
  177SOPE   O1120111   5.527   1.952  10.037
  177SOPE    C120112   5.386   1.966  10.059
  177SOPE    HA20113   5.366   2.063  10.109
  177SOPE    HB20114   5.347   1.891  10.132
  177SOPE    C220115   5.309   1.956   9.924
  177SOPE    HS20116   5.210   1.910   9.945
  177SOPE   O2120117   5.387   1.882   9.827
  177SOPE   C2120118   5.334   1.775   9.778
  177SOPE   O2220119   5.223   1.731   9.804
  177SOPE   C2220120   5.435   1.703   9.689
  177SOPE   H2R20121   5.500   1.640   9.753
  177SOPE   H2S20122   5.498   1.777   9.637
  177SOPE    C320123   5.287   2.097   9.865
  177SOPE    HX20124   5.386   2.145   9.849
  177SOPE    HY20125   5.230   2.155   9.940
  177SOPE   O3120126   5.208   2.093   9.745
  177SOPE   C3120127   5.260   2.131   9.630
  177SOPE   O3220128   5.374   2.160   9.605
  177SOPE   C3220129   5.147   2.137   9.531
  177SOPE   H2X20130   5.139   2.236   9.487
  177SOPE   H2Y20131   5.049   2.110   9.577
  177SOPE   C2320132   5.360   1.612   9.589
  177SOPE   H3R20133   5.303   1.675   9.517
  177SOPE   H3S20134   5.286   1.547   9.642
  177SOPE   C2420135   5.454   1.520   9.514
  177SOPE   H4R20136   5.502   1.449   9.584
  177SOPE   H4S20137   5.395   1.459   9.441
  177SOPE   C2520138   5.562   1.592   9.432
  177SOPE   H5R20139   5.644   1.632   9.496
  177SOPE   H5S20140   5.594   1.505   9.371
  177SOPE   C2620141   5.517   1.700   9.335
  177SOPE   H6R20142   5.439   1.660   9.267
  177SOPE   H6S20143   5.473   1.782   9.396
  177SOPE   C2720144   5.629   1.768   9.253
  177SOPE   H7R20145   5.719   1.780   9.319
  177SOPE   H7S20146   5.660   1.705   9.167
  177SOPE   C2820147   5.581   1.907   9.207
  177SOPE   H8R20148   5.485   1.895   9.151
  177SOPE   H8S20149   5.555   1.965   9.299
  177SOPE   C2920150   5.680   1.985   9.123
  177SOPE   H9120151   5.753   1.928   9.065
  177SOPE  C21020152   5.678   2.118   9.111
  177SOPE  H10120153   5.747   2.168   9.040
  177SOPE  C21120154   5.577   2.209   9.178
  177SOPE  H11R20155   5.630   2.304   9.213
  177SOPE  H11S20156   5.519   2.169   9.262
  177SOPE  C21220157   5.468   2.254   9.079
  177SOPE  H12R20158   5.555   2.296   9.031
  177SOPE  H12S20159   5.415   2.346   9.103
  177SOPE  C21320160   5.375   2.161   8.984
  177SOPE  H13R20161   5.319   2.094   9.048
  177SOPE  H13S20162   5.451   2.086   8.950
  177SOPE  C21420163   5.266   2.218   8.862
  177SOPE  H14R20164   5.195   2.277   8.918
  177SOPE  H14S20165   5.231   2.122   8.821
  177SOPE  C21520166   5.287   2.313   8.721
  177SOPE  H15R20167   5.378   2.335   8.666
  177SOPE  H15S20168   5.316   2.404   8.752
  177SOPE  C21620169   5.226   2.349   8.599
  177SOPE  H16R20170   5.192   2.442   8.639
  177SOPE  H16S20171   5.174   2.254   8.588
  177SOPE  C21720172   5.311   2.413   8.492
  177SOPE  H17R20173   5.387   2.341   8.495
  177SOPE  H17S20174   5.356   2.515   8.506
  177SOPE  C21820175   5.227   2.392   8.375
  177SOPE  H18R20176   5.183   2.289   8.383
  177SOPE  H18S20177   5.270   2.417   8.278
  177SOPE  H18T20178   5.164   2.474   8.403
  177SOPE   C3320179   5.165   2.045   9.418
  177SOPE   H3X20180   5.163   1.946   9.465
  177SOPE   H3Y20181   5.262   2.061   9.365
  177SOPE   C3420182   5.050   2.073   9.326
  177SOPE   H4X20183   5.052   2.174   9.285
  177SOPE   H4Y20184   4.950   2.039   9.365
  177SOPE   C3520185   5.076   2.012   9.200
  177SOPE   H5X20186   5.079   1.910   9.229
  177SOPE   H5Y20187   5.179   2.020   9.162
  177SOPE   C3620188   4.964   2.029   9.102
  177SOPE   H6X20189   4.862   2.013   9.140
  177SOPE   H6Y20190   4.982   1.942   9.045
  177SOPE   C3720191   4.985   2.110   8.978
  177SOPE   H7X20192   5.076   2.078   8.925
  177SOPE   H7Y20193   5.007   2.204   9.026
  177SOPE   C3820194   4.867   2.116   8.881
  177SOPE   H8X20195   4.821   2.211   8.902
  177SOPE   H8Y20196   4.781   2.049   8.899
  177SOPE   C3920197   4.898   2.106   8.732
  177SOPE   H9X20198   4.999   2.137   8.696
  177SOPE   H9Y20199   4.814   2.138   8.667
  177SOPE  C31020200   4.889   1.968   8.704
  177SOPE  H10X20201   4.794   1.922   8.739
  177SOPE  H10Y20202   4.970   1.924   8.759
  177SOPE  C31120203   4.918   1.935   8.566
  177SOPE  H11X20204   4.837   1.958   8.493
  177SOPE  H11Y20205   4.874   1.836   8.577
  177SOPE  C31220206   5.072   1.952   8.519
  177SOPE  H12X20207   5.105   2.054   8.510
  177SOPE  H12Y20208   5.022   1.936   8.422
  177SOPE  C31320209   5.213   1.866   8.559
  177SOPE  H13X20210   5.220   1.756   8.547
  177SOPE  H13Y20211   5.238   1.872   8.665
  177SOPE  C31420212   5.341   1.850   8.482
  177SOPE  H14X20213   5.336   1.814   8.377
  177SOPE  H14Y20214   5.415   1.779   8.530
  177SOPE  C31520215   5.386   1.982   8.492
  177SOPE  H15X20216   5.398   1.987   8.604
  177SOPE  H15Y20217   5.314   2.063   8.466
  177SOPE  C31620218   5.502   1.970   8.402
  177SOPE  H16X20219   5.582   1.897   8.417
  177SOPE  H16Y20220   5.552   2.046   8.459
  177SOPE  C31720221   5.464   1.987   8.248
  177SOPE  H17X20222   5.384   2.066   8.247
  177SOPE  H17Y20223   5.415   1.893   8.219
  177SOPE  C31820224   5.566   2.012   8.130
  177SOPE  H18X20225   5.523   2.079   8.051
  177SOPE  H18Y20226   5.648   1.940   8.116
  177SOPE  H18Z20227   5.643   2.086   8.132
  178SOPE     N20228   2.603   7.276  10.262
  178SOPE   HN120229   2.597   7.363  10.320
  178SOPE   HN220230   2.538   7.283  10.182
  178SOPE   HN320231   2.581   7.192  10.320
  178SOPE   C1220232   2.740   7.260  10.201
  178SOPE  H12A20233   2.812   7.232  10.281
  178SOPE  H12B20234   2.769   7.358  10.158
  178SOPE   C1120235   2.738   7.154  10.089
  178SOPE  H11A20236   2.838   7.155  10.039
  178SOPE  H11B20237   2.662   7.183  10.013
  178SOPE     P20238   2.740   6.898  10.051
  178SOPE   O1320239   2.657   6.787  10.099
  178SOPE   O1420240   2.887   6.886  10.045
  178SOPE   O1220241   2.706   7.025  10.143
  178SOPE   O1120242   2.691   6.942   9.908
  178SOPE    C120243   2.556   6.916   9.873
  178SOPE    HA20244   2.487   6.975   9.937
  178SOPE    HB20245   2.530   6.808   9.880
  178SOPE    C220246   2.527   6.966   9.732
  178SOPE    HS20247   2.422   6.932   9.707
  178SOPE   O2120248   2.639   6.931   9.641
  178SOPE   C2120249   2.605   6.826   9.570
  178SOPE   O2220250   2.490   6.793   9.561
  178SOPE   C2220251   2.719   6.759   9.494
  178SOPE   H2R20252   2.790   6.716   9.568
  178SOPE   H2S20253   2.760   6.847   9.443
  178SOPE    C320254   2.516   7.117   9.730
  178SOPE    HX20255   2.613   7.154   9.770
  178SOPE    HY20256   2.432   7.159   9.788
  178SOPE   O3120257   2.504   7.148   9.593
  178SOPE   C3120258   2.399   7.092   9.527
  178SOPE   O3220259   2.286   7.087   9.568
  178SOPE   C3220260   2.458   7.050   9.391
  178SOPE   H2X20261   2.563   7.085   9.391
  178SOPE   H2Y20262   2.408   7.106   9.312
  178SOPE   C2320263   2.689   6.657   9.378
  178SOPE   H3R20264   2.582   6.639   9.352
  178SOPE   H3S20265   2.732   6.557   9.403
  178SOPE   C2420266   2.752   6.680   9.248
  178SOPE   H4R20267   2.848   6.730   9.267
  178SOPE   H4S20268   2.768   6.578   9.216
  178SOPE   C2520269   2.652   6.744   9.155
  178SOPE   H5R20270   2.554   6.688   9.157
  178SOPE   H5S20271   2.640   6.845   9.197
  178SOPE   C2620272   2.696   6.751   9.011
  178SOPE   H6R20273   2.701   6.648   8.969
  178SOPE   H6S20274   2.619   6.808   8.955
  178SOPE   C2720275   2.827   6.826   8.992
  178SOPE   H7R20276   2.808   6.932   9.023
  178SOPE   H7S20277   2.906   6.786   9.059
  178SOPE   C2820278   2.868   6.826   8.844
  178SOPE   H8R20279   2.878   6.723   8.804
  178SOPE   H8S20280   2.786   6.877   8.789
  178SOPE   C2920281   2.996   6.904   8.839
  178SOPE   H9120282   3.013   6.962   8.931
  178SOPE  C21020283   3.086   6.919   8.741
  178SOPE  H10120284   3.173   6.983   8.761
  178SOPE  C21120285   3.087   6.861   8.601
  178SOPE  H11R20286   3.043   6.758   8.595
  178SOPE  H11S20287   3.191   6.857   8.564
  178SOPE  C21220288   3.004   6.955   8.513
  178SOPE  H12R20289   3.040   7.060   8.527
  178SOPE  H12S20290   2.899   6.952   8.549
  178SOPE  C21320291   3.003   6.916   8.365
  178SOPE  H13R20292   2.977   6.808   8.355
  178SOPE  H13S20293   3.103   6.935   8.320
  178SOPE  C21420294   2.902   6.994   8.283
  178SOPE  H14R20295   2.926   6.980   8.175
  178SOPE  H14S20296   2.914   7.102   8.310
  178SOPE  C21520297   2.759   6.946   8.295
  178SOPE  H15R20298   2.718   6.988   8.391
  178SOPE  H15S20299   2.743   6.838   8.295
  178SOPE  C21620300   2.676   6.975   8.169
  178SOPE  H16R20301   2.710   6.990   8.067
  178SOPE  H16S20302   2.663   7.073   8.199
  178SOPE  C21720303   2.535   6.979   8.183
  178SOPE  H17R20304   2.484   7.063   8.124
  178SOPE  H17S20305   2.530   6.987   8.296
  178SOPE  C21820306   2.464   6.860   8.162
  178SOPE  H18R20307   2.364   6.906   8.141
  178SOPE  H18S20308   2.469   6.805   8.259
  178SOPE  H18T20309   2.513   6.810   8.078
  178SOPE   C3320310   2.396   6.964   9.282
  178SOPE   H3X20311   2.287   6.962   9.306
  178SOPE   H3Y20312   2.471   6.889   9.306
  178SOPE   C3420313   2.404   7.007   9.136
  178SOPE   H4X20314   2.393   6.919   9.071
  178SOPE   H4Y20315   2.514   7.018   9.121
  178SOPE   C3520316   2.294   7.119   9.093
  178SOPE   H5X20317   2.278   7.212   9.148
  178SOPE   H5Y20318   2.205   7.075   9.045
  178SOPE   C3620319   2.330   7.175   8.964
  178SOPE   H6X20320   2.392   7.081   8.949
  178SOPE   H6Y20321   2.387   7.254   8.974
  178SOPE   C3720322   2.304   7.297   8.851
  178SOPE   H7X20323   2.319   7.390   8.887
  178SOPE   H7Y20324   2.201   7.259   8.850
  178SOPE   C3820325   2.389   7.345   8.702
  178SOPE   H8X20326   2.333   7.384   8.618
  178SOPE   H8Y20327   2.432   7.259   8.644
  178SOPE   C3920328   2.528   7.397   8.676
  178SOPE   H9X20329   2.617   7.352   8.718
  178SOPE   H9Y20330   2.521   7.500   8.697
  178SOPE  C31020331   2.592   7.340   8.558
  178SOPE  H10X20332   2.507   7.375   8.492
  178SOPE  H10Y20333   2.600   7.226   8.551
  178SOPE  C31120334   2.734   7.389   8.542
  178SOPE  H11X20335   2.796   7.318   8.600
  178SOPE  H11Y20336   2.727   7.491   8.584
  178SOPE  C31220337   2.800   7.399   8.406
  178SOPE  H12X20338   2.795   7.297   8.358
  178SOPE  H12Y20339   2.906   7.424   8.411
  178SOPE  C31320340   2.732   7.511   8.333
  178SOPE  H13X20341   2.725   7.618   8.356
  178SOPE  H13Y20342   2.634   7.477   8.366
  178SOPE  C31420343   2.746   7.506   8.180
  178SOPE  H14X20344   2.663   7.523   8.135
  178SOPE  H14Y20345   2.759   7.419   8.138
  178SOPE  C31520346   2.827   7.566   8.079
  178SOPE  H15X20347   2.841   7.571   8.182
  178SOPE  H15Y20348   2.803   7.673   8.059
  178SOPE  C31620349   2.960   7.479   8.012
  178SOPE  H16X20350   3.051   7.533   7.978
  178SOPE  H16Y20351   2.961   7.567   7.957
  178SOPE  C31720352   3.040   7.331   8.018
  178SOPE  H17X20353   3.111   7.309   7.934
  178SOPE  H17Y20354   2.997   7.232   8.001
  178SOPE  C31820355   3.123   7.283   8.117
  178SOPE  H18X20356   3.165   7.180   8.103
  178SOPE  H18Y20357   3.068   7.298   8.212
  178SOPE  H18Z20358   3.206   7.351   8.086
  179SOPE     N20359   4.017   3.547   5.670
  179SOPE   HN120360   3.963   3.600   5.598
  179SOPE   HN220361   4.083   3.607   5.722
  179SOPE   HN320362   4.071   3.469   5.626
  179SOPE   C1220363   3.924   3.489   5.771
  179SOPE  H12A20364   3.880   3.398   5.726
  179SOPE  H12B20365   3.847   3.567   5.792
  179SOPE   C1120366   3.990   3.445   5.902
  179SOPE  H11A20367   3.910   3.431   5.978
  179SOPE  H11B20368   4.060   3.524   5.941
  179SOPE     P20369   4.176   3.275   5.969
  179SOPE   O1320370   4.298   3.318   5.898
  179SOPE   O1420371   4.162   3.134   6.009
  179SOPE   O1220372   4.052   3.319   5.880
  179SOPE   O1120373   4.160   3.367   6.099
  179SOPE    C120374   4.161   3.301   6.226
  179SOPE    HA20375   4.248   3.231   6.232
  179SOPE    HB20376   4.067   3.241   6.233
  179SOPE    C220377   4.179   3.395   6.350
  179SOPE    HS20378   4.157   3.339   6.444
  179SOPE   O2120379   4.099   3.514   6.345
  179SOPE   C2120380   3.970   3.499   6.362
  179SOPE   O2220381   3.913   3.393   6.385
  179SOPE   C2220382   3.906   3.638   6.366
  179SOPE   H2R20383   3.825   3.642   6.290
  179SOPE   H2S20384   3.978   3.719   6.348
  179SOPE    C320385   4.326   3.442   6.358
  179SOPE    HX20386   4.338   3.513   6.273
  179SOPE    HY20387   4.399   3.359   6.342
  179SOPE   O3120388   4.354   3.509   6.482
  179SOPE   C3120389   4.363   3.433   6.591
  179SOPE   O3220390   4.360   3.312   6.596
  179SOPE   C3220391   4.391   3.513   6.714
  179SOPE   H2X20392   4.311   3.560   6.773
  179SOPE   H2Y20393   4.420   3.605   6.658
  179SOPE   C2320394   3.842   3.664   6.500
  179SOPE   H3R20395   3.782   3.573   6.516
  179SOPE   H3S20396   3.770   3.750   6.496
  179SOPE   C2420397   3.935   3.669   6.623
  179SOPE   H4R20398   3.882   3.682   6.717
  179SOPE   H4S20399   3.978   3.569   6.642
  179SOPE   C2520400   4.017   3.796   6.636
  179SOPE   H5R20401   4.081   3.807   6.547
  179SOPE   H5S20402   3.944   3.879   6.630
  179SOPE   C2620403   4.098   3.804   6.768
  179SOPE   H6R20404   4.173   3.725   6.770
  179SOPE   H6S20405   4.143   3.906   6.774
  179SOPE   C2720406   4.016   3.781   6.895
  179SOPE   H7R20407   3.937   3.842   6.858
  179SOPE   H7S20408   3.966   3.684   6.901
  179SOPE   C2820409   4.083   3.808   7.032
  179SOPE   H8R20410   4.159   3.727   7.040
  179SOPE   H8S20411   4.138   3.905   7.028
  179SOPE   C2920412   3.990   3.799   7.152
  179SOPE   H9120413   3.882   3.806   7.130
  179SOPE  C21020414   4.021   3.782   7.281
  179SOPE  H10120415   3.943   3.794   7.359
  179SOPE  C21120416   4.161   3.768   7.330
  179SOPE  H11R20417   4.175   3.837   7.415
  179SOPE  H11S20418   4.233   3.800   7.252
  179SOPE  C21220419   4.190   3.623   7.372
  179SOPE  H12R20420   4.295   3.615   7.409
  179SOPE  H12S20421   4.184   3.553   7.286
  179SOPE  C21320422   4.096   3.569   7.481
  179SOPE  H13R20423   4.122   3.462   7.495
  179SOPE  H13S20424   3.991   3.572   7.448
  179SOPE  C21420425   4.095   3.643   7.614
  179SOPE  H14R20426   4.021   3.594   7.681
  179SOPE  H14S20427   4.069   3.752   7.604
  179SOPE  C21520428   4.217   3.623   7.699
  179SOPE  H15R20429   4.304   3.622   7.634
  179SOPE  H15S20430   4.242   3.523   7.735
  179SOPE  C21620431   4.209   3.726   7.808
  179SOPE  H16R20432   4.194   3.832   7.777
  179SOPE  H16S20433   4.303   3.725   7.869
  179SOPE  C21720434   4.116   3.703   7.910
  179SOPE  H17R20435   4.142   3.598   7.941
  179SOPE  H17S20436   4.013   3.702   7.878
  179SOPE  C21820437   4.135   3.825   7.999
  179SOPE  H18R20438   4.084   3.796   8.088
  179SOPE  H18S20439   4.184   3.923   8.008
  179SOPE  H18T20440   4.246   3.825   8.007
  179SOPE   C3320441   4.492   3.423   6.798
  179SOPE   H3X20442   4.575   3.475   6.848
  179SOPE   H3Y20443   4.575   3.373   6.745
  179SOPE   C3420444   4.438   3.361   6.925
  179SOPE   H4X20445   4.384   3.271   6.903
  179SOPE   H4Y20446   4.370   3.436   6.977
  179SOPE   C3520447   4.558   3.327   7.014
  179SOPE   H5X20448   4.546   3.420   7.053
  179SOPE   H5Y20449   4.662   3.341   6.979
  179SOPE   C3620450   4.534   3.267   7.152
  179SOPE   H6X20451   4.622   3.283   7.218
  179SOPE   H6Y20452   4.521   3.164   7.118
  179SOPE   C3720453   4.408   3.316   7.226
  179SOPE   H7X20454   4.320   3.289   7.164
  179SOPE   H7Y20455   4.402   3.426   7.243
  179SOPE   C3820456   4.390   3.250   7.363
  179SOPE   H8X20457   4.381   3.141   7.352
  179SOPE   H8Y20458   4.297   3.293   7.407
  179SOPE   C3920459   4.502   3.276   7.461
  179SOPE   H9X20460   4.603   3.248   7.425
  179SOPE   H9Y20461   4.488   3.216   7.554
  179SOPE  C31020462   4.504   3.423   7.492
  179SOPE  H10X20463   4.417   3.438   7.564
  179SOPE  H10Y20464   4.487   3.501   7.419
  179SOPE  C31120465   4.652   3.445   7.536
  179SOPE  H11X20466   4.727   3.497   7.478
  179SOPE  H11Y20467   4.690   3.379   7.612
  179SOPE  C31220468   4.667   3.563   7.609
  179SOPE  H12X20469   4.559   3.540   7.648
  179SOPE  H12Y20470   4.566   3.615   7.602
  179SOPE  C31320471   4.813   3.583   7.725
  179SOPE  H13X20472   4.835   3.683   7.775
  179SOPE  H13Y20473   4.888   3.594   7.651
  179SOPE  C31420474   4.835   3.532   7.896
  179SOPE  H14X20475   4.919   3.574   7.954
  179SOPE  H14Y20476   4.795   3.429   7.918
  179SOPE  C31520477   4.751   3.566   8.031
  179SOPE  H15X20478   4.646   3.557   8.029
  179SOPE  H15Y20479   4.723   3.669   8.058
  179SOPE  C31620480   4.744   3.460   8.123
  179SOPE  H16X20481   4.670   3.495   8.184
  179SOPE  H16Y20482   4.833   3.488   8.172
  179SOPE  C31720483   4.662   3.335   8.121
  179SOPE  H17X20484   4.649   3.329   8.229
  179SOPE  H17Y20485   4.718   3.255   8.074
  179SOPE  C31820486   4.517   3.304   8.128
  179SOPE  H18X20487   4.536   3.201   8.141
  179SOPE  H18Y20488   4.447   3.322   8.044
  179SOPE  H18Z20489   4.461   3.349   8.217
  180SOPE     N20490   4.002   0.717   5.836
  180SOPE   HN120491   4.004   0.629   5.890
  180SOPE   HN220492   3.935   0.784   5.881
  180SOPE   HN320493   3.965   0.692   5.742
  180SOPE   C1220494   4.137   0.786   5.831
  180SOPE  H12A20495   4.164   0.802   5.725
  180SOPE  H12B20496   4.210   0.718   5.879
  180SOPE   C1120497   4.137   0.923   5.903
  180SOPE  H11A20498   4.237   0.971   5.900
  180SOPE  H11B20499   4.114   0.903   6.010
  180SOPE     P20500   3.928   1.079   5.920
  180SOPE   O1320501   3.845   0.963   5.959
  180SOPE   O1420502   3.869   1.188   5.842
  180SOPE   O1220503   4.047   1.013   5.838
  180SOPE   O1120504   4.000   1.135   6.048
  180SOPE    C120505   4.104   1.232   6.033
  180SOPE    HA20506   4.064   1.323   5.983
  180SOPE    HB20507   4.186   1.189   5.973
  180SOPE    C220508   4.159   1.280   6.169
  180SOPE    HS20509   4.240   1.356   6.153
  180SOPE   O2120510   4.210   1.176   6.253
  180SOPE   C2120511   4.322   1.125   6.206
  180SOPE   O2220512   4.389   1.171   6.115
  180SOPE   C2220513   4.352   0.994   6.274
  180SOPE   H2R20514   4.417   1.006   6.362
  180SOPE   H2S20515   4.404   0.924   6.206
  180SOPE    C320516   4.045   1.353   6.241
  180SOPE    HX20517   4.002   1.437   6.179
  180SOPE    HY20518   4.104   1.411   6.305
  180SOPE   O3120519   3.951   1.262   6.308
  180SOPE   C3120520   3.973   1.205   6.433
  180SOPE   O3220521   4.051   1.247   6.514
  180SOPE   C3220522   3.857   1.097   6.473
  180SOPE   H2X20523   3.854   1.004   6.423
  180SOPE   H2Y20524   3.792   1.126   6.388
  180SOPE   C2320525   4.222   0.937   6.324
  180SOPE   H3R20526   4.158   0.897   6.242
  180SOPE   H3S20527   4.163   1.005   6.389
  180SOPE   C2420528   4.257   0.828   6.415
  180SOPE   H4R20529   4.300   0.752   6.350
  180SOPE   H4S20530   4.305   0.843   6.515
  180SOPE   C2520531   4.152   0.764   6.472
  180SOPE   H5R20532   4.080   0.823   6.414
  180SOPE   H5S20533   4.147   0.660   6.427
  180SOPE   C2620534   4.120   0.808   6.618
  180SOPE   H6R20535   4.097   0.913   6.627
  180SOPE   H6S20536   4.019   0.794   6.646
  180SOPE   C2720537   4.182   0.737   6.736
  180SOPE   H7R20538   4.170   0.627   6.708
  180SOPE   H7S20539   4.285   0.767   6.740
  180SOPE   C2820540   4.133   0.790   6.877
  180SOPE   H8R20541   4.091   0.883   6.918
  180SOPE   H8S20542   4.026   0.824   6.850
  180SOPE   C2920543   4.171   0.684   6.986
  180SOPE   H9120544   4.187   0.579   6.952
  180SOPE  C21020545   4.131   0.685   7.115
  180SOPE  H10120546   4.161   0.597   7.178
  180SOPE  C21120547   4.039   0.790   7.178
  180SOPE  H11R20548   3.969   0.854   7.119
  180SOPE  H11S20549   4.105   0.864   7.223
  180SOPE  C21220550   3.923   0.745   7.265
  180SOPE  H12R20551   3.878   0.641   7.249
  180SOPE  H12S20552   3.845   0.819   7.291
  180SOPE  C21320553   3.973   0.718   7.383
  180SOPE  H13R20554   4.052   0.647   7.344
  180SOPE  H13S20555   3.885   0.669   7.431
  180SOPE  C21420556   4.005   0.837   7.461
  180SOPE  H14R20557   4.064   0.907   7.405
  180SOPE  H14S20558   4.090   0.834   7.524
  180SOPE  C21520559   3.909   0.835   7.578
  180SOPE  H15R20560   3.872   0.734   7.601
  180SOPE  H15S20561   3.832   0.889   7.525
  180SOPE  C21620562   3.962   0.886   7.713
  180SOPE  H16R20563   3.876   0.930   7.765
  180SOPE  H16S20564   4.024   0.970   7.676
  180SOPE  C21720565   4.036   0.783   7.811
  180SOPE  H17R20566   4.137   0.816   7.845
  180SOPE  H17S20567   4.048   0.682   7.771
  180SOPE  C21820568   3.990   0.751   7.948
  180SOPE  H18R20569   3.884   0.723   7.940
  180SOPE  H18S20570   4.013   0.839   8.012
  180SOPE  H18T20571   4.054   0.663   7.979
  180SOPE   C3320572   3.783   1.075   6.620
  180SOPE   H3X20573   3.673   1.066   6.623
  180SOPE   H3Y20574   3.773   1.147   6.702
  180SOPE   C3420575   3.868   1.010   6.720
  180SOPE   H4X20576   3.969   1.055   6.698
  180SOPE   H4Y20577   3.847   0.912   6.675
  180SOPE   C3520578   3.830   1.039   6.869
  180SOPE   H5X20579   3.900   1.115   6.910
  180SOPE   H5Y20580   3.853   0.947   6.924
  180SOPE   C3620581   3.686   1.086   6.907
  180SOPE   H6X20582   3.609   1.056   6.832
  180SOPE   H6Y20583   3.682   1.197   6.914
  180SOPE   C3720584   3.647   1.031   7.042
  180SOPE   H7X20585   3.664   0.922   7.042
  180SOPE   H7Y20586   3.539   1.053   7.061
  180SOPE   C3820587   3.732   1.090   7.151
  180SOPE   H8X20588   3.730   1.199   7.134
  180SOPE   H8Y20589   3.839   1.064   7.144
  180SOPE   C3920590   3.680   1.044   7.286
  180SOPE   H9X20591   3.700   0.939   7.303
  180SOPE   H9Y20592   3.570   1.057   7.296
  180SOPE  C31020593   3.756   1.102   7.399
  180SOPE  H10X20594   3.786   1.202   7.357
  180SOPE  H10Y20595   3.854   1.067   7.429
  180SOPE  C31120596   3.661   1.096   7.520
  180SOPE  H11X20597   3.575   1.153   7.498
  180SOPE  H11Y20598   3.701   1.136   7.607
  180SOPE  C31220599   3.620   0.985   7.595
  180SOPE  H12X20600   3.715   0.953   7.642
  180SOPE  H12Y20601   3.567   0.931   7.515
  180SOPE  C31320602   3.552   0.987   7.728
  180SOPE  H13X20603   3.450   1.003   7.712
  180SOPE  H13Y20604   3.580   1.056   7.808
  180SOPE  C31420605   3.501   0.868   7.778
  180SOPE  H14X20606   3.468   0.821   7.686
  180SOPE  H14Y20607   3.397   0.858   7.803
  180SOPE  C31520608   3.583   0.835   7.898
  180SOPE  H15X20609   3.684   0.842   7.855
  180SOPE  H15Y20610   3.549   0.734   7.914
  180SOPE  C31620611   3.576   0.926   8.026
  180SOPE  H16X20612   3.484   0.927   8.087
  180SOPE  H16Y20613   3.589   1.034   8.004
  180SOPE  C31720614   3.646   0.872   8.146
  180SOPE  H17X20615   3.632   0.953   8.222
  180SOPE  H17Y20616   3.751   0.860   8.113
  180SOPE  C31820617   3.585   0.743   8.204
  180SOPE  H18X20618   3.475   0.747   8.218
  180SOPE  H18Y20619   3.627   0.726   8.304
  180SOPE  H18Z20620   3.608   0.655   8.139
  181SOPE     N20621   3.298   0.314   6.000
  181SOPE   HN120622   3.287   0.213   5.983
  181SOPE   HN220623   3.380   0.351   5.945
  181SOPE   HN320624   3.318   0.329   6.101
  181SOPE   C1220625   3.167   0.378   5.958
  181SOPE  H12A20626   3.086   0.338   6.021
  181SOPE  H12B20627   3.150   0.345   5.854
  181SOPE   C1120628   3.167   0.531   5.958
  181SOPE  H11A20629   3.201   0.577   6.054
  181SOPE  H11B20630   3.062   0.565   5.942
  181SOPE     P20631   3.390   0.617   5.847
  181SOPE   O1320632   3.407   0.724   5.749
  181SOPE   O1420633   3.472   0.496   5.840
  181SOPE   O1220634   3.240   0.574   5.846
  181SOPE   O1120635   3.403   0.674   5.991
  181SOPE    C120636   3.487   0.784   6.021
  181SOPE    HA20637   3.505   0.858   5.941
  181SOPE    HB20638   3.586   0.752   6.034
  181SOPE    C220639   3.432   0.848   6.146
  181SOPE    HS20640   3.499   0.935   6.170
  181SOPE   O2120641   3.412   0.754   6.252
  181SOPE   C2120642   3.500   0.763   6.341
  181SOPE   O2220643   3.604   0.827   6.327
  181SOPE   C2220644   3.455   0.661   6.451
  181SOPE   H2R20645   3.519   0.574   6.479
  181SOPE   H2S20646   3.360   0.611   6.425
  181SOPE    C320647   3.295   0.901   6.116
  181SOPE    HX20648   3.230   0.831   6.061
  181SOPE    HY20649   3.273   0.967   6.041
  181SOPE   O3120650   3.242   0.967   6.224
  181SOPE   C3120651   3.178   0.865   6.276
  181SOPE   O3220652   3.162   0.751   6.241
  181SOPE   C3220653   3.141   0.900   6.391
  181SOPE   H2X20654   3.071   0.979   6.390
  181SOPE   H2Y20655   3.231   0.950   6.433
  181SOPE   C2320656   3.478   0.706   6.586
  181SOPE   H3R20657   3.420   0.798   6.577
  181SOPE   H3S20658   3.588   0.720   6.596
  181SOPE   C2420659   3.425   0.598   6.679
  181SOPE   H4R20660   3.325   0.563   6.648
  181SOPE   H4S20661   3.500   0.513   6.681
  181SOPE   C2520662   3.433   0.643   6.818
  181SOPE   H5R20663   3.541   0.638   6.812
  181SOPE   H5S20664   3.410   0.748   6.826
  181SOPE   C2620665   3.365   0.558   6.926
  181SOPE   H6R20666   3.405   0.568   7.027
  181SOPE   H6S20667   3.259   0.576   6.928
  181SOPE   C2720668   3.383   0.412   6.915
  181SOPE   H7R20669   3.354   0.385   6.812
  181SOPE   H7S20670   3.489   0.410   6.940
  181SOPE   C2820671   3.320   0.321   7.018
  181SOPE   H8R20672   3.217   0.353   7.026
  181SOPE   H8S20673   3.323   0.217   6.979
  181SOPE   C2920674   3.399   0.333   7.145
  181SOPE   H9120675   3.497   0.373   7.126
  181SOPE  C21020676   3.368   0.308   7.270
  181SOPE  H10120677   3.445   0.317   7.349
  181SOPE  C21120678   3.233   0.259   7.303
  181SOPE  H11R20679   3.223   0.156   7.270
  181SOPE  H11S20680   3.163   0.330   7.250
  181SOPE  C21220681   3.193   0.266   7.448
  181SOPE  H12R20682   3.084   0.264   7.471
  181SOPE  H12S20683   3.214   0.369   7.438
  181SOPE  C21320684   3.283   0.202   7.554
  181SOPE  H13R20685   3.390   0.211   7.531
  181SOPE  H13S20686   3.251   0.097   7.557
  181SOPE  C21420687   3.275   0.260   7.695
  181SOPE  H14R20688   3.343   0.340   7.680
  181SOPE  H14S20689   3.326   0.212   7.780
  181SOPE  C21520690   3.137   0.285   7.745
  181SOPE  H15R20691   3.054   0.349   7.700
  181SOPE  H15S20692   3.147   0.323   7.849
  181SOPE  C21620693   3.095   0.162   7.714
  181SOPE  H16R20694   3.165   0.074   7.744
  181SOPE  H16S20695   3.055   0.148   7.614
  181SOPE  C21720696   2.967   0.174   7.767
  181SOPE  H17R20697   2.988   0.092   7.827
  181SOPE  H17S20698   2.979   0.055   7.782
  181SOPE  C21820699   2.823   0.293   7.803
  181SOPE  H18R20700   2.734   0.250   7.870
  181SOPE  H18S20701   2.747   0.312   7.724
  181SOPE  H18T20702   2.827   0.377   7.866
  181SOPE   C3320703   3.069   0.784   6.457
  181SOPE   H3X20704   3.134   0.724   6.522
  181SOPE   H3Y20705   2.959   0.801   6.433
  181SOPE   C3420706   3.050   0.780   6.609
  181SOPE   H4X20707   2.951   0.723   6.636
  181SOPE   H4Y20708   2.937   0.839   6.595
  181SOPE   C3520709   3.194   0.864   6.760
  181SOPE   H5X20710   3.215   0.983   6.772
  181SOPE   H5Y20711   3.284   0.835   6.741
  181SOPE   C3620712   3.170   0.919   6.922
  181SOPE   H6X20713   3.093   1.002   6.929
  181SOPE   H6Y20714   3.248   0.965   6.987
  181SOPE   C3720715   3.116   0.807   7.002
  181SOPE   H7X20716   3.126   0.709   6.963
  181SOPE   H7Y20717   3.027   0.756   6.975
  181SOPE   C3820718   3.056   0.837   7.119
  181SOPE   H8X20719   2.955   0.892   7.113
  181SOPE   H8Y20720   3.140   0.884   7.165
  181SOPE   C3920721   3.040   0.712   7.179
  181SOPE   H9X20722   2.952   0.665   7.144
  181SOPE   H9Y20723   3.038   0.764   7.274
  181SOPE  C31020724   3.129   0.621   7.233
  181SOPE  H10X20725   3.131   0.536   7.167
  181SOPE  H10Y20726   3.045   0.581   7.298
  181SOPE  C31120727   3.257   0.690   7.289
  181SOPE  H11X20728   3.309   0.741   7.206
  181SOPE  H11Y20729   3.311   0.605   7.324
  181SOPE  C31220730   3.259   0.808   7.392
  181SOPE  H12X20731   3.197   0.876   7.338
  181SOPE  H12Y20732   3.351   0.857   7.413
  181SOPE  C31320733   3.226   0.800   7.542
  181SOPE  H13X20734   3.266   0.721   7.583
  181SOPE  H13Y20735   3.147   0.772   7.494
  181SOPE  C31420736   3.173   0.884   7.657
  181SOPE  H14X20737   3.119   0.973   7.640
  181SOPE  H14Y20738   3.277   0.906   7.676
  181SOPE  C31520739   3.092   0.830   7.781
  181SOPE  H15X20740   3.074   0.894   7.865
  181SOPE  H15Y20741   3.190   0.820   7.814
  181SOPE  C31620742   3.021   0.696   7.813
  181SOPE  H16X20743   3.055   0.640   7.903
  181SOPE  H16Y20744   3.030   0.612   7.754
  181SOPE  C31720745   2.876   0.711   7.784
  181SOPE  H17X20746   2.880   0.783   7.714
  181SOPE  H17Y20747   2.808   0.785   7.819
  181SOPE  C31820748   2.793   0.592   7.782
  181SOPE  H18X20749   2.692   0.630   7.763
  181SOPE  H18Y20750   2.798   0.553   7.886
  181SOPE  H18Z20751   2.829   0.518   7.708
  182SOPE     N20752   4.628   0.907   5.671
  182SOPE   HN120753   4.731   0.913   5.677
  182SOPE   HN220754   4.611   0.868   5.576
  182SOPE   HN320755   4.591   1.005   5.678
  182SOPE   C1220756   4.575   0.816   5.778
  182SOPE  H12A20757   4.473   0.786   5.747
  182SOPE  H12B20758   4.571   0.873   5.873
  182SOPE   C1120759   4.665   0.694   5.798
  182SOPE  H11A20760   4.768   0.730   5.822
  182SOPE  H11B20761   4.673   0.634   5.706
  182SOPE     P20762   4.713   0.525   5.989
  182SOPE   O1320763   4.811   0.616   6.054
  182SOPE   O1420764   4.766   0.419   5.900
  182SOPE   O1220765   4.612   0.613   5.903
  182SOPE   O1120766   4.617   0.461   6.097
  182SOPE    C120767   4.484   0.429   6.058
  182SOPE    HA20768   4.484   0.366   5.966
  182SOPE    HB20769   4.423   0.519   6.039
  182SOPE    C220770   4.421   0.350   6.171
  182SOPE    HS20771   4.315   0.327   6.147
  182SOPE   O2120772   4.431   0.396   6.307
  182SOPE   C2120773   4.384   0.516   6.322
  182SOPE   O2220774   4.309   0.570   6.241
  182SOPE   C2220775   4.426   0.569   6.458
  182SOPE   H2R20776   4.497   0.498   6.507
  182SOPE   H2S20777   4.340   0.580   6.528
  182SOPE    C320778   4.497   0.222   6.165
  182SOPE    HX20779   4.486   0.169   6.071
  182SOPE    HY20780   4.417   0.172   6.209
  182SOPE   O3120781   4.619   0.209   6.244
  182SOPE   C3120782   4.745   0.225   6.200
  182SOPE   O3220783   4.788   0.221   6.088
  182SOPE   C3220784   4.841   0.249   6.308
  182SOPE   H2X20785   4.830   0.356   6.328
  182SOPE   H2Y20786   4.942   0.229   6.266
  182SOPE   C2320787   4.508   0.697   6.445
  182SOPE   H3R20788   4.465   0.795   6.453
  182SOPE   H3S20789   4.556   0.719   6.349
  182SOPE   C2420790   4.591   0.699   6.564
  182SOPE   H4R20791   4.544   0.652   6.654
  182SOPE   H4S20792   4.692   0.663   6.537
  182SOPE   C2520793   4.597   0.833   6.607
  182SOPE   H5R20794   4.653   0.889   6.526
  182SOPE   H5S20795   4.498   0.887   6.628
  182SOPE   C2620796   4.662   0.809   6.738
  182SOPE   H6R20797   4.770   0.789   6.743
  182SOPE   H6S20798   4.654   0.907   6.713
  182SOPE   C2720799   4.572   0.828   6.857
  182SOPE   H7R20800   4.511   0.923   6.857
  182SOPE   H7S20801   4.527   0.730   6.867
  182SOPE   C2820802   4.640   0.840   6.983
  182SOPE   H8R20803   4.721   0.763   6.966
  182SOPE   H8S20804   4.684   0.938   6.987
  182SOPE   C2920805   4.566   0.812   7.109
  182SOPE   H9120806   4.591   0.708   7.129
  182SOPE  C21020807   4.519   0.888   7.211
  182SOPE  H10120808   4.505   0.834   7.304
  182SOPE  C21120809   4.522   1.036   7.244
  182SOPE  H11R20810   4.430   1.089   7.272
  182SOPE  H11S20811   4.566   1.104   7.166
  182SOPE  C21220812   4.597   1.066   7.374
  182SOPE  H12R20813   4.594   1.175   7.373
  182SOPE  H12S20814   4.676   1.097   7.324
  182SOPE  C21320815   4.636   0.973   7.504
  182SOPE  H13R20816   4.647   0.867   7.481
  182SOPE  H13S20817   4.543   0.987   7.554
  182SOPE  C21420818   4.756   0.978   7.615
  182SOPE  H14R20819   4.780   1.074   7.665
  182SOPE  H14S20820   4.847   0.933   7.586
  182SOPE  C21520821   4.746   0.909   7.750
  182SOPE  H15R20822   4.746   0.806   7.715
  182SOPE  H15S20823   4.667   0.940   7.818
  182SOPE  C21620824   4.856   0.944   7.842
  182SOPE  H16R20825   4.855   1.053   7.869
  182SOPE  H16S20826   4.942   0.906   7.785
  182SOPE  C21720827   4.872   0.860   7.959
  182SOPE  H17R20828   4.974   0.876   8.002
  182SOPE  H17S20829   4.859   0.758   7.917
  182SOPE  C21820830   4.768   0.896   8.057
  182SOPE  H18R20831   4.786   0.832   8.145
  182SOPE  H18S20832   4.666   0.880   8.016
  182SOPE  H18T20833   4.776   1.004   8.084
  182SOPE   C3320834   4.824   0.153   6.423
  182SOPE   H3X20835   4.867   0.055   6.394
  182SOPE   H3Y20836   4.717   0.136   6.440
  182SOPE   C3420837   4.886   0.217   6.547
  182SOPE   H4X20838   4.992   0.242   6.523
  182SOPE   H4Y20839   4.883   0.138   6.624
  182SOPE   C3520840   4.806   0.341   6.594
  182SOPE   H5X20841   4.702   0.324   6.558
  182SOPE   H5Y20842   4.842   0.433   6.543
  182SOPE   C3620843   4.790   0.364   6.747
  182SOPE   H6X20844   4.736   0.279   6.792
  182SOPE   H6Y20845   4.720   0.452   6.755
  182SOPE   C3720846   4.916   0.401   6.828
  182SOPE   H7X20847   4.966   0.485   6.774
  182SOPE   H7Y20848   4.989   0.318   6.835
  182SOPE   C3820849   4.890   0.451   6.972
  182SOPE   H8X20850   4.814   0.532   6.977
  182SOPE   H8Y20851   4.988   0.495   7.003
  182SOPE   C3920852   4.858   0.344   7.077
  182SOPE   H9X20853   4.931   0.261   7.061
  182SOPE   H9Y20854   4.756   0.300   7.065
  182SOPE  C31020855   4.881   0.399   7.220
  182SOPE  H10X20856   4.968   0.468   7.212
  182SOPE  H10Y20857   4.911   0.315   7.286
  182SOPE  C31120858   4.766   0.480   7.283
  182SOPE  H11X20859   4.684   0.411   7.315
  182SOPE  H11Y20860   4.727   0.549   7.206
  182SOPE  C31220861   4.808   0.568   7.402
  182SOPE  H12X20862   4.714   0.603   7.451
  182SOPE  H12Y20863   4.862   0.659   7.370
  182SOPE  C31320864   4.894   0.497   7.506
  182SOPE  H13X20865   4.998   0.482   7.472
  182SOPE  H13Y20866   4.849   0.397   7.522
  182SOPE  C31420867   4.892   0.567   7.642
  182SOPE  H14X20868   4.791   0.611   7.660
  182SOPE  H14Y20869   4.966   0.650   7.650
  182SOPE  C31520870   4.908   0.464   7.752
  182SOPE  H15X20871   4.834   0.384   7.743
  182SOPE  H15Y20872   4.891   0.511   7.850
  182SOPE  C31620873   5.042   0.397   7.745
  182SOPE  H16X20874   5.092   0.403   7.645
  182SOPE  H16Y20875   5.037   0.289   7.771
  182SOPE  C31720876   5.128   0.473   7.842
  182SOPE  H17X20877   5.152   0.579   7.825
  182SOPE  H17Y20878   5.210   0.428   7.788
  182SOPE  C31820879   5.112   0.439   7.993
  182SOPE  H18X20880   5.173   0.507   8.057
  182SOPE  H18Y20881   5.145   0.335   8.018
  182SOPE  H18Z20882   5.006   0.449   8.020
  183SOPE     N20883   6.751   5.015   5.719
  183SOPE   HN120884   6.697   4.998   5.808
  183SOPE   HN220885   6.680   5.035   5.646
  183SOPE   HN320886   6.807   4.931   5.695
  183SOPE   C1220887   6.842   5.133   5.738
  183SOPE  H12A20888   6.877   5.166   5.638
  183SOPE  H12B20889   6.928   5.098   5.799
  183SOPE   C1120890   6.767   5.250   5.801
  183SOPE  H11A20891   6.678   5.277   5.739
  183SOPE  H11B20892   6.834   5.337   5.795
  183SOPE     P20893   6.586   5.209   5.985
  183SOPE   O1320894   6.527   5.130   5.874
  183SOPE   O1420895   6.525   5.336   6.024
  183SOPE   O1220896   6.739   5.226   5.939
  183SOPE   O1120897   6.602   5.117   6.112
  183SOPE    C120898   6.723   5.093   6.182
  183SOPE    HA20899   6.794   5.178   6.175
  183SOPE    HB20900   6.771   5.002   6.141
  183SOPE    C220901   6.700   5.063   6.333
  183SOPE    HS20902   6.686   4.953   6.340
  183SOPE   O2120903   6.591   5.138   6.392
  183SOPE   C2120904   6.513   5.069   6.474
  183SOPE   O2220905   6.524   4.951   6.501
  183SOPE   C2220906   6.415   5.164   6.541
  183SOPE   H2R20907   6.346   5.203   6.463
  183SOPE   H2S20908   6.467   5.249   6.588
  183SOPE    C320909   6.824   5.091   6.416
  183SOPE    HX20910   6.847   5.194   6.431
  183SOPE    HY20911   6.918   5.049   6.373
  183SOPE   O3120912   6.788   5.034   6.538
  183SOPE   C3120913   6.790   5.110   6.641
  183SOPE   O3220914   6.850   5.214   6.653
  183SOPE   C3220915   6.726   5.032   6.749
  183SOPE   H2X20916   6.808   4.966   6.739
  183SOPE   H2Y20917   6.649   4.960   6.733
  183SOPE   C2320918   6.330   5.086   6.641
  183SOPE   H3R20919   6.294   4.993   6.594
  183SOPE   H3S20920   6.244   5.153   6.666
  183SOPE   C2420921   6.394   5.049   6.774
  183SOPE   H4R20922   6.453   4.955   6.765
  183SOPE   H4S20923   6.461   5.132   6.803
  183SOPE   C2520924   6.284   5.037   6.879
  183SOPE   H5R20925   6.226   5.132   6.879
  183SOPE   H5S20926   6.214   4.954   6.855
  183SOPE   C2620927   6.337   5.010   7.019
  183SOPE   H6R20928   6.393   5.099   7.054
  183SOPE   H6S20929   6.248   4.991   7.083
  183SOPE   C2720930   6.421   4.883   7.027
  183SOPE   H7R20931   6.358   4.799   6.993
  183SOPE   H7S20932   6.507   4.893   6.957
  183SOPE   C2820933   6.464   4.849   7.168
  183SOPE   H8R20934   6.384   4.869   7.243
  183SOPE   H8S20935   6.502   4.746   7.178
  183SOPE   C2920936   6.578   4.931   7.200
  183SOPE   H9120937   6.673   4.915   7.144
  183SOPE  C21020938   6.585   5.000   7.309
  183SOPE  H10120939   6.678   5.043   7.290
  183SOPE  C21120940   6.506   5.033   7.436
  183SOPE  H11R20941   6.403   5.003   7.413
  183SOPE  H11S20942   6.504   5.142   7.461
  183SOPE  C21220943   6.538   4.951   7.567
  183SOPE  H12R20944   6.546   4.844   7.542
  183SOPE  H12S20945   6.469   4.976   7.649
  183SOPE  C21320946   6.659   4.977   7.651
  183SOPE  H13R20947   6.732   4.923   7.587
  183SOPE  H13S20948   6.698   4.903   7.721
  183SOPE  C21420949   6.661   5.128   7.697
  183SOPE  H14R20950   6.600   5.127   7.788
  183SOPE  H14S20951   6.643   5.213   7.627
  183SOPE  C21520952   6.755   5.198   7.787
  183SOPE  H15R20953   6.837   5.234   7.743
  183SOPE  H15S20954   6.813   5.133   7.854
  183SOPE  C21620955   6.764   5.343   7.763
  183SOPE  H16R20956   6.820   5.388   7.673
  183SOPE  H16S20957   6.841   5.391   7.803
  183SOPE  C21720958   6.716   5.371   7.903
  183SOPE  H17R20959   6.617   5.369   7.864
  183SOPE  H17S20960   6.761   5.466   7.945
  183SOPE  C21820961   6.714   5.259   8.015
  183SOPE  H18R20962   6.646   5.301   8.085
  183SOPE  H18S20963   6.802   5.242   8.075
  183SOPE  H18T20964   6.703   5.151   7.999
  183SOPE   C3320965   6.712   5.095   6.883
  183SOPE   H3X20966   6.665   5.047   6.970
  183SOPE   H3Y20967   6.715   5.205   6.885
  183SOPE   C3420968   6.831   5.089   6.938
  183SOPE   H4X20969   6.903   5.056   6.856
  183SOPE   H4Y20970   6.885   4.985   6.948
  183SOPE   C3520971   6.855   5.244   7.049
  183SOPE   H5X20972   6.966   5.264   7.107
  183SOPE   H5Y20973   6.782   5.213   7.108
  183SOPE   C3620974   6.897   5.390   7.067
  183SOPE   H6X20975   6.804   5.414   7.023
  183SOPE   H6Y20976   6.989   5.423   7.018
  183SOPE   C3720977   6.938   5.448   7.207
  183SOPE   H7X20978   6.945   5.552   7.174
  183SOPE   H7Y20979   7.039   5.410   7.244
  183SOPE   C3820980   6.835   5.458   7.316
  183SOPE   H8X20981   6.862   5.501   7.413
  183SOPE   H8Y20982   6.873   5.392   7.391
  183SOPE   C3920983   6.690   5.421   7.272
  183SOPE   H9X20984   6.628   5.367   7.347
  183SOPE   H9Y20985   6.676   5.354   7.183
  183SOPE  C31020986   6.627   5.548   7.243
  183SOPE  H10X20987   6.525   5.527   7.206
  183SOPE  H10Y20988   6.690   5.593   7.162
  183SOPE  C31120989   6.635   5.623   7.376
  183SOPE  H11X20990   6.610   5.725   7.353
  183SOPE  H11Y20991   6.723   5.618   7.441
  183SOPE  C31220992   6.519   5.603   7.465
  183SOPE  H12X20993   6.498   5.497   7.485
  183SOPE  H12Y20994   6.451   5.641   7.383
  183SOPE  C31320995   6.519   5.696   7.591
  183SOPE  H13X20996   6.504   5.799   7.549
  183SOPE  H13Y20997   6.615   5.683   7.643
  183SOPE  C31420998   6.413   5.690   7.704
  183SOPE  H14X20999   6.320   5.710   7.662
  183SOPE  H14Y21000   6.396   5.785   7.757
  183SOPE  C31521001   6.394   5.565   7.790
  183SOPE  H15X21002   6.313   5.586   7.865
  183SOPE  H15Y21003   6.488   5.548   7.843
  183SOPE  C31621004   6.347   5.436   7.723
  183SOPE  H16X21005   6.425   5.386   7.661
  183SOPE  H16Y21006   6.253   5.447   7.666
  183SOPE  C31721007   6.299   5.339   7.824
  183SOPE  H17X21008   6.198   5.371   7.863
  183SOPE  H17Y21009   6.366   5.322   7.909
  183SOPE  C31821010   6.276   5.211   7.757
  183SOPE  H18X21011   6.199   5.229   7.685
  183SOPE  H18Y21012   6.225   5.165   7.842
  183SOPE  H18Z21013   6.346   5.143   7.707
  184SOPE     N21014   4.662   7.427   5.865
  184SOPE   HN121015   4.730   7.508   5.875
  184SOPE   HN221016   4.686   7.374   5.777
  184SOPE   HN321017   4.570   7.471   5.847
  184SOPE   C1221018   4.675   7.327   5.977
  184SOPE  H12A21019   4.636   7.373   6.065
  184SOPE  H12B21020   4.782   7.309   5.998
  184SOPE   C1121021   4.587   7.209   5.983
  184SOPE  H11A21022   4.480   7.240   5.989
  184SOPE  H11B21023   4.613   7.154   6.078
  184SOPE     P21024   4.684   7.003   5.868
  184SOPE   O1321025   4.804   7.001   5.953
  184SOPE   O1421026   4.696   6.961   5.728
  184SOPE   O1221027   4.614   7.143   5.864
  184SOPE   O1121028   4.578   6.922   5.939
  184SOPE    C121029   4.455   6.890   5.883
  184SOPE    HA21030   4.463   6.822   5.794
  184SOPE    HB21031   4.391   6.978   5.857
  184SOPE    C221032   4.388   6.817   5.994
  184SOPE    HS21033   4.292   6.809   5.974
  184SOPE   O2121034   4.400   6.887   6.116
  184SOPE   C2121035   4.296   6.891   6.191
  184SOPE   O2221036   4.183   6.853   6.169
  184SOPE   C2221037   4.328   6.963   6.313
  184SOPE   H2R21038   4.373   6.904   6.392
  184SOPE   H2S21039   4.229   6.944   6.352
  184SOPE    C321040   4.433   6.668   6.008
  184SOPE    HX21041   4.414   6.607   5.919
  184SOPE    HY21042   4.376   6.606   6.074
  184SOPE   O3121043   4.555   6.649   6.061
  184SOPE   C3121044   4.547   6.667   6.191
  184SOPE   O3221045   4.449   6.676   6.264
  184SOPE   C3221046   4.681   6.672   6.226
  184SOPE   H2X21047   4.745   6.692   6.137
  184SOPE   H2Y21048   4.689   6.579   6.284
  184SOPE   C2321049   4.381   7.110   6.288
  184SOPE   H3R21050   4.317   7.158   6.210
  184SOPE   H3S21051   4.479   7.090   6.240
  184SOPE   C2421052   4.400   7.204   6.414
  184SOPE   H4R21053   4.313   7.271   6.441
  184SOPE   H4S21054   4.421   7.152   6.507
  184SOPE   C2521055   4.466   7.333   6.402
  184SOPE   H5R21056   4.568   7.314   6.369
  184SOPE   H5S21057   4.400   7.355   6.318
  184SOPE   C2621058   4.437   7.434   6.516
  184SOPE   H6R21059   4.452   7.535   6.472
  184SOPE   H6S21060   4.332   7.437   6.554
  184SOPE   C2721061   4.532   7.413   6.634
  184SOPE   H7R21062   4.630   7.381   6.594
  184SOPE   H7S21063   4.548   7.512   6.682
  184SOPE   C2821064   4.497   7.302   6.736
  184SOPE   H8R21065   4.509   7.204   6.685
  184SOPE   H8S21066   4.574   7.300   6.817
  184SOPE   C2921067   4.362   7.307   6.800
  184SOPE   H9121068   4.293   7.232   6.772
  184SOPE  C21021069   4.312   7.375   6.901
  184SOPE  H10121070   4.208   7.351   6.928
  184SOPE  C21121071   4.383   7.471   6.987
  184SOPE  H11R21072   4.311   7.550   7.015
  184SOPE  H11S21073   4.467   7.518   6.931
  184SOPE  C21221074   4.438   7.396   7.108
  184SOPE  H12R21075   4.490   7.469   7.173
  184SOPE  H12S21076   4.513   7.320   7.074
  184SOPE  C21321077   4.333   7.325   7.193
  184SOPE  H13R21078   4.279   7.243   7.139
  184SOPE  H13S21079   4.255   7.397   7.227
  184SOPE  C21421080   4.400   7.268   7.317
  184SOPE  H14R21081   4.475   7.328   7.369
  184SOPE  H14S21082   4.455   7.177   7.284
  184SOPE  C21521083   4.296   7.248   7.424
  184SOPE  H15R21084   4.209   7.213   7.361
  184SOPE  H15S21085   4.243   7.327   7.477
  184SOPE  C21621086   4.343   7.152   7.534
  184SOPE  H16R21087   4.387   7.064   7.495
  184SOPE  H16S21088   4.240   7.128   7.537
  184SOPE  C21721089   4.437   7.177   7.659
  184SOPE  H17R21090   4.410   7.275   7.692
  184SOPE  H17S21091   4.521   7.186   7.585
  184SOPE  C21821092   4.472   7.093   7.799
  184SOPE  H18R21093   4.378   7.091   7.856
  184SOPE  H18S21094   4.578   7.083   7.832
  184SOPE  H18T21095   4.489   6.981   7.815
  184SOPE   C3321096   4.698   6.769   6.328
  184SOPE   H3X21097   4.787   6.773   6.386
  184SOPE   H3Y21098   4.636   6.736   6.402
  184SOPE   C3421099   4.702   6.905   6.290
  184SOPE   H4X21100   4.600   6.917   6.250
  184SOPE   H4Y21101   4.784   6.910   6.214
  184SOPE   C3521102   4.724   6.978   6.420
  184SOPE   H5X21103   4.655   6.938   6.499
  184SOPE   H5Y21104   4.697   7.081   6.393
  184SOPE   C3621105   4.866   6.985   6.477
  184SOPE   H6X21106   4.930   7.032   6.399
  184SOPE   H6Y21107   4.916   6.889   6.502
  184SOPE   C3721108   4.863   7.071   6.602
  184SOPE   H7X21109   4.791   7.032   6.676
  184SOPE   H7Y21110   4.839   7.177   6.574
  184SOPE   C3821111   4.994   7.065   6.672
  184SOPE   H8X21112   5.054   7.086   6.588
  184SOPE   H8Y21113   5.028   6.964   6.702
  184SOPE   C3921114   5.012   7.169   6.780
  184SOPE   H9X21115   5.004   7.274   6.743
  184SOPE   H9Y21116   5.116   7.151   6.814
  184SOPE  C31021117   4.918   7.126   6.888
  184SOPE  H10X21118   4.950   7.019   6.902
  184SOPE  H10Y21119   4.818   7.142   6.850
  184SOPE  C31121120   4.930   7.198   7.019
  184SOPE  H11X21121   4.933   7.308   7.008
  184SOPE  H11Y21122   5.031   7.159   7.024
  184SOPE  C31221123   4.854   7.144   7.143
  184SOPE  H12X21124   4.898   7.042   7.164
  184SOPE  H12Y21125   4.750   7.142   7.108
  184SOPE  C31321126   4.857   7.225   7.277
  184SOPE  H13X21127   4.868   7.334   7.265
  184SOPE  H13Y21128   4.948   7.199   7.325
  184SOPE  C31421129   4.803   7.164   7.408
  184SOPE  H14X21130   4.857   7.067   7.429
  184SOPE  H14Y21131   4.701   7.140   7.379
  184SOPE  C31521132   4.808   7.253   7.537
  184SOPE  H15X21133   4.899   7.275   7.595
  184SOPE  H15Y21134   4.758   7.188   7.610
  184SOPE  C31621135   4.768   7.399   7.518
  184SOPE  H16X21136   4.676   7.398   7.457
  184SOPE  H16Y21137   4.846   7.456   7.463
  184SOPE  C31721138   4.750   7.469   7.652
  184SOPE  H17X21139   4.720   7.574   7.630
  184SOPE  H17Y21140   4.846   7.471   7.710
  184SOPE  C31821141   4.641   7.406   7.736
  184SOPE  H18X21142   4.641   7.442   7.841
  184SOPE  H18Y21143   4.656   7.296   7.739
  184SOPE  H18Z21144   4.544   7.430   7.687
  185SAPI   C1221145   5.847   2.121  10.233
  185SAPI    H221146   5.910   2.097  10.143
  185SAPI    O221147   5.715   2.085  10.205
  185SAPI   HO221148   5.716   2.046  10.116
  185SAPI   C1321149   5.907   2.045  10.349
  185SAPI    H321150   6.014   2.071  10.358
  185SAPI    O321151   5.903   1.903  10.326
  185SAPI   HO321152   5.810   1.876  10.315
  185SAPI   C1421153   5.833   2.081  10.476
  185SAPI    H421154   5.727   2.049  10.468
  185SAPI    O421155   5.894   2.014  10.587
  185SAPI   HO421156   5.988   2.031  10.582
  185SAPI   C1521157   5.834   2.230  10.504
  185SAPI    H521158   5.941   2.263  10.513
  185SAPI    O521159   5.770   2.262  10.628
  185SAPI   HO521160   5.675   2.260  10.613
  185SAPI   C1621161   5.772   2.304  10.385
  185SAPI    H621162   5.666   2.270  10.374
  185SAPI    O621163   5.769   2.444  10.408
  185SAPI   HO621164   5.820   2.484  10.336
  185SAPI   C1121165   5.851   2.269  10.259
  185SAPI    H121166   5.959   2.294  10.276
  185SAPI     P21167   5.892   2.427  10.046
  185SAPI   O1321168   5.994   2.345   9.978
  185SAPI   O1421169   5.942   2.540  10.128
  185SAPI   O1221170   5.798   2.336  10.144
  185SAPI   O1121171   5.787   2.476   9.938
  185SAPI    C121172   5.664   2.528   9.990
  185SAPI    HA21173   5.596   2.445  10.021
  185SAPI    HB21174   5.683   2.594  10.079
  185SAPI    C221175   5.593   2.623   9.891
  185SAPI    HS21176   5.489   2.635   9.929
  185SAPI   O2121177   5.596   2.570   9.757
  185SAPI   C2121178   5.493   2.602   9.684
  185SAPI   O2221179   5.396   2.668   9.721
  185SAPI   C2221180   5.506   2.537   9.550
  185SAPI   H2R21181   5.605   2.498   9.523
  185SAPI   H2S21182   5.451   2.442   9.560
  185SAPI    C321183   5.661   2.763   9.894
  185SAPI    HX21184   5.650   2.807   9.995
  185SAPI    HY21185   5.603   2.827   9.824
  185SAPI   O3121186   5.802   2.753   9.867
  185SAPI   C3121187   5.841   2.794   9.749
  185SAPI   O3221188   5.773   2.857   9.669
  185SAPI   C3221189   5.982   2.747   9.717
  185SAPI   H2X21190   6.002   2.643   9.746
  185SAPI   H2Y21191   6.053   2.815   9.771
  185SAPI   C2321192   5.462   2.642   9.447
  185SAPI   H3R21193   5.538   2.723   9.441
  185SAPI   H3S21194   5.364   2.690   9.474
  185SAPI   C2421195   5.449   2.586   9.308
  185SAPI   H4R21196   5.364   2.650   9.272
  185SAPI   H4S21197   5.428   2.476   9.313
  185SAPI   C2521198   5.558   2.612   9.214
  185SAPI   H5R21199   5.654   2.613   9.262
  185SAPI   C2621200   5.549   2.650   9.087
  185SAPI   H6R21201   5.640   2.666   9.033
  185SAPI   C2721202   5.429   2.675   9.006
  185SAPI   H7R21203   5.371   2.770   9.023
  185SAPI   H7S21204   5.369   2.611   9.065
  185SAPI   C2821205   5.458   2.637   8.861
  185SAPI   H8R21206   5.423   2.722   8.798
  185SAPI   C2921207   5.493   2.521   8.794
  185SAPI   H9R21208   5.471   2.531   8.688
  185SAPI  C21021209   5.520   2.368   8.831
  185SAPI  H10R21210   5.429   2.381   8.900
  185SAPI  H10S21211   5.609   2.379   8.885
  185SAPI  C21121212   5.515   2.211   8.764
  185SAPI  H11R21213   5.422   2.151   8.730
  185SAPI  C21221214   5.593   2.135   8.705
  185SAPI  H12R21215   5.542   2.101   8.617
  185SAPI  C21321216   5.708   2.217   8.704
  185SAPI  H13R21217   5.734   2.214   8.812
  185SAPI  H13S21218   5.692   2.319   8.660
  185SAPI  C21421219   5.795   2.123   8.637
  185SAPI  H14R21220   5.825   2.045   8.707
  185SAPI  C21521221   5.847   2.133   8.517
  185SAPI  H15R21222   5.916   2.054   8.493
  185SAPI  C21621223   5.835   2.240   8.413
  185SAPI  H16R21224   5.938   2.250   8.376
  185SAPI  H16S21225   5.791   2.336   8.444
  185SAPI  C21721226   5.761   2.206   8.288
  185SAPI  H17R21227   5.792   2.101   8.258
  185SAPI  H17S21228   5.767   2.268   8.201
  185SAPI  C21821229   5.615   2.226   8.296
  185SAPI  H18R21230   5.620   2.135   8.338
  185SAPI  H18S21231   5.546   2.216   8.212
  185SAPI  C21921232   5.537   2.328   8.346
  185SAPI  H19R21233   5.564   2.330   8.453
  185SAPI  H19S21234   5.431   2.289   8.327
  185SAPI  C22021235   5.563   2.450   8.267
  185SAPI  H20R21236   5.570   2.426   8.158
  185SAPI  H20S21237   5.660   2.483   8.307
  185SAPI  H20T21238   5.481   2.522   8.285
  185SAPI   C3321239   6.003   2.757   9.566
  185SAPI   H3X21240   6.115   2.753   9.554
  185SAPI   H3Y21241   5.956   2.853   9.531
  185SAPI   C3421242   5.949   2.660   9.467
  185SAPI   H4X21243   5.842   2.685   9.452
  185SAPI   H4Y21244   5.965   2.563   9.518
  185SAPI   C3521245   6.027   2.668   9.335
  185SAPI   H5X21246   6.027   2.569   9.286
  185SAPI   H5Y21247   6.134   2.696   9.352
  185SAPI   C3621248   5.968   2.768   9.235
  185SAPI   H6X21249   5.960   2.866   9.284
  185SAPI   H6Y21250   5.863   2.741   9.211
  185SAPI   C3721251   6.053   2.783   9.108
  185SAPI   H7X21252   6.161   2.799   9.132
  185SAPI   H7Y21253   6.018   2.871   9.050
  185SAPI   C3821254   6.042   2.661   9.018
  185SAPI   H8X21255   5.943   2.612   9.034
  185SAPI   H8Y21256   6.123   2.590   9.048
  185SAPI   C3921257   6.053   2.694   8.869
  185SAPI   H9X21258   6.134   2.766   8.845
  185SAPI   H9Y21259   5.957   2.738   8.834
  185SAPI  C31021260   6.070   2.564   8.792
  185SAPI  H10X21261   5.982   2.502   8.824
  185SAPI  H10Y21262   6.162   2.509   8.823
  185SAPI  C31121263   6.059   2.581   8.642
  185SAPI  H11X21264   6.004   2.674   8.615
  185SAPI  H11Y21265   5.999   2.494   8.607
  185SAPI  C31221266   6.193   2.582   8.568
  185SAPI  H12X21267   6.242   2.483   8.586
  185SAPI  H12Y21268   6.257   2.664   8.604
  185SAPI  C31321269   6.169   2.600   8.419
  185SAPI  H13X21270   6.267   2.610   8.366
  185SAPI  H13Y21271   6.109   2.693   8.400
  185SAPI  C31421272   6.093   2.480   8.369
  185SAPI  H14X21273   5.996   2.461   8.417
  185SAPI  H14Y21274   6.159   2.390   8.378
  185SAPI  C31521275   6.041   2.499   8.231
  185SAPI  H15X21276   6.137   2.506   8.185
  185SAPI  H15Y21277   6.002   2.596   8.196
  185SAPI  C31621278   5.963   2.380   8.178
  185SAPI  H16X21279   5.866   2.410   8.137
  185SAPI  H16Y21280   5.970   2.266   8.195
  185SAPI  C31721281   6.034   2.349   8.064
  185SAPI  H17X21282   6.123   2.319   8.126
  185SAPI  H17Y21283   6.036   2.458   8.023
  185SAPI  C31821284   5.961   2.239   7.980
  185SAPI  H18X21285   5.855   2.246   7.967
  185SAPI  H18Y21286   5.997   2.169   7.898
  185SAPI  H18Z21287   5.980   2.323   7.917
  186SAPI   C1221288   5.932   0.338  10.425
  186SAPI    H221289   6.014   0.269  10.391
  186SAPI    O221290   5.822   0.256  10.467
  186SAPI   HO221291   5.838   0.170  10.429
  186SAPI   C1321292   5.983   0.415  10.544
  186SAPI    H321293   6.072   0.473  10.514
  186SAPI    O321294   6.023   0.325  10.647
  186SAPI   HO321295   5.971   0.244  10.632
  186SAPI   C1421296   5.879   0.516  10.590
  186SAPI    H421297   5.788   0.465  10.617
  186SAPI    O421298   5.921   0.588  10.705
  186SAPI   HO421299   5.994   0.643  10.679
  186SAPI   C1521300   5.842   0.610  10.479
  186SAPI    H521301   5.935   0.664  10.450
  186SAPI    O521302   5.745   0.705  10.523
  186SAPI   HO521303   5.788   0.785  10.549
  186SAPI   C1621304   5.792   0.533  10.358
  186SAPI    H621305   5.702   0.474  10.389
  186SAPI    O621306   5.756   0.623  10.254
  186SAPI   HO621307   5.831   0.677  10.225
  186SAPI   C1121308   5.896   0.434  10.313
  186SAPI    H121309   5.987   0.495  10.286
  186SAPI     P21310   5.935   0.356  10.065
  186SAPI   O1321311   6.060   0.284  10.097
  186SAPI   O1421312   5.941   0.494  10.013
  186SAPI   O1221313   5.846   0.357  10.203
  186SAPI   O1121314   5.841   0.267   9.973
  186SAPI    C121315   5.698   0.276   9.975
  186SAPI    HA21316   5.656   0.211  10.056
  186SAPI    HB21317   5.664   0.379   9.997
  186SAPI    C221318   5.642   0.240   9.834
  186SAPI    HS21319   5.675   0.135   9.812
  186SAPI   O2121320   5.692   0.336   9.739
  186SAPI   C2121321   5.774   0.292   9.645
  186SAPI   O2221322   5.807   0.177   9.624
  186SAPI   C2221323   5.821   0.409   9.560
  186SAPI   H2R21324   5.812   0.382   9.453
  186SAPI   H2S21325   5.760   0.499   9.578
  186SAPI    C321326   5.486   0.248   9.830
  186SAPI    HX21327   5.458   0.350   9.865
  186SAPI    HY21328   5.444   0.175   9.902
  186SAPI   O3121329   5.429   0.233   9.697
  186SAPI   C3121330   5.434   0.106   9.656
  186SAPI   O3221331   5.483   0.017   9.723
  186SAPI   C3221332   5.358   0.092   9.523
  186SAPI   H2X21333   5.262   0.043   9.546
  186SAPI   H2Y21334   5.404   0.023   9.454
  186SAPI   C2321335   5.968   0.441   9.589
  186SAPI   H3R21336   6.032   0.351   9.580
  186SAPI   H3S21337   5.981   0.480   9.693
  186SAPI   C2421338   6.012   0.554   9.497
  186SAPI   H4R21339   6.113   0.582   9.536
  186SAPI   H4S21340   5.949   0.639   9.519
  186SAPI   C2521341   6.005   0.520   9.349
  186SAPI   H5R21342   6.056   0.431   9.329
  186SAPI   C2621343   5.947   0.568   9.239
  186SAPI   H6R21344   5.970   0.532   9.137
  186SAPI   C2721345   5.862   0.683   9.240
  186SAPI   H7R21346   5.837   0.731   9.145
  186SAPI   H7S21347   5.939   0.752   9.269
  186SAPI   C2821348   5.741   0.652   9.327
  186SAPI   H8R21349   5.743   0.669   9.436
  186SAPI   C2921350   5.636   0.594   9.280
  186SAPI   H9R21351   5.553   0.577   9.349
  186SAPI  C21021352   5.627   0.553   9.138
  186SAPI  H10R21353   5.540   0.486   9.139
  186SAPI  H10S21354   5.718   0.494   9.117
  186SAPI  C21121355   5.622   0.648   9.023
  186SAPI  H11R21356   5.678   0.743   9.032
  186SAPI  C21221357   5.542   0.635   8.917
  186SAPI  H12R21358   5.538   0.722   8.850
  186SAPI  C21321359   5.438   0.533   8.882
  186SAPI  H13R21360   5.364   0.577   8.811
  186SAPI  H13S21361   5.379   0.504   8.972
  186SAPI  C21421362   5.499   0.411   8.820
  186SAPI  H14R21363   5.458   0.318   8.861
  186SAPI  C21521364   5.593   0.403   8.723
  186SAPI  H15R21365   5.630   0.304   8.696
  186SAPI  C21621366   5.664   0.515   8.649
  186SAPI  H16R21367   5.773   0.502   8.668
  186SAPI  H16S21368   5.637   0.616   8.687
  186SAPI  C21721369   5.645   0.513   8.495
  186SAPI  H17R21370   5.646   0.409   8.458
  186SAPI  H17S21371   5.732   0.565   8.449
  186SAPI  C21821372   5.519   0.586   8.445
  186SAPI  H18R21373   5.541   0.695   8.443
  186SAPI  H18S21374   5.436   0.568   8.516
  186SAPI  C21921375   5.469   0.537   8.309
  186SAPI  H19R21376   5.384   0.601   8.275
  186SAPI  H19S21377   5.434   0.432   8.316
  186SAPI  C22021378   5.579   0.533   8.205
  186SAPI  H20R21379   5.659   0.460   8.221
  186SAPI  H20S21380   5.633   0.629   8.216
  186SAPI  H20T21381   5.533   0.518   8.105
  186SAPI   C3321382   5.355   0.218   9.434
  186SAPI   H3X21383   5.305   0.303   9.485
  186SAPI   H3Y21384   5.296   0.191   9.343
  186SAPI   C3421385   5.490   0.256   9.378
  186SAPI   H4X21386   5.559   0.287   9.459
  186SAPI   H4Y21387   5.475   0.345   9.314
  186SAPI   C3521388   5.553   0.145   9.293
  186SAPI   H5X21389   5.478   0.092   9.231
  186SAPI   H5Y21390   5.602   0.068   9.357
  186SAPI   C3621391   5.655   0.210   9.202
  186SAPI   H6X21392   5.720   0.274   9.265
  186SAPI   H6Y21393   5.600   0.274   9.130
  186SAPI   C3721394   5.746   0.114   9.126
  186SAPI   H7X21395   5.683   0.042   9.069
  186SAPI   H7Y21396   5.806   0.054   9.197
  186SAPI   C3821397   5.838   0.200   9.039
  186SAPI   H8X21398   5.895   0.272   9.102
  186SAPI   H8Y21399   5.778   0.262   8.968
  186SAPI   C3921400   5.939   0.118   8.961
  186SAPI   H9X21401   5.880   0.050   8.898
  186SAPI   H9Y21402   6.006   0.063   9.031
  186SAPI  C31021403   6.020   0.204   8.867
  186SAPI  H10X21404   6.076   0.273   8.935
  186SAPI  H10Y21405   5.952   0.269   8.809
  186SAPI  C31121406   6.115   0.122   8.778
  186SAPI  H11X21407   6.175   0.054   8.843
  186SAPI  H11Y21408   6.184   0.190   8.721
  186SAPI  C31221409   6.065   0.031   8.677
  186SAPI  H12X21410   5.993  -0.036   8.723
  186SAPI  H12Y21411   6.146  -0.030   8.632
  186SAPI  C31321412   6.000   0.106   8.571
  186SAPI  H13X21413   6.055   0.183   8.513
  186SAPI  H13Y21414   5.905   0.151   8.612
  186SAPI  C31421415   5.974   0.000   8.477
  186SAPI  H14X21416   5.952  -0.098   8.535
  186SAPI  H14Y21417   6.053  -0.029   8.404
  186SAPI  C31521418   5.860   0.078   8.413
  186SAPI  H15X21419   5.772   0.097   8.476
  186SAPI  H15Y21420   5.846  -0.032   8.416
  186SAPI  C31621421   5.860   0.164   8.268
  186SAPI  H16X21422   5.951   0.138   8.212
  186SAPI  H16Y21423   5.896   0.262   8.300
  186SAPI  C31721424   5.744   0.171   8.138
  186SAPI  H17X21425   5.782   0.241   8.062
  186SAPI  H17Y21426   5.659   0.218   8.190
  186SAPI  C31821427   5.674   0.055   8.036
  186SAPI  H18X21428   5.688  -0.050   8.057
  186SAPI  H18Y21429   5.727  -0.009   7.963
  186SAPI  H18Z21430   5.572   0.058   8.000
  187SAPI   C1221431   0.732   2.002   5.556
  187SAPI    H221432   0.676   1.928   5.618
  187SAPI    O221433   0.858   1.947   5.519
  187SAPI   HO221434   0.888   1.890   5.590
  187SAPI   C1321435   0.651   2.026   5.431
  187SAPI    H321436   0.551   2.062   5.460
  187SAPI    O321437   0.632   1.903   5.361
  187SAPI   HO321438   0.716   1.855   5.369
  187SAPI   C1421439   0.719   2.134   5.346
  187SAPI    H421440   0.819   2.096   5.315
  187SAPI    O421441   0.648   2.158   5.225
  187SAPI   HO421442   0.578   2.223   5.238
  187SAPI   C1521443   0.737   2.261   5.426
  187SAPI    H521444   0.637   2.301   5.455
  187SAPI    O521445   0.797   2.364   5.348
  187SAPI   HO521446   0.871   2.325   5.300
  187SAPI   C1621447   0.819   2.232   5.551
  187SAPI    H621448   0.920   2.195   5.523
  187SAPI    O621449   0.844   2.350   5.623
  187SAPI   HO621450   0.904   2.406   5.577
  187SAPI   C1121451   0.748   2.129   5.637
  187SAPI    H121452   0.644   2.167   5.657
  187SAPI     P21453   0.761   2.160   5.903
  187SAPI   O1321454   0.619   2.120   5.914
  187SAPI   O1421455   0.800   2.303   5.908
  187SAPI   O1221456   0.812   2.092   5.760
  187SAPI   O1121457   0.850   2.077   6.005
  187SAPI    C121458   0.799   1.955   6.059
  187SAPI    HA21459   0.732   1.900   5.988
  187SAPI    HB21460   0.881   1.887   6.089
  187SAPI    C221461   0.721   1.983   6.186
  187SAPI    HS21462   0.638   2.051   6.156
  187SAPI   O2121463   0.800   2.043   6.287
  187SAPI   C2121464   0.808   2.171   6.293
  187SAPI   O2221465   0.763   2.256   6.220
  187SAPI   C2221466   0.896   2.192   6.413
  187SAPI   H2R21467   0.877   2.115   6.490
  187SAPI   H2S21468   1.004   2.191   6.385
  187SAPI    C321469   0.672   1.852   6.246
  187SAPI    HX21470   0.758   1.782   6.263
  187SAPI    HY21471   0.599   1.799   6.181
  187SAPI   O3121472   0.614   1.895   6.371
  187SAPI   C3121473   0.609   1.800   6.454
  187SAPI   O3221474   0.643   1.687   6.438
  187SAPI   C3221475   0.557   1.840   6.581
  187SAPI   H2X21476   0.484   1.769   6.611
  187SAPI   H2Y21477   0.517   1.941   6.568
  187SAPI   C2321478   0.864   2.320   6.475
  187SAPI   H3R21479   0.768   2.328   6.532
  187SAPI   H3S21480   0.876   2.399   6.397
  187SAPI   C2421481   0.970   2.347   6.572
  187SAPI   H4R21482   0.917   2.444   6.582
  187SAPI   H4S21483   1.069   2.375   6.527
  187SAPI   C2521484   0.983   2.247   6.689
  187SAPI   H5R21485   1.073   2.188   6.687
  187SAPI   C2621486   0.919   2.226   6.805
  187SAPI   H6R21487   0.965   2.212   6.905
  187SAPI   C2721488   0.816   2.291   6.861
  187SAPI   H7R21489   0.881   2.372   6.853
  187SAPI   H7S21490   0.844   2.332   6.954
  187SAPI   C2821491   0.673   2.289   6.839
  187SAPI   H8R21492   0.624   2.381   6.794
  187SAPI   C2921493   0.639   2.260   6.964
  187SAPI   H9R21494   0.544   2.216   6.958
  187SAPI  C21021495   0.712   2.237   7.099
  187SAPI  H10R21496   0.782   2.317   7.135
  187SAPI  H10S21497   0.773   2.152   7.075
  187SAPI  C21121498   0.626   2.217   7.219
  187SAPI  H11R21499   0.594   2.303   7.276
  187SAPI  C21221500   0.587   2.107   7.277
  187SAPI  H12R21501   0.490   2.112   7.331
  187SAPI  C21321502   0.631   1.979   7.226
  187SAPI  H13R21503   0.738   1.988   7.197
  187SAPI  H13S21504   0.575   1.940   7.137
  187SAPI  C21421505   0.604   1.910   7.357
  187SAPI  H14R21506   0.542   1.826   7.340
  187SAPI  C21521507   0.683   1.894   7.465
  187SAPI  H15R21508   0.658   1.809   7.529
  187SAPI  C21621509   0.824   1.944   7.475
  187SAPI  H16R21510   0.806   2.047   7.480
  187SAPI  H16S21511   0.898   1.931   7.391
  187SAPI  C21721512   0.902   1.917   7.599
  187SAPI  H17R21513   0.846   1.937   7.691
  187SAPI  H17S21514   1.005   1.962   7.591
  187SAPI  C21821515   0.930   1.781   7.626
  187SAPI  H18R21516   1.020   1.762   7.564
  187SAPI  H18S21517   0.852   1.706   7.608
  187SAPI  C21921518   0.972   1.764   7.766
  187SAPI  H19R21519   0.947   1.652   7.763
  187SAPI  H19S21520   0.916   1.764   7.858
  187SAPI  C22021521   1.115   1.834   7.785
  187SAPI  H20R21522   1.168   1.807   7.880
  187SAPI  H20S21523   1.139   1.928   7.738
  187SAPI  H20T21524   1.191   1.795   7.714
  187SAPI   C3321525   0.646   1.815   6.695
  187SAPI   H3X21526   0.661   1.705   6.711
  187SAPI   H3Y21527   0.594   1.855   6.785
  187SAPI   C3421528   0.761   1.898   6.653
  187SAPI   H4X21529   0.722   1.994   6.609
  187SAPI   H4Y21530   0.821   1.845   6.575
  187SAPI   C3521531   0.843   1.931   6.769
  187SAPI   H5X21532   0.787   1.995   6.841
  187SAPI   H5Y21533   0.932   1.985   6.731
  187SAPI   C3621534   0.889   1.811   6.844
  187SAPI   H6X21535   0.951   1.744   6.780
  187SAPI   H6Y21536   0.805   1.745   6.876
  187SAPI   C3721537   0.962   1.871   6.964
  187SAPI   H7X21538   1.009   1.784   7.002
  187SAPI   H7Y21539   0.893   1.910   7.041
  187SAPI   C3821540   1.069   1.977   6.945
  187SAPI   H8X21541   1.037   2.066   6.911
  187SAPI   H8Y21542   1.115   1.952   6.853
  187SAPI   C3921543   1.174   2.004   7.052
  187SAPI   H9X21544   1.268   2.049   7.013
  187SAPI   H9Y21545   1.210   1.909   7.088
  187SAPI  C31021546   1.114   2.045   7.181
  187SAPI  H10X21547   1.078   1.954   7.235
  187SAPI  H10Y21548   1.028   2.109   7.152
  187SAPI  C31121549   1.215   2.111   7.271
  187SAPI  H11X21550   1.237   2.196   7.217
  187SAPI  H11Y21551   1.320   2.079   7.270
  187SAPI  C31221552   1.169   2.148   7.408
  187SAPI  H12X21553   1.229   2.228   7.459
  187SAPI  H12Y21554   1.174   2.062   7.477
  187SAPI  C31321555   1.034   2.209   7.401
  187SAPI  H13X21556   0.957   2.143   7.357
  187SAPI  H13Y21557   1.037   2.297   7.331
  187SAPI  C31421558   0.998   2.235   7.545
  187SAPI  H14X21559   1.067   2.312   7.587
  187SAPI  H14Y21560   1.013   2.154   7.616
  187SAPI  C31521561   0.850   2.267   7.546
  187SAPI  H15X21562   0.792   2.219   7.466
  187SAPI  H15Y21563   0.819   2.360   7.494
  187SAPI  C31621564   0.789   2.230   7.684
  187SAPI  H16X21565   0.769   2.127   7.698
  187SAPI  H16Y21566   0.688   2.256   7.654
  187SAPI  C31721567   0.854   2.268   7.828
  187SAPI  H17X21568   0.920   2.339   7.776
  187SAPI  H17Y21569   0.952   2.226   7.844
  187SAPI  C31821570   0.770   2.309   7.979
  187SAPI  H18X21571   0.693   2.395   8.006
  187SAPI  H18Y21572   0.806   2.387   8.053
  187SAPI  H18Z21573   0.719   2.221   7.985
  188SAPI   C1221574   0.571   5.035   5.678
  188SAPI    H221575   0.590   4.968   5.763
  188SAPI    O221576   0.697   5.066   5.619
  188SAPI   HO221577   0.765   5.017   5.667
  188SAPI   C1321578   0.483   4.957   5.579
  188SAPI    H321579   0.389   4.924   5.627
  188SAPI    O321580   0.547   4.840   5.527
  188SAPI   HO321581   0.514   4.760   5.571
  188SAPI   C1421582   0.447   5.049   5.465
  188SAPI    H421583   0.539   5.089   5.427
  188SAPI    O421584   0.380   4.981   5.358
  188SAPI   HO421585   0.429   4.899   5.342
  188SAPI   C1521586   0.378   5.172   5.514
  188SAPI    H521587   0.289   5.138   5.572
  188SAPI    O521588   0.338   5.254   5.403
  188SAPI   HO521589   0.243   5.247   5.394
  188SAPI   C1621590   0.467   5.250   5.609
  188SAPI    H621591   0.563   5.279   5.558
  188SAPI    O621592   0.400   5.372   5.643
  188SAPI   HO621593   0.453   5.440   5.602
  188SAPI   C1121594   0.502   5.163   5.730
  188SAPI    H121595   0.405   5.132   5.776
  188SAPI     P21596   0.618   5.161   5.971
  188SAPI   O1321597   0.723   5.060   5.943
  188SAPI   O1421598   0.497   5.117   6.041
  188SAPI   O1221599   0.579   5.235   5.828
  188SAPI   O1121600   0.689   5.274   6.052
  188SAPI    C121601   0.817   5.323   6.012
  188SAPI    HA21602   0.895   5.248   6.040
  188SAPI    HB21603   0.823   5.338   5.902
  188SAPI    C221604   0.839   5.460   6.084
  188SAPI    HS21605   0.940   5.499   6.054
  188SAPI   O2121606   0.822   5.450   6.226
  188SAPI   C2121607   0.927   5.415   6.287
  188SAPI   O2221608   1.036   5.406   6.230
  188SAPI   C2221609   0.865   5.361   6.431
  188SAPI   H2R21610   0.816   5.449   6.470
  188SAPI   H2S21611   0.797   5.275   6.413
  188SAPI    C321612   0.739   5.568   6.046
  188SAPI    HX21613   0.743   5.580   5.936
  188SAPI    HY21614   0.767   5.665   6.093
  188SAPI   O3121615   0.606   5.527   6.081
  188SAPI   C3121616   0.557   5.562   6.198
  188SAPI   O3221617   0.603   5.647   6.273
  188SAPI   C3221618   0.422   5.494   6.211
  188SAPI   H2X21619   0.417   5.403   6.148
  188SAPI   H2Y21620   0.346   5.565   6.170
  188SAPI   C2321621   0.941   5.308   6.556
  188SAPI   H3R21622   1.018   5.381   6.572
  188SAPI   H3S21623   0.968   5.214   6.511
  188SAPI   C2421624   0.898   5.215   6.678
  188SAPI   H4R21625   0.866   5.119   6.632
  188SAPI   H4S21626   0.818   5.281   6.708
  188SAPI   C2521627   0.985   5.172   6.798
  188SAPI   H5R21628   1.073   5.103   6.782
  188SAPI   C2621629   1.004   5.249   6.904
  188SAPI   H6R21630   1.100   5.243   6.955
  188SAPI   C2721631   0.945   5.381   6.922
  188SAPI   H7R21632   0.974   5.409   7.026
  188SAPI   H7S21633   0.841   5.347   6.921
  188SAPI   C2821634   0.959   5.502   6.831
  188SAPI   H8R21635   1.039   5.515   6.760
  188SAPI   C2921636   0.873   5.602   6.828
  188SAPI   H9R21637   0.891   5.685   6.758
  188SAPI  C21021638   0.750   5.619   6.908
  188SAPI  H10R21639   0.714   5.712   6.865
  188SAPI  H10S21640   0.770   5.637   7.016
  188SAPI  C21121641   0.646   5.515   6.883
  188SAPI  H11R21642   0.622   5.495   6.777
  188SAPI  C21221643   0.578   5.452   6.979
  188SAPI  H12R21644   0.508   5.375   6.948
  188SAPI  C21321645   0.589   5.471   7.128
  188SAPI  H13R21646   0.496   5.430   7.173
  188SAPI  H13S21647   0.589   5.579   7.153
  188SAPI  C21421648   0.707   5.409   7.200
  188SAPI  H14R21649   0.787   5.368   7.136
  188SAPI  C21521650   0.721   5.409   7.333
  188SAPI  H15R21651   0.810   5.364   7.380
  188SAPI  C21621652   0.621   5.470   7.429
  188SAPI  H16R21653   0.550   5.538   7.376
  188SAPI  H16S21654   0.673   5.536   7.501
  188SAPI  C21721655   0.541   5.365   7.508
  188SAPI  H17R21656   0.505   5.281   7.444
  188SAPI  H17S21657   0.450   5.416   7.547
  188SAPI  C21821658   0.622   5.308   7.625
  188SAPI  H18R21659   0.675   5.394   7.674
  188SAPI  H18S21660   0.700   5.237   7.592
  188SAPI  C21921661   0.534   5.234   7.726
  188SAPI  H19R21662   0.483   5.143   7.694
  188SAPI  H19S21663   0.443   5.297   7.732
  188SAPI  C22021664   0.608   5.212   7.859
  188SAPI  H20R21665   0.668   5.121   7.867
  188SAPI  H20S21666   0.540   5.208   7.937
  188SAPI  H20T21667   0.664   5.299   7.898
  188SAPI   C3321668   0.389   5.458   6.358
  188SAPI   H3X21669   0.283   5.422   6.358
  188SAPI   H3Y21670   0.395   5.550   6.420
  188SAPI   C3421671   0.473   5.347   6.421
  188SAPI   H4X21672   0.581   5.374   6.424
  188SAPI   H4Y21673   0.463   5.253   6.360
  188SAPI   C3521674   0.425   5.317   6.565
  188SAPI   H5X21675   0.315   5.300   6.559
  188SAPI   H5Y21676   0.443   5.406   6.630
  188SAPI   C3621677   0.494   5.195   6.629
  188SAPI   H6X21678   0.603   5.214   6.644
  188SAPI   H6Y21679   0.481   5.109   6.560
  188SAPI   C3721680   0.437   5.160   6.767
  188SAPI   H7X21681   0.329   5.186   6.774
  188SAPI   H7Y21682   0.491   5.225   6.838
  188SAPI   C3821683   0.458   5.013   6.806
  188SAPI   H8X21684   0.560   4.977   6.788
  188SAPI   H8Y21685   0.389   4.952   6.742
  188SAPI   C3921686   0.439   4.983   6.954
  188SAPI   H9X21687   0.434   4.874   6.972
  188SAPI   H9Y21688   0.346   5.030   6.978
  188SAPI  C31021689   0.484   5.074   7.067
  188SAPI  H10X21690   0.453   5.026   7.163
  188SAPI  H10Y21691   0.433   5.173   7.060
  188SAPI  C31121692   0.629   5.097   7.066
  188SAPI  H11X21693   0.648   5.156   7.158
  188SAPI  H11Y21694   0.662   5.156   6.978
  188SAPI  C31221695   0.701   4.966   7.071
  188SAPI  H12X21696   0.694   4.922   6.971
  188SAPI  H12Y21697   0.647   4.893   7.134
  188SAPI  C31321698   0.837   4.992   7.130
  188SAPI  H13X21699   0.903   5.058   7.070
  188SAPI  H13Y21700   0.911   4.911   7.136
  188SAPI  C31421701   0.821   5.025   7.275
  188SAPI  H14X21702   0.798   5.134   7.277
  188SAPI  H14Y21703   0.920   4.984   7.307
  188SAPI  C31521704   0.731   4.977   7.385
  188SAPI  H15X21705   0.638   4.954   7.333
  188SAPI  H15Y21706   0.716   5.050   7.467
  188SAPI  C31621707   0.795   4.866   7.462
  188SAPI  H16X21708   0.907   4.855   7.452
  188SAPI  H16Y21709   0.738   4.798   7.397
  188SAPI  C31721710   0.736   4.806   7.586
  188SAPI  H17X21711   0.770   4.704   7.600
  188SAPI  H17Y21712   0.627   4.799   7.571
  188SAPI  C31821713   0.766   4.880   7.709
  188SAPI  H18X21714   0.763   4.987   7.678
  188SAPI  H18Y21715   0.863   4.852   7.754
  188SAPI  H18Z21716   0.695   4.854   7.788
  189POPC     N21717   4.167   6.466  10.020
  189POPC   C1221718   4.122   6.551   9.904
  189POPC  H12A21719   4.209   6.596   9.859
  189POPC  H12B21720   4.059   6.632   9.942
  189POPC   C1321721   4.231   6.339   9.972
  189POPC  H13A21722   4.272   6.283  10.054
  189POPC  H13B21723   4.158   6.279   9.919
  189POPC  H13C21724   4.312   6.362   9.904
  189POPC   C1421725   4.272   6.539  10.095
  189POPC  H14A21726   4.361   6.542  10.033
  189POPC  H14B21727   4.238   6.639  10.119
  189POPC  H14C21728   4.295   6.489  10.188
  189POPC   C1521729   4.047   6.439  10.106
  189POPC  H15A21730   3.998   6.534  10.130
  189POPC  H15B21731   4.070   6.387  10.198
  189POPC  H15C21732   3.972   6.386  10.047
  189POPC   C1121733   4.040   6.484   9.793
  189POPC  H11A21734   4.097   6.400   9.748
  189POPC  H11B21735   4.023   6.561   9.714
  189POPC     P21736   3.778   6.487   9.803
  189POPC   O1321737   3.777   6.632   9.836
  189POPC   O1421738   3.686   6.392   9.870
  189POPC   O1221739   3.919   6.430   9.843
  189POPC   O1121740   3.766   6.468   9.647
  189POPC    C121741   3.780   6.338   9.592
  189POPC    HA21742   3.703   6.324   9.513
  189POPC    HB21743   3.767   6.257   9.667
  189POPC    C221744   3.917   6.323   9.525
  189POPC    HS21745   3.984   6.280   9.605
  189POPC   O2121746   3.970   6.450   9.485
  189POPC   C2121747   4.098   6.459   9.464
  189POPC   O2221748   4.182   6.373   9.481
  189POPC   C2221749   4.125   6.598   9.409
  189POPC   H2R21750   4.195   6.651   9.477
  189POPC   H2S21751   4.029   6.654   9.407
  189POPC    C321752   3.905   6.231   9.400
  189POPC    HX21753   3.873   6.128   9.433
  189POPC    HY21754   4.008   6.239   9.364
  189POPC   O3121755   3.833   6.275   9.285
  189POPC   C3121756   3.858   6.199   9.175
  189POPC   O3221757   3.913   6.093   9.168
  189POPC   C3221758   3.795   6.249   9.053
  189POPC   H2X21759   3.869   6.308   8.996
  189POPC   H2Y21760   3.710   6.310   9.088
  189POPC   C2321761   4.179   6.586   9.265
  189POPC   H3R21762   4.248   6.499   9.252
  189POPC   H3S21763   4.238   6.679   9.248
  189POPC   C2421764   4.064   6.574   9.164
  189POPC   H4R21765   3.996   6.659   9.185
  189POPC   H4S21766   4.007   6.479   9.178
  189POPC   C2521767   4.102   6.575   9.015
  189POPC   H5R21768   4.009   6.570   8.956
  189POPC   H5S21769   4.160   6.484   8.991
  189POPC   C2621770   4.186   6.696   8.975
  189POPC   H6R21771   4.278   6.694   9.037
  189POPC   H6S21772   4.129   6.789   8.994
  189POPC   C2721773   4.225   6.701   8.826
  189POPC   H7R21774   4.264   6.604   8.790
  189POPC   H7S21775   4.308   6.775   8.822
  189POPC   C2821776   4.107   6.750   8.741
  189POPC   H8R21777   4.059   6.835   8.795
  189POPC   H8S21778   4.032   6.669   8.735
  189POPC   C2921779   4.144   6.796   8.602
  189POPC   H9121780   4.171   6.903   8.597
  189POPC  C21021781   4.135   6.724   8.489
  189POPC  H10121782   4.163   6.773   8.394
  189POPC  C21121783   4.086   6.582   8.473
  189POPC  H11R21784   4.121   6.517   8.556
  189POPC  H11S21785   4.129   6.538   8.381
  189POPC  C21221786   3.933   6.567   8.467
  189POPC  H12R21787   3.890   6.595   8.566
  189POPC  H12S21788   3.911   6.460   8.450
  189POPC  C21321789   3.861   6.647   8.358
  189POPC  H13R21790   3.897   6.613   8.259
  189POPC  H13S21791   3.889   6.755   8.367
  189POPC  C21421792   3.707   6.631   8.371
  189POPC  H14R21793   3.652   6.685   8.293
  189POPC  H14S21794   3.675   6.676   8.467
  189POPC  C21521795   3.652   6.489   8.364
  189POPC  H15R21796   3.545   6.489   8.395
  189POPC  H15S21797   3.707   6.426   8.437
  189POPC  C21621798   3.659   6.423   8.227
  189POPC  H16R21799   3.615   6.322   8.237
  189POPC  H16S21800   3.766   6.414   8.196
  189POPC  C21721801   3.597   6.497   8.110
  189POPC  H17R21802   3.649   6.595   8.106
  189POPC  H17S21803   3.488   6.519   8.116
  189POPC  C21821804   3.634   6.424   7.982
  189POPC  H18R21805   3.738   6.440   7.949
  189POPC  H18S21806   3.579   6.468   7.898
  189POPC  H18T21807   3.610   6.316   7.988
  189POPC   C3321808   3.756   6.122   8.973
  189POPC   H3X21809   3.701   6.046   9.034
  189POPC   H3Y21810   3.845   6.066   8.935
  189POPC   C3421811   3.666   6.155   8.856
  189POPC   H4X21812   3.572   6.199   8.896
  189POPC   H4Y21813   3.641   6.058   8.807
  189POPC   C3521814   3.731   6.254   8.758
  189POPC   H5X21815   3.735   6.353   8.808
  189POPC   H5Y21816   3.667   6.263   8.668
  189POPC   C3621817   3.873   6.226   8.709
  189POPC   H6X21818   3.954   6.223   8.786
  189POPC   H6Y21819   3.895   6.306   8.635
  189POPC   C3721820   3.876   6.094   8.641
  189POPC   H7X21821   3.788   6.090   8.574
  189POPC   H7Y21822   3.858   6.021   8.723
  189POPC   C3821823   4.004   6.074   8.561
  189POPC   H8X21824   4.041   5.975   8.529
  189POPC   H8Y21825   4.083   6.069   8.638
  189POPC   C3921826   4.003   6.176   8.444
  189POPC   H9X21827   4.035   6.271   8.490
  189POPC   H9Y21828   3.908   6.177   8.389
  189POPC  C31021829   4.094   6.162   8.326
  189POPC  H10X21830   4.075   6.066   8.273
  189POPC  H10Y21831   4.193   6.149   8.354
  189POPC  C31121832   4.150   6.285   8.254
  189POPC  H11X21833   4.247   6.272   8.197
  189POPC  H11Y21834   4.188   6.362   8.324
  189POPC  C31221835   4.047   6.311   8.152
  189POPC  H12X21836   3.949   6.302   8.202
  189POPC  H12Y21837   4.053   6.227   8.079
  189POPC  C31321838   4.065   6.448   8.094
  189POPC  H13X21839   4.074   6.520   8.178
  189POPC  H13Y21840   3.975   6.471   8.034
  189POPC  C31421841   4.192   6.452   8.009
  189POPC  H14X21842   4.174   6.383   7.924
  189POPC  H14Y21843   4.278   6.417   8.070
  189POPC  C31521844   4.233   6.587   7.952
  189POPC  H15X21845   4.322   6.567   7.888
  189POPC  H15Y21846   4.263   6.655   8.036
  189POPC  C31621847   4.125   6.653   7.868
  189POPC  H16X21848   4.075   6.576   7.804
  189POPC  H16Y21849   4.170   6.729   7.801
  189POPC  H16Z21850   4.050   6.702   7.934
  190POPC     N21851   6.721   2.828  10.054
  190POPC   C1221852   6.647   2.701  10.083
  190POPC  H12A21853   6.547   2.731  10.109
  190POPC  H12B21854   6.695   2.649  10.164
  190POPC   C1321855   6.656   2.901   9.940
  190POPC  H13A21856   6.654   2.834   9.852
  190POPC  H13B21857   6.554   2.926   9.963
  190POPC  H13C21858   6.708   2.991   9.910
  190POPC   C1421859   6.745   2.916  10.170
  190POPC  H14A21860   6.809   2.865  10.241
  190POPC  H14B21861   6.799   3.006  10.141
  190POPC  H14C21862   6.652   2.945  10.216
  190POPC   C1521863   6.854   2.787  10.021
  190POPC  H15A21864   6.916   2.738  10.093
  190POPC  H15B21865   6.910   2.875   9.985
  190POPC  H15C21866   6.853   2.722   9.931
  190POPC   C1121867   6.626   2.594   9.972
  190POPC  H11A21868   6.582   2.507  10.026
  190POPC  H11B21869   6.721   2.559   9.923
  190POPC     P21870   6.491   2.546   9.757
  190POPC   O1321871   6.399   2.622   9.668
  190POPC   O1421872   6.464   2.406   9.794
  190POPC   O1221873   6.529   2.640   9.880
  190POPC   O1121874   6.638   2.555   9.701
  190POPC    C121875   6.663   2.675   9.627
  190POPC    HA21876   6.760   2.679   9.661
  190POPC    HB21877   6.618   2.766   9.669
  190POPC    C221878   6.656   2.684   9.469
  190POPC    HS21879   6.550   2.678   9.437
  190POPC   O2121880   6.724   2.579   9.405
  190POPC   C2121881   6.681   2.470   9.450
  190POPC   O2221882   6.575   2.453   9.502
  190POPC   C2221883   6.775   2.366   9.408
  190POPC   H2R21884   6.788   2.273   9.473
  190POPC   H2S21885   6.836   2.406   9.330
  190POPC    C321886   6.710   2.815   9.405
  190POPC    HX21887   6.801   2.851   9.444
  190POPC    HY21888   6.653   2.902   9.435
  190POPC   O3121889   6.741   2.804   9.265
  190POPC   C3121890   6.630   2.810   9.200
  190POPC   O3221891   6.519   2.821   9.249
  190POPC   C3221892   6.661   2.815   9.053
  190POPC   H2X21893   6.614   2.733   8.998
  190POPC   H2Y21894   6.771   2.808   9.041
  190POPC   C2321895   6.730   2.299   9.286
  190POPC   H3R21896   6.635   2.282   9.346
  190POPC   H3S21897   6.748   2.186   9.320
  190POPC   C2421898   6.726   2.359   9.107
  190POPC   H4R21899   6.656   2.447   9.087
  190POPC   H4S21900   6.657   2.305   9.037
  190POPC   C2521901   6.798   2.432   8.991
  190POPC   H5R21902   6.730   2.435   8.901
  190POPC   H5S21903   6.883   2.402   8.936
  190POPC   C2621904   6.847   2.554   9.048
  190POPC   H6R21905   6.833   2.542   9.158
  190POPC   H6S21906   6.772   2.620   9.011
  190POPC   C2721907   6.989   2.564   8.996
  190POPC   H7R21908   7.051   2.476   9.022
  190POPC   H7S21909   7.038   2.647   9.045
  190POPC   C2821910   6.994   2.554   8.842
  190POPC   H8R21911   6.960   2.472   8.782
  190POPC   H8S21912   7.096   2.531   8.818
  190POPC   C2921913   6.898   2.647   8.790
  190POPC   H9121914   6.910   2.730   8.855
  190POPC  C21021915   6.802   2.640   8.700
  190POPC  H10121916   6.775   2.732   8.647
  190POPC  C21121917   6.774   2.516   8.627
  190POPC  H11R21918   6.701   2.463   8.692
  190POPC  H11S21919   6.862   2.451   8.602
  190POPC  C21221920   6.715   2.553   8.497
  190POPC  H12R21921   6.639   2.633   8.507
  190POPC  H12S21922   6.654   2.471   8.465
  190POPC  C21321923   6.823   2.582   8.395
  190POPC  H13R21924   6.886   2.664   8.433
  190POPC  H13S21925   6.766   2.619   8.308
  190POPC  C21421926   6.908   2.462   8.353
  190POPC  H14R21927   6.853   2.366   8.355
  190POPC  H14S21928   6.997   2.448   8.420
  190POPC  C21521929   6.962   2.478   8.212
  190POPC  H15R21930   7.002   2.378   8.185
  190POPC  H15S21931   7.045   2.551   8.217
  190POPC  C21621932   6.873   2.528   8.097
  190POPC  H16R21933   6.855   2.637   8.105
  190POPC  H16S21934   6.776   2.477   8.108
  190POPC  C21721935   6.933   2.502   7.957
  190POPC  H17R21936   6.965   2.398   7.951
  190POPC  H17S21937   7.024   2.563   7.937
  190POPC  C21821938   6.829   2.510   7.848
  190POPC  H18R21939   6.763   2.421   7.856
  190POPC  H18S21940   6.871   2.513   7.745
  190POPC  H18T21941   6.768   2.600   7.866
  190POPC   C3321942   6.615   2.946   8.994
  190POPC   H3X21943   6.662   3.015   9.062
  190POPC   H3Y21944   6.507   2.966   9.013
  190POPC   C3421945   6.658   2.959   8.848
  190POPC   H4X21946   6.615   2.873   8.792
  190POPC   H4Y21947   6.764   2.963   8.826
  190POPC   C3521948   6.617   3.089   8.788
  190POPC   H5X21949   6.616   3.165   8.871
  190POPC   H5Y21950   6.518   3.060   8.748
  190POPC   C3621951   6.687   3.152   8.669
  190POPC   H6X21952   6.794   3.152   8.679
  190POPC   H6Y21953   6.642   3.255   8.651
  190POPC   C3721954   6.665   3.066   8.547
  190POPC   H7X21955   6.568   3.123   8.531
  190POPC   H7Y21956   6.654   2.958   8.565
  190POPC   C3821957   6.753   3.072   8.422
  190POPC   H8X21958   6.835   3.007   8.398
  190POPC   H8Y21959   6.787   3.171   8.456
  190POPC   C3921960   6.688   3.048   8.282
  190POPC   H9X21961   6.702   3.100   8.184
  190POPC   H9Y21962   6.592   3.088   8.283
  190POPC  C31021963   6.638   2.922   8.255
  190POPC  H10X21964   6.537   2.941   8.221
  190POPC  H10Y21965   6.591   2.848   8.319
  190POPC  C31121966   6.726   2.883   8.165
  190POPC  H11X21967   6.781   2.810   8.222
  190POPC  H11Y21968   6.769   2.961   8.090
  190POPC  C31221969   6.627   2.817   8.105
  190POPC  H12X21970   6.708   2.792   8.035
  190POPC  H12Y21971   6.579   2.910   8.050
  190POPC  C31321972   6.532   2.695   8.160
  190POPC  H13X21973   6.427   2.710   8.189
  190POPC  H13Y21974   6.563   2.647   8.251
  190POPC  C31421975   6.481   2.582   8.075
  190POPC  H14X21976   6.550   2.520   8.019
  190POPC  H14Y21977   6.421   2.622   7.992
  190POPC  C31521978   6.376   2.515   8.142
  190POPC  H15X21979   6.289   2.585   8.154
  190POPC  H15Y21980   6.403   2.425   8.200
  190POPC  C31621981   6.327   2.460   8.034
  190POPC  H16X21982   6.411   2.404   7.985
  190POPC  H16Y21983   6.267   2.530   7.969
  190POPC  H16Z21984   6.256   2.393   8.058
  191POPC     N21985   4.839   3.901   5.950
  191POPC   C1221986   4.717   3.819   5.988
  191POPC  H12A21987   4.736   3.760   6.078
  191POPC  H12B21988   4.697   3.751   5.906
  191POPC   C1321989   4.863   3.997   6.062
  191POPC  H13A21990   4.775   4.061   6.076
  191POPC  H13B21991   4.871   3.941   6.155
  191POPC  H13C21992   4.952   4.054   6.044
  191POPC   C1421993   4.960   3.815   5.930
  191POPC  H14A21994   5.045   3.878   5.904
  191POPC  H14B21995   4.986   3.764   6.022
  191POPC  H14C21996   4.945   3.741   5.853
  191POPC   C1521997   4.813   3.975   5.823
  191POPC  H15A21998   4.835   3.912   5.737
  191POPC  H15B21999   4.874   4.063   5.820
  191POPC  H15C22000   4.708   4.002   5.813
  191POPC   C1122001   4.584   3.898   6.016
  191POPC  H11A22002   4.501   3.832   5.980
  191POPC  H11B22003   4.580   3.990   5.954
  191POPC     P22004   4.508   3.842   6.263
  191POPC   O1322005   4.593   3.722   6.253
  191POPC   O1422006   4.363   3.821   6.249
  191POPC   O1222007   4.565   3.939   6.151
  191POPC   O1122008   4.536   3.921   6.397
  191POPC    C122009   4.670   3.956   6.430
  191POPC    HA22010   4.664   4.038   6.506
  191POPC    HB22011   4.728   3.993   6.343
  191POPC    C222012   4.745   3.837   6.491
  191POPC    HS22013   4.753   3.755   6.416
  191POPC   O2122014   4.666   3.797   6.595
  191POPC   C2122015   4.699   3.688   6.643
  191POPC   O2222016   4.771   3.598   6.600
  191POPC   C2222017   4.605   3.688   6.756
  191POPC   H2R22018   4.601   3.589   6.712
  191POPC   H2S22019   4.510   3.744   6.742
  191POPC    C322020   4.881   3.869   6.549
  191POPC    HX22021   4.934   3.905   6.463
  191POPC    HY22022   4.944   3.786   6.586
  191POPC   O3122023   4.860   3.968   6.650
  191POPC   C3122024   4.855   3.908   6.774
  191POPC   O3222025   4.888   3.797   6.801
  191POPC   C3222026   4.817   4.005   6.875
  191POPC   H2X22027   4.725   4.042   6.825
  191POPC   H2Y22028   4.886   4.083   6.852
  191POPC   C2322029   4.645   3.697   6.901
  191POPC   H3R22030   4.662   3.804   6.918
  191POPC   H3S22031   4.736   3.632   6.907
  191POPC   C2422032   4.544   3.658   7.009
  191POPC   H4R22033   4.483   3.586   6.961
  191POPC   H4S22034   4.452   3.713   7.030
  191POPC   C2522035   4.620   3.600   7.128
  191POPC   H5R22036   4.705   3.536   7.094
  191POPC   H5S22037   4.558   3.536   7.196
  191POPC   C2622038   4.665   3.702   7.215
  191POPC   H6R22039   4.728   3.763   7.147
  191POPC   H6S22040   4.723   3.645   7.293
  191POPC   C2722041   4.540   3.765   7.272
  191POPC   H7R22042   4.481   3.688   7.325
  191POPC   H7S22043   4.476   3.812   7.195
  191POPC   C2822044   4.593   3.865   7.370
  191POPC   H8R22045   4.672   3.904   7.311
  191POPC   H8S22046   4.643   3.807   7.450
  191POPC   C2922047   4.496   3.968   7.420
  191POPC   H9122048   4.494   4.066   7.375
  191POPC  C21022049   4.410   3.943   7.515
  191POPC  H10122050   4.329   4.006   7.552
  191POPC  C21122051   4.410   3.813   7.571
  191POPC  H11R22052   4.463   3.734   7.517
  191POPC  H11S22053   4.309   3.782   7.544
  191POPC  C21222054   4.433   3.823   7.720
  191POPC  H12R22055   4.425   3.714   7.744
  191POPC  H12S22056   4.368   3.894   7.770
  191POPC  C21322057   4.545   3.863   7.803
  191POPC  H13R22058   4.538   3.850   7.915
  191POPC  H13S22059   4.592   3.954   7.762
  191POPC  C21422060   4.621   3.759   7.760
  191POPC  H14R22061   4.717   3.804   7.734
  191POPC  H14S22062   4.623   3.771   7.653
  191POPC  C21522063   4.590   3.616   7.839
  191POPC  H15R22064   4.644   3.682   7.897
  191POPC  H15S22065   4.641   3.513   7.813
  191POPC  C21622066   4.514   3.481   7.861
  191POPC  H16R22067   4.429   3.522   7.890
  191POPC  H16S22068   4.562   3.427   7.943
  191POPC  C21722069   4.523   3.338   7.799
  191POPC  H17R22070   4.504   3.353   7.701
  191POPC  H17S22071   4.424   3.296   7.821
  191POPC  C21822072   4.650   3.246   7.801
  191POPC  H18R22073   4.745   3.294   7.768
  191POPC  H18S22074   4.637   3.163   7.728
  191POPC  H18T22075   4.673   3.207   7.899
  191POPC   C3322076   4.808   3.993   7.038
  191POPC   H3X22077   4.895   3.957   7.088
  191POPC   H3Y22078   4.711   3.955   7.049
  191POPC   C3422079   4.842   4.108   7.110
  191POPC   H4X22080   4.718   4.189   7.162
  191POPC   H4Y22081   4.998   4.227   6.977
  191POPC   C3522082   4.831   4.117   7.278
  191POPC   H5X22083   4.929   4.082   7.309
  191POPC   H5Y22084   4.748   4.057   7.320
  191POPC   C3622085   4.815   4.246   7.360
  191POPC   H6X22086   4.745   4.318   7.332
  191POPC   H6Y22087   4.847   4.343   7.335
  191POPC   C3722088   4.915   4.230   7.465
  191POPC   H7X22089   4.906   4.326   7.488
  191POPC   H7Y22090   5.022   4.255   7.463
  191POPC   C3822091   4.852   4.134   7.557
  191POPC   H8X22092   4.925   4.057   7.527
  191POPC   H8Y22093   4.746   4.119   7.522
  191POPC   C3922094   4.843   4.154   7.705
  191POPC   H9X22095   4.756   4.218   7.736
  191POPC   H9Y22096   4.935   4.202   7.750
  191POPC  C31022097   4.872   4.033   7.773
  191POPC  H10X22098   4.983   4.017   7.764
  191POPC  H10Y22099   4.816   3.961   7.714
  191POPC  C31122100   4.836   4.049   7.915
  191POPC  H11X22101   4.734   4.092   7.932
  191POPC  H11Y22102   4.913   4.110   7.968
  191POPC  C31222103   4.853   3.916   7.972
  191POPC  H12X22104   4.939   3.866   7.920
  191POPC  H12Y22105   4.760   3.859   7.955
  191POPC  C31322106   4.886   3.934   8.116
  191POPC  H13X22107   4.991   3.956   8.137
  191POPC  H13Y22108   4.888   3.827   8.140
  191POPC  C31422109   4.803   4.039   8.197
  191POPC  H14X22110   4.823   4.142   8.170
  191POPC  H14Y22111   4.828   4.040   8.305
  191POPC  C31522112   4.655   4.034   8.188
  191POPC  H15X22113   4.606   4.054   8.088
  191POPC  H15Y22114   4.603   4.085   8.275
  191POPC  C31622115   4.614   3.901   8.206
  191POPC  H16X22116   4.515   3.935   8.197
  191POPC  H16Y22117   4.596   3.867   8.309
  191POPC  H16Z22118   4.642   3.815   8.146
  192POPC     N22119   2.506   6.695   5.989
  192POPC   C1222120   2.600   6.763   6.089
  192POPC  H12A22121   2.565   6.863   6.113
  192POPC  H12B22122   2.696   6.777   6.041
  192POPC   C1322123   2.395   6.628   6.062
  192POPC  H13A22124   2.325   6.697   6.105
  192POPC  H13B22125   2.344   6.553   6.001
  192POPC  H13C22126   2.441   6.570   6.143
  192POPC   C1422127   2.461   6.794   5.887
  192POPC  H14A22128   2.408   6.746   5.805
  192POPC  H14B22129   2.394   6.869   5.931
  192POPC  H14C22130   2.547   6.842   5.842
  192POPC   C1522131   2.574   6.584   5.913
  192POPC  H15A22132   2.670   6.613   5.873
  192POPC  H15B22133   2.512   6.546   5.832
  192POPC  H15C22134   2.591   6.498   5.978
  192POPC   C1122135   2.629   6.692   6.225
  192POPC  H11A22136   2.539   6.696   6.290
  192POPC  H11B22137   2.708   6.750   6.280
  192POPC     P22138   2.817   6.519   6.173
  192POPC   O1322139   2.900   6.640   6.188
  192POPC   O1422140   2.817   6.451   6.040
  192POPC   O1222141   2.665   6.556   6.208
  192POPC   O1122142   2.858   6.419   6.287
  192POPC    C122143   2.834   6.281   6.270
  192POPC    HA22144   2.876   6.230   6.359
  192POPC    HB22145   2.882   6.236   6.180
  192POPC    C222146   2.687   6.258   6.267
  192POPC    HS22147   2.642   6.278   6.166
  192POPC   O2122148   2.628   6.331   6.376
  192POPC   C2122149   2.507   6.361   6.352
  192POPC   O2222150   2.445   6.320   6.254
  192POPC   C2222151   2.465   6.458   6.465
  192POPC   H2R22152   2.395   6.410   6.536
  192POPC   H2S22153   2.422   6.550   6.422
  192POPC    C322154   2.667   6.117   6.291
  192POPC    HX22155   2.714   6.054   6.209
  192POPC    HY22156   2.555   6.106   6.286
  192POPC   O3122157   2.724   6.077   6.417
  192POPC   C3122158   2.649   6.096   6.525
  192POPC   O3222159   2.532   6.132   6.523
  192POPC   C3222160   2.724   6.029   6.641
  192POPC   H2X22161   2.825   6.068   6.651
  192POPC   H2Y22162   2.758   5.925   6.621
  192POPC   C2322163   2.561   6.472   6.582
  192POPC   H3R22164   2.657   6.517   6.550
  192POPC   H3S22165   2.578   6.370   6.625
  192POPC   C2422166   2.498   6.548   6.696
  192POPC   H4R22167   2.400   6.505   6.728
  192POPC   H4S22168   2.470   6.649   6.657
  192POPC   C2522169   2.604   6.555   6.812
  192POPC   H5R22170   2.690   6.616   6.772
  192POPC   H5S22171   2.635   6.461   6.857
  192POPC   C2622172   2.564   6.634   6.934
  192POPC   H6R22173   2.524   6.679   6.846
  192POPC   H6S22174   2.628   6.715   6.973
  192POPC   C2722175   2.456   6.574   7.027
  192POPC   H7R22176   2.512   6.504   7.088
  192POPC   H7S22177   2.371   6.536   6.966
  192POPC   C2822178   2.396   6.645   7.148
  192POPC   H8R22179   2.290   6.639   7.178
  192POPC   H8S22180   2.366   6.719   7.075
  192POPC   C2922181   2.498   6.696   7.252
  192POPC   H9122182   2.589   6.720   7.201
  192POPC  C21022183   2.494   6.748   7.378
  192POPC  H10122184   2.568   6.819   7.414
  192POPC  C21122185   2.375   6.770   7.459
  192POPC  H11R22186   2.289   6.737   7.397
  192POPC  H11S22187   2.341   6.868   7.503
  192POPC  C21222188   2.453   6.676   7.551
  192POPC  H12R22189   2.380   6.719   7.625
  192POPC  H12S22190   2.530   6.703   7.623
  192POPC  C21322191   2.465   6.519   7.490
  192POPC  H13R22192   2.508   6.513   7.393
  192POPC  H13S22193   2.381   6.472   7.434
  192POPC  C21422194   2.481   6.394   7.573
  192POPC  H14R22195   2.478   6.296   7.522
  192POPC  H14S22196   2.377   6.374   7.601
  192POPC  C21522197   2.589   6.421   7.681
  192POPC  H15R22198   2.584   6.520   7.730
  192POPC  H15S22199   2.669   6.423   7.610
  192POPC  C21622200   2.630   6.316   7.785
  192POPC  H16R22201   2.571   6.339   7.877
  192POPC  H16S22202   2.728   6.338   7.831
  192POPC  C21722203   2.623   6.174   7.714
  192POPC  H17R22204   2.662   6.194   7.613
  192POPC  H17S22205   2.522   6.131   7.695
  192POPC  C21822206   2.703   6.060   7.774
  192POPC  H18R22207   2.712   5.966   7.718
  192POPC  H18S22208   2.649   5.997   7.844
  192POPC  H18T22209   2.781   6.103   7.839
  192POPC   C3322210   2.646   6.055   6.767
  192POPC   H3X22211   2.542   6.028   6.762
  192POPC   H3Y22212   2.626   6.161   6.779
  192POPC   C3422213   2.710   5.990   6.887
  192POPC   H4X22214   2.815   6.015   6.898
  192POPC   H4Y22215   2.721   5.883   6.864
  192POPC   C3522216   2.628   6.009   7.015
  192POPC   H5X22217   2.644   5.922   7.081
  192POPC   H5Y22218   2.517   6.018   7.004
  192POPC   C3622219   2.656   6.131   7.081
  192POPC   H6X22220   2.588   6.204   7.031
  192POPC   H6Y22221   2.762   6.142   7.053
  192POPC   C3722222   2.641   6.105   7.228
  192POPC   H7X22223   2.672   6.002   7.258
  192POPC   H7Y22224   2.536   6.119   7.263
  192POPC   C3822225   2.744   6.193   7.291
  192POPC   H8X22226   2.845   6.158   7.256
  192POPC   H8Y22227   2.737   6.178   7.399
  192POPC   C3922228   2.721   6.337   7.249
  192POPC   H9X22229   2.610   6.357   7.251
  192POPC   H9Y22230   2.753   6.355   7.144
  192POPC  C31022231   2.785   6.435   7.344
  192POPC  H10X22232   2.734   6.426   7.440
  192POPC  H10Y22233   2.766   6.538   7.306
  192POPC  C31122234   2.934   6.421   7.376
  192POPC  H11X22235   2.983   6.388   7.285
  192POPC  H11Y22236   2.963   6.342   7.447
  192POPC  C31222237   2.982   6.557   7.429
  192POPC  H12X22238   2.951   6.638   7.358
  192POPC  H12Y22239   3.093   6.553   7.435
  192POPC  C31322240   2.930   6.581   7.570
  192POPC  H13X22241   3.000   6.528   7.638
  192POPC  H13Y22242   2.830   6.538   7.582
  192POPC  C31422243   2.919   6.728   7.609
  192POPC  H14X22244   2.869   6.790   7.532
  192POPC  H14Y22245   3.022   6.756   7.603
  192POPC  C31522246   2.862   6.756   7.749
  192POPC  H15X22247   2.759   6.720   7.756
  192POPC  H15Y22248   2.866   6.865   7.771
  192POPC  C31622249   2.938   6.696   7.864
  192POPC  H16X22250   3.031   6.744   7.854
  192POPC  H16Y22251   2.963   6.589   7.855
  192POPC  H16Z22252   2.897   6.724   7.964
  193SOD    SOD22253   5.732   6.761   4.226
  194SOD    SOD22254   3.946   0.035   2.703
  195SOD    SOD22255   6.463   0.624  14.454
  196SOD    SOD22256   3.868   2.104  12.536
  197SOD    SOD22257   3.637   6.133   2.062
  198SOD    SOD22258   1.973   5.048   1.159
  199SOD    SOD22259   2.016   5.741   0.489
  200SOD    SOD22260   3.330   3.053   3.742
  201SOD    SOD22261   0.325   2.361   2.261
  202SOD    SOD22262   0.395   0.848  15.420
  203SOD    SOD22263   4.999   2.073   4.767
  204SOD    SOD22264   4.779   2.890   2.054
  205SOD    SOD22265   5.307   4.855  15.513
  206SOD    SOD22266   1.927   4.611  15.688
  207SOD    SOD22267   6.697   4.220   2.795
  208SOD    SOD22268   4.540   6.645  12.608
  209SOD    SOD22269   2.816   4.867   0.530
  210SOD    SOD22270   3.697   4.336  12.790
  211SOD    SOD22271   0.552   4.248  10.583
  212SOD    SOD22272   5.897   2.151   4.088
  213SOD    SOD22273   0.741   6.796   4.660
  214SOD    SOD22274   5.753   4.279  11.514
  215SOD    SOD22275   7.053   5.762  15.889
  216SOD    SOD22276   5.535   5.583  14.607
  217SOD    SOD22277   2.050   0.257  11.841
  218SOD    SOD22278   0.500   2.195  15.632
  219SOD    SOD22279   3.510   4.527  14.661
  220SOD    SOD22280   5.868   3.499   5.870
  221SOD    SOD22281   2.142   6.310   1.710
  222SOD    SOD22282   6.362   1.131  11.032
  223SOD    SOD22283   0.923   1.799  10.682
  224SOD    SOD22284   6.362   5.944  14.491
  225SOD    SOD22285   5.087   4.967  14.455
  226SOD    SOD22286   4.588   0.458  15.248
  227SOD    SOD22287   0.054   1.653  10.971
  228SOD    SOD22288   4.684   6.700   0.573
  229SOD    SOD22289   2.512   4.061   2.327
  230SOD    SOD22290   2.209   1.417  15.083
  231SOD    SOD22291   0.373   1.553   4.857
  232SOD    SOD22292   0.601   5.599  12.294
  233SOD    SOD22293   5.407   0.026  14.351
  234SOD    SOD22294   4.358   0.250   3.402
  235SOD    SOD22295   7.023   4.918   4.367
  236SOD    SOD22296   2.754   4.926   2.651
  237SOD    SOD22297   5.272   4.007   3.611
  238SOD    SOD22298   1.579   7.093  10.729
  239SOD    SOD22299   0.611  -0.069   1.071
  240SOD    SOD22300   2.991   2.155   0.244
  241SOD    SOD22301   6.865   2.791   5.347
  242SOD    SOD22302   2.439   3.756  15.234
  243SOD    SOD22303   5.766   0.256  15.552
  244SOD    SOD22304   4.443   1.764  13.505
  245SOD    SOD22305   0.529   2.802   5.413
  246SOD    SOD22306   3.262   1.994  13.875
  247SOD    SOD22307   6.244   3.937  13.152
  248SOD    SOD22308   5.881   5.840   2.387
  249SOD    SOD22309   0.551   2.049   1.335
  250SOD    SOD22310   5.489   0.063   0.420
  251SOD    SOD22311   5.403   3.006   0.790
  252SOD    SOD22312   0.363   2.118   0.346
  253SOD    SOD22313   5.905   3.453  14.588
  254SOD    SOD22314   2.391   3.909  10.855
  255SOD    SOD22315   2.005   4.226  15.608
  256SOD    SOD22316   6.558   4.539   3.708
  257SOD    SOD22317   2.080   2.988   5.261
  258SOD    SOD22318   2.610   1.180  15.832
  259SOD    SOD22319   2.055   3.432  11.075
  260SOD    SOD22320   4.513   4.497   0.529
  261SOD    SOD22321   1.767   1.265  10.878
  262SOD    SOD22322   4.961   1.076   2.200
  263SOD    SOD22323   3.546   4.737   0.390
  264SOD    SOD22324   1.325   4.057  15.087
  265SOD    SOD22325   0.336   3.773  10.351
  266SOD    SOD22326   6.003   4.611  14.014
  267SOD    SOD22327   3.264   0.253   2.418
  268SOD    SOD22328   1.956   4.575  11.604
  269SOD    SOD22329   6.683   3.686   4.453
  270CLA    CLA22330   4.043   0.650   2.229
  271CLA    CLA22331   1.739   2.523  14.399
  272CLA    CLA22332   1.393   1.220   1.206
  273CLA    CLA22333   7.023   2.553   0.566
  274CLA    CLA22334   3.131   7.101  15.920
  275CLA    CLA22335   6.284   4.699   4.283
  276CLA    CLA22336   2.192   5.601   4.209
  277CLA    CLA22337   1.626   4.761   4.730
  278CLA    CLA22338   5.823   0.518  13.083
  279CLA    CLA22339   5.858   4.681  14.331
  280CLA    CLA22340   7.308   1.771  13.841
  281CLA    CLA22341   1.423   6.812  11.724
  282CLA    CLA22342   3.079   5.818  12.365
  283CLA    CLA22343   3.936   0.670  11.227
  284CLA    CLA22344   3.306   7.004  11.630
  285CLA    CLA22345   2.271   1.542  11.942
  286CLA    CLA22346   2.729   2.492   2.672
  287CLA    CLA22347   0.480   5.772  13.325
  288CLA    CLA22348   2.263   1.476  14.160
  289CLA    CLA22349   5.474   5.684   4.931
  290CLA    CLA22350   5.638   5.665   0.406
  291CLA    CLA22351   5.906   6.730   5.136
  292CLA    CLA22352   0.390   2.965   1.945
  293CLA    CLA22353   6.952   2.135   2.401
  294CLA    CLA22354   4.529   2.475  14.740
  295CLA    CLA22355   2.477   1.131   3.441
  296CLA    CLA22356   4.074   1.697  13.481
  297CLA    CLA22357   1.021   5.765  11.911
  298CLA    CLA22358   5.033   2.445  13.162
  299CLA    CLA22359   2.986   3.959  15.606
  300CLA    CLA22360   4.938   4.681  13.410
  301CLA    CLA22361   1.037   1.619  10.316
  302CLA    CLA22362   6.180   3.813   2.696
  303CLA    CLA22363   2.396   1.372   2.323
  304CLA    CLA22364   3.229   2.048   5.269
  305CLA    CLA22365   0.958   0.939   5.722
  306CLA    CLA22366   5.504   3.586   5.663
  307CLA    CLA22367   6.882   3.575   0.004
  308CLA    CLA22368   5.365   4.992   2.916
  309CLA    CLA22369   7.017   0.634  13.209
  310CLA    CLA22370   2.215   4.893  12.426
  311CLA    CLA22371   6.805   0.014   1.554
  312CLA    CLA22372   4.258   1.946  13.897
  313CLA    CLA22373   0.733   6.173  12.835
  314CLA    CLA22374   0.817   5.975   3.954
  315CLA    CLA22375   2.954   6.252   1.907
  316CLA    CLA22376   4.109   3.454  15.155
  317CLA    CLA22377   1.855   0.528  15.736
  318CLA    CLA22378   1.497   7.079  15.378
  319CLA    CLA22379   3.811   6.998  10.736
  320CLA    CLA22380   3.737   5.846   0.932
  321CLA    CLA22381   2.850   3.359  12.936
  322CLA    CLA22382   2.895   1.824  10.677
  323TIP3   OH222383   3.865   3.596  10.172
  323TIP3    H122384   3.816   3.634  10.096
  323TIP3    H222385   3.811   3.521  10.197
  324TIP3   OH222386   3.717   3.723   9.957
  324TIP3    H122387   3.637   3.670   9.965
  324TIP3    H222388   3.775   3.670   9.900
  325TIP3   OH222389   4.963   3.110   9.952
  325TIP3    H122390   4.998   3.148   9.868
  325TIP3    H222391   4.884   3.163   9.957
  326TIP3   OH222392   5.956   4.375   9.653
  326TIP3    H122393   5.931   4.346   9.742
  326TIP3    H222394   5.873   4.407   9.617
  327TIP3   OH222395   5.658   3.876  10.080
  327TIP3    H122396   5.587   3.908  10.022
  327TIP3    H222397   5.671   3.784  10.060
  328TIP3   OH222398   5.274   4.087  10.040
  328TIP3    H122399   5.268   4.176  10.003
  328TIP3    H222400   5.321   4.039   9.971
  329TIP3   OH222401   5.204   2.481  10.075
  329TIP3    H122402   5.209   2.575  10.060
  329TIP3    H222403   5.151   2.448  10.001
  330TIP3   OH222404   4.951   2.633   9.958
  330TIP3    H122405   4.920   2.603  10.043
  330TIP3    H222406   4.984   2.554   9.914
  331TIP3   OH222407   4.834   2.173   9.972
  331TIP3    H122408   4.757   2.179  10.030
  331TIP3    H222409   4.821   2.091   9.925
  332TIP3   OH222410   3.054   5.351   9.925
  332TIP3    H122411   3.141   5.323   9.958
  332TIP3    H222412   2.994   5.301   9.982
  333TIP3   OH222413   4.963   1.646  10.016
  333TIP3    H122414   4.982   1.686  10.100
  333TIP3    H222415   5.047   1.644   9.968
  334TIP3   OH222416   4.627   1.404  10.075
  334TIP3    H122417   4.553   1.391  10.016
  334TIP3    H222418   4.658   1.486  10.030
  335TIP3   OH222419   4.520   1.606   9.946
  335TIP3    H122420   4.428   1.606   9.919
  335TIP3    H222421   4.555   1.670   9.880
  336TIP3   OH222422   6.438   3.920  10.000
  336TIP3    H122423   6.475   3.994  10.048
  336TIP3    H222424   6.445   3.845  10.059
  337TIP3   OH222425   3.034   6.646   9.879
  337TIP3    H122426   3.084   6.566   9.867
  337TIP3    H222427   2.941   6.623   9.887
  338TIP3   OH222428   3.486   6.551   9.931
  338TIP3    H122429   3.423   6.483   9.911
  338TIP3    H222430   3.560   6.501   9.969
  339TIP3   OH222431   3.330   6.420  10.184
  339TIP3    H122432   3.303   6.367  10.109
  339TIP3    H222433   3.267   6.402  10.253
  340TIP3   OH222434   1.140   5.045   9.923
  340TIP3    H122435   1.235   5.060   9.923
  340TIP3    H222436   1.103   5.116   9.974
  341TIP3   OH222437   0.551   3.050   9.938
  341TIP3    H122438   0.572   3.098  10.019
  341TIP3    H222439   0.635   3.027   9.898
  342TIP3   OH222440   0.577   2.693   9.897
  342TIP3    H122441   0.529   2.720   9.976
  342TIP3    H222442   0.564   2.598   9.889
  343TIP3   OH222443   6.655   4.866  10.094
  343TIP3    H122444   6.708   4.904  10.024
  343TIP3    H222445   6.610   4.943  10.133
  344TIP3   OH222446   6.468   5.077   9.967
  344TIP3    H122447   6.504   5.141  10.028
  344TIP3    H222448   6.394   5.127   9.932
  345TIP3   OH222449   6.300   4.539   9.822
  345TIP3    H122450   6.231   4.595   9.860
  345TIP3    H222451   6.372   4.602   9.808
  346TIP3   OH222452   4.549   0.648  10.150
  346TIP3    H122453   4.561   0.627  10.056
  346TIP3    H222454   4.541   0.560  10.187
  347TIP3   OH222455   4.435   1.028  10.002
  347TIP3    H122456   4.489   1.100   9.966
  347TIP3    H222457   4.488   0.995  10.075
  348TIP3   OH222458   4.007   0.696  10.007
  348TIP3    H122459   3.932   0.655   9.959
  348TIP3    H222460   4.023   0.772   9.951
  349TIP3   OH222461   3.655   0.484  10.073
  349TIP3    H122462   3.570   0.458  10.104
  349TIP3    H222463   3.708   0.404  10.082
  350TIP3   OH222464   5.350   1.191  10.025
  350TIP3    H122465   5.341   1.098  10.000
  350TIP3    H222466   5.435   1.212   9.986
  351TIP3   OH222467   5.534   0.832   9.987
  351TIP3    H122468   5.502   0.745  10.009
  351TIP3    H222469   5.464   0.873   9.932
  352TIP3   OH222470   1.563   6.255  10.141
  352TIP3    H122471   1.625   6.232  10.069
  352TIP3    H222472   1.584   6.186  10.206
  353TIP3   OH222473   1.610   6.003  10.077
  353TIP3    H122474   1.553   6.002   9.999
  353TIP3    H222475   1.543   5.992  10.145
  354TIP3   OH222476   0.647   4.348  10.106
  354TIP3    H122477   0.596   4.325  10.026
  354TIP3    H222478   0.702   4.419  10.073
  355TIP3   OH222479   0.272   4.483   9.856
  355TIP3    H122480   0.362   4.449   9.867
  355TIP3    H222481   0.218   4.405   9.865
  356TIP3   OH222482   0.396   4.200  10.175
  356TIP3    H122483   0.413   4.140  10.103
  356TIP3    H222484   0.477   4.254  10.178
  357TIP3   OH222485   4.650   6.501  10.034
  357TIP3    H122486   4.675   6.500  10.127
  357TIP3    H222487   4.719   6.558   9.995
  358TIP3   OH222488   5.048   6.785  10.015
  358TIP3    H122489   5.132   6.760   9.970
  358TIP3    H222490   5.074   6.863  10.063
  359TIP3   OH222491   4.776   6.798  10.150
  359TIP3    H122492   4.825   6.879  10.163
  359TIP3    H222493   4.846   6.730  10.141
  360TIP3   OH222494   4.938   6.583  10.172
  360TIP3    H122495   4.984   6.599  10.088
  360TIP3    H222496   5.011   6.549  10.224
  361TIP3   OH222497   0.991   1.374  10.147
  361TIP3    H122498   1.017   1.290  10.106
  361TIP3    H222499   0.897   1.380  10.127
  362TIP3   OH222500   1.007   1.187   9.981
  362TIP3    H122501   1.028   1.247   9.910
  362TIP3    H222502   1.068   1.110   9.975
  363TIP3   OH222503   0.154   3.650  10.061
  363TIP3    H122504   0.084   3.583  10.071
  363TIP3    H222505   0.109   3.721  10.016
  364TIP3   OH222506   0.317   3.271   9.979
  364TIP3    H122507   0.248   3.210   9.954
  364TIP3    H222508   0.302   3.347   9.921
  365TIP3   OH222509   7.024   4.339  10.082
  365TIP3    H122510   7.095   4.330  10.146
  365TIP3    H222511   6.944   4.355  10.134
  366TIP3   OH222512   3.231   7.204   9.941
  366TIP3    H122513   3.325   7.185   9.921
  366TIP3    H222514   3.236   7.275  10.002
  367TIP3   OH222515   4.453   0.092  10.072
  367TIP3    H122516   4.396   0.167  10.092
  367TIP3    H222517   4.407   0.050   9.998
  368TIP3   OH222518   4.025   7.187   9.948
  368TIP3    H122519   4.024   7.133  10.028
  368TIP3    H222520   3.950   7.153   9.899
  369TIP3   OH222521   4.156   0.063  10.127
  369TIP3    H122522   4.119   0.086  10.213
  369TIP3    H222523   4.077   0.047  10.073
  370TIP3   OH222524   7.245   4.754  10.072
  370TIP3    H122525   7.227   4.805  10.152
  370TIP3    H222526   7.248   4.661  10.095
  371TIP3   OH222527   0.494   1.224  10.013
  371TIP3    H122528   0.417   1.212   9.959
  371TIP3    H222529   0.513   1.320  10.008
  372TIP3   OH222530   0.498   1.505  10.060
  372TIP3    H122531   0.550   1.584  10.077
  372TIP3    H222532   0.422   1.534  10.007
  373TIP3   OH222533   0.289   1.309  10.189
  373TIP3    H122534   0.385   1.303  10.173
  373TIP3    H222535   0.257   1.273  10.106
  374TIP3   OH222536   0.059   1.334   9.906
  374TIP3    H122537  -0.009   1.383   9.862
  374TIP3    H222538   0.039   1.347   9.999
  375TIP3   OH222539   6.341   7.180  10.033
  375TIP3    H122540   6.268   7.243  10.026
  375TIP3    H222541   6.333   7.152  10.126
  376TIP3   OH222542   2.470   4.917   5.958
  376TIP3    H122543   2.549   4.901   6.013
  376TIP3    H222544   2.503   4.961   5.879
  377TIP3   OH222545   2.733   4.760   5.891
  377TIP3    H122546   2.689   4.681   5.921
  377TIP3    H222547   2.804   4.776   5.951
  378TIP3   OH222548   2.643   5.212   6.008
  378TIP3    H122549   2.550   5.187   5.995
  378TIP3    H222550   2.674   5.141   6.065
  379TIP3   OH222551   1.892   3.456   6.098
  379TIP3    H122552   1.903   3.468   6.003
  379TIP3    H222553   1.930   3.537   6.136
  380TIP3   OH222554   2.015   3.598   5.860
  380TIP3    H122555   1.995   3.690   5.838
  380TIP3    H222556   2.096   3.604   5.912
  381TIP3   OH222557   2.028   3.991   6.002
  381TIP3    H122558   1.986   3.943   6.075
  381TIP3    H222559   1.985   3.952   5.926
  382TIP3   OH222560   5.528   3.344   6.091
  382TIP3    H122561   5.548   3.381   6.004
  382TIP3    H222562   5.439   3.381   6.107
  383TIP3   OH222563   5.406   3.707   5.983
  383TIP3    H122564   5.462   3.782   6.006
  383TIP3    H222565   5.366   3.736   5.900
  384TIP3   OH222566   5.057   3.481   6.030
  384TIP3    H122567   5.146   3.482   6.068
  384TIP3    H222568   5.064   3.543   5.959
  385TIP3   OH222569   4.514   2.112   5.857
  385TIP3    H122570   4.523   2.126   5.953
  385TIP3    H222571   4.482   2.196   5.825
  386TIP3   OH222572   1.749   4.530   5.981
  386TIP3    H122573   1.817   4.524   6.050
  386TIP3    H222574   1.780   4.469   5.914
  387TIP3   OH222575   1.778   1.930   6.051
  387TIP3    H122576   1.834   2.009   6.039
  387TIP3    H222577   1.844   1.860   6.052
  388TIP3   OH222578   2.430   5.716   6.036
  388TIP3    H122579   2.461   5.651   5.969
  388TIP3    H222580   2.382   5.780   5.983
  389TIP3   OH222581   2.811   5.588   5.949
  389TIP3    H122582   2.781   5.652   6.016
  389TIP3    H222583   2.746   5.604   5.879
  390TIP3   OH222584   2.586   5.685   5.811
  390TIP3    H122585   2.591   5.611   5.749
  390TIP3    H222586   2.620   5.756   5.759
  391TIP3   OH222587   2.755   5.971   5.917
  391TIP3    H122588   2.665   5.975   5.885
  391TIP3    H222589   2.751   5.920   5.999
  392TIP3   OH222590   1.964   5.119   5.980
  392TIP3    H122591   1.918   5.116   5.896
  392TIP3    H222592   2.049   5.078   5.959
  393TIP3   OH222593   2.123   5.489   5.932
  393TIP3    H122594   2.083   5.461   6.018
  393TIP3    H222595   2.078   5.427   5.875
  394TIP3   OH222596   6.047   3.413   6.050
  394TIP3    H122597   6.006   3.339   6.100
  394TIP3    H222598   6.141   3.399   6.070
  395TIP3   OH222599   6.133   3.024   5.969
  395TIP3    H122600   6.219   3.049   5.935
  395TIP3    H222601   6.150   3.036   6.064
  396TIP3   OH222602   6.129   3.228   5.820
  396TIP3    H122603   6.206   3.179   5.789
  396TIP3    H222604   6.154   3.246   5.912
  397TIP3   OH222605   5.660   2.464   5.955
  397TIP3    H122606   5.748   2.445   5.923
  397TIP3    H222607   5.604   2.456   5.876
  398TIP3   OH222608   5.989   2.650   6.017
  398TIP3    H122609   5.959   2.579   5.957
  398TIP3    H222610   5.922   2.716   5.999
  399TIP3   OH222611   5.937   2.420   5.872
  399TIP3    H122612   5.935   2.390   5.965
  399TIP3    H222613   5.954   2.339   5.821
  400TIP3   OH222614   6.209   2.269   6.014
  400TIP3    H122615   6.144   2.247   5.948
  400TIP3    H222616   6.225   2.187   6.061
  401TIP3   OH222617   5.149   5.702   6.079
  401TIP3    H122618   5.228   5.734   6.124
  401TIP3    H222619   5.105   5.784   6.054
  402TIP3   OH222620   6.617   3.534   5.858
  402TIP3    H122621   6.553   3.606   5.857
  402TIP3    H222622   6.618   3.512   5.952
  403TIP3   OH222623   6.952   3.508   6.176
  403TIP3    H122624   7.020   3.559   6.221
  403TIP3    H222625   7.001   3.462   6.108
  404TIP3   OH222626   0.629   3.472   5.986
  404TIP3    H122627   0.709   3.521   6.008
  404TIP3    H222628   0.566   3.526   6.036
  405TIP3   OH222629   0.764   3.762   5.911
  405TIP3    H122630   0.846   3.709   5.915
  405TIP3    H222631   0.791   3.843   5.954
  406TIP3   OH222632   3.409   6.814   5.975
  406TIP3    H122633   3.426   6.722   5.950
  406TIP3    H222634   3.483   6.863   5.935
  407TIP3   OH222635   1.467   6.810   6.096
  407TIP3    H122636   1.387   6.862   6.092
  407TIP3    H222637   1.438   6.718   6.113
  408TIP3   OH222638   1.453   6.321   6.007
  408TIP3    H122639   1.421   6.298   5.919
  408TIP3    H222640   1.549   6.318   5.997
  409TIP3   OH222641   1.879   6.756   6.019
  409TIP3    H122642   1.883   6.836   6.073
  409TIP3    H222643   1.938   6.691   6.060
  410TIP3   OH222644   5.554   0.143   6.023
  410TIP3    H122645   5.570   0.079   6.093
  410TIP3    H222646   5.470   0.182   6.056
  411TIP3   OH222647   5.437   0.545   5.969
  411TIP3    H122648   5.344   0.518   5.973
  411TIP3    H222649   5.445   0.607   5.897
  412TIP3   OH222650   5.072   0.274   6.085
  412TIP3    H122651   5.048   0.335   6.014
  412TIP3    H222652   5.008   0.202   6.072
  413TIP3   OH222653   5.386   0.277   5.812
  413TIP3    H122654   5.330   0.342   5.853
  413TIP3    H222655   5.464   0.276   5.870
  414TIP3   OH222656   0.712   6.105   5.817
  414TIP3    H122657   0.654   6.030   5.800
  414TIP3    H222658   0.665   6.154   5.885
  415TIP3   OH222659   0.916   6.153   6.025
  415TIP3    H122660   0.865   6.142   5.944
  415TIP3    H222661   0.862   6.103   6.088
  416TIP3   OH222662   0.430   2.002   6.241
  416TIP3    H122663   0.438   2.062   6.314
  416TIP3    H222664   0.519   2.010   6.205
  417TIP3   OH222665   0.317   1.637   5.819
  417TIP3    H122666   0.228   1.636   5.857
  417TIP3    H222667   0.305   1.617   5.727
  418TIP3   OH222668   0.351   1.400   5.988
  418TIP3    H122669   0.399   1.436   5.913
  418TIP3    H222670   0.408   1.327   6.019
  419TIP3   OH222671   0.176   1.873   6.039
  419TIP3    H122672   0.196   1.799   6.099
  419TIP3    H222673   0.130   1.831   5.968
  420TIP3   OH222674   0.319   0.048   6.086
  420TIP3    H122675   0.349  -0.015   6.020
  420TIP3    H222676   0.224   0.026   6.090
  421TIP3   OH222677   1.184   1.014  10.671
  421TIP3    H122678   1.184   1.112  10.666
  421TIP3    H222679   1.112   0.992  10.609
  422TIP3   OH222680   1.070   0.939  11.020
  422TIP3    H122681   1.070   0.874  11.092
  422TIP3    H222682   1.036   0.889  10.945
  423TIP3   OH222683   0.311   0.906  11.172
  423TIP3    H122684   0.317   0.839  11.243
  423TIP3    H222685   0.381   0.966  11.200
  424TIP3   OH222686   1.452   1.232  10.855
  424TIP3    H122687   1.395   1.165  10.896
  424TIP3    H222688   1.437   1.307  10.916
  425TIP3   OH222689   0.396   1.352  11.026
  425TIP3    H122690   0.367   1.264  10.993
  425TIP3    H222691   0.492   1.333  11.031
  426TIP3   OH222692   0.092   0.710  10.541
  426TIP3    H122693   0.042   0.789  10.572
  426TIP3    H222694   0.016   0.653  10.527
  427TIP3   OH222695   0.131   0.926  10.784
  427TIP3    H122696   0.160   0.849  10.836
  427TIP3    H222697   0.204   0.941  10.723
  428TIP3   OH222698   1.144   1.748  10.869
  428TIP3    H122699   1.215   1.683  10.842
  428TIP3    H222700   1.133   1.718  10.960
  429TIP3   OH222701   0.908   1.179  11.068
  429TIP3    H122702   0.942   1.117  11.002
  429TIP3    H222703   0.989   1.196  11.118
  430TIP3   OH222704   1.767   0.345  11.140
  430TIP3    H122705   1.786   0.403  11.218
  430TIP3    H222706   1.823   0.388  11.074
  431TIP3   OH222707   1.225   0.626  11.100
  431TIP3    H122708   1.241   0.530  11.100
  431TIP3    H222709   1.214   0.641  11.004
  432TIP3   OH222710   0.538   0.437  10.822
  432TIP3    H122711   0.548   0.520  10.771
  432TIP3    H222712   0.498   0.379  10.753
  433TIP3   OH222713   1.312   0.441  10.658
  433TIP3    H122714   1.378   0.415  10.726
  433TIP3    H222715   1.364   0.501  10.604
  434TIP3   OH222716   0.196   0.669  10.889
  434TIP3    H122717   0.268   0.621  10.935
  434TIP3    H222718   0.213   0.640  10.798
  435TIP3   OH222719   0.713   0.831  10.828
  435TIP3    H122720   0.782   0.773  10.866
  435TIP3    H222721   0.664   0.767  10.774
  436TIP3   OH222722   1.814   0.486  11.369
  436TIP3    H122723   1.751   0.560  11.357
  436TIP3    H222724   1.814   0.475  11.464
  437TIP3   OH222725   0.431   0.330  11.223
  437TIP3    H122726   0.397   0.385  11.149
  437TIP3    H222727   0.361   0.348  11.291
  438TIP3   OH222728   1.156   1.274  10.579
  438TIP3    H122729   1.125   1.249  10.490
  438TIP3    H222730   1.124   1.367  10.583
  439TIP3   OH222731   0.681   1.090  11.248
  439TIP3    H122732   0.609   1.153  11.271
  439TIP3    H222733   0.750   1.150  11.219
  440TIP3   OH222734   1.495   0.373  10.852
  440TIP3    H122735   1.466   0.305  10.913
  440TIP3    H222736   1.557   0.422  10.910
  441TIP3   OH222737   0.381   0.513  11.027
  441TIP3    H122738   0.445   0.580  11.062
  441TIP3    H222739   0.435   0.471  10.955
  442TIP3   OH222740   0.522   1.289  11.329
  442TIP3    H122741   0.518   1.381  11.297
  442TIP3    H222742   0.434   1.281  11.373
  443TIP3   OH222743   0.113   1.257  10.411
  443TIP3    H122744   0.120   1.284  10.319
  443TIP3    H222745   0.143   1.336  10.460
  444TIP3   OH222746   1.494   1.418  11.081
  444TIP3    H122747   1.397   1.429  11.098
  444TIP3    H222748   1.518   1.512  11.067
  445TIP3   OH222749   1.529   0.247  11.230
  445TIP3    H122750   1.453   0.305  11.215
  445TIP3    H222751   1.597   0.288  11.173
  446TIP3   OH222752   0.818   0.059  10.954
  446TIP3    H122753   0.817  -0.036  10.970
  446TIP3    H222754   0.739   0.086  11.005
  447TIP3   OH222755   1.320   1.597  10.748
  447TIP3    H122756   1.359   1.525  10.695
  447TIP3    H222757   1.361   1.675  10.703
  448TIP3   OH222758   1.454   1.383  10.592
  448TIP3    H122759   1.405   1.322  10.532
  448TIP3    H222760   1.439   1.340  10.678
  449TIP3   OH222761   1.601   1.249  11.445
  449TIP3    H122762   1.616   1.183  11.374
  449TIP3    H222763   1.622   1.334  11.402
  450TIP3   OH222764   1.052   0.937  10.420
  450TIP3    H122765   0.981   0.994  10.384
  450TIP3    H222766   1.120   0.946  10.350
  451TIP3   OH222767   1.791   0.881  11.251
  451TIP3    H122768   1.723   0.951  11.256
  451TIP3    H222769   1.839   0.902  11.170
  452TIP3   OH222770   1.396   0.957  10.517
  452TIP3    H122771   1.321   0.984  10.576
  452TIP3    H222772   1.443   0.892  10.571
  453TIP3   OH222773   1.388   0.775  11.427
  453TIP3    H122774   1.389   0.857  11.479
  453TIP3    H222775   1.325   0.804  11.357
  454TIP3   OH222776   0.558   1.025  10.706
  454TIP3    H122777   0.524   0.986  10.622
  454TIP3    H222778   0.619   0.955  10.739
  455TIP3   OH222779   0.691   1.367  10.971
  455TIP3    H122780   0.687   1.309  10.894
  455TIP3    H222781   0.767   1.329  11.019
  456TIP3   OH222782   0.593   0.899  11.072
  456TIP3    H122783   0.646   0.910  10.991
  456TIP3    H222784   0.629   0.967  11.133
  457TIP3   OH222785   1.234   1.456  11.143
  457TIP3    H122786   1.203   1.520  11.208
  457TIP3    H222787   1.206   1.371  11.184
  458TIP3   OH222788   0.685   1.342  11.542
  458TIP3    H122789   0.643   1.416  11.590
  458TIP3    H222790   0.618   1.323  11.472
  459TIP3   OH222791   1.281   0.874  10.285
  459TIP3    H122792   1.334   0.898  10.363
  459TIP3    H222793   1.314   0.930  10.212
  460TIP3   OH222794   0.379   0.959  11.460
  460TIP3    H122795   0.383   1.028  11.529
  460TIP3    H222796   0.285   0.968  11.436
  461TIP3   OH222797   1.042   1.547  10.646
  461TIP3    H122798   1.106   1.585  10.708
  461TIP3    H222799   1.010   1.617  10.587
  462TIP3   OH222800   0.510   1.545  11.616
  462TIP3    H122801   0.502   1.537  11.519
  462TIP3    H222802   0.416   1.532  11.643
  463TIP3   OH222803   0.455   0.924  10.466
  463TIP3    H122804   0.427   1.005  10.420
  463TIP3    H222805   0.386   0.861  10.446
  464TIP3   OH222806   0.122   1.156  11.332
  464TIP3    H122807   0.044   1.167  11.273
  464TIP3    H222808   0.086   1.077  11.379
  465TIP3   OH222809   0.071   1.453  11.016
  465TIP3    H122810   0.154   1.411  11.041
  465TIP3    H222811   0.040   1.489  11.101
  466TIP3   OH222812   1.860   1.515  11.600
  466TIP3    H122813   1.853   1.418  11.604
  466TIP3    H222814   1.775   1.539  11.644
  467TIP3   OH222815   0.958   1.468  11.490
  467TIP3    H122816   0.964   1.552  11.541
  467TIP3    H222817   0.871   1.432  11.515
  468TIP3   OH222818   0.988   1.854  10.480
  468TIP3    H122819   0.998   1.829  10.383
  468TIP3    H222820   1.008   1.948  10.474
  469TIP3   OH222821   0.367   1.732  10.653
  469TIP3    H122822   0.381   1.687  10.738
  469TIP3    H222823   0.287   1.686  10.621
  470TIP3   OH222824   1.278   1.767  10.467
  470TIP3    H122825   1.184   1.758  10.446
  470TIP3    H222826   1.299   1.677  10.494
  471TIP3   OH222827   1.577   0.659  11.651
  471TIP3    H122828   1.530   0.705  11.579
  471TIP3    H222829   1.576   0.567  11.620
  472TIP3   OH222830   0.293   1.310  11.458
  472TIP3    H122831   0.311   1.265  11.543
  472TIP3    H222832   0.210   1.265  11.429
  473TIP3   OH222833   0.557   0.146  11.049
  473TIP3    H122834   0.468   0.139  11.010
  473TIP3    H222835   0.546   0.232  11.094
  474TIP3   OH222836   1.022   0.118  11.387
  474TIP3    H122837   1.064   0.076  11.462
  474TIP3    H222838   0.926   0.107  11.403
  475TIP3   OH222839   1.353   0.496  11.473
  475TIP3    H122840   1.294   0.481  11.551
  475TIP3    H222841   1.336   0.589  11.448
  476TIP3   OH222842   0.568   0.646  11.172
  476TIP3    H122843   0.496   0.646  11.237
  476TIP3    H222844   0.566   0.737  11.135
  477TIP3   OH222845   0.567   0.658  10.657
  477TIP3    H122846   0.472   0.635  10.641
  477TIP3    H222847   0.604   0.628  10.572
  478TIP3   OH222848   1.118   0.706  10.535
  478TIP3    H122849   1.079   0.790  10.503
  478TIP3    H222850   1.188   0.692  10.470
  479TIP3   OH222851   1.023   0.730  11.678
  479TIP3    H122852   0.970   0.652  11.709
  479TIP3    H222853   1.107   0.717  11.726
  480TIP3   OH222854   1.220   0.657  10.820
  480TIP3    H122855   1.193   0.713  10.745
  480TIP3    H222856   1.230   0.572  10.772
  481TIP3   OH222857   0.334   0.671  11.340
  481TIP3    H122858   0.335   0.712  11.427
  481TIP3    H222859   0.284   0.590  11.360
  482TIP3   OH222860   0.033   0.412  10.719
  482TIP3    H122861   0.069   0.381  10.805
  482TIP3    H222862   0.049   0.340  10.660
  483TIP3   OH222863   1.140   0.816  11.275
  483TIP3    H122864   1.179   0.747  11.216
  483TIP3    H222865   1.094   0.763  11.342
  484TIP3   OH222866   0.820   0.412  10.757
  484TIP3    H122867   0.727   0.413  10.789
  484TIP3    H222868   0.870   0.398  10.839
  485TIP3   OH222869   0.304   0.568  10.645
  485TIP3    H122870   0.216   0.585  10.605
  485TIP3    H222871   0.330   0.486  10.602
  486TIP3   OH222872   0.665   0.570  10.407
  486TIP3    H122873   0.759   0.585  10.428
  486TIP3    H222874   0.638   0.641  10.346
  487TIP3   OH222875   1.262   0.334  11.082
  487TIP3    H122876   1.194   0.343  11.152
  487TIP3    H222877   1.211   0.308  11.004
  488TIP3   OH222878   0.541   0.688  10.165
  488TIP3    H122879   0.475   0.657  10.100
  488TIP3    H222880   0.615   0.721  10.114
  489TIP3   OH222881   1.582   1.901  11.716
  489TIP3    H122882   1.608   1.939  11.630
  489TIP3    H222883   1.655   1.933  11.771
  490TIP3   OH222884   0.347   1.147  11.673
  490TIP3    H122885   0.421   1.171  11.732
  490TIP3    H222886   0.272   1.158  11.734
  491TIP3   OH222887   0.949   0.688  10.948
  491TIP3    H122888   1.009   0.634  10.895
  491TIP3    H222889   0.934   0.634  11.026
  492TIP3   OH222890   0.452   0.306  10.599
  492TIP3    H122891   0.418   0.216  10.594
  492TIP3    H222892   0.525   0.303  10.535
  493TIP3   OH222893   0.814   0.527  11.188
  493TIP3    H122894   0.730   0.575  11.199
  493TIP3    H222895   0.868   0.558  11.262
  494TIP3   OH222896   0.874   1.135  10.363
  494TIP3    H122897   0.791   1.100  10.322
  494TIP3    H222898   0.849   1.160  10.453
  495TIP3   OH222899   1.591   1.064  11.238
  495TIP3    H122900   1.647   1.112  11.175
  495TIP3    H222901   1.503   1.068  11.194
  496TIP3   OH222902   1.257   0.429  10.178
  496TIP3    H122903   1.164   0.440  10.162
  496TIP3    H222904   1.287   0.516  10.209
  497TIP3   OH222905   1.021   1.171  11.483
  497TIP3    H122906   0.986   1.128  11.562
  497TIP3    H222907   0.995   1.263  11.494
  498TIP3   OH222908   1.327   0.617  10.345
  498TIP3    H122909   1.416   0.605  10.380
  498TIP3    H222910   1.333   0.699  10.293
  499TIP3   OH222911   0.383   1.084  10.938
  499TIP3    H122912   0.450   1.075  10.868
  499TIP3    H222913   0.392   1.000  10.985
  500TIP3   OH222914   0.079   0.922  11.465
  500TIP3    H122915   0.105   0.878  11.549
  500TIP3    H222916   0.020   0.858  11.423
  501TIP3   OH222917   0.783   0.880  11.683
  501TIP3    H122918   0.751   0.849  11.597
  501TIP3    H222919   0.875   0.847  11.683
  502TIP3   OH222920   1.252   1.413  11.478
  502TIP3    H122921   1.159   1.431  11.455
  502TIP3    H222922   1.248   1.443  11.571
  503TIP3   OH222923   1.817   1.218  11.598
  503TIP3    H122924   1.728   1.239  11.562
  503TIP3    H222925   1.872   1.213  11.516
  504TIP3   OH222926   1.369   0.997  11.067
  504TIP3    H122927   1.275   0.976  11.057
  504TIP3    H222928   1.411   0.919  11.025
  505TIP3   OH222929   0.616   1.429  10.680
  505TIP3    H122930   0.669   1.506  10.656
  505TIP3    H222931   0.528   1.450  10.644
  506TIP3   OH222932   0.763   1.193  10.632
  506TIP3    H122933   0.733   1.286  10.637
  506TIP3    H222934   0.689   1.146  10.674
  507TIP3   OH222935   0.808   1.613  11.271
  507TIP3    H122936   0.854   1.694  11.243
  507TIP3    H222937   0.869   1.579  11.338
  508TIP3   OH222938   0.633   1.696  10.590
  508TIP3    H122939   0.535   1.704  10.596
  508TIP3    H222940   0.660   1.784  10.618
  509TIP3   OH222941   1.158   1.213  11.232
  509TIP3    H122942   1.127   1.194  11.323
  509TIP3    H222943   1.223   1.143  11.215
  510TIP3   OH222944   1.441   1.672  11.481
  510TIP3    H122945   1.372   1.622  11.433
  510TIP3    H222946   1.459   1.742  11.415
  511TIP3   OH222947   0.247   0.395  11.418
  511TIP3    H122948   0.159   0.433  11.425
  511TIP3    H222949   0.233   0.309  11.462
  512TIP3   OH222950   1.472   1.187  10.375
  512TIP3    H122951   1.444   1.103  10.419
  512TIP3    H222952   1.568   1.185  10.383
  513TIP3   OH222953   0.222   1.580  11.256
  513TIP3    H122954   0.239   1.485  11.265
  513TIP3    H222955   0.234   1.605  11.349
  514TIP3   OH222956   0.679   1.378  10.238
  514TIP3    H122957   0.715   1.327  10.310
  514TIP3    H222958   0.693   1.472  10.263
  515TIP3   OH222959   1.122   0.373  11.315
  515TIP3    H122960   1.193   0.380  11.380
  515TIP3    H222961   1.084   0.285  11.334
  516TIP3   OH222962   1.204   0.328  10.424
  516TIP3    H122963   1.216   0.383  10.345
  516TIP3    H222964   1.250   0.381  10.491
  517TIP3   OH222965   0.916   0.505  10.506
  517TIP3    H122966   0.995   0.563  10.509
  517TIP3    H222967   0.892   0.495  10.601
  518TIP3   OH222968   0.973   0.609  11.426
  518TIP3    H122969   0.981   0.664  11.506
  518TIP3    H222970   1.039   0.539  11.436
  519TIP3   OH222971   1.003   0.214  10.595
  519TIP3    H122972   0.971   0.279  10.660
  519TIP3    H222973   1.072   0.268  10.550
  520TIP3   OH222974   0.697   1.656  10.308
  520TIP3    H122975   0.718   1.736  10.259
  520TIP3    H222976   0.675   1.687  10.396
  521TIP3   OH222977   1.592   0.395  11.513
  521TIP3    H122978   1.499   0.428  11.499
  521TIP3    H222979   1.621   0.393  11.420
  522TIP3   OH222980   1.453   0.777  10.910
  522TIP3    H122981   1.370   0.732  10.884
  522TIP3    H222982   1.501   0.708  10.962
  523TIP3   OH222983   1.559   1.699  11.075
  523TIP3    H122984   1.549   1.770  11.009
  523TIP3    H222985   1.654   1.708  11.097
  524TIP3   OH222986   0.286   0.128  10.966
  524TIP3    H122987   0.289   0.120  10.867
  524TIP3    H222988   0.265   0.036  10.988
  525TIP3   OH222989   0.204   1.510  10.580
  525TIP3    H122990   0.117   1.547  10.564
  525TIP3    H222991   0.253   1.549  10.504
  526TIP3   OH222992   0.154   1.773  11.701
  526TIP3    H122993   0.195   1.750  11.786
  526TIP3    H222994   0.102   1.692  11.685
  527TIP3   OH222995   0.592   1.661  11.862
  527TIP3    H122996   0.668   1.611  11.895
  527TIP3    H222997   0.589   1.634  11.768
  528TIP3   OH222998   1.242   1.501  11.738
  528TIP3    H122999   1.211   1.412  11.765
  528TIP3    H223000   1.319   1.512  11.797
  529TIP3   OH223001   1.451   1.588  10.017
  529TIP3    H123002   1.475   1.509  10.066
  529TIP3    H223003   1.528   1.616   9.965
  530TIP3   OH223004   0.111   1.148  11.801
  530TIP3    H123005   0.133   1.058  11.768
  530TIP3    H223006   0.040   1.175  11.742
  531TIP3   OH223007   0.786   1.146  11.740
  531TIP3    H123008   0.753   1.178  11.654
  531TIP3    H223009   0.794   1.049  11.729
  532TIP3   OH223010   1.356   1.132  11.479
  532TIP3    H123011   1.435   1.191  11.473
  532TIP3    H223012   1.286   1.199  11.483
  533TIP3   OH223013   0.200   0.869  11.739
  533TIP3    H123014   0.249   0.785  11.730
  533TIP3    H223015   0.183   0.870  11.834
  534TIP3   OH223016   0.678   0.981  10.252
  534TIP3    H123017   0.622   0.927  10.309
  534TIP3    H223018   0.701   0.923  10.177
  535TIP3   OH223019   0.597   0.764  11.475
  535TIP3    H123020   0.537   0.835  11.501
  535TIP3    H223021   0.636   0.801  11.394
  536TIP3   OH223022   1.104   1.021  11.809
  536TIP3    H123023   1.200   1.020  11.796
  536TIP3    H223024   1.087   0.944  11.865
  537TIP3   OH223025   0.639   0.502  11.581
  537TIP3    H123026   0.649   0.431  11.516
  537TIP3    H223027   0.631   0.583  11.526
  538TIP3   OH223028   0.677   0.343  11.333
  538TIP3    H123029   0.729   0.390  11.264
  538TIP3    H223030   0.588   0.332  11.293
  539TIP3   OH223031   0.831   0.889  11.361
  539TIP3    H123032   0.907   0.873  11.303
  539TIP3    H223033   0.795   0.973  11.327
  540TIP3   OH223034   1.271   0.664  11.856
  540TIP3    H123035   1.295   0.571  11.847
  540TIP3    H223036   1.357   0.709  11.860
  541TIP3   OH223037   1.405   0.944  11.673
  541TIP3    H123038   1.380   1.016  11.611
  541TIP3    H223039   1.501   0.941  11.654
  542TIP3   OH223040   0.480   0.629  11.772
  542TIP3    H123041   0.405   0.568  11.756
  542TIP3    H223042   0.547   0.592  11.711
  543TIP3   OH223043   0.742   0.104  11.403
  543TIP3    H123044   0.735   0.197  11.372
  543TIP3    H223045   0.684   0.062  11.338
  544TIP3   OH223046   0.882   0.520  11.736
  544TIP3    H123047   0.854   0.489  11.825
  544TIP3    H223048   0.804   0.496  11.683
  545TIP3   OH223049   1.156   0.433  11.648
  545TIP3    H123050   1.059   0.435  11.659
  545TIP3    H223051   1.184   0.368  11.716
  546TIP3   OH223052   1.315   0.305  11.840
  546TIP3    H123053   1.306   0.207  11.837
  546TIP3    H223054   1.286   0.324  11.930
  547TIP3   OH223055   0.306   0.419  11.751
  547TIP3    H123056   0.320   0.346  11.688
  547TIP3    H223057   0.286   0.372  11.834
  548TIP3   OH223058   0.776   7.324  11.649
  548TIP3    H123059   0.845   7.257  11.653
  548TIP3    H223060   0.766   7.344  11.554
  549TIP3   OH223061   0.817   0.192  11.853
  549TIP3    H123062   0.799   0.135  11.775
  549TIP3    H223063   0.753   0.264  11.846
  550TIP3   OH223064   7.334   1.893  10.608
  550TIP3    H123065   7.249   1.867  10.568
  550TIP3    H223066   7.346   1.821  10.673
  551TIP3   OH223067   0.084   1.693  10.767
  551TIP3    H123068   0.047   1.604  10.791
  551TIP3    H223069   0.123   1.735  10.846
  552TIP3   OH223070   1.831   1.761  11.097
  552TIP3    H123071   1.833   1.780  11.193
  552TIP3    H223072   1.900   1.822  11.067
  553TIP3   OH223073   1.787   1.725  11.392
  553TIP3    H123074   1.741   1.648  11.354
  553TIP3    H223075   1.836   1.680  11.464
  554TIP3   OH223076   1.632   1.297  11.860
  554TIP3    H123077   1.542   1.294  11.896
  554TIP3    H223078   1.669   1.377  11.901
  555TIP3   OH223079   1.763   1.134  10.410
  555TIP3    H123080   1.853   1.170  10.423
  555TIP3    H223081   1.762   1.059  10.471
  556TIP3   OH223082   1.777   1.206  11.091
  556TIP3    H123083   1.863   1.164  11.069
  556TIP3    H223084   1.796   1.302  11.094
  557TIP3   OH223085   1.632   1.497  11.315
  557TIP3    H123086   1.564   1.532  11.376
  557TIP3    H223087   1.574   1.458  11.247
  558TIP3   OH223088   1.582   0.787  10.646
  558TIP3    H123089   1.567   0.691  10.647
  558TIP3    H223090   1.550   0.808  10.736
  559TIP3   OH223091   0.084   0.992  11.047
  559TIP3    H123092   0.104   0.988  10.951
  559TIP3    H223093   0.172   0.981  11.088
  560TIP3   OH223094   1.668   0.981  11.618
  560TIP3    H123095   1.729   0.906  11.631
  560TIP3    H223096   1.729   1.059  11.618
  561TIP3   OH223097   1.818   0.769  11.683
  561TIP3    H123098   1.729   0.730  11.667
  561TIP3    H223099   1.875   0.691  11.674
  562TIP3   OH223100   1.548   0.542  10.492
  562TIP3    H123101   1.578   0.451  10.508
  562TIP3    H223102   1.629   0.585  10.465
  563TIP3   OH223103   1.612   0.599  11.038
  563TIP3    H123104   1.708   0.621  11.037
  563TIP3    H223105   1.594   0.612  11.132
  564TIP3   OH223106   1.618   0.671  11.316
  564TIP3    H123107   1.530   0.700  11.348
  564TIP3    H223108   1.662   0.757  11.295
  565TIP3   OH223109   0.072   0.512  11.669
  565TIP3    H123110   0.161   0.490  11.700
  565TIP3    H223111   0.014   0.442  11.707
  566TIP3   OH223112   1.868   0.082  11.853
  566TIP3    H123113   1.871   0.008  11.790
  566TIP3    H223114   1.841   0.156  11.796
  567TIP3   OH223115   1.622   0.269  10.495
  567TIP3    H123116   1.636   0.233  10.586
  567TIP3    H223117   1.549   0.216  10.464
  568TIP3   OH223118   0.165   0.354  10.949
  568TIP3    H123119   0.208   0.271  10.981
  568TIP3    H223120   0.219   0.421  10.994
  569TIP3   OH223121   0.051   0.728  11.095
  569TIP3    H123122   0.054   0.684  11.007
  569TIP3    H223123   0.058   0.819  11.066
  570TIP3   OH223124   1.802   0.279  11.686
  570TIP3    H123125   1.709   0.312  11.681
  570TIP3    H223126   1.801   0.230  11.602
  571TIP3   OH223127   0.083   0.295  10.438
  571TIP3    H123128  -0.014   0.293  10.433
  571TIP3    H223129   0.095   0.342  10.353
  572TIP3   OH223130   1.502   1.773  10.663
  572TIP3    H123131   1.569   1.746  10.599
  572TIP3    H223132   1.552   1.826  10.725
  573TIP3   OH223133   7.348   0.148  11.322
  573TIP3    H123134   7.268   0.121  11.366
  573TIP3    H223135   7.304   0.191  11.247
  574TIP3   OH223136   0.244   1.467  11.713
  574TIP3    H123137   0.160   1.484  11.670
  574TIP3    H223138   0.219   1.456  11.804
  575TIP3   OH223139   0.541   1.567  11.342
  575TIP3    H123140   0.503   1.651  11.313
  575TIP3    H223141   0.632   1.575  11.308
  576TIP3   OH223142   0.970   1.707  11.629
  576TIP3    H123143   0.983   1.671  11.720
  576TIP3    H223144   1.060   1.737  11.606
  577TIP3   OH223145   1.199   1.833  11.561
  577TIP3    H123146   1.272   1.775  11.537
  577TIP3    H223147   1.236   1.877  11.640
  578TIP3   OH223148   1.702   0.098  11.464
  578TIP3    H123149   1.618   0.128  11.426
  578TIP3    H223150   1.716   0.012  11.417
  579TIP3   OH223151   0.281   1.885  11.338
  579TIP3    H123152   0.208   1.941  11.304
  579TIP3    H223153   0.250   1.870  11.429
  580TIP3   OH223154   0.526   1.844  11.242
  580TIP3    H123155   0.439   1.861  11.285
  580TIP3    H223156   0.524   1.907  11.168
  581TIP3   OH223157   0.998   1.838  11.163
  581TIP3    H123158   0.950   1.894  11.101
  581TIP3    H223159   1.011   1.899  11.238
  582TIP3   OH223160   1.227   1.718  11.267
  582TIP3    H123161   1.141   1.745  11.231
  582TIP3    H223162   1.275   1.802  11.257
  583TIP3   OH223163   1.485   1.875  11.288
  583TIP3    H123164   1.479   1.971  11.265
  583TIP3    H223165   1.506   1.838  11.200
  584TIP3   OH223166   0.232   1.755  11.034
  584TIP3    H123167   0.235   1.714  11.125
  584TIP3    H223168   0.315   1.719  10.995
  585TIP3   OH223169   0.430   1.624  10.901
  585TIP3    H123170   0.420   1.529  10.921
  585TIP3    H223171   0.517   1.640  10.943
  586TIP3   OH223172   0.698   1.674  10.984
  586TIP3    H123173   0.708   1.579  10.961
  586TIP3    H223174   0.696   1.668  11.081
  587TIP3   OH223175   1.028   0.244  10.898
  587TIP3    H123176   0.969   0.172  10.927
  587TIP3    H223177   1.095   0.194  10.849
  588TIP3   OH223178   1.552   0.035  10.895
  588TIP3    H123179   1.614   0.103  10.863
  588TIP3    H223180   1.467   0.082  10.892
  589TIP3   OH223181   1.721   0.167  10.727
  589TIP3    H123182   1.794   0.112  10.698
  589TIP3    H223183   1.767   0.251  10.752
  590TIP3   OH223184   0.278   0.104  10.684
  590TIP3    H123185   0.199   0.076  10.636
  590TIP3    H223186   0.323   0.018  10.693
  591TIP3   OH223187   0.729   0.085  10.663
  591TIP3    H123188   0.815   0.131  10.658
  591TIP3    H223189   0.720   0.070  10.757
  592TIP3   OH223190   1.271   0.131  10.841
  592TIP3    H123191   1.279   0.129  10.746
  592TIP3    H223192   1.258   0.035  10.856
  593TIP3   OH223193   0.137   1.677  10.360
  593TIP3    H123194   0.085   1.675  10.279
  593TIP3    H223195   0.152   1.771  10.371
  594TIP3   OH223196   0.831   0.295  10.351
  594TIP3    H123197   0.866   0.238  10.422
  594TIP3    H223198   0.847   0.381  10.397
  595TIP3   OH223199   1.704   1.745  10.462
  595TIP3    H123200   1.675   1.679  10.401
  595TIP3    H223201   1.697   1.826  10.405
  596TIP3   OH223202   0.254   0.153  11.620
  596TIP3    H123203   0.221   0.078  11.670
  596TIP3    H223204   0.345   0.154  11.658
  597TIP3   OH223205   0.438   0.113  11.783
  597TIP3    H123206   0.532   0.094  11.770
  597TIP3    H223207   0.423   0.027  11.828
  598TIP3   OH223208   1.298   7.360  11.803
  598TIP3    H123209   1.302   7.301  11.880
  598TIP3    H223210   1.385   7.335  11.770
  599TIP3   OH223211   1.626   1.626  11.673
  599TIP3    H123212   1.546   1.613  11.618
  599TIP3    H223213   1.615   1.721  11.694
  600TIP3   OH223214   3.071   1.014  10.671
  600TIP3    H123215   3.070   1.112  10.667
  600TIP3    H223216   2.997   0.993  10.612
  601TIP3   OH223217   2.956   0.939  11.019
  601TIP3    H123218   2.955   0.875  11.092
  601TIP3    H223219   2.921   0.888  10.945
  602TIP3   OH223220   2.191   0.907  11.176
  602TIP3    H123221   2.200   0.839  11.245
  602TIP3    H223222   2.266   0.964  11.198
  603TIP3   OH223223   3.325   1.234  10.849
  603TIP3    H123224   3.284   1.162  10.899
  603TIP3    H223225   3.327   1.305  10.916
  604TIP3   OH223226   2.281   1.351  11.026
  604TIP3    H123227   2.255   1.263  10.994
  604TIP3    H223228   2.378   1.335  11.031
  605TIP3   OH223229   2.019   0.933  10.790
  605TIP3    H123230   2.046   0.850  10.834
  605TIP3    H223231   2.090   0.943  10.724
  606TIP3   OH223232   3.070   1.752  10.905
  606TIP3    H123233   3.102   1.679  10.847
  606TIP3    H223234   3.012   1.707  10.965
  607TIP3   OH223235   2.794   1.179  11.068
  607TIP3    H123236   2.828   1.117  11.002
  607TIP3    H223237   2.875   1.195  11.120
  608TIP3   OH223238   3.654   0.345  11.140
  608TIP3    H123239   3.673   0.403  11.218
  608TIP3    H223240   3.709   0.389  11.074
  609TIP3   OH223241   3.111   0.626  11.100
  609TIP3    H123242   3.126   0.530  11.100
  609TIP3    H223243   3.100   0.641  11.004
  610TIP3   OH223244   2.421   0.437  10.822
  610TIP3    H123245   2.437   0.519  10.773
  610TIP3    H223246   2.385   0.378  10.753
  611TIP3   OH223247   3.195   0.441  10.660
  611TIP3    H123248   3.261   0.414  10.727
  611TIP3    H223249   3.248   0.498  10.604
  612TIP3   OH223250   2.083   0.675  10.895
  612TIP3    H123251   2.151   0.623  10.942
  612TIP3    H223252   2.099   0.644  10.805
  613TIP3   OH223253   2.600   0.831  10.826
  613TIP3    H123254   2.667   0.773  10.866
  613TIP3    H223255   2.549   0.766  10.773
  614TIP3   OH223256   3.692   0.481  11.368
  614TIP3    H123257   3.638   0.562  11.357
  614TIP3    H223258   3.703   0.477  11.463
  615TIP3   OH223259   2.314   0.330  11.223
  615TIP3    H123260   2.282   0.384  11.148
  615TIP3    H223261   2.244   0.349  11.290
  616TIP3   OH223262   3.040   1.269  10.583
  616TIP3    H123263   3.015   1.246  10.492
  616TIP3    H223264   3.015   1.365  10.586
  617TIP3   OH223265   2.564   1.090  11.248
  617TIP3    H123266   2.494   1.154  11.271
  617TIP3    H223267   2.635   1.150  11.219
  618TIP3   OH223268   3.377   0.376  10.853
  618TIP3    H123269   3.354   0.303  10.912
  618TIP3    H223270   3.443   0.422  10.908
  619TIP3   OH223271   2.268   0.517  11.024
  619TIP3    H123272   2.334   0.580  11.060
  619TIP3    H223273   2.321   0.471  10.955
  620TIP3   OH223274   2.410   1.290  11.331
  620TIP3    H123275   2.404   1.381  11.296
  620TIP3    H223276   2.321   1.282  11.375
  621TIP3   OH223277   2.005   1.254  10.410
  621TIP3    H123278   1.994   1.284  10.318
  621TIP3    H223279   2.028   1.336  10.459
  622TIP3   OH223280   3.378   1.418  11.086
  622TIP3    H123281   3.281   1.430  11.097
  622TIP3    H223282   3.405   1.510  11.065
  623TIP3   OH223283   3.415   0.248  11.230
  623TIP3    H123284   3.339   0.304  11.215
  623TIP3    H223285   3.484   0.289  11.173
  624TIP3   OH223286   2.705   0.059  10.957
  624TIP3    H123287   2.703  -0.037  10.970
  624TIP3    H223288   2.625   0.086  11.005
  625TIP3   OH223289   3.205   1.594  10.745
  625TIP3    H123290   3.249   1.524  10.693
  625TIP3    H223291   3.244   1.676  10.707
  626TIP3   OH223292   3.325   1.390  10.599
  626TIP3    H123293   3.296   1.321  10.537
  626TIP3    H223294   3.328   1.339  10.681
  627TIP3   OH223295   3.486   1.249  11.446
  627TIP3    H123296   3.501   1.183  11.374
  627TIP3    H223297   3.508   1.333  11.401
  628TIP3   OH223298   2.936   0.934  10.418
  628TIP3    H123299   2.865   0.994  10.386
  628TIP3    H223300   3.005   0.954  10.355
  629TIP3   OH223301   3.671   0.882  11.251
  629TIP3    H123302   3.608   0.955  11.252
  629TIP3    H223303   3.726   0.900  11.172
  630TIP3   OH223304   3.278   0.953  10.512
  630TIP3    H123305   3.208   0.984  10.574
  630TIP3    H223306   3.329   0.892  10.568
  631TIP3   OH223307   3.273   0.775  11.427
  631TIP3    H123308   3.275   0.857  11.479
  631TIP3    H223309   3.211   0.804  11.357
  632TIP3   OH223310   2.443   1.025  10.707
  632TIP3    H123311   2.411   0.988  10.621
  632TIP3    H223312   2.505   0.956  10.739
  633TIP3   OH223313   2.574   1.363  10.974
  633TIP3    H123314   2.573   1.311  10.892
  633TIP3    H223315   2.652   1.326  11.020
  634TIP3   OH223316   2.475   0.900  11.072
  634TIP3    H123317   2.530   0.910  10.992
  634TIP3    H223318   2.514   0.966  11.133
  635TIP3   OH223319   3.116   1.457  11.142
  635TIP3    H123320   3.088   1.521  11.209
  635TIP3    H223321   3.092   1.371  11.185
  636TIP3   OH223322   2.571   1.342  11.541
  636TIP3    H123323   2.530   1.415  11.592
  636TIP3    H223324   2.502   1.323  11.473
  637TIP3   OH223325   2.265   0.959  11.456
  637TIP3    H123326   2.270   1.025  11.528
  637TIP3    H223327   2.170   0.967  11.436
  638TIP3   OH223328   2.940   1.538  10.629
  638TIP3    H123329   2.982   1.579  10.705
  638TIP3    H223330   2.888   1.619  10.606
  639TIP3   OH223331   2.397   1.546  11.614
  639TIP3    H123332   2.387   1.536  11.517
  639TIP3    H223333   2.306   1.532  11.647
  640TIP3   OH223334   3.544   0.069  10.245
  640TIP3    H123335   3.457   0.064  10.292
  640TIP3    H223336   3.557   0.160  10.224
  641TIP3   OH223337   2.338   0.932  10.467
  641TIP3    H123338   2.309   1.008  10.412
  641TIP3    H223339   2.274   0.865  10.446
  642TIP3   OH223340   1.948   1.171  11.356
  642TIP3    H123341   1.903   1.160  11.272
  642TIP3    H223342   1.957   1.076  11.381
  643TIP3   OH223343   1.923   1.440  11.029
  643TIP3    H123344   2.020   1.433  11.033
  643TIP3    H223345   1.913   1.522  11.082
  644TIP3   OH223346   3.748   1.514  11.604
  644TIP3    H123347   3.736   1.418  11.601
  644TIP3    H223348   3.661   1.539  11.642
  645TIP3   OH223349   2.844   1.468  11.490
  645TIP3    H123350   2.850   1.552  11.541
  645TIP3    H223351   2.757   1.432  11.515
  646TIP3   OH223352   2.843   1.895  10.386
  646TIP3    H123353   2.900   1.827  10.350
  646TIP3    H223354   2.887   1.923  10.471
  647TIP3   OH223355   2.250   1.733  10.656
  647TIP3    H123356   2.267   1.689  10.742
  647TIP3    H223357   2.168   1.689  10.629
  648TIP3   OH223358   3.185   1.754  10.167
  648TIP3    H123359   3.239   1.685  10.124
  648TIP3    H223360   3.195   1.733  10.261
  649TIP3   OH223361   3.160   1.758  10.446
  649TIP3    H123362   3.067   1.766  10.469
  649TIP3    H223363   3.184   1.682  10.501
  650TIP3   OH223364   3.463   0.659  11.650
  650TIP3    H123365   3.415   0.705  11.579
  650TIP3    H223366   3.461   0.567  11.620
  651TIP3   OH223367   2.178   1.298  11.448
  651TIP3    H123368   2.198   1.267  11.539
  651TIP3    H223369   2.089   1.261  11.429
  652TIP3   OH223370   2.443   0.145  11.049
  652TIP3    H123371   2.354   0.139  11.010
  652TIP3    H223372   2.432   0.231  11.094
  653TIP3   OH223373   2.907   0.119  11.388
  653TIP3    H123374   2.950   0.073  11.461
  653TIP3    H223375   2.812   0.107  11.404
  654TIP3   OH223376   3.238   0.496  11.473
  654TIP3    H123377   3.180   0.481  11.551
  654TIP3    H223378   3.222   0.589  11.448
  655TIP3   OH223379   2.455   0.646  11.172
  655TIP3    H123380   2.381   0.645  11.236
  655TIP3    H223381   2.450   0.737  11.134
  656TIP3   OH223382   2.450   0.657  10.658
  656TIP3    H123383   2.357   0.635  10.643
  656TIP3    H223384   2.493   0.628  10.574
  657TIP3   OH223385   2.999   0.704  10.529
  657TIP3    H123386   2.963   0.792  10.504
  657TIP3    H223387   3.075   0.695  10.472
  658TIP3   OH223388   2.909   0.730  11.678
  658TIP3    H123389   2.856   0.652  11.710
  658TIP3    H223390   2.993   0.717  11.726
  659TIP3   OH223391   3.107   0.658  10.818
  659TIP3    H123392   3.078   0.713  10.744
  659TIP3    H223393   3.116   0.572  10.773
  660TIP3   OH223394   2.217   0.672  11.339
  660TIP3    H123395   2.226   0.712  11.427
  660TIP3    H223396   2.172   0.589  11.359
  661TIP3   OH223397   1.885   0.387  10.734
  661TIP3    H123398   1.948   0.382  10.810
  661TIP3    H223399   1.934   0.345  10.664
  662TIP3   OH223400   3.026   0.816  11.275
  662TIP3    H123401   3.064   0.747  11.217
  662TIP3    H223402   2.980   0.763  11.342
  663TIP3   OH223403   2.707   0.413  10.758
  663TIP3    H123404   2.614   0.413  10.788
  663TIP3    H223405   2.756   0.397  10.840
  664TIP3   OH223406   2.184   0.573  10.642
  664TIP3    H123407   2.095   0.577  10.605
  664TIP3    H223408   2.220   0.489  10.607
  665TIP3   OH223409   2.546   0.585  10.421
  665TIP3    H123410   2.644   0.574  10.421
  665TIP3    H223411   2.531   0.634  10.337
  666TIP3   OH223412   3.148   0.334  11.083
  666TIP3    H123413   3.079   0.343  11.152
  666TIP3    H223414   3.097   0.308  11.005
  667TIP3   OH223415   2.419   0.698  10.166
  667TIP3    H123416   2.372   0.653  10.095
  667TIP3    H223417   2.507   0.706  10.124
  668TIP3   OH223418   3.467   1.901  11.715
  668TIP3    H123419   3.494   1.939  11.630
  668TIP3    H223420   3.540   1.933  11.771
  669TIP3   OH223421   2.235   1.147  11.673
  669TIP3    H123422   2.307   1.175  11.733
  669TIP3    H223423   2.159   1.158  11.733
  670TIP3   OH223424   2.835   0.689  10.947
  670TIP3    H123425   2.895   0.634  10.894
  670TIP3    H223426   2.820   0.634  11.026
  671TIP3   OH223427   2.331   0.306  10.589
  671TIP3    H123428   2.307   0.212  10.594
  671TIP3    H223429   2.414   0.301  10.538
  672TIP3   OH223430   2.700   0.527  11.188
  672TIP3    H123431   2.615   0.575  11.199
  672TIP3    H223432   2.754   0.558  11.262
  673TIP3   OH223433   2.758   1.141  10.362
  673TIP3    H123434   2.678   1.098  10.325
  673TIP3    H223435   2.733   1.160  10.455
  674TIP3   OH223436   3.476   1.065  11.240
  674TIP3    H123437   3.534   1.111  11.176
  674TIP3    H223438   3.390   1.069  11.193
  675TIP3   OH223439   2.907   1.171  11.483
  675TIP3    H123440   2.872   1.128  11.562
  675TIP3    H223441   2.881   1.263  11.494
  676TIP3   OH223442   2.268   1.084  10.939
  676TIP3    H123443   2.335   1.075  10.869
  676TIP3    H223444   2.275   0.998  10.985
  677TIP3   OH223445   2.970   1.292  10.280
  677TIP3    H123446   2.929   1.379  10.293
  677TIP3    H223447   2.892   1.233  10.280
  678TIP3   OH223448   1.967   0.924  11.464
  678TIP3    H123449   1.984   0.880  11.550
  678TIP3    H223450   1.905   0.863  11.421
  679TIP3   OH223451   2.669   0.879  11.683
  679TIP3    H123452   2.637   0.849  11.597
  679TIP3    H223453   2.761   0.847  11.683
  680TIP3   OH223454   3.137   1.413  11.478
  680TIP3    H123455   3.045   1.431  11.455
  680TIP3    H223456   3.134   1.443  11.571
  681TIP3   OH223457   3.698   0.633  10.322
  681TIP3    H123458   3.657   0.598  10.242
  681TIP3    H223459   3.715   0.726  10.292
  682TIP3   OH223460   3.703   1.218  11.597
  682TIP3    H123461   3.614   1.240  11.561
  682TIP3    H223462   3.757   1.212  11.516
  683TIP3   OH223463   3.537   1.514  10.358
  683TIP3    H123464   3.494   1.433  10.387
  683TIP3    H223465   3.559   1.499  10.264
  684TIP3   OH223466   3.253   0.997  11.068
  684TIP3    H123467   3.159   0.975  11.056
  684TIP3    H223468   3.297   0.921  11.024
  685TIP3   OH223469   2.505   1.428  10.678
  685TIP3    H123470   2.555   1.509  10.655
  685TIP3    H223471   2.418   1.452  10.643
  686TIP3   OH223472   2.649   1.194  10.634
  686TIP3    H123473   2.616   1.286  10.637
  686TIP3    H223474   2.575   1.146  10.675
  687TIP3   OH223475   2.692   1.614  11.270
  687TIP3    H123476   2.738   1.694  11.241
  687TIP3    H223477   2.754   1.580  11.338
  688TIP3   OH223478   2.518   1.691  10.593
  688TIP3    H123479   2.422   1.711  10.594
  688TIP3    H223480   2.557   1.777  10.616
  689TIP3   OH223481   3.044   1.213  11.232
  689TIP3    H123482   3.012   1.194  11.323
  689TIP3    H223483   3.109   1.143  11.215
  690TIP3   OH223484   3.326   1.672  11.480
  690TIP3    H123485   3.257   1.623  11.432
  690TIP3    H223486   3.344   1.742  11.414
  691TIP3   OH223487   3.728   1.763  10.175
  691TIP3    H123488   3.799   1.821  10.144
  691TIP3    H223489   3.653   1.821  10.192
  692TIP3   OH223490   2.132   0.397  11.424
  692TIP3    H123491   2.041   0.431  11.415
  692TIP3    H223492   2.118   0.307  11.459
  693TIP3   OH223493   3.357   1.179  10.367
  693TIP3    H123494   3.332   1.105  10.424
  693TIP3    H223495   3.452   1.189  10.382
  694TIP3   OH223496   2.093   1.573  11.262
  694TIP3    H123497   2.127   1.483  11.265
  694TIP3    H223498   2.119   1.605  11.349
  695TIP3   OH223499   2.220   1.103  10.285
  695TIP3    H123500   2.152   1.144  10.340
  695TIP3    H223501   2.271   1.182  10.258
  696TIP3   OH223502   3.006   0.375  11.316
  696TIP3    H123503   3.079   0.378  11.379
  696TIP3    H223504   2.970   0.286  11.333
  697TIP3   OH223505   2.806   0.501  10.507
  697TIP3    H123506   2.880   0.565  10.511
  697TIP3    H223507   2.774   0.493  10.599
  698TIP3   OH223508   2.859   0.609  11.426
  698TIP3    H123509   2.867   0.664  11.506
  698TIP3    H223510   2.925   0.539  11.436
  699TIP3   OH223511   2.897   0.211  10.605
  699TIP3    H123512   2.851   0.278  10.659
  699TIP3    H223513   2.955   0.270  10.555
  700TIP3   OH223514   3.477   0.396  11.511
  700TIP3    H123515   3.384   0.428  11.498
  700TIP3    H223516   3.509   0.395  11.419
  701TIP3   OH223517   3.337   0.776  10.914
  701TIP3    H123518   3.256   0.730  10.883
  701TIP3    H223519   3.386   0.706  10.963
  702TIP3   OH223520   2.282   1.362  10.176
  702TIP3    H123521   2.343   1.434  10.203
  702TIP3    H223522   2.332   1.328  10.101
  703TIP3   OH223523   3.444   1.701  11.078
  703TIP3    H123524   3.435   1.769  11.009
  703TIP3    H223525   3.541   1.706  11.096
  704TIP3   OH223526   2.166   0.130  10.961
  704TIP3    H123527   2.176   0.119  10.865
  704TIP3    H223528   2.155   0.038  10.986
  705TIP3   OH223529   2.083   1.503  10.570
  705TIP3    H123530   2.004   1.557  10.568
  705TIP3    H223531   2.137   1.550  10.504
  706TIP3   OH223532   2.008   1.770  11.702
  706TIP3    H123533   2.071   1.750  11.775
  706TIP3    H223534   1.970   1.683  11.684
  707TIP3   OH223535   2.517   1.686  11.843
  707TIP3    H123536   2.547   1.612  11.898
  707TIP3    H223537   2.472   1.635  11.772
  708TIP3   OH223538   3.128   1.501  11.738
  708TIP3    H123539   3.096   1.412  11.765
  708TIP3    H223540   3.204   1.512  11.797
  709TIP3   OH223541   1.999   1.146  11.803
  709TIP3    H123542   2.018   1.056  11.771
  709TIP3    H223543   1.927   1.174  11.744
  710TIP3   OH223544   2.674   1.146  11.739
  710TIP3    H123545   2.637   1.178  11.655
  710TIP3    H223546   2.678   1.048  11.729
  711TIP3   OH223547   3.242   1.132  11.479
  711TIP3    H123548   3.320   1.190  11.473
  711TIP3    H223549   3.172   1.199  11.483
  712TIP3   OH223550   2.092   0.871  11.740
  712TIP3    H123551   2.135   0.786  11.730
  712TIP3    H223552   2.069   0.872  11.834
  713TIP3   OH223553   2.563   0.978  10.246
  713TIP3    H123554   2.507   0.931  10.309
  713TIP3    H223555   2.581   0.911  10.179
  714TIP3   OH223556   2.482   0.763  11.475
  714TIP3    H123557   2.423   0.836  11.500
  714TIP3    H223558   2.522   0.801  11.395
  715TIP3   OH223559   2.990   1.021  11.809
  715TIP3    H123560   3.085   1.020  11.796
  715TIP3    H223561   2.973   0.944  11.865
  716TIP3   OH223562   3.598   1.039  10.011
  716TIP3    H123563   3.577   1.001   9.926
  716TIP3    H223564   3.604   1.133   9.988
  717TIP3   OH223565   2.520   0.501  11.581
  717TIP3    H123566   2.536   0.431  11.515
  717TIP3    H223567   2.518   0.583  11.526
  718TIP3   OH223568   2.563   0.343  11.332
  718TIP3    H123569   2.615   0.390  11.263
  718TIP3    H223570   2.473   0.332  11.292
  719TIP3   OH223571   2.717   0.889  11.361
  719TIP3    H123572   2.792   0.873  11.303
  719TIP3    H223573   2.681   0.973  11.327
  720TIP3   OH223574   3.156   0.664  11.856
  720TIP3    H123575   3.180   0.571  11.847
  720TIP3    H223576   3.243   0.709  11.860
  721TIP3   OH223577   3.291   0.944  11.673
  721TIP3    H123578   3.266   1.016  11.611
  721TIP3    H223579   3.387   0.941  11.654
  722TIP3   OH223580   2.370   0.625  11.775
  722TIP3    H123581   2.292   0.572  11.751
  722TIP3    H223582   2.436   0.594  11.710
  723TIP3   OH223583   2.625   0.104  11.402
  723TIP3    H123584   2.621   0.198  11.372
  723TIP3    H223585   2.570   0.061  11.336
  724TIP3   OH223586   2.767   0.520  11.736
  724TIP3    H123587   2.739   0.489  11.825
  724TIP3    H223588   2.689   0.495  11.683
  725TIP3   OH223589   3.041   0.433  11.648
  725TIP3    H123590   2.945   0.435  11.659
  725TIP3    H223591   3.070   0.368  11.716
  726TIP3   OH223592   3.200   0.311  11.839
  726TIP3    H123593   3.194   0.211  11.835
  726TIP3    H223594   3.172   0.324  11.931
  727TIP3   OH223595   2.175   0.424  11.741
  727TIP3    H123596   2.213   0.354  11.683
  727TIP3    H223597   2.200   0.398  11.831
  728TIP3   OH223598   2.662   7.323  11.648
  728TIP3    H123599   2.731   7.257  11.653
  728TIP3    H223600   2.652   7.345  11.553
  729TIP3   OH223601   2.704   0.191  11.852
  729TIP3    H123602   2.685   0.134  11.775
  729TIP3    H223603   2.642   0.264  11.845
  730TIP3   OH223604   2.004   1.328  10.128
  730TIP3    H123605   2.101   1.348  10.138
  730TIP3    H223606   2.010   1.270  10.050
  731TIP3   OH223607   1.879   1.874  10.617
  731TIP3    H123608   1.809   1.824  10.570
  731TIP3    H223609   1.909   1.809  10.684
  732TIP3   OH223610   1.960   1.685  10.804
  732TIP3    H123611   1.928   1.598  10.828
  732TIP3    H223612   1.987   1.720  10.891
  733TIP3   OH223613   3.716   1.765  11.098
  733TIP3    H123614   3.719   1.781  11.194
  733TIP3    H223615   3.786   1.824  11.068
  734TIP3   OH223616   3.673   1.725  11.393
  734TIP3    H123617   3.626   1.648  11.354
  734TIP3    H223618   3.722   1.680  11.464
  735TIP3   OH223619   3.518   1.297  11.860
  735TIP3    H123620   3.427   1.294  11.896
  735TIP3    H223621   3.555   1.377  11.901
  736TIP3   OH223622   3.649   1.123  10.406
  736TIP3    H123623   3.731   1.169  10.425
  736TIP3    H223624   3.648   1.053  10.474
  737TIP3   OH223625   3.690   0.938  10.591
  737TIP3    H123626   3.613   0.888  10.628
  737TIP3    H223627   3.745   0.950  10.670
  738TIP3   OH223628   3.661   1.206  11.090
  738TIP3    H123629   3.743   1.167  11.054
  738TIP3    H223630   3.677   1.302  11.073
  739TIP3   OH223631   3.517   1.498  11.317
  739TIP3    H123632   3.448   1.532  11.376
  739TIP3    H223633   3.462   1.457  11.246
  740TIP3   OH223634   3.710   0.915  10.233
  740TIP3    H123635   3.670   0.960  10.156
  740TIP3    H223636   3.710   0.991  10.294
  741TIP3   OH223637   3.468   0.785  10.647
  741TIP3    H123638   3.453   0.690  10.646
  741TIP3    H223639   3.436   0.807  10.737
  742TIP3   OH223640   1.968   1.000  11.052
  742TIP3    H123641   1.989   0.982  10.958
  742TIP3    H223642   2.055   0.975  11.091
  743TIP3   OH223643   3.554   0.981  11.618
  743TIP3    H123644   3.616   0.905  11.629
  743TIP3    H223645   3.614   1.059  11.618
  744TIP3   OH223646   3.702   0.769  11.687
  744TIP3    H123647   3.615   0.730  11.667
  744TIP3    H223648   3.761   0.693  11.673
  745TIP3   OH223649   3.431   0.542  10.489
  745TIP3    H123650   3.465   0.453  10.508
  745TIP3    H223651   3.513   0.585  10.460
  746TIP3   OH223652   3.491   0.596  11.039
  746TIP3    H123653   3.588   0.620  11.033
  746TIP3    H223654   3.480   0.611  11.134
  747TIP3   OH223655   3.503   0.672  11.316
  747TIP3    H123656   3.415   0.702  11.348
  747TIP3    H223657   3.549   0.756  11.294
  748TIP3   OH223658   1.928   0.525  11.673
  748TIP3    H123659   2.023   0.506  11.684
  748TIP3    H223660   1.882   0.442  11.694
  749TIP3   OH223661   3.738   0.077  11.853
  749TIP3    H123662   3.760   0.009  11.787
  749TIP3    H223663   3.738   0.159  11.801
  750TIP3   OH223664   3.502   0.273  10.496
  750TIP3    H123665   3.523   0.229  10.582
  750TIP3    H223666   3.441   0.207  10.455
  751TIP3   OH223667   2.047   0.359  10.949
  751TIP3    H123668   2.089   0.274  10.979
  751TIP3    H223669   2.103   0.423  10.995
  752TIP3   OH223670   1.878   0.651  11.059
  752TIP3    H123671   1.934   0.627  10.983
  752TIP3    H223672   1.925   0.732  11.086
  753TIP3   OH223673   3.684   0.280  11.685
  753TIP3    H123674   3.592   0.312  11.680
  753TIP3    H223675   3.688   0.229  11.603
  754TIP3   OH223676   3.385   1.776  10.658
  754TIP3    H123677   3.456   1.744  10.599
  754TIP3    H223678   3.437   1.825  10.725
  755TIP3   OH223679   1.910   0.153  11.299
  755TIP3    H123680   1.840   0.126  11.361
  755TIP3    H223681   1.863   0.211  11.238
  756TIP3   OH223682   2.124   1.449  11.701
  756TIP3    H123683   2.043   1.488  11.667
  756TIP3    H223684   2.118   1.462  11.798
  757TIP3   OH223685   2.422   1.564  11.340
  757TIP3    H123686   2.390   1.651  11.312
  757TIP3    H223687   2.515   1.572  11.310
  758TIP3   OH223688   2.856   1.707  11.629
  758TIP3    H123689   2.869   1.672  11.721
  758TIP3    H223690   2.946   1.737  11.606
  759TIP3   OH223691   3.084   1.833  11.561
  759TIP3    H123692   3.157   1.775  11.537
  759TIP3    H223693   3.122   1.877  11.640
  760TIP3   OH223694   3.587   0.098  11.461
  760TIP3    H123695   3.500   0.126  11.426
  760TIP3    H223696   3.601   0.011  11.417
  761TIP3   OH223697   2.166   1.888  11.339
  761TIP3    H123698   2.093   1.938  11.299
  761TIP3    H223699   2.135   1.870  11.429
  762TIP3   OH223700   2.412   1.846  11.246
  762TIP3    H123701   2.323   1.862  11.285
  762TIP3    H223702   2.408   1.905  11.168
  763TIP3   OH223703   2.881   1.836  11.166
  763TIP3    H123704   2.839   1.891  11.097
  763TIP3    H223705   2.897   1.902  11.236
  764TIP3   OH223706   3.111   1.718  11.266
  764TIP3    H123707   3.027   1.746  11.226
  764TIP3    H223708   3.160   1.801  11.257
  765TIP3   OH223709   3.370   1.875  11.288
  765TIP3    H123710   3.365   1.971  11.265
  765TIP3    H223711   3.392   1.837  11.200
  766TIP3   OH223712   2.112   1.753  11.033
  766TIP3    H123713   2.103   1.706  11.119
  766TIP3    H223714   2.193   1.715  10.994
  767TIP3   OH223715   2.319   1.625  10.900
  767TIP3    H123716   2.305   1.531  10.922
  767TIP3    H223717   2.407   1.641  10.942
  768TIP3   OH223718   2.575   1.672  10.989
  768TIP3    H123719   2.597   1.582  10.958
  768TIP3    H223720   2.585   1.664  11.085
  769TIP3   OH223721   2.913   0.244  10.898
  769TIP3    H123722   2.854   0.172  10.925
  769TIP3    H223723   2.981   0.194  10.849
  770TIP3   OH223724   3.438   0.048  10.912
  770TIP3    H123725   3.501   0.098  10.856
  770TIP3    H223726   3.351   0.081  10.886
  771TIP3   OH223727   3.606   0.170  10.730
  771TIP3    H123728   3.672   0.108  10.695
  771TIP3    H223729   3.658   0.252  10.743
  772TIP3   OH223730   2.164   0.104  10.678
  772TIP3    H123731   2.083   0.075  10.637
  772TIP3    H223732   2.210   0.019  10.692
  773TIP3   OH223733   2.619   0.082  10.660
  773TIP3    H123734   2.701   0.134  10.658
  773TIP3    H223735   2.605   0.071  10.756
  774TIP3   OH223736   3.156   0.131  10.843
  774TIP3    H123737   3.168   0.127  10.748
  774TIP3    H223738   3.145   0.033  10.856
  775TIP3   OH223739   3.308   0.104  10.392
  775TIP3    H123740   3.230   0.157  10.377
  775TIP3    H223741   3.270   0.016  10.410
  776TIP3   OH223742   2.016   1.672  10.366
  776TIP3    H123743   1.972   1.676  10.280
  776TIP3    H223744   2.037   1.767  10.374
  777TIP3   OH223745   3.584   1.755  10.467
  777TIP3    H123746   3.568   1.676  10.408
  777TIP3    H223747   3.583   1.825  10.398
  778TIP3   OH223748   2.133   0.161  11.636
  778TIP3    H123749   2.109   0.071  11.663
  778TIP3    H223750   2.230   0.153  11.657
  779TIP3   OH223751   2.323   0.114  11.786
  779TIP3    H123752   2.418   0.095  11.770
  779TIP3    H223753   2.311   0.026  11.828
  780TIP3   OH223754   3.193   7.370  11.806
  780TIP3    H123755   3.187   7.302  11.876
  780TIP3    H223756   3.274   7.335  11.768
  781TIP3   OH223757   3.512   1.626  11.672
  781TIP3    H123758   3.432   1.613  11.618
  781TIP3    H223759   3.500   1.721  11.694
  782TIP3   OH223760   4.956   1.014  10.671
  782TIP3    H123761   4.956   1.112  10.666
  782TIP3    H223762   4.885   0.991  10.609
  783TIP3   OH223763   4.841   0.939  11.021
  783TIP3    H123764   4.840   0.874  11.093
  783TIP3    H223765   4.807   0.889  10.946
  784TIP3   OH223766   4.086   0.923  11.171
  784TIP3    H123767   4.079   0.845  11.232
  784TIP3    H223768   4.163   0.969  11.205
  785TIP3   OH223769   5.210   1.234  10.849
  785TIP3    H123770   5.169   1.162  10.899
  785TIP3    H223771   5.213   1.305  10.915
  786TIP3   OH223772   4.169   1.351  11.027
  786TIP3    H123773   4.139   1.265  10.994
  786TIP3    H223774   4.265   1.334  11.030
  787TIP3   OH223775   3.836   0.711  10.573
  787TIP3    H123776   3.788   0.795  10.570
  787TIP3    H223777   3.779   0.656  10.518
  788TIP3   OH223778   3.906   0.933  10.786
  788TIP3    H123779   3.929   0.850  10.834
  788TIP3    H223780   3.977   0.939  10.722
  789TIP3   OH223781   4.923   1.750  10.873
  789TIP3    H123782   4.988   1.681  10.843
  789TIP3    H223783   4.901   1.716  10.959
  790TIP3   OH223784   4.679   1.179  11.068
  790TIP3    H123785   4.713   1.117  11.002
  790TIP3    H223786   4.761   1.195  11.119
  791TIP3   OH223787   5.537   0.345  11.140
  791TIP3    H123788   5.557   0.402  11.218
  791TIP3    H223789   5.594   0.388  11.074
  792TIP3   OH223790   4.996   0.626  11.100
  792TIP3    H123791   5.011   0.530  11.100
  792TIP3    H223792   4.986   0.641  11.004
  793TIP3   OH223793   4.311   0.435  10.820
  793TIP3    H123794   4.318   0.520  10.773
  793TIP3    H223795   4.268   0.380  10.751
  794TIP3   OH223796   5.081   0.441  10.659
  794TIP3    H123797   5.147   0.413  10.725
  794TIP3    H223798   5.136   0.499  10.604
  795TIP3   OH223799   3.972   0.679  10.890
  795TIP3    H123800   4.033   0.623  10.943
  795TIP3    H223801   3.982   0.642  10.801
  796TIP3   OH223802   4.486   0.831  10.827
  796TIP3    H123803   4.554   0.774  10.867
  796TIP3    H223804   4.434   0.765  10.778
  797TIP3   OH223805   5.587   0.489  11.367
  797TIP3    H123806   5.521   0.561  11.358
  797TIP3    H223807   5.587   0.475  11.462
  798TIP3   OH223808   4.198   0.331  11.222
  798TIP3    H123809   4.166   0.387  11.149
  798TIP3    H223810   4.129   0.351  11.291
  799TIP3   OH223811   4.927   1.273  10.578
  799TIP3    H123812   4.900   1.248  10.489
  799TIP3    H223813   4.895   1.366  10.584
  800TIP3   OH223814   4.449   1.090  11.248
  800TIP3    H123815   4.379   1.154  11.271
  800TIP3    H223816   4.520   1.150  11.219
  801TIP3   OH223817   5.264   0.375  10.856
  801TIP3    H123818   5.239   0.301  10.911
  801TIP3    H223819   5.327   0.421  10.913
  802TIP3   OH223820   4.156   0.512  11.023
  802TIP3    H123821   4.217   0.579  11.061
  802TIP3    H223822   4.209   0.470  10.952
  803TIP3   OH223823   4.295   1.290  11.331
  803TIP3    H123824   4.290   1.381  11.297
  803TIP3    H223825   4.206   1.282  11.375
  804TIP3   OH223826   5.263   1.418  11.086
  804TIP3    H123827   5.166   1.430  11.098
  804TIP3    H223828   5.290   1.510  11.065
  805TIP3   OH223829   5.299   0.247  11.231
  805TIP3    H123830   5.224   0.306  11.215
  805TIP3    H223831   5.368   0.287  11.174
  806TIP3   OH223832   4.591   0.060  10.955
  806TIP3    H123833   4.588  -0.036  10.969
  806TIP3    H223834   4.511   0.086  11.004
  807TIP3   OH223835   5.091   1.596  10.747
  807TIP3    H123836   5.131   1.524  10.694
  807TIP3    H223837   5.132   1.675  10.705
  808TIP3   OH223838   5.213   1.389  10.595
  808TIP3    H123839   5.183   1.318  10.535
  808TIP3    H223840   5.213   1.340  10.680
  809TIP3   OH223841   5.372   1.249  11.446
  809TIP3    H123842   5.387   1.184  11.374
  809TIP3    H223843   5.392   1.333  11.402
  810TIP3   OH223844   4.820   0.937  10.421
  810TIP3    H123845   4.754   0.999  10.386
  810TIP3    H223846   4.891   0.947  10.355
  811TIP3   OH223847   4.835   0.796  10.126
  811TIP3    H123848   4.902   0.788  10.194
  811TIP3    H223849   4.854   0.722  10.067
  812TIP3   OH223850   5.561   0.881  11.250
  812TIP3    H123851   5.494   0.953  11.255
  812TIP3    H223852   5.610   0.904  11.169
  813TIP3   OH223853   5.163   0.953  10.514
  813TIP3    H123854   5.093   0.984  10.576
  813TIP3    H223855   5.215   0.893  10.569
  814TIP3   OH223856   5.160   0.775  11.427
  814TIP3    H123857   5.160   0.857  11.479
  814TIP3    H223858   5.097   0.804  11.358
  815TIP3   OH223859   4.330   1.025  10.706
  815TIP3    H123860   4.295   0.984  10.626
  815TIP3    H223861   4.391   0.957  10.741
  816TIP3   OH223862   4.460   1.363  10.974
  816TIP3    H123863   4.460   1.311  10.892
  816TIP3    H223864   4.538   1.327  11.020
  817TIP3   OH223865   4.363   0.900  11.072
  817TIP3    H123866   4.419   0.911  10.993
  817TIP3    H223867   4.399   0.967  11.134
  818TIP3   OH223868   5.003   1.457  11.143
  818TIP3    H123869   4.974   1.520  11.209
  818TIP3    H223870   4.977   1.371  11.185
  819TIP3   OH223871   4.456   1.342  11.542
  819TIP3    H123872   4.415   1.416  11.591
  819TIP3    H223873   4.389   1.322  11.472
  820TIP3   OH223874   5.057   0.875  10.281
  820TIP3    H123875   5.108   0.897  10.363
  820TIP3    H223876   5.096   0.932  10.214
  821TIP3   OH223877   4.152   0.960  11.457
  821TIP3    H123878   4.154   1.026  11.529
  821TIP3    H223879   4.057   0.965  11.435
  822TIP3   OH223880   4.827   1.553  10.625
  822TIP3    H123881   4.869   1.583  10.707
  822TIP3    H223882   4.768   1.625  10.602
  823TIP3   OH223883   4.281   1.546  11.616
  823TIP3    H123884   4.275   1.536  11.520
  823TIP3    H223885   4.188   1.532  11.643
  824TIP3   OH223886   5.422   0.063  10.246
  824TIP3    H123887   5.337   0.072  10.292
  824TIP3    H223888   5.443   0.155  10.226
  825TIP3   OH223889   3.834   1.170  11.358
  825TIP3    H123890   3.790   1.162  11.271
  825TIP3    H223891   3.843   1.074  11.378
  826TIP3   OH223892   3.810   1.443  11.037
  826TIP3    H123893   3.906   1.432  11.032
  826TIP3    H223894   3.802   1.526  11.086
  827TIP3   OH223895   5.634   1.514  11.604
  827TIP3    H123896   5.622   1.418  11.601
  827TIP3    H223897   5.547   1.539  11.642
  828TIP3   OH223898   4.729   1.468  11.490
  828TIP3    H123899   4.735   1.552  11.541
  828TIP3    H223900   4.642   1.432  11.515
  829TIP3   OH223901   4.770   1.842  10.468
  829TIP3    H123902   4.761   1.833  10.371
  829TIP3    H223903   4.777   1.938  10.485
  830TIP3   OH223904   4.136   1.731  10.655
  830TIP3    H123905   4.151   1.687  10.742
  830TIP3    H223906   4.053   1.690  10.627
  831TIP3   OH223907   5.045   1.759  10.446
  831TIP3    H123908   4.950   1.765  10.467
  831TIP3    H223909   5.073   1.684  10.501
  832TIP3   OH223910   5.349   0.659  11.651
  832TIP3    H123911   5.301   0.705  11.579
  832TIP3    H223912   5.347   0.567  11.620
  833TIP3   OH223913   4.062   1.302  11.450
  833TIP3    H123914   4.084   1.265  11.538
  833TIP3    H223915   3.975   1.262  11.430
  834TIP3   OH223916   4.328   0.146  11.050
  834TIP3    H123917   4.239   0.140  11.010
  834TIP3    H223918   4.316   0.232  11.095
  835TIP3   OH223919   4.793   0.118  11.388
  835TIP3    H123920   4.835   0.076  11.462
  835TIP3    H223921   4.697   0.107  11.403
  836TIP3   OH223922   5.124   0.496  11.473
  836TIP3    H123923   5.065   0.481  11.551
  836TIP3    H223924   5.107   0.589  11.448
  837TIP3   OH223925   4.759   0.371  10.117
  837TIP3    H123926   4.727   0.366  10.209
  837TIP3    H223927   4.732   0.285  10.085
  838TIP3   OH223928   4.340   0.647  11.172
  838TIP3    H123929   4.267   0.643  11.237
  838TIP3    H223930   4.333   0.737  11.134
  839TIP3   OH223931   4.335   0.661  10.658
  839TIP3    H123932   4.242   0.634  10.643
  839TIP3    H223933   4.375   0.627  10.575
  840TIP3   OH223934   4.888   0.707  10.533
  840TIP3    H123935   4.849   0.791  10.499
  840TIP3    H223936   4.959   0.690  10.468
  841TIP3   OH223937   4.795   0.729  11.678
  841TIP3    H123938   4.742   0.652  11.709
  841TIP3    H223939   4.878   0.717  11.726
  842TIP3   OH223940   4.993   0.657  10.820
  842TIP3    H123941   4.964   0.713  10.746
  842TIP3    H223942   5.002   0.573  10.773
  843TIP3   OH223943   4.157   0.642  11.395
  843TIP3    H123944   4.113   0.719  11.433
  843TIP3    H223945   4.075   0.604  11.354
  844TIP3   OH223946   4.440   0.412  10.025
  844TIP3    H123947   4.394   0.369  10.098
  844TIP3    H223948   4.370   0.453   9.974
  845TIP3   OH223949   3.768   0.383  10.734
  845TIP3    H123950   3.835   0.384  10.807
  845TIP3    H223951   3.816   0.345  10.660
  846TIP3   OH223952   3.895   0.455  10.277
  846TIP3    H123953   3.943   0.514  10.217
  846TIP3    H223954   3.827   0.517  10.308
  847TIP3   OH223955   4.914   0.816  11.276
  847TIP3    H123956   4.950   0.747  11.216
  847TIP3    H223957   4.865   0.763  11.342
  848TIP3   OH223958   4.593   0.415  10.756
  848TIP3    H123959   4.499   0.412  10.787
  848TIP3    H223960   4.642   0.398  10.839
  849TIP3   OH223961   4.074   0.569  10.640
  849TIP3    H123962   3.983   0.582  10.604
  849TIP3    H223963   4.101   0.484  10.603
  850TIP3   OH223964   4.435   0.577  10.410
  850TIP3    H123965   4.532   0.581  10.425
  850TIP3    H223966   4.420   0.642  10.340
  851TIP3   OH223967   5.033   0.335  11.082
  851TIP3    H123968   4.964   0.343  11.152
  851TIP3    H223969   4.983   0.308  11.004
  852TIP3   OH223970   5.353   1.901  11.715
  852TIP3    H123971   5.379   1.939  11.630
  852TIP3    H223972   5.425   1.933  11.771
  853TIP3   OH223973   4.120   1.148  11.672
  853TIP3    H123974   4.192   1.172  11.732
  853TIP3    H223975   4.043   1.156  11.732
  854TIP3   OH223976   4.722   0.689  10.948
  854TIP3    H123977   4.781   0.634  10.895
  854TIP3    H223978   4.705   0.634  11.026
  855TIP3   OH223979   4.220   0.308  10.586
  855TIP3    H123980   4.191   0.215  10.593
  855TIP3    H223981   4.300   0.298  10.534
  856TIP3   OH223982   4.584   0.527  11.187
  856TIP3    H123983   4.499   0.575  11.199
  856TIP3    H223984   4.639   0.558  11.262
  857TIP3   OH223985   4.641   1.141  10.357
  857TIP3    H123986   4.561   1.098  10.329
  857TIP3    H223987   4.624   1.159  10.451
  858TIP3   OH223988   5.362   1.064  11.239
  858TIP3    H123989   5.418   1.112  11.176
  858TIP3    H223990   5.276   1.069  11.193
  859TIP3   OH223991   5.029   0.429  10.173
  859TIP3    H123992   4.932   0.437  10.158
  859TIP3    H223993   5.057   0.514  10.212
  860TIP3   OH223994   4.792   1.171  11.484
  860TIP3    H123995   4.758   1.128  11.562
  860TIP3    H223996   4.767   1.263  11.494
  861TIP3   OH223997   5.103   0.616  10.344
  861TIP3    H123998   5.193   0.604  10.381
  861TIP3    H223999   5.108   0.699  10.292
  862TIP3   OH224000   4.156   1.084  10.939
  862TIP3    H124001   4.225   1.073  10.871
  862TIP3    H224002   4.158   0.998  10.986
  863TIP3   OH224003   4.854   1.291  10.271
  863TIP3    H124004   4.818   1.378  10.297
  863TIP3    H224005   4.777   1.233  10.282
  864TIP3   OH224006   3.849   0.928  11.469
  864TIP3    H124007   3.871   0.878  11.549
  864TIP3    H224008   3.796   0.862  11.418
  865TIP3   OH224009   4.556   0.882  11.684
  865TIP3    H124010   4.522   0.849  11.598
  865TIP3    H224011   4.648   0.847  11.682
  866TIP3   OH224012   5.023   1.413  11.478
  866TIP3    H124013   4.931   1.431  11.455
  866TIP3    H224014   5.020   1.443  11.571
  867TIP3   OH224015   5.588   1.218  11.598
  867TIP3    H124016   5.499   1.240  11.561
  867TIP3    H224017   5.643   1.212  11.516
  868TIP3   OH224018   5.139   0.996  11.067
  868TIP3    H124019   5.045   0.975  11.057
  868TIP3    H224020   5.182   0.920  11.024
  869TIP3   OH224021   4.390   1.426  10.673
  869TIP3    H124022   4.440   1.507  10.657
  869TIP3    H224023   4.302   1.455  10.645
  870TIP3   OH224024   4.533   1.194  10.629
  870TIP3    H124025   4.504   1.287  10.637
  870TIP3    H224026   4.461   1.147  10.675
  871TIP3   OH224027   4.578   1.614  11.271
  871TIP3    H124028   4.624   1.694  11.242
  871TIP3    H224029   4.640   1.580  11.338
  872TIP3   OH224030   4.401   1.689  10.590
  872TIP3    H124031   4.304   1.708  10.594
  872TIP3    H224032   4.437   1.776  10.614
  873TIP3   OH224033   4.930   1.213  11.232
  873TIP3    H124034   4.898   1.194  11.323
  873TIP3    H224035   4.994   1.143  11.215
  874TIP3   OH224036   5.212   1.672  11.481
  874TIP3    H124037   5.143   1.622  11.433
  874TIP3    H224038   5.230   1.742  11.415
  875TIP3   OH224039   4.018   0.391  11.423
  875TIP3    H124040   3.931   0.434  11.415
  875TIP3    H224041   4.002   0.306  11.466
  876TIP3   OH224042   5.240   1.182  10.370
  876TIP3    H124043   5.217   1.102  10.420
  876TIP3    H224044   5.337   1.184  10.382
  877TIP3   OH224045   3.979   1.576  11.263
  877TIP3    H124046   4.010   1.483  11.263
  877TIP3    H224047   4.006   1.605  11.351
  878TIP3   OH224048   4.892   0.373  11.316
  878TIP3    H124049   4.964   0.380  11.379
  878TIP3    H224050   4.855   0.285  11.334
  879TIP3   OH224051   4.973   0.331  10.427
  879TIP3    H124052   4.991   0.377  10.342
  879TIP3    H224053   5.026   0.381  10.490
  880TIP3   OH224054   4.737   1.553  10.313
  880TIP3    H124055   4.649   1.597  10.311
  880TIP3    H224056   4.785   1.597  10.244
  881TIP3   OH224057   4.689   0.505  10.507
  881TIP3    H124058   4.767   0.564  10.510
  881TIP3    H224059   4.664   0.495  10.601
  882TIP3   OH224060   4.746   0.609  11.425
  882TIP3    H124061   4.752   0.664  11.506
  882TIP3    H224062   4.811   0.539  11.436
  883TIP3   OH224063   4.776   0.214  10.599
  883TIP3    H124064   4.742   0.281  10.661
  883TIP3    H224065   4.843   0.268  10.550
  884TIP3   OH224066   4.476   1.655  10.311
  884TIP3    H124067   4.484   1.735  10.255
  884TIP3    H224068   4.447   1.688  10.398
  885TIP3   OH224069   4.341   0.320  10.266
  885TIP3    H124070   4.335   0.410  10.304
  885TIP3    H224071   4.433   0.297  10.291
  886TIP3   OH224072   5.362   0.396  11.511
  886TIP3    H124073   5.269   0.428  11.498
  886TIP3    H224074   5.392   0.393  11.418
  887TIP3   OH224075   5.221   0.775  10.912
  887TIP3    H124076   5.140   0.730  10.884
  887TIP3    H224077   5.270   0.706  10.963
  888TIP3   OH224078   5.330   1.701  11.079
  888TIP3    H124079   5.320   1.770  11.011
  888TIP3    H224080   5.426   1.706  11.096
  889TIP3   OH224081   4.056   0.129  10.965
  889TIP3    H124082   4.060   0.118  10.867
  889TIP3    H224083   4.039   0.037  10.986
  890TIP3   OH224084   3.975   1.509  10.575
  890TIP3    H124085   3.888   1.550  10.568
  890TIP3    H224086   4.020   1.552  10.501
  891TIP3   OH224087   3.894   1.771  11.703
  891TIP3    H124088   3.955   1.750  11.776
  891TIP3    H224089   3.855   1.683  11.684
  892TIP3   OH224090   4.363   1.662  11.863
  892TIP3    H124091   4.439   1.612  11.896
  892TIP3    H224092   4.360   1.634  11.769
  893TIP3   OH224093   5.013   1.501  11.738
  893TIP3    H124094   4.982   1.412  11.765
  893TIP3    H224095   5.090   1.512  11.797
  894TIP3   OH224096   3.886   1.147  11.801
  894TIP3    H124097   3.902   1.056  11.771
  894TIP3    H224098   3.812   1.173  11.744
  895TIP3   OH224099   4.558   1.147  11.740
  895TIP3    H124100   4.524   1.177  11.654
  895TIP3    H224101   4.565   1.049  11.729
  896TIP3   OH224102   4.865   1.284   9.982
  896TIP3    H124103   4.836   1.305  10.072
  896TIP3    H224104   4.841   1.192   9.972
  897TIP3   OH224105   5.127   1.132  11.479
  897TIP3    H124106   5.206   1.190  11.473
  897TIP3    H224107   5.057   1.199  11.483
  898TIP3   OH224108   3.979   0.871  11.741
  898TIP3    H124109   4.019   0.784  11.729
  898TIP3    H224110   3.955   0.870  11.835
  899TIP3   OH224111   4.380   0.773  11.483
  899TIP3    H124112   4.306   0.833  11.499
  899TIP3    H224113   4.405   0.800  11.393
  900TIP3   OH224114   4.875   1.021  11.809
  900TIP3    H124115   4.971   1.020  11.796
  900TIP3    H224116   4.858   0.944  11.865
  901TIP3   OH224117   4.408   0.503  11.580
  901TIP3    H124118   4.419   0.432  11.515
  901TIP3    H224119   4.400   0.583  11.524
  902TIP3   OH224120   4.448   0.342  11.332
  902TIP3    H124121   4.500   0.390  11.263
  902TIP3    H224122   4.357   0.335  11.293
  903TIP3   OH224123   4.603   0.890  11.361
  903TIP3    H124124   4.677   0.872  11.302
  903TIP3    H224125   4.566   0.973  11.327
  904TIP3   OH224126   5.042   0.664  11.856
  904TIP3    H124127   5.066   0.571  11.847
  904TIP3    H224128   5.129   0.709  11.860
  905TIP3   OH224129   5.177   0.945  11.674
  905TIP3    H124130   5.151   1.016  11.611
  905TIP3    H224131   5.273   0.941  11.654
  906TIP3   OH224132   4.255   0.626  11.774
  906TIP3    H124133   4.177   0.571  11.753
  906TIP3    H224134   4.320   0.592  11.710
  907TIP3   OH224135   4.513   0.104  11.403
  907TIP3    H124136   4.507   0.198  11.373
  907TIP3    H224137   4.455   0.062  11.337
  908TIP3   OH224138   4.652   0.520  11.736
  908TIP3    H124139   4.625   0.489  11.824
  908TIP3    H224140   4.574   0.497  11.683
  909TIP3   OH224141   4.927   0.433  11.648
  909TIP3    H124142   4.830   0.435  11.659
  909TIP3    H224143   4.955   0.369  11.716
  910TIP3   OH224144   5.086   0.304  11.840
  910TIP3    H124145   5.077   0.206  11.837
  910TIP3    H224146   5.057   0.324  11.930
  911TIP3   OH224147   4.061   0.420  11.749
  911TIP3    H124148   4.088   0.348  11.689
  911TIP3    H224149   4.055   0.374  11.835
  912TIP3   OH224150   4.548   7.324  11.649
  912TIP3    H124151   4.616   7.257  11.653
  912TIP3    H224152   4.537   7.345  11.553
  913TIP3   OH224153   4.589   0.192  11.853
  913TIP3    H124154   4.570   0.135  11.775
  913TIP3    H224155   4.525   0.264  11.846
  914TIP3   OH224156   4.536   1.875  10.172
  914TIP3    H124157   4.631   1.888  10.181
  914TIP3    H224158   4.507   1.938  10.104
  915TIP3   OH224159   3.764   1.873  10.621
  915TIP3    H124160   3.696   1.823  10.571
  915TIP3    H224161   3.794   1.805  10.684
  916TIP3   OH224162   3.848   1.685  10.805
  916TIP3    H124163   3.812   1.598  10.825
  916TIP3    H224164   3.871   1.718  10.893
  917TIP3   OH224165   5.602   1.764  11.098
  917TIP3    H124166   5.605   1.782  11.194
  917TIP3    H224167   5.672   1.823  11.067
  918TIP3   OH224168   5.559   1.725  11.393
  918TIP3    H124169   5.512   1.648  11.354
  918TIP3    H224170   5.608   1.680  11.464
  919TIP3   OH224171   5.403   1.297  11.860
  919TIP3    H124172   5.313   1.294  11.896
  919TIP3    H224173   5.441   1.377  11.901
  920TIP3   OH224174   5.534   1.129  10.404
  920TIP3    H124175   5.620   1.167  10.421
  920TIP3    H224176   5.537   1.053  10.467
  921TIP3   OH224177   5.573   0.940  10.591
  921TIP3    H124178   5.499   0.886  10.625
  921TIP3    H224179   5.631   0.947  10.668
  922TIP3   OH224180   5.546   1.207  11.090
  922TIP3    H124181   5.628   1.171  11.052
  922TIP3    H224182   5.561   1.303  11.073
  923TIP3   OH224183   5.403   1.497  11.317
  923TIP3    H124184   5.334   1.532  11.376
  923TIP3    H224185   5.348   1.457  11.246
  924TIP3   OH224186   5.350   0.786  10.649
  924TIP3    H124187   5.340   0.690  10.644
  924TIP3    H224188   5.318   0.806  10.739
  925TIP3   OH224189   3.854   1.001  11.053
  925TIP3    H124190   3.872   0.984  10.958
  925TIP3    H224191   3.940   0.972  11.091
  926TIP3   OH224192   5.439   0.981  11.618
  926TIP3    H124193   5.500   0.906  11.631
  926TIP3    H224194   5.500   1.059  11.618
  927TIP3   OH224195   5.589   0.770  11.683
  927TIP3    H124196   5.501   0.730  11.667
  927TIP3    H224197   5.646   0.691  11.675
  928TIP3   OH224198   5.320   0.545  10.492
  928TIP3    H124199   5.350   0.451  10.505
  928TIP3    H224200   5.402   0.582  10.457
  929TIP3   OH224201   5.385   0.600  11.037
  929TIP3    H124202   5.481   0.621  11.036
  929TIP3    H224203   5.365   0.611  11.132
  930TIP3   OH224204   5.389   0.672  11.316
  930TIP3    H124205   5.301   0.699  11.349
  930TIP3    H224206   5.432   0.758  11.296
  931TIP3   OH224207   3.814   0.525  11.675
  931TIP3    H124208   3.908   0.503  11.685
  931TIP3    H224209   3.771   0.440  11.695
  932TIP3   OH224210   5.624   0.077  11.853
  932TIP3    H124211   5.647   0.010  11.787
  932TIP3    H224212   5.624   0.159  11.801
  933TIP3   OH224213   5.377   0.276  10.504
  933TIP3    H124214   5.406   0.226  10.583
  933TIP3    H224215   5.324   0.209  10.455
  934TIP3   OH224216   3.933   0.357  10.948
  934TIP3    H124217   3.976   0.275  10.979
  934TIP3    H224218   3.986   0.423  10.995
  935TIP3   OH224219   3.741   0.666  11.023
  935TIP3    H124220   3.818   0.625  10.980
  935TIP3    H224221   3.798   0.717  11.086
  936TIP3   OH224222   5.570   0.282  11.684
  936TIP3    H124223   5.477   0.312  11.680
  936TIP3    H224224   5.574   0.229  11.603
  937TIP3   OH224225   3.800   0.272  10.464
  937TIP3    H124226   3.706   0.295  10.455
  937TIP3    H224227   3.843   0.325  10.394
  938TIP3   OH224228   5.273   1.773  10.662
  938TIP3    H124229   5.339   1.741  10.601
  938TIP3    H224230   5.326   1.824  10.725
  939TIP3   OH224231   3.795   0.149  11.296
  939TIP3    H124232   3.727   0.128  11.362
  939TIP3    H224233   3.748   0.211  11.237
  940TIP3   OH224234   4.019   1.463  11.711
  940TIP3    H124235   3.935   1.484  11.667
  940TIP3    H224236   3.992   1.456  11.803
  941TIP3   OH224237   4.309   1.565  11.339
  941TIP3    H124238   4.276   1.651  11.312
  941TIP3    H224239   4.402   1.573  11.309
  942TIP3   OH224240   4.741   1.707  11.630
  942TIP3    H124241   4.755   1.671  11.720
  942TIP3    H224242   4.831   1.737  11.606
  943TIP3   OH224243   4.970   1.833  11.561
  943TIP3    H124244   5.043   1.775  11.537
  943TIP3    H224245   5.007   1.877  11.640
  944TIP3   OH224246   5.472   0.097  11.462
  944TIP3    H124247   5.387   0.128  11.425
  944TIP3    H224248   5.487   0.012  11.416
  945TIP3   OH224249   4.051   1.888  11.339
  945TIP3    H124250   3.978   1.938  11.299
  945TIP3    H224251   4.020   1.869  11.428
  946TIP3   OH224252   4.298   1.846  11.246
  946TIP3    H124253   4.209   1.861  11.285
  946TIP3    H224254   4.293   1.905  11.169
  947TIP3   OH224255   4.769   1.837  11.163
  947TIP3    H124256   4.723   1.893  11.098
  947TIP3    H224257   4.782   1.900  11.237
  948TIP3   OH224258   4.998   1.718  11.266
  948TIP3    H124259   4.912   1.746  11.229
  948TIP3    H224260   5.046   1.801  11.257
  949TIP3   OH224261   5.256   1.875  11.288
  949TIP3    H124262   5.251   1.971  11.265
  949TIP3    H224263   5.278   1.837  11.200
  950TIP3   OH224264   3.997   1.753  11.033
  950TIP3    H124265   3.989   1.707  11.119
  950TIP3    H224266   4.079   1.715  10.994
  951TIP3   OH224267   4.205   1.623  10.898
  951TIP3    H124268   4.188   1.530  10.921
  951TIP3    H224269   4.290   1.639  10.943
  952TIP3   OH224270   4.465   1.672  10.986
  952TIP3    H124271   4.481   1.579  10.960
  952TIP3    H224272   4.468   1.665  11.083
  953TIP3   OH224273   4.799   0.244  10.898
  953TIP3    H124274   4.740   0.172  10.927
  953TIP3    H224275   4.867   0.194  10.849
  954TIP3   OH224276   5.322   0.045  10.912
  954TIP3    H124277   5.385   0.099  10.859
  954TIP3    H224278   5.236   0.080  10.887
  955TIP3   OH224279   5.490   0.164  10.733
  955TIP3    H124280   5.557   0.109  10.693
  955TIP3    H224281   5.538   0.249  10.748
  956TIP3   OH224282   4.046   0.106  10.685
  956TIP3    H124283   3.967   0.077  10.636
  956TIP3    H224284   4.091   0.019  10.690
  957TIP3   OH224285   3.927   0.079  10.262
  957TIP3    H124286   3.963   0.146  10.202
  957TIP3    H224287   3.862   0.130  10.314
  958TIP3   OH224288   4.501   0.086  10.664
  958TIP3    H124289   4.586   0.131  10.659
  958TIP3    H224290   4.491   0.070  10.758
  959TIP3   OH224291   5.040   0.131  10.842
  959TIP3    H124292   5.054   0.128  10.747
  959TIP3    H224293   5.031   0.034  10.855
  960TIP3   OH224294   5.192   0.101  10.400
  960TIP3    H124295   5.119   0.158  10.373
  960TIP3    H224296   5.149   0.015  10.411
  961TIP3   OH224297   3.910   1.674  10.365
  961TIP3    H124298   3.854   1.669  10.284
  961TIP3    H224299   3.919   1.771  10.369
  962TIP3   OH224300   4.113   0.312  10.095
  962TIP3    H124301   4.148   0.230  10.056
  962TIP3    H224302   4.170   0.313  10.173
  963TIP3   OH224303   4.605   0.297  10.352
  963TIP3    H124304   4.637   0.237  10.421
  963TIP3    H224305   4.619   0.383  10.398
  964TIP3   OH224306   4.807   1.801  10.194
  964TIP3    H124307   4.893   1.834  10.171
  964TIP3    H224308   4.778   1.754  10.114
  965TIP3   OH224309   4.025   0.149  11.619
  965TIP3    H124310   3.992   0.076  11.672
  965TIP3    H224311   4.116   0.155  11.659
  966TIP3   OH224312   4.210   0.115  11.784
  966TIP3    H124313   4.304   0.094  11.771
  966TIP3    H224314   4.193   0.029  11.828
  967TIP3   OH224315   5.067   7.359  11.801
  967TIP3    H124316   5.073   7.303  11.881
  967TIP3    H224317   5.157   7.337  11.770
  968TIP3   OH224318   5.398   1.626  11.672
  968TIP3    H124319   5.317   1.613  11.618
  968TIP3    H224320   5.386   1.721  11.694
  969TIP3   OH224321   6.840   1.012  10.673
  969TIP3    H124322   6.843   1.110  10.667
  969TIP3    H224323   6.770   0.992  10.609
  970TIP3   OH224324   6.720   0.942  11.021
  970TIP3    H124325   6.729   0.875  11.091
  970TIP3    H224326   6.699   0.887  10.944
  971TIP3   OH224327   5.965   0.907  11.173
  971TIP3    H124328   5.969   0.838  11.244
  971TIP3    H224329   6.036   0.965  11.202
  972TIP3   OH224330   7.100   1.233  10.851
  972TIP3    H124331   7.055   1.160  10.897
  972TIP3    H224332   7.096   1.303  10.917
  973TIP3   OH224333   6.054   1.351  11.026
  973TIP3    H124334   6.022   1.266  10.992
  973TIP3    H224335   6.150   1.336  11.030
  974TIP3   OH224336   5.790   0.928  10.784
  974TIP3    H124337   5.818   0.849  10.832
  974TIP3    H224338   5.864   0.946  10.725
  975TIP3   OH224339   6.810   1.752  10.872
  975TIP3    H124340   6.871   1.680  10.843
  975TIP3    H224341   6.784   1.717  10.958
  976TIP3   OH224342   6.577   1.182  11.066
  976TIP3    H124343   6.616   1.119  11.003
  976TIP3    H224344   6.657   1.195  11.122
  977TIP3   OH224345   6.883   0.627  11.100
  977TIP3    H124346   6.898   0.531  11.098
  977TIP3    H224347   6.873   0.642  11.004
  978TIP3   OH224348   6.969   0.447  10.661
  978TIP3    H124349   7.035   0.414  10.727
  978TIP3    H224350   7.028   0.498  10.603
  979TIP3   OH224351   6.369   0.833  10.833
  979TIP3    H124352   6.440   0.773  10.864
  979TIP3    H224353   6.322   0.768  10.775
  980TIP3   OH224354   6.086   0.332  11.225
  980TIP3    H124355   6.052   0.384  11.150
  980TIP3    H224356   6.014   0.348  11.292
  981TIP3   OH224357   6.813   1.270  10.579
  981TIP3    H124358   6.787   1.246  10.489
  981TIP3    H224359   6.784   1.364  10.587
  982TIP3   OH224360   6.333   1.093  11.245
  982TIP3    H124361   6.262   1.151  11.279
  982TIP3    H224362   6.408   1.154  11.246
  983TIP3   OH224363   7.118   0.370  10.867
  983TIP3    H124364   7.119   0.292  10.923
  983TIP3    H224365   7.193   0.420  10.905
  984TIP3   OH224366   6.040   0.514  11.020
  984TIP3    H124367   6.102   0.580  11.057
  984TIP3    H224368   6.091   0.469  10.952
  985TIP3   OH224369   6.180   1.289  11.327
  985TIP3    H124370   6.175   1.382  11.299
  985TIP3    H224371   6.093   1.282  11.375
  986TIP3   OH224372   7.130   1.412  11.094
  986TIP3    H124373   7.033   1.428  11.100
  986TIP3    H224374   7.162   1.499  11.068
  987TIP3   OH224375   7.160   0.262  11.199
  987TIP3    H124376   7.091   0.330  11.208
  987TIP3    H224377   7.238   0.308  11.168
  988TIP3   OH224378   6.477   0.059  10.955
  988TIP3    H124379   6.474  -0.037  10.970
  988TIP3    H224380   6.397   0.086  11.004
  989TIP3   OH224381   6.971   1.587  10.753
  989TIP3    H124382   7.015   1.520  10.696
  989TIP3    H224383   7.009   1.667  10.711
  990TIP3   OH224384   7.097   1.389  10.600
  990TIP3    H124385   7.070   1.319  10.537
  990TIP3    H224386   7.101   1.336  10.681
  991TIP3   OH224387   7.232   1.262  11.458
  991TIP3    H124388   7.260   1.192  11.396
  991TIP3    H224389   7.274   1.338  11.414
  992TIP3   OH224390   6.704   0.940  10.422
  992TIP3    H124391   6.640   1.001  10.381
  992TIP3    H224392   6.779   0.946  10.358
  993TIP3   OH224393   7.051   0.964  10.514
  993TIP3    H124394   6.976   0.984  10.574
  993TIP3    H224395   7.098   0.896  10.567
  994TIP3   OH224396   7.047   0.776  11.424
  994TIP3    H124397   7.042   0.856  11.479
  994TIP3    H224398   6.983   0.803  11.355
  995TIP3   OH224399   6.215   1.028  10.707
  995TIP3    H124400   6.182   0.990  10.623
  995TIP3    H224401   6.275   0.955  10.738
  996TIP3   OH224402   6.341   1.349  10.980
  996TIP3    H124403   6.347   1.322  10.886
  996TIP3    H224404   6.433   1.343  11.014
  997TIP3   OH224405   6.245   0.904  11.070
  997TIP3    H124406   6.304   0.902  10.991
  997TIP3    H224407   6.287   0.958  11.140
  998TIP3   OH224408   6.884   1.459  11.142
  998TIP3    H124409   6.859   1.520  11.211
  998TIP3    H224410   6.866   1.372  11.184
  999TIP3   OH224411   6.342   1.342  11.538
  999TIP3    H124412   6.302   1.415  11.590
  999TIP3    H224413   6.272   1.323  11.472
 1000TIP3   OH224414   6.930   0.889  10.286
 1000TIP3    H124415   6.997   0.893  10.358
 1000TIP3    H224416   6.984   0.915  10.208
 1001TIP3   OH224417   6.038   0.962  11.452
 1001TIP3    H124418   6.041   1.025  11.527
 1001TIP3    H224419   5.942   0.966  11.435
 1002TIP3   OH224420   6.712   1.554  10.625
 1002TIP3    H124421   6.755   1.580  10.708
 1002TIP3    H224422   6.653   1.627  10.607
 1003TIP3   OH224423   6.167   1.545  11.615
 1003TIP3    H124424   6.160   1.535  11.518
 1003TIP3    H224425   6.074   1.532  11.643
 1004TIP3   OH224426   6.111   0.927  10.463
 1004TIP3    H124427   6.081   1.009  10.422
 1004TIP3    H224428   6.040   0.865  10.443
 1005TIP3   OH224429   5.720   1.170  11.357
 1005TIP3    H124430   5.675   1.162  11.271
 1005TIP3    H224431   5.728   1.075  11.378
 1006TIP3   OH224432   5.696   1.443  11.037
 1006TIP3    H124433   5.791   1.432  11.032
 1006TIP3    H224434   5.688   1.526  11.086
 1007TIP3   OH224435   6.615   1.468  11.490
 1007TIP3    H124436   6.622   1.552  11.541
 1007TIP3    H224437   6.528   1.432  11.517
 1008TIP3   OH224438   6.662   1.840  10.468
 1008TIP3    H124439   6.646   1.838  10.374
 1008TIP3    H224440   6.659   1.935  10.492
 1009TIP3   OH224441   6.025   1.724  10.650
 1009TIP3    H124442   6.035   1.689  10.741
 1009TIP3    H224443   5.935   1.695  10.630
 1010TIP3   OH224444   6.931   1.762  10.454
 1010TIP3    H124445   6.835   1.761  10.467
 1010TIP3    H224446   6.959   1.682  10.499
 1011TIP3   OH224447   7.184   0.678  11.654
 1011TIP3    H124448   7.181   0.713  11.564
 1011TIP3    H224449   7.238   0.596  11.639
 1012TIP3   OH224450   5.948   1.302  11.450
 1012TIP3    H124451   5.970   1.265  11.539
 1012TIP3    H224452   5.861   1.262  11.429
 1013TIP3   OH224453   6.214   0.145  11.050
 1013TIP3    H124454   6.126   0.139  11.009
 1013TIP3    H224455   6.203   0.230  11.095
 1014TIP3   OH224456   6.678   0.118  11.388
 1014TIP3    H124457   6.721   0.076  11.462
 1014TIP3    H224458   6.583   0.107  11.404
 1015TIP3   OH224459   7.002   0.492  11.467
 1015TIP3    H124460   6.952   0.481  11.551
 1015TIP3    H224461   6.996   0.588  11.452
 1016TIP3   OH224462   7.086   1.029  10.054
 1016TIP3    H124463   7.072   0.959   9.984
 1016TIP3    H224464   7.174   1.008  10.082
 1017TIP3   OH224465   6.225   0.646  11.171
 1017TIP3    H124466   6.150   0.643  11.234
 1017TIP3    H224467   6.219   0.737  11.135
 1018TIP3   OH224468   6.219   0.665  10.652
 1018TIP3    H124469   6.135   0.622  10.645
 1018TIP3    H224470   6.267   0.624  10.578
 1019TIP3   OH224471   6.774   0.707  10.531
 1019TIP3    H124472   6.737   0.793  10.501
 1019TIP3    H224473   6.846   0.696  10.468
 1020TIP3   OH224474   6.681   0.730  11.679
 1020TIP3    H124475   6.629   0.652  11.709
 1020TIP3    H224476   6.765   0.717  11.726
 1021TIP3   OH224477   6.875   0.659  10.821
 1021TIP3    H124478   6.852   0.713  10.743
 1021TIP3    H224479   6.888   0.573  10.776
 1022TIP3   OH224480   5.987   0.672  11.340
 1022TIP3    H124481   5.997   0.712  11.428
 1022TIP3    H224482   5.944   0.588  11.360
 1023TIP3   OH224483   5.643   0.366  10.749
 1023TIP3    H124484   5.717   0.381  10.812
 1023TIP3    H224485   5.691   0.350  10.666
 1024TIP3   OH224486   6.792   0.816  11.272
 1024TIP3    H124487   6.835   0.747  11.217
 1024TIP3    H224488   6.749   0.763  11.342
 1025TIP3   OH224489   6.478   0.415  10.757
 1025TIP3    H124490   6.386   0.414  10.787
 1025TIP3    H224491   6.528   0.397  10.838
 1026TIP3   OH224492   6.318   0.581  10.416
 1026TIP3    H124493   6.415   0.576  10.429
 1026TIP3    H224494   6.303   0.641  10.344
 1027TIP3   OH224495   6.911   0.336  11.083
 1027TIP3    H124496   6.843   0.343  11.153
 1027TIP3    H224497   6.863   0.309  11.003
 1028TIP3   OH224498   7.228   1.906  11.717
 1028TIP3    H124499   7.263   1.937  11.632
 1028TIP3    H224500   7.303   1.931  11.774
 1029TIP3   OH224501   6.007   1.148  11.672
 1029TIP3    H124502   6.078   1.172  11.733
 1029TIP3    H224503   5.929   1.156  11.732
 1030TIP3   OH224504   6.606   0.689  10.948
 1030TIP3    H124505   6.666   0.635  10.894
 1030TIP3    H224506   6.593   0.633  11.026
 1031TIP3   OH224507   6.471   0.526  11.188
 1031TIP3    H124508   6.386   0.573  11.199
 1031TIP3    H224509   6.525   0.558  11.262
 1032TIP3   OH224510   6.528   1.137  10.365
 1032TIP3    H124511   6.447   1.101  10.327
 1032TIP3    H224512   6.506   1.158  10.457
 1033TIP3   OH224513   7.215   1.067  11.239
 1033TIP3    H124514   7.288   1.078  11.174
 1033TIP3    H224515   7.139   1.067  11.177
 1034TIP3   OH224516   6.674   1.171  11.480
 1034TIP3    H124517   6.645   1.129  11.562
 1034TIP3    H224518   6.658   1.264  11.496
 1035TIP3   OH224519   6.047   1.084  10.943
 1035TIP3    H124520   6.106   1.072  10.866
 1035TIP3    H224521   6.045   0.996  10.985
 1036TIP3   OH224522   5.739   0.924  11.465
 1036TIP3    H124523   5.756   0.880  11.551
 1036TIP3    H224524   5.676   0.863  11.422
 1037TIP3   OH224525   6.440   0.881  11.682
 1037TIP3    H124526   6.408   0.849  11.596
 1037TIP3    H224527   6.532   0.847  11.683
 1038TIP3   OH224528   6.908   1.411  11.478
 1038TIP3    H124529   6.817   1.431  11.454
 1038TIP3    H224530   6.906   1.442  11.571
 1039TIP3   OH224531   7.020   0.993  11.068
 1039TIP3    H124532   6.927   0.970  11.054
 1039TIP3    H224533   7.068   0.919  11.025
 1040TIP3   OH224534   6.277   1.428  10.678
 1040TIP3    H124535   6.325   1.510  10.654
 1040TIP3    H224536   6.189   1.451  10.647
 1041TIP3   OH224537   5.856   0.904  10.151
 1041TIP3    H124538   5.906   0.985  10.163
 1041TIP3    H224539   5.765   0.939  10.151
 1042TIP3   OH224540   6.421   1.197  10.637
 1042TIP3    H124541   6.387   1.289  10.639
 1042TIP3    H224542   6.344   1.147  10.669
 1043TIP3   OH224543   6.464   1.611  11.269
 1043TIP3    H124544   6.509   1.693  11.241
 1043TIP3    H224545   6.524   1.581  11.339
 1044TIP3   OH224546   6.288   1.692  10.583
 1044TIP3    H124547   6.191   1.706  10.596
 1044TIP3    H224548   6.321   1.777  10.618
 1045TIP3   OH224549   6.813   1.211  11.229
 1045TIP3    H124550   6.786   1.196  11.323
 1045TIP3    H224551   6.881   1.143  11.216
 1046TIP3   OH224552   7.099   1.668  11.478
 1046TIP3    H124553   7.025   1.623  11.433
 1046TIP3    H224554   7.118   1.742  11.416
 1047TIP3   OH224555   5.903   0.395  11.422
 1047TIP3    H124556   5.812   0.431  11.419
 1047TIP3    H224557   5.890   0.308  11.464
 1048TIP3   OH224558   7.128   1.183  10.370
 1048TIP3    H124559   7.104   1.102  10.420
 1048TIP3    H224560   7.222   1.189  10.390
 1049TIP3   OH224561   5.865   1.576  11.263
 1049TIP3    H124562   5.896   1.484  11.263
 1049TIP3    H224563   5.891   1.605  11.351
 1050TIP3   OH224564   6.342   1.380  10.236
 1050TIP3    H124565   6.367   1.329  10.313
 1050TIP3    H224566   6.342   1.471  10.264
 1051TIP3   OH224567   6.775   0.374  11.317
 1051TIP3    H124568   6.851   0.379  11.377
 1051TIP3    H224569   6.740   0.284  11.334
 1052TIP3   OH224570   6.858   0.333  10.425
 1052TIP3    H124571   6.872   0.383  10.341
 1052TIP3    H224572   6.914   0.379  10.488
 1053TIP3   OH224573   6.571   0.511  10.505
 1053TIP3    H124574   6.654   0.563  10.509
 1053TIP3    H224575   6.551   0.493  10.599
 1054TIP3   OH224576   6.632   0.610  11.425
 1054TIP3    H124577   6.641   0.665  11.505
 1054TIP3    H224578   6.697   0.539  11.435
 1055TIP3   OH224579   6.661   0.213  10.601
 1055TIP3    H124580   6.627   0.280  10.661
 1055TIP3    H224581   6.725   0.267  10.549
 1056TIP3   OH224582   7.236   0.376  11.495
 1056TIP3    H124583   7.152   0.426  11.493
 1056TIP3    H224584   7.275   0.396  11.409
 1057TIP3   OH224585   7.107   0.776  10.919
 1057TIP3    H124586   7.027   0.731  10.885
 1057TIP3    H224587   7.152   0.703  10.963
 1058TIP3   OH224588   7.202   1.712  11.094
 1058TIP3    H124589   7.188   1.779  11.022
 1058TIP3    H224590   7.292   1.725  11.126
 1059TIP3   OH224591   5.938   0.130  10.961
 1059TIP3    H124592   5.948   0.116  10.865
 1059TIP3    H224593   5.926   0.038  10.986
 1060TIP3   OH224594   5.862   1.507  10.572
 1060TIP3    H124595   5.776   1.549  10.568
 1060TIP3    H224596   5.913   1.553  10.505
 1061TIP3   OH224597   5.780   1.770  11.702
 1061TIP3    H124598   5.841   1.750  11.776
 1061TIP3    H224599   5.740   1.684  11.684
 1062TIP3   OH224600   6.249   1.662  11.863
 1062TIP3    H124601   6.324   1.612  11.896
 1062TIP3    H224602   6.246   1.634  11.769
 1063TIP3   OH224603   6.905   1.499  11.737
 1063TIP3    H124604   6.870   1.412  11.766
 1063TIP3    H224605   6.980   1.510  11.798
 1064TIP3   OH224606   5.772   1.147  11.801
 1064TIP3    H124607   5.788   1.056  11.771
 1064TIP3    H224608   5.698   1.173  11.744
 1065TIP3   OH224609   6.443   1.146  11.740
 1065TIP3    H124610   6.410   1.177  11.654
 1065TIP3    H224611   6.451   1.049  11.729
 1066TIP3   OH224612   7.009   1.128  11.479
 1066TIP3    H124613   7.089   1.188  11.473
 1066TIP3    H224614   6.943   1.198  11.484
 1067TIP3   OH224615   5.864   0.870  11.740
 1067TIP3    H124616   5.905   0.784  11.731
 1067TIP3    H224617   5.840   0.871  11.834
 1068TIP3   OH224618   6.253   0.764  11.475
 1068TIP3    H124619   6.195   0.836  11.503
 1068TIP3    H224620   6.293   0.801  11.394
 1069TIP3   OH224621   6.761   1.022  11.809
 1069TIP3    H124622   6.857   1.020  11.799
 1069TIP3    H224623   6.745   0.944  11.864
 1070TIP3   OH224624   6.293   0.502  11.581
 1070TIP3    H124625   6.306   0.431  11.516
 1070TIP3    H224626   6.290   0.583  11.525
 1071TIP3   OH224627   6.334   0.342  11.331
 1071TIP3    H124628   6.386   0.389  11.263
 1071TIP3    H224629   6.244   0.333  11.291
 1072TIP3   OH224630   6.486   0.888  11.358
 1072TIP3    H124631   6.565   0.871  11.306
 1072TIP3    H224632   6.456   0.975  11.330
 1073TIP3   OH224633   6.933   0.667  11.858
 1073TIP3    H124634   6.956   0.574  11.846
 1073TIP3    H224635   7.021   0.709  11.853
 1074TIP3   OH224636   7.064   0.949  11.674
 1074TIP3    H124637   7.035   1.017  11.609
 1074TIP3    H224638   7.157   0.937  11.652
 1075TIP3   OH224639   6.140   0.627  11.773
 1075TIP3    H124640   6.063   0.570  11.756
 1075TIP3    H224641   6.206   0.591  11.711
 1076TIP3   OH224642   6.399   0.104  11.403
 1076TIP3    H124643   6.393   0.198  11.373
 1076TIP3    H224644   6.341   0.062  11.337
 1077TIP3   OH224645   6.538   0.520  11.737
 1077TIP3    H124646   6.510   0.489  11.825
 1077TIP3    H224647   6.461   0.495  11.683
 1078TIP3   OH224648   6.809   0.433  11.649
 1078TIP3    H124649   6.713   0.434  11.661
 1078TIP3    H224650   6.842   0.369  11.715
 1079TIP3   OH224651   6.981   0.302  11.844
 1079TIP3    H124652   6.962   0.205  11.838
 1079TIP3    H224653   6.942   0.324  11.930
 1080TIP3   OH224654   5.947   0.420  11.748
 1080TIP3    H124655   5.973   0.347  11.690
 1080TIP3    H224656   5.940   0.375  11.834
 1081TIP3   OH224657   6.433   7.324  11.649
 1081TIP3    H124658   6.502   7.257  11.653
 1081TIP3    H224659   6.423   7.345  11.553
 1082TIP3   OH224660   6.474   0.192  11.853
 1082TIP3    H124661   6.456   0.135  11.775
 1082TIP3    H224662   6.410   0.265  11.846
 1083TIP3   OH224663   5.637   1.872  10.621
 1083TIP3    H124664   5.583   1.819  10.563
 1083TIP3    H224665   5.680   1.808  10.681
 1084TIP3   OH224666   5.731   1.684  10.807
 1084TIP3    H124667   5.698   1.596  10.829
 1084TIP3    H224668   5.758   1.718  10.893
 1085TIP3   OH224669   7.280   1.495  11.319
 1085TIP3    H124670   7.215   1.533  11.380
 1085TIP3    H224671   7.224   1.451  11.253
 1086TIP3   OH224672   7.184   0.793  10.662
 1086TIP3    H124673   7.214   0.701  10.656
 1086TIP3    H224674   7.202   0.815  10.755
 1087TIP3   OH224675   5.739   0.989  11.052
 1087TIP3    H124676   5.758   0.986  10.957
 1087TIP3    H224677   5.827   0.976  11.091
 1088TIP3   OH224678   7.217   0.344   9.990
 1088TIP3    H124679   7.290   0.348  10.057
 1088TIP3    H224680   7.139   0.343  10.041
 1089TIP3   OH224681   7.203   0.542  10.496
 1089TIP3    H124682   7.232   0.452  10.514
 1089TIP3    H224683   7.276   0.573  10.440
 1090TIP3   OH224684  -0.055   0.515  11.036
 1090TIP3    H124685   0.035   0.548  11.024
 1090TIP3    H224686  -0.075   0.576  11.108
 1091TIP3   OH224687   7.277   0.675  11.342
 1091TIP3    H124688   7.184   0.702  11.351
 1091TIP3    H224689   7.314   0.744  11.283
 1092TIP3   OH224690   5.700   0.525  11.671
 1092TIP3    H124691   5.794   0.503  11.688
 1092TIP3    H224692   5.656   0.441  11.696
 1093TIP3   OH224693   7.183   0.233  10.566
 1093TIP3    H124694   7.277   0.225  10.587
 1093TIP3    H224695   7.184   0.201  10.472
 1094TIP3   OH224696   5.817   0.359  10.952
 1094TIP3    H124697   5.861   0.274  10.980
 1094TIP3    H224698   5.877   0.424  10.991
 1095TIP3   OH224699   5.653   0.654  11.056
 1095TIP3    H124700   5.706   0.624  10.981
 1095TIP3    H224701   5.697   0.734  11.086
 1096TIP3   OH224702   7.140   1.753  10.671
 1096TIP3    H124703   7.204   1.722  10.604
 1096TIP3    H224704   7.190   1.818  10.723
 1097TIP3   OH224705   5.681   0.152  11.299
 1097TIP3    H124706   5.613   0.128  11.362
 1097TIP3    H224707   5.634   0.211  11.237
 1098TIP3   OH224708   5.905   1.463  11.712
 1098TIP3    H124709   5.821   1.486  11.668
 1098TIP3    H224710   5.878   1.456  11.803
 1099TIP3   OH224711   6.195   1.560  11.335
 1099TIP3    H124712   6.162   1.648  11.312
 1099TIP3    H224713   6.289   1.574  11.309
 1100TIP3   OH224714   6.627   1.707  11.630
 1100TIP3    H124715   6.641   1.672  11.721
 1100TIP3    H224716   6.717   1.738  11.605
 1101TIP3   OH224717   6.856   1.833  11.564
 1101TIP3    H124718   6.931   1.777  11.538
 1101TIP3    H224719   6.896   1.879  11.641
 1102TIP3   OH224720   5.937   1.888  11.339
 1102TIP3    H124721   5.864   1.938  11.299
 1102TIP3    H224722   5.906   1.869  11.428
 1103TIP3   OH224723   6.184   1.846  11.247
 1103TIP3    H124724   6.094   1.860  11.286
 1103TIP3    H224725   6.179   1.906  11.170
 1104TIP3   OH224726   6.650   1.835  11.163
 1104TIP3    H124727   6.607   1.893  11.098
 1104TIP3    H224728   6.669   1.898  11.235
 1105TIP3   OH224729   6.885   1.717  11.263
 1105TIP3    H124730   6.799   1.744  11.229
 1105TIP3    H224731   6.928   1.804  11.260
 1106TIP3   OH224732   7.128   1.876  11.289
 1106TIP3    H124733   7.127   1.971  11.267
 1106TIP3    H224734   7.158   1.839  11.205
 1107TIP3   OH224735   5.883   1.752  11.035
 1107TIP3    H124736   5.876   1.705  11.120
 1107TIP3    H224737   5.964   1.715  10.994
 1108TIP3   OH224738   6.089   1.622  10.901
 1108TIP3    H124739   6.073   1.529  10.922
 1108TIP3    H224740   6.176   1.641  10.943
 1109TIP3   OH224741   6.348   1.673  10.988
 1109TIP3    H124742   6.366   1.582  10.959
 1109TIP3    H224743   6.355   1.667  11.084
 1110TIP3   OH224744   6.683   0.244  10.897
 1110TIP3    H124745   6.625   0.172  10.926
 1110TIP3    H224746   6.752   0.195  10.849
 1111TIP3   OH224747   7.210   0.047  10.914
 1111TIP3    H124748   7.270   0.101  10.862
 1111TIP3    H224749   7.123   0.079  10.890
 1112TIP3   OH224750   6.385   0.088  10.661
 1112TIP3    H124751   6.472   0.132  10.657
 1112TIP3    H224752   6.376   0.070  10.755
 1113TIP3   OH224753   6.921   0.130  10.841
 1113TIP3    H124754   6.941   0.129  10.747
 1113TIP3    H224755   6.915   0.032  10.853
 1114TIP3   OH224756   7.073   0.094  10.381
 1114TIP3    H124757   7.001   0.158  10.375
 1114TIP3    H224758   7.030   0.014  10.410
 1115TIP3   OH224759   6.487   0.295  10.354
 1115TIP3    H124760   6.524   0.237  10.421
 1115TIP3    H224761   6.502   0.381  10.397
 1116TIP3   OH224762   5.912   0.151  11.619
 1116TIP3    H124763   5.878   0.078  11.671
 1116TIP3    H224764   6.002   0.154  11.660
 1117TIP3   OH224765   6.096   0.114  11.784
 1117TIP3    H124766   6.190   0.094  11.771
 1117TIP3    H224767   6.079   0.028  11.828
 1118TIP3   OH224768   6.959   7.359  11.800
 1118TIP3    H124769   6.961   7.302  11.881
 1118TIP3    H224770   7.048   7.337  11.768
 1119TIP3   OH224771   7.262   1.614  11.686
 1119TIP3    H124772   7.197   1.609  11.612
 1119TIP3    H224773   7.264   1.712  11.695
 1120TIP3   OH224774   1.184   2.899  10.670
 1120TIP3    H124775   1.185   2.997  10.667
 1120TIP3    H224776   1.111   2.878  10.609
 1121TIP3   OH224777   1.071   2.825  11.020
 1121TIP3    H124778   1.070   2.760  11.092
 1121TIP3    H224779   1.036   2.774  10.945
 1122TIP3   OH224780   0.311   2.791  11.172
 1122TIP3    H124781   0.317   2.724  11.243
 1122TIP3    H224782   0.381   2.852  11.200
 1123TIP3   OH224783   1.441   3.121  10.848
 1123TIP3    H124784   1.402   3.048  10.897
 1123TIP3    H224785   1.442   3.191  10.916
 1124TIP3   OH224786   0.398   3.236  11.027
 1124TIP3    H124787   0.367   3.150  10.992
 1124TIP3    H224788   0.494   3.219  11.030
 1125TIP3   OH224789   0.092   2.595  10.534
 1125TIP3    H124790   0.047   2.675  10.570
 1125TIP3    H224791   0.013   2.542  10.532
 1126TIP3   OH224792   0.130   2.808  10.783
 1126TIP3    H124793   0.161   2.733  10.836
 1126TIP3    H224794   0.204   2.827  10.722
 1127TIP3   OH224795   1.152   3.636  10.872
 1127TIP3    H124796   1.216   3.567  10.843
 1127TIP3    H224797   1.130   3.602  10.959
 1128TIP3   OH224798   0.908   3.065  11.068
 1128TIP3    H124799   0.942   3.002  11.002
 1128TIP3    H224800   0.989   3.081  11.119
 1129TIP3   OH224801   1.768   2.231  11.140
 1129TIP3    H124802   1.786   2.290  11.217
 1129TIP3    H224803   1.825   2.273  11.074
 1130TIP3   OH224804   1.225   2.512  11.099
 1130TIP3    H124805   1.242   2.416  11.100
 1130TIP3    H224806   1.215   2.526  11.003
 1131TIP3   OH224807   0.536   2.321  10.822
 1131TIP3    H124808   0.548   2.404  10.772
 1131TIP3    H224809   0.498   2.263  10.751
 1132TIP3   OH224810   1.309   2.333  10.662
 1132TIP3    H124811   1.377   2.298  10.725
 1132TIP3    H224812   1.364   2.383  10.601
 1133TIP3   OH224813   0.195   2.553  10.888
 1133TIP3    H124814   0.268   2.507  10.935
 1133TIP3    H224815   0.214   2.526  10.797
 1134TIP3   OH224816   0.713   2.716  10.828
 1134TIP3    H124817   0.782   2.659  10.866
 1134TIP3    H224818   0.664   2.651  10.773
 1135TIP3   OH224819   1.812   2.371  11.368
 1135TIP3    H124820   1.752   2.448  11.357
 1135TIP3    H224821   1.815   2.364  11.464
 1136TIP3   OH224822   0.432   2.211  11.224
 1136TIP3    H124823   0.400   2.268  11.150
 1136TIP3    H224824   0.363   2.233  11.292
 1137TIP3   OH224825   1.157   3.157  10.581
 1137TIP3    H124826   1.128   3.131  10.491
 1137TIP3    H224827   1.126   3.250  10.586
 1138TIP3   OH224828   0.681   2.975  11.248
 1138TIP3    H124829   0.609   3.039  11.270
 1138TIP3    H224830   0.750   3.036  11.219
 1139TIP3   OH224831   1.490   2.264  10.855
 1139TIP3    H124832   1.470   2.188  10.911
 1139TIP3    H224833   1.558   2.309  10.908
 1140TIP3   OH224834   0.382   2.394  11.028
 1140TIP3    H124835   0.444   2.464  11.060
 1140TIP3    H224836   0.437   2.356  10.954
 1141TIP3   OH224837   0.522   3.174  11.329
 1141TIP3    H124838   0.518   3.266  11.297
 1141TIP3    H224839   0.434   3.166  11.373
 1142TIP3   OH224840   1.494   3.305  11.086
 1142TIP3    H124841   1.396   3.314  11.098
 1142TIP3    H224842   1.517   3.397  11.065
 1143TIP3   OH224843   1.525   2.132  11.224
 1143TIP3    H124844   1.452   2.195  11.215
 1143TIP3    H224845   1.596   2.174  11.172
 1144TIP3   OH224846   0.820   1.941  10.964
 1144TIP3    H124847   0.802   1.845  10.970
 1144TIP3    H224848   0.736   1.976  11.001
 1145TIP3   OH224849   1.318   3.481  10.744
 1145TIP3    H124850   1.362   3.409  10.695
 1145TIP3    H224851   1.359   3.561  10.704
 1146TIP3   OH224852   1.446   3.270  10.592
 1146TIP3    H124853   1.407   3.202  10.535
 1146TIP3    H224854   1.441   3.226  10.680
 1147TIP3   OH224855   1.600   3.134  11.446
 1147TIP3    H124856   1.616   3.069  11.374
 1147TIP3    H224857   1.620   3.218  11.403
 1148TIP3   OH224858   1.050   2.823  10.423
 1148TIP3    H124859   0.979   2.879  10.385
 1148TIP3    H224860   1.120   2.832  10.356
 1149TIP3   OH224861   1.052   2.665  10.133
 1149TIP3    H124862   1.129   2.678  10.192
 1149TIP3    H224863   1.083   2.611  10.062
 1150TIP3   OH224864   1.790   2.765  11.251
 1150TIP3    H124865   1.723   2.837  11.255
 1150TIP3    H224866   1.838   2.789  11.170
 1151TIP3   OH224867   1.397   2.843  10.511
 1151TIP3    H124868   1.324   2.870  10.571
 1151TIP3    H224869   1.443   2.776  10.566
 1152TIP3   OH224870   1.389   2.661  11.427
 1152TIP3    H124871   1.389   2.743  11.479
 1152TIP3    H224872   1.326   2.690  11.357
 1153TIP3   OH224873   0.559   2.911  10.706
 1153TIP3    H124874   0.523   2.872  10.622
 1153TIP3    H224875   0.619   2.841  10.739
 1154TIP3   OH224876   0.688   3.249  10.973
 1154TIP3    H124877   0.688   3.196  10.893
 1154TIP3    H224878   0.767   3.213  11.019
 1155TIP3   OH224879   0.593   2.784  11.072
 1155TIP3    H124880   0.646   2.795  10.991
 1155TIP3    H224881   0.629   2.853  11.133
 1156TIP3   OH224882   1.231   3.342  11.142
 1156TIP3    H124883   1.203   3.406  11.209
 1156TIP3    H224884   1.205   3.257  11.185
 1157TIP3   OH224885   0.685   3.228  11.542
 1157TIP3    H124886   0.643   3.302  11.590
 1157TIP3    H224887   0.618   3.208  11.472
 1158TIP3   OH224888   1.282   2.760  10.280
 1158TIP3    H124889   1.333   2.783  10.362
 1158TIP3    H224890   1.320   2.820  10.213
 1159TIP3   OH224891   0.379   2.845  11.460
 1159TIP3    H124892   0.383   2.913  11.529
 1159TIP3    H224893   0.285   2.854  11.436
 1160TIP3   OH224894   1.051   3.435  10.630
 1160TIP3    H124895   1.100   3.470  10.705
 1160TIP3    H224896   0.999   3.512  10.602
 1161TIP3   OH224897   0.510   3.430  11.616
 1161TIP3    H124898   0.502   3.422  11.519
 1161TIP3    H224899   0.416   3.418  11.643
 1162TIP3   OH224900   1.654   1.941  10.283
 1162TIP3    H124901   1.557   1.949  10.285
 1162TIP3    H224902   1.674   2.018  10.226
 1163TIP3   OH224903   0.454   2.814  10.471
 1163TIP3    H124904   0.426   2.889  10.416
 1163TIP3    H224905   0.387   2.749  10.447
 1164TIP3   OH224906   0.122   3.042  11.332
 1164TIP3    H124907   0.045   3.055  11.273
 1164TIP3    H224908   0.085   2.964  11.378
 1165TIP3   OH224909   0.069   3.353  11.008
 1165TIP3    H124910   0.151   3.312  11.035
 1165TIP3    H224911   0.041   3.399  11.088
 1166TIP3   OH224912   1.862   3.399  11.599
 1166TIP3    H124913   1.851   3.303  11.602
 1166TIP3    H224914   1.777   3.424  11.641
 1167TIP3   OH224915   0.958   3.353  11.490
 1167TIP3    H124916   0.964   3.438  11.541
 1167TIP3    H224917   0.871   3.317  11.515
 1168TIP3   OH224918   1.000   3.728  10.471
 1168TIP3    H124919   0.997   3.717  10.376
 1168TIP3    H224920   1.007   3.824  10.486
 1169TIP3   OH224921   0.363   3.618  10.650
 1169TIP3    H124922   0.381   3.576  10.738
 1169TIP3    H224923   0.282   3.568  10.629
 1170TIP3   OH224924   1.277   3.649  10.458
 1170TIP3    H124925   1.181   3.648  10.458
 1170TIP3    H224926   1.300   3.566  10.501
 1171TIP3   OH224927   1.577   2.546  11.651
 1171TIP3    H124928   1.530   2.591  11.579
 1171TIP3    H224929   1.576   2.454  11.620
 1172TIP3   OH224930   0.293   3.195  11.458
 1172TIP3    H124931   0.311   3.151  11.543
 1172TIP3    H224932   0.210   3.151  11.429
 1173TIP3   OH224933   0.563   2.036  11.044
 1173TIP3    H124934   0.472   2.024  11.008
 1173TIP3    H224935   0.547   2.117  11.095
 1174TIP3   OH224936   1.024   2.001  11.382
 1174TIP3    H124937   1.063   1.959  11.461
 1174TIP3    H224938   0.927   1.990  11.397
 1175TIP3   OH224939   1.353   2.386  11.473
 1175TIP3    H124940   1.296   2.364  11.551
 1175TIP3    H224941   1.334   2.479  11.450
 1176TIP3   OH224942   0.568   2.532  11.171
 1176TIP3    H124943   0.495   2.532  11.236
 1176TIP3    H224944   0.566   2.623  11.135
 1177TIP3   OH224945   0.568   2.541  10.658
 1177TIP3    H124946   0.473   2.521  10.643
 1177TIP3    H224947   0.605   2.511  10.573
 1178TIP3   OH224948   1.113   2.589  10.528
 1178TIP3    H124949   1.077   2.677  10.501
 1178TIP3    H224950   1.190   2.581  10.471
 1179TIP3   OH224951   1.023   2.615  11.679
 1179TIP3    H124952   0.970   2.537  11.710
 1179TIP3    H224953   1.107   2.603  11.726
 1180TIP3   OH224954   1.219   2.542  10.819
 1180TIP3    H124955   1.194   2.599  10.744
 1180TIP3    H224956   1.231   2.457  10.771
 1181TIP3   OH224957   0.333   2.555  11.340
 1181TIP3    H124958   0.335   2.598  11.427
 1181TIP3    H224959   0.285   2.474  11.359
 1182TIP3   OH224960   0.032   2.295  10.716
 1182TIP3    H124961   0.068   2.265  10.803
 1182TIP3    H224962   0.055   2.222  10.659
 1183TIP3   OH224963   0.124   2.359  10.279
 1183TIP3    H124964   0.179   2.405  10.212
 1183TIP3    H224965   0.052   2.417  10.295
 1184TIP3   OH224966   1.141   2.701  11.275
 1184TIP3    H124967   1.179   2.633  11.216
 1184TIP3    H224968   1.094   2.648  11.342
 1185TIP3   OH224969   0.820   2.292  10.759
 1185TIP3    H124970   0.727   2.302  10.789
 1185TIP3    H224971   0.869   2.285  10.842
 1186TIP3   OH224972   0.302   2.451  10.648
 1186TIP3    H124973   0.218   2.472  10.603
 1186TIP3    H224974   0.328   2.369  10.602
 1187TIP3   OH224975   0.665   2.459  10.414
 1187TIP3    H124976   0.761   2.465  10.428
 1187TIP3    H224977   0.641   2.524  10.345
 1188TIP3   OH224978   1.263   2.221  11.085
 1188TIP3    H124979   1.193   2.227  11.153
 1188TIP3    H224980   1.213   2.199  11.006
 1189TIP3   OH224981   0.542   2.572  10.165
 1189TIP3    H124982   0.476   2.542  10.100
 1189TIP3    H224983   0.619   2.598  10.116
 1190TIP3   OH224984   1.582   3.787  11.715
 1190TIP3    H124985   1.608   3.825  11.630
 1190TIP3    H224986   1.654   3.818  11.771
 1191TIP3   OH224987   0.347   3.033  11.673
 1191TIP3    H124988   0.421   3.057  11.732
 1191TIP3    H224989   0.272   3.044  11.734
 1192TIP3   OH224990   0.948   2.574  10.948
 1192TIP3    H124991   1.009   2.521  10.894
 1192TIP3    H224992   0.935   2.520  11.026
 1193TIP3   OH224993   0.449   2.190  10.594
 1193TIP3    H124994   0.415   2.099  10.589
 1193TIP3    H224995   0.524   2.186  10.534
 1194TIP3   OH224996   0.813   2.408  11.189
 1194TIP3    H124997   0.730   2.459  11.198
 1194TIP3    H224998   0.868   2.443  11.262
 1195TIP3   OH224999   0.868   3.025  10.361
 1195TIP3    H125000   0.787   2.982  10.326
 1195TIP3    H225001   0.848   3.043  10.454
 1196TIP3   OH225002   1.591   2.950  11.239
 1196TIP3    H125003   1.647   2.997  11.174
 1196TIP3    H225004   1.504   2.954  11.193
 1197TIP3   OH225005   1.021   3.057  11.484
 1197TIP3    H125006   0.986   3.014  11.562
 1197TIP3    H225007   0.995   3.149  11.494
 1198TIP3   OH225008   0.383   2.969  10.939
 1198TIP3    H125009   0.450   2.961  10.869
 1198TIP3    H225010   0.392   2.885  10.986
 1199TIP3   OH225011   1.084   3.173  10.282
 1199TIP3    H125012   1.049   3.263  10.290
 1199TIP3    H225013   1.004   3.117  10.280
 1200TIP3   OH225014   0.079   2.807  11.465
 1200TIP3    H125015   0.105   2.763  11.549
 1200TIP3    H225016   0.020   2.743  11.423
 1201TIP3   OH225017   0.783   2.766  11.683
 1201TIP3    H125018   0.751   2.734  11.597
 1201TIP3    H225019   0.875   2.733  11.683
 1202TIP3   OH225020   1.252   3.299  11.478
 1202TIP3    H125021   1.159   3.317  11.455
 1202TIP3    H225022   1.248   3.328  11.571
 1203TIP3   OH225023   1.805   2.520  10.324
 1203TIP3    H125024   1.774   2.478  10.243
 1203TIP3    H225025   1.835   2.604  10.286
 1204TIP3   OH225026   1.817   3.103  11.598
 1204TIP3    H125027   1.728   3.125  11.563
 1204TIP3    H225028   1.872   3.097  11.518
 1205TIP3   OH225029   1.658   3.396  10.360
 1205TIP3    H125030   1.604   3.322  10.388
 1205TIP3    H225031   1.672   3.384  10.265
 1206TIP3   OH225032   1.368   2.880  11.069
 1206TIP3    H125033   1.274   2.860  11.057
 1206TIP3    H225034   1.411   2.805  11.023
 1207TIP3   OH225035   0.619   3.312  10.676
 1207TIP3    H125036   0.670   3.393  10.655
 1207TIP3    H225037   0.530   3.336  10.646
 1208TIP3   OH225038   0.763   3.082  10.629
 1208TIP3    H125039   0.731   3.173  10.639
 1208TIP3    H225040   0.691   3.032  10.672
 1209TIP3   OH225041   0.808   3.499  11.270
 1209TIP3    H125042   0.853   3.580  11.241
 1209TIP3    H225043   0.869   3.465  11.338
 1210TIP3   OH225044   0.628   3.579  10.585
 1210TIP3    H125045   0.532   3.592  10.601
 1210TIP3    H225046   0.667   3.661  10.619
 1211TIP3   OH225047   1.159   3.099  11.232
 1211TIP3    H125048   1.127   3.080  11.323
 1211TIP3    H225049   1.223   3.028  11.215
 1212TIP3   OH225050   1.441   3.557  11.481
 1212TIP3    H125051   1.372   3.508  11.433
 1212TIP3    H225052   1.458   3.628  11.415
 1213TIP3   OH225053   0.247   2.283  11.417
 1213TIP3    H125054   0.158   2.321  11.425
 1213TIP3    H225055   0.236   2.200  11.465
 1214TIP3   OH225056   0.225   3.466  11.258
 1214TIP3    H125057   0.237   3.371  11.264
 1214TIP3    H225058   0.234   3.490  11.351
 1215TIP3   OH225059   0.796   3.308   9.980
 1215TIP3    H125060   0.825   3.230   9.935
 1215TIP3    H225061   0.769   3.278  10.069
 1216TIP3   OH225062   0.686   3.265  10.234
 1216TIP3    H125063   0.706   3.215  10.313
 1216TIP3    H225064   0.691   3.360  10.262
 1217TIP3   OH225065   1.120   2.260  11.317
 1217TIP3    H125066   1.191   2.266  11.381
 1217TIP3    H225067   1.082   2.172  11.337
 1218TIP3   OH225068   0.917   2.397  10.504
 1218TIP3    H125069   0.999   2.449  10.510
 1218TIP3    H225070   0.890   2.381  10.596
 1219TIP3   OH225071   0.973   2.495  11.426
 1219TIP3    H125072   0.980   2.550  11.506
 1219TIP3    H225073   1.039   2.425  11.436
 1220TIP3   OH225074   1.005   2.100  10.602
 1220TIP3    H125075   0.968   2.166  10.662
 1220TIP3    H225076   1.070   2.155  10.554
 1221TIP3   OH225077   0.687   3.539  10.311
 1221TIP3    H125078   0.722   3.613  10.257
 1221TIP3    H225079   0.681   3.572  10.401
 1222TIP3   OH225080   1.591   2.282  11.511
 1222TIP3    H125081   1.498   2.313  11.498
 1222TIP3    H225082   1.621   2.280  11.419
 1223TIP3   OH225083   1.451   2.661  10.914
 1223TIP3    H125084   1.371   2.615  10.883
 1223TIP3    H225085   1.501   2.591  10.962
 1224TIP3   OH225086   0.230   2.512  10.092
 1224TIP3    H125087   0.233   2.609  10.101
 1224TIP3    H225088   0.146   2.497  10.046
 1225TIP3   OH225089   1.560   3.586  11.078
 1225TIP3    H125090   1.547   3.656  11.010
 1225TIP3    H225091   1.655   3.594  11.096
 1226TIP3   OH225092   0.310   1.999  10.958
 1226TIP3    H125093   0.290   2.002  10.861
 1226TIP3    H225094   0.268   1.915  10.984
 1227TIP3   OH225095   0.208   3.402  10.583
 1227TIP3    H125096   0.117   3.429  10.566
 1227TIP3    H225097   0.252   3.431  10.502
 1228TIP3   OH225098   0.154   3.658  11.701
 1228TIP3    H125099   0.195   3.635  11.786
 1228TIP3    H225100   0.102   3.577  11.685
 1229TIP3   OH225101   0.592   3.546  11.862
 1229TIP3    H125102   0.668   3.497  11.895
 1229TIP3    H225103   0.589   3.519  11.768
 1230TIP3   OH225104   1.242   3.386  11.738
 1230TIP3    H125105   1.211   3.297  11.765
 1230TIP3    H225106   1.319   3.398  11.797
 1231TIP3   OH225107   1.477   3.490  10.038
 1231TIP3    H125108   1.481   3.396  10.062
 1231TIP3    H225109   1.536   3.492   9.963
 1232TIP3   OH225110   0.111   3.033  11.801
 1232TIP3    H125111   0.133   2.944  11.768
 1232TIP3    H225112   0.040   3.061  11.742
 1233TIP3   OH225113   0.786   3.032  11.740
 1233TIP3    H125114   0.753   3.063  11.654
 1233TIP3    H225115   0.794   2.934  11.729
 1234TIP3   OH225116   1.356   3.018  11.479
 1234TIP3    H125117   1.435   3.076  11.473
 1234TIP3    H225118   1.286   3.085  11.483
 1235TIP3   OH225119   0.200   2.754  11.739
 1235TIP3    H125120   0.249   2.670  11.730
 1235TIP3    H225121   0.183   2.755  11.834
 1236TIP3   OH225122   0.680   2.865  10.249
 1236TIP3    H125123   0.619   2.817  10.308
 1236TIP3    H225124   0.695   2.803  10.178
 1237TIP3   OH225125   0.596   2.650  11.475
 1237TIP3    H125126   0.536   2.721  11.501
 1237TIP3    H225127   0.636   2.687  11.394
 1238TIP3   OH225128   1.104   2.907  11.809
 1238TIP3    H125129   1.200   2.906  11.796
 1238TIP3    H225130   1.087   2.830  11.866
 1239TIP3   OH225131   0.640   2.388  11.581
 1239TIP3    H125132   0.649   2.317  11.515
 1239TIP3    H225133   0.631   2.469  11.526
 1240TIP3   OH225134   0.678   2.226  11.336
 1240TIP3    H125135   0.729   2.273  11.266
 1240TIP3    H225136   0.589   2.218  11.296
 1241TIP3   OH225137   0.831   2.775  11.360
 1241TIP3    H125138   0.907   2.758  11.303
 1241TIP3    H225139   0.795   2.858  11.327
 1242TIP3   OH225140   1.271   2.550  11.856
 1242TIP3    H125141   1.295   2.457  11.847
 1242TIP3    H225142   1.357   2.594  11.860
 1243TIP3   OH225143   1.405   2.830  11.673
 1243TIP3    H125144   1.380   2.902  11.611
 1243TIP3    H225145   1.501   2.826  11.654
 1244TIP3   OH225146   0.481   2.514  11.772
 1244TIP3    H125147   0.405   2.454  11.756
 1244TIP3    H225148   0.547   2.476  11.711
 1245TIP3   OH225149   0.756   1.970  11.375
 1245TIP3    H125150   0.738   2.066  11.365
 1245TIP3    H225151   0.682   1.933  11.325
 1246TIP3   OH225152   0.884   2.403  11.738
 1246TIP3    H125153   0.852   2.379  11.827
 1246TIP3    H225154   0.806   2.382  11.684
 1247TIP3   OH225155   1.156   2.317  11.647
 1247TIP3    H125156   1.059   2.322  11.658
 1247TIP3    H225157   1.182   2.253  11.716
 1248TIP3   OH225158   1.314   2.179  11.837
 1248TIP3    H125159   1.309   2.081  11.840
 1248TIP3    H225160   1.289   2.208  11.927
 1249TIP3   OH225161   0.306   2.304  11.752
 1249TIP3    H125162   0.317   2.231  11.688
 1249TIP3    H225163   0.285   2.258  11.835
 1250TIP3   OH225164   0.778   1.909  11.645
 1250TIP3    H125165   0.846   1.839  11.643
 1250TIP3    H225166   0.767   1.923  11.549
 1251TIP3   OH225167   0.814   2.070  11.857
 1251TIP3    H125168   0.797   2.020  11.773
 1251TIP3    H225169   0.754   2.147  11.847
 1252TIP3   OH225170   0.764   3.761  10.169
 1252TIP3    H125171   0.859   3.767  10.184
 1252TIP3    H225172   0.742   3.831  10.108
 1253TIP3   OH225173   7.339   3.772  10.599
 1253TIP3    H125174   7.247   3.752  10.571
 1253TIP3    H225175   7.345   3.709  10.675
 1254TIP3   OH225176   0.081   3.575  10.798
 1254TIP3    H125177   0.044   3.487  10.821
 1254TIP3    H225178   0.104   3.603  10.889
 1255TIP3   OH225179   1.840   3.640  11.100
 1255TIP3    H125180   1.829   3.667  11.194
 1255TIP3    H225181   1.893   3.713  11.068
 1256TIP3   OH225182   1.793   3.609  11.389
 1256TIP3    H125183   1.738   3.534  11.357
 1256TIP3    H225184   1.835   3.567  11.466
 1257TIP3   OH225185   1.632   3.182  11.860
 1257TIP3    H125186   1.542   3.180  11.896
 1257TIP3    H225187   1.669   3.263  11.901
 1258TIP3   OH225188   1.775   3.088  11.093
 1258TIP3    H125189   1.855   3.050  11.052
 1258TIP3    H225190   1.785   3.182  11.069
 1259TIP3   OH225191   1.632   3.383  11.316
 1259TIP3    H125192   1.563   3.416  11.376
 1259TIP3    H225193   1.576   3.343  11.247
 1260TIP3   OH225194   1.581   2.671  10.646
 1260TIP3    H125195   1.568   2.575  10.646
 1260TIP3    H225196   1.553   2.693  10.737
 1261TIP3   OH225197   0.084   2.877  11.046
 1261TIP3    H125198   0.105   2.873  10.950
 1261TIP3    H225199   0.172   2.866  11.088
 1262TIP3   OH225200   1.668   2.867  11.618
 1262TIP3    H125201   1.729   2.791  11.631
 1262TIP3    H225202   1.728   2.945  11.617
 1263TIP3   OH225203   1.818   2.655  11.683
 1263TIP3    H125204   1.730   2.615  11.667
 1263TIP3    H225205   1.875   2.577  11.675
 1264TIP3   OH225206   1.547   2.427  10.493
 1264TIP3    H125207   1.577   2.335  10.509
 1264TIP3    H225208   1.627   2.467  10.457
 1265TIP3   OH225209   1.613   2.483  11.038
 1265TIP3    H125210   1.709   2.506  11.037
 1265TIP3    H225211   1.594   2.498  11.132
 1266TIP3   OH225212   1.619   2.555  11.318
 1266TIP3    H125213   1.531   2.584  11.348
 1266TIP3    H225214   1.662   2.640  11.295
 1267TIP3   OH225215   0.072   2.395  11.667
 1267TIP3    H125216   0.160   2.378  11.702
 1267TIP3    H225217   0.014   2.328  11.710
 1268TIP3   OH225218   1.846   1.961  11.850
 1268TIP3    H125219   1.884   1.895  11.790
 1268TIP3    H225220   1.857   2.043  11.798
 1269TIP3   OH225221   1.614   2.155  10.497
 1269TIP3    H125222   1.637   2.112  10.582
 1269TIP3    H225223   1.552   2.095  10.453
 1270TIP3   OH225224   0.167   2.232  10.950
 1270TIP3    H125225   0.216   2.155  10.983
 1270TIP3    H225226   0.217   2.304  10.992
 1271TIP3   OH225227   0.050   2.614  11.094
 1271TIP3    H125228   0.054   2.571  11.006
 1271TIP3    H225229   0.058   2.705  11.066
 1272TIP3   OH225230   1.799   2.171  11.686
 1272TIP3    H125231   1.705   2.199  11.681
 1272TIP3    H225232   1.801   2.116  11.606
 1273TIP3   OH225233   1.799   2.160  10.155
 1273TIP3    H125234   1.837   2.089  10.101
 1273TIP3    H225235   1.866   2.229  10.152
 1274TIP3   OH225236   0.076   2.168  10.432
 1274TIP3    H125237  -0.018   2.184  10.435
 1274TIP3    H225238   0.103   2.227  10.358
 1275TIP3   OH225239   1.504   3.664  10.656
 1275TIP3    H125240   1.568   3.624  10.597
 1275TIP3    H225241   1.555   3.706  10.727
 1276TIP3   OH225242   7.355   2.023  11.314
 1276TIP3    H125243   7.277   2.006  11.370
 1276TIP3    H225244   7.307   2.079  11.250
 1277TIP3   OH225245   0.244   3.352  11.713
 1277TIP3    H125246   0.160   3.370  11.670
 1277TIP3    H225247   0.219   3.342  11.804
 1278TIP3   OH225248   0.541   3.452  11.342
 1278TIP3    H125249   0.501   3.536  11.312
 1278TIP3    H225250   0.632   3.461  11.308
 1279TIP3   OH225251   0.970   3.592  11.629
 1279TIP3    H125252   0.983   3.557  11.720
 1279TIP3    H225253   1.060   3.623  11.606
 1280TIP3   OH225254   1.199   3.720  11.560
 1280TIP3    H125255   1.272   3.660  11.537
 1280TIP3    H225256   1.236   3.763  11.640
 1281TIP3   OH225257   1.700   1.980  11.471
 1281TIP3    H125258   1.618   2.010  11.430
 1281TIP3    H225259   1.717   1.898  11.420
 1282TIP3   OH225260   0.283   3.774  11.341
 1282TIP3    H125261   0.208   3.823  11.302
 1282TIP3    H225262   0.249   3.755  11.429
 1283TIP3   OH225263   0.528   3.732  11.245
 1283TIP3    H125264   0.439   3.744  11.285
 1283TIP3    H225265   0.522   3.792  11.168
 1284TIP3   OH225266   0.998   3.723  11.163
 1284TIP3    H125267   0.951   3.779  11.098
 1284TIP3    H225268   1.011   3.786  11.237
 1285TIP3   OH225269   1.226   3.603  11.266
 1285TIP3    H125270   1.141   3.631  11.229
 1285TIP3    H225271   1.275   3.687  11.257
 1286TIP3   OH225272   1.485   3.761  11.288
 1286TIP3    H125273   1.479   3.857  11.265
 1286TIP3    H225274   1.506   3.724  11.201
 1287TIP3   OH225275   0.221   3.639  11.032
 1287TIP3    H125276   0.221   3.594  11.119
 1287TIP3    H225277   0.302   3.601  10.993
 1288TIP3   OH225278   0.431   3.510  10.899
 1288TIP3    H125279   0.415   3.416  10.921
 1288TIP3    H225280   0.517   3.525  10.943
 1289TIP3   OH225281   0.692   3.558  10.986
 1289TIP3    H125282   0.710   3.465  10.960
 1289TIP3    H225283   0.699   3.553  11.083
 1290TIP3   OH225284   1.037   2.122  10.896
 1290TIP3    H125285   0.971   2.059  10.929
 1290TIP3    H225286   1.097   2.069  10.843
 1291TIP3   OH225287   1.552   1.928  10.906
 1291TIP3    H125288   1.614   1.988  10.855
 1291TIP3    H225289   1.464   1.964  10.883
 1292TIP3   OH225290   1.721   2.052  10.738
 1292TIP3    H125291   1.789   1.995  10.694
 1292TIP3    H225292   1.770   2.137  10.746
 1293TIP3   OH225293   0.272   1.981  10.693
 1293TIP3    H125294   0.200   1.967  10.627
 1293TIP3    H225295   0.328   1.903  10.673
 1294TIP3   OH225296   0.739   1.962  10.668
 1294TIP3    H125297   0.810   2.027  10.655
 1294TIP3    H225298   0.714   1.967  10.761
 1295TIP3   OH225299   1.290   1.980  10.827
 1295TIP3    H125300   1.292   1.990  10.730
 1295TIP3    H225301   1.260   1.888  10.840
 1296TIP3   OH225302   0.153   3.566  10.360
 1296TIP3    H125303   0.087   3.550  10.290
 1296TIP3    H225304   0.133   3.658  10.374
 1297TIP3   OH225305   0.260   2.042  11.633
 1297TIP3    H125306   0.226   1.957  11.669
 1297TIP3    H225307   0.352   2.036  11.667
 1298TIP3   OH225308   0.465   1.977  11.793
 1298TIP3    H125309   0.555   1.943  11.773
 1298TIP3    H225310   0.426   1.897  11.834
 1299TIP3   OH225311   1.305   1.907  11.809
 1299TIP3    H125312   1.315   1.860  11.894
 1299TIP3    H225313   1.397   1.903  11.775
 1300TIP3   OH225314   1.627   3.512  11.672
 1300TIP3    H125315   1.546   3.498  11.618
 1300TIP3    H225316   1.615   3.607  11.694
 1301TIP3   OH225317   3.070   2.898  10.671
 1301TIP3    H125318   3.071   2.997  10.668
 1301TIP3    H225319   2.996   2.879  10.612
 1302TIP3   OH225320   2.956   2.824  11.019
 1302TIP3    H125321   2.955   2.761  11.092
 1302TIP3    H225322   2.920   2.773  10.945
 1303TIP3   OH225323   2.191   2.793  11.175
 1303TIP3    H125324   2.200   2.724  11.245
 1303TIP3    H225325   2.266   2.850  11.198
 1304TIP3   OH225326   3.325   3.120  10.849
 1304TIP3    H125327   3.284   3.048  10.899
 1304TIP3    H225328   3.327   3.191  10.916
 1305TIP3   OH225329   2.279   3.239  11.026
 1305TIP3    H125330   2.255   3.149  10.994
 1305TIP3    H225331   2.376   3.222  11.031
 1306TIP3   OH225332   1.949   2.597  10.574
 1306TIP3    H125333   1.902   2.681  10.574
 1306TIP3    H225334   1.892   2.539  10.521
 1307TIP3   OH225335   2.020   2.816  10.788
 1307TIP3    H125336   2.046   2.733  10.833
 1307TIP3    H225337   2.090   2.828  10.723
 1308TIP3   OH225338   3.037   3.635  10.875
 1308TIP3    H125339   3.102   3.567  10.844
 1308TIP3    H225340   3.016   3.601  10.962
 1309TIP3   OH225341   2.794   3.065  11.068
 1309TIP3    H125342   2.828   3.002  11.002
 1309TIP3    H225343   2.875   3.081  11.119
 1310TIP3   OH225344   3.653   2.231  11.140
 1310TIP3    H125345   3.671   2.290  11.217
 1310TIP3    H225346   3.711   2.273  11.074
 1311TIP3   OH225347   3.110   2.512  11.097
 1311TIP3    H125348   3.127   2.416  11.099
 1311TIP3    H225349   3.101   2.526  11.002
 1312TIP3   OH225350   2.421   2.321  10.820
 1312TIP3    H125351   2.433   2.405  10.772
 1312TIP3    H225352   2.381   2.263  10.751
 1313TIP3   OH225353   3.196   2.333  10.661
 1313TIP3    H125354   3.263   2.298  10.725
 1313TIP3    H225355   3.252   2.383  10.600
 1314TIP3   OH225356   2.085   2.562  10.895
 1314TIP3    H125357   2.152   2.507  10.940
 1314TIP3    H225358   2.095   2.530  10.804
 1315TIP3   OH225359   2.604   2.716  10.822
 1315TIP3    H125360   2.667   2.658  10.868
 1315TIP3    H225361   2.547   2.650  10.779
 1316TIP3   OH225362   3.697   2.372  11.368
 1316TIP3    H125363   3.637   2.448  11.357
 1316TIP3    H225364   3.701   2.364  11.464
 1317TIP3   OH225365   2.313   2.211  11.225
 1317TIP3    H125366   2.285   2.268  11.150
 1317TIP3    H225367   2.245   2.234  11.293
 1318TIP3   OH225368   3.039   3.156  10.577
 1318TIP3    H125369   3.015   3.136  10.485
 1318TIP3    H225370   3.012   3.251  10.584
 1319TIP3   OH225371   2.564   2.976  11.248
 1319TIP3    H125372   2.493   3.040  11.270
 1319TIP3    H225373   2.635   3.035  11.219
 1320TIP3   OH225374   3.374   2.265  10.856
 1320TIP3    H125375   3.355   2.187  10.910
 1320TIP3    H225376   3.443   2.308  10.909
 1321TIP3   OH225377   2.270   2.396  11.028
 1321TIP3    H125378   2.333   2.465  11.059
 1321TIP3    H225379   2.322   2.356  10.954
 1322TIP3   OH225380   2.407   3.175  11.328
 1322TIP3    H125381   2.405   3.268  11.298
 1322TIP3    H225382   2.321   3.167  11.376
 1323TIP3   OH225383   2.016   3.141  10.412
 1323TIP3    H125384   1.998   3.173  10.323
 1323TIP3    H225385   2.025   3.223  10.463
 1324TIP3   OH225386   3.378   3.304  11.086
 1324TIP3    H125387   3.281   3.315  11.098
 1324TIP3    H225388   3.405   3.395  11.065
 1325TIP3   OH225389   3.410   2.132  11.225
 1325TIP3    H125390   3.338   2.195  11.215
 1325TIP3    H225391   3.481   2.174  11.172
 1326TIP3   OH225392   2.708   1.945  10.977
 1326TIP3    H125393   2.695   1.850  10.960
 1326TIP3    H225394   2.618   1.974  11.000
 1327TIP3   OH225395   3.204   3.483  10.744
 1327TIP3    H125396   3.247   3.411  10.693
 1327TIP3    H225397   3.245   3.561  10.702
 1328TIP3   OH225398   3.327   3.275  10.597
 1328TIP3    H125399   3.295   3.206  10.536
 1328TIP3    H225400   3.329   3.226  10.681
 1329TIP3   OH225401   3.486   3.135  11.446
 1329TIP3    H125402   3.501   3.069  11.374
 1329TIP3    H225403   3.507   3.219  11.401
 1330TIP3   OH225404   3.675   2.766  11.250
 1330TIP3    H125405   3.610   2.838  11.254
 1330TIP3    H225406   3.725   2.789  11.169
 1331TIP3   OH225407   3.283   2.846  10.516
 1331TIP3    H125408   3.210   2.869  10.577
 1331TIP3    H225409   3.329   2.775  10.565
 1332TIP3   OH225410   3.274   2.661  11.427
 1332TIP3    H125411   3.275   2.743  11.479
 1332TIP3    H225412   3.211   2.690  11.358
 1333TIP3   OH225413   2.445   2.911  10.705
 1333TIP3    H125414   2.412   2.873  10.619
 1333TIP3    H225415   2.503   2.840  10.740
 1334TIP3   OH225416   2.571   3.248  10.975
 1334TIP3    H125417   2.573   3.197  10.893
 1334TIP3    H225418   2.651   3.214  11.020
 1335TIP3   OH225419   2.475   2.785  11.072
 1335TIP3    H125420   2.530   2.795  10.992
 1335TIP3    H225421   2.514   2.851  11.133
 1336TIP3   OH225422   3.115   3.343  11.142
 1336TIP3    H125423   3.088   3.406  11.209
 1336TIP3    H225424   3.092   3.257  11.185
 1337TIP3   OH225425   2.570   3.227  11.542
 1337TIP3    H125426   2.529   3.302  11.591
 1337TIP3    H225427   2.503   3.208  11.472
 1338TIP3   OH225428   3.165   2.770  10.289
 1338TIP3    H125429   3.226   2.782  10.365
 1338TIP3    H225430   3.212   2.808  10.215
 1339TIP3   OH225431   2.265   2.844  11.457
 1339TIP3    H125432   2.270   2.911  11.528
 1339TIP3    H225433   2.171   2.853  11.436
 1340TIP3   OH225434   2.939   3.435  10.631
 1340TIP3    H125435   2.985   3.469  10.708
 1340TIP3    H225436   2.885   3.510  10.604
 1341TIP3   OH225437   2.395   3.432  11.617
 1341TIP3    H125438   2.391   3.421  11.521
 1341TIP3    H225439   2.302   3.419  11.642
 1342TIP3   OH225440   3.543   1.945  10.278
 1342TIP3    H125441   3.446   1.949  10.292
 1342TIP3    H225442   3.555   2.020  10.218
 1343TIP3   OH225443   2.339   2.815  10.471
 1343TIP3    H125444   2.313   2.890  10.415
 1343TIP3    H225445   2.273   2.749  10.447
 1344TIP3   OH225446   1.949   3.056  11.355
 1344TIP3    H125447   1.902   3.045  11.271
 1344TIP3    H225448   1.956   2.961  11.380
 1345TIP3   OH225449   1.892   3.306  11.005
 1345TIP3    H125450   1.986   3.281  11.009
 1345TIP3    H225451   1.869   3.381  11.062
 1346TIP3   OH225452   3.748   3.399  11.604
 1346TIP3    H125453   3.736   3.304  11.601
 1346TIP3    H225454   3.661   3.424  11.642
 1347TIP3   OH225455   2.844   3.354  11.490
 1347TIP3    H125456   2.850   3.438  11.541
 1347TIP3    H225457   2.757   3.318  11.515
 1348TIP3   OH225458   2.246   3.622  10.656
 1348TIP3    H125459   2.267   3.572  10.737
 1348TIP3    H225460   2.168   3.571  10.627
 1349TIP3   OH225461   3.163   3.650  10.459
 1349TIP3    H125462   3.066   3.651  10.457
 1349TIP3    H225463   3.186   3.565  10.498
 1350TIP3   OH225464   3.463   2.546  11.651
 1350TIP3    H125465   3.415   2.591  11.579
 1350TIP3    H225466   3.461   2.454  11.620
 1351TIP3   OH225467   2.174   3.189  11.450
 1351TIP3    H125468   2.199   3.152  11.538
 1351TIP3    H225469   2.089   3.145  11.431
 1352TIP3   OH225470   2.445   2.035  11.046
 1352TIP3    H125471   2.355   2.022  11.010
 1352TIP3    H225472   2.432   2.117  11.095
 1353TIP3   OH225473   2.909   2.002  11.383
 1353TIP3    H125474   2.948   1.959  11.461
 1353TIP3    H225475   2.812   1.990  11.397
 1354TIP3   OH225476   3.238   2.386  11.472
 1354TIP3    H125477   3.182   2.364  11.551
 1354TIP3    H225478   3.220   2.479  11.450
 1355TIP3   OH225479   2.455   2.532  11.172
 1355TIP3    H125480   2.381   2.531  11.235
 1355TIP3    H225481   2.450   2.623  11.134
 1356TIP3   OH225482   2.450   2.540  10.661
 1356TIP3    H125483   2.355   2.519  10.646
 1356TIP3    H225484   2.489   2.516  10.576
 1357TIP3   OH225485   2.909   2.615  11.679
 1357TIP3    H125486   2.856   2.537  11.710
 1357TIP3    H225487   2.992   2.603  11.726
 1358TIP3   OH225488   3.104   2.542  10.819
 1358TIP3    H125489   3.080   2.600  10.746
 1358TIP3    H225490   3.117   2.457  10.772
 1359TIP3   OH225491   2.217   2.557  11.339
 1359TIP3    H125492   2.226   2.598  11.427
 1359TIP3    H225493   2.173   2.473  11.360
 1360TIP3   OH225494   1.883   2.268  10.739
 1360TIP3    H125495   1.951   2.266  10.809
 1360TIP3    H225496   1.928   2.231  10.661
 1361TIP3   OH225497   3.026   2.701  11.275
 1361TIP3    H125498   3.064   2.633  11.216
 1361TIP3    H225499   2.980   2.648  11.342
 1362TIP3   OH225500   2.703   2.303  10.763
 1362TIP3    H125501   2.610   2.296  10.791
 1362TIP3    H225502   2.753   2.281  10.842
 1363TIP3   OH225503   2.186   2.454  10.646
 1363TIP3    H125504   2.097   2.470  10.606
 1363TIP3    H225505   2.214   2.370  10.605
 1364TIP3   OH225506   3.147   2.222  11.082
 1364TIP3    H125507   3.079   2.227  11.153
 1364TIP3    H225508   3.095   2.196  11.003
 1365TIP3   OH225509   3.467   3.787  11.715
 1365TIP3    H125510   3.494   3.825  11.630
 1365TIP3    H225511   3.539   3.819  11.771
 1366TIP3   OH225512   2.236   3.032  11.673
 1366TIP3    H125513   2.307   3.057  11.734
 1366TIP3    H225514   2.158   3.041  11.732
 1367TIP3   OH225515   2.836   2.575  10.947
 1367TIP3    H125516   2.896   2.519  10.897
 1367TIP3    H225517   2.819   2.522  11.026
 1368TIP3   OH225518   2.334   2.192  10.580
 1368TIP3    H125519   2.303   2.100  10.595
 1368TIP3    H225520   2.420   2.176  10.541
 1369TIP3   OH225521   2.699   2.407  11.190
 1369TIP3    H125522   2.616   2.459  11.198
 1369TIP3    H225523   2.754   2.442  11.262
 1370TIP3   OH225524   2.754   3.039  10.358
 1370TIP3    H125525   2.682   2.982  10.328
 1370TIP3    H225526   2.737   3.041  10.454
 1371TIP3   OH225527   3.476   2.950  11.239
 1371TIP3    H125528   3.533   2.998  11.176
 1371TIP3    H225529   3.390   2.954  11.193
 1372TIP3   OH225530   2.907   3.057  11.483
 1372TIP3    H125531   2.872   3.014  11.562
 1372TIP3    H225532   2.881   3.149  11.494
 1373TIP3   OH225533   2.270   2.972  10.940
 1373TIP3    H125534   2.335   2.960  10.868
 1373TIP3    H225535   2.272   2.884  10.984
 1374TIP3   OH225536   2.972   3.178  10.267
 1374TIP3    H125537   2.933   3.264  10.295
 1374TIP3    H225538   2.897   3.116  10.281
 1375TIP3   OH225539   1.968   2.810  11.465
 1375TIP3    H125540   1.984   2.765  11.550
 1375TIP3    H225541   1.905   2.749  11.421
 1376TIP3   OH225542   2.669   2.766  11.682
 1376TIP3    H125543   2.637   2.735  11.596
 1376TIP3    H225544   2.761   2.733  11.683
 1377TIP3   OH225545   3.137   3.299  11.478
 1377TIP3    H125546   3.045   3.317  11.455
 1377TIP3    H225547   3.134   3.328  11.571
 1378TIP3   OH225548   3.706   2.518  10.318
 1378TIP3    H125549   3.646   2.488  10.246
 1378TIP3    H225550   3.713   2.612  10.292
 1379TIP3   OH225551   3.703   3.103  11.597
 1379TIP3    H125552   3.614   3.125  11.561
 1379TIP3    H225553   3.757   3.098  11.516
 1380TIP3   OH225554   3.545   3.395  10.361
 1380TIP3    H125555   3.494   3.318  10.388
 1380TIP3    H225556   3.554   3.387  10.264
 1381TIP3   OH225557   3.254   2.882  11.067
 1381TIP3    H125558   3.160   2.861  11.056
 1381TIP3    H225559   3.297   2.805  11.024
 1382TIP3   OH225560   2.507   3.314  10.679
 1382TIP3    H125561   2.558   3.393  10.656
 1382TIP3    H225562   2.420   3.336  10.643
 1383TIP3   OH225563   2.077   2.805  10.135
 1383TIP3    H125564   2.143   2.865  10.173
 1383TIP3    H225565   1.993   2.837  10.164
 1384TIP3   OH225566   2.648   3.081  10.632
 1384TIP3    H125567   2.616   3.173  10.638
 1384TIP3    H225568   2.575   3.032  10.674
 1385TIP3   OH225569   2.693   3.499  11.271
 1385TIP3    H125570   2.739   3.580  11.242
 1385TIP3    H225571   2.754   3.465  11.338
 1386TIP3   OH225572   2.516   3.581  10.585
 1386TIP3    H125573   2.420   3.594  10.596
 1386TIP3    H225574   2.553   3.665  10.618
 1387TIP3   OH225575   3.044   3.099  11.232
 1387TIP3    H125576   3.012   3.080  11.323
 1387TIP3    H225577   3.109   3.028  11.215
 1388TIP3   OH225578   3.327   3.557  11.481
 1388TIP3    H125579   3.258   3.508  11.433
 1388TIP3    H225580   3.345   3.627  11.415
 1389TIP3   OH225581   2.133   2.283  11.420
 1389TIP3    H125582   2.042   2.318  11.418
 1389TIP3    H225583   2.121   2.198  11.466
 1390TIP3   OH225584   3.357   3.066  10.371
 1390TIP3    H125585   3.335   2.987  10.423
 1390TIP3    H225586   3.453   3.072  10.382
 1391TIP3   OH225587   2.102   3.463  11.281
 1391TIP3    H125588   2.134   3.371  11.285
 1391TIP3    H225589   2.126   3.493  11.370
 1392TIP3   OH225590   2.562   3.269  10.234
 1392TIP3    H125591   2.594   3.215  10.308
 1392TIP3    H225592   2.580   3.359  10.267
 1393TIP3   OH225593   2.224   2.993  10.285
 1393TIP3    H125594   2.153   3.031  10.340
 1393TIP3    H225595   2.270   3.074  10.258
 1394TIP3   OH225596   3.006   2.261  11.316
 1394TIP3    H125597   3.077   2.266  11.381
 1394TIP3    H225598   2.967   2.173  11.337
 1395TIP3   OH225599   2.850   3.435  10.301
 1395TIP3    H125600   2.771   3.489  10.315
 1395TIP3    H225601   2.909   3.490  10.246
 1396TIP3   OH225602   2.858   2.495  11.426
 1396TIP3    H125603   2.866   2.551  11.506
 1396TIP3    H225604   2.925   2.425  11.436
 1397TIP3   OH225605   2.889   2.116  10.588
 1397TIP3    H125606   2.855   2.164  10.665
 1397TIP3    H225607   2.966   2.162  10.559
 1398TIP3   OH225608   2.580   3.540  10.306
 1398TIP3    H125609   2.606   3.620  10.259
 1398TIP3    H225610   2.564   3.571  10.398
 1399TIP3   OH225611   3.476   2.282  11.511
 1399TIP3    H125612   3.384   2.313  11.498
 1399TIP3    H225613   3.506   2.280  11.419
 1400TIP3   OH225614   3.337   2.660  10.913
 1400TIP3    H125615   3.256   2.614  10.886
 1400TIP3    H225616   3.387   2.592  10.963
 1401TIP3   OH225617   2.285   3.246  10.180
 1401TIP3    H125618   2.344   3.320  10.201
 1401TIP3    H225619   2.323   3.209  10.101
 1402TIP3   OH225620   3.444   3.587  11.079
 1402TIP3    H125621   3.435   3.655  11.009
 1402TIP3    H225622   3.540   3.592  11.096
 1403TIP3   OH225623   2.193   1.998  10.959
 1403TIP3    H125624   2.174   2.000  10.863
 1403TIP3    H225625   2.152   1.913  10.984
 1404TIP3   OH225626   2.087   3.394  10.572
 1404TIP3    H125627   2.001   3.437  10.569
 1404TIP3    H225628   2.139   3.436  10.503
 1405TIP3   OH225629   2.009   3.656  11.702
 1405TIP3    H125630   2.070   3.636  11.776
 1405TIP3    H225631   1.969   3.570  11.683
 1406TIP3   OH225632   2.478   3.548  11.862
 1406TIP3    H125633   2.553   3.498  11.896
 1406TIP3    H225634   2.475   3.520  11.769
 1407TIP3   OH225635   3.128   3.386  11.738
 1407TIP3    H125636   3.096   3.297  11.765
 1407TIP3    H225637   3.205   3.398  11.797
 1408TIP3   OH225638   2.000   3.033  11.802
 1408TIP3    H125639   2.017   2.942  11.771
 1408TIP3    H225640   1.926   3.058  11.745
 1409TIP3   OH225641   2.672   3.032  11.740
 1409TIP3    H125642   2.639   3.063  11.654
 1409TIP3    H225643   2.679   2.934  11.729
 1410TIP3   OH225644   3.242   3.018  11.479
 1410TIP3    H125645   3.320   3.076  11.473
 1410TIP3    H225646   3.172   3.085  11.483
 1411TIP3   OH225647   2.092   2.756  11.740
 1411TIP3    H125648   2.134   2.669  11.730
 1411TIP3    H225649   2.069   2.756  11.834
 1412TIP3   OH225650   2.482   2.650  11.475
 1412TIP3    H125651   2.423   2.722  11.501
 1412TIP3    H225652   2.522   2.687  11.394
 1413TIP3   OH225653   2.990   2.907  11.809
 1413TIP3    H125654   3.085   2.906  11.796
 1413TIP3    H225655   2.973   2.830  11.866
 1414TIP3   OH225656   3.590   2.926  10.008
 1414TIP3    H125657   3.575   2.885   9.924
 1414TIP3    H225658   3.608   3.019   9.988
 1415TIP3   OH225659   2.523   2.388  11.581
 1415TIP3    H125660   2.535   2.317  11.515
 1415TIP3    H225661   2.518   2.469  11.526
 1416TIP3   OH225662   2.563   2.226  11.336
 1416TIP3    H125663   2.614   2.272  11.265
 1416TIP3    H225664   2.474   2.218  11.296
 1417TIP3   OH225665   2.717   2.775  11.360
 1417TIP3    H125666   2.793   2.759  11.303
 1417TIP3    H225667   2.681   2.859  11.327
 1418TIP3   OH225668   3.157   2.550  11.857
 1418TIP3    H125669   3.180   2.457  11.847
 1418TIP3    H225670   3.243   2.594  11.860
 1419TIP3   OH225671   3.291   2.830  11.673
 1419TIP3    H125672   3.266   2.902  11.611
 1419TIP3    H225673   3.387   2.826  11.654
 1420TIP3   OH225674   2.369   2.513  11.773
 1420TIP3    H125675   2.292   2.455  11.756
 1420TIP3    H225676   2.434   2.476  11.711
 1421TIP3   OH225677   2.643   1.970  11.374
 1421TIP3    H125678   2.623   2.066  11.365
 1421TIP3    H225679   2.567   1.932  11.326
 1422TIP3   OH225680   2.769   2.403  11.738
 1422TIP3    H125681   2.738   2.379  11.827
 1422TIP3    H225682   2.691   2.382  11.684
 1423TIP3   OH225683   3.041   2.317  11.647
 1423TIP3    H125684   2.945   2.322  11.658
 1423TIP3    H225685   3.068   2.253  11.716
 1424TIP3   OH225686   3.199   2.179  11.837
 1424TIP3    H125687   3.194   2.081  11.840
 1424TIP3    H225688   3.175   2.208  11.927
 1425TIP3   OH225689   2.177   2.307  11.748
 1425TIP3    H125690   2.202   2.233  11.690
 1425TIP3    H225691   2.168   2.262  11.835
 1426TIP3   OH225692   2.664   1.910  11.645
 1426TIP3    H125693   2.729   1.837  11.645
 1426TIP3    H225694   2.652   1.923  11.548
 1427TIP3   OH225695   2.700   2.071  11.856
 1427TIP3    H125696   2.682   2.019  11.774
 1427TIP3    H225697   2.640   2.147  11.846
 1428TIP3   OH225698   1.878   3.758  10.613
 1428TIP3    H125699   1.805   3.709  10.574
 1428TIP3    H225700   1.906   3.697  10.685
 1429TIP3   OH225701   1.969   3.570  10.806
 1429TIP3    H125702   1.924   3.485  10.821
 1429TIP3    H225703   1.980   3.608  10.894
 1430TIP3   OH225704   3.716   3.651  11.098
 1430TIP3    H125705   3.719   3.667  11.194
 1430TIP3    H225706   3.786   3.709  11.068
 1431TIP3   OH225707   3.673   3.610  11.392
 1431TIP3    H125708   3.626   3.533  11.354
 1431TIP3    H225709   3.722   3.566  11.464
 1432TIP3   OH225710   3.518   3.182  11.860
 1432TIP3    H125711   3.427   3.180  11.896
 1432TIP3    H225712   3.555   3.263  11.901
 1433TIP3   OH225713   3.650   3.011  10.404
 1433TIP3    H125714   3.735   3.053  10.423
 1433TIP3    H225715   3.649   2.940  10.472
 1434TIP3   OH225716   3.686   2.823  10.592
 1434TIP3    H125717   3.610   2.772  10.628
 1434TIP3    H225718   3.745   2.836  10.669
 1435TIP3   OH225719   3.661   3.092  11.090
 1435TIP3    H125720   3.742   3.055  11.052
 1435TIP3    H225721   3.675   3.188  11.073
 1436TIP3   OH225722   3.517   3.383  11.317
 1436TIP3    H125723   3.448   3.417  11.376
 1436TIP3    H225724   3.462   3.343  11.246
 1437TIP3   OH225725   3.710   2.801  10.231
 1437TIP3    H125726   3.662   2.843  10.157
 1437TIP3    H225727   3.712   2.874  10.296
 1438TIP3   OH225728   3.556   2.525  10.084
 1438TIP3    H125729   3.556   2.596  10.020
 1438TIP3    H225730   3.527   2.446  10.035
 1439TIP3   OH225731   3.466   2.672  10.649
 1439TIP3    H125732   3.451   2.576  10.642
 1439TIP3    H225733   3.435   2.691  10.739
 1440TIP3   OH225734   1.968   2.883  11.053
 1440TIP3    H125735   1.985   2.870  10.957
 1440TIP3    H225736   2.056   2.859  11.089
 1441TIP3   OH225737   3.554   2.867  11.618
 1441TIP3    H125738   3.614   2.791  11.631
 1441TIP3    H225739   3.614   2.944  11.618
 1442TIP3   OH225740   3.704   2.655  11.683
 1442TIP3    H125741   3.615   2.615  11.667
 1442TIP3    H225742   3.761   2.577  11.675
 1443TIP3   OH225743   3.435   2.428  10.499
 1443TIP3    H125744   3.465   2.335  10.504
 1443TIP3    H225745   3.511   2.470  10.457
 1444TIP3   OH225746   3.498   2.483  11.039
 1444TIP3    H125747   3.594   2.506  11.037
 1444TIP3    H225748   3.479   2.497  11.133
 1445TIP3   OH225749   3.505   2.555  11.317
 1445TIP3    H125750   3.416   2.584  11.348
 1445TIP3    H225751   3.548   2.641  11.295
 1446TIP3   OH225752   1.930   2.409  11.671
 1446TIP3    H125753   2.024   2.388  11.689
 1446TIP3    H225754   1.884   2.327  11.697
 1447TIP3   OH225755   3.732   1.962  11.851
 1447TIP3    H125756   3.767   1.896  11.789
 1447TIP3    H225757   3.742   2.043  11.797
 1448TIP3   OH225758   3.499   2.158  10.503
 1448TIP3    H125759   3.524   2.112  10.586
 1448TIP3    H225760   3.441   2.092  10.456
 1449TIP3   OH225761   2.050   2.238  10.955
 1449TIP3    H125762   2.096   2.155  10.980
 1449TIP3    H225763   2.105   2.307  10.994
 1450TIP3   OH225764   1.878   2.538  11.059
 1450TIP3    H125765   1.934   2.513  10.982
 1450TIP3    H225766   1.925   2.619  11.085
 1451TIP3   OH225767   3.684   2.171  11.686
 1451TIP3    H125768   3.590   2.199  11.680
 1451TIP3    H225769   3.687   2.116  11.607
 1452TIP3   OH225770   1.913   2.164  10.467
 1452TIP3    H125771   1.819   2.182  10.451
 1452TIP3    H225772   1.956   2.212  10.397
 1453TIP3   OH225773   3.390   3.658  10.662
 1453TIP3    H125774   3.458   3.630  10.597
 1453TIP3    H225775   3.442   3.710  10.724
 1454TIP3   OH225776   1.909   2.029  11.295
 1454TIP3    H125777   1.843   2.010  11.363
 1454TIP3    H225778   1.864   2.097  11.241
 1455TIP3   OH225779   2.133   3.349  11.712
 1455TIP3    H125780   2.049   3.371  11.668
 1455TIP3    H225781   2.107   3.342  11.804
 1456TIP3   OH225782   2.420   3.448  11.334
 1456TIP3    H125783   2.394   3.540  11.317
 1456TIP3    H225784   2.515   3.457  11.310
 1457TIP3   OH225785   2.855   3.592  11.630
 1457TIP3    H125786   2.870   3.557  11.721
 1457TIP3    H225787   2.946   3.623  11.605
 1458TIP3   OH225788   3.084   3.719  11.561
 1458TIP3    H125789   3.157   3.661  11.537
 1458TIP3    H225790   3.122   3.763  11.640
 1459TIP3   OH225791   3.586   1.980  11.472
 1459TIP3    H125792   3.503   2.011  11.430
 1459TIP3    H225793   3.603   1.898  11.420
 1460TIP3   OH225794   2.162   3.770  11.333
 1460TIP3    H125795   2.091   3.828  11.302
 1460TIP3    H225796   2.137   3.756  11.427
 1461TIP3   OH225797   2.409   3.723  11.244
 1461TIP3    H125798   2.324   3.744  11.289
 1461TIP3    H225799   2.412   3.791  11.176
 1462TIP3   OH225800   2.883   3.722  11.164
 1462TIP3    H125801   2.840   3.778  11.099
 1462TIP3    H225802   2.897   3.785  11.238
 1463TIP3   OH225803   3.112   3.603  11.266
 1463TIP3    H125804   3.027   3.631  11.229
 1463TIP3    H225805   3.161   3.687  11.257
 1464TIP3   OH225806   3.370   3.760  11.288
 1464TIP3    H125807   3.365   3.856  11.265
 1464TIP3    H225808   3.392   3.723  11.200
 1465TIP3   OH225809   2.112   3.636  11.032
 1465TIP3    H125810   2.113   3.613  11.128
 1465TIP3    H225811   2.198   3.604  10.994
 1466TIP3   OH225812   2.315   3.512  10.905
 1466TIP3    H125813   2.307   3.416  10.917
 1466TIP3    H225814   2.406   3.523  10.942
 1467TIP3   OH225815   2.575   3.558  10.988
 1467TIP3    H125816   2.597   3.466  10.960
 1467TIP3    H225817   2.587   3.551  11.084
 1468TIP3   OH225818   2.927   2.126  10.898
 1468TIP3    H125819   2.858   2.062  10.924
 1468TIP3    H225820   2.979   2.069  10.839
 1469TIP3   OH225821   3.439   1.929  10.907
 1469TIP3    H125822   3.499   1.988  10.855
 1469TIP3    H225823   3.350   1.962  10.883
 1470TIP3   OH225824   3.605   2.053  10.734
 1470TIP3    H125825   3.674   1.995  10.693
 1470TIP3    H225826   3.656   2.136  10.746
 1471TIP3   OH225827   2.161   1.988  10.684
 1471TIP3    H125828   2.080   1.965  10.634
 1471TIP3    H225829   2.208   1.902  10.679
 1472TIP3   OH225830   2.048   1.966  10.267
 1472TIP3    H125831   2.080   2.024  10.197
 1472TIP3    H225832   1.980   2.016  10.313
 1473TIP3   OH225833   2.606   1.993  10.664
 1473TIP3    H125834   2.702   2.006  10.654
 1473TIP3    H225835   2.608   1.953  10.752
 1474TIP3   OH225836   3.185   1.980  10.825
 1474TIP3    H125837   3.171   1.990  10.730
 1474TIP3    H225838   3.141   1.891  10.840
 1475TIP3   OH225839   3.306   1.986  10.396
 1475TIP3    H125840   3.232   2.043  10.372
 1475TIP3    H225841   3.263   1.899  10.415
 1476TIP3   OH225842   3.585   3.638  10.462
 1476TIP3    H125843   3.566   3.560  10.405
 1476TIP3    H225844   3.581   3.711  10.396
 1477TIP3   OH225845   2.151   2.039  11.630
 1477TIP3    H125846   2.112   1.959  11.672
 1477TIP3    H225847   2.241   2.034  11.669
 1478TIP3   OH225848   2.353   1.980  11.790
 1478TIP3    H125849   2.441   1.942  11.773
 1478TIP3    H225850   2.313   1.902  11.835
 1479TIP3   OH225851   3.192   1.908  11.810
 1479TIP3    H125852   3.201   1.859  11.894
 1479TIP3    H225853   3.283   1.903  11.775
 1480TIP3   OH225854   3.512   3.512  11.672
 1480TIP3    H125855   3.432   3.498  11.618
 1480TIP3    H225856   3.500   3.607  11.694
 1481TIP3   OH225857   4.959   2.901  10.669
 1481TIP3    H125858   4.957   2.999  10.668
 1481TIP3    H225859   4.882   2.878  10.618
 1482TIP3   OH225860   4.841   2.825  11.019
 1482TIP3    H125861   4.840   2.761  11.091
 1482TIP3    H225862   4.806   2.774  10.944
 1483TIP3   OH225863   4.077   2.793  11.176
 1483TIP3    H125864   4.085   2.724  11.245
 1483TIP3    H225865   4.152   2.850  11.198
 1484TIP3   OH225866   5.210   3.120  10.849
 1484TIP3    H125867   5.169   3.048  10.898
 1484TIP3    H225868   5.213   3.190  10.916
 1485TIP3   OH225869   4.170   3.238  11.026
 1485TIP3    H125870   4.139   3.151  10.994
 1485TIP3    H225871   4.265   3.219  11.030
 1486TIP3   OH225872   3.835   2.595  10.577
 1486TIP3    H125873   3.790   2.681  10.569
 1486TIP3    H225874   3.779   2.540  10.520
 1487TIP3   OH225875   3.905   2.816  10.790
 1487TIP3    H125876   3.933   2.734  10.835
 1487TIP3    H225877   3.974   2.826  10.722
 1488TIP3   OH225878   4.923   3.636  10.873
 1488TIP3    H125879   4.987   3.567  10.844
 1488TIP3    H225880   4.901   3.602  10.960
 1489TIP3   OH225881   4.679   3.065  11.068
 1489TIP3    H125882   4.713   3.003  11.001
 1489TIP3    H225883   4.761   3.081  11.119
 1490TIP3   OH225884   5.537   2.232  11.140
 1490TIP3    H125885   5.557   2.290  11.217
 1490TIP3    H225886   5.596   2.273  11.075
 1491TIP3   OH225887   4.996   2.512  11.099
 1491TIP3    H125888   5.013   2.416  11.100
 1491TIP3    H225889   4.986   2.526  11.003
 1492TIP3   OH225890   4.307   2.321  10.821
 1492TIP3    H125891   4.319   2.404  10.772
 1492TIP3    H225892   4.268   2.264  10.751
 1493TIP3   OH225893   5.083   2.329  10.659
 1493TIP3    H125894   5.149   2.297  10.725
 1493TIP3    H225895   5.137   2.385  10.601
 1494TIP3   OH225896   3.970   2.562  10.894
 1494TIP3    H125897   4.037   2.508  10.939
 1494TIP3    H225898   3.981   2.531  10.803
 1495TIP3   OH225899   4.488   2.718  10.824
 1495TIP3    H125900   4.553   2.659  10.867
 1495TIP3    H225901   4.434   2.652  10.776
 1496TIP3   OH225902   5.583   2.371  11.369
 1496TIP3    H125903   5.523   2.448  11.357
 1496TIP3    H225904   5.586   2.364  11.465
 1497TIP3   OH225905   4.199   2.211  11.225
 1497TIP3    H125906   4.170   2.268  11.150
 1497TIP3    H225907   4.131   2.234  11.293
 1498TIP3   OH225908   4.928   3.159  10.579
 1498TIP3    H125909   4.901   3.135  10.491
 1498TIP3    H225910   4.896   3.252  10.585
 1499TIP3   OH225911   4.450   2.975  11.248
 1499TIP3    H125912   4.379   3.040  11.270
 1499TIP3    H225913   4.520   3.035  11.219
 1500TIP3   OH225914   5.262   2.264  10.858
 1500TIP3    H125915   5.239   2.186  10.910
 1500TIP3    H225916   5.327   2.307  10.915
 1501TIP3   OH225917   4.155   2.397  11.028
 1501TIP3    H125918   4.218   2.465  11.059
 1501TIP3    H225919   4.207   2.355  10.954
 1502TIP3   OH225920   4.295   3.176  11.331
 1502TIP3    H125921   4.290   3.267  11.297
 1502TIP3    H225922   4.206   3.168  11.375
 1503TIP3   OH225923   3.897   3.140  10.412
 1503TIP3    H125924   3.872   3.170  10.322
 1503TIP3    H225925   3.909   3.224  10.461
 1504TIP3   OH225926   5.263   3.304  11.086
 1504TIP3    H125927   5.167   3.315  11.098
 1504TIP3    H225928   5.290   3.395  11.065
 1505TIP3   OH225929   5.295   2.132  11.225
 1505TIP3    H125930   5.223   2.196  11.215
 1505TIP3    H225931   5.367   2.174  11.174
 1506TIP3   OH225932   4.592   1.944  10.971
 1506TIP3    H125933   4.578   1.848  10.963
 1506TIP3    H225934   4.504   1.975  11.002
 1507TIP3   OH225935   5.091   3.483  10.746
 1507TIP3    H125936   5.132   3.411  10.695
 1507TIP3    H225937   5.132   3.561  10.705
 1508TIP3   OH225938   5.211   3.276  10.597
 1508TIP3    H125939   5.184   3.206  10.535
 1508TIP3    H225940   5.215   3.226  10.680
 1509TIP3   OH225941   5.372   3.135  11.446
 1509TIP3    H125942   5.387   3.069  11.374
 1509TIP3    H225943   5.393   3.219  11.401
 1510TIP3   OH225944   5.561   2.766  11.250
 1510TIP3    H125945   5.495   2.838  11.254
 1510TIP3    H225946   5.610   2.789  11.169
 1511TIP3   OH225947   5.165   2.846  10.514
 1511TIP3    H125948   5.093   2.869  10.577
 1511TIP3    H225949   5.214   2.779  10.565
 1512TIP3   OH225950   5.160   2.661  11.427
 1512TIP3    H125951   5.160   2.743  11.479
 1512TIP3    H225952   5.097   2.690  11.357
 1513TIP3   OH225953   4.329   2.910  10.706
 1513TIP3    H125954   4.296   2.871  10.622
 1513TIP3    H225955   4.388   2.840  10.741
 1514TIP3   OH225956   4.460   3.249  10.975
 1514TIP3    H125957   4.458   3.197  10.894
 1514TIP3    H225958   4.539   3.213  11.019
 1515TIP3   OH225959   4.361   2.785  11.072
 1515TIP3    H125960   4.416   2.795  10.992
 1515TIP3    H225961   4.400   2.851  11.133
 1516TIP3   OH225962   5.003   3.342  11.143
 1516TIP3    H125963   4.974   3.406  11.209
 1516TIP3    H225964   4.977   3.257  11.185
 1517TIP3   OH225965   4.456   3.228  11.542
 1517TIP3    H125966   4.415   3.302  11.591
 1517TIP3    H225967   4.389   3.208  11.472
 1518TIP3   OH225968   5.049   2.768  10.284
 1518TIP3    H125969   5.109   2.783  10.361
 1518TIP3    H225970   5.097   2.810  10.209
 1519TIP3   OH225971   4.150   2.844  11.457
 1519TIP3    H125972   4.156   2.911  11.528
 1519TIP3    H225973   4.056   2.853  11.436
 1520TIP3   OH225974   4.825   3.436  10.626
 1520TIP3    H125975   4.868   3.466  10.707
 1520TIP3    H225976   4.770   3.512  10.604
 1521TIP3   OH225977   4.281   3.431  11.616
 1521TIP3    H125978   4.275   3.422  11.520
 1521TIP3    H225979   4.188   3.418  11.643
 1522TIP3   OH225980   4.226   2.814  10.469
 1522TIP3    H125981   4.198   2.891  10.414
 1522TIP3    H225982   4.158   2.750  10.447
 1523TIP3   OH225983   5.535   3.377  10.108
 1523TIP3    H125984   5.555   3.469  10.120
 1523TIP3    H225985   5.625   3.337  10.102
 1524TIP3   OH225986   3.833   3.055  11.358
 1524TIP3    H125987   3.789   3.047  11.271
 1524TIP3    H225988   3.842   2.961  11.379
 1525TIP3   OH225989   3.810   3.329  11.035
 1525TIP3    H125990   3.906   3.317  11.033
 1525TIP3    H225991   3.802   3.411  11.085
 1526TIP3   OH225992   5.634   3.400  11.604
 1526TIP3    H125993   5.622   3.304  11.601
 1526TIP3    H225994   5.547   3.424  11.642
 1527TIP3   OH225995   4.730   3.353  11.490
 1527TIP3    H125996   4.735   3.438  11.541
 1527TIP3    H225997   4.642   3.317  11.515
 1528TIP3   OH225998   4.776   3.728  10.471
 1528TIP3    H125999   4.764   3.722  10.375
 1528TIP3    H226000   4.776   3.824  10.487
 1529TIP3   OH226001   4.137   3.616  10.656
 1529TIP3    H126002   4.153   3.573  10.742
 1529TIP3    H226003   4.053   3.576  10.630
 1530TIP3   OH226004   5.071   3.646  10.167
 1530TIP3    H126005   5.122   3.574  10.122
 1530TIP3    H226006   5.081   3.623  10.260
 1531TIP3   OH226007   5.048   3.643  10.447
 1531TIP3    H126008   4.951   3.648  10.463
 1531TIP3    H226009   5.073   3.568  10.503
 1532TIP3   OH226010   5.349   2.546  11.651
 1532TIP3    H126011   5.301   2.591  11.579
 1532TIP3    H226012   5.347   2.454  11.620
 1533TIP3   OH226013   4.063   3.187  11.451
 1533TIP3    H126014   4.085   3.151  11.539
 1533TIP3    H226015   3.976   3.147  11.430
 1534TIP3   OH226016   4.331   2.035  11.045
 1534TIP3    H126017   4.240   2.022  11.009
 1534TIP3    H226018   4.317   2.118  11.095
 1535TIP3   OH226019   4.795   2.001  11.382
 1535TIP3    H126020   4.834   1.959  11.461
 1535TIP3    H226021   4.698   1.990  11.397
 1536TIP3   OH226022   5.124   2.386  11.472
 1536TIP3    H126023   5.067   2.364  11.551
 1536TIP3    H226024   5.105   2.479  11.450
 1537TIP3   OH226025   5.208   2.857  10.061
 1537TIP3    H126026   5.197   2.848   9.965
 1537TIP3    H226027   5.283   2.916  10.065
 1538TIP3   OH226028   4.341   2.532  11.172
 1538TIP3    H126029   4.267   2.531  11.235
 1538TIP3    H226030   4.336   2.623  11.134
 1539TIP3   OH226031   4.336   2.543  10.658
 1539TIP3    H126032   4.242   2.517  10.645
 1539TIP3    H226033   4.374   2.513  10.573
 1540TIP3   OH226034   4.888   2.595  10.533
 1540TIP3    H126035   4.850   2.675  10.497
 1540TIP3    H226036   4.960   2.576  10.469
 1541TIP3   OH226037   4.794   2.615  11.679
 1541TIP3    H126038   4.742   2.537  11.710
 1541TIP3    H226039   4.878   2.603  11.726
 1542TIP3   OH226040   4.992   2.543  10.819
 1542TIP3    H126041   4.965   2.598  10.744
 1542TIP3    H226042   5.003   2.457  10.773
 1543TIP3   OH226043   4.103   2.557  11.339
 1543TIP3    H126044   4.111   2.598  11.427
 1543TIP3    H226045   4.059   2.473  11.361
 1544TIP3   OH226046   3.769   2.267  10.738
 1544TIP3    H126047   3.837   2.264  10.808
 1544TIP3    H226048   3.814   2.230  10.660
 1545TIP3   OH226049   3.902   2.342  10.278
 1545TIP3    H126050   3.946   2.404  10.217
 1545TIP3    H226051   3.825   2.398  10.303
 1546TIP3   OH226052   4.912   2.701  11.275
 1546TIP3    H126053   4.950   2.633  11.216
 1546TIP3    H226054   4.865   2.648  11.342
 1547TIP3   OH226055   4.591   2.299  10.759
 1547TIP3    H126056   4.497   2.300  10.789
 1547TIP3    H226057   4.640   2.282  10.841
 1548TIP3   OH226058   4.072   2.454  10.645
 1548TIP3    H126059   3.983   2.468  10.606
 1548TIP3    H226060   4.100   2.369  10.608
 1549TIP3   OH226061   4.435   2.462  10.409
 1549TIP3    H126062   4.531   2.467  10.426
 1549TIP3    H226063   4.417   2.530  10.345
 1550TIP3   OH226064   5.032   2.223  11.083
 1550TIP3    H126065   4.964   2.228  11.153
 1550TIP3    H226066   4.982   2.197  11.004
 1551TIP3   OH226067   5.352   3.786  11.716
 1551TIP3    H126068   5.379   3.823  11.630
 1551TIP3    H226069   5.425   3.818  11.771
 1552TIP3   OH226070   4.120   3.034  11.672
 1552TIP3    H126071   4.192   3.058  11.733
 1552TIP3    H226072   4.043   3.042  11.732
 1553TIP3   OH226073   4.720   2.575  10.946
 1553TIP3    H126074   4.781   2.520  10.895
 1553TIP3    H226075   4.705   2.521  11.025
 1554TIP3   OH226076   4.221   2.190  10.591
 1554TIP3    H126077   4.191   2.097  10.589
 1554TIP3    H226078   4.302   2.183  10.538
 1555TIP3   OH226079   4.584   2.407  11.189
 1555TIP3    H126080   4.502   2.459  11.198
 1555TIP3    H226081   4.640   2.443  11.261
 1556TIP3   OH226082   5.362   2.950  11.239
 1556TIP3    H126083   5.418   2.998  11.176
 1556TIP3    H226084   5.276   2.954  11.193
 1557TIP3   OH226085   4.792   3.057  11.483
 1557TIP3    H126086   4.758   3.014  11.562
 1557TIP3    H226087   4.767   3.149  11.494
 1558TIP3   OH226088   5.096   2.505  10.352
 1558TIP3    H126089   5.189   2.487  10.378
 1558TIP3    H226090   5.105   2.576  10.287
 1559TIP3   OH226091   4.155   2.970  10.939
 1559TIP3    H126092   4.222   2.961  10.868
 1559TIP3    H226093   4.160   2.884  10.984
 1560TIP3   OH226094   3.853   2.809  11.465
 1560TIP3    H126095   3.870   2.765  11.550
 1560TIP3    H226096   3.791   2.748  11.421
 1561TIP3   OH226097   4.554   2.765  11.683
 1561TIP3    H126098   4.522   2.734  11.597
 1561TIP3    H226099   4.647   2.733  11.683
 1562TIP3   OH226100   5.023   3.299  11.478
 1562TIP3    H126101   4.931   3.317  11.455
 1562TIP3    H226102   5.020   3.328  11.571
 1563TIP3   OH226103   5.588   3.103  11.598
 1563TIP3    H126104   5.499   3.125  11.561
 1563TIP3    H226105   5.643   3.098  11.516
 1564TIP3   OH226106   5.417   3.401  10.356
 1564TIP3    H126107   5.385   3.317  10.391
 1564TIP3    H226108   5.450   3.377  10.267
 1565TIP3   OH226109   5.140   2.881  11.068
 1565TIP3    H126110   5.046   2.861  11.056
 1565TIP3    H226111   5.183   2.805  11.024
 1566TIP3   OH226112   4.391   3.315  10.678
 1566TIP3    H126113   4.442   3.394  10.656
 1566TIP3    H226114   4.303   3.339  10.645
 1567TIP3   OH226115   4.536   3.080  10.634
 1567TIP3    H126116   4.503   3.172  10.638
 1567TIP3    H226117   4.460   3.032  10.673
 1568TIP3   OH226118   4.578   3.500  11.271
 1568TIP3    H126119   4.624   3.580  11.242
 1568TIP3    H226120   4.640   3.465  11.338
 1569TIP3   OH226121   4.400   3.578  10.586
 1569TIP3    H126122   4.305   3.594  10.598
 1569TIP3    H226123   4.438   3.663  10.616
 1570TIP3   OH226124   4.930   3.099  11.232
 1570TIP3    H126125   4.898   3.080  11.323
 1570TIP3    H226126   4.994   3.028  11.215
 1571TIP3   OH226127   5.163   3.210  10.148
 1571TIP3    H126128   5.192   3.155  10.223
 1571TIP3    H226129   5.069   3.187  10.142
 1572TIP3   OH226130   5.212   3.557  11.481
 1572TIP3    H126131   5.143   3.508  11.433
 1572TIP3    H226132   5.230   3.627  11.415
 1573TIP3   OH226133   4.018   2.283  11.420
 1573TIP3    H126134   3.927   2.318  11.418
 1573TIP3    H226135   4.007   2.198  11.466
 1574TIP3   OH226136   5.242   3.070  10.369
 1574TIP3    H126137   5.220   2.989  10.419
 1574TIP3    H226138   5.339   3.073  10.379
 1575TIP3   OH226139   3.979   3.461  11.263
 1575TIP3    H126140   4.010   3.369  11.263
 1575TIP3    H226141   4.006   3.490  11.351
 1576TIP3   OH226142   4.113   2.991  10.295
 1576TIP3    H126143   4.036   3.030  10.338
 1576TIP3    H226144   4.159   3.064  10.253
 1577TIP3   OH226145   4.891   2.260  11.316
 1577TIP3    H126146   4.963   2.266  11.381
 1577TIP3    H226147   4.853   2.172  11.337
 1578TIP3   OH226148   4.972   2.216  10.420
 1578TIP3    H126149   4.988   2.272  10.344
 1578TIP3    H226150   5.024   2.261  10.489
 1579TIP3   OH226151   4.735   3.434  10.307
 1579TIP3    H126152   4.650   3.482  10.312
 1579TIP3    H226153   4.785   3.485  10.243
 1580TIP3   OH226154   4.683   2.402  10.504
 1580TIP3    H126155   4.769   2.447  10.514
 1580TIP3    H226156   4.660   2.377  10.596
 1581TIP3   OH226157   4.744   2.495  11.426
 1581TIP3    H126158   4.752   2.551  11.506
 1581TIP3    H226159   4.810   2.425  11.436
 1582TIP3   OH226160   4.774   2.099  10.594
 1582TIP3    H126161   4.742   2.163  10.660
 1582TIP3    H226162   4.843   2.153  10.550
 1583TIP3   OH226163   4.474   3.538  10.309
 1583TIP3    H126164   4.486   3.618  10.254
 1583TIP3    H226165   4.447   3.574  10.395
 1584TIP3   OH226166   5.362   2.281  11.511
 1584TIP3    H126167   5.269   2.313  11.498
 1584TIP3    H226168   5.392   2.280  11.418
 1585TIP3   OH226169   5.222   2.662  10.915
 1585TIP3    H126170   5.141   2.615  10.885
 1585TIP3    H226171   5.271   2.592  10.963
 1586TIP3   OH226172   3.996   2.522  10.087
 1586TIP3    H126173   3.997   2.618  10.099
 1586TIP3    H226174   3.909   2.505  10.050
 1587TIP3   OH226175   5.330   3.587  11.079
 1587TIP3    H126176   5.321   3.655  11.009
 1587TIP3    H226177   5.426   3.592  11.096
 1588TIP3   OH226178   4.079   1.999  10.959
 1588TIP3    H126179   4.060   2.000  10.863
 1588TIP3    H226180   4.037   1.913  10.984
 1589TIP3   OH226181   3.969   3.390  10.568
 1589TIP3    H126182   3.887   3.440  10.571
 1589TIP3    H226183   4.025   3.439  10.507
 1590TIP3   OH226184   3.895   3.656  11.702
 1590TIP3    H126185   3.955   3.636  11.776
 1590TIP3    H226186   3.855   3.569  11.684
 1591TIP3   OH226187   4.363   3.548  11.863
 1591TIP3    H126188   4.439   3.498  11.896
 1591TIP3    H226189   4.360   3.520  11.769
 1592TIP3   OH226190   5.013   3.386  11.738
 1592TIP3    H126191   4.982   3.297  11.765
 1592TIP3    H226192   5.090   3.398  11.797
 1593TIP3   OH226193   5.238   3.480  10.032
 1593TIP3    H126194   5.257   3.391  10.069
 1593TIP3    H226195   5.307   3.496   9.969
 1594TIP3   OH226196   3.886   3.033  11.802
 1594TIP3    H126197   3.902   2.942  11.771
 1594TIP3    H226198   3.812   3.059  11.744
 1595TIP3   OH226199   4.558   3.032  11.740
 1595TIP3    H126200   4.524   3.063  11.654
 1595TIP3    H226201   4.565   2.934  11.729
 1596TIP3   OH226202   5.127   3.018  11.479
 1596TIP3    H126203   5.206   3.076  11.473
 1596TIP3    H226204   5.057   3.085  11.483
 1597TIP3   OH226205   3.978   2.756  11.740
 1597TIP3    H126206   4.020   2.669  11.730
 1597TIP3    H226207   3.955   2.756  11.834
 1598TIP3   OH226208   4.368   2.650  11.475
 1598TIP3    H126209   4.308   2.722  11.501
 1598TIP3    H226210   4.408   2.687  11.394
 1599TIP3   OH226211   4.875   2.907  11.809
 1599TIP3    H126212   4.971   2.906  11.796
 1599TIP3    H226213   4.858   2.830  11.866
 1600TIP3   OH226214   4.408   2.388  11.581
 1600TIP3    H126215   4.420   2.317  11.515
 1600TIP3    H226216   4.404   2.469  11.526
 1601TIP3   OH226217   4.449   2.226  11.336
 1601TIP3    H126218   4.500   2.273  11.265
 1601TIP3    H226219   4.360   2.218  11.296
 1602TIP3   OH226220   4.603   2.775  11.360
 1602TIP3    H126221   4.678   2.759  11.303
 1602TIP3    H226222   4.566   2.859  11.327
 1603TIP3   OH226223   5.042   2.550  11.857
 1603TIP3    H126224   5.066   2.457  11.847
 1603TIP3    H226225   5.129   2.594  11.860
 1604TIP3   OH226226   5.176   2.829  11.673
 1604TIP3    H126227   5.151   2.902  11.611
 1604TIP3    H226228   5.272   2.826  11.654
 1605TIP3   OH226229   4.255   2.513  11.773
 1605TIP3    H126230   4.178   2.455  11.756
 1605TIP3    H226231   4.320   2.476  11.711
 1606TIP3   OH226232   4.528   1.970  11.375
 1606TIP3    H126233   4.510   2.066  11.365
 1606TIP3    H226234   4.453   1.933  11.325
 1607TIP3   OH226235   4.655   2.403  11.738
 1607TIP3    H126236   4.623   2.379  11.827
 1607TIP3    H226237   4.577   2.382  11.684
 1608TIP3   OH226238   4.927   2.317  11.647
 1608TIP3    H126239   4.830   2.322  11.658
 1608TIP3    H226240   4.953   2.253  11.716
 1609TIP3   OH226241   5.085   2.179  11.837
 1609TIP3    H126242   5.080   2.081  11.840
 1609TIP3    H226243   5.060   2.208  11.927
 1610TIP3   OH226244   4.062   2.306  11.748
 1610TIP3    H126245   4.087   2.233  11.690
 1610TIP3    H226246   4.053   2.262  11.835
 1611TIP3   OH226247   4.549   1.909  11.645
 1611TIP3    H126248   4.617   1.839  11.643
 1611TIP3    H226249   4.538   1.923  11.549
 1612TIP3   OH226250   4.585   2.070  11.857
 1612TIP3    H126251   4.568   2.020  11.773
 1612TIP3    H226252   4.525   2.147  11.847
 1613TIP3   OH226253   4.534   3.771  10.178
 1613TIP3    H126254   4.631   3.767  10.177
 1613TIP3    H226255   4.512   3.824  10.101
 1614TIP3   OH226256   3.893   3.219  10.122
 1614TIP3    H126257   3.987   3.231  10.138
 1614TIP3    H226258   3.895   3.155  10.050
 1615TIP3   OH226259   3.764   3.759  10.619
 1615TIP3    H126260   3.694   3.710  10.568
 1615TIP3    H226261   3.793   3.693  10.684
 1616TIP3   OH226262   3.849   3.570  10.806
 1616TIP3    H126263   3.812   3.483  10.826
 1616TIP3    H226264   3.870   3.604  10.895
 1617TIP3   OH226265   5.601   3.651  11.098
 1617TIP3    H126266   5.605   3.666  11.194
 1617TIP3    H226267   5.672   3.709  11.067
 1618TIP3   OH226268   5.559   3.610  11.393
 1618TIP3    H126269   5.512   3.533  11.354
 1618TIP3    H226270   5.608   3.566  11.464
 1619TIP3   OH226271   5.404   3.182  11.860
 1619TIP3    H126272   5.313   3.180  11.896
 1619TIP3    H226273   5.441   3.263  11.901
 1620TIP3   OH226274   5.534   3.012  10.402
 1620TIP3    H126275   5.617   3.058  10.420
 1620TIP3    H226276   5.536   2.941  10.470
 1621TIP3   OH226277   5.572   2.821  10.589
 1621TIP3    H126278   5.498   2.770  10.627
 1621TIP3    H226279   5.632   2.833  10.665
 1622TIP3   OH226280   5.547   3.092  11.090
 1622TIP3    H126281   5.628   3.055  11.052
 1622TIP3    H226282   5.561   3.188  11.073
 1623TIP3   OH226283   5.403   3.383  11.317
 1623TIP3    H126284   5.334   3.417  11.376
 1623TIP3    H226285   5.348   3.343  11.246
 1624TIP3   OH226286   5.600   2.807  10.230
 1624TIP3    H126287   5.545   2.843  10.161
 1624TIP3    H226288   5.597   2.877  10.297
 1625TIP3   OH226289   5.347   2.674  10.648
 1625TIP3    H126290   5.338   2.577  10.643
 1625TIP3    H226291   5.318   2.693  10.739
 1626TIP3   OH226292   3.854   2.879  11.055
 1626TIP3    H126293   3.871   2.871  10.958
 1626TIP3    H226294   3.943   2.861  11.090
 1627TIP3   OH226295   5.439   2.867  11.618
 1627TIP3    H126296   5.500   2.791  11.631
 1627TIP3    H226297   5.500   2.944  11.618
 1628TIP3   OH226298   5.589   2.655  11.683
 1628TIP3    H126299   5.501   2.615  11.667
 1628TIP3    H226300   5.646   2.577  11.675
 1629TIP3   OH226301   5.321   2.428  10.497
 1629TIP3    H126302   5.352   2.335  10.502
 1629TIP3    H226303   5.398   2.469  10.453
 1630TIP3   OH226304   5.385   2.482  11.038
 1630TIP3    H126305   5.481   2.506  11.037
 1630TIP3    H226306   5.364   2.497  11.132
 1631TIP3   OH226307   5.391   2.555  11.317
 1631TIP3    H126308   5.302   2.584  11.348
 1631TIP3    H226309   5.434   2.641  11.295
 1632TIP3   OH226310   3.816   2.409  11.671
 1632TIP3    H126311   3.909   2.388  11.689
 1632TIP3    H226312   3.770   2.327  11.697
 1633TIP3   OH226313   5.618   1.962  11.851
 1633TIP3    H126314   5.653   1.895  11.789
 1633TIP3    H226315   5.628   2.043  11.797
 1634TIP3   OH226316   5.380   2.159  10.504
 1634TIP3    H126317   5.408   2.109  10.583
 1634TIP3    H226318   5.327   2.094  10.453
 1635TIP3   OH226319   3.935   2.238  10.955
 1635TIP3    H126320   3.981   2.155  10.980
 1635TIP3    H226321   3.990   2.307  10.993
 1636TIP3   OH226322   3.764   2.538  11.058
 1636TIP3    H126323   3.820   2.513  10.982
 1636TIP3    H226324   3.810   2.619  11.085
 1637TIP3   OH226325   5.570   2.171  11.686
 1637TIP3    H126326   5.476   2.199  11.681
 1637TIP3    H226327   5.573   2.116  11.607
 1638TIP3   OH226328   3.801   2.168  10.468
 1638TIP3    H126329   3.706   2.182  10.452
 1638TIP3    H226330   3.842   2.211  10.390
 1639TIP3   OH226331   5.275   3.659  10.659
 1639TIP3    H126332   5.343   3.629  10.597
 1639TIP3    H226333   5.326   3.709  10.725
 1640TIP3   OH226334   3.795   2.029  11.295
 1640TIP3    H126335   3.728   2.010  11.363
 1640TIP3    H226336   3.749   2.097  11.241
 1641TIP3   OH226337   4.019   3.349  11.711
 1641TIP3    H126338   3.935   3.371  11.668
 1641TIP3    H226339   3.992   3.342  11.803
 1642TIP3   OH226340   4.309   3.450  11.339
 1642TIP3    H126341   4.276   3.537  11.312
 1642TIP3    H226342   4.402   3.458  11.309
 1643TIP3   OH226343   4.741   3.592  11.630
 1643TIP3    H126344   4.755   3.557  11.720
 1643TIP3    H226345   4.831   3.623  11.605
 1644TIP3   OH226346   4.970   3.720  11.560
 1644TIP3    H126347   5.043   3.661  11.537
 1644TIP3    H226348   5.007   3.763  11.641
 1645TIP3   OH226349   5.472   1.980  11.472
 1645TIP3    H126350   5.389   2.010  11.431
 1645TIP3    H226351   5.488   1.898  11.420
 1646TIP3   OH226352   4.051   3.773  11.339
 1646TIP3    H126353   3.978   3.824  11.299
 1646TIP3    H226354   4.020   3.755  11.428
 1647TIP3   OH226355   4.298   3.731  11.246
 1647TIP3    H126356   4.209   3.746  11.285
 1647TIP3    H226357   4.293   3.790  11.169
 1648TIP3   OH226358   4.769   3.723  11.163
 1648TIP3    H126359   4.723   3.778  11.098
 1648TIP3    H226360   4.782   3.786  11.237
 1649TIP3   OH226361   4.998   3.603  11.266
 1649TIP3    H126362   4.912   3.631  11.229
 1649TIP3    H226363   5.046   3.687  11.257
 1650TIP3   OH226364   5.258   3.762  11.289
 1650TIP3    H126365   5.251   3.857  11.265
 1650TIP3    H226366   5.278   3.723  11.201
 1651TIP3   OH226367   3.998   3.639  11.033
 1651TIP3    H126368   3.989   3.592  11.119
 1651TIP3    H226369   4.079   3.601  10.994
 1652TIP3   OH226370   4.205   3.509  10.899
 1652TIP3    H126371   4.189   3.416  10.922
 1652TIP3    H226372   4.291   3.525  10.944
 1653TIP3   OH226373   4.466   3.558  10.987
 1653TIP3    H126374   4.481   3.466  10.960
 1653TIP3    H226375   4.468   3.550  11.083
 1654TIP3   OH226376   4.811   2.124  10.899
 1654TIP3    H126377   4.744   2.060  10.928
 1654TIP3    H226378   4.866   2.070  10.842
 1655TIP3   OH226379   5.323   1.928  10.908
 1655TIP3    H126380   5.385   1.987  10.858
 1655TIP3    H226381   5.235   1.964  10.883
 1656TIP3   OH226382   5.491   2.053  10.739
 1656TIP3    H126383   5.559   1.997  10.692
 1656TIP3    H226384   5.541   2.134  10.750
 1657TIP3   OH226385   4.047   1.985  10.686
 1657TIP3    H126386   3.968   1.965  10.632
 1657TIP3    H226387   4.094   1.900  10.676
 1658TIP3   OH226388   3.927   1.963  10.266
 1658TIP3    H126389   3.971   2.019  10.199
 1658TIP3    H226390   3.864   2.020  10.309
 1659TIP3   OH226391   4.494   1.978  10.663
 1659TIP3    H126392   4.584   2.013  10.655
 1659TIP3    H226393   4.492   1.956  10.757
 1660TIP3   OH226394   5.066   1.979  10.825
 1660TIP3    H126395   5.062   1.990  10.730
 1660TIP3    H226396   5.028   1.889  10.838
 1661TIP3   OH226397   5.194   1.981  10.397
 1661TIP3    H126398   5.122   2.044  10.380
 1661TIP3    H226399   5.148   1.897  10.416
 1662TIP3   OH226400   4.609   2.180  10.344
 1662TIP3    H126401   4.631   2.121  10.417
 1662TIP3    H226402   4.614   2.265  10.393
 1663TIP3   OH226403   4.801   3.686  10.185
 1663TIP3    H126404   4.895   3.709  10.172
 1663TIP3    H226405   4.781   3.635  10.103
 1664TIP3   OH226406   5.472   3.640  10.463
 1664TIP3    H126407   5.452   3.560  10.409
 1664TIP3    H226408   5.466   3.712  10.395
 1665TIP3   OH226409   4.036   2.040  11.630
 1665TIP3    H126410   3.997   1.960  11.670
 1665TIP3    H226411   4.127   2.036  11.668
 1666TIP3   OH226412   4.236   1.978  11.794
 1666TIP3    H126413   4.325   1.945  11.773
 1666TIP3    H226414   4.199   1.897  11.835
 1667TIP3   OH226415   5.077   1.907  11.809
 1667TIP3    H126416   5.086   1.860  11.894
 1667TIP3    H226417   5.168   1.903  11.775
 1668TIP3   OH226418   5.398   3.512  11.672
 1668TIP3    H126419   5.317   3.498  11.618
 1668TIP3    H226420   5.386   3.607  11.694
 1669TIP3   OH226421   6.843   2.898  10.669
 1669TIP3    H126422   6.843   2.996  10.669
 1669TIP3    H226423   6.767   2.878  10.615
 1670TIP3   OH226424   6.728   2.825  11.018
 1670TIP3    H126425   6.726   2.761  11.091
 1670TIP3    H226426   6.694   2.773  10.944
 1671TIP3   OH226427   5.963   2.793  11.175
 1671TIP3    H126428   5.971   2.724  11.244
 1671TIP3    H226429   6.038   2.850  11.198
 1672TIP3   OH226430   7.098   3.118  10.848
 1672TIP3    H126431   7.057   3.047  10.899
 1672TIP3    H226432   7.100   3.189  10.914
 1673TIP3   OH226433   6.055   3.237  11.025
 1673TIP3    H126434   6.024   3.151  10.993
 1673TIP3    H226435   6.151   3.219  11.030
 1674TIP3   OH226436   5.790   2.814  10.787
 1674TIP3    H126437   5.818   2.733  10.835
 1674TIP3    H226438   5.861   2.827  10.723
 1675TIP3   OH226439   6.809   3.637  10.872
 1675TIP3    H126440   6.870   3.566  10.841
 1675TIP3    H226441   6.785   3.602  10.958
 1676TIP3   OH226442   6.566   3.066  11.067
 1676TIP3    H126443   6.599   3.001  11.002
 1676TIP3    H226444   6.647   3.082  11.118
 1677TIP3   OH226445   6.883   2.513  11.098
 1677TIP3    H126446   6.899   2.416  11.098
 1677TIP3    H226447   6.873   2.527  11.002
 1678TIP3   OH226448   6.192   2.322  10.820
 1678TIP3    H126449   6.208   2.404  10.771
 1678TIP3    H226450   6.156   2.262  10.753
 1679TIP3   OH226451   6.968   2.332  10.661
 1679TIP3    H126452   7.034   2.298  10.726
 1679TIP3    H226453   7.025   2.383  10.603
 1680TIP3   OH226454   5.858   2.565  10.893
 1680TIP3    H126455   5.922   2.508  10.941
 1680TIP3    H226456   5.863   2.528  10.805
 1681TIP3   OH226457   6.372   2.718  10.825
 1681TIP3    H126458   6.438   2.660  10.867
 1681TIP3    H226459   6.320   2.651  10.776
 1682TIP3   OH226460   6.085   2.211  11.226
 1682TIP3    H126461   6.056   2.268  11.152
 1682TIP3    H226462   6.016   2.233  11.293
 1683TIP3   OH226463   6.809   3.155  10.577
 1683TIP3    H126464   6.785   3.134  10.486
 1683TIP3    H226465   6.787   3.249  10.588
 1684TIP3   OH226466   6.335   2.975  11.248
 1684TIP3    H126467   6.265   3.039  11.270
 1684TIP3    H226468   6.406   3.035  11.220
 1685TIP3   OH226469   7.118   2.262  10.868
 1685TIP3    H126470   7.119   2.182  10.920
 1685TIP3    H226471   7.195   2.308  10.908
 1686TIP3   OH226472   6.039   2.398  11.023
 1686TIP3    H126473   6.102   2.464  11.059
 1686TIP3    H226474   6.094   2.353  10.955
 1687TIP3   OH226475   6.180   3.175  11.330
 1687TIP3    H126476   6.175   3.267  11.297
 1687TIP3    H226477   6.092   3.168  11.375
 1688TIP3   OH226478   7.129   3.296  11.097
 1688TIP3    H126479   7.034   3.317  11.100
 1688TIP3    H226480   7.167   3.380  11.064
 1689TIP3   OH226481   7.162   2.143  11.197
 1689TIP3    H126482   7.093   2.211  11.211
 1689TIP3    H226483   7.238   2.196  11.168
 1690TIP3   OH226484   6.479   1.943  10.971
 1690TIP3    H126485   6.463   1.847  10.963
 1690TIP3    H226486   6.392   1.974  11.003
 1691TIP3   OH226487   6.965   3.474  10.744
 1691TIP3    H126488   7.019   3.407  10.698
 1691TIP3    H226489   7.011   3.555  10.712
 1692TIP3   OH226490   7.089   3.276  10.599
 1692TIP3    H126491   7.074   3.204  10.536
 1692TIP3    H226492   7.101   3.224  10.681
 1693TIP3   OH226493   7.232   3.148  11.458
 1693TIP3    H126494   7.260   3.078  11.395
 1693TIP3    H226495   7.273   3.224  11.412
 1694TIP3   OH226496   7.049   2.844  10.509
 1694TIP3    H126497   6.980   2.870  10.574
 1694TIP3    H226498   7.098   2.781  10.566
 1695TIP3   OH226499   7.047   2.662  11.424
 1695TIP3    H126500   7.042   2.742  11.479
 1695TIP3    H226501   6.983   2.689  11.355
 1696TIP3   OH226502   6.213   2.911  10.706
 1696TIP3    H126503   6.182   2.870  10.623
 1696TIP3    H226504   6.275   2.843  10.741
 1697TIP3   OH226505   6.345   3.248  10.973
 1697TIP3    H126506   6.344   3.196  10.893
 1697TIP3    H226507   6.424   3.213  11.020
 1698TIP3   OH226508   6.247   2.785  11.072
 1698TIP3    H126509   6.302   2.796  10.993
 1698TIP3    H226510   6.285   2.852  11.134
 1699TIP3   OH226511   6.880   3.344  11.140
 1699TIP3    H126512   6.861   3.406  11.211
 1699TIP3    H226513   6.862   3.257  11.183
 1700TIP3   OH226514   6.342   3.228  11.542
 1700TIP3    H126515   6.300   3.302  11.591
 1700TIP3    H226516   6.275   3.208  11.472
 1701TIP3   OH226517   6.036   2.844  11.457
 1701TIP3    H126518   6.041   2.911  11.528
 1701TIP3    H226519   5.942   2.853  11.436
 1702TIP3   OH226520   6.167   3.431  11.616
 1702TIP3    H126521   6.160   3.422  11.520
 1702TIP3    H226522   6.074   3.418  11.643
 1703TIP3   OH226523   6.115   2.815  10.464
 1703TIP3    H126524   6.079   2.890  10.417
 1703TIP3    H226525   6.046   2.748  10.450
 1704TIP3   OH226526   5.719   3.055  11.358
 1704TIP3    H126527   5.675   3.047  11.271
 1704TIP3    H226528   5.728   2.961  11.379
 1705TIP3   OH226529   5.695   3.329  11.037
 1705TIP3    H126530   5.791   3.318  11.032
 1705TIP3    H226531   5.688   3.412  11.086
 1706TIP3   OH226532   6.615   3.353  11.490
 1706TIP3    H126533   6.621   3.438  11.541
 1706TIP3    H226534   6.528   3.317  11.515
 1707TIP3   OH226535   6.662   3.727  10.469
 1707TIP3    H126536   6.649   3.729  10.375
 1707TIP3    H226537   6.662   3.823  10.491
 1708TIP3   OH226538   6.024   3.616  10.654
 1708TIP3    H126539   6.038   3.574  10.742
 1708TIP3    H226540   5.939   3.574  10.629
 1709TIP3   OH226541   6.931   3.643  10.449
 1709TIP3    H126542   6.836   3.651  10.469
 1709TIP3    H226543   6.959   3.567  10.502
 1710TIP3   OH226544   7.184   2.564  11.654
 1710TIP3    H126545   7.181   2.599  11.565
 1710TIP3    H226546   7.238   2.481  11.639
 1711TIP3   OH226547   5.948   3.188  11.450
 1711TIP3    H126548   5.970   3.151  11.539
 1711TIP3    H226549   5.861   3.147  11.430
 1712TIP3   OH226550   6.216   2.035  11.047
 1712TIP3    H126551   6.126   2.021  11.010
 1712TIP3    H226552   6.203   2.118  11.095
 1713TIP3   OH226553   6.681   2.001  11.382
 1713TIP3    H126554   6.720   1.959  11.461
 1713TIP3    H226555   6.584   1.989  11.397
 1714TIP3   OH226556   7.002   2.382  11.466
 1714TIP3    H126557   6.954   2.364  11.550
 1714TIP3    H226558   6.994   2.477  11.453
 1715TIP3   OH226559   6.225   2.531  11.169
 1715TIP3    H126560   6.153   2.531  11.235
 1715TIP3    H226561   6.223   2.623  11.136
 1716TIP3   OH226562   6.222   2.540  10.658
 1716TIP3    H126563   6.129   2.521  10.640
 1716TIP3    H226564   6.262   2.513  10.573
 1717TIP3   OH226565   6.773   2.593  10.531
 1717TIP3    H126566   6.734   2.676  10.502
 1717TIP3    H226567   6.847   2.576  10.471
 1718TIP3   OH226568   6.681   2.615  11.679
 1718TIP3    H126569   6.629   2.537  11.710
 1718TIP3    H226570   6.765   2.603  11.726
 1719TIP3   OH226571   6.874   2.545  10.821
 1719TIP3    H126572   6.852   2.599  10.743
 1719TIP3    H226573   6.888   2.458  10.777
 1720TIP3   OH226574   5.988   2.557  11.339
 1720TIP3    H126575   5.997   2.598  11.427
 1720TIP3    H226576   5.945   2.473  11.361
 1721TIP3   OH226577   6.330   2.308  10.039
 1721TIP3    H126578   6.279   2.248  10.094
 1721TIP3    H226579   6.264   2.328   9.969
 1722TIP3   OH226580   6.796   2.700  11.274
 1722TIP3    H126581   6.836   2.631  11.217
 1722TIP3    H226582   6.750   2.648  11.342
 1723TIP3   OH226583   6.477   2.297  10.758
 1723TIP3    H126584   6.385   2.301  10.789
 1723TIP3    H226585   6.526   2.282  10.840
 1724TIP3   OH226586   6.319   2.460  10.408
 1724TIP3    H126587   6.415   2.466  10.425
 1724TIP3    H226588   6.304   2.525  10.338
 1725TIP3   OH226589   6.911   2.223  11.084
 1725TIP3    H126590   6.844   2.227  11.155
 1725TIP3    H226591   6.862   2.198  11.004
 1726TIP3   OH226592   7.229   3.791  11.719
 1726TIP3    H126593   7.263   3.824  11.634
 1726TIP3    H226594   7.304   3.817  11.775
 1727TIP3   OH226595   6.006   3.034  11.672
 1727TIP3    H126596   6.078   3.058  11.733
 1727TIP3    H226597   5.929   3.042  11.732
 1728TIP3   OH226598   6.606   2.575  10.946
 1728TIP3    H126599   6.668   2.521  10.897
 1728TIP3    H226600   6.591   2.521  11.025
 1729TIP3   OH226601   6.470   2.407  11.189
 1729TIP3    H126602   6.388   2.459  11.198
 1729TIP3    H226603   6.525   2.442  11.261
 1730TIP3   OH226604   6.523   3.038  10.355
 1730TIP3    H126605   6.451   2.979  10.328
 1730TIP3    H226606   6.510   3.042  10.452
 1731TIP3   OH226607   7.216   2.952  11.239
 1731TIP3    H126608   7.288   2.965  11.174
 1731TIP3    H226609   7.140   2.952  11.178
 1732TIP3   OH226610   6.679   3.056  11.483
 1732TIP3    H126611   6.643   3.014  11.562
 1732TIP3    H226612   6.655   3.149  11.494
 1733TIP3   OH226613   6.983   2.504  10.342
 1733TIP3    H126614   7.071   2.488  10.381
 1733TIP3    H226615   6.996   2.583  10.291
 1734TIP3   OH226616   6.040   2.968  10.940
 1734TIP3    H126617   6.109   2.961  10.871
 1734TIP3    H226618   6.047   2.883  10.987
 1735TIP3   OH226619   5.739   2.809  11.465
 1735TIP3    H126620   5.756   2.765  11.550
 1735TIP3    H226621   5.677   2.748  11.421
 1736TIP3   OH226622   6.440   2.765  11.683
 1736TIP3    H126623   6.408   2.734  11.597
 1736TIP3    H226624   6.532   2.733  11.683
 1737TIP3   OH226625   6.908   3.297  11.478
 1737TIP3    H126626   6.816   3.316  11.454
 1737TIP3    H226627   6.906   3.328  11.571
 1738TIP3   OH226628   7.019   2.879  11.067
 1738TIP3    H126629   6.926   2.857  11.054
 1738TIP3    H226630   7.067   2.805  11.026
 1739TIP3   OH226631   6.276   3.312  10.667
 1739TIP3    H126632   6.325   3.395  10.658
 1739TIP3    H226633   6.186   3.341  10.648
 1740TIP3   OH226634   6.418   3.083  10.627
 1740TIP3    H126635   6.387   3.174  10.640
 1740TIP3    H226636   6.348   3.033  10.674
 1741TIP3   OH226637   6.464   3.500  11.270
 1741TIP3    H126638   6.510   3.580  11.241
 1741TIP3    H226639   6.525   3.466  11.338
 1742TIP3   OH226640   6.287   3.577  10.582
 1742TIP3    H126641   6.191   3.594  10.598
 1742TIP3    H226642   6.323   3.661  10.616
 1743TIP3   OH226643   6.818   3.099  11.232
 1743TIP3    H126644   6.784   3.080  11.322
 1743TIP3    H226645   6.880   3.027  11.215
 1744TIP3   OH226646   7.098   3.555  11.479
 1744TIP3    H126647   7.026   3.508  11.433
 1744TIP3    H226648   7.119   3.627  11.415
 1745TIP3   OH226649   5.904   2.283  11.420
 1745TIP3    H126650   5.813   2.318  11.418
 1745TIP3    H226651   5.893   2.198  11.466
 1746TIP3   OH226652   7.126   3.066  10.368
 1746TIP3    H126653   7.104   2.990  10.426
 1746TIP3    H226654   7.220   3.081  10.390
 1747TIP3   OH226655   5.865   3.461  11.263
 1747TIP3    H126656   5.895   3.369  11.263
 1747TIP3    H226657   5.891   3.489  11.351
 1748TIP3   OH226658   6.774   2.259  11.318
 1748TIP3    H126659   6.849   2.266  11.378
 1748TIP3    H226660   6.737   2.171  11.338
 1749TIP3   OH226661   6.575   2.394  10.505
 1749TIP3    H126662   6.655   2.450  10.511
 1749TIP3    H226663   6.549   2.380  10.598
 1750TIP3   OH226664   6.633   2.495  11.426
 1750TIP3    H126665   6.641   2.551  11.506
 1750TIP3    H226666   6.698   2.424  11.435
 1751TIP3   OH226667   6.659   2.103  10.594
 1751TIP3    H126668   6.627   2.162  10.664
 1751TIP3    H226669   6.727   2.161  10.558
 1752TIP3   OH226670   6.226   2.205  10.276
 1752TIP3    H126671   6.219   2.298  10.301
 1752TIP3    H226672   6.321   2.188  10.289
 1753TIP3   OH226673   7.235   2.258  11.490
 1753TIP3    H126674   7.152   2.311  11.494
 1753TIP3    H226675   7.275   2.288  11.409
 1754TIP3   OH226676   7.108   2.660  10.917
 1754TIP3    H126677   7.027   2.616  10.884
 1754TIP3    H226678   7.152   2.589  10.964
 1755TIP3   OH226679   7.222   3.590  11.076
 1755TIP3    H126680   7.205   3.656  11.007
 1755TIP3    H226681   7.316   3.598  11.093
 1756TIP3   OH226682   5.964   1.999  10.954
 1756TIP3    H126683   5.941   1.997  10.860
 1756TIP3    H226684   5.923   1.915  10.983
 1757TIP3   OH226685   5.864   3.398  10.579
 1757TIP3    H126686   5.774   3.431  10.568
 1757TIP3    H226687   5.903   3.437  10.501
 1758TIP3   OH226688   5.780   3.656  11.702
 1758TIP3    H126689   5.841   3.636  11.776
 1758TIP3    H226690   5.740   3.569  11.684
 1759TIP3   OH226691   6.249   3.548  11.863
 1759TIP3    H126692   6.324   3.498  11.896
 1759TIP3    H226693   6.246   3.520  11.769
 1760TIP3   OH226694   6.905   3.385  11.737
 1760TIP3    H126695   6.870   3.298  11.766
 1760TIP3    H226696   6.980   3.395  11.798
 1761TIP3   OH226697   5.771   3.033  11.802
 1761TIP3    H126698   5.788   2.942  11.771
 1761TIP3    H226699   5.697   3.059  11.744
 1762TIP3   OH226700   6.443   3.032  11.740
 1762TIP3    H126701   6.410   3.063  11.654
 1762TIP3    H226702   6.451   2.934  11.729
 1763TIP3   OH226703   7.010   3.014  11.479
 1763TIP3    H126704   7.089   3.073  11.474
 1763TIP3    H226705   6.943   3.083  11.483
 1764TIP3   OH226706   5.864   2.756  11.740
 1764TIP3    H126707   5.905   2.669  11.730
 1764TIP3    H226708   5.840   2.756  11.834
 1765TIP3   OH226709   6.328   2.870  10.245
 1765TIP3    H126710   6.281   2.816  10.309
 1765TIP3    H226711   6.348   2.801  10.178
 1766TIP3   OH226712   6.253   2.650  11.475
 1766TIP3    H126713   6.195   2.723  11.502
 1766TIP3    H226714   6.293   2.687  11.394
 1767TIP3   OH226715   6.761   2.908  11.809
 1767TIP3    H126716   6.856   2.906  11.797
 1767TIP3    H226717   6.745   2.830  11.865
 1768TIP3   OH226718   6.294   2.388  11.581
 1768TIP3    H126719   6.306   2.317  11.515
 1768TIP3    H226720   6.290   2.469  11.526
 1769TIP3   OH226721   6.335   2.226  11.336
 1769TIP3    H126722   6.385   2.272  11.265
 1769TIP3    H226723   6.245   2.218  11.296
 1770TIP3   OH226724   6.488   2.775  11.360
 1770TIP3    H126725   6.564   2.758  11.303
 1770TIP3    H226726   6.452   2.859  11.327
 1771TIP3   OH226727   6.933   2.553  11.858
 1771TIP3    H126728   6.955   2.459  11.846
 1771TIP3    H226729   7.021   2.595  11.854
 1772TIP3   OH226730   7.064   2.834  11.674
 1772TIP3    H126731   7.035   2.902  11.609
 1772TIP3    H226732   7.157   2.823  11.652
 1773TIP3   OH226733   6.140   2.513  11.773
 1773TIP3    H126734   6.063   2.455  11.756
 1773TIP3    H226735   6.206   2.476  11.711
 1774TIP3   OH226736   6.414   1.970  11.375
 1774TIP3    H126737   6.396   2.066  11.366
 1774TIP3    H226738   6.338   1.933  11.325
 1775TIP3   OH226739   6.540   2.403  11.738
 1775TIP3    H126740   6.509   2.379  11.827
 1775TIP3    H226741   6.462   2.382  11.684
 1776TIP3   OH226742   6.808   2.319  11.648
 1776TIP3    H126743   6.712   2.322  11.660
 1776TIP3    H226744   6.840   2.255  11.714
 1777TIP3   OH226745   6.980   2.176  11.840
 1777TIP3    H126746   6.965   2.080  11.840
 1777TIP3    H226747   6.944   2.208  11.926
 1778TIP3   OH226748   5.948   2.307  11.748
 1778TIP3    H126749   5.973   2.233  11.690
 1778TIP3    H226750   5.939   2.262  11.835
 1779TIP3   OH226751   6.435   1.909  11.645
 1779TIP3    H126752   6.503   1.839  11.643
 1779TIP3    H226753   6.423   1.923  11.549
 1780TIP3   OH226754   6.471   2.070  11.857
 1780TIP3    H126755   6.454   2.020  11.773
 1780TIP3    H226756   6.411   2.147  11.847
 1781TIP3   OH226757   5.650   3.757  10.619
 1781TIP3    H126758   5.580   3.708  10.571
 1781TIP3    H226759   5.679   3.691  10.684
 1782TIP3   OH226760   5.733   3.570  10.805
 1782TIP3    H126761   5.698   3.482  10.825
 1782TIP3    H226762   5.758   3.603  10.893
 1783TIP3   OH226763   7.280   3.377  11.323
 1783TIP3    H126764   7.214   3.420  11.379
 1783TIP3    H226765   7.227   3.340  11.249
 1784TIP3   OH226766   7.188   2.680  10.657
 1784TIP3    H126767   7.213   2.587  10.659
 1784TIP3    H226768   7.200   2.703  10.751
 1785TIP3   OH226769   5.739   2.878  11.054
 1785TIP3    H126770   5.757   2.871  10.958
 1785TIP3    H226771   5.829   2.862  11.090
 1786TIP3   OH226772   7.204   2.423  10.477
 1786TIP3    H126773   7.234   2.339  10.516
 1786TIP3    H226774   7.289   2.457  10.446
 1787TIP3   OH226775  -0.053   2.399  11.039
 1787TIP3    H126776   0.036   2.435  11.025
 1787TIP3    H226777  -0.075   2.464  11.108
 1788TIP3   OH226778   7.278   2.561  11.342
 1788TIP3    H126779   7.184   2.588  11.351
 1788TIP3    H226780   7.314   2.630  11.283
 1789TIP3   OH226781   5.701   2.409  11.671
 1789TIP3    H126782   5.795   2.388  11.689
 1789TIP3    H226783   5.655   2.327  11.697
 1790TIP3   OH226784   7.176   2.112  10.555
 1790TIP3    H126785   7.270   2.109  10.584
 1790TIP3    H226786   7.195   2.083  10.466
 1791TIP3   OH226787   5.820   2.239  10.959
 1791TIP3    H126788   5.867   2.155  10.981
 1791TIP3    H226789   5.877   2.307  10.996
 1792TIP3   OH226790   5.649   2.539  11.057
 1792TIP3    H126791   5.706   2.513  10.982
 1792TIP3    H226792   5.696   2.619  11.086
 1793TIP3   OH226793   7.139   3.641  10.669
 1793TIP3    H126794   7.206   3.606  10.609
 1793TIP3    H226795   7.191   3.698  10.728
 1794TIP3   OH226796   5.681   2.029  11.296
 1794TIP3    H126797   5.613   2.010  11.364
 1794TIP3    H226798   5.635   2.096  11.242
 1795TIP3   OH226799   5.905   3.349  11.711
 1795TIP3    H126800   5.821   3.371  11.668
 1795TIP3    H226801   5.878   3.342  11.803
 1796TIP3   OH226802   6.195   3.450  11.339
 1796TIP3    H126803   6.162   3.537  11.312
 1796TIP3    H226804   6.287   3.458  11.309
 1797TIP3   OH226805   6.627   3.592  11.630
 1797TIP3    H126806   6.640   3.557  11.720
 1797TIP3    H226807   6.717   3.623  11.605
 1798TIP3   OH226808   6.857   3.719  11.562
 1798TIP3    H126809   6.932   3.662  11.537
 1798TIP3    H226810   6.896   3.764  11.640
 1799TIP3   OH226811   5.937   3.778  11.340
 1799TIP3    H126812   5.863   3.822  11.299
 1799TIP3    H226813   5.906   3.753  11.428
 1800TIP3   OH226814   6.183   3.731  11.246
 1800TIP3    H126815   6.094   3.748  11.285
 1800TIP3    H226816   6.179   3.790  11.169
 1801TIP3   OH226817   6.650   3.722  11.166
 1801TIP3    H126818   6.608   3.778  11.099
 1801TIP3    H226819   6.667   3.786  11.237
 1802TIP3   OH226820   6.882   3.603  11.267
 1802TIP3    H126821   6.797   3.630  11.228
 1802TIP3    H226822   6.929   3.688  11.259
 1803TIP3   OH226823   7.129   3.761  11.287
 1803TIP3    H126824   7.128   3.856  11.265
 1803TIP3    H226825   7.162   3.723  11.203
 1804TIP3   OH226826   5.883   3.639  11.033
 1804TIP3    H126827   5.874   3.592  11.119
 1804TIP3    H226828   5.964   3.600  10.994
 1805TIP3   OH226829   6.090   3.510  10.900
 1805TIP3    H126830   6.074   3.416  10.921
 1805TIP3    H226831   6.177   3.525  10.942
 1806TIP3   OH226832   6.347   3.558  10.987
 1806TIP3    H126833   6.367   3.467  10.959
 1806TIP3    H226834   6.356   3.552  11.083
 1807TIP3   OH226835   6.693   2.123  10.895
 1807TIP3    H126836   6.628   2.059  10.929
 1807TIP3    H226837   6.752   2.069  10.842
 1808TIP3   OH226838   7.214   1.922  10.903
 1808TIP3    H126839   7.267   1.992  10.862
 1808TIP3    H226840   7.124   1.961  10.887
 1809TIP3   OH226841   6.387   1.975  10.661
 1809TIP3    H126842   6.474   2.018  10.660
 1809TIP3    H226843   6.376   1.956  10.754
 1810TIP3   OH226844   6.958   1.973  10.825
 1810TIP3    H126845   6.946   1.994  10.731
 1810TIP3    H226846   6.909   1.888  10.837
 1811TIP3   OH226847   5.805   3.563  10.359
 1811TIP3    H126848   5.739   3.550  10.288
 1811TIP3    H226849   5.798   3.657  10.378
 1812TIP3   OH226850   6.494   2.180  10.351
 1812TIP3    H126851   6.518   2.125  10.427
 1812TIP3    H226852   6.501   2.267  10.394
 1813TIP3   OH226853   5.922   2.040  11.630
 1813TIP3    H126854   5.883   1.960  11.670
 1813TIP3    H226855   6.013   2.036  11.668
 1814TIP3   OH226856   6.122   1.978  11.794
 1814TIP3    H126857   6.211   1.944  11.773
 1814TIP3    H226858   6.084   1.897  11.834
 1815TIP3   OH226859   5.983   3.655  10.057
 1815TIP3    H126860   5.957   3.682  10.145
 1815TIP3    H226861   6.059   3.598  10.067
 1816TIP3   OH226862   6.962   1.909  11.807
 1816TIP3    H126863   6.971   1.862  11.892
 1816TIP3    H226864   7.054   1.907  11.773
 1817TIP3   OH226865   7.262   3.500  11.686
 1817TIP3    H126866   7.197   3.494  11.613
 1817TIP3    H226867   7.264   3.598  11.695
 1818TIP3   OH226868   1.185   4.784  10.670
 1818TIP3    H126869   1.184   4.882  10.668
 1818TIP3    H226870   1.113   4.762  10.609
 1819TIP3   OH226871   1.070   4.710  11.020
 1819TIP3    H126872   1.069   4.646  11.093
 1819TIP3    H226873   1.035   4.659  10.945
 1820TIP3   OH226874   0.313   4.676  11.171
 1820TIP3    H126875   0.317   4.610  11.243
 1820TIP3    H226876   0.381   4.738  11.200
 1821TIP3   OH226877   1.439   5.006  10.848
 1821TIP3    H126878   1.398   4.934  10.897
 1821TIP3    H226879   1.441   5.077  10.915
 1822TIP3   OH226880   0.398   5.121  11.027
 1822TIP3    H126881   0.367   5.036  10.993
 1822TIP3    H226882   0.494   5.105  11.030
 1823TIP3   OH226883   0.092   4.478  10.535
 1823TIP3    H126884   0.045   4.558  10.570
 1823TIP3    H226885   0.012   4.425  10.530
 1824TIP3   OH226886   0.128   4.695  10.785
 1824TIP3    H126887   0.159   4.620  10.838
 1824TIP3    H226888   0.202   4.714  10.726
 1825TIP3   OH226889   1.151   5.521  10.874
 1825TIP3    H126890   1.217   5.453  10.845
 1825TIP3    H226891   1.130   5.487  10.961
 1826TIP3   OH226892   0.908   4.951  11.068
 1826TIP3    H126893   0.942   4.888  11.002
 1826TIP3    H226894   0.989   4.966  11.119
 1827TIP3   OH226895   1.768   4.116  11.141
 1827TIP3    H126896   1.786   4.175  11.216
 1827TIP3    H226897   1.824   4.159  11.074
 1828TIP3   OH226898   1.225   4.397  11.099
 1828TIP3    H126899   1.242   4.302  11.100
 1828TIP3    H226900   1.215   4.412  11.003
 1829TIP3   OH226901   0.543   4.204  10.821
 1829TIP3    H126902   0.543   4.296  10.788
 1829TIP3    H226903   0.491   4.146  10.762
 1830TIP3   OH226904   1.311   4.215  10.657
 1830TIP3    H126905   1.376   4.182  10.724
 1830TIP3    H226906   1.368   4.273  10.603
 1831TIP3   OH226907   0.197   4.440  10.887
 1831TIP3    H126908   0.268   4.393  10.936
 1831TIP3    H226909   0.212   4.411  10.797
 1832TIP3   OH226910   0.715   4.603  10.826
 1832TIP3    H126911   0.782   4.546  10.867
 1832TIP3    H226912   0.663   4.539  10.776
 1833TIP3   OH226913   1.820   4.263  11.370
 1833TIP3    H126914   1.749   4.330  11.355
 1833TIP3    H226915   1.812   4.245  11.464
 1834TIP3   OH226916   0.431   4.096  11.225
 1834TIP3    H126917   0.400   4.153  11.152
 1834TIP3    H226918   0.363   4.118  11.293
 1835TIP3   OH226919   1.157   5.044  10.578
 1835TIP3    H126920   1.126   5.016  10.491
 1835TIP3    H226921   1.125   5.137  10.587
 1836TIP3   OH226922   0.681   4.861  11.248
 1836TIP3    H126923   0.609   4.925  11.270
 1836TIP3    H226924   0.751   4.922  11.219
 1837TIP3   OH226925   1.493   4.148  10.856
 1837TIP3    H126926   1.468   4.073  10.910
 1837TIP3    H226927   1.556   4.193  10.915
 1838TIP3   OH226928   0.381   4.281  11.025
 1838TIP3    H126929   0.443   4.349  11.062
 1838TIP3    H226930   0.439   4.240  10.956
 1839TIP3   OH226931   0.522   5.060  11.329
 1839TIP3    H126932   0.518   5.152  11.297
 1839TIP3    H226933   0.434   5.052  11.373
 1840TIP3   OH226934   0.132   5.026  10.404
 1840TIP3    H126935   0.103   5.057  10.317
 1840TIP3    H226936   0.136   5.106  10.459
 1841TIP3   OH226937   1.492   5.189  11.086
 1841TIP3    H126938   1.395   5.201  11.098
 1841TIP3    H226939   1.519   5.281  11.065
 1842TIP3   OH226940   1.525   4.018  11.224
 1842TIP3    H126941   1.452   4.081  11.215
 1842TIP3    H226942   1.596   4.059  11.171
 1843TIP3   OH226943   0.821   3.830  10.970
 1843TIP3    H126944   0.808   3.733  10.964
 1843TIP3    H226945   0.734   3.859  11.003
 1844TIP3   OH226946   1.318   5.368  10.747
 1844TIP3    H126947   1.362   5.296  10.696
 1844TIP3    H226948   1.360   5.446  10.705
 1845TIP3   OH226949   1.438   5.161  10.597
 1845TIP3    H126950   1.413   5.089  10.535
 1845TIP3    H226951   1.442   5.112  10.681
 1846TIP3   OH226952   1.604   5.019  11.446
 1846TIP3    H126953   1.614   4.955  11.372
 1846TIP3    H226954   1.621   5.104  11.403
 1847TIP3   OH226955   1.052   4.713  10.424
 1847TIP3    H126956   0.980   4.765  10.385
 1847TIP3    H226957   1.121   4.718  10.354
 1848TIP3   OH226958   1.053   4.555  10.132
 1848TIP3    H126959   1.132   4.563  10.188
 1848TIP3    H226960   1.088   4.498  10.062
 1849TIP3   OH226961   1.790   4.651  11.251
 1849TIP3    H126962   1.723   4.723  11.252
 1849TIP3    H226963   1.837   4.674  11.168
 1850TIP3   OH226964   1.395   4.731  10.515
 1850TIP3    H126965   1.320   4.753  10.574
 1850TIP3    H226966   1.443   4.665  10.567
 1851TIP3   OH226967   1.392   4.548  11.427
 1851TIP3    H126968   1.387   4.629  11.479
 1851TIP3    H226969   1.327   4.575  11.358
 1852TIP3   OH226970   0.558   4.796  10.708
 1852TIP3    H126971   0.523   4.758  10.624
 1852TIP3    H226972   0.621   4.728  10.739
 1853TIP3   OH226973   0.689   5.134  10.973
 1853TIP3    H126974   0.688   5.082  10.892
 1853TIP3    H226975   0.767   5.099  11.020
 1854TIP3   OH226976   0.593   4.670  11.072
 1854TIP3    H126977   0.646   4.682  10.992
 1854TIP3    H226978   0.629   4.738  11.134
 1855TIP3   OH226979   1.230   5.229  11.143
 1855TIP3    H126980   1.202   5.292  11.210
 1855TIP3    H226981   1.205   5.143  11.185
 1856TIP3   OH226982   0.685   5.113  11.542
 1856TIP3    H126983   0.644   5.188  11.590
 1856TIP3    H226984   0.618   5.094  11.472
 1857TIP3   OH226985   1.279   4.657  10.283
 1857TIP3    H126986   1.340   4.667  10.360
 1857TIP3    H226987   1.329   4.695  10.209
 1858TIP3   OH226988   0.379   4.731  11.459
 1858TIP3    H126989   0.383   4.799  11.529
 1858TIP3    H226990   0.285   4.739  11.436
 1859TIP3   OH226991   1.058   5.325  10.624
 1859TIP3    H126992   1.101   5.352  10.707
 1859TIP3    H226993   0.997   5.398  10.611
 1860TIP3   OH226994   0.510   5.316  11.616
 1860TIP3    H126995   0.502   5.308  11.519
 1860TIP3    H226996   0.416   5.303  11.643
 1861TIP3   OH226997   0.457   4.696  10.464
 1861TIP3    H126998   0.427   4.777  10.417
 1861TIP3    H226999   0.386   4.635  10.445
 1862TIP3   OH227000   1.768   5.265  10.121
 1862TIP3    H127001   1.775   5.361  10.113
 1862TIP3    H227002   1.850   5.230  10.087
 1863TIP3   OH227003   0.122   4.928  11.332
 1863TIP3    H127004   0.045   4.941  11.272
 1863TIP3    H227005   0.085   4.849  11.378
 1864TIP3   OH227006   0.069   5.239  11.007
 1864TIP3    H127007   0.151   5.198  11.036
 1864TIP3    H227008   0.040   5.285  11.087
 1865TIP3   OH227009   1.863   5.285  11.604
 1865TIP3    H127010   1.851   5.189  11.601
 1865TIP3    H227011   1.775   5.310  11.642
 1866TIP3   OH227012   0.958   5.239  11.490
 1866TIP3    H127013   0.964   5.324  11.541
 1866TIP3    H227014   0.871   5.203  11.515
 1867TIP3   OH227015   0.364   5.503  10.652
 1867TIP3    H127016   0.381   5.461  10.740
 1867TIP3    H227017   0.282   5.457  10.629
 1868TIP3   OH227018   1.568   4.429  11.647
 1868TIP3    H127019   1.523   4.475  11.574
 1868TIP3    H227020   1.570   4.336  11.618
 1869TIP3   OH227021   0.293   5.081  11.458
 1869TIP3    H127022   0.311   5.036  11.543
 1869TIP3    H227023   0.210   5.036  11.429
 1870TIP3   OH227024   0.561   3.924  11.042
 1870TIP3    H127025   0.469   3.908  11.011
 1870TIP3    H227026   0.546   4.002  11.098
 1871TIP3   OH227027   1.024   3.887  11.382
 1871TIP3    H127028   1.063   3.845  11.461
 1871TIP3    H227029   0.927   3.875  11.397
 1872TIP3   OH227030   1.353   4.271  11.472
 1872TIP3    H127031   1.298   4.251  11.551
 1872TIP3    H227032   1.334   4.364  11.450
 1873TIP3   OH227033   0.991   4.143  10.115
 1873TIP3    H127034   0.960   4.144  10.207
 1873TIP3    H227035   0.960   4.058  10.088
 1874TIP3   OH227036   0.567   4.416  11.169
 1874TIP3    H127037   0.496   4.417  11.236
 1874TIP3    H227038   0.566   4.509  11.135
 1875TIP3   OH227039   0.568   4.449  10.662
 1875TIP3    H127040   0.472   4.432  10.644
 1875TIP3    H227041   0.612   4.430  10.576
 1876TIP3   OH227042   1.115   4.477  10.534
 1876TIP3    H127043   1.079   4.562  10.500
 1876TIP3    H227044   1.186   4.462  10.468
 1877TIP3   OH227045   1.023   4.500  11.679
 1877TIP3    H127046   0.970   4.423  11.710
 1877TIP3    H227047   1.107   4.488  11.726
 1878TIP3   OH227048   1.221   4.428  10.819
 1878TIP3    H127049   1.193   4.484  10.745
 1878TIP3    H227050   1.230   4.343  10.772
 1879TIP3   OH227051   0.333   4.441  11.340
 1879TIP3    H127052   0.335   4.483  11.427
 1879TIP3    H227053   0.284   4.360  11.359
 1880TIP3   OH227054   0.040   4.189  10.718
 1880TIP3    H127055   0.063   4.150  10.805
 1880TIP3    H227056   0.044   4.110  10.664
 1881TIP3   OH227057   0.119   4.238  10.267
 1881TIP3    H127058   0.176   4.295  10.213
 1881TIP3    H227059   0.049   4.297  10.296
 1882TIP3   OH227060   1.141   4.587  11.275
 1882TIP3    H127061   1.179   4.518  11.216
 1882TIP3    H227062   1.094   4.534  11.342
 1883TIP3   OH227063   0.816   4.187  10.758
 1883TIP3    H127064   0.726   4.183  10.796
 1883TIP3    H227065   0.871   4.168  10.837
 1884TIP3   OH227066   0.314   4.340  10.636
 1884TIP3    H127067   0.220   4.360  10.611
 1884TIP3    H227068   0.314   4.247  10.607
 1885TIP3   OH227069   0.662   4.357  10.424
 1885TIP3    H127070   0.760   4.350  10.422
 1885TIP3    H227071   0.644   4.404  10.340
 1886TIP3   OH227072   1.261   4.107  11.083
 1886TIP3    H127073   1.193   4.113  11.153
 1886TIP3    H227074   1.210   4.082  11.004
 1887TIP3   OH227075   1.581   5.673  11.715
 1887TIP3    H127076   1.609   5.709  11.629
 1887TIP3    H227077   1.654   5.704  11.771
 1888TIP3   OH227078   0.347   4.917  11.673
 1888TIP3    H127079   0.421   4.942  11.732
 1888TIP3    H227080   0.272   4.929  11.734
 1889TIP3   OH227081   0.945   4.458  10.945
 1889TIP3    H127082   1.012   4.408  10.896
 1889TIP3    H227083   0.935   4.406  11.025
 1890TIP3   OH227084   0.445   4.063  10.583
 1890TIP3    H127085   0.415   3.972  10.596
 1890TIP3    H227086   0.527   4.049  10.533
 1891TIP3   OH227087   0.813   4.293  11.189
 1891TIP3    H127088   0.731   4.345  11.198
 1891TIP3    H227089   0.869   4.328  11.261
 1892TIP3   OH227090   0.869   4.918  10.359
 1892TIP3    H127091   0.794   4.865  10.325
 1892TIP3    H227092   0.849   4.922  10.455
 1893TIP3   OH227093   1.593   4.833  11.241
 1893TIP3    H127094   1.647   4.883  11.177
 1893TIP3    H227095   1.507   4.839  11.195
 1894TIP3   OH227096   1.021   4.941  11.482
 1894TIP3    H127097   0.987   4.899  11.562
 1894TIP3    H227098   0.996   5.034  11.494
 1895TIP3   OH227099   1.327   4.389  10.347
 1895TIP3    H127100   1.419   4.376  10.376
 1895TIP3    H227101   1.336   4.465  10.285
 1896TIP3   OH227102   0.382   4.855  10.937
 1896TIP3    H127103   0.450   4.847  10.868
 1896TIP3    H227104   0.392   4.771  10.986
 1897TIP3   OH227105   0.079   4.693  11.465
 1897TIP3    H127106   0.105   4.649  11.549
 1897TIP3    H227107   0.020   4.629  11.423
 1898TIP3   OH227108   0.783   4.651  11.683
 1898TIP3    H127109   0.751   4.620  11.597
 1898TIP3    H227110   0.875   4.619  11.683
 1899TIP3   OH227111   1.252   5.184  11.478
 1899TIP3    H127112   1.159   5.202  11.455
 1899TIP3    H227113   1.249   5.214  11.571
 1900TIP3   OH227114   1.821   4.405  10.317
 1900TIP3    H127115   1.763   4.372  10.247
 1900TIP3    H227116   1.823   4.498  10.289
 1901TIP3   OH227117   1.817   4.983  11.597
 1901TIP3    H127118   1.729   5.012  11.562
 1901TIP3    H227119   1.871   4.989  11.516
 1902TIP3   OH227120   1.654   5.286  10.359
 1902TIP3    H127121   1.610   5.206  10.391
 1902TIP3    H227122   1.674   5.263  10.265
 1903TIP3   OH227123   1.368   4.767  11.067
 1903TIP3    H127124   1.274   4.746  11.057
 1903TIP3    H227125   1.411   4.691  11.024
 1904TIP3   OH227126   0.618   5.199  10.674
 1904TIP3    H127127   0.669   5.281  10.661
 1904TIP3    H227128   0.529   5.225  10.649
 1905TIP3   OH227129   0.198   4.682  10.146
 1905TIP3    H127130   0.259   4.753  10.170
 1905TIP3    H227131   0.111   4.720  10.156
 1906TIP3   OH227132   0.762   4.969  10.626
 1906TIP3    H127133   0.730   5.060  10.641
 1906TIP3    H227134   0.692   4.918  10.672
 1907TIP3   OH227135   0.808   5.385  11.270
 1907TIP3    H127136   0.853   5.466  11.241
 1907TIP3    H227137   0.870   5.351  11.337
 1908TIP3   OH227138   0.631   5.464  10.582
 1908TIP3    H127139   0.536   5.479  10.599
 1908TIP3    H227140   0.667   5.547  10.619
 1909TIP3   OH227141   1.159   4.984  11.232
 1909TIP3    H127142   1.127   4.966  11.323
 1909TIP3    H227143   1.223   4.914  11.215
 1910TIP3   OH227144   1.441   5.443  11.481
 1910TIP3    H127145   1.372   5.394  11.433
 1910TIP3    H227146   1.459   5.513  11.415
 1911TIP3   OH227147   0.247   4.169  11.416
 1911TIP3    H127148   0.158   4.206  11.425
 1911TIP3    H227149   0.236   4.085  11.464
 1912TIP3   OH227150   1.468   4.961  10.382
 1912TIP3    H127151   1.446   4.874  10.419
 1912TIP3    H227152   1.564   4.957  10.377
 1913TIP3   OH227153   0.225   5.352  11.258
 1913TIP3    H127154   0.237   5.256  11.264
 1913TIP3    H227155   0.234   5.375  11.351
 1914TIP3   OH227156   0.335   4.878  10.290
 1914TIP3    H127157   0.261   4.917  10.341
 1914TIP3    H227158   0.386   4.954  10.259
 1915TIP3   OH227159   1.120   4.146  11.316
 1915TIP3    H127160   1.192   4.152  11.381
 1915TIP3    H227161   1.082   4.058  11.337
 1916TIP3   OH227162   1.200   4.105  10.421
 1916TIP3    H127163   1.212   4.163  10.345
 1916TIP3    H227164   1.252   4.149  10.490
 1917TIP3   OH227165   0.911   4.282  10.505
 1917TIP3    H127166   0.995   4.334  10.507
 1917TIP3    H227167   0.895   4.265  10.600
 1918TIP3   OH227168   0.974   4.381  11.426
 1918TIP3    H127169   0.980   4.436  11.506
 1918TIP3    H227170   1.039   4.311  11.436
 1919TIP3   OH227171   1.001   3.987  10.595
 1919TIP3    H127172   0.972   4.050  10.663
 1919TIP3    H227173   1.073   4.038  10.551
 1920TIP3   OH227174   1.593   4.169  11.510
 1920TIP3    H127175   1.499   4.199  11.498
 1920TIP3    H227176   1.619   4.163  11.416
 1921TIP3   OH227177   1.451   4.546  10.913
 1921TIP3    H127178   1.369   4.501  10.884
 1921TIP3    H227179   1.500   4.477  10.962
 1922TIP3   OH227180   1.558   5.472  11.078
 1922TIP3    H127181   1.549   5.540  11.008
 1922TIP3    H227182   1.655   5.477  11.096
 1923TIP3   OH227183   0.311   3.883  10.957
 1923TIP3    H127184   0.287   3.887  10.863
 1923TIP3    H227185   0.267   3.800  10.984
 1924TIP3   OH227186   0.206   5.277  10.571
 1924TIP3    H127187   0.119   5.318  10.573
 1924TIP3    H227188   0.252   5.325  10.502
 1925TIP3   OH227189   0.154   5.544  11.701
 1925TIP3    H127190   0.195   5.521  11.786
 1925TIP3    H227191   0.101   5.463  11.685
 1926TIP3   OH227192   0.591   5.431  11.865
 1926TIP3    H127193   0.670   5.384  11.893
 1926TIP3    H227194   0.590   5.408  11.769
 1927TIP3   OH227195   1.244   5.269  11.735
 1927TIP3    H127196   1.211   5.182  11.766
 1927TIP3    H227197   1.318   5.285  11.797
 1928TIP3   OH227198   0.111   4.919  11.800
 1928TIP3    H127199   0.133   4.830  11.768
 1928TIP3    H227200   0.040   4.946  11.742
 1929TIP3   OH227201   0.560   4.953  10.021
 1929TIP3    H127202   0.563   4.866  10.062
 1929TIP3    H227203   0.616   4.944   9.943
 1930TIP3   OH227204   0.786   4.917  11.740
 1930TIP3    H127205   0.753   4.949  11.654
 1930TIP3    H227206   0.794   4.820  11.729
 1931TIP3   OH227207   1.356   4.904  11.479
 1931TIP3    H127208   1.435   4.962  11.473
 1931TIP3    H227209   1.286   4.970  11.483
 1932TIP3   OH227210   0.200   4.640  11.739
 1932TIP3    H127211   0.249   4.556  11.730
 1932TIP3    H227212   0.183   4.641  11.834
 1933TIP3   OH227213   0.669   4.752  10.242
 1933TIP3    H127214   0.621   4.704  10.311
 1933TIP3    H227215   0.697   4.682  10.181
 1934TIP3   OH227216   0.596   4.536  11.475
 1934TIP3    H127217   0.537   4.607  11.502
 1934TIP3    H227218   0.636   4.573  11.395
 1935TIP3   OH227219   1.104   4.793  11.809
 1935TIP3    H127220   1.200   4.791  11.796
 1935TIP3    H227221   1.087   4.716  11.866
 1936TIP3   OH227222   0.640   4.274  11.581
 1936TIP3    H127223   0.649   4.203  11.515
 1936TIP3    H227224   0.631   4.355  11.526
 1937TIP3   OH227225   0.678   4.112  11.335
 1937TIP3    H127226   0.729   4.158  11.265
 1937TIP3    H227227   0.588   4.104  11.295
 1938TIP3   OH227228   0.831   4.661  11.360
 1938TIP3    H127229   0.907   4.644  11.303
 1938TIP3    H227230   0.795   4.744  11.327
 1939TIP3   OH227231   1.271   4.436  11.856
 1939TIP3    H127232   1.294   4.342  11.848
 1939TIP3    H227233   1.357   4.480  11.860
 1940TIP3   OH227234   1.407   4.716  11.673
 1940TIP3    H127235   1.381   4.787  11.611
 1940TIP3    H227236   1.502   4.713  11.654
 1941TIP3   OH227237   0.481   4.400  11.772
 1941TIP3    H127238   0.405   4.340  11.756
 1941TIP3    H227239   0.547   4.362  11.711
 1942TIP3   OH227240   0.756   3.855  11.375
 1942TIP3    H127241   0.738   3.952  11.365
 1942TIP3    H227242   0.682   3.818  11.325
 1943TIP3   OH227243   0.884   4.288  11.738
 1943TIP3    H127244   0.852   4.265  11.827
 1943TIP3    H227245   0.806   4.268  11.684
 1944TIP3   OH227246   1.156   4.203  11.647
 1944TIP3    H127247   1.059   4.208  11.658
 1944TIP3    H227248   1.182   4.139  11.716
 1945TIP3   OH227249   1.314   4.065  11.837
 1945TIP3    H127250   1.309   3.967  11.840
 1945TIP3    H227251   1.289   4.094  11.927
 1946TIP3   OH227252   0.306   4.190  11.752
 1946TIP3    H127253   0.316   4.116  11.688
 1946TIP3    H227254   0.285   4.144  11.835
 1947TIP3   OH227255   0.778   3.795  11.645
 1947TIP3    H127256   0.846   3.724  11.643
 1947TIP3    H227257   0.767   3.809  11.549
 1948TIP3   OH227258   0.814   3.956  11.857
 1948TIP3    H127259   0.797   3.905  11.773
 1948TIP3    H227260   0.754   4.032  11.847
 1949TIP3   OH227261   0.125   5.103  10.122
 1949TIP3    H127262   0.219   5.114  10.137
 1949TIP3    H227263   0.122   5.044  10.045
 1950TIP3   OH227264   7.340   5.657  10.596
 1950TIP3    H127265   7.246   5.639  10.572
 1950TIP3    H227266   7.347   5.597  10.676
 1951TIP3   OH227267   0.079   5.460  10.801
 1951TIP3    H127268   0.043   5.371  10.824
 1951TIP3    H227269   0.104   5.488  10.891
 1952TIP3   OH227270   1.828   5.538  11.100
 1952TIP3    H127271   1.833   5.553  11.196
 1952TIP3    H227272   1.900   5.594  11.068
 1953TIP3   OH227273   1.788   5.495  11.392
 1953TIP3    H127274   1.741   5.419  11.354
 1953TIP3    H227275   1.837   5.451  11.464
 1954TIP3   OH227276   1.633   5.067  11.860
 1954TIP3    H127277   1.542   5.065  11.897
 1954TIP3    H227278   1.669   5.149  11.900
 1955TIP3   OH227279   1.803   4.707  10.590
 1955TIP3    H127280   1.727   4.658  10.627
 1955TIP3    H227281   1.859   4.721  10.668
 1956TIP3   OH227282   1.776   4.977  11.091
 1956TIP3    H127283   1.857   4.940  11.052
 1956TIP3    H227284   1.790   5.073  11.074
 1957TIP3   OH227285   1.631   5.269  11.317
 1957TIP3    H127286   1.562   5.303  11.376
 1957TIP3    H227287   1.577   5.229  11.246
 1958TIP3   OH227288   1.583   4.557  10.650
 1958TIP3    H127289   1.565   4.462  10.644
 1958TIP3    H227290   1.549   4.579  10.739
 1959TIP3   OH227291   0.084   4.763  11.047
 1959TIP3    H127292   0.104   4.759  10.951
 1959TIP3    H227293   0.172   4.752  11.088
 1960TIP3   OH227294   1.669   4.753  11.613
 1960TIP3    H127295   1.724   4.677  11.637
 1960TIP3    H227296   1.726   4.833  11.619
 1961TIP3   OH227297   1.789   4.524  11.716
 1961TIP3    H127298   1.706   4.492  11.674
 1961TIP3    H227299   1.847   4.447  11.696
 1962TIP3   OH227300   1.549   4.310  10.491
 1962TIP3    H127301   1.582   4.223  10.514
 1962TIP3    H227302   1.627   4.356  10.456
 1963TIP3   OH227303   1.613   4.369  11.040
 1963TIP3    H127304   1.709   4.392  11.038
 1963TIP3    H227305   1.594   4.383  11.134
 1964TIP3   OH227306   1.622   4.442  11.322
 1964TIP3    H127307   1.530   4.469  11.347
 1964TIP3    H227308   1.660   4.527  11.292
 1965TIP3   OH227309   0.071   4.282  11.668
 1965TIP3    H127310   0.160   4.263  11.702
 1965TIP3    H227311   0.014   4.213  11.710
 1966TIP3   OH227312   1.845   3.847  11.850
 1966TIP3    H127313   1.882   3.781  11.789
 1966TIP3    H227314   1.857   3.928  11.797
 1967TIP3   OH227315   0.171   4.119  10.948
 1967TIP3    H127316   0.213   4.040  10.985
 1967TIP3    H227317   0.217   4.190  10.997
 1968TIP3   OH227318   0.050   4.499  11.094
 1968TIP3    H127319   0.053   4.456  11.006
 1968TIP3    H227320   0.058   4.591  11.066
 1969TIP3   OH227321   1.799   4.062  11.684
 1969TIP3    H127322   1.704   4.083  11.682
 1969TIP3    H227323   1.802   4.002  11.608
 1970TIP3   OH227324   0.082   4.045  10.425
 1970TIP3    H127325  -0.014   4.062  10.439
 1970TIP3    H227326   0.098   4.120  10.365
 1971TIP3   OH227327   1.503   5.545  10.659
 1971TIP3    H127328   1.571   5.515  10.596
 1971TIP3    H227329   1.554   5.596  10.724
 1972TIP3   OH227330   7.355   3.912  11.317
 1972TIP3    H127331   7.276   3.891  11.369
 1972TIP3    H227332   7.306   3.963  11.250
 1973TIP3   OH227333   0.244   5.238  11.713
 1973TIP3    H127334   0.160   5.255  11.670
 1973TIP3    H227335   0.219   5.228  11.804
 1974TIP3   OH227336   0.541   5.337  11.343
 1974TIP3    H127337   0.501   5.421  11.313
 1974TIP3    H227338   0.632   5.346  11.308
 1975TIP3   OH227339   0.971   5.474  11.627
 1975TIP3    H127340   0.982   5.446  11.721
 1975TIP3    H227341   1.059   5.511  11.608
 1976TIP3   OH227342   1.199   5.606  11.558
 1976TIP3    H127343   1.273   5.547  11.538
 1976TIP3    H227344   1.232   5.648  11.641
 1977TIP3   OH227345   1.700   3.866  11.472
 1977TIP3    H127346   1.617   3.896  11.431
 1977TIP3    H227347   1.717   3.784  11.420
 1978TIP3   OH227348   0.283   5.660  11.341
 1978TIP3    H127349   0.208   5.709  11.302
 1978TIP3    H227350   0.249   5.640  11.429
 1979TIP3   OH227351   0.528   5.618  11.245
 1979TIP3    H127352   0.439   5.631  11.284
 1979TIP3    H227353   0.523   5.677  11.168
 1980TIP3   OH227354   0.998   5.608  11.162
 1980TIP3    H127355   0.951   5.664  11.098
 1980TIP3    H227356   1.011   5.671  11.237
 1981TIP3   OH227357   1.226   5.489  11.266
 1981TIP3    H127358   1.141   5.517  11.229
 1981TIP3    H227359   1.275   5.573  11.257
 1982TIP3   OH227360   1.485   5.646  11.288
 1982TIP3    H127361   1.479   5.742  11.265
 1982TIP3    H227362   1.507   5.609  11.200
 1983TIP3   OH227363   0.221   5.524  11.032
 1983TIP3    H127364   0.220   5.479  11.119
 1983TIP3    H227365   0.302   5.487  10.993
 1984TIP3   OH227366   0.429   5.395  10.901
 1984TIP3    H127367   0.415   5.301  10.923
 1984TIP3    H227368   0.517   5.411  10.942
 1985TIP3   OH227369   0.691   5.443  10.988
 1985TIP3    H127370   0.710   5.351  10.959
 1985TIP3    H227371   0.698   5.435  11.084
 1986TIP3   OH227372   1.040   4.008  10.900
 1986TIP3    H127373   0.972   3.944  10.928
 1986TIP3    H227374   1.095   3.955  10.842
 1987TIP3   OH227375   1.553   3.813  10.907
 1987TIP3    H127376   1.613   3.874  10.858
 1987TIP3    H227377   1.464   3.849  10.884
 1988TIP3   OH227378   1.721   3.938  10.736
 1988TIP3    H127379   1.789   3.881  10.696
 1988TIP3    H227380   1.768   4.022  10.749
 1989TIP3   OH227381   0.281   3.871  10.680
 1989TIP3    H127382   0.195   3.848  10.639
 1989TIP3    H227383   0.324   3.783  10.682
 1990TIP3   OH227384   0.157   3.853  10.258
 1990TIP3    H127385   0.192   3.918  10.196
 1990TIP3    H227386   0.091   3.907  10.308
 1991TIP3   OH227387   0.721   3.871  10.663
 1991TIP3    H127388   0.815   3.896  10.656
 1991TIP3    H227389   0.722   3.840  10.754
 1992TIP3   OH227390   1.297   3.865  10.825
 1992TIP3    H127391   1.288   3.876  10.730
 1992TIP3    H227392   1.257   3.776  10.839
 1993TIP3   OH227393   0.150   5.446  10.354
 1993TIP3    H127394   0.080   5.438  10.287
 1993TIP3    H227395   0.142   5.537  10.382
 1994TIP3   OH227396   0.831   4.067  10.351
 1994TIP3    H127397   0.867   4.007  10.419
 1994TIP3    H227398   0.848   4.153  10.394
 1995TIP3   OH227399   1.703   5.528  10.460
 1995TIP3    H127400   1.682   5.448  10.407
 1995TIP3    H227401   1.695   5.599  10.396
 1996TIP3   OH227402   0.259   3.927  11.634
 1996TIP3    H127403   0.226   3.842  11.668
 1996TIP3    H227404   0.352   3.921  11.667
 1997TIP3   OH227405   0.465   3.863  11.793
 1997TIP3    H127406   0.555   3.829  11.773
 1997TIP3    H227407   0.426   3.783  11.833
 1998TIP3   OH227408   1.305   3.792  11.809
 1998TIP3    H127409   1.315   3.745  11.894
 1998TIP3    H227410   1.397   3.789  11.775
 1999TIP3   OH227411   1.626   5.398  11.672
 1999TIP3    H127412   1.546   5.384  11.618
 1999TIP3    H227413   1.615   5.492  11.694
 2000TIP3   OH227414   3.072   4.787  10.672
 2000TIP3    H127415   3.074   4.885  10.666
 2000TIP3    H227416   2.998   4.765  10.615
 2001TIP3   OH227417   2.956   4.711  11.019
 2001TIP3    H127418   2.955   4.646  11.092
 2001TIP3    H227419   2.921   4.660  10.945
 2002TIP3   OH227420   2.191   4.680  11.178
 2002TIP3    H127421   2.203   4.608  11.243
 2002TIP3    H227422   2.268   4.736  11.195
 2003TIP3   OH227423   3.324   5.005  10.851
 2003TIP3    H127424   3.284   4.933  10.900
 2003TIP3    H227425   3.327   5.077  10.917
 2004TIP3   OH227426   2.284   5.123  11.026
 2004TIP3    H127427   2.253   5.037  10.993
 2004TIP3    H227428   2.380   5.105  11.030
 2005TIP3   OH227429   2.018   4.700  10.784
 2005TIP3    H127430   2.046   4.621  10.836
 2005TIP3    H227431   2.091   4.714  10.724
 2006TIP3   OH227432   3.036   5.521  10.872
 2006TIP3    H127433   3.101   5.452  10.843
 2006TIP3    H227434   3.015   5.488  10.959
 2007TIP3   OH227435   2.794   4.950  11.068
 2007TIP3    H127436   2.828   4.888  11.001
 2007TIP3    H227437   2.875   4.966  11.119
 2008TIP3   OH227438   3.653   4.117  11.140
 2008TIP3    H127439   3.671   4.176  11.217
 2008TIP3    H227440   3.711   4.159  11.074
 2009TIP3   OH227441   3.110   4.397  11.099
 2009TIP3    H127442   3.127   4.302  11.100
 2009TIP3    H227443   3.100   4.412  11.003
 2010TIP3   OH227444   2.421   4.200  10.822
 2010TIP3    H127445   2.437   4.287  10.779
 2010TIP3    H227446   2.384   4.153  10.745
 2011TIP3   OH227447   3.196   4.215  10.660
 2011TIP3    H127448   3.262   4.183  10.725
 2011TIP3    H227449   3.250   4.270  10.602
 2012TIP3   OH227450   2.085   4.451  10.893
 2012TIP3    H127451   2.149   4.395  10.941
 2012TIP3    H227452   2.095   4.417  10.803
 2013TIP3   OH227453   2.603   4.603  10.820
 2013TIP3    H127454   2.667   4.546  10.867
 2013TIP3    H227455   2.548   4.535  10.777
 2014TIP3   OH227456   3.697   4.257  11.368
 2014TIP3    H127457   3.637   4.334  11.357
 2014TIP3    H227458   3.701   4.249  11.464
 2015TIP3   OH227459   2.310   4.096  11.223
 2015TIP3    H127460   2.283   4.158  11.151
 2015TIP3    H227461   2.246   4.121  11.294
 2016TIP3   OH227462   3.038   5.044  10.581
 2016TIP3    H127463   3.016   5.019  10.491
 2016TIP3    H227464   3.012   5.139  10.582
 2017TIP3   OH227465   2.564   4.860  11.249
 2017TIP3    H127466   2.493   4.925  11.271
 2017TIP3    H227467   2.634   4.921  11.220
 2018TIP3   OH227468   3.376   4.150  10.857
 2018TIP3    H127469   3.355   4.072  10.910
 2018TIP3    H227470   3.444   4.193  10.912
 2019TIP3   OH227471   2.269   4.281  11.024
 2019TIP3    H127472   2.330   4.351  11.059
 2019TIP3    H227473   2.324   4.243  10.952
 2020TIP3   OH227474   2.408   5.060  11.330
 2020TIP3    H127475   2.404   5.152  11.297
 2020TIP3    H227476   2.320   5.053  11.375
 2021TIP3   OH227477   3.378   5.189  11.086
 2021TIP3    H127478   3.281   5.201  11.098
 2021TIP3    H227479   3.405   5.281  11.065
 2022TIP3   OH227480   3.410   4.018  11.225
 2022TIP3    H127481   3.338   4.081  11.215
 2022TIP3    H227482   3.481   4.059  11.172
 2023TIP3   OH227483   2.702   3.829  10.963
 2023TIP3    H127484   2.696   3.732  10.967
 2023TIP3    H227485   2.623   3.859  11.011
 2024TIP3   OH227486   3.206   5.368  10.746
 2024TIP3    H127487   3.247   5.295  10.694
 2024TIP3    H227488   3.248   5.446  10.702
 2025TIP3   OH227489   3.319   5.162  10.603
 2025TIP3    H127490   3.304   5.092  10.536
 2025TIP3    H227491   3.328   5.108  10.684
 2026TIP3   OH227492   3.486   5.020  11.446
 2026TIP3    H127493   3.501   4.955  11.374
 2026TIP3    H227494   3.507   5.104  11.401
 2027TIP3   OH227495   3.675   4.651  11.250
 2027TIP3    H127496   3.610   4.724  11.254
 2027TIP3    H227497   3.725   4.675  11.169
 2028TIP3   OH227498   3.275   4.724  10.512
 2028TIP3    H127499   3.212   4.757  10.578
 2028TIP3    H227500   3.333   4.666  10.565
 2029TIP3   OH227501   3.274   4.546  11.427
 2029TIP3    H127502   3.275   4.628  11.479
 2029TIP3    H227503   3.211   4.576  11.357
 2030TIP3   OH227504   2.443   4.795  10.704
 2030TIP3    H127505   2.410   4.755  10.624
 2030TIP3    H227506   2.505   4.728  10.742
 2031TIP3   OH227507   2.573   5.136  10.975
 2031TIP3    H127508   2.573   5.082  10.895
 2031TIP3    H227509   2.652   5.100  11.020
 2032TIP3   OH227510   2.476   4.670  11.073
 2032TIP3    H127511   2.532   4.682  10.995
 2032TIP3    H227512   2.514   4.737  11.134
 2033TIP3   OH227513   3.118   5.228  11.143
 2033TIP3    H127514   3.088   5.291  11.209
 2033TIP3    H227515   3.092   5.143  11.185
 2034TIP3   OH227516   2.571   5.114  11.541
 2034TIP3    H127517   2.529   5.187  11.591
 2034TIP3    H227518   2.503   5.094  11.472
 2035TIP3   OH227519   3.167   4.648  10.281
 2035TIP3    H127520   3.221   4.673  10.360
 2035TIP3    H227521   3.207   4.703  10.212
 2036TIP3   OH227522   2.259   4.723  11.464
 2036TIP3    H127523   2.273   4.798  11.526
 2036TIP3    H227524   2.173   4.746  11.428
 2037TIP3   OH227525   2.939   5.321  10.631
 2037TIP3    H127526   2.983   5.354  10.710
 2037TIP3    H227527   2.885   5.397  10.602
 2038TIP3   OH227528   2.395   5.317  11.616
 2038TIP3    H127529   2.389   5.308  11.520
 2038TIP3    H227530   2.302   5.304  11.643
 2039TIP3   OH227531   3.541   3.826  10.277
 2039TIP3    H127532   3.444   3.834  10.294
 2039TIP3    H227533   3.560   3.905  10.224
 2040TIP3   OH227534   1.946   4.947  11.354
 2040TIP3    H127535   1.903   4.937  11.268
 2040TIP3    H227536   1.956   4.851  11.373
 2041TIP3   OH227537   1.924   5.215  11.036
 2041TIP3    H127538   2.020   5.204  11.031
 2041TIP3    H227539   1.916   5.297  11.086
 2042TIP3   OH227540   3.748   5.285  11.604
 2042TIP3    H127541   3.736   5.189  11.601
 2042TIP3    H227542   3.661   5.310  11.642
 2043TIP3   OH227543   2.844   5.239  11.490
 2043TIP3    H127544   2.850   5.323  11.541
 2043TIP3    H227545   2.757   5.203  11.515
 2044TIP3   OH227546   2.884   5.613  10.467
 2044TIP3    H127547   2.882   5.607  10.370
 2044TIP3    H227548   2.892   5.709  10.485
 2045TIP3   OH227549   3.189   5.528  10.167
 2045TIP3    H127550   3.241   5.460  10.123
 2045TIP3    H227551   3.194   5.505  10.261
 2046TIP3   OH227552   3.156   5.531  10.449
 2046TIP3    H127553   3.061   5.532  10.466
 2046TIP3    H227554   3.187   5.457  10.504
 2047TIP3   OH227555   3.463   4.432  11.651
 2047TIP3    H127556   3.415   4.477  11.579
 2047TIP3    H227557   3.461   4.340  11.620
 2048TIP3   OH227558   2.178   5.070  11.451
 2048TIP3    H127559   2.198   5.037  11.541
 2048TIP3    H227560   2.089   5.034  11.430
 2049TIP3   OH227561   2.449   3.926  11.068
 2049TIP3    H127562   2.354   3.907  11.059
 2049TIP3    H227563   2.441   4.014  11.110
 2050TIP3   OH227564   2.910   3.887  11.382
 2050TIP3    H127565   2.949   3.844  11.461
 2050TIP3    H227566   2.813   3.875  11.397
 2051TIP3   OH227567   3.238   4.271  11.473
 2051TIP3    H127568   3.182   4.250  11.551
 2051TIP3    H227569   3.220   4.364  11.450
 2052TIP3   OH227570   3.317   4.743  10.055
 2052TIP3    H127571   3.311   4.738   9.959
 2052TIP3    H227572   3.394   4.798  10.074
 2053TIP3   OH227573   2.454   4.416  11.169
 2053TIP3    H127574   2.382   4.415  11.234
 2053TIP3    H227575   2.451   4.507  11.134
 2054TIP3   OH227576   2.449   4.428  10.657
 2054TIP3    H127577   2.356   4.403  10.644
 2054TIP3    H227578   2.492   4.399  10.574
 2055TIP3   OH227579   3.001   4.478  10.531
 2055TIP3    H127580   2.963   4.560  10.500
 2055TIP3    H227581   3.074   4.462  10.467
 2056TIP3   OH227582   2.909   4.500  11.679
 2056TIP3    H127583   2.856   4.423  11.710
 2056TIP3    H227584   2.992   4.488  11.726
 2057TIP3   OH227585   3.106   4.428  10.819
 2057TIP3    H127586   3.079   4.484  10.744
 2057TIP3    H227587   3.116   4.343  10.773
 2058TIP3   OH227588   2.213   4.444  11.340
 2058TIP3    H127589   2.232   4.480  11.428
 2058TIP3    H227590   2.178   4.355  11.359
 2059TIP3   OH227591   1.885   4.155  10.734
 2059TIP3    H127592   1.946   4.152  10.810
 2059TIP3    H227593   1.932   4.114  10.663
 2060TIP3   OH227594   3.026   4.587  11.275
 2060TIP3    H127595   3.065   4.518  11.216
 2060TIP3    H227596   2.980   4.534  11.342
 2061TIP3   OH227597   2.705   4.181  10.760
 2061TIP3    H127598   2.613   4.188  10.790
 2061TIP3    H227599   2.756   4.171  10.842
 2062TIP3   OH227600   2.187   4.343  10.638
 2062TIP3    H127601   2.095   4.347  10.609
 2062TIP3    H227602   2.217   4.256  10.605
 2063TIP3   OH227603   2.549   4.348  10.413
 2063TIP3    H127604   2.647   4.343  10.428
 2063TIP3    H227605   2.538   4.411  10.341
 2064TIP3   OH227606   3.147   4.108  11.083
 2064TIP3    H127607   3.078   4.113  11.152
 2064TIP3    H227608   3.097   4.083  11.004
 2065TIP3   OH227609   3.467   5.672  11.715
 2065TIP3    H127610   3.494   5.711  11.630
 2065TIP3    H227611   3.539   5.704  11.771
 2066TIP3   OH227612   2.234   4.918  11.673
 2066TIP3    H127613   2.307   4.944  11.732
 2066TIP3    H227614   2.158   4.930  11.735
 2067TIP3   OH227615   2.835   4.460  10.946
 2067TIP3    H127616   2.895   4.405  10.894
 2067TIP3    H227617   2.820   4.406  11.025
 2068TIP3   OH227618   2.340   4.073  10.598
 2068TIP3    H127619   2.304   3.984  10.584
 2068TIP3    H227620   2.413   4.072  10.534
 2069TIP3   OH227621   2.697   4.291  11.189
 2069TIP3    H127622   2.616   4.346  11.199
 2069TIP3    H227623   2.754   4.327  11.260
 2070TIP3   OH227624   3.476   4.836  11.239
 2070TIP3    H127625   3.533   4.884  11.176
 2070TIP3    H227626   3.390   4.840  11.193
 2071TIP3   OH227627   3.141   4.199  10.169
 2071TIP3    H127628   3.048   4.213  10.162
 2071TIP3    H227629   3.175   4.280  10.211
 2072TIP3   OH227630   2.907   4.942  11.483
 2072TIP3    H127631   2.872   4.899  11.562
 2072TIP3    H227632   2.881   5.034  11.494
 2073TIP3   OH227633   3.217   4.388  10.342
 2073TIP3    H127634   3.306   4.376  10.381
 2073TIP3    H227635   3.223   4.472  10.294
 2074TIP3   OH227636   2.270   4.855  10.940
 2074TIP3    H127637   2.338   4.847  10.870
 2074TIP3    H227638   2.275   4.769  10.985
 2075TIP3   OH227639   1.968   4.711  11.438
 2075TIP3    H127640   2.023   4.680  11.509
 2075TIP3    H227641   1.907   4.641  11.404
 2076TIP3   OH227642   2.669   4.651  11.683
 2076TIP3    H127643   2.637   4.620  11.597
 2076TIP3    H227644   2.761   4.618  11.683
 2077TIP3   OH227645   3.137   5.185  11.478
 2077TIP3    H127646   3.045   5.202  11.455
 2077TIP3    H227647   3.134   5.214  11.571
 2078TIP3   OH227648   3.710   4.402  10.315
 2078TIP3    H127649   3.648   4.369  10.247
 2078TIP3    H227650   3.708   4.497  10.296
 2079TIP3   OH227651   3.703   4.989  11.597
 2079TIP3    H127652   3.614   5.011  11.561
 2079TIP3    H227653   3.757   4.984  11.516
 2080TIP3   OH227654   3.254   4.767  11.068
 2080TIP3    H127655   3.160   4.746  11.056
 2080TIP3    H227656   3.297   4.691  11.024
 2081TIP3   OH227657   2.502   5.198  10.673
 2081TIP3    H127658   2.556   5.278  10.658
 2081TIP3    H227659   2.414   5.227  10.648
 2082TIP3   OH227660   2.645   4.965  10.628
 2082TIP3    H127661   2.618   5.059  10.640
 2082TIP3    H227662   2.575   4.919  10.677
 2083TIP3   OH227663   2.692   5.385  11.271
 2083TIP3    H127664   2.738   5.465  11.242
 2083TIP3    H227665   2.754   5.351  11.338
 2084TIP3   OH227666   2.513   5.467  10.582
 2084TIP3    H127667   2.421   5.475  10.608
 2084TIP3    H227668   2.554   5.548  10.618
 2085TIP3   OH227669   3.044   4.984  11.232
 2085TIP3    H127670   3.012   4.966  11.323
 2085TIP3    H227671   3.109   4.914  11.215
 2086TIP3   OH227672   3.327   5.443  11.481
 2086TIP3    H127673   3.257   5.394  11.433
 2086TIP3    H227674   3.345   5.513  11.415
 2087TIP3   OH227675   2.134   4.171  11.421
 2087TIP3    H127676   2.041   4.201  11.416
 2087TIP3    H227677   2.124   4.084  11.464
 2088TIP3   OH227678   2.093   5.346  11.264
 2088TIP3    H127679   2.124   5.254  11.263
 2088TIP3    H227680   2.120   5.376  11.351
 2089TIP3   OH227681   2.563   5.148  10.235
 2089TIP3    H127682   2.598   5.106  10.313
 2089TIP3    H227683   2.579   5.242  10.258
 2090TIP3   OH227684   3.005   4.146  11.316
 2090TIP3    H127685   3.077   4.151  11.381
 2090TIP3    H227686   2.966   4.058  11.336
 2091TIP3   OH227687   3.080   4.109  10.426
 2091TIP3    H127688   3.107   4.150  10.343
 2091TIP3    H227689   3.139   4.149  10.490
 2092TIP3   OH227690   2.853   5.330  10.319
 2092TIP3    H127691   2.765   5.369  10.308
 2092TIP3    H227692   2.902   5.363  10.242
 2093TIP3   OH227693   2.796   4.287  10.503
 2093TIP3    H127694   2.883   4.331  10.510
 2093TIP3    H227695   2.778   4.259  10.595
 2094TIP3   OH227696   2.858   4.380  11.426
 2094TIP3    H127697   2.866   4.436  11.506
 2094TIP3    H227698   2.925   4.311  11.436
 2095TIP3   OH227699   2.889   3.983  10.606
 2095TIP3    H127700   2.855   4.055  10.659
 2095TIP3    H227701   2.953   4.032  10.549
 2096TIP3   OH227702   2.583   5.424  10.310
 2096TIP3    H127703   2.608   5.501  10.255
 2096TIP3    H227704   2.567   5.460  10.399
 2097TIP3   OH227705   2.456   4.087  10.282
 2097TIP3    H127706   2.453   4.181  10.302
 2097TIP3    H227707   2.549   4.068  10.293
 2098TIP3   OH227708   3.476   4.167  11.510
 2098TIP3    H127709   3.384   4.199  11.498
 2098TIP3    H227710   3.506   4.166  11.418
 2099TIP3   OH227711   3.338   4.546  10.913
 2099TIP3    H127712   3.256   4.501  10.885
 2099TIP3    H227713   3.385   4.477  10.965
 2100TIP3   OH227714   3.444   5.472  11.079
 2100TIP3    H127715   3.434   5.541  11.011
 2100TIP3    H227716   3.540   5.477  11.096
 2101TIP3   OH227717   2.189   3.880  10.955
 2101TIP3    H127718   2.157   3.885  10.862
 2101TIP3    H227719   2.142   3.799  10.986
 2102TIP3   OH227720   2.086   5.276  10.567
 2102TIP3    H127721   2.003   5.324  10.575
 2102TIP3    H227722   2.140   5.327  10.507
 2103TIP3   OH227723   2.008   5.540  11.701
 2103TIP3    H127724   2.069   5.521  11.775
 2103TIP3    H227725   1.969   5.453  11.684
 2104TIP3   OH227726   2.477   5.433  11.862
 2104TIP3    H127727   2.553   5.383  11.896
 2104TIP3    H227728   2.475   5.405  11.769
 2105TIP3   OH227729   3.128   5.272  11.738
 2105TIP3    H127730   3.096   5.183  11.765
 2105TIP3    H227731   3.205   5.284  11.797
 2106TIP3   OH227732   2.000   4.920  11.801
 2106TIP3    H127733   2.018   4.829  11.773
 2106TIP3    H227734   1.926   4.948  11.745
 2107TIP3   OH227735   2.672   4.918  11.740
 2107TIP3    H127736   2.638   4.949  11.654
 2107TIP3    H227737   2.680   4.820  11.729
 2108TIP3   OH227738   3.242   4.903  11.479
 2108TIP3    H127739   3.320   4.962  11.473
 2108TIP3    H227740   3.172   4.970  11.483
 2109TIP3   OH227741   2.102   4.640  11.747
 2109TIP3    H127742   2.150   4.555  11.744
 2109TIP3    H227743   2.078   4.644  11.842
 2110TIP3   OH227744   2.478   4.535  11.474
 2110TIP3    H127745   2.425   4.610  11.504
 2110TIP3    H227746   2.521   4.572  11.395
 2111TIP3   OH227747   2.990   4.793  11.809
 2111TIP3    H127748   3.085   4.791  11.796
 2111TIP3    H227749   2.973   4.716  11.866
 2112TIP3   OH227750   2.525   4.274  11.581
 2112TIP3    H127751   2.535   4.203  11.515
 2112TIP3    H227752   2.518   4.355  11.527
 2113TIP3   OH227753   2.563   4.109  11.333
 2113TIP3    H127754   2.615   4.160  11.266
 2113TIP3    H227755   2.473   4.106  11.296
 2114TIP3   OH227756   2.717   4.661  11.360
 2114TIP3    H127757   2.793   4.644  11.303
 2114TIP3    H227758   2.681   4.744  11.326
 2115TIP3   OH227759   3.157   4.435  11.858
 2115TIP3    H127760   3.180   4.342  11.847
 2115TIP3    H227761   3.243   4.480  11.860
 2116TIP3   OH227762   3.291   4.715  11.673
 2116TIP3    H127763   3.266   4.787  11.611
 2116TIP3    H227764   3.387   4.712  11.654
 2117TIP3   OH227765   2.364   4.403  11.767
 2117TIP3    H127766   2.292   4.338  11.756
 2117TIP3    H227767   2.434   4.362  11.713
 2118TIP3   OH227768   2.642   3.855  11.374
 2118TIP3    H127769   2.625   3.952  11.367
 2118TIP3    H227770   2.566   3.819  11.326
 2119TIP3   OH227771   2.769   4.288  11.738
 2119TIP3    H127772   2.738   4.265  11.827
 2119TIP3    H227773   2.691   4.268  11.684
 2120TIP3   OH227774   3.041   4.203  11.647
 2120TIP3    H127775   2.945   4.208  11.658
 2120TIP3    H227776   3.068   4.139  11.716
 2121TIP3   OH227777   3.199   4.065  11.837
 2121TIP3    H127778   3.195   3.967  11.840
 2121TIP3    H227779   3.175   4.094  11.927
 2122TIP3   OH227780   2.176   4.193  11.747
 2122TIP3    H127781   2.202   4.119  11.690
 2122TIP3    H227782   2.168   4.148  11.834
 2123TIP3   OH227783   2.664   3.795  11.645
 2123TIP3    H127784   2.732   3.724  11.643
 2123TIP3    H227785   2.652   3.809  11.549
 2124TIP3   OH227786   2.700   3.956  11.857
 2124TIP3    H127787   2.682   3.905  11.773
 2124TIP3    H227788   2.640   4.032  11.847
 2125TIP3   OH227789   2.649   5.657  10.178
 2125TIP3    H127790   2.746   5.653  10.178
 2125TIP3    H227791   2.628   5.708  10.100
 2126TIP3   OH227792   1.883   5.642  10.617
 2126TIP3    H127793   1.808   5.596  10.572
 2126TIP3    H227794   1.907   5.577  10.686
 2127TIP3   OH227795   1.961   5.455  10.805
 2127TIP3    H127796   1.926   5.368  10.826
 2127TIP3    H227797   1.985   5.488  10.893
 2128TIP3   OH227798   3.716   5.536  11.098
 2128TIP3    H127799   3.719   5.552  11.194
 2128TIP3    H227800   3.786   5.595  11.068
 2129TIP3   OH227801   3.673   5.496  11.393
 2129TIP3    H127802   3.626   5.419  11.354
 2129TIP3    H227803   3.722   5.451  11.464
 2130TIP3   OH227804   3.518   5.068  11.860
 2130TIP3    H127805   3.427   5.065  11.896
 2130TIP3    H227806   3.555   5.148  11.901
 2131TIP3   OH227807   3.689   4.705  10.587
 2131TIP3    H127808   3.610   4.662  10.624
 2131TIP3    H227809   3.744   4.725  10.665
 2132TIP3   OH227810   3.661   4.978  11.090
 2132TIP3    H127811   3.742   4.940  11.052
 2132TIP3    H227812   3.676   5.073  11.073
 2133TIP3   OH227813   3.517   5.269  11.317
 2133TIP3    H127814   3.448   5.303  11.376
 2133TIP3    H227815   3.462   5.229  11.246
 2134TIP3   OH227816   3.554   4.413  10.082
 2134TIP3    H127817   3.556   4.479  10.013
 2134TIP3    H227818   3.538   4.329  10.035
 2135TIP3   OH227819   3.464   4.557  10.648
 2135TIP3    H127820   3.452   4.461  10.644
 2135TIP3    H227821   3.435   4.577  10.739
 2136TIP3   OH227822   1.968   4.761  11.054
 2136TIP3    H127823   1.985   4.757  10.957
 2136TIP3    H227824   2.058   4.748  11.088
 2137TIP3   OH227825   3.553   4.753  11.618
 2137TIP3    H127826   3.614   4.677  11.631
 2137TIP3    H227827   3.614   4.830  11.618
 2138TIP3   OH227828   3.704   4.541  11.683
 2138TIP3    H127829   3.615   4.501  11.667
 2138TIP3    H227830   3.761   4.462  11.675
 2139TIP3   OH227831   3.435   4.312  10.494
 2139TIP3    H127832   3.465   4.218  10.506
 2139TIP3    H227833   3.514   4.352  10.455
 2140TIP3   OH227834   3.498   4.369  11.039
 2140TIP3    H127835   3.594   4.392  11.037
 2140TIP3    H227836   3.479   4.383  11.133
 2141TIP3   OH227837   3.505   4.441  11.317
 2141TIP3    H127838   3.416   4.470  11.348
 2141TIP3    H227839   3.548   4.527  11.295
 2142TIP3   OH227840   1.932   4.300  11.670
 2142TIP3    H127841   2.024   4.271  11.690
 2142TIP3    H227842   1.884   4.217  11.696
 2143TIP3   OH227843   3.732   3.847  11.851
 2143TIP3    H127844   3.767   3.781  11.789
 2143TIP3    H227845   3.742   3.929  11.797
 2144TIP3   OH227846   3.497   4.042  10.499
 2144TIP3    H127847   3.522   3.997  10.582
 2144TIP3    H227848   3.438   3.977  10.453
 2145TIP3   OH227849   2.055   4.124  10.950
 2145TIP3    H127850   2.092   4.042  10.985
 2145TIP3    H227851   2.102   4.194  10.998
 2146TIP3   OH227852   1.880   4.424  11.061
 2146TIP3    H127853   1.934   4.398  10.984
 2146TIP3    H227854   1.925   4.506  11.084
 2147TIP3   OH227855   3.684   4.057  11.686
 2147TIP3    H127856   3.590   4.084  11.681
 2147TIP3    H227857   3.687   4.002  11.607
 2148TIP3   OH227858   3.695   4.040  10.168
 2148TIP3    H127859   3.719   3.977  10.097
 2148TIP3    H227860   3.752   4.113  10.143
 2149TIP3   OH227861   3.389   5.548  10.659
 2149TIP3    H127862   3.455   5.513  10.598
 2149TIP3    H227863   3.441   5.596  10.725
 2150TIP3   OH227864   1.909   3.913  11.294
 2150TIP3    H127865   1.843   3.898  11.364
 2150TIP3    H227866   1.864   3.982  11.240
 2151TIP3   OH227867   2.133   5.234  11.711
 2151TIP3    H127868   2.049   5.255  11.668
 2151TIP3    H227869   2.107   5.227  11.803
 2152TIP3   OH227870   2.423   5.336  11.339
 2152TIP3    H127871   2.390   5.422  11.311
 2152TIP3    H227872   2.516   5.344  11.309
 2153TIP3   OH227873   2.855   5.478  11.630
 2153TIP3    H127874   2.869   5.443  11.720
 2153TIP3    H227875   2.946   5.508  11.606
 2154TIP3   OH227876   3.084   5.605  11.561
 2154TIP3    H127877   3.157   5.547  11.537
 2154TIP3    H227878   3.122   5.649  11.641
 2155TIP3   OH227879   3.586   3.866  11.472
 2155TIP3    H127880   3.503   3.896  11.430
 2155TIP3    H227881   3.603   3.784  11.420
 2156TIP3   OH227882   2.165   5.659  11.339
 2156TIP3    H127883   2.092   5.709  11.299
 2156TIP3    H227884   2.135   5.640  11.428
 2157TIP3   OH227885   2.413   5.618  11.248
 2157TIP3    H127886   2.323   5.633  11.285
 2157TIP3    H227887   2.408   5.676  11.170
 2158TIP3   OH227888   2.883   5.608  11.163
 2158TIP3    H127889   2.837   5.664  11.098
 2158TIP3    H227890   2.896   5.671  11.237
 2159TIP3   OH227891   3.112   5.489  11.266
 2159TIP3    H127892   3.027   5.517  11.229
 2159TIP3    H227893   3.161   5.573  11.257
 2160TIP3   OH227894   3.370   5.646  11.288
 2160TIP3    H127895   3.365   5.742  11.265
 2160TIP3    H227896   3.392   5.609  11.200
 2161TIP3   OH227897   2.112   5.525  11.032
 2161TIP3    H127898   2.104   5.478  11.118
 2161TIP3    H227899   2.193   5.486  10.994
 2162TIP3   OH227900   2.321   5.396  10.897
 2162TIP3    H127901   2.302   5.303  10.920
 2162TIP3    H227902   2.405   5.410  10.945
 2163TIP3   OH227903   2.581   5.443  10.985
 2163TIP3    H127904   2.595   5.350  10.960
 2163TIP3    H227905   2.584   5.438  11.082
 2164TIP3   OH227906   2.924   4.009  10.900
 2164TIP3    H127907   2.858   3.944  10.926
 2164TIP3    H227908   2.980   3.957  10.840
 2165TIP3   OH227909   3.439   3.814  10.907
 2165TIP3    H127910   3.500   3.873  10.856
 2165TIP3    H227911   3.350   3.849  10.883
 2166TIP3   OH227912   3.606   3.938  10.738
 2166TIP3    H127913   3.673   3.881  10.693
 2166TIP3    H227914   3.656   4.022  10.746
 2167TIP3   OH227915   2.166   3.874  10.685
 2167TIP3    H127916   2.083   3.853  10.638
 2167TIP3    H227917   2.208   3.785  10.674
 2168TIP3   OH227918   2.604   3.865  10.669
 2168TIP3    H127919   2.696   3.900  10.649
 2168TIP3    H227920   2.618   3.839  10.759
 2169TIP3   OH227921   3.182   3.865  10.824
 2169TIP3    H127922   3.174   3.876  10.728
 2169TIP3    H227923   3.143   3.775  10.837
 2170TIP3   OH227924   3.306   3.868  10.396
 2170TIP3    H127925   3.232   3.925  10.371
 2170TIP3    H227926   3.259   3.783  10.411
 2171TIP3   OH227927   2.913   5.575  10.188
 2171TIP3    H127928   3.008   5.599  10.173
 2171TIP3    H227929   2.897   5.523  10.109
 2172TIP3   OH227930   2.151   3.924  11.629
 2172TIP3    H127931   2.111   3.846  11.671
 2172TIP3    H227932   2.241   3.921  11.668
 2173TIP3   OH227933   2.351   3.864  11.794
 2173TIP3    H127934   2.440   3.830  11.773
 2173TIP3    H227935   2.313   3.783  11.835
 2174TIP3   OH227936   3.191   3.793  11.809
 2174TIP3    H127937   3.200   3.745  11.894
 2174TIP3    H227938   3.283   3.789  11.775
 2175TIP3   OH227939   3.512   5.398  11.672
 2175TIP3    H127940   3.432   5.384  11.618
 2175TIP3    H227941   3.500   5.492  11.694
 2176TIP3   OH227942   4.958   4.786  10.665
 2176TIP3    H127943   4.956   4.882  10.672
 2176TIP3    H227944   4.879   4.766  10.614
 2177TIP3   OH227945   4.842   4.711  11.017
 2177TIP3    H127946   4.841   4.648  11.091
 2177TIP3    H227947   4.804   4.658  10.944
 2178TIP3   OH227948   4.077   4.678  11.176
 2178TIP3    H127949   4.086   4.610  11.245
 2178TIP3    H227950   4.152   4.735  11.198
 2179TIP3   OH227951   5.207   5.006  10.849
 2179TIP3    H127952   5.171   4.933  10.899
 2179TIP3    H227953   5.213   5.076  10.916
 2180TIP3   OH227954   4.170   5.123  11.026
 2180TIP3    H127955   4.139   5.036  10.994
 2180TIP3    H227956   4.265   5.105  11.030
 2181TIP3   OH227957   3.837   4.480  10.568
 2181TIP3    H127958   3.789   4.566  10.569
 2181TIP3    H227959   3.776   4.424  10.519
 2182TIP3   OH227960   3.905   4.702  10.788
 2182TIP3    H127961   3.933   4.620  10.833
 2182TIP3    H227962   3.975   4.713  10.722
 2183TIP3   OH227963   4.923   5.520  10.871
 2183TIP3    H127964   4.988   5.451  10.845
 2183TIP3    H227965   4.901   5.490  10.959
 2184TIP3   OH227966   4.680   4.952  11.066
 2184TIP3    H127967   4.713   4.888  11.001
 2184TIP3    H227968   4.760   4.966  11.120
 2185TIP3   OH227969   5.543   4.117  11.144
 2185TIP3    H127970   5.556   4.180  11.216
 2185TIP3    H227971   5.595   4.158  11.073
 2186TIP3   OH227972   4.996   4.398  11.097
 2186TIP3    H127973   5.013   4.302  11.099
 2186TIP3    H227974   4.986   4.412  11.001
 2187TIP3   OH227975   4.307   4.206  10.821
 2187TIP3    H127976   4.319   4.290  10.771
 2187TIP3    H227977   4.268   4.149  10.750
 2188TIP3   OH227978   5.080   4.218  10.656
 2188TIP3    H127979   5.144   4.183  10.724
 2188TIP3    H227980   5.142   4.270  10.603
 2189TIP3   OH227981   3.970   4.448  10.895
 2189TIP3    H127982   4.037   4.393  10.940
 2189TIP3    H227983   3.981   4.417  10.803
 2190TIP3   OH227984   4.488   4.603  10.824
 2190TIP3    H127985   4.553   4.544  10.866
 2190TIP3    H227986   4.433   4.538  10.776
 2191TIP3   OH227987   5.587   4.264  11.371
 2191TIP3    H127988   5.520   4.334  11.350
 2191TIP3    H227989   5.557   4.240  11.460
 2192TIP3   OH227990   4.199   4.096  11.224
 2192TIP3    H127991   4.170   4.153  11.150
 2192TIP3    H227992   4.131   4.119  11.293
 2193TIP3   OH227993   4.450   4.861  11.248
 2193TIP3    H127994   4.379   4.925  11.270
 2193TIP3    H227995   4.520   4.921  11.219
 2194TIP3   OH227996   5.260   4.150  10.856
 2194TIP3    H127997   5.240   4.073  10.909
 2194TIP3    H227998   5.329   4.193  10.910
 2195TIP3   OH227999   4.156   4.282  11.028
 2195TIP3    H128000   4.218   4.351  11.059
 2195TIP3    H228001   4.207   4.241  10.953
 2196TIP3   OH228002   4.295   5.061  11.331
 2196TIP3    H128003   4.290   5.153  11.297
 2196TIP3    H228004   4.206   5.053  11.375
 2197TIP3   OH228005   3.912   5.030  10.405
 2197TIP3    H128006   3.864   5.055  10.326
 2197TIP3    H228007   3.906   5.107  10.464
 2198TIP3   OH228008   5.264   5.190  11.086
 2198TIP3    H128009   5.167   5.201  11.098
 2198TIP3    H228010   5.290   5.281  11.065
 2199TIP3   OH228011   5.297   4.020  11.228
 2199TIP3    H128012   5.223   4.081  11.216
 2199TIP3    H228013   5.366   4.058  11.170
 2200TIP3   OH228014   4.592   3.830  10.971
 2200TIP3    H128015   4.578   3.734  10.964
 2200TIP3    H228016   4.504   3.860  11.002
 2201TIP3   OH228017   5.087   5.367  10.739
 2201TIP3    H128018   5.138   5.296  10.701
 2201TIP3    H228019   5.134   5.448  10.709
 2202TIP3   OH228020   5.372   5.020  11.446
 2202TIP3    H128021   5.387   4.955  11.374
 2202TIP3    H228022   5.392   5.105  11.401
 2203TIP3   OH228023   5.561   4.650  11.250
 2203TIP3    H128024   5.495   4.723  11.254
 2203TIP3    H228025   5.610   4.675  11.169
 2204TIP3   OH228026   5.168   4.730  10.516
 2204TIP3    H128027   5.095   4.755  10.578
 2204TIP3    H228028   5.218   4.666  10.570
 2205TIP3   OH228029   5.159   4.547  11.427
 2205TIP3    H128030   5.161   4.629  11.479
 2205TIP3    H228031   5.096   4.576  11.358
 2206TIP3   OH228032   4.327   4.795  10.710
 2206TIP3    H128033   4.298   4.759  10.622
 2206TIP3    H228034   4.390   4.727  10.740
 2207TIP3   OH228035   4.457   5.134  10.977
 2207TIP3    H128036   4.458   5.084  10.894
 2207TIP3    H228037   4.537   5.099  11.020
 2208TIP3   OH228038   4.361   4.670  11.072
 2208TIP3    H128039   4.416   4.681  10.992
 2208TIP3    H228040   4.400   4.737  11.133
 2209TIP3   OH228041   5.003   5.228  11.141
 2209TIP3    H128042   4.975   5.290  11.209
 2209TIP3    H228043   4.978   5.142  11.183
 2210TIP3   OH228044   4.456   5.114  11.542
 2210TIP3    H128045   4.415   5.188  11.591
 2210TIP3    H228046   4.389   5.094  11.472
 2211TIP3   OH228047   4.150   4.730  11.457
 2211TIP3    H128048   4.156   4.796  11.528
 2211TIP3    H228049   4.056   4.738  11.436
 2212TIP3   OH228050   4.834   5.327  10.619
 2212TIP3    H128051   4.866   5.350  10.708
 2212TIP3    H228052   4.768   5.396  10.607
 2213TIP3   OH228053   4.281   5.317  11.616
 2213TIP3    H128054   4.275   5.307  11.519
 2213TIP3    H228055   4.188   5.304  11.643
 2214TIP3   OH228056   5.424   3.820  10.271
 2214TIP3    H128057   5.330   3.835  10.294
 2214TIP3    H228058   5.446   3.903  10.227
 2215TIP3   OH228059   4.221   4.700  10.477
 2215TIP3    H128060   4.209   4.775  10.415
 2215TIP3    H228061   4.161   4.633  10.445
 2216TIP3   OH228062   3.833   4.941  11.358
 2216TIP3    H128063   3.789   4.933  11.271
 2216TIP3    H228064   3.842   4.846  11.379
 2217TIP3   OH228065   3.811   5.214  11.036
 2217TIP3    H128066   3.907   5.203  11.032
 2217TIP3    H228067   3.802   5.296  11.085
 2218TIP3   OH228068   5.634   5.285  11.604
 2218TIP3    H128069   5.622   5.189  11.601
 2218TIP3    H228070   5.547   5.310  11.642
 2219TIP3   OH228071   4.730   5.239  11.490
 2219TIP3    H128072   4.735   5.323  11.541
 2219TIP3    H228073   4.642   5.203  11.515
 2220TIP3   OH228074   4.771   5.612  10.468
 2220TIP3    H128075   4.766   5.605  10.371
 2220TIP3    H228076   4.776   5.708  10.486
 2221TIP3   OH228077   4.134   5.505  10.652
 2221TIP3    H128078   4.150   5.460  10.737
 2221TIP3    H228079   4.051   5.462  10.626
 2222TIP3   OH228080   5.045   5.527  10.444
 2222TIP3    H128081   4.951   5.539  10.466
 2222TIP3    H228082   5.074   5.461  10.507
 2223TIP3   OH228083   5.353   4.431  11.648
 2223TIP3    H128084   5.299   4.477  11.581
 2223TIP3    H228085   5.343   4.339  11.621
 2224TIP3   OH228086   4.062   5.073  11.450
 2224TIP3    H128087   4.084   5.037  11.538
 2224TIP3    H228088   3.975   5.033  11.430
 2225TIP3   OH228089   4.330   3.921  11.045
 2225TIP3    H128090   4.240   3.908  11.009
 2225TIP3    H228091   4.317   4.003  11.095
 2226TIP3   OH228092   4.795   3.887  11.382
 2226TIP3    H128093   4.834   3.844  11.461
 2226TIP3    H228094   4.698   3.875  11.397
 2227TIP3   OH228095   5.124   4.271  11.473
 2227TIP3    H128096   5.067   4.250  11.551
 2227TIP3    H228097   5.106   4.364  11.450
 2228TIP3   OH228098   4.762   4.139  10.121
 2228TIP3    H128099   4.725   4.141  10.211
 2228TIP3    H228100   4.730   4.056  10.088
 2229TIP3   OH228101   4.342   4.418  11.173
 2229TIP3    H128102   4.267   4.416  11.235
 2229TIP3    H228103   4.336   4.508  11.134
 2230TIP3   OH228104   4.336   4.426  10.662
 2230TIP3    H128105   4.243   4.404  10.643
 2230TIP3    H228106   4.375   4.403  10.574
 2231TIP3   OH228107   4.794   4.500  11.679
 2231TIP3    H128108   4.742   4.423  11.710
 2231TIP3    H228109   4.878   4.488  11.726
 2232TIP3   OH228110   4.992   4.428  10.818
 2232TIP3    H128111   4.966   4.486  10.747
 2232TIP3    H228112   5.003   4.341  10.774
 2233TIP3   OH228113   4.103   4.442  11.339
 2233TIP3    H128114   4.111   4.483  11.427
 2233TIP3    H228115   4.059   4.359  11.360
 2234TIP3   OH228116   3.769   4.152  10.738
 2234TIP3    H128117   3.837   4.149  10.808
 2234TIP3    H228118   3.813   4.115  10.659
 2235TIP3   OH228119   4.912   4.587  11.275
 2235TIP3    H128120   4.949   4.518  11.216
 2235TIP3    H228121   4.865   4.534  11.342
 2236TIP3   OH228122   4.593   4.185  10.758
 2236TIP3    H128123   4.499   4.184  10.787
 2236TIP3    H228124   4.640   4.167  10.841
 2237TIP3   OH228125   4.073   4.341  10.643
 2237TIP3    H128126   3.983   4.353  10.607
 2237TIP3    H228127   4.102   4.255  10.608
 2238TIP3   OH228128   4.430   4.348  10.416
 2238TIP3    H128129   4.527   4.351  10.423
 2238TIP3    H228130   4.418   4.409  10.340
 2239TIP3   OH228131   5.033   4.108  11.083
 2239TIP3    H128132   4.964   4.113  11.153
 2239TIP3    H228133   4.982   4.083  11.004
 2240TIP3   OH228134   5.353   5.672  11.715
 2240TIP3    H128135   5.379   5.711  11.630
 2240TIP3    H228136   5.425   5.704  11.771
 2241TIP3   OH228137   4.120   4.919  11.672
 2241TIP3    H128138   4.192   4.944  11.733
 2241TIP3    H228139   4.043   4.927  11.732
 2242TIP3   OH228140   4.720   4.460  10.946
 2242TIP3    H128141   4.781   4.404  10.897
 2242TIP3    H228142   4.705   4.407  11.026
 2243TIP3   OH228143   4.223   4.076  10.593
 2243TIP3    H128144   4.192   3.984  10.590
 2243TIP3    H228145   4.298   4.070  10.532
 2244TIP3   OH228146   4.585   4.293  11.190
 2244TIP3    H128147   4.502   4.345  11.198
 2244TIP3    H228148   4.640   4.328  11.262
 2245TIP3   OH228149   5.362   4.836  11.238
 2245TIP3    H128150   5.418   4.884  11.175
 2245TIP3    H228151   5.276   4.840  11.192
 2246TIP3   OH228152   5.022   4.203  10.199
 2246TIP3    H128153   4.935   4.211  10.152
 2246TIP3    H228154   5.061   4.288  10.188
 2247TIP3   OH228155   4.792   4.942  11.483
 2247TIP3    H128156   4.758   4.899  11.562
 2247TIP3    H228157   4.767   5.034  11.494
 2248TIP3   OH228158   4.155   4.855  10.939
 2248TIP3    H128159   4.222   4.846  10.869
 2248TIP3    H228160   4.160   4.769  10.984
 2249TIP3   OH228161   3.853   4.695  11.465
 2249TIP3    H128162   3.870   4.650  11.550
 2249TIP3    H228163   3.791   4.634  11.421
 2250TIP3   OH228164   4.554   4.651  11.683
 2250TIP3    H128165   4.522   4.620  11.597
 2250TIP3    H228166   4.647   4.619  11.683
 2251TIP3   OH228167   5.023   5.185  11.478
 2251TIP3    H128168   4.931   5.202  11.455
 2251TIP3    H228169   5.020   5.214  11.571
 2252TIP3   OH228170   5.589   4.989  11.598
 2252TIP3    H128171   5.499   5.011  11.561
 2252TIP3    H228172   5.643   4.984  11.516
 2253TIP3   OH228173   5.420   5.284  10.357
 2253TIP3    H128174   5.382   5.203  10.390
 2253TIP3    H228175   5.443   5.269  10.265
 2254TIP3   OH228176   5.139   4.767  11.067
 2254TIP3    H128177   5.045   4.745  11.057
 2254TIP3    H228178   5.182   4.692  11.023
 2255TIP3   OH228179   4.389   5.202  10.682
 2255TIP3    H128180   4.442   5.279  10.654
 2255TIP3    H228181   4.303   5.223  10.645
 2256TIP3   OH228182   4.539   4.969  10.643
 2256TIP3    H128183   4.500   5.058  10.636
 2256TIP3    H228184   4.462   4.917  10.669
 2257TIP3   OH228185   4.578   5.385  11.271
 2257TIP3    H128186   4.624   5.466  11.242
 2257TIP3    H228187   4.640   5.351  11.338
 2258TIP3   OH228188   4.400   5.466  10.584
 2258TIP3    H128189   4.303   5.480  10.599
 2258TIP3    H228190   4.438   5.548  10.621
 2259TIP3   OH228191   4.930   4.984  11.231
 2259TIP3    H128192   4.898   4.966  11.322
 2259TIP3    H228193   4.994   4.914  11.215
 2260TIP3   OH228194   5.212   5.443  11.481
 2260TIP3    H128195   5.143   5.394  11.433
 2260TIP3    H228196   5.230   5.513  11.415
 2261TIP3   OH228197   4.018   4.168  11.420
 2261TIP3    H128198   3.927   4.204  11.418
 2261TIP3    H228199   4.007   4.084  11.466
 2262TIP3   OH228200   5.243   4.955  10.368
 2262TIP3    H128201   5.217   4.875  10.419
 2262TIP3    H228202   5.335   4.960  10.392
 2263TIP3   OH228203   3.979   5.347  11.263
 2263TIP3    H128204   4.010   5.255  11.263
 2263TIP3    H228205   4.006   5.376  11.351
 2264TIP3   OH228206   4.891   4.146  11.317
 2264TIP3    H128207   4.963   4.152  11.381
 2264TIP3    H228208   4.853   4.058  11.337
 2265TIP3   OH228209   4.960   4.111  10.431
 2265TIP3    H128210   4.990   4.143  10.342
 2265TIP3    H228211   5.028   4.144  10.488
 2266TIP3   OH228212   4.688   4.281  10.505
 2266TIP3    H128213   4.768   4.333  10.509
 2266TIP3    H228214   4.660   4.265  10.597
 2267TIP3   OH228215   4.745   4.381  11.426
 2267TIP3    H128216   4.752   4.436  11.506
 2267TIP3    H228217   4.810   4.311  11.436
 2268TIP3   OH228218   4.775   3.984  10.595
 2268TIP3    H128219   4.741   4.048  10.661
 2268TIP3    H228220   4.844   4.039  10.550
 2269TIP3   OH228221   4.469   5.432  10.307
 2269TIP3    H128222   4.490   5.508  10.253
 2269TIP3    H228223   4.448   5.458  10.399
 2270TIP3   OH228224   4.338   4.091  10.280
 2270TIP3    H128225   4.337   4.186  10.298
 2270TIP3    H228226   4.433   4.072  10.288
 2271TIP3   OH228227   5.365   4.169  11.508
 2271TIP3    H128228   5.270   4.197  11.499
 2271TIP3    H228229   5.387   4.163  11.414
 2272TIP3   OH228230   5.223   4.546  10.913
 2272TIP3    H128231   5.142   4.501  10.885
 2272TIP3    H228232   5.271   4.477  10.965
 2273TIP3   OH228233   5.329   5.472  11.077
 2273TIP3    H128234   5.321   5.541  11.009
 2273TIP3    H228235   5.426   5.477  11.095
 2274TIP3   OH228236   4.079   3.884  10.958
 2274TIP3    H128237   4.059   3.885  10.862
 2274TIP3    H228238   4.037   3.799  10.984
 2275TIP3   OH228239   3.974   5.280  10.572
 2275TIP3    H128240   3.888   5.324  10.571
 2275TIP3    H228241   4.023   5.328  10.505
 2276TIP3   OH228242   3.895   5.541  11.701
 2276TIP3    H128243   3.955   5.521  11.776
 2276TIP3    H228244   3.855   5.454  11.684
 2277TIP3   OH228245   4.363   5.433  11.863
 2277TIP3    H128246   4.439   5.383  11.896
 2277TIP3    H228247   4.360   5.405  11.769
 2278TIP3   OH228248   4.774   5.380  10.018
 2278TIP3    H128249   4.701   5.318  10.028
 2278TIP3    H228250   4.845   5.332   9.974
 2279TIP3   OH228251   5.013   5.272  11.738
 2279TIP3    H128252   4.982   5.183  11.765
 2279TIP3    H228253   5.090   5.284  11.797
 2280TIP3   OH228254   3.886   4.919  11.802
 2280TIP3    H128255   3.902   4.827  11.771
 2280TIP3    H228256   3.812   4.944  11.744
 2281TIP3   OH228257   4.558   4.917  11.740
 2281TIP3    H128258   4.524   4.949  11.654
 2281TIP3    H228259   4.565   4.820  11.729
 2282TIP3   OH228260   5.127   4.903  11.479
 2282TIP3    H128261   5.206   4.962  11.473
 2282TIP3    H228262   5.057   4.970  11.483
 2283TIP3   OH228263   3.978   4.641  11.740
 2283TIP3    H128264   4.020   4.555  11.730
 2283TIP3    H228265   3.955   4.642  11.834
 2284TIP3   OH228266   4.368   4.536  11.475
 2284TIP3    H128267   4.308   4.608  11.501
 2284TIP3    H228268   4.408   4.572  11.394
 2285TIP3   OH228269   4.875   4.793  11.809
 2285TIP3    H128270   4.971   4.791  11.796
 2285TIP3    H228271   4.858   4.716  11.866
 2286TIP3   OH228272   4.408   4.273  11.581
 2286TIP3    H128273   4.420   4.203  11.515
 2286TIP3    H228274   4.404   4.354  11.526
 2287TIP3   OH228275   4.449   4.112  11.336
 2287TIP3    H128276   4.500   4.158  11.265
 2287TIP3    H228277   4.360   4.104  11.296
 2288TIP3   OH228278   4.603   4.661  11.360
 2288TIP3    H128279   4.678   4.644  11.303
 2288TIP3    H228280   4.566   4.744  11.327
 2289TIP3   OH228281   5.042   4.436  11.856
 2289TIP3    H128282   5.066   4.342  11.847
 2289TIP3    H228283   5.129   4.480  11.860
 2290TIP3   OH228284   5.178   4.715  11.673
 2290TIP3    H128285   5.152   4.787  11.611
 2290TIP3    H228286   5.274   4.712  11.654
 2291TIP3   OH228287   4.255   4.398  11.773
 2291TIP3    H128288   4.178   4.341  11.756
 2291TIP3    H228289   4.320   4.362  11.711
 2292TIP3   OH228290   4.528   3.855  11.375
 2292TIP3    H128291   4.510   3.952  11.365
 2292TIP3    H228292   4.453   3.819  11.325
 2293TIP3   OH228293   4.655   4.288  11.738
 2293TIP3    H128294   4.623   4.265  11.827
 2293TIP3    H228295   4.577   4.268  11.684
 2294TIP3   OH228296   4.927   4.203  11.647
 2294TIP3    H128297   4.830   4.208  11.658
 2294TIP3    H228298   4.953   4.139  11.716
 2295TIP3   OH228299   5.087   4.065  11.837
 2295TIP3    H128300   5.080   3.967  11.840
 2295TIP3    H228301   5.060   4.094  11.926
 2296TIP3   OH228302   4.062   4.192  11.748
 2296TIP3    H128303   4.087   4.119  11.690
 2296TIP3    H228304   4.054   4.147  11.835
 2297TIP3   OH228305   4.549   3.795  11.645
 2297TIP3    H128306   4.617   3.724  11.643
 2297TIP3    H228307   4.538   3.809  11.549
 2298TIP3   OH228308   4.585   3.956  11.857
 2298TIP3    H128309   4.568   3.905  11.773
 2298TIP3    H228310   4.525   4.032  11.847
 2299TIP3   OH228311   3.759   5.644  10.621
 2299TIP3    H128312   3.699   5.595  10.564
 2299TIP3    H228313   3.794   5.577  10.682
 2300TIP3   OH228314   3.847   5.456  10.804
 2300TIP3    H128315   3.812   5.368  10.822
 2300TIP3    H228316   3.870   5.489  10.893
 2301TIP3   OH228317   5.602   5.536  11.098
 2301TIP3    H128318   5.605   5.552  11.194
 2301TIP3    H228319   5.672   5.595  11.068
 2302TIP3   OH228320   5.559   5.496  11.393
 2302TIP3    H128321   5.512   5.419  11.354
 2302TIP3    H228322   5.608   5.451  11.464
 2303TIP3   OH228323   5.403   5.068  11.860
 2303TIP3    H128324   5.313   5.065  11.896
 2303TIP3    H228325   5.441   5.149  11.901
 2304TIP3   OH228326   5.572   4.707  10.592
 2304TIP3    H128327   5.496   4.660  10.631
 2304TIP3    H228328   5.630   4.724  10.668
 2305TIP3   OH228329   5.548   4.978  11.092
 2305TIP3    H128330   5.628   4.940  11.051
 2305TIP3    H228331   5.562   5.073  11.074
 2306TIP3   OH228332   5.402   5.269  11.317
 2306TIP3    H128333   5.334   5.303  11.376
 2306TIP3    H228334   5.348   5.228  11.245
 2307TIP3   OH228335   5.349   4.554  10.646
 2307TIP3    H128336   5.338   4.458  10.648
 2307TIP3    H228337   5.322   4.579  10.737
 2308TIP3   OH228338   3.854   4.765  11.053
 2308TIP3    H128339   3.871   4.757  10.957
 2308TIP3    H228340   3.943   4.747  11.089
 2309TIP3   OH228341   5.439   4.753  11.617
 2309TIP3    H128342   5.500   4.677  11.631
 2309TIP3    H228343   5.500   4.830  11.618
 2310TIP3   OH228344   5.590   4.542  11.673
 2310TIP3    H128345   5.499   4.503  11.669
 2310TIP3    H228346   5.645   4.464  11.686
 2311TIP3   OH228347   5.318   4.312  10.496
 2311TIP3    H128348   5.350   4.219  10.507
 2311TIP3    H228349   5.397   4.351  10.456
 2312TIP3   OH228350   5.383   4.368  11.038
 2312TIP3    H128351   5.479   4.392  11.036
 2312TIP3    H228352   5.363   4.384  11.131
 2313TIP3   OH228353   5.391   4.442  11.320
 2313TIP3    H128354   5.301   4.470  11.348
 2313TIP3    H228355   5.432   4.528  11.294
 2314TIP3   OH228356   3.816   4.295  11.671
 2314TIP3    H128357   3.909   4.273  11.689
 2314TIP3    H228358   3.770   4.212  11.697
 2315TIP3   OH228359   5.616   3.848  11.850
 2315TIP3    H128360   5.653   3.780  11.790
 2315TIP3    H228361   5.629   3.928  11.798
 2316TIP3   OH228362   5.384   4.043  10.497
 2316TIP3    H128363   5.409   3.999  10.580
 2316TIP3    H228364   5.326   3.977  10.454
 2317TIP3   OH228365   3.935   4.124  10.955
 2317TIP3    H128366   3.981   4.041  10.980
 2317TIP3    H228367   3.991   4.193  10.994
 2318TIP3   OH228368   3.764   4.424  11.058
 2318TIP3    H128369   3.820   4.399  10.982
 2318TIP3    H228370   3.810   4.504  11.085
 2319TIP3   OH228371   5.574   4.067  11.675
 2319TIP3    H128372   5.477   4.082  11.684
 2319TIP3    H228373   5.570   3.996  11.608
 2320TIP3   OH228374   3.799   4.062  10.470
 2320TIP3    H128375   3.704   4.064  10.448
 2320TIP3    H228376   3.838   4.088  10.387
 2321TIP3   OH228377   5.273   5.543  10.659
 2321TIP3    H128378   5.343   5.515  10.598
 2321TIP3    H228379   5.324   5.595  10.723
 2322TIP3   OH228380   3.795   3.915  11.295
 2322TIP3    H128381   3.728   3.896  11.363
 2322TIP3    H228382   3.749   3.982  11.241
 2323TIP3   OH228383   4.019   5.234  11.711
 2323TIP3    H128384   3.935   5.257  11.668
 2323TIP3    H228385   3.992   5.227  11.803
 2324TIP3   OH228386   4.309   5.335  11.339
 2324TIP3    H128387   4.276   5.422  11.312
 2324TIP3    H228388   4.402   5.344  11.309
 2325TIP3   OH228389   4.741   5.478  11.630
 2325TIP3    H128390   4.755   5.443  11.721
 2325TIP3    H228391   4.831   5.508  11.605
 2326TIP3   OH228392   4.970   5.605  11.561
 2326TIP3    H128393   5.043   5.546  11.537
 2326TIP3    H228394   5.007   5.648  11.640
 2327TIP3   OH228395   5.473   3.867  11.470
 2327TIP3    H128396   5.388   3.894  11.431
 2327TIP3    H228397   5.488   3.783  11.421
 2328TIP3   OH228398   4.051   5.659  11.339
 2328TIP3    H128399   3.978   5.709  11.299
 2328TIP3    H228400   4.020   5.640  11.428
 2329TIP3   OH228401   4.298   5.617  11.246
 2329TIP3    H128402   4.209   5.632  11.286
 2329TIP3    H228403   4.293   5.676  11.169
 2330TIP3   OH228404   4.769   5.608  11.163
 2330TIP3    H128405   4.723   5.664  11.098
 2330TIP3    H228406   4.782   5.671  11.237
 2331TIP3   OH228407   4.998   5.489  11.266
 2331TIP3    H128408   4.912   5.517  11.229
 2331TIP3    H228409   5.046   5.573  11.257
 2332TIP3   OH228410   5.256   5.646  11.288
 2332TIP3    H128411   5.251   5.742  11.265
 2332TIP3    H228412   5.278   5.609  11.200
 2333TIP3   OH228413   3.998   5.524  11.033
 2333TIP3    H128414   3.990   5.478  11.119
 2333TIP3    H228415   4.079   5.486  10.994
 2334TIP3   OH228416   4.204   5.396  10.899
 2334TIP3    H128417   4.189   5.302  10.922
 2334TIP3    H228418   4.290   5.411  10.944
 2335TIP3   OH228419   4.465   5.444  10.986
 2335TIP3    H128420   4.481   5.351  10.960
 2335TIP3    H228421   4.470   5.438  11.083
 2336TIP3   OH228422   4.811   4.010  10.897
 2336TIP3    H128423   4.744   3.946  10.928
 2336TIP3    H228424   4.866   3.955  10.841
 2337TIP3   OH228425   5.324   3.814  10.906
 2337TIP3    H128426   5.385   3.873  10.855
 2337TIP3    H228427   5.236   3.850  10.883
 2338TIP3   OH228428   5.491   3.938  10.734
 2338TIP3    H128429   5.560   3.881  10.693
 2338TIP3    H228430   5.541   4.021  10.749
 2339TIP3   OH228431   4.046   3.871  10.685
 2339TIP3    H128432   3.967   3.852  10.632
 2339TIP3    H228433   4.094   3.786  10.675
 2340TIP3   OH228434   4.495   3.864  10.663
 2340TIP3    H128435   4.585   3.900  10.656
 2340TIP3    H228436   4.491   3.842  10.756
 2341TIP3   OH228437   5.066   3.866  10.826
 2341TIP3    H128438   5.061   3.877  10.730
 2341TIP3    H228439   5.028   3.775  10.838
 2342TIP3   OH228440   5.191   3.870  10.396
 2342TIP3    H128441   5.117   3.929  10.376
 2342TIP3    H228442   5.147   3.784  10.416
 2343TIP3   OH228443   4.616   4.070  10.345
 2343TIP3    H128444   4.635   4.010  10.418
 2343TIP3    H228445   4.614   4.154  10.395
 2344TIP3   OH228446   4.807   5.579  10.197
 2344TIP3    H128447   4.896   5.598  10.169
 2344TIP3    H228448   4.781   5.524  10.119
 2345TIP3   OH228449   5.473   5.527  10.460
 2345TIP3    H128450   5.454   5.447  10.406
 2345TIP3    H228451   5.466   5.600  10.395
 2346TIP3   OH228452   4.036   3.926  11.630
 2346TIP3    H128453   3.997   3.846  11.670
 2346TIP3    H228454   4.127   3.921  11.668
 2347TIP3   OH228455   4.236   3.864  11.794
 2347TIP3    H128456   4.326   3.830  11.772
 2347TIP3    H228457   4.199   3.783  11.834
 2348TIP3   OH228458   5.076   3.792  11.809
 2348TIP3    H128459   5.086   3.745  11.894
 2348TIP3    H228460   5.168   3.789  11.775
 2349TIP3   OH228461   5.398   5.397  11.672
 2349TIP3    H128462   5.317   5.384  11.618
 2349TIP3    H228463   5.386   5.492  11.694
 2350TIP3   OH228464   6.841   4.783  10.670
 2350TIP3    H128465   6.843   4.882  10.667
 2350TIP3    H228466   6.769   4.762  10.609
 2351TIP3   OH228467   6.728   4.711  11.020
 2351TIP3    H128468   6.726   4.646  11.092
 2351TIP3    H228469   6.695   4.660  10.945
 2352TIP3   OH228470   5.962   4.678  11.176
 2352TIP3    H128471   5.973   4.610  11.245
 2352TIP3    H228472   6.037   4.735  11.197
 2353TIP3   OH228473   7.098   5.003  10.850
 2353TIP3    H128474   7.056   4.932  10.899
 2353TIP3    H228475   7.099   5.075  10.915
 2354TIP3   OH228476   6.055   5.123  11.026
 2354TIP3    H128477   6.025   5.036  10.994
 2354TIP3    H228478   6.151   5.105  11.030
 2355TIP3   OH228479   5.722   4.481  10.568
 2355TIP3    H128480   5.677   4.567  10.573
 2355TIP3    H228481   5.661   4.424  10.522
 2356TIP3   OH228482   5.789   4.699  10.786
 2356TIP3    H128483   5.817   4.619  10.834
 2356TIP3    H228484   5.862   4.714  10.725
 2357TIP3   OH228485   6.810   5.522  10.872
 2357TIP3    H128486   6.873   5.451  10.844
 2357TIP3    H228487   6.785   5.488  10.959
 2358TIP3   OH228488   6.566   4.950  11.068
 2358TIP3    H128489   6.599   4.888  11.002
 2358TIP3    H228490   6.647   4.966  11.119
 2359TIP3   OH228491   6.883   4.398  11.099
 2359TIP3    H128492   6.899   4.302  11.098
 2359TIP3    H228493   6.873   4.413  11.003
 2360TIP3   OH228494   6.192   4.207  10.821
 2360TIP3    H128495   6.204   4.290  10.771
 2360TIP3    H228496   6.153   4.149  10.752
 2361TIP3   OH228497   6.968   4.218  10.659
 2361TIP3    H128498   7.031   4.183  10.726
 2361TIP3    H228499   7.029   4.271  10.606
 2362TIP3   OH228500   5.856   4.447  10.894
 2362TIP3    H128501   5.922   4.393  10.940
 2362TIP3    H228502   5.867   4.416  10.803
 2363TIP3   OH228503   6.371   4.603  10.827
 2363TIP3    H128504   6.439   4.545  10.866
 2363TIP3    H228505   6.320   4.537  10.776
 2364TIP3   OH228506   6.085   4.096  11.224
 2364TIP3    H128507   6.058   4.153  11.148
 2364TIP3    H228508   6.018   4.119  11.292
 2365TIP3   OH228509   6.814   5.043  10.578
 2365TIP3    H128510   6.782   5.016  10.492
 2365TIP3    H228511   6.781   5.136  10.585
 2366TIP3   OH228512   6.335   4.861  11.248
 2366TIP3    H128513   6.265   4.925  11.270
 2366TIP3    H228514   6.406   4.920  11.219
 2367TIP3   OH228515   7.119   4.147  10.867
 2367TIP3    H128516   7.120   4.065  10.918
 2367TIP3    H228517   7.194   4.194  10.908
 2368TIP3   OH228518   6.041   4.281  11.031
 2368TIP3    H128519   6.104   4.352  11.058
 2368TIP3    H228520   6.092   4.241  10.955
 2369TIP3   OH228521   6.180   5.061  11.330
 2369TIP3    H128522   6.175   5.152  11.297
 2369TIP3    H228523   6.092   5.053  11.375
 2370TIP3   OH228524   5.783   5.027  10.406
 2370TIP3    H128525   5.770   5.063  10.319
 2370TIP3    H228526   5.797   5.105  10.464
 2371TIP3   OH228527   7.129   5.182  11.095
 2371TIP3    H128528   7.033   5.203  11.099
 2371TIP3    H228529   7.167   5.267  11.066
 2372TIP3   OH228530   7.161   4.031  11.199
 2372TIP3    H128531   7.092   4.099  11.211
 2372TIP3    H228532   7.238   4.080  11.168
 2373TIP3   OH228533   6.478   3.830  10.971
 2373TIP3    H128534   6.465   3.733  10.964
 2373TIP3    H228535   6.390   3.860  11.001
 2374TIP3   OH228536   6.968   5.361  10.748
 2374TIP3    H128537   7.016   5.293  10.696
 2374TIP3    H228538   7.011   5.441  10.711
 2375TIP3   OH228539   7.096   5.159  10.596
 2375TIP3    H128540   7.068   5.088  10.536
 2375TIP3    H228541   7.101   5.109  10.680
 2376TIP3   OH228542   7.232   5.034  11.458
 2376TIP3    H128543   7.260   4.964  11.395
 2376TIP3    H228544   7.273   5.110  11.412
 2377TIP3   OH228545   6.705   4.712  10.421
 2377TIP3    H128546   6.636   4.769  10.381
 2377TIP3    H228547   6.776   4.717  10.354
 2378TIP3   OH228548   6.716   4.558  10.129
 2378TIP3    H128549   6.790   4.562  10.191
 2378TIP3    H228550   6.744   4.494  10.064
 2379TIP3   OH228551   7.051   4.734  10.513
 2379TIP3    H128552   6.977   4.756  10.573
 2379TIP3    H228553   7.098   4.667  10.568
 2380TIP3   OH228554   7.047   4.548  11.424
 2380TIP3    H128555   7.042   4.628  11.479
 2380TIP3    H228556   6.983   4.575  11.355
 2381TIP3   OH228557   6.214   4.796  10.706
 2381TIP3    H128558   6.183   4.757  10.620
 2381TIP3    H228559   6.275   4.727  10.739
 2382TIP3   OH228560   6.345   5.134  10.974
 2382TIP3    H128561   6.345   5.082  10.893
 2382TIP3    H228562   6.424   5.099  11.020
 2383TIP3   OH228563   6.246   4.671  11.072
 2383TIP3    H128564   6.301   4.680  10.992
 2383TIP3    H228565   6.285   4.737  11.133
 2384TIP3   OH228566   6.880   5.229  11.141
 2384TIP3    H128567   6.861   5.292  11.211
 2384TIP3    H228568   6.863   5.143  11.184
 2385TIP3   OH228569   6.342   5.114  11.542
 2385TIP3    H128570   6.300   5.188  11.591
 2385TIP3    H228571   6.275   5.094  11.472
 2386TIP3   OH228572   6.941   4.643  10.283
 2386TIP3    H128573   6.993   4.667  10.363
 2386TIP3    H228574   6.978   4.701  10.215
 2387TIP3   OH228575   6.033   4.724  11.460
 2387TIP3    H128576   6.041   4.795  11.527
 2387TIP3    H228577   5.941   4.739  11.435
 2388TIP3   OH228578   6.711   5.322  10.627
 2388TIP3    H128579   6.753   5.353  10.709
 2388TIP3    H228580   6.655   5.396  10.601
 2389TIP3   OH228581   6.167   5.317  11.616
 2389TIP3    H128582   6.160   5.307  11.520
 2389TIP3    H228583   6.074   5.304  11.643
 2390TIP3   OH228584   6.112   4.698  10.466
 2390TIP3    H128585   6.082   4.775  10.415
 2390TIP3    H228586   6.046   4.632  10.443
 2391TIP3   OH228587   5.720   4.941  11.358
 2391TIP3    H128588   5.675   4.933  11.271
 2391TIP3    H228589   5.727   4.846  11.378
 2392TIP3   OH228590   5.696   5.215  11.034
 2392TIP3    H128591   5.792   5.203  11.032
 2392TIP3    H228592   5.687   5.296  11.085
 2393TIP3   OH228593   6.615   5.239  11.490
 2393TIP3    H128594   6.621   5.323  11.541
 2393TIP3    H228595   6.528   5.203  11.515
 2394TIP3   OH228596   6.661   5.613  10.471
 2394TIP3    H128597   6.649   5.607  10.376
 2394TIP3    H228598   6.662   5.709  10.487
 2395TIP3   OH228599   6.022   5.503  10.655
 2395TIP3    H128600   6.038   5.459  10.741
 2395TIP3    H228601   5.940   5.460  10.628
 2396TIP3   OH228602   6.966   5.534  10.170
 2396TIP3    H128603   7.006   5.459  10.120
 2396TIP3    H228604   6.963   5.502  10.261
 2397TIP3   OH228605   6.934   5.530  10.451
 2397TIP3    H128606   6.837   5.535  10.461
 2397TIP3    H228607   6.956   5.452  10.503
 2398TIP3   OH228608   7.184   4.449  11.654
 2398TIP3    H128609   7.181   4.484  11.565
 2398TIP3    H228610   7.238   4.367  11.639
 2399TIP3   OH228611   5.948   5.072  11.451
 2399TIP3    H128612   5.970   5.036  11.540
 2399TIP3    H228613   5.861   5.033  11.430
 2400TIP3   OH228614   6.216   3.920  11.047
 2400TIP3    H128615   6.126   3.908  11.010
 2400TIP3    H228616   6.202   4.003  11.095
 2401TIP3   OH228617   6.681   3.887  11.382
 2401TIP3    H128618   6.720   3.845  11.461
 2401TIP3    H228619   6.583   3.875  11.397
 2402TIP3   OH228620   7.002   4.267  11.466
 2402TIP3    H128621   6.954   4.250  11.551
 2402TIP3    H228622   6.994   4.363  11.453
 2403TIP3   OH228623   6.645   4.143  10.118
 2403TIP3    H128624   6.612   4.140  10.210
 2403TIP3    H228625   6.621   4.056  10.085
 2404TIP3   OH228626   6.227   4.418  11.172
 2404TIP3    H128627   6.153   4.417  11.235
 2404TIP3    H228628   6.222   4.509  11.134
 2405TIP3   OH228629   6.222   4.428  10.659
 2405TIP3    H128630   6.128   4.404  10.645
 2405TIP3    H228631   6.259   4.400  10.573
 2406TIP3   OH228632   6.777   4.478  10.535
 2406TIP3    H128633   6.733   4.560  10.502
 2406TIP3    H228634   6.844   4.467  10.467
 2407TIP3   OH228635   6.681   4.500  11.679
 2407TIP3    H128636   6.629   4.422  11.710
 2407TIP3    H228637   6.765   4.488  11.726
 2408TIP3   OH228638   6.875   4.429  10.821
 2408TIP3    H128639   6.852   4.484  10.744
 2408TIP3    H228640   6.888   4.344  10.775
 2409TIP3   OH228641   5.985   4.444  11.340
 2409TIP3    H128642   6.001   4.485  11.427
 2409TIP3    H228643   5.951   4.357  11.359
 2410TIP3   OH228644   5.655   4.153  10.737
 2410TIP3    H128645   5.723   4.148  10.808
 2410TIP3    H228646   5.700   4.115  10.659
 2411TIP3   OH228647   5.785   4.237  10.284
 2411TIP3    H128648   5.825   4.286  10.210
 2411TIP3    H228649   5.709   4.292  10.298
 2412TIP3   OH228650   6.796   4.586  11.274
 2412TIP3    H128651   6.836   4.517  11.217
 2412TIP3    H228652   6.750   4.534  11.342
 2413TIP3   OH228653   6.477   4.185  10.759
 2413TIP3    H128654   6.384   4.185  10.789
 2413TIP3    H228655   6.527   4.168  10.840
 2414TIP3   OH228656   5.958   4.340  10.643
 2414TIP3    H128657   5.870   4.353  10.602
 2414TIP3    H228658   5.987   4.256  10.603
 2415TIP3   OH228659   6.320   4.345  10.407
 2415TIP3    H128660   6.416   4.355  10.425
 2415TIP3    H228661   6.299   4.412  10.340
 2416TIP3   OH228662   6.911   4.105  11.084
 2416TIP3    H128663   6.845   4.112  11.154
 2416TIP3    H228664   6.862   4.084  11.003
 2417TIP3   OH228665   6.192   4.462  10.167
 2417TIP3    H128666   6.140   4.422  10.097
 2417TIP3    H228667   6.275   4.483  10.120
 2418TIP3   OH228668   7.229   5.677  11.718
 2418TIP3    H128669   7.263   5.710  11.634
 2418TIP3    H228670   7.303   5.702  11.775
 2419TIP3   OH228671   6.006   4.919  11.672
 2419TIP3    H128672   6.078   4.944  11.733
 2419TIP3    H228673   5.929   4.927  11.732
 2420TIP3   OH228674   6.605   4.460  10.948
 2420TIP3    H128675   6.666   4.407  10.895
 2420TIP3    H228676   6.591   4.405  11.026
 2421TIP3   OH228677   6.107   4.075  10.595
 2421TIP3    H128678   6.074   3.984  10.591
 2421TIP3    H228679   6.185   4.068  10.538
 2422TIP3   OH228680   6.470   4.293  11.189
 2422TIP3    H128681   6.387   4.345  11.198
 2422TIP3    H228682   6.525   4.328  11.261
 2423TIP3   OH228683   6.528   4.917  10.361
 2423TIP3    H128684   6.449   4.869  10.326
 2423TIP3    H228685   6.506   4.928  10.454
 2424TIP3   OH228686   7.216   4.837  11.239
 2424TIP3    H128687   7.288   4.850  11.174
 2424TIP3    H228688   7.139   4.838  11.178
 2425TIP3   OH228689   6.679   4.942  11.483
 2425TIP3    H128690   6.643   4.899  11.562
 2425TIP3    H228691   6.655   5.035  11.494
 2426TIP3   OH228692   6.040   4.855  10.939
 2426TIP3    H128693   6.108   4.847  10.870
 2426TIP3    H228694   6.046   4.769  10.985
 2427TIP3   OH228695   5.740   4.692  11.464
 2427TIP3    H128696   5.755   4.653  11.552
 2427TIP3    H228697   5.674   4.635  11.421
 2428TIP3   OH228698   6.440   4.651  11.683
 2428TIP3    H128699   6.408   4.620  11.597
 2428TIP3    H228700   6.532   4.619  11.683
 2429TIP3   OH228701   6.908   5.183  11.478
 2429TIP3    H128702   6.816   5.201  11.454
 2429TIP3    H228703   6.906   5.213  11.571
 2430TIP3   OH228704   7.019   4.764  11.068
 2430TIP3    H128705   6.926   4.743  11.054
 2430TIP3    H228706   7.067   4.691  11.026
 2431TIP3   OH228707   6.275   5.201  10.680
 2431TIP3    H128708   6.328   5.279  10.656
 2431TIP3    H228709   6.188   5.225  10.644
 2432TIP3   OH228710   6.420   4.966  10.634
 2432TIP3    H128711   6.388   5.059  10.639
 2432TIP3    H228712   6.345   4.918  10.674
 2433TIP3   OH228713   6.463   5.385  11.270
 2433TIP3    H128714   6.510   5.466  11.242
 2433TIP3    H228715   6.525   5.351  11.338
 2434TIP3   OH228716   6.287   5.465  10.585
 2434TIP3    H128717   6.190   5.479  10.592
 2434TIP3    H228718   6.322   5.550  10.618
 2435TIP3   OH228719   6.818   4.985  11.232
 2435TIP3    H128720   6.784   4.965  11.322
 2435TIP3    H228721   6.880   4.913  11.215
 2436TIP3   OH228722   7.048   5.079  10.144
 2436TIP3    H128723   7.080   5.042  10.228
 2436TIP3    H228724   6.952   5.074  10.151
 2437TIP3   OH228725   7.098   5.440  11.479
 2437TIP3    H128726   7.026   5.394  11.433
 2437TIP3    H228727   7.119   5.513  11.416
 2438TIP3   OH228728   5.911   4.165  11.420
 2438TIP3    H128729   5.826   4.185  11.381
 2438TIP3    H228730   5.900   4.076  11.460
 2439TIP3   OH228731   7.127   4.949  10.364
 2439TIP3    H128732   7.104   4.873  10.422
 2439TIP3    H228733   7.220   4.963  10.388
 2440TIP3   OH228734   5.865   5.347  11.263
 2440TIP3    H128735   5.895   5.255  11.263
 2440TIP3    H228736   5.891   5.376  11.351
 2441TIP3   OH228737   6.342   5.156  10.233
 2441TIP3    H128738   6.366   5.102  10.309
 2441TIP3    H228739   6.344   5.248  10.266
 2442TIP3   OH228740   5.990   4.879  10.282
 2442TIP3    H128741   5.925   4.917  10.342
 2442TIP3    H228742   6.045   4.953  10.255
 2443TIP3   OH228743   6.774   4.145  11.318
 2443TIP3    H128744   6.849   4.152  11.378
 2443TIP3    H228745   6.737   4.057  11.338
 2444TIP3   OH228746   6.860   4.101  10.421
 2444TIP3    H128747   6.873   4.157  10.343
 2444TIP3    H228748   6.911   4.146  10.491
 2445TIP3   OH228749   6.624   5.328  10.312
 2445TIP3    H128750   6.535   5.369  10.309
 2445TIP3    H228751   6.671   5.368  10.237
 2446TIP3   OH228752   6.575   4.277  10.505
 2446TIP3    H128753   6.652   4.336  10.509
 2446TIP3    H228754   6.547   4.266  10.598
 2447TIP3   OH228755   6.632   4.381  11.426
 2447TIP3    H128756   6.641   4.437  11.506
 2447TIP3    H228757   6.698   4.310  11.435
 2448TIP3   OH228758   6.655   3.987  10.591
 2448TIP3    H128759   6.626   4.046  10.662
 2448TIP3    H228760   6.729   4.040  10.553
 2449TIP3   OH228761   6.362   5.423  10.309
 2449TIP3    H128762   6.369   5.503  10.252
 2449TIP3    H228763   6.333   5.459  10.396
 2450TIP3   OH228764   6.226   4.092  10.272
 2450TIP3    H128765   6.219   4.185  10.302
 2450TIP3    H228766   6.319   4.072  10.292
 2451TIP3   OH228767   7.235   4.144  11.491
 2451TIP3    H128768   7.152   4.197  11.494
 2451TIP3    H228769   7.275   4.173  11.409
 2452TIP3   OH228770   7.108   4.547  10.917
 2452TIP3    H128771   7.027   4.503  10.886
 2452TIP3    H228772   7.152   4.475  10.963
 2453TIP3   OH228773   7.222   5.475  11.077
 2453TIP3    H128774   7.206   5.542  11.008
 2453TIP3    H228775   7.316   5.484  11.094
 2454TIP3   OH228776   5.964   3.884  10.959
 2454TIP3    H128777   5.945   3.886  10.862
 2454TIP3    H228778   5.923   3.798  10.983
 2455TIP3   OH228779   5.860   5.274  10.572
 2455TIP3    H128780   5.777   5.324  10.571
 2455TIP3    H228781   5.910   5.323  10.506
 2456TIP3   OH228782   5.780   5.541  11.702
 2456TIP3    H128783   5.841   5.521  11.776
 2456TIP3    H228784   5.740   5.455  11.684
 2457TIP3   OH228785   6.249   5.433  11.863
 2457TIP3    H128786   6.324   5.383  11.896
 2457TIP3    H228787   6.246   5.405  11.769
 2458TIP3   OH228788   6.905   5.270  11.737
 2458TIP3    H128789   6.870   5.183  11.766
 2458TIP3    H228790   6.980   5.281  11.798
 2459TIP3   OH228791   7.124   5.363  10.032
 2459TIP3    H128792   7.144   5.274  10.065
 2459TIP3    H228793   7.192   5.383   9.968
 2460TIP3   OH228794   5.771   4.918  11.802
 2460TIP3    H128795   5.788   4.827  11.771
 2460TIP3    H228796   5.698   4.944  11.744
 2461TIP3   OH228797   6.443   4.918  11.740
 2461TIP3    H128798   6.410   4.949  11.654
 2461TIP3    H228799   6.451   4.820  11.729
 2462TIP3   OH228800   7.010   4.900  11.479
 2462TIP3    H128801   7.089   4.959  11.474
 2462TIP3    H228802   6.943   4.969  11.484
 2463TIP3   OH228803   5.860   4.638  11.739
 2463TIP3    H128804   5.908   4.555  11.734
 2463TIP3    H228805   5.841   4.644  11.834
 2464TIP3   OH228806   6.330   4.755  10.248
 2464TIP3    H128807   6.277   4.702  10.309
 2464TIP3    H228808   6.358   4.689  10.180
 2465TIP3   OH228809   6.250   4.534  11.474
 2465TIP3    H128810   6.195   4.609  11.501
 2465TIP3    H228811   6.293   4.571  11.395
 2466TIP3   OH228812   6.434   4.571  10.069
 2466TIP3    H128813   6.417   4.563   9.974
 2466TIP3    H228814   6.531   4.587  10.074
 2467TIP3   OH228815   6.761   4.793  11.809
 2467TIP3    H128816   6.856   4.792  11.797
 2467TIP3    H228817   6.745   4.716  11.865
 2468TIP3   OH228818   6.287   4.273  11.579
 2468TIP3    H128819   6.308   4.203  11.515
 2468TIP3    H228820   6.292   4.355  11.526
 2469TIP3   OH228821   6.335   4.112  11.336
 2469TIP3    H128822   6.386   4.158  11.265
 2469TIP3    H228823   6.247   4.103  11.295
 2470TIP3   OH228824   6.488   4.661  11.360
 2470TIP3    H128825   6.564   4.644  11.303
 2470TIP3    H228826   6.452   4.744  11.327
 2471TIP3   OH228827   6.933   4.439  11.858
 2471TIP3    H128828   6.955   4.345  11.846
 2471TIP3    H228829   7.021   4.480  11.854
 2472TIP3   OH228830   7.064   4.720  11.674
 2472TIP3    H128831   7.035   4.788  11.609
 2472TIP3    H228832   7.157   4.708  11.652
 2473TIP3   OH228833   6.138   4.400  11.771
 2473TIP3    H128834   6.064   4.339  11.757
 2473TIP3    H228835   6.206   4.362  11.712
 2474TIP3   OH228836   6.413   3.855  11.375
 2474TIP3    H128837   6.395   3.952  11.366
 2474TIP3    H228838   6.339   3.819  11.325
 2475TIP3   OH228839   6.539   4.289  11.738
 2475TIP3    H128840   6.508   4.265  11.827
 2475TIP3    H228841   6.461   4.268  11.684
 2476TIP3   OH228842   6.808   4.205  11.647
 2476TIP3    H128843   6.712   4.207  11.660
 2476TIP3    H228844   6.840   4.140  11.713
 2477TIP3   OH228845   6.980   4.062  11.840
 2477TIP3    H128846   6.965   3.965  11.840
 2477TIP3    H228847   6.944   4.093  11.926
 2478TIP3   OH228848   5.944   4.191  11.743
 2478TIP3    H128849   5.978   4.116  11.691
 2478TIP3    H228850   5.941   4.151  11.833
 2479TIP3   OH228851   6.435   3.795  11.645
 2479TIP3    H128852   6.503   3.724  11.643
 2479TIP3    H228853   6.424   3.809  11.549
 2480TIP3   OH228854   6.471   3.956  11.857
 2480TIP3    H128855   6.454   3.905  11.773
 2480TIP3    H228856   6.411   4.032  11.847
 2481TIP3   OH228857   6.421   5.650  10.178
 2481TIP3    H128858   6.517   5.656  10.176
 2481TIP3    H228859   6.401   5.709  10.106
 2482TIP3   OH228860   5.651   5.644  10.618
 2482TIP3    H128861   5.579   5.596  10.571
 2482TIP3    H228862   5.679   5.578  10.684
 2483TIP3   OH228863   5.734   5.457  10.805
 2483TIP3    H128864   5.699   5.368  10.824
 2483TIP3    H228865   5.758   5.489  10.894
 2484TIP3   OH228866   7.280   5.262  11.323
 2484TIP3    H128867   7.214   5.306  11.379
 2484TIP3    H228868   7.227   5.226  11.250
 2485TIP3   OH228869   7.191   4.564  10.656
 2485TIP3    H128870   7.214   4.470  10.661
 2485TIP3    H228871   7.200   4.589  10.750
 2486TIP3   OH228872   5.738   4.764  11.053
 2486TIP3    H128873   5.757   4.757  10.957
 2486TIP3    H228874   5.828   4.747  11.089
 2487TIP3   OH228875   7.247   4.158  10.001
 2487TIP3    H128876   7.308   4.117  10.062
 2487TIP3    H228877   7.164   4.111  10.014
 2488TIP3   OH228878   7.198   4.309  10.480
 2488TIP3    H128879   7.231   4.225  10.516
 2488TIP3    H228880   7.280   4.345  10.447
 2489TIP3   OH228881  -0.053   4.285  11.039
 2489TIP3    H128882   0.035   4.320  11.025
 2489TIP3    H228883  -0.076   4.349  11.109
 2490TIP3   OH228884   7.278   4.447  11.342
 2490TIP3    H128885   7.184   4.473  11.351
 2490TIP3    H228886   7.313   4.516  11.283
 2491TIP3   OH228887   5.696   4.298  11.716
 2491TIP3    H128888   5.792   4.275  11.718
 2491TIP3    H228889   5.649   4.210  11.718
 2492TIP3   OH228890   7.183   4.013  10.562
 2492TIP3    H128891   7.274   3.993  10.588
 2492TIP3    H228892   7.182   3.969  10.474
 2493TIP3   OH228893   5.820   4.124  10.958
 2493TIP3    H128894   5.868   4.041  10.979
 2493TIP3    H228895   5.878   4.193  10.992
 2494TIP3   OH228896   5.652   4.422  11.062
 2494TIP3    H128897   5.704   4.399  10.982
 2494TIP3    H228898   5.695   4.506  11.084
 2495TIP3   OH228899   5.686   4.055  10.472
 2495TIP3    H128900   5.593   4.065  10.451
 2495TIP3    H228901   5.729   4.092  10.392
 2496TIP3   OH228902   7.141   5.528  10.669
 2496TIP3    H128903   7.208   5.493  10.609
 2496TIP3    H228904   7.192   5.584  10.730
 2497TIP3   OH228905   5.683   3.920  11.300
 2497TIP3    H128906   5.613   3.892  11.362
 2497TIP3    H228907   5.634   3.979  11.239
 2498TIP3   OH228908   5.905   5.234  11.711
 2498TIP3    H128909   5.821   5.257  11.668
 2498TIP3    H228910   5.878   5.227  11.803
 2499TIP3   OH228911   6.195   5.336  11.340
 2499TIP3    H128912   6.162   5.422  11.312
 2499TIP3    H228913   6.287   5.344  11.309
 2500TIP3   OH228914   6.627   5.478  11.630
 2500TIP3    H128915   6.640   5.443  11.720
 2500TIP3    H228916   6.717   5.509  11.605
 2501TIP3   OH228917   6.857   5.604  11.562
 2501TIP3    H128918   6.932   5.547  11.537
 2501TIP3    H228919   6.896   5.650  11.640
 2502TIP3   OH228920   5.937   5.659  11.339
 2502TIP3    H128921   5.864   5.709  11.299
 2502TIP3    H228922   5.906   5.640  11.428
 2503TIP3   OH228923   6.184   5.617  11.246
 2503TIP3    H128924   6.095   5.632  11.285
 2503TIP3    H228925   6.178   5.676  11.169
 2504TIP3   OH228926   6.651   5.607  11.164
 2504TIP3    H128927   6.608   5.664  11.098
 2504TIP3    H228928   6.667   5.671  11.236
 2505TIP3   OH228929   6.883   5.488  11.266
 2505TIP3    H128930   6.797   5.516  11.229
 2505TIP3    H228931   6.929   5.574  11.259
 2506TIP3   OH228932   7.128   5.646  11.287
 2506TIP3    H128933   7.127   5.741  11.266
 2506TIP3    H228934   7.162   5.609  11.204
 2507TIP3   OH228935   5.883   5.524  11.033
 2507TIP3    H128936   5.875   5.478  11.119
 2507TIP3    H228937   5.965   5.486  10.994
 2508TIP3   OH228938   6.090   5.395  10.898
 2508TIP3    H128939   6.074   5.301  10.922
 2508TIP3    H228940   6.176   5.411  10.943
 2509TIP3   OH228941   6.348   5.444  10.986
 2509TIP3    H128942   6.366   5.352  10.960
 2509TIP3    H228943   6.355   5.438  11.083
 2510TIP3   OH228944   6.694   4.009  10.901
 2510TIP3    H128945   6.628   3.944  10.929
 2510TIP3    H228946   6.751   3.957  10.843
 2511TIP3   OH228947   7.211   3.812  10.907
 2511TIP3    H128948   7.268   3.875  10.863
 2511TIP3    H228949   7.121   3.847  10.886
 2512TIP3   OH228950   5.932   3.872  10.685
 2512TIP3    H128951   5.853   3.853  10.630
 2512TIP3    H228952   5.978   3.786  10.679
 2513TIP3   OH228953   6.383   3.860  10.662
 2513TIP3    H128954   6.471   3.902  10.657
 2513TIP3    H228955   6.376   3.842  10.755
 2514TIP3   OH228956   6.954   3.861  10.825
 2514TIP3    H128957   6.948   3.879  10.731
 2514TIP3    H228958   6.910   3.773  10.837
 2515TIP3   OH228959   7.075   3.862  10.377
 2515TIP3    H128960   7.003   3.927  10.376
 2515TIP3    H228961   7.031   3.781  10.411
 2516TIP3   OH228962   5.792   5.447  10.367
 2516TIP3    H128963   5.746   5.440  10.283
 2516TIP3    H228964   5.808   5.542  10.374
 2517TIP3   OH228965   5.994   4.036  10.111
 2517TIP3    H128966   6.046   3.982  10.052
 2517TIP3    H228967   6.061   4.072  10.170
 2518TIP3   OH228968   6.502   4.065  10.348
 2518TIP3    H128969   6.523   4.010  10.425
 2518TIP3    H228970   6.500   4.152  10.395
 2519TIP3   OH228971   5.921   3.928  11.631
 2519TIP3    H128972   5.883   3.846  11.669
 2519TIP3    H228973   6.012   3.921  11.668
 2520TIP3   OH228974   6.122   3.863  11.794
 2520TIP3    H128975   6.211   3.830  11.772
 2520TIP3    H228976   6.084   3.783  11.834
 2521TIP3   OH228977   6.962   3.794  11.807
 2521TIP3    H128978   6.971   3.747  11.892
 2521TIP3    H228979   7.054   3.793  11.773
 2522TIP3   OH228980   7.262   5.386  11.686
 2522TIP3    H128981   7.197   5.380  11.613
 2522TIP3    H228982   7.264   5.484  11.694
 2523TIP3   OH228983   1.186   6.670  10.669
 2523TIP3    H128984   1.184   6.768  10.666
 2523TIP3    H228985   1.110   6.649  10.615
 2524TIP3   OH228986   1.069   6.596  11.019
 2524TIP3    H128987   1.070   6.532  11.092
 2524TIP3    H228988   1.036   6.544  10.945
 2525TIP3   OH228989   0.311   6.563  11.172
 2525TIP3    H128990   0.317   6.495  11.243
 2525TIP3    H228991   0.381   6.623  11.200
 2526TIP3   OH228992   1.441   6.899  10.847
 2526TIP3    H128993   1.401   6.822  10.891
 2526TIP3    H228994   1.440   6.961  10.921
 2527TIP3   OH228995   0.399   7.008  11.031
 2527TIP3    H128996   0.366   6.924  10.994
 2527TIP3    H228997   0.495   6.990  11.029
 2528TIP3   OH228998   0.091   6.368  10.531
 2528TIP3    H128999   0.044   6.445  10.570
 2528TIP3    H229000   0.014   6.312  10.531
 2529TIP3   OH229001   0.131   6.579  10.784
 2529TIP3    H129002   0.161   6.504  10.836
 2529TIP3    H229003   0.204   6.598  10.724
 2530TIP3   OH229004   0.905   6.834  11.067
 2530TIP3    H129005   0.942   6.773  11.001
 2530TIP3    H229006   0.987   6.854  11.118
 2531TIP3   OH229007   1.768   6.003  11.140
 2531TIP3    H129008   1.785   6.061  11.217
 2531TIP3    H229009   1.825   6.044  11.074
 2532TIP3   OH229010   1.224   6.283  11.099
 2532TIP3    H129011   1.242   6.187  11.100
 2532TIP3    H229012   1.215   6.297  11.003
 2533TIP3   OH229013   0.536   6.092  10.821
 2533TIP3    H129014   0.548   6.176  10.772
 2533TIP3    H229015   0.497   6.035  10.752
 2534TIP3   OH229016   1.307   6.101  10.661
 2534TIP3    H129017   1.375   6.068  10.724
 2534TIP3    H229018   1.362   6.154  10.601
 2535TIP3   OH229019   0.195   6.324  10.888
 2535TIP3    H129020   0.268   6.278  10.934
 2535TIP3    H229021   0.214   6.297  10.797
 2536TIP3   OH229022   0.715   6.489  10.825
 2536TIP3    H129023   0.782   6.430  10.866
 2536TIP3    H229024   0.664   6.423  10.773
 2537TIP3   OH229025   1.811   6.143  11.368
 2537TIP3    H129026   1.751   6.220  11.358
 2537TIP3    H229027   1.815   6.135  11.464
 2538TIP3   OH229028   0.431   5.982  11.224
 2538TIP3    H129029   0.400   6.039  11.151
 2538TIP3    H229030   0.363   6.004  11.292
 2539TIP3   OH229031   1.159   6.931  10.576
 2539TIP3    H129032   1.121   6.906  10.491
 2539TIP3    H229033   1.120   7.020  10.588
 2540TIP3   OH229034   0.681   6.744  11.250
 2540TIP3    H129035   0.609   6.808  11.271
 2540TIP3    H229036   0.751   6.804  11.220
 2541TIP3   OH229037   1.492   6.034  10.857
 2541TIP3    H129038   1.470   5.958  10.911
 2541TIP3    H229039   1.558   6.078  10.912
 2542TIP3   OH229040   0.382   6.166  11.027
 2542TIP3    H129041   0.443   6.236  11.061
 2542TIP3    H229042   0.438   6.128  10.953
 2543TIP3   OH229043   0.524   6.945  11.327
 2543TIP3    H129044   0.518   7.037  11.294
 2543TIP3    H229045   0.436   6.936  11.371
 2544TIP3   OH229046   0.126   6.916  10.411
 2544TIP3    H129047   0.111   6.938  10.319
 2544TIP3    H229048   0.140   7.000  10.459
 2545TIP3   OH229049   1.493   7.077  11.082
 2545TIP3    H129050   1.396   7.085  11.102
 2545TIP3    H229051   1.521   7.169  11.069
 2546TIP3   OH229052   1.524   5.903  11.224
 2546TIP3    H129053   1.452   5.966  11.215
 2546TIP3    H229054   1.596   5.945  11.172
 2547TIP3   OH229055   0.822   5.715  10.971
 2547TIP3    H129056   0.807   5.618  10.965
 2547TIP3    H229057   0.734   5.746  11.000
 2548TIP3   OH229058   1.335   7.219  10.736
 2548TIP3    H129059   1.363   7.161  10.665
 2548TIP3    H229060   1.354   7.308  10.703
 2549TIP3   OH229061   1.426   7.032  10.580
 2549TIP3    H129062   1.399   6.958  10.523
 2549TIP3    H229063   1.412   6.985  10.665
 2550TIP3   OH229064   1.607   6.909  11.447
 2550TIP3    H129065   1.612   6.840  11.377
 2550TIP3    H229066   1.623   6.991  11.399
 2551TIP3   OH229067   1.791   6.537  11.251
 2551TIP3    H129068   1.723   6.608  11.255
 2551TIP3    H229069   1.838   6.561  11.170
 2552TIP3   OH229070   1.395   6.618  10.516
 2552TIP3    H129071   1.322   6.638  10.578
 2552TIP3    H229072   1.441   6.547  10.563
 2553TIP3   OH229073   1.389   6.427  11.410
 2553TIP3    H129074   1.392   6.500  11.477
 2553TIP3    H229075   1.321   6.465  11.352
 2554TIP3   OH229076   0.559   6.683  10.707
 2554TIP3    H129077   0.524   6.644  10.624
 2554TIP3    H229078   0.619   6.612  10.740
 2555TIP3   OH229079   0.689   7.022  10.975
 2555TIP3    H129080   0.688   6.968  10.895
 2555TIP3    H229081   0.766   6.985  11.020
 2556TIP3   OH229082   0.593   6.556  11.072
 2556TIP3    H129083   0.646   6.567  10.991
 2556TIP3    H229084   0.629   6.624  11.133
 2557TIP3   OH229085   1.236   7.113  11.143
 2557TIP3    H129086   1.198   7.176  11.204
 2557TIP3    H229087   1.206   7.028  11.183
 2558TIP3   OH229088   0.685   7.000  11.542
 2558TIP3    H129089   0.641   7.074  11.589
 2558TIP3    H229090   0.619   6.977  11.471
 2559TIP3   OH229091   0.379   6.616  11.460
 2559TIP3    H129092   0.383   6.685  11.529
 2559TIP3    H229093   0.285   6.625  11.436
 2560TIP3   OH229094   1.055   7.205  10.626
 2560TIP3    H129095   1.094   7.236  10.708
 2560TIP3    H229096   0.999   7.280  10.601
 2561TIP3   OH229097   0.508   7.194  11.614
 2561TIP3    H129098   0.499   7.191  11.516
 2561TIP3    H229099   0.414   7.187  11.641
 2562TIP3   OH229100   0.458   6.582  10.464
 2562TIP3    H129101   0.431   6.665  10.420
 2562TIP3    H229102   0.384   6.522  10.451
 2563TIP3   OH229103   0.122   6.813  11.332
 2563TIP3    H129104   0.046   6.825  11.272
 2563TIP3    H229105   0.085   6.734  11.378
 2564TIP3   OH229106   0.068   7.120  11.012
 2564TIP3    H129107   0.153   7.087  11.039
 2564TIP3    H229108   0.045   7.177  11.086
 2565TIP3   OH229109   1.860   7.170  11.611
 2565TIP3    H129110   1.849   7.074  11.598
 2565TIP3    H229111   1.771   7.194  11.642
 2566TIP3   OH229112   0.957   7.126  11.489
 2566TIP3    H129113   0.967   7.207  11.540
 2566TIP3    H229114   0.872   7.086  11.517
 2567TIP3   OH229115   1.582   6.314  11.650
 2567TIP3    H129116   1.530   6.365  11.584
 2567TIP3    H229117   1.574   6.223  11.618
 2568TIP3   OH229118   0.296   6.965  11.458
 2568TIP3    H129119   0.311   6.921  11.543
 2568TIP3    H229120   0.212   6.923  11.428
 2569TIP3   OH229121   0.560   5.808  11.045
 2569TIP3    H129122   0.470   5.794  11.009
 2569TIP3    H229123   0.546   5.889  11.095
 2570TIP3   OH229124   1.024   5.771  11.381
 2570TIP3    H129125   1.063   5.732  11.462
 2570TIP3    H229126   0.927   5.761  11.398
 2571TIP3   OH229127   1.352   6.156  11.472
 2571TIP3    H129128   1.296   6.135  11.551
 2571TIP3    H229129   1.335   6.249  11.449
 2572TIP3   OH229130   0.568   6.303  11.171
 2572TIP3    H129131   0.495   6.303  11.237
 2572TIP3    H229132   0.566   6.394  11.135
 2573TIP3   OH229133   0.566   6.313  10.658
 2573TIP3    H129134   0.472   6.290  10.643
 2573TIP3    H229135   0.605   6.285  10.573
 2574TIP3   OH229136   1.117   6.366  10.532
 2574TIP3    H129137   1.075   6.444  10.498
 2574TIP3    H229138   1.187   6.344  10.467
 2575TIP3   OH229139   1.021   6.386  11.680
 2575TIP3    H129140   0.971   6.306  11.711
 2575TIP3    H229141   1.107   6.375  11.725
 2576TIP3   OH229142   1.221   6.314  10.820
 2576TIP3    H129143   1.193   6.370  10.745
 2576TIP3    H229144   1.231   6.229  10.773
 2577TIP3   OH229145   0.333   6.327  11.340
 2577TIP3    H129146   0.335   6.369  11.427
 2577TIP3    H229147   0.284   6.245  11.359
 2578TIP3   OH229148   0.035   6.071  10.719
 2578TIP3    H129149   0.069   6.036  10.804
 2578TIP3    H229150   0.049   5.996  10.661
 2579TIP3   OH229151   0.130   6.131  10.274
 2579TIP3    H129152   0.167   6.185  10.205
 2579TIP3    H229153   0.045   6.174  10.292
 2580TIP3   OH229154   1.140   6.472  11.275
 2580TIP3    H129155   1.179   6.404  11.216
 2580TIP3    H229156   1.094   6.419  11.342
 2581TIP3   OH229157   0.819   6.064  10.760
 2581TIP3    H129158   0.727   6.071  10.791
 2581TIP3    H229159   0.869   6.055  10.843
 2582TIP3   OH229160   0.302   6.228  10.643
 2582TIP3    H129161   0.213   6.240  10.606
 2582TIP3    H229162   0.326   6.139  10.610
 2583TIP3   OH229163   0.665   6.236  10.417
 2583TIP3    H129164   0.761   6.240  10.426
 2583TIP3    H229165   0.647   6.295  10.343
 2584TIP3   OH229166   1.261   5.993  11.083
 2584TIP3    H129167   1.192   5.998  11.152
 2584TIP3    H229168   1.210   5.969  11.004
 2585TIP3   OH229169   0.347   6.806  11.673
 2585TIP3    H129170   0.421   6.828  11.732
 2585TIP3    H229171   0.272   6.814  11.734
 2586TIP3   OH229172   0.949   6.346  10.946
 2586TIP3    H129173   1.009   6.292  10.895
 2586TIP3    H229174   0.934   6.292  11.025
 2587TIP3   OH229175   0.445   5.963  10.584
 2587TIP3    H129176   0.417   5.870  10.596
 2587TIP3    H229177   0.531   5.953  10.541
 2588TIP3   OH229178   0.813   6.178  11.190
 2588TIP3    H129179   0.731   6.230  11.198
 2588TIP3    H229180   0.869   6.214  11.262
 2589TIP3   OH229181   1.593   6.717  11.237
 2589TIP3    H129182   1.647   6.771  11.177
 2589TIP3    H229183   1.504   6.727  11.196
 2590TIP3   OH229184   1.253   6.081  10.179
 2590TIP3    H129185   1.162   6.102  10.161
 2590TIP3    H229186   1.288   6.166  10.211
 2591TIP3   OH229187   1.012   6.829  11.479
 2591TIP3    H129188   0.988   6.786  11.562
 2591TIP3    H229189   0.999   6.923  11.496
 2592TIP3   OH229190   1.325   6.287  10.351
 2592TIP3    H129191   1.415   6.260  10.381
 2592TIP3    H229192   1.342   6.354  10.285
 2593TIP3   OH229193   0.382   6.740  10.937
 2593TIP3    H129194   0.450   6.733  10.868
 2593TIP3    H229195   0.392   6.656  10.985
 2594TIP3   OH229196   0.079   6.578  11.465
 2594TIP3    H129197   0.105   6.535  11.549
 2594TIP3    H229198   0.020   6.514  11.423
 2595TIP3   OH229199   0.783   6.538  11.682
 2595TIP3    H129200   0.751   6.505  11.597
 2595TIP3    H229201   0.874   6.502  11.683
 2596TIP3   OH229202   1.249   7.081  11.469
 2596TIP3    H129203   1.154   7.084  11.454
 2596TIP3    H229204   1.249   7.092  11.568
 2597TIP3   OH229205   1.805   6.294  10.322
 2597TIP3    H129206   1.768   6.253  10.243
 2597TIP3    H229207   1.832   6.382  10.287
 2598TIP3   OH229208   1.822   6.875  11.597
 2598TIP3    H129209   1.729   6.894  11.566
 2598TIP3    H229210   1.871   6.867  11.513
 2599TIP3   OH229211   1.369   6.655  11.063
 2599TIP3    H129212   1.275   6.632  11.056
 2599TIP3    H229213   1.412   6.577  11.023
 2600TIP3   OH229214   0.621   7.084  10.669
 2600TIP3    H129215   0.670   7.166  10.656
 2600TIP3    H229216   0.530   7.107  10.650
 2601TIP3   OH229217   0.767   6.851  10.638
 2601TIP3    H129218   0.733   6.943  10.638
 2601TIP3    H229219   0.689   6.804  10.672
 2602TIP3   OH229220   0.838   7.239  11.239
 2602TIP3    H129221   0.852   7.334  11.232
 2602TIP3    H229222   0.869   7.223  11.329
 2603TIP3   OH229223   1.154   6.869  11.228
 2603TIP3    H129224   1.128   6.851  11.321
 2603TIP3    H229225   1.225   6.802  11.217
 2604TIP3   OH229226   0.247   6.055  11.417
 2604TIP3    H129227   0.158   6.092  11.425
 2604TIP3    H229228   0.236   5.970  11.465
 2605TIP3   OH229229   0.233   7.233  11.255
 2605TIP3    H129230   0.236   7.138  11.265
 2605TIP3    H229231   0.226   7.264  11.346
 2606TIP3   OH229232   0.688   7.037  10.231
 2606TIP3    H129233   0.704   6.980  10.308
 2606TIP3    H229234   0.698   7.125  10.268
 2607TIP3   OH229235   1.120   6.032  11.317
 2607TIP3    H129236   1.192   6.037  11.380
 2607TIP3    H229237   1.083   5.944  11.335
 2608TIP3   OH229238   0.969   7.214  10.314
 2608TIP3    H129239   0.880   7.252  10.315
 2608TIP3    H229240   1.017   7.256  10.242
 2609TIP3   OH229241   0.971   6.265  11.426
 2609TIP3    H129242   0.979   6.321  11.505
 2609TIP3    H229243   1.039   6.197  11.433
 2610TIP3   OH229244   1.005   5.873  10.597
 2610TIP3    H129245   0.968   5.935  10.663
 2610TIP3    H229246   1.075   5.928  10.560
 2611TIP3   OH229247   0.698  -0.023  10.347
 2611TIP3    H129248   0.660   0.030  10.273
 2611TIP3    H229249   0.681   0.037  10.420
 2612TIP3   OH229250   1.590   6.049  11.510
 2612TIP3    H129251   1.498   6.083  11.498
 2612TIP3    H229252   1.621   6.052  11.418
 2613TIP3   OH229253   1.451   6.431  10.916
 2613TIP3    H129254   1.371   6.386  10.883
 2613TIP3    H229255   1.500   6.361  10.964
 2614TIP3   OH229256   0.311   5.768  10.958
 2614TIP3    H129257   0.289   5.772  10.863
 2614TIP3    H229258   0.266   5.685  10.984
 2615TIP3   OH229259   0.207   7.162  10.566
 2615TIP3    H129260   0.120   7.203  10.571
 2615TIP3    H229261   0.254   7.212  10.500
 2616TIP3   OH229262   0.620   7.287  11.885
 2616TIP3    H129263   0.706   7.247  11.902
 2616TIP3    H229264   0.613   7.273  11.788
 2617TIP3   OH229265   1.245   7.124  11.724
 2617TIP3    H129266   1.207   7.048  11.772
 2617TIP3    H229267   1.312   7.154  11.787
 2618TIP3   OH229268   1.446   7.192  10.001
 2618TIP3    H129269   1.492   7.154  10.072
 2618TIP3    H229270   1.505   7.260   9.959
 2619TIP3   OH229271   0.112   6.804  11.801
 2619TIP3    H129272   0.133   6.715  11.768
 2619TIP3    H229273   0.040   6.832  11.742
 2620TIP3   OH229274   0.789   6.803  11.739
 2620TIP3    H129275   0.752   6.833  11.653
 2620TIP3    H229276   0.794   6.705  11.729
 2621TIP3   OH229277   1.352   6.802  11.431
 2621TIP3    H129278   1.432   6.839  11.474
 2621TIP3    H229279   1.288   6.850  11.486
 2622TIP3   OH229280   0.201   6.528  11.739
 2622TIP3    H129281   0.248   6.443  11.730
 2622TIP3    H229282   0.183   6.527  11.834
 2623TIP3   OH229283   0.676   6.636  10.244
 2623TIP3    H129284   0.623   6.590  10.309
 2623TIP3    H229285   0.699   6.572  10.176
 2624TIP3   OH229286   0.597   6.421  11.475
 2624TIP3    H129287   0.536   6.492  11.502
 2624TIP3    H229288   0.636   6.458  11.394
 2625TIP3   OH229289   1.105   6.678  11.809
 2625TIP3    H129290   1.202   6.683  11.797
 2625TIP3    H229291   1.090   6.601  11.865
 2626TIP3   OH229292   0.640   6.159  11.581
 2626TIP3    H129293   0.649   6.088  11.515
 2626TIP3    H229294   0.630   6.240  11.526
 2627TIP3   OH229295   0.679   5.997  11.337
 2627TIP3    H129296   0.729   6.043  11.265
 2627TIP3    H229297   0.589   5.989  11.297
 2628TIP3   OH229298   0.833   6.546  11.362
 2628TIP3    H129299   0.907   6.529  11.303
 2628TIP3    H229300   0.797   6.630  11.328
 2629TIP3   OH229301   1.269   6.319  11.858
 2629TIP3    H129302   1.294   6.226  11.847
 2629TIP3    H229303   1.355   6.366  11.858
 2630TIP3   OH229304   1.403   6.538  11.642
 2630TIP3    H129305   1.365   6.624  11.613
 2630TIP3    H229306   1.491   6.577  11.661
 2631TIP3   OH229307   0.480   6.286  11.771
 2631TIP3    H129308   0.405   6.225  11.756
 2631TIP3    H229309   0.547   6.247  11.712
 2632TIP3   OH229310   0.756   5.741  11.373
 2632TIP3    H129311   0.738   5.837  11.363
 2632TIP3    H229312   0.680   5.704  11.324
 2633TIP3   OH229313   0.883   6.174  11.737
 2633TIP3    H129314   0.853   6.149  11.827
 2633TIP3    H229315   0.804   6.151  11.684
 2634TIP3   OH229316   1.158   6.093  11.648
 2634TIP3    H129317   1.061   6.094  11.658
 2634TIP3    H229318   1.182   6.025  11.714
 2635TIP3   OH229319   1.321   5.950  11.839
 2635TIP3    H129320   1.304   5.853  11.839
 2635TIP3    H229321   1.286   5.978  11.925
 2636TIP3   OH229322   0.306   6.075  11.752
 2636TIP3    H129323   0.317   6.002  11.689
 2636TIP3    H229324   0.285   6.029  11.835
 2637TIP3   OH229325   0.774   5.674  11.640
 2637TIP3    H129326   0.849   5.611  11.645
 2637TIP3    H229327   0.769   5.693  11.545
 2638TIP3   OH229328   0.734   5.838  11.845
 2638TIP3    H129329   0.791   5.799  11.774
 2638TIP3    H229330   0.749   5.934  11.834
 2639TIP3   OH229331   1.642   6.956  11.867
 2639TIP3    H129332   1.546   6.946  11.887
 2639TIP3    H229333   1.671   7.039  11.911
 2640TIP3   OH229334   1.800   6.595  10.589
 2640TIP3    H129335   1.726   6.543  10.627
 2640TIP3    H229336   1.860   6.605  10.666
 2641TIP3   OH229337   1.774   6.863  11.088
 2641TIP3    H129338   1.857   6.825  11.054
 2641TIP3    H229339   1.793   6.959  11.080
 2642TIP3   OH229340   1.626   7.156  11.319
 2642TIP3    H129341   1.555   7.186  11.378
 2642TIP3    H229342   1.574   7.114  11.247
 2643TIP3   OH229343   1.826   6.579  10.230
 2643TIP3    H129344   1.772   6.615  10.160
 2643TIP3    H229345   1.824   6.643  10.302
 2644TIP3   OH229346   1.580   6.442  10.647
 2644TIP3    H129347   1.565   6.346  10.645
 2644TIP3    H229348   1.549   6.464  10.737
 2645TIP3   OH229349   0.084   6.649  11.047
 2645TIP3    H129350   0.104   6.644  10.951
 2645TIP3    H229351   0.172   6.637  11.088
 2646TIP3   OH229352   1.670   6.635  11.613
 2646TIP3    H129353   1.731   6.562  11.632
 2646TIP3    H229354   1.725   6.715  11.620
 2647TIP3   OH229355   1.821   6.425  11.683
 2647TIP3    H129356   1.731   6.388  11.667
 2647TIP3    H229357   1.875   6.345  11.674
 2648TIP3   OH229358   1.550   6.197  10.495
 2648TIP3    H129359   1.578   6.104  10.506
 2648TIP3    H229360   1.630   6.238  10.458
 2649TIP3   OH229361   1.613   6.254  11.039
 2649TIP3    H129362   1.709   6.277  11.037
 2649TIP3    H229363   1.594   6.268  11.133
 2650TIP3   OH229364   1.620   6.327  11.318
 2650TIP3    H129365   1.531   6.356  11.349
 2650TIP3    H229366   1.663   6.413  11.295
 2651TIP3   OH229367   0.071   6.167  11.668
 2651TIP3    H129368   0.160   6.149  11.702
 2651TIP3    H229369   0.014   6.099  11.710
 2652TIP3   OH229370   1.847   5.733  11.851
 2652TIP3    H129371   1.882   5.667  11.789
 2652TIP3    H229372   1.856   5.814  11.797
 2653TIP3   OH229373   1.614   5.930  10.497
 2653TIP3    H129374   1.636   5.885  10.580
 2653TIP3    H229375   1.555   5.864  10.453
 2654TIP3   OH229376   0.168   6.004  10.950
 2654TIP3    H129377   0.214   5.926  10.984
 2654TIP3    H229378   0.218   6.076  10.993
 2655TIP3   OH229379   0.050   6.385  11.094
 2655TIP3    H129380   0.054   6.342  11.006
 2655TIP3    H229381   0.058   6.476  11.066
 2656TIP3   OH229382   1.799   5.942  11.686
 2656TIP3    H129383   1.705   5.970  11.680
 2656TIP3    H229384   1.802   5.887  11.606
 2657TIP3   OH229385   0.081   5.943  10.437
 2657TIP3    H129386  -0.016   5.950  10.439
 2657TIP3    H229387   0.097   6.008  10.365
 2658TIP3   OH229388   7.355   5.797  11.317
 2658TIP3    H129389   7.276   5.776  11.369
 2658TIP3    H229390   7.307   5.849  11.250
 2659TIP3   OH229391   0.242   7.128  11.712
 2659TIP3    H129392   0.156   7.141  11.672
 2659TIP3    H229393   0.220   7.110  11.804
 2660TIP3   OH229394   0.547   7.223  11.350
 2660TIP3    H129395   0.496   7.296  11.309
 2660TIP3    H229396   0.630   7.219  11.301
 2661TIP3   OH229397   1.700   5.752  11.472
 2661TIP3    H129398   1.618   5.782  11.430
 2661TIP3    H229399   1.717   5.669  11.420
 2662TIP3   OH229400   0.459   7.254  10.877
 2662TIP3    H129401   0.417   7.180  10.924
 2662TIP3    H229402   0.516   7.291  10.946
 2663TIP3   OH229403   1.039   5.896  10.897
 2663TIP3    H129404   0.972   5.831  10.927
 2663TIP3    H229405   1.096   5.841  10.843
 2664TIP3   OH229406   1.552   5.698  10.905
 2664TIP3    H129407   1.614   5.759  10.857
 2664TIP3    H229408   1.464   5.735  10.883
 2665TIP3   OH229409   1.720   5.824  10.735
 2665TIP3    H129410   1.788   5.767  10.694
 2665TIP3    H229411   1.769   5.908  10.747
 2666TIP3   OH229412   0.277   5.756  10.688
 2666TIP3    H129413   0.197   5.735  10.636
 2666TIP3    H229414   0.326   5.672  10.679
 2667TIP3   OH229415   0.726   5.748  10.660
 2667TIP3    H129416   0.813   5.790  10.656
 2667TIP3    H229417   0.721   5.728  10.754
 2668TIP3   OH229418   1.293   5.752  10.828
 2668TIP3    H129419   1.290   5.764  10.733
 2668TIP3    H229420   1.256   5.661  10.841
 2669TIP3   OH229421   1.420   5.753  10.411
 2669TIP3    H129422   1.357   5.813  10.368
 2669TIP3    H229423   1.376   5.668  10.409
 2670TIP3   OH229424   0.260   5.813  11.634
 2670TIP3    H129425   0.228   5.728  11.669
 2670TIP3    H229426   0.353   5.807  11.667
 2671TIP3   OH229427   0.463   5.748  11.793
 2671TIP3    H129428   0.555   5.720  11.773
 2671TIP3    H229429   0.427   5.667  11.832
 2672TIP3   OH229430   1.308   5.676  11.807
 2672TIP3    H129431   1.312   5.632  11.894
 2672TIP3    H229432   1.400   5.674  11.776
 2673TIP3   OH229433   1.612  -0.022  11.689
 2673TIP3    H129434   1.547  -0.040  11.619
 2673TIP3    H229435   1.619   0.074  11.688
 2674TIP3   OH229436   3.070   6.667  10.669
 2674TIP3    H129437   3.069   6.766  10.667
 2674TIP3    H229438   2.997   6.645  10.609
 2675TIP3   OH229439   2.956   6.596  11.020
 2675TIP3    H129440   2.955   6.531  11.092
 2675TIP3    H229441   2.921   6.546  10.945
 2676TIP3   OH229442   2.191   6.564  11.176
 2676TIP3    H129443   2.200   6.495  11.245
 2676TIP3    H229444   2.267   6.621  11.198
 2677TIP3   OH229445   3.320   6.891  10.850
 2677TIP3    H129446   3.284   6.818  10.900
 2677TIP3    H229447   3.330   6.961  10.917
 2678TIP3   OH229448   2.286   7.009  11.028
 2678TIP3    H129449   2.252   6.924  10.994
 2678TIP3    H229450   2.381   6.990  11.029
 2679TIP3   OH229451   1.948   6.367  10.573
 2679TIP3    H129452   1.904   6.454  10.569
 2679TIP3    H229453   1.892   6.312  10.517
 2680TIP3   OH229454   2.020   6.586  10.790
 2680TIP3    H129455   2.047   6.504  10.835
 2680TIP3    H229456   2.090   6.596  10.724
 2681TIP3   OH229457   2.791   6.834  11.067
 2681TIP3    H129458   2.827   6.773  11.001
 2681TIP3    H229459   2.873   6.854  11.117
 2682TIP3   OH229460   3.653   6.003  11.140
 2682TIP3    H129461   3.671   6.061  11.217
 2682TIP3    H229462   3.710   6.045  11.074
 2683TIP3   OH229463   3.111   6.283  11.099
 2683TIP3    H129464   3.127   6.187  11.100
 2683TIP3    H229465   3.100   6.297  11.003
 2684TIP3   OH229466   2.421   6.092  10.820
 2684TIP3    H129467   2.433   6.176  10.772
 2684TIP3    H229468   2.381   6.036  10.751
 2685TIP3   OH229469   3.195   6.102  10.658
 2685TIP3    H129470   3.260   6.068  10.724
 2685TIP3    H229471   3.254   6.157  10.604
 2686TIP3   OH229472   2.084   6.333  10.894
 2686TIP3    H129473   2.151   6.279  10.939
 2686TIP3    H229474   2.095   6.302  10.803
 2687TIP3   OH229475   2.599   6.489  10.830
 2687TIP3    H129476   2.668   6.431  10.865
 2687TIP3    H229477   2.550   6.425  10.774
 2688TIP3   OH229478   3.698   6.143  11.368
 2688TIP3    H129479   3.637   6.219  11.357
 2688TIP3    H229480   3.701   6.135  11.464
 2689TIP3   OH229481   2.313   5.982  11.224
 2689TIP3    H129482   2.285   6.040  11.150
 2689TIP3    H229483   2.245   6.005  11.293
 2690TIP3   OH229484   3.041   6.928  10.582
 2690TIP3    H129485   3.015   6.904  10.493
 2690TIP3    H229486   3.011   7.021  10.586
 2691TIP3   OH229487   2.566   6.745  11.250
 2691TIP3    H129488   2.494   6.809  11.271
 2691TIP3    H229489   2.636   6.805  11.220
 2692TIP3   OH229490   3.374   6.037  10.857
 2692TIP3    H129491   3.355   5.958  10.910
 2692TIP3    H229492   3.444   6.079  10.910
 2693TIP3   OH229493   2.270   6.167  11.028
 2693TIP3    H129494   2.333   6.236  11.059
 2693TIP3    H229495   2.321   6.127  10.954
 2694TIP3   OH229496   2.410   6.946  11.329
 2694TIP3    H129497   2.404   7.036  11.293
 2694TIP3    H229498   2.322   6.937  11.372
 2695TIP3   OH229499   3.376   7.076  11.088
 2695TIP3    H129500   3.279   7.086  11.103
 2695TIP3    H229501   3.407   7.165  11.065
 2696TIP3   OH229502   3.410   5.903  11.225
 2696TIP3    H129503   3.338   5.967  11.215
 2696TIP3    H229504   3.481   5.945  11.172
 2697TIP3   OH229505   2.706   5.716  10.970
 2697TIP3    H129506   2.693   5.619  10.964
 2697TIP3    H229507   2.620   5.746  11.003
 2698TIP3   OH229508   3.203   7.224  10.721
 2698TIP3    H129509   3.266   7.161  10.679
 2698TIP3    H229510   3.248   7.306  10.703
 2699TIP3   OH229511   3.326   7.039  10.593
 2699TIP3    H129512   3.299   6.969  10.533
 2699TIP3    H229513   3.332   6.992  10.679
 2700TIP3   OH229514   3.507   6.901  11.441
 2700TIP3    H129515   3.501   6.839  11.367
 2700TIP3    H229516   3.505   6.990  11.402
 2701TIP3   OH229517   2.941   6.598  10.423
 2701TIP3    H129518   2.863   6.643  10.386
 2701TIP3    H229519   3.004   6.607  10.351
 2702TIP3   OH229520   3.675   6.536  11.250
 2702TIP3    H129521   3.610   6.609  11.254
 2702TIP3    H229522   3.725   6.560  11.169
 2703TIP3   OH229523   3.279   6.617  10.514
 2703TIP3    H129524   3.206   6.640  10.576
 2703TIP3    H229525   3.329   6.550  10.565
 2704TIP3   OH229526   3.274   6.432  11.427
 2704TIP3    H129527   3.275   6.514  11.479
 2704TIP3    H229528   3.212   6.462  11.358
 2705TIP3   OH229529   2.440   6.682  10.707
 2705TIP3    H129530   2.413   6.644  10.620
 2705TIP3    H229531   2.504   6.614  10.738
 2706TIP3   OH229532   2.574   7.022  10.974
 2706TIP3    H129533   2.574   6.968  10.894
 2706TIP3    H229534   2.652   6.985  11.020
 2707TIP3   OH229535   2.475   6.557  11.073
 2707TIP3    H129536   2.530   6.566  10.992
 2707TIP3    H229537   2.515   6.623  11.133
 2708TIP3   OH229538   3.119   7.113  11.146
 2708TIP3    H129539   3.087   7.174  11.212
 2708TIP3    H229540   3.091   7.027  11.186
 2709TIP3   OH229541   2.569   6.998  11.542
 2709TIP3    H129542   2.530   7.075  11.589
 2709TIP3    H229543   2.503   6.977  11.471
 2710TIP3   OH229544   2.265   6.615  11.457
 2710TIP3    H129545   2.270   6.682  11.528
 2710TIP3    H229546   2.170   6.624  11.436
 2711TIP3   OH229547   2.936   7.206  10.623
 2711TIP3    H129548   2.984   7.232  10.703
 2711TIP3    H229549   2.883   7.284  10.605
 2712TIP3   OH229550   2.392   7.198  11.615
 2712TIP3    H129551   2.387   7.190  11.517
 2712TIP3    H229552   2.299   7.184  11.641
 2713TIP3   OH229553   2.337   6.584  10.474
 2713TIP3    H129554   2.319   6.659  10.415
 2713TIP3    H229555   2.276   6.517  10.441
 2714TIP3   OH229556   3.656   7.149  10.103
 2714TIP3    H129557   3.663   7.241  10.131
 2714TIP3    H229558   3.745   7.112  10.107
 2715TIP3   OH229559   1.949   6.827  11.356
 2715TIP3    H129560   1.903   6.818  11.271
 2715TIP3    H229561   1.956   6.733  11.379
 2716TIP3   OH229562   1.927   7.098  11.036
 2716TIP3    H129563   2.023   7.090  11.030
 2716TIP3    H229564   1.920   7.179  11.090
 2717TIP3   OH229565   3.747   7.170  11.612
 2717TIP3    H129566   3.734   7.075  11.598
 2717TIP3    H229567   3.657   7.196  11.642
 2718TIP3   OH229568   2.834   7.129  11.485
 2718TIP3    H129569   2.855   7.205  11.541
 2718TIP3    H229570   2.755   7.086  11.521
 2719TIP3   OH229571   3.463   6.317  11.651
 2719TIP3    H129572   3.415   6.362  11.579
 2719TIP3    H229573   3.461   6.225  11.620
 2720TIP3   OH229574   2.177   6.960  11.452
 2720TIP3    H129575   2.197   6.921  11.539
 2720TIP3    H229576   2.091   6.920  11.429
 2721TIP3   OH229577   2.445   5.805  11.044
 2721TIP3    H129578   2.354   5.793  11.010
 2721TIP3    H229579   2.432   5.888  11.094
 2722TIP3   OH229580   2.909   5.772  11.382
 2722TIP3    H129581   2.949   5.730  11.461
 2722TIP3    H229582   2.812   5.761  11.397
 2723TIP3   OH229583   3.237   6.156  11.469
 2723TIP3    H129584   3.183   6.136  11.549
 2723TIP3    H229585   3.220   6.249  11.449
 2724TIP3   OH229586   2.867   6.031  10.114
 2724TIP3    H129587   2.842   6.024  10.209
 2724TIP3    H229588   2.850   5.940  10.088
 2725TIP3   OH229589   2.456   6.303  11.173
 2725TIP3    H129590   2.381   6.302  11.236
 2725TIP3    H229591   2.450   6.394  11.134
 2726TIP3   OH229592   2.451   6.312  10.660
 2726TIP3    H129593   2.357   6.290  10.643
 2726TIP3    H229594   2.492   6.292  10.575
 2727TIP3   OH229595   3.003   6.363  10.535
 2727TIP3    H129596   2.960   6.445  10.501
 2727TIP3    H229597   3.072   6.352  10.469
 2728TIP3   OH229598   2.909   6.386  11.679
 2728TIP3    H129599   2.856   6.308  11.710
 2728TIP3    H229600   2.992   6.374  11.726
 2729TIP3   OH229601   3.107   6.315  10.818
 2729TIP3    H129602   3.077   6.370  10.744
 2729TIP3    H229603   3.115   6.229  10.773
 2730TIP3   OH229604   2.217   6.328  11.339
 2730TIP3    H129605   2.226   6.369  11.427
 2730TIP3    H229606   2.173   6.244  11.361
 2731TIP3   OH229607   1.883   6.037  10.737
 2731TIP3    H129608   1.951   6.035  10.808
 2731TIP3    H229609   1.929   6.001  10.659
 2732TIP3   OH229610   2.013   6.121  10.284
 2732TIP3    H129611   2.057   6.169  10.211
 2732TIP3    H229612   1.939   6.181  10.304
 2733TIP3   OH229613   3.026   6.472  11.275
 2733TIP3    H129614   3.064   6.404  11.216
 2733TIP3    H229615   2.980   6.419  11.342
 2734TIP3   OH229616   2.707   6.071  10.759
 2734TIP3    H129617   2.614   6.071  10.789
 2734TIP3    H229618   2.755   6.053  10.841
 2735TIP3   OH229619   2.187   6.225  10.642
 2735TIP3    H129620   2.098   6.240  10.603
 2735TIP3    H229621   2.213   6.140  10.602
 2736TIP3   OH229622   3.147   5.993  11.083
 2736TIP3    H129623   3.078   5.999  11.153
 2736TIP3    H229624   3.096   5.968  11.004
 2737TIP3   OH229625   2.235   6.809  11.671
 2737TIP3    H129626   2.307   6.829  11.734
 2737TIP3    H229627   2.158   6.811  11.732
 2738TIP3   OH229628   2.836   6.346  10.949
 2738TIP3    H129629   2.895   6.293  10.895
 2738TIP3    H229630   2.820   6.291  11.027
 2739TIP3   OH229631   2.336   5.963  10.588
 2739TIP3    H129632   2.305   5.871  10.593
 2739TIP3    H229633   2.416   5.952  10.536
 2740TIP3   OH229634   2.699   6.178  11.190
 2740TIP3    H129635   2.616   6.230  11.198
 2740TIP3    H229636   2.754   6.214  11.261
 2741TIP3   OH229637   3.478   6.718  11.236
 2741TIP3    H129638   3.534   6.771  11.176
 2741TIP3    H229639   3.390   6.728  11.195
 2742TIP3   OH229640   3.147   6.091  10.178
 2742TIP3    H129641   3.051   6.092  10.162
 2742TIP3    H229642   3.169   6.178  10.209
 2743TIP3   OH229643   2.903   6.830  11.481
 2743TIP3    H129644   2.874   6.787  11.562
 2743TIP3    H229645   2.884   6.923  11.495
 2744TIP3   OH229646   2.269   6.739  10.940
 2744TIP3    H129647   2.338   6.733  10.871
 2744TIP3    H229648   2.275   6.654  10.985
 2745TIP3   OH229649   1.967   6.582  11.466
 2745TIP3    H129650   1.984   6.537  11.550
 2745TIP3    H229651   1.905   6.520  11.421
 2746TIP3   OH229652   2.669   6.537  11.683
 2746TIP3    H129653   2.637   6.505  11.597
 2746TIP3    H229654   2.761   6.504  11.683
 2747TIP3   OH229655   3.101   7.117  11.447
 2747TIP3    H129656   3.012   7.082  11.454
 2747TIP3    H229657   3.134   7.097  11.538
 2748TIP3   OH229658   3.701   6.290  10.318
 2748TIP3    H129659   3.648   6.257  10.246
 2748TIP3    H229660   3.713   6.384  10.290
 2749TIP3   OH229661   3.708   6.872  11.600
 2749TIP3    H129662   3.617   6.896  11.565
 2749TIP3    H229663   3.756   6.868  11.515
 2750TIP3   OH229664   3.546   7.149  10.375
 2750TIP3    H129665   3.492   7.072  10.393
 2750TIP3    H229666   3.557   7.150  10.278
 2751TIP3   OH229667   3.254   6.653  11.070
 2751TIP3    H129668   3.160   6.632  11.057
 2751TIP3    H229669   3.297   6.578  11.025
 2752TIP3   OH229670   2.508   7.082  10.666
 2752TIP3    H129671   2.556   7.165  10.661
 2752TIP3    H229672   2.416   7.108  10.651
 2753TIP3   OH229673   2.081   6.560  10.160
 2753TIP3    H129674   2.142   6.635  10.170
 2753TIP3    H229675   1.993   6.601  10.157
 2754TIP3   OH229676   2.654   6.854  10.637
 2754TIP3    H129677   2.617   6.944  10.636
 2754TIP3    H229678   2.577   6.803  10.668
 2755TIP3   OH229679   2.722   7.239  11.239
 2755TIP3    H129680   2.738   7.334  11.231
 2755TIP3    H229681   2.755   7.223  11.330
 2756TIP3   OH229682   3.041   6.868  11.229
 2756TIP3    H129683   3.013   6.851  11.321
 2756TIP3    H229684   3.111   6.801  11.217
 2757TIP3   OH229685   3.273   6.974  10.148
 2757TIP3    H129686   3.309   6.926  10.225
 2757TIP3    H229687   3.179   6.956  10.148
 2758TIP3   OH229688   2.132   6.054  11.420
 2758TIP3    H129689   2.042   6.089  11.418
 2758TIP3    H229690   2.121   5.970  11.466
 2759TIP3   OH229691   3.358   6.839  10.372
 2759TIP3    H129692   3.334   6.758  10.420
 2759TIP3    H229693   3.454   6.845  10.386
 2760TIP3   OH229694   2.094   7.228  11.261
 2760TIP3    H129695   2.123   7.137  11.266
 2760TIP3    H229696   2.114   7.263  11.349
 2761TIP3   OH229697   2.216   6.769  10.277
 2761TIP3    H129698   2.158   6.801  10.347
 2761TIP3    H229699   2.280   6.838  10.259
 2762TIP3   OH229700   3.006   6.031  11.316
 2762TIP3    H129701   3.077   6.037  11.381
 2762TIP3    H229702   2.967   5.944  11.337
 2763TIP3   OH229703   3.075   5.995  10.426
 2763TIP3    H129704   3.106   6.034  10.342
 2763TIP3    H229705   3.138   6.030  10.490
 2764TIP3   OH229706   2.804   6.159  10.505
 2764TIP3    H129707   2.878   6.223  10.507
 2764TIP3    H229708   2.776   6.153  10.598
 2765TIP3   OH229709   2.858   6.265  11.426
 2765TIP3    H129710   2.867   6.323  11.505
 2765TIP3    H229711   2.925   6.196  11.436
 2766TIP3   OH229712   2.888   5.870  10.592
 2766TIP3    H129713   2.856   5.934  10.658
 2766TIP3    H229714   2.960   5.924  10.550
 2767TIP3   OH229715   2.457   5.979  10.272
 2767TIP3    H129716   2.448   6.071  10.300
 2767TIP3    H229717   2.549   5.958  10.294
 2768TIP3   OH229718   3.476   6.051  11.511
 2768TIP3    H129719   3.383   6.084  11.499
 2768TIP3    H229720   3.506   6.051  11.419
 2769TIP3   OH229721   3.337   6.432  10.915
 2769TIP3    H129722   3.256   6.388  10.883
 2769TIP3    H229723   3.385   6.362  10.964
 2770TIP3   OH229724   2.194   5.769  10.956
 2770TIP3    H129725   2.172   5.771  10.861
 2770TIP3    H229726   2.152   5.685  10.985
 2771TIP3   OH229727   2.086   7.160  10.565
 2771TIP3    H129728   2.005   7.208  10.575
 2771TIP3    H229729   2.141   7.212  10.506
 2772TIP3   OH229730   2.505   7.287  11.884
 2772TIP3    H129731   2.590   7.247  11.902
 2772TIP3    H229732   2.500   7.272  11.788
 2773TIP3   OH229733   3.095   7.149  11.756
 2773TIP3    H129734   3.092   7.052  11.764
 2773TIP3    H229735   3.190   7.156  11.778
 2774TIP3   OH229736   2.005   6.804  11.799
 2774TIP3    H129737   2.015   6.712  11.771
 2774TIP3    H229738   1.927   6.832  11.746
 2775TIP3   OH229739   2.677   6.804  11.737
 2775TIP3    H129740   2.637   6.833  11.653
 2775TIP3    H229741   2.680   6.705  11.729
 2776TIP3   OH229742   3.240   6.776  11.454
 2776TIP3    H129743   3.316   6.835  11.474
 2776TIP3    H229744   3.175   6.841  11.485
 2777TIP3   OH229745   2.094   6.529  11.740
 2777TIP3    H129746   2.134   6.442  11.730
 2777TIP3    H229747   2.068   6.528  11.833
 2778TIP3   OH229748   2.482   6.422  11.475
 2778TIP3    H129749   2.422   6.494  11.501
 2778TIP3    H229750   2.522   6.458  11.394
 2779TIP3   OH229751   2.990   6.677  11.808
 2779TIP3    H129752   3.087   6.677  11.800
 2779TIP3    H229753   2.974   6.601  11.866
 2780TIP3   OH229754   2.523   6.159  11.581
 2780TIP3    H129755   2.535   6.088  11.515
 2780TIP3    H229756   2.518   6.240  11.526
 2781TIP3   OH229757   2.563   5.997  11.336
 2781TIP3    H129758   2.614   6.044  11.265
 2781TIP3    H229759   2.474   5.989  11.296
 2782TIP3   OH229760   2.717   6.546  11.360
 2782TIP3    H129761   2.793   6.529  11.303
 2782TIP3    H229762   2.682   6.630  11.327
 2783TIP3   OH229763   3.157   6.322  11.855
 2783TIP3    H129764   3.179   6.228  11.850
 2783TIP3    H229765   3.243   6.364  11.862
 2784TIP3   OH229766   3.291   6.600  11.673
 2784TIP3    H129767   3.266   6.674  11.614
 2784TIP3    H229768   3.387   6.599  11.655
 2785TIP3   OH229769   2.369   6.284  11.773
 2785TIP3    H129770   2.292   6.226  11.756
 2785TIP3    H229771   2.435   6.247  11.711
 2786TIP3   OH229772   2.642   5.741  11.375
 2786TIP3    H129773   2.624   5.837  11.366
 2786TIP3    H229774   2.567   5.704  11.325
 2787TIP3   OH229775   2.769   6.174  11.738
 2787TIP3    H129776   2.739   6.150  11.828
 2787TIP3    H229777   2.691   6.153  11.684
 2788TIP3   OH229778   3.041   6.088  11.646
 2788TIP3    H129779   2.945   6.094  11.658
 2788TIP3    H229780   3.068   6.025  11.716
 2789TIP3   OH229781   3.200   5.948  11.833
 2789TIP3    H129782   3.195   5.851  11.841
 2789TIP3    H229783   3.176   5.981  11.923
 2790TIP3   OH229784   2.177   6.078  11.748
 2790TIP3    H129785   2.202   6.004  11.690
 2790TIP3    H229786   2.168   6.033  11.835
 2791TIP3   OH229787   2.664   5.680  11.645
 2791TIP3    H129788   2.732   5.610  11.643
 2791TIP3    H229789   2.652   5.695  11.549
 2792TIP3   OH229790   2.700   5.841  11.857
 2792TIP3    H129791   2.682   5.791  11.773
 2792TIP3    H229792   2.640   5.918  11.847
 2793TIP3   OH229793   3.521   6.950  11.865
 2793TIP3    H129794   3.426   6.951  11.889
 2793TIP3    H229795   3.555   7.034  11.902
 2794TIP3   OH229796   3.653   6.781  10.401
 2794TIP3    H129797   3.733   6.829  10.428
 2794TIP3    H229798   3.648   6.714  10.472
 2795TIP3   OH229799   3.689   6.592  10.590
 2795TIP3    H129800   3.612   6.545  10.629
 2795TIP3    H229801   3.746   6.610  10.667
 2796TIP3   OH229802   3.662   6.863  11.097
 2796TIP3    H129803   3.740   6.828  11.050
 2796TIP3    H229804   3.676   6.958  11.073
 2797TIP3   OH229805   3.511   7.156  11.320
 2797TIP3    H129806   3.441   7.186  11.379
 2797TIP3    H229807   3.461   7.115  11.245
 2798TIP3   OH229808   3.715   6.577  10.231
 2798TIP3    H129809   3.660   6.612  10.159
 2798TIP3    H229810   3.707   6.649  10.297
 2799TIP3   OH229811   3.467   6.441  10.648
 2799TIP3    H129812   3.453   6.346  10.644
 2799TIP3    H229813   3.433   6.463  10.736
 2800TIP3   OH229814   1.968   6.651  11.054
 2800TIP3    H129815   1.985   6.642  10.957
 2800TIP3    H229816   2.057   6.632  11.089
 2801TIP3   OH229817   3.554   6.637  11.617
 2801TIP3    H129818   3.616   6.563  11.631
 2801TIP3    H229819   3.611   6.716  11.617
 2802TIP3   OH229820   3.704   6.426  11.683
 2802TIP3    H129821   3.616   6.386  11.667
 2802TIP3    H229822   3.761   6.348  11.675
 2803TIP3   OH229823   3.434   6.197  10.496
 2803TIP3    H129824   3.466   6.105  10.505
 2803TIP3    H229825   3.512   6.240  10.457
 2804TIP3   OH229826   3.498   6.254  11.039
 2804TIP3    H129827   3.594   6.277  11.037
 2804TIP3    H229828   3.479   6.268  11.133
 2805TIP3   OH229829   3.505   6.326  11.318
 2805TIP3    H129830   3.417   6.356  11.348
 2805TIP3    H229831   3.549   6.412  11.294
 2806TIP3   OH229832   1.930   6.179  11.670
 2806TIP3    H129833   2.023   6.159  11.689
 2806TIP3    H229834   1.883   6.098  11.698
 2807TIP3   OH229835   3.735   5.733  11.850
 2807TIP3    H129836   3.768   5.666  11.787
 2807TIP3    H229837   3.743   5.815  11.796
 2808TIP3   OH229838   3.499   5.929  10.498
 2808TIP3    H129839   3.523   5.884  10.582
 2808TIP3    H229840   3.441   5.864  10.454
 2809TIP3   OH229841   2.050   6.009  10.955
 2809TIP3    H129842   2.096   5.927  10.982
 2809TIP3    H229843   2.105   6.079  10.993
 2810TIP3   OH229844   1.878   6.310  11.058
 2810TIP3    H129845   1.934   6.284  10.982
 2810TIP3    H229846   1.925   6.390  11.085
 2811TIP3   OH229847   3.684   5.943  11.686
 2811TIP3    H129848   3.590   5.970  11.681
 2811TIP3    H229849   3.687   5.888  11.607
 2812TIP3   OH229850   1.915   5.938  10.469
 2812TIP3    H129851   1.820   5.950  10.451
 2812TIP3    H229852   1.956   5.981  10.392
 2813TIP3   OH229853   1.909   5.800  11.295
 2813TIP3    H129854   1.843   5.781  11.363
 2813TIP3    H229855   1.864   5.868  11.241
 2814TIP3   OH229856   2.132   7.133  11.715
 2814TIP3    H129857   2.047   7.135  11.667
 2814TIP3    H229858   2.106   7.106  11.803
 2815TIP3   OH229859   2.426   7.220  11.346
 2815TIP3    H129860   2.383   7.298  11.309
 2815TIP3    H229861   2.513   7.218  11.303
 2816TIP3   OH229862   3.586   5.752  11.472
 2816TIP3    H129863   3.503   5.782  11.430
 2816TIP3    H229864   3.603   5.669  11.420
 2817TIP3   OH229865   2.341   7.257  10.877
 2817TIP3    H129866   2.305   7.179  10.922
 2817TIP3    H229867   2.402   7.291  10.945
 2818TIP3   OH229868   2.925   5.894  10.901
 2818TIP3    H129869   2.857   5.830  10.928
 2818TIP3    H229870   2.980   5.841  10.842
 2819TIP3   OH229871   3.438   5.699  10.906
 2819TIP3    H129872   3.500   5.759  10.857
 2819TIP3    H229873   3.350   5.735  10.883
 2820TIP3   OH229874   3.605   5.824  10.736
 2820TIP3    H129875   3.673   5.766  10.693
 2820TIP3    H229876   3.657   5.907  10.744
 2821TIP3   OH229877   2.166   5.757  10.680
 2821TIP3    H129878   2.080   5.738  10.635
 2821TIP3    H229879   2.205   5.670  10.685
 2822TIP3   OH229880   2.607   5.753  10.664
 2822TIP3    H129881   2.700   5.783  10.655
 2822TIP3    H229882   2.606   5.729  10.756
 2823TIP3   OH229883   3.181   5.751  10.826
 2823TIP3    H129884   3.175   5.763  10.730
 2823TIP3    H229885   3.142   5.661  10.839
 2824TIP3   OH229886   3.307   5.757  10.400
 2824TIP3    H129887   3.234   5.813  10.373
 2824TIP3    H229888   3.265   5.670  10.414
 2825TIP3   OH229889   2.228   5.925  10.107
 2825TIP3    H129890   2.276   5.866  10.049
 2825TIP3    H229891   2.295   5.962  10.166
 2826TIP3   OH229892   2.725   5.953  10.349
 2826TIP3    H129893   2.751   5.895  10.422
 2826TIP3    H229894   2.734   6.041  10.394
 2827TIP3   OH229895   2.151   5.811  11.630
 2827TIP3    H129896   2.112   5.732  11.670
 2827TIP3    H229897   2.242   5.807  11.668
 2828TIP3   OH229898   2.351   5.749  11.794
 2828TIP3    H129899   2.440   5.716  11.773
 2828TIP3    H229900   2.313   5.669  11.834
 2829TIP3   OH229901   3.191   5.677  11.808
 2829TIP3    H129902   3.200   5.631  11.894
 2829TIP3    H229903   3.283   5.674  11.774
 2830TIP3   OH229904   3.497  -0.024  11.688
 2830TIP3    H129905   3.431  -0.043  11.620
 2830TIP3    H229906   3.505   0.072  11.687
 2831TIP3   OH229907   4.955   6.668  10.672
 2831TIP3    H129908   4.956   6.767  10.666
 2831TIP3    H229909   4.884   6.647  10.611
 2832TIP3   OH229910   4.842   6.596  11.021
 2832TIP3    H129911   4.841   6.531  11.092
 2832TIP3    H229912   4.807   6.546  10.945
 2833TIP3   OH229913   4.078   6.564  11.176
 2833TIP3    H129914   4.086   6.495  11.245
 2833TIP3    H229915   4.152   6.621  11.198
 2834TIP3   OH229916   5.210   6.891  10.849
 2834TIP3    H129917   5.169   6.818  10.898
 2834TIP3    H229918   5.215   6.962  10.915
 2835TIP3   OH229919   4.173   7.009  11.033
 2835TIP3    H129920   4.137   6.927  10.994
 2835TIP3    H229921   4.268   6.989  11.028
 2836TIP3   OH229922   3.836   6.366  10.571
 2836TIP3    H129923   3.790   6.453  10.571
 2836TIP3    H229924   3.776   6.312  10.519
 2837TIP3   OH229925   3.904   6.584  10.789
 2837TIP3    H129926   3.934   6.504  10.835
 2837TIP3    H229927   3.974   6.601  10.724
 2838TIP3   OH229928   4.678   6.834  11.069
 2838TIP3    H129929   4.713   6.774  11.001
 2838TIP3    H229930   4.759   6.854  11.118
 2839TIP3   OH229931   5.539   6.003  11.140
 2839TIP3    H129932   5.557   6.061  11.217
 2839TIP3    H229933   5.596   6.045  11.074
 2840TIP3   OH229934   4.996   6.283  11.099
 2840TIP3    H129935   5.013   6.187  11.100
 2840TIP3    H229936   4.986   6.297  11.003
 2841TIP3   OH229937   4.307   6.092  10.820
 2841TIP3    H129938   4.318   6.176  10.772
 2841TIP3    H229939   4.266   6.036  10.752
 2842TIP3   OH229940   5.082   6.099  10.657
 2842TIP3    H129941   5.147   6.070  10.725
 2842TIP3    H229942   5.137   6.158  10.603
 2843TIP3   OH229943   3.970   6.334  10.895
 2843TIP3    H129944   4.037   6.279  10.940
 2843TIP3    H229945   3.980   6.302  10.804
 2844TIP3   OH229946   4.485   6.488  10.827
 2844TIP3    H129947   4.554   6.431  10.865
 2844TIP3    H229948   4.435   6.423  10.773
 2845TIP3   OH229949   5.583   6.143  11.368
 2845TIP3    H129950   5.523   6.219  11.357
 2845TIP3    H229951   5.586   6.135  11.464
 2846TIP3   OH229952   4.199   5.982  11.225
 2846TIP3    H129953   4.170   6.039  11.150
 2846TIP3    H229954   4.131   6.005  11.293
 2847TIP3   OH229955   4.930   6.929  10.581
 2847TIP3    H129956   4.900   6.905  10.493
 2847TIP3    H229957   4.896   7.021  10.589
 2848TIP3   OH229958   4.449   6.744  11.250
 2848TIP3    H129959   4.379   6.809  11.271
 2848TIP3    H229960   4.520   6.804  11.220
 2849TIP3   OH229961   5.261   6.035  10.856
 2849TIP3    H129962   5.240   5.958  10.910
 2849TIP3    H229963   5.329   6.079  10.910
 2850TIP3   OH229964   4.155   6.168  11.028
 2850TIP3    H129965   4.218   6.237  11.060
 2850TIP3    H229966   4.207   6.127  10.954
 2851TIP3   OH229967   4.295   6.946  11.329
 2851TIP3    H129968   4.289   7.037  11.294
 2851TIP3    H229969   4.207   6.938  11.373
 2852TIP3   OH229970   3.904   6.911  10.405
 2852TIP3    H129971   3.872   6.945  10.321
 2852TIP3    H229972   3.903   6.990  10.465
 2853TIP3   OH229973   5.264   7.077  11.091
 2853TIP3    H129974   5.166   7.085  11.100
 2853TIP3    H229975   5.292   7.166  11.064
 2854TIP3   OH229976   5.296   5.903  11.224
 2854TIP3    H129977   5.223   5.967  11.215
 2854TIP3    H229978   5.367   5.945  11.172
 2855TIP3   OH229979   4.592   5.715  10.971
 2855TIP3    H129980   4.577   5.619  10.964
 2855TIP3    H229981   4.504   5.746  11.002
 2856TIP3   OH229982   5.093   7.221  10.727
 2856TIP3    H129983   5.150   7.161  10.676
 2856TIP3    H229984   5.131   7.305  10.702
 2857TIP3   OH229985   5.220   7.036  10.589
 2857TIP3    H129986   5.176   6.970  10.534
 2857TIP3    H229987   5.214   6.995  10.678
 2858TIP3   OH229988   5.373   6.909  11.447
 2858TIP3    H129989   5.386   6.842  11.377
 2858TIP3    H229990   5.395   6.992  11.400
 2859TIP3   OH229991   4.827   6.600  10.426
 2859TIP3    H129992   4.752   6.649  10.389
 2859TIP3    H229993   4.889   6.603  10.350
 2860TIP3   OH229994   5.561   6.537  11.250
 2860TIP3    H129995   5.495   6.609  11.254
 2860TIP3    H229996   5.611   6.560  11.169
 2861TIP3   OH229997   5.169   6.622  10.519
 2861TIP3    H129998   5.092   6.640  10.576
 2861TIP3    H229999   5.213   6.549  10.566
 2862TIP3   OH230000   5.160   6.432  11.427
 2862TIP3    H130001   5.160   6.514  11.479
 2862TIP3    H230002   5.097   6.461  11.357
 2863TIP3   OH230003   4.328   6.682  10.707
 2863TIP3    H130004   4.297   6.644  10.622
 2863TIP3    H230005   4.390   6.613  10.740
 2864TIP3   OH230006   4.460   7.022  10.975
 2864TIP3    H130007   4.460   6.968  10.895
 2864TIP3    H230008   4.537   6.985  11.020
 2865TIP3   OH230009   4.361   6.556  11.072
 2865TIP3    H130010   4.416   6.566  10.992
 2865TIP3    H230011   4.400   6.623  11.133
 2866TIP3   OH230012   5.006   7.113  11.145
 2866TIP3    H130013   4.969   7.176  11.206
 2866TIP3    H230014   4.976   7.027  11.184
 2867TIP3   OH230015   4.456   7.000  11.542
 2867TIP3    H130016   4.413   7.074  11.590
 2867TIP3    H230017   4.389   6.976  11.472
 2868TIP3   OH230018   4.150   6.615  11.457
 2868TIP3    H130019   4.156   6.682  11.528
 2868TIP3    H230020   4.056   6.624  11.436
 2869TIP3   OH230021   4.821   7.204  10.628
 2869TIP3    H130022   4.870   7.235  10.705
 2869TIP3    H230023   4.770   7.283  10.603
 2870TIP3   OH230024   4.279   7.193  11.615
 2870TIP3    H130025   4.272   7.191  11.517
 2870TIP3    H230026   4.185   7.188  11.642
 2871TIP3   OH230027   5.423   5.709  10.263
 2871TIP3    H130028   5.332   5.720  10.297
 2871TIP3    H230029   5.448   5.797  10.231
 2872TIP3   OH230030   4.227   6.585  10.467
 2872TIP3    H130031   4.195   6.663  10.418
 2872TIP3    H230032   4.157   6.521  10.450
 2873TIP3   OH230033   3.833   6.827  11.357
 2873TIP3    H130034   3.790   6.819  11.269
 2873TIP3    H230035   3.841   6.733  11.378
 2874TIP3   OH230036   3.813   7.093  11.055
 2874TIP3    H130037   3.904   7.090  11.023
 2874TIP3    H230038   3.805   7.183  11.087
 2875TIP3   OH230039   5.632   7.170  11.611
 2875TIP3    H130040   5.621   7.074  11.599
 2875TIP3    H230041   5.543   7.196  11.643
 2876TIP3   OH230042   4.728   7.126  11.489
 2876TIP3    H130043   4.738   7.207  11.540
 2876TIP3    H230044   4.644   7.086  11.517
 2877TIP3   OH230045   5.349   6.317  11.651
 2877TIP3    H130046   5.301   6.362  11.579
 2877TIP3    H230047   5.347   6.225  11.620
 2878TIP3   OH230048   4.063   6.960  11.451
 2878TIP3    H130049   4.082   6.921  11.539
 2878TIP3    H230050   3.976   6.920  11.428
 2879TIP3   OH230051   4.330   5.806  11.045
 2879TIP3    H130052   4.240   5.793  11.009
 2879TIP3    H230053   4.317   5.889  11.094
 2880TIP3   OH230054   4.795   5.772  11.382
 2880TIP3    H130055   4.834   5.730  11.461
 2880TIP3    H230056   4.698   5.761  11.397
 2881TIP3   OH230057   5.124   6.157  11.472
 2881TIP3    H130058   5.067   6.136  11.551
 2881TIP3    H230059   5.105   6.250  11.450
 2882TIP3   OH230060   4.341   6.303  11.172
 2882TIP3    H130061   4.267   6.302  11.235
 2882TIP3    H230062   4.336   6.394  11.134
 2883TIP3   OH230063   4.335   6.314  10.659
 2883TIP3    H130064   4.242   6.290  10.645
 2883TIP3    H230065   4.375   6.286  10.574
 2884TIP3   OH230066   4.887   6.361  10.531
 2884TIP3    H130067   4.849   6.446  10.502
 2884TIP3    H230068   4.959   6.352  10.467
 2885TIP3   OH230069   4.794   6.386  11.679
 2885TIP3    H130070   4.742   6.308  11.710
 2885TIP3    H230071   4.878   6.374  11.726
 2886TIP3   OH230072   4.992   6.314  10.818
 2886TIP3    H130073   4.964   6.370  10.744
 2886TIP3    H230074   5.002   6.228  10.772
 2887TIP3   OH230075   4.103   6.328  11.339
 2887TIP3    H130076   4.111   6.369  11.427
 2887TIP3    H230077   4.059   6.244  11.361
 2888TIP3   OH230078   3.770   6.039  10.737
 2888TIP3    H130079   3.837   6.034  10.808
 2888TIP3    H230080   3.815   6.002  10.659
 2889TIP3   OH230081   4.912   6.472  11.275
 2889TIP3    H130082   4.950   6.404  11.216
 2889TIP3    H230083   4.865   6.420  11.342
 2890TIP3   OH230084   4.590   6.068  10.758
 2890TIP3    H130085   4.497   6.071  10.790
 2890TIP3    H230086   4.640   6.053  10.840
 2891TIP3   OH230087   4.073   6.227  10.643
 2891TIP3    H130088   3.982   6.238  10.607
 2891TIP3    H230089   4.101   6.140  10.609
 2892TIP3   OH230090   4.433   6.230  10.409
 2892TIP3    H130091   4.530   6.236  10.426
 2892TIP3    H230092   4.419   6.299  10.343
 2893TIP3   OH230093   5.033   5.993  11.083
 2893TIP3    H130094   4.964   5.999  11.153
 2893TIP3    H230095   4.982   5.968  11.004
 2894TIP3   OH230096   4.120   6.809  11.672
 2894TIP3    H130097   4.193   6.829  11.733
 2894TIP3    H230098   4.043   6.812  11.732
 2895TIP3   OH230099   4.720   6.346  10.947
 2895TIP3    H130100   4.780   6.292  10.894
 2895TIP3    H230101   4.706   6.291  11.026
 2896TIP3   OH230102   4.218   5.962  10.582
 2896TIP3    H130103   4.187   5.870  10.593
 2896TIP3    H230104   4.304   5.952  10.541
 2897TIP3   OH230105   4.584   6.178  11.189
 2897TIP3    H130106   4.502   6.230  11.198
 2897TIP3    H230107   4.640   6.214  11.261
 2898TIP3   OH230108   5.362   6.721  11.239
 2898TIP3    H130109   5.418   6.771  11.177
 2898TIP3    H230110   5.276   6.726  11.193
 2899TIP3   OH230111   4.790   6.830  11.482
 2899TIP3    H130112   4.757   6.786  11.562
 2899TIP3    H230113   4.768   6.922  11.495
 2900TIP3   OH230114   4.156   6.740  10.940
 2900TIP3    H130115   4.221   6.734  10.868
 2900TIP3    H230116   4.160   6.653  10.984
 2901TIP3   OH230117   3.853   6.580  11.465
 2901TIP3    H130118   3.870   6.537  11.550
 2901TIP3    H230119   3.791   6.520  11.421
 2902TIP3   OH230120   4.554   6.537  11.682
 2902TIP3    H130121   4.522   6.505  11.597
 2902TIP3    H230122   4.647   6.504  11.683
 2903TIP3   OH230123   5.021   7.076  11.471
 2903TIP3    H130124   4.927   7.083  11.453
 2903TIP3    H230125   5.019   7.094  11.568
 2904TIP3   OH230126   5.589   6.289  10.316
 2904TIP3    H130127   5.535   6.253  10.244
 2904TIP3    H230128   5.594   6.382  10.290
 2905TIP3   OH230129   5.591   6.872  11.597
 2905TIP3    H130130   5.501   6.896  11.562
 2905TIP3    H230131   5.643   6.867  11.514
 2906TIP3   OH230132   5.443   7.135  10.372
 2906TIP3    H130133   5.368   7.078  10.393
 2906TIP3    H230134   5.436   7.165  10.280
 2907TIP3   OH230135   5.140   6.652  11.068
 2907TIP3    H130136   5.046   6.632  11.056
 2907TIP3    H230137   5.183   6.577  11.024
 2908TIP3   OH230138   4.396   7.083  10.671
 2908TIP3    H130139   4.443   7.166  10.660
 2908TIP3    H230140   4.303   7.105  10.651
 2909TIP3   OH230141   4.536   6.853  10.633
 2909TIP3    H130142   4.503   6.944  10.638
 2909TIP3    H230143   4.462   6.803  10.672
 2910TIP3   OH230144   4.609   7.239  11.239
 2910TIP3    H130145   4.623   7.334  11.231
 2910TIP3    H230146   4.640   7.223  11.329
 2911TIP3   OH230147   4.931   6.871  11.232
 2911TIP3    H130148   4.897   6.849  11.321
 2911TIP3    H230149   4.994   6.799  11.215
 2912TIP3   OH230150   4.018   6.054  11.420
 2912TIP3    H130151   3.927   6.089  11.418
 2912TIP3    H230152   4.007   5.970  11.466
 2913TIP3   OH230153   5.245   6.834  10.363
 2913TIP3    H130154   5.216   6.759  10.421
 2913TIP3    H230155   5.334   6.847  10.394
 2914TIP3   OH230156   3.981   7.231  11.263
 2914TIP3    H130157   4.007   7.138  11.265
 2914TIP3    H230158   4.000   7.263  11.352
 2915TIP3   OH230159   4.575   7.080   9.987
 2915TIP3    H130160   4.592   7.004   9.933
 2915TIP3    H230161   4.535   7.043  10.070
 2916TIP3   OH230162   4.464   7.033  10.231
 2916TIP3    H130163   4.479   6.985  10.314
 2916TIP3    H230164   4.461   7.125  10.259
 2917TIP3   OH230165   4.115   6.764  10.285
 2917TIP3    H130166   4.040   6.801  10.337
 2917TIP3    H230167   4.158   6.846  10.257
 2918TIP3   OH230168   4.891   6.031  11.316
 2918TIP3    H130169   4.963   6.037  11.381
 2918TIP3    H230170   4.853   5.944  11.337
 2919TIP3   OH230171   4.980   5.986  10.416
 2919TIP3    H130172   4.983   6.050  10.343
 2919TIP3    H230173   5.023   6.034  10.490
 2920TIP3   OH230174   4.736   7.208  10.304
 2920TIP3    H130175   4.653   7.257  10.308
 2920TIP3    H230176   4.788   7.256  10.239
 2921TIP3   OH230177   4.687   6.162  10.506
 2921TIP3    H130178   4.765   6.221  10.508
 2921TIP3    H230179   4.663   6.150  10.600
 2922TIP3   OH230180   4.744   6.266  11.426
 2922TIP3    H130181   4.752   6.322  11.506
 2922TIP3    H230182   4.810   6.197  11.436
 2923TIP3   OH230183   4.775   5.871  10.593
 2923TIP3    H130184   4.740   5.933  10.660
 2923TIP3    H230185   4.844   5.928  10.552
 2924TIP3   OH230186   5.362   6.053  11.511
 2924TIP3    H130187   5.269   6.084  11.498
 2924TIP3    H230188   5.392   6.051  11.419
 2925TIP3   OH230189   5.223   6.432  10.915
 2925TIP3    H130190   5.142   6.387  10.884
 2925TIP3    H230191   5.271   6.362  10.963
 2926TIP3   OH230192   4.166   7.023  10.172
 2926TIP3    H130193   4.229   7.091  10.198
 2926TIP3    H230194   4.217   6.979  10.101
 2927TIP3   OH230195   4.079   5.770  10.958
 2927TIP3    H130196   4.059   5.771  10.862
 2927TIP3    H230197   4.037   5.685  10.984
 2928TIP3   OH230198   3.990   7.172  10.559
 2928TIP3    H130199   3.896   7.196  10.573
 2928TIP3    H230200   4.024   7.225  10.488
 2929TIP3   OH230201   4.392   7.287  11.884
 2929TIP3    H130202   4.477   7.247  11.902
 2929TIP3    H230203   4.384   7.273  11.788
 2930TIP3   OH230204   4.773   7.268  10.010
 2930TIP3    H130205   4.701   7.204  10.022
 2930TIP3    H230206   4.845   7.215   9.977
 2931TIP3   OH230207   5.022   7.119  11.723
 2931TIP3    H130208   4.975   7.052  11.774
 2931TIP3    H230209   5.083   7.156  11.789
 2932TIP3   OH230210   5.232   7.246  10.026
 2932TIP3    H130211   5.263   7.169  10.073
 2932TIP3    H230212   5.304   7.273   9.969
 2933TIP3   OH230213   3.887   6.804  11.800
 2933TIP3    H130214   3.902   6.712  11.770
 2933TIP3    H230215   3.811   6.832  11.744
 2934TIP3   OH230216   4.322   6.836  10.005
 2934TIP3    H130217   4.337   6.762  10.063
 2934TIP3    H230218   4.394   6.831   9.942
 2935TIP3   OH230219   4.559   6.803  11.739
 2935TIP3    H130220   4.523   6.833  11.653
 2935TIP3    H230221   4.565   6.705  11.729
 2936TIP3   OH230222   5.128   6.789  11.479
 2936TIP3    H130223   5.206   6.848  11.472
 2936TIP3    H230224   5.057   6.856  11.483
 2937TIP3   OH230225   3.979   6.528  11.740
 2937TIP3    H130226   4.019   6.441  11.730
 2937TIP3    H230227   3.955   6.528  11.834
 2938TIP3   OH230228   4.368   6.421  11.475
 2938TIP3    H130229   4.308   6.493  11.501
 2938TIP3    H230230   4.408   6.458  11.394
 2939TIP3   OH230231   4.875   6.678  11.809
 2939TIP3    H130232   4.971   6.677  11.796
 2939TIP3    H230233   4.858   6.601  11.866
 2940TIP3   OH230234   4.408   6.159  11.581
 2940TIP3    H130235   4.420   6.088  11.515
 2940TIP3    H230236   4.404   6.240  11.526
 2941TIP3   OH230237   4.449   5.997  11.336
 2941TIP3    H130238   4.500   6.043  11.265
 2941TIP3    H230239   4.360   5.989  11.296
 2942TIP3   OH230240   4.603   6.546  11.360
 2942TIP3    H130241   4.678   6.530  11.303
 2942TIP3    H230242   4.566   6.629  11.327
 2943TIP3   OH230243   5.042   6.321  11.856
 2943TIP3    H130244   5.066   6.228  11.847
 2943TIP3    H230245   5.129   6.366  11.859
 2944TIP3   OH230246   5.176   6.601  11.673
 2944TIP3    H130247   5.151   6.673  11.612
 2944TIP3    H230248   5.272   6.599  11.655
 2945TIP3   OH230249   4.254   6.284  11.772
 2945TIP3    H130250   4.177   6.227  11.754
 2945TIP3    H230251   4.320   6.247  11.711
 2946TIP3   OH230252   4.528   5.741  11.375
 2946TIP3    H130253   4.510   5.837  11.365
 2946TIP3    H230254   4.453   5.704  11.325
 2947TIP3   OH230255   4.654   6.174  11.739
 2947TIP3    H130256   4.623   6.150  11.828
 2947TIP3    H230257   4.577   6.154  11.684
 2948TIP3   OH230258   4.927   6.088  11.647
 2948TIP3    H130259   4.830   6.094  11.658
 2948TIP3    H230260   4.953   6.024  11.716
 2949TIP3   OH230261   5.085   5.950  11.837
 2949TIP3    H130262   5.080   5.852  11.840
 2949TIP3    H230263   5.060   5.979  11.927
 2950TIP3   OH230264   4.062   6.078  11.748
 2950TIP3    H130265   4.087   6.004  11.690
 2950TIP3    H230266   4.054   6.033  11.835
 2951TIP3   OH230267   4.549   5.680  11.645
 2951TIP3    H130268   4.617   5.610  11.643
 2951TIP3    H230269   4.538   5.694  11.549
 2952TIP3   OH230270   4.585   5.842  11.857
 2952TIP3    H130271   4.568   5.791  11.773
 2952TIP3    H230272   4.525   5.918  11.847
 2953TIP3   OH230273   3.894   6.996  10.115
 2953TIP3    H130274   3.986   6.996  10.146
 2953TIP3    H230275   3.895   6.923  10.051
 2954TIP3   OH230276   5.403   6.954  11.858
 2954TIP3    H130277   5.314   6.949  11.897
 2954TIP3    H230278   5.442   7.033  11.903
 2955TIP3   OH230279   5.574   6.593  10.590
 2955TIP3    H130280   5.497   6.546  10.629
 2955TIP3    H230281   5.631   6.609  10.667
 2956TIP3   OH230282   5.547   6.863  11.093
 2956TIP3    H130283   5.628   6.826  11.052
 2956TIP3    H230284   5.561   6.958  11.075
 2957TIP3   OH230285   5.396   7.152  11.322
 2957TIP3    H130286   5.327   7.190  11.376
 2957TIP3    H230287   5.346   7.116  11.245
 2958TIP3   OH230288   5.352   6.441  10.647
 2958TIP3    H130289   5.337   6.345  10.644
 2958TIP3    H230290   5.320   6.463  10.736
 2959TIP3   OH230291   3.854   6.646  11.055
 2959TIP3    H130292   3.870   6.645  10.958
 2959TIP3    H230293   3.944   6.634  11.089
 2960TIP3   OH230294   5.439   6.638  11.618
 2960TIP3    H130295   5.500   6.563  11.631
 2960TIP3    H230296   5.500   6.716  11.618
 2961TIP3   OH230297   5.589   6.426  11.683
 2961TIP3    H130298   5.501   6.386  11.667
 2961TIP3    H230299   5.646   6.348  11.675
 2962TIP3   OH230300   5.318   6.197  10.503
 2962TIP3    H130301   5.351   6.104  10.505
 2962TIP3    H230302   5.392   6.239  10.457
 2963TIP3   OH230303   5.384   6.254  11.039
 2963TIP3    H130304   5.480   6.277  11.037
 2963TIP3    H230305   5.365   6.268  11.133
 2964TIP3   OH230306   5.391   6.326  11.318
 2964TIP3    H130307   5.302   6.355  11.348
 2964TIP3    H230308   5.434   6.412  11.295
 2965TIP3   OH230309   3.816   6.180  11.670
 2965TIP3    H130310   3.909   6.159  11.689
 2965TIP3    H230311   3.770   6.098  11.697
 2966TIP3   OH230312   5.618   5.733  11.851
 2966TIP3    H130313   5.653   5.667  11.789
 2966TIP3    H230314   5.628   5.814  11.797
 2967TIP3   OH230315   5.386   5.926  10.498
 2967TIP3    H130316   5.410   5.885  10.584
 2967TIP3    H230317   5.326   5.862  10.457
 2968TIP3   OH230318   3.936   6.009  10.955
 2968TIP3    H130319   3.981   5.926  10.980
 2968TIP3    H230320   3.990   6.078  10.994
 2969TIP3   OH230321   3.764   6.309  11.058
 2969TIP3    H130322   3.820   6.284  10.982
 2969TIP3    H230323   3.810   6.390  11.085
 2970TIP3   OH230324   5.570   5.943  11.686
 2970TIP3    H130325   5.476   5.970  11.681
 2970TIP3    H230326   5.573   5.887  11.607
 2971TIP3   OH230327   3.802   5.948  10.471
 2971TIP3    H130328   3.707   5.949  10.452
 2971TIP3    H230329   3.840   5.976  10.388
 2972TIP3   OH230330   3.795   5.800  11.295
 2972TIP3    H130331   3.728   5.781  11.363
 2972TIP3    H230332   3.749   5.868  11.241
 2973TIP3   OH230333   4.019   7.126  11.713
 2973TIP3    H130334   3.933   7.140  11.668
 2973TIP3    H230335   3.991   7.110  11.804
 2974TIP3   OH230336   4.314   7.221  11.347
 2974TIP3    H130337   4.269   7.298  11.310
 2974TIP3    H230338   4.399   7.218  11.302
 2975TIP3   OH230339   5.472   5.752  11.471
 2975TIP3    H130340   5.389   5.782  11.430
 2975TIP3    H230341   5.488   5.669  11.420
 2976TIP3   OH230342   4.230   7.256  10.877
 2976TIP3    H130343   4.189   7.180  10.921
 2976TIP3    H230344   4.287   7.291  10.946
 2977TIP3   OH230345   4.810   5.894  10.900
 2977TIP3    H130346   4.743   5.830  10.927
 2977TIP3    H230347   4.866   5.841  10.842
 2978TIP3   OH230348   5.324   5.699  10.906
 2978TIP3    H130349   5.385   5.758  10.856
 2978TIP3    H230350   5.236   5.735  10.883
 2979TIP3   OH230351   5.490   5.825  10.733
 2979TIP3    H130352   5.560   5.767  10.694
 2979TIP3    H230353   5.542   5.908  10.747
 2980TIP3   OH230354   4.047   5.758  10.682
 2980TIP3    H130355   3.966   5.735  10.632
 2980TIP3    H230356   4.093   5.672  10.678
 2981TIP3   OH230357   4.493   5.752  10.662
 2981TIP3    H130358   4.585   5.785  10.656
 2981TIP3    H230359   4.491   5.727  10.755
 2982TIP3   OH230360   5.066   5.751  10.825
 2982TIP3    H130361   5.060   5.763  10.730
 2982TIP3    H230362   5.027   5.662  10.839
 2983TIP3   OH230363   5.190   5.755  10.387
 2983TIP3    H130364   5.115   5.816  10.383
 2983TIP3    H230365   5.146   5.671  10.416
 2984TIP3   OH230366   4.036   5.811  11.630
 2984TIP3    H130367   3.997   5.732  11.670
 2984TIP3    H230368   4.127   5.807  11.668
 2985TIP3   OH230369   4.236   5.749  11.794
 2985TIP3    H130370   4.325   5.716  11.772
 2985TIP3    H230371   4.199   5.669  11.835
 2986TIP3   OH230372   5.077   5.678  11.809
 2986TIP3    H130373   5.086   5.631  11.894
 2986TIP3    H230374   5.168   5.675  11.775
 2987TIP3   OH230375   5.380  -0.024  11.689
 2987TIP3    H130376   5.317  -0.037  11.617
 2987TIP3    H230377   5.394   0.072  11.689
 2988TIP3   OH230378   6.839   6.670  10.676
 2988TIP3    H130379   6.844   6.768  10.665
 2988TIP3    H230380   6.771   6.647  10.610
 2989TIP3   OH230381   6.728   6.596  11.020
 2989TIP3    H130382   6.726   6.531  11.092
 2989TIP3    H230383   6.695   6.545  10.944
 2990TIP3   OH230384   5.963   6.564  11.176
 2990TIP3    H130385   5.971   6.495  11.245
 2990TIP3    H230386   6.038   6.621  11.198
 2991TIP3   OH230387   7.098   6.889  10.849
 2991TIP3    H130388   7.056   6.818  10.899
 2991TIP3    H230389   7.100   6.961  10.914
 2992TIP3   OH230390   6.058   7.009  11.029
 2992TIP3    H130391   6.024   6.923  10.995
 2992TIP3    H230392   6.153   6.989  11.030
 2993TIP3   OH230393   5.720   6.365  10.573
 2993TIP3    H130394   5.675   6.452  10.570
 2993TIP3    H230395   5.663   6.311  10.518
 2994TIP3   OH230396   5.790   6.587  10.789
 2994TIP3    H130397   5.817   6.504  10.834
 2994TIP3    H230398   5.860   6.598  10.724
 2995TIP3   OH230399   6.564   6.834  11.069
 2995TIP3    H130400   6.599   6.773  11.002
 2995TIP3    H230401   6.645   6.854  11.118
 2996TIP3   OH230402   6.883   6.284  11.098
 2996TIP3    H130403   6.899   6.188  11.098
 2996TIP3    H230404   6.873   6.298  11.003
 2997TIP3   OH230405   6.193   6.092  10.820
 2997TIP3    H130406   6.204   6.176  10.771
 2997TIP3    H230407   6.153   6.035  10.751
 2998TIP3   OH230408   6.970   6.105  10.658
 2998TIP3    H130409   7.034   6.069  10.725
 2998TIP3    H230410   7.030   6.157  10.602
 2999TIP3   OH230411   5.856   6.333  10.894
 2999TIP3    H130412   5.923   6.279  10.939
 2999TIP3    H230413   5.866   6.302  10.803
 3000TIP3   OH230414   6.371   6.489  10.826
 3000TIP3    H130415   6.439   6.431  10.866
 3000TIP3    H230416   6.320   6.423  10.775
 3001TIP3   OH230417   6.084   5.982  11.225
 3001TIP3    H130418   6.056   6.039  11.150
 3001TIP3    H230419   6.016   6.005  11.293
 3002TIP3   OH230420   6.811   6.929  10.581
 3002TIP3    H130421   6.787   6.904  10.491
 3002TIP3    H230422   6.781   7.022  10.586
 3003TIP3   OH230423   6.335   6.744  11.250
 3003TIP3    H130424   6.265   6.809  11.271
 3003TIP3    H230425   6.406   6.804  11.220
 3004TIP3   OH230426   7.118   6.032  10.869
 3004TIP3    H130427   7.121   5.950  10.918
 3004TIP3    H230428   7.195   6.079  10.909
 3005TIP3   OH230429   6.041   6.168  11.028
 3005TIP3    H130430   6.104   6.236  11.059
 3005TIP3    H230431   6.093   6.127  10.954
 3006TIP3   OH230432   6.182   6.947  11.329
 3006TIP3    H130433   6.175   7.037  11.294
 3006TIP3    H230434   6.093   6.938  11.372
 3007TIP3   OH230435   5.778   6.913  10.411
 3007TIP3    H130436   5.776   6.949  10.319
 3007TIP3    H230437   5.796   6.994  10.462
 3008TIP3   OH230438   7.130   7.069  11.098
 3008TIP3    H130439   7.033   7.087  11.102
 3008TIP3    H230440   7.169   7.151  11.065
 3009TIP3   OH230441   7.161   5.916  11.200
 3009TIP3    H130442   7.092   5.984  11.211
 3009TIP3    H230443   7.238   5.966  11.167
 3010TIP3   OH230444   6.478   5.715  10.971
 3010TIP3    H130445   6.464   5.619  10.964
 3010TIP3    H230446   6.390   5.746  11.002
 3011TIP3   OH230447   6.981   7.224  10.726
 3011TIP3    H130448   7.036   7.161  10.676
 3011TIP3    H230449   7.020   7.308  10.701
 3012TIP3   OH230450   7.102   7.039  10.593
 3012TIP3    H130451   7.067   6.970  10.535
 3012TIP3    H230452   7.101   6.992  10.679
 3013TIP3   OH230453   7.232   6.920  11.457
 3013TIP3    H130454   7.260   6.849  11.396
 3013TIP3    H230455   7.276   6.994  11.412
 3014TIP3   OH230456   6.709   6.594  10.420
 3014TIP3    H130457   6.640   6.653  10.386
 3014TIP3    H230458   6.778   6.604  10.351
 3015TIP3   OH230459   7.051   6.621  10.515
 3015TIP3    H130460   6.976   6.641  10.575
 3015TIP3    H230461   7.098   6.553  10.568
 3016TIP3   OH230462   7.047   6.434  11.424
 3016TIP3    H130463   7.042   6.513  11.479
 3016TIP3    H230464   6.983   6.460  11.355
 3017TIP3   OH230465   6.213   6.681  10.707
 3017TIP3    H130466   6.182   6.642  10.622
 3017TIP3    H230467   6.276   6.613  10.739
 3018TIP3   OH230468   6.346   7.021  10.973
 3018TIP3    H130469   6.346   6.968  10.892
 3018TIP3    H230470   6.423   6.984  11.020
 3019TIP3   OH230471   6.246   6.556  11.072
 3019TIP3    H130472   6.301   6.566  10.992
 3019TIP3    H230473   6.285   6.622  11.133
 3020TIP3   OH230474   6.882   7.114  11.142
 3020TIP3    H130475   6.857   7.176  11.209
 3020TIP3    H230476   6.860   7.027  11.184
 3021TIP3   OH230477   6.341   7.000  11.542
 3021TIP3    H130478   6.298   7.074  11.590
 3021TIP3    H230479   6.275   6.976  11.472
 3022TIP3   OH230480   6.036   6.615  11.457
 3022TIP3    H130481   6.041   6.682  11.528
 3022TIP3    H230482   5.942   6.624  11.436
 3023TIP3   OH230483   6.706   7.207  10.630
 3023TIP3    H130484   6.759   7.239  10.704
 3023TIP3    H230485   6.656   7.284  10.602
 3024TIP3   OH230486   6.165   7.194  11.615
 3024TIP3    H130487   6.157   7.191  11.517
 3024TIP3    H230488   6.071   7.188  11.642
 3025TIP3   OH230489   6.115   6.585  10.467
 3025TIP3    H130490   6.084   6.663  10.416
 3025TIP3    H230491   6.048   6.519  10.445
 3026TIP3   OH230492   5.719   6.827  11.357
 3026TIP3    H130493   5.675   6.818  11.270
 3026TIP3    H230494   5.728   6.732  11.379
 3027TIP3   OH230495   5.699   7.096  11.039
 3027TIP3    H130496   5.794   7.091  11.030
 3027TIP3    H230497   5.689   7.180  11.087
 3028TIP3   OH230498   6.614   7.126  11.489
 3028TIP3    H130499   6.624   7.207  11.540
 3028TIP3    H230500   6.529   7.086  11.517
 3029TIP3   OH230501   7.184   6.335  11.654
 3029TIP3    H130502   7.181   6.370  11.565
 3029TIP3    H230503   7.238   6.252  11.639
 3030TIP3   OH230504   5.949   6.960  11.451
 3030TIP3    H130505   5.970   6.921  11.539
 3030TIP3    H230506   5.862   6.920  11.429
 3031TIP3   OH230507   6.216   5.806  11.046
 3031TIP3    H130508   6.126   5.793  11.009
 3031TIP3    H230509   6.203   5.889  11.095
 3032TIP3   OH230510   6.681   5.772  11.382
 3032TIP3    H130511   6.720   5.730  11.461
 3032TIP3    H230512   6.583   5.761  11.397
 3033TIP3   OH230513   7.002   6.153  11.466
 3033TIP3    H130514   6.954   6.136  11.550
 3033TIP3    H230515   6.994   6.248  11.453
 3034TIP3   OH230516   6.227   6.303  11.173
 3034TIP3    H130517   6.152   6.302  11.235
 3034TIP3    H230518   6.222   6.394  11.134
 3035TIP3   OH230519   6.222   6.314  10.658
 3035TIP3    H130520   6.128   6.289  10.644
 3035TIP3    H230521   6.260   6.285  10.572
 3036TIP3   OH230522   6.774   6.362  10.529
 3036TIP3    H130523   6.736   6.448  10.499
 3036TIP3    H230524   6.848   6.349  10.467
 3037TIP3   OH230525   6.681   6.386  11.679
 3037TIP3    H130526   6.629   6.308  11.710
 3037TIP3    H230527   6.765   6.374  11.726
 3038TIP3   OH230528   6.875   6.316  10.820
 3038TIP3    H130529   6.852   6.370  10.742
 3038TIP3    H230530   6.888   6.230  10.775
 3039TIP3   OH230531   5.988   6.328  11.339
 3039TIP3    H130532   5.997   6.369  11.427
 3039TIP3    H230533   5.944   6.244  11.360
 3040TIP3   OH230534   6.330   6.075  10.034
 3040TIP3    H130535   6.281   6.025  10.100
 3040TIP3    H230536   6.263   6.101   9.970
 3041TIP3   OH230537   5.654   6.038  10.737
 3041TIP3    H130538   5.722   6.035  10.808
 3041TIP3    H230539   5.700   6.001  10.660
 3042TIP3   OH230540   5.790   6.120  10.286
 3042TIP3    H130541   5.827   6.171  10.214
 3042TIP3    H230542   5.709   6.171  10.304
 3043TIP3   OH230543   6.796   6.472  11.274
 3043TIP3    H130544   6.836   6.403  11.217
 3043TIP3    H230545   6.750   6.419  11.342
 3044TIP3   OH230546   6.477   6.071  10.760
 3044TIP3    H130547   6.383   6.071  10.789
 3044TIP3    H230548   6.527   6.053  10.841
 3045TIP3   OH230549   5.958   6.225  10.644
 3045TIP3    H130550   5.870   6.241  10.605
 3045TIP3    H230551   5.987   6.141  10.603
 3046TIP3   OH230552   6.321   6.231  10.408
 3046TIP3    H130553   6.417   6.240  10.425
 3046TIP3    H230554   6.300   6.297  10.339
 3047TIP3   OH230555   6.911   5.991  11.084
 3047TIP3    H130556   6.844   5.998  11.154
 3047TIP3    H230557   6.862   5.969  11.003
 3048TIP3   OH230558   6.190   6.350  10.167
 3048TIP3    H130559   6.138   6.311  10.097
 3048TIP3    H230560   6.275   6.368  10.123
 3049TIP3   OH230561   6.006   6.809  11.672
 3049TIP3    H130562   6.078   6.829  11.733
 3049TIP3    H230563   5.929   6.812  11.732
 3050TIP3   OH230564   6.606   6.346  10.948
 3050TIP3    H130565   6.666   6.293  10.894
 3050TIP3    H230566   6.591   6.291  11.026
 3051TIP3   OH230567   6.107   5.960  10.591
 3051TIP3    H130568   6.076   5.868  10.590
 3051TIP3    H230569   6.186   5.954  10.535
 3052TIP3   OH230570   6.470   6.178  11.189
 3052TIP3    H130571   6.388   6.230  11.198
 3052TIP3    H230572   6.525   6.214  11.261
 3053TIP3   OH230573   6.531   6.794  10.358
 3053TIP3    H130574   6.448   6.755  10.326
 3053TIP3    H230575   6.508   6.814  10.451
 3054TIP3   OH230576   7.216   6.723  11.239
 3054TIP3    H130577   7.288   6.736  11.174
 3054TIP3    H230578   7.140   6.723  11.178
 3055TIP3   OH230579   6.677   6.830  11.482
 3055TIP3    H130580   6.643   6.786  11.561
 3055TIP3    H230581   6.656   6.922  11.495
 3056TIP3   OH230582   6.983   6.273  10.338
 3056TIP3    H130583   7.072   6.259  10.377
 3056TIP3    H230584   6.996   6.354  10.287
 3057TIP3   OH230585   6.039   6.740  10.939
 3057TIP3    H130586   6.108   6.733  10.869
 3057TIP3    H230587   6.046   6.654  10.984
 3058TIP3   OH230588   6.741   6.945  10.266
 3058TIP3    H130589   6.707   7.030  10.297
 3058TIP3    H230590   6.664   6.887  10.282
 3059TIP3   OH230591   5.739   6.581  11.465
 3059TIP3    H130592   5.756   6.536  11.550
 3059TIP3    H230593   5.677   6.520  11.421
 3060TIP3   OH230594   6.440   6.537  11.682
 3060TIP3    H130595   6.408   6.505  11.597
 3060TIP3    H230596   6.532   6.504  11.683
 3061TIP3   OH230597   6.908   7.076  11.472
 3061TIP3    H130598   6.814   7.082  11.452
 3061TIP3    H230599   6.905   7.094  11.569
 3062TIP3   OH230600   7.019   6.650  11.068
 3062TIP3    H130601   6.926   6.628  11.054
 3062TIP3    H230602   7.067   6.576  11.026
 3063TIP3   OH230603   6.281   7.084  10.666
 3063TIP3    H130604   6.326   7.169  10.661
 3063TIP3    H230605   6.189   7.108  10.650
 3064TIP3   OH230606   5.854   6.567  10.139
 3064TIP3    H130607   5.914   6.636  10.172
 3064TIP3    H230608   5.767   6.603  10.156
 3065TIP3   OH230609   6.422   6.851  10.632
 3065TIP3    H130610   6.389   6.943  10.638
 3065TIP3    H230611   6.347   6.804  10.673
 3066TIP3   OH230612   6.494   7.238  11.239
 3066TIP3    H130613   6.508   7.333  11.231
 3066TIP3    H230614   6.525   7.223  11.330
 3067TIP3   OH230615   6.819   6.871  11.233
 3067TIP3    H130616   6.782   6.849  11.321
 3067TIP3    H230617   6.880   6.798  11.215
 3068TIP3   OH230618   7.041   6.977  10.143
 3068TIP3    H130619   7.078   6.929  10.220
 3068TIP3    H230620   6.947   6.956  10.150
 3069TIP3   OH230621   5.904   6.054  11.420
 3069TIP3    H130622   5.813   6.089  11.418
 3069TIP3    H230623   5.893   5.970  11.466
 3070TIP3   OH230624   7.128   6.840  10.369
 3070TIP3    H130625   7.104   6.758  10.419
 3070TIP3    H230626   7.222   6.847  10.388
 3071TIP3   OH230627   5.865   7.229  11.263
 3071TIP3    H130628   5.894   7.137  11.267
 3071TIP3    H230629   5.885   7.263  11.351
 3072TIP3   OH230630   5.992   6.762  10.287
 3072TIP3    H130631   5.922   6.804  10.339
 3072TIP3    H230632   6.044   6.838  10.254
 3073TIP3   OH230633   6.774   6.031  11.318
 3073TIP3    H130634   6.849   6.037  11.378
 3073TIP3    H230635   6.738   5.942  11.338
 3074TIP3   OH230636   6.860   5.988  10.419
 3074TIP3    H130637   6.879   6.046  10.346
 3074TIP3    H230638   6.911   6.031  10.490
 3075TIP3   OH230639   6.622   7.205  10.306
 3075TIP3    H130640   6.539   7.255  10.312
 3075TIP3    H230641   6.672   7.257  10.242
 3076TIP3   OH230642   6.575   6.164  10.506
 3076TIP3    H130643   6.653   6.224  10.509
 3076TIP3    H230644   6.549   6.152  10.600
 3077TIP3   OH230645   6.633   6.266  11.426
 3077TIP3    H130646   6.641   6.322  11.506
 3077TIP3    H230647   6.698   6.195  11.435
 3078TIP3   OH230648   6.655   5.871  10.591
 3078TIP3    H130649   6.627   5.934  10.659
 3078TIP3    H230650   6.727   5.924  10.551
 3079TIP3   OH230651   6.348   0.008  10.308
 3079TIP3    H130652   6.374   0.087  10.258
 3079TIP3    H230653   6.335   0.044  10.396
 3080TIP3   OH230654   6.225   5.979  10.274
 3080TIP3    H130655   6.222   6.071  10.304
 3080TIP3    H230656   6.319   5.957  10.292
 3081TIP3   OH230657   7.235   6.030  11.491
 3081TIP3    H130658   7.152   6.083  11.494
 3081TIP3    H230659   7.275   6.059  11.409
 3082TIP3   OH230660   7.108   6.432  10.917
 3082TIP3    H130661   7.027   6.389  10.884
 3082TIP3    H230662   7.152   6.359  10.964
 3083TIP3   OH230663   5.964   5.770  10.959
 3083TIP3    H130664   5.945   5.771  10.863
 3083TIP3    H230665   5.923   5.685  10.985
 3084TIP3   OH230666   5.857   7.161  10.566
 3084TIP3    H130667   5.775   7.211  10.575
 3084TIP3    H230668   5.911   7.215  10.508
 3085TIP3   OH230669   6.277   7.287  11.885
 3085TIP3    H130670   6.363   7.247  11.902
 3085TIP3    H230671   6.270   7.273  11.788
 3086TIP3   OH230672   6.657   7.263  10.005
 3086TIP3    H130673   6.587   7.201  10.027
 3086TIP3    H230674   6.730   7.209   9.973
 3087TIP3   OH230675   6.911   7.120  11.724
 3087TIP3    H130676   6.862   7.052  11.774
 3087TIP3    H230677   6.972   7.154  11.792
 3088TIP3   OH230678   5.773   6.803  11.801
 3088TIP3    H130679   5.788   6.712  11.770
 3088TIP3    H230680   5.699   6.832  11.744
 3089TIP3   OH230681   6.208   6.834  10.014
 3089TIP3    H130682   6.221   6.758  10.069
 3089TIP3    H230683   6.276   6.829   9.947
 3090TIP3   OH230684   6.445   6.803  11.739
 3090TIP3    H130685   6.409   6.833  11.653
 3090TIP3    H230686   6.451   6.705  11.729
 3091TIP3   OH230687   7.011   6.786  11.479
 3091TIP3    H130688   7.090   6.845  11.471
 3091TIP3    H230689   6.943   6.854  11.484
 3092TIP3   OH230690   5.864   6.528  11.740
 3092TIP3    H130691   5.905   6.441  11.730
 3092TIP3    H230692   5.840   6.528  11.834
 3093TIP3   OH230693   6.325   6.638  10.243
 3093TIP3    H130694   6.279   6.587  10.311
 3093TIP3    H230695   6.356   6.568  10.181
 3094TIP3   OH230696   6.253   6.421  11.475
 3094TIP3    H130697   6.194   6.493  11.501
 3094TIP3    H230698   6.293   6.458  11.394
 3095TIP3   OH230699   6.433   6.459  10.064
 3095TIP3    H130700   6.421   6.444   9.968
 3095TIP3    H230701   6.529   6.474  10.072
 3096TIP3   OH230702   6.761   6.678  11.809
 3096TIP3    H130703   6.856   6.677  11.798
 3096TIP3    H230704   6.745   6.601  11.865
 3097TIP3   OH230705   6.294   6.159  11.581
 3097TIP3    H130706   6.306   6.088  11.515
 3097TIP3    H230707   6.290   6.240  11.526
 3098TIP3   OH230708   6.334   5.997  11.336
 3098TIP3    H130709   6.385   6.044  11.265
 3098TIP3    H230710   6.245   5.989  11.296
 3099TIP3   OH230711   6.489   6.546  11.360
 3099TIP3    H130712   6.564   6.530  11.303
 3099TIP3    H230713   6.452   6.629  11.327
 3100TIP3   OH230714   6.933   6.324  11.858
 3100TIP3    H130715   6.955   6.231  11.846
 3100TIP3    H230716   7.021   6.366  11.854
 3101TIP3   OH230717   7.064   6.605  11.673
 3101TIP3    H130718   7.034   6.674  11.610
 3101TIP3    H230719   7.157   6.595  11.653
 3102TIP3   OH230720   6.140   6.284  11.773
 3102TIP3    H130721   6.063   6.226  11.756
 3102TIP3    H230722   6.206   6.247  11.710
 3103TIP3   OH230723   6.414   5.741  11.375
 3103TIP3    H130724   6.395   5.837  11.365
 3103TIP3    H230725   6.338   5.704  11.325
 3104TIP3   OH230726   6.540   6.174  11.738
 3104TIP3    H130727   6.509   6.151  11.827
 3104TIP3    H230728   6.462   6.154  11.684
 3105TIP3   OH230729   6.808   6.090  11.647
 3105TIP3    H130730   6.712   6.093  11.660
 3105TIP3    H230731   6.840   6.026  11.713
 3106TIP3   OH230732   6.980   5.948  11.840
 3106TIP3    H130733   6.964   5.851  11.840
 3106TIP3    H230734   6.944   5.979  11.926
 3107TIP3   OH230735   5.948   6.078  11.748
 3107TIP3    H130736   5.973   6.004  11.690
 3107TIP3    H230737   5.939   6.033  11.835
 3108TIP3   OH230738   6.435   5.680  11.645
 3108TIP3    H130739   6.503   5.610  11.643
 3108TIP3    H230740   6.423   5.695  11.549
 3109TIP3   OH230741   6.471   5.842  11.857
 3109TIP3    H130742   6.454   5.791  11.773
 3109TIP3    H230743   6.411   5.918  11.847
 3110TIP3   OH230744   7.276   7.147  11.326
 3110TIP3    H130745   7.208   7.191  11.376
 3110TIP3    H230746   7.228   7.110  11.249
 3111TIP3   OH230747   7.189   6.448  10.660
 3111TIP3    H130748   7.214   6.355  10.660
 3111TIP3    H230749   7.201   6.473  10.753
 3112TIP3   OH230750   5.739   6.651  11.054
 3112TIP3    H130751   5.756   6.642  10.957
 3112TIP3    H230752   5.829   6.632  11.089
 3113TIP3   OH230753   7.174   6.059  10.102
 3113TIP3    H130754   7.269   6.042  10.084
 3113TIP3    H230755   7.149   6.009  10.021
 3114TIP3   OH230756   7.204   6.194  10.486
 3114TIP3    H130757   7.233   6.108  10.519
 3114TIP3    H230758   7.284   6.229  10.445
 3115TIP3   OH230759  -0.053   6.171  11.039
 3115TIP3    H130760   0.035   6.206  11.025
 3115TIP3    H230761  -0.075   6.235  11.108
 3116TIP3   OH230762   7.278   6.332  11.342
 3116TIP3    H130763   7.184   6.359  11.351
 3116TIP3    H230764   7.314   6.401  11.283
 3117TIP3   OH230765   5.701   6.180  11.671
 3117TIP3    H130766   5.795   6.159  11.689
 3117TIP3    H230767   5.655   6.098  11.697
 3118TIP3   OH230768   7.182   5.894  10.566
 3118TIP3    H130769   7.276   5.882  10.586
 3118TIP3    H230770   7.181   5.855  10.476
 3119TIP3   OH230771   5.821   6.009  10.955
 3119TIP3    H130772   5.867   5.927  10.981
 3119TIP3    H230773   5.876   6.078  10.994
 3120TIP3   OH230774   5.649   6.310  11.058
 3120TIP3    H130775   5.706   6.284  10.982
 3120TIP3    H230776   5.696   6.390  11.085
 3121TIP3   OH230777   5.685   5.934  10.461
 3121TIP3    H130778   5.591   5.955  10.453
 3121TIP3    H230779   5.727   5.985  10.389
 3122TIP3   OH230780   5.681   5.800  11.295
 3122TIP3    H130781   5.614   5.781  11.363
 3122TIP3    H230782   5.635   5.868  11.241
 3123TIP3   OH230783   5.904   7.126  11.713
 3123TIP3    H130784   5.819   7.140  11.668
 3123TIP3    H230785   5.876   7.110  11.804
 3124TIP3   OH230786   6.199   7.220  11.347
 3124TIP3    H130787   6.154   7.298  11.309
 3124TIP3    H230788   6.285   7.218  11.302
 3125TIP3   OH230789   6.114   7.257  10.878
 3125TIP3    H130790   6.076   7.178  10.921
 3125TIP3    H230791   6.174   7.291  10.946
 3126TIP3   OH230792   6.693   5.894  10.899
 3126TIP3    H130793   6.628   5.829  10.928
 3126TIP3    H230794   6.751   5.841  10.842
 3127TIP3   OH230795   7.211   5.698  10.907
 3127TIP3    H130796   7.269   5.761  10.862
 3127TIP3    H230797   7.122   5.734  10.886
 3128TIP3   OH230798   5.933   5.757  10.686
 3128TIP3    H130799   5.854   5.738  10.632
 3128TIP3    H230800   5.979   5.671  10.678
 3129TIP3   OH230801   5.807   5.733  10.259
 3129TIP3    H130802   5.856   5.798  10.204
 3129TIP3    H230803   5.752   5.793  10.312
 3130TIP3   OH230804   6.381   5.749  10.663
 3130TIP3    H130805   6.470   5.786  10.656
 3130TIP3    H230806   6.377   5.727  10.756
 3131TIP3   OH230807   6.954   5.747  10.826
 3131TIP3    H130808   6.948   5.765  10.731
 3131TIP3    H230809   6.911   5.659  10.837
 3132TIP3   OH230810   7.077   5.745  10.382
 3132TIP3    H130811   7.007   5.811  10.373
 3132TIP3    H230812   7.027   5.666  10.411
 3133TIP3   OH230813   5.995   5.919  10.111
 3133TIP3    H130814   6.049   5.864  10.053
 3133TIP3    H230815   6.061   5.954  10.173
 3134TIP3   OH230816   6.495   5.952  10.349
 3134TIP3    H130817   6.521   5.893  10.422
 3134TIP3    H230818   6.503   6.038  10.396
 3135TIP3   OH230819   5.922   5.811  11.630
 3135TIP3    H130820   5.883   5.732  11.670
 3135TIP3    H230821   6.013   5.807  11.668
 3136TIP3   OH230822   6.122   5.749  11.794
 3136TIP3    H130823   6.211   5.716  11.772
 3136TIP3    H230824   6.084   5.669  11.834
 3137TIP3   OH230825   6.963   5.680  11.808
 3137TIP3    H130826   6.971   5.633  11.893
 3137TIP3    H230827   7.055   5.678  11.773
 3138TIP3   OH230828   7.273  -0.024  11.687
 3138TIP3    H130829   7.207  -0.039  11.618
 3138TIP3    H230830   7.278   0.073  11.690
 3139TIP3   OH230831   1.185   1.014  12.555
 3139TIP3    H130832   1.184   1.112  12.553
 3139TIP3    H230833   1.112   0.991  12.496
 3140TIP3   OH230834   1.070   0.939  12.906
 3140TIP3    H130835   1.069   0.875  12.978
 3140TIP3    H230836   1.036   0.888  12.831
 3141TIP3   OH230837   0.311   0.906  13.058
 3141TIP3    H130838   0.316   0.839  13.130
 3141TIP3    H230839   0.381   0.966  13.086
 3142TIP3   OH230840   1.439   1.234  12.734
 3142TIP3    H130841   1.398   1.163  12.784
 3142TIP3    H230842   1.442   1.305  12.802
 3143TIP3   OH230843   0.399   1.351  12.912
 3143TIP3    H130844   0.367   1.265  12.879
 3143TIP3    H230845   0.495   1.333  12.915
 3144TIP3   OH230846   0.090   0.706  12.419
 3144TIP3    H130847   0.046   0.786  12.456
 3144TIP3    H230848   0.011   0.653  12.418
 3145TIP3   OH230849   0.130   0.925  12.670
 3145TIP3    H130850   0.160   0.848  12.722
 3145TIP3    H230851   0.204   0.941  12.610
 3146TIP3   OH230852   1.151   1.750  12.758
 3146TIP3    H130853   1.216   1.681  12.730
 3146TIP3    H230854   1.130   1.717  12.845
 3147TIP3   OH230855   0.908   1.179  12.953
 3147TIP3    H130856   0.942   1.117  12.887
 3147TIP3    H230857   0.989   1.195  13.005
 3148TIP3   OH230858   1.767   0.345  13.025
 3148TIP3    H130859   1.786   0.402  13.103
 3148TIP3    H230860   1.823   0.387  12.959
 3149TIP3   OH230861   1.225   0.626  12.986
 3149TIP3    H130862   1.241   0.530  12.986
 3149TIP3    H230863   1.215   0.641  12.890
 3150TIP3   OH230864   0.538   0.437  12.707
 3150TIP3    H130865   0.548   0.519  12.656
 3150TIP3    H230866   0.498   0.379  12.639
 3151TIP3   OH230867   1.311   0.441  12.543
 3151TIP3    H130868   1.376   0.413  12.612
 3151TIP3    H230869   1.365   0.500  12.490
 3152TIP3   OH230870   0.196   0.669  12.773
 3152TIP3    H130871   0.268   0.622  12.820
 3152TIP3    H230872   0.213   0.640  12.683
 3153TIP3   OH230873   0.714   0.832  12.712
 3153TIP3    H130874   0.782   0.774  12.751
 3153TIP3    H230875   0.663   0.766  12.661
 3154TIP3   OH230876   1.813   0.486  13.253
 3154TIP3    H130877   1.751   0.561  13.243
 3154TIP3    H230878   1.815   0.475  13.349
 3155TIP3   OH230879   0.431   0.329  13.108
 3155TIP3    H130880   0.397   0.385  13.035
 3155TIP3    H230881   0.361   0.348  13.176
 3156TIP3   OH230882   1.156   1.273  12.465
 3156TIP3    H130883   1.130   1.246  12.376
 3156TIP3    H230884   1.125   1.366  12.470
 3157TIP3   OH230885   0.681   1.090  13.134
 3157TIP3    H130886   0.609   1.153  13.156
 3157TIP3    H230887   0.750   1.150  13.105
 3158TIP3   OH230888   1.492   0.376  12.741
 3158TIP3    H130889   1.467   0.302  12.798
 3158TIP3    H230890   1.558   0.421  12.796
 3159TIP3   OH230891   0.381   0.514  12.911
 3159TIP3    H130892   0.445   0.579  12.947
 3159TIP3    H230893   0.435   0.471  12.840
 3160TIP3   OH230894   0.523   1.289  13.215
 3160TIP3    H130895   0.518   1.381  13.183
 3160TIP3    H230896   0.435   1.281  13.259
 3161TIP3   OH230897   0.128   1.254  12.291
 3161TIP3    H130898   0.108   1.288  12.202
 3161TIP3    H230899   0.139   1.335  12.344
 3162TIP3   OH230900   1.492   1.418  12.971
 3162TIP3    H130901   1.395   1.429  12.983
 3162TIP3    H230902   1.519   1.510  12.951
 3163TIP3   OH230903   1.528   0.246  13.116
 3163TIP3    H130904   1.453   0.305  13.101
 3163TIP3    H230905   1.597   0.287  13.059
 3164TIP3   OH230906   0.818   0.059  12.840
 3164TIP3    H130907   0.817  -0.036  12.856
 3164TIP3    H230908   0.739   0.086  12.890
 3165TIP3   OH230909   1.318   1.597  12.630
 3165TIP3    H130910   1.361   1.525  12.579
 3165TIP3    H230911   1.362   1.676  12.591
 3166TIP3   OH230912   1.440   1.389  12.482
 3166TIP3    H130913   1.409   1.320  12.422
 3166TIP3    H230914   1.443   1.340  12.566
 3167TIP3   OH230915   1.601   1.249  13.331
 3167TIP3    H130916   1.616   1.183  13.259
 3167TIP3    H230917   1.622   1.333  13.287
 3168TIP3   OH230918   1.051   0.936  12.307
 3168TIP3    H130919   0.982   0.995  12.272
 3168TIP3    H230920   1.122   0.948  12.241
 3169TIP3   OH230921   1.059   0.795  12.008
 3169TIP3    H130922   1.130   0.793  12.075
 3169TIP3    H230923   1.089   0.723  11.952
 3170TIP3   OH230924   1.790   0.880  13.136
 3170TIP3    H130925   1.724   0.952  13.139
 3170TIP3    H230926   1.839   0.903  13.055
 3171TIP3   OH230927   1.396   0.957  12.399
 3171TIP3    H130928   1.322   0.983  12.459
 3171TIP3    H230929   1.443   0.891  12.452
 3172TIP3   OH230930   1.388   0.775  13.313
 3172TIP3    H130931   1.389   0.857  13.364
 3172TIP3    H230932   1.326   0.804  13.243
 3173TIP3   OH230933   0.559   1.026  12.592
 3173TIP3    H130934   0.523   0.985  12.509
 3173TIP3    H230935   0.619   0.955  12.625
 3174TIP3   OH230936   0.689   1.363  12.859
 3174TIP3    H130937   0.688   1.310  12.778
 3174TIP3    H230938   0.767   1.327  12.905
 3175TIP3   OH230939   0.593   0.899  12.958
 3175TIP3    H130940   0.646   0.910  12.877
 3175TIP3    H230941   0.629   0.967  13.019
 3176TIP3   OH230942   1.231   1.457  13.028
 3176TIP3    H130943   1.203   1.520  13.094
 3176TIP3    H230944   1.205   1.371  13.070
 3177TIP3   OH230945   0.685   1.343  13.427
 3177TIP3    H130946   0.643   1.417  13.476
 3177TIP3    H230947   0.618   1.323  13.357
 3178TIP3   OH230948   1.284   0.879  12.166
 3178TIP3    H130949   1.339   0.896  12.246
 3178TIP3    H230950   1.329   0.929  12.094
 3179TIP3   OH230951   0.379   0.960  13.345
 3179TIP3    H130952   0.383   1.028  13.414
 3179TIP3    H230953   0.285   0.968  13.322
 3180TIP3   OH230954   1.055   1.551  12.514
 3180TIP3    H130955   1.098   1.582  12.594
 3180TIP3    H230956   0.999   1.626  12.490
 3181TIP3   OH230957   0.509   1.544  13.502
 3181TIP3    H130958   0.502   1.537  13.405
 3181TIP3    H230959   0.415   1.534  13.529
 3182TIP3   OH230960   1.654   0.067  12.131
 3182TIP3    H130961   1.568   0.069  12.177
 3182TIP3    H230962   1.674   0.159  12.112
 3183TIP3   OH230963   0.455   0.926  12.355
 3183TIP3    H130964   0.426   1.004  12.303
 3183TIP3    H230965   0.390   0.860  12.331
 3184TIP3   OH230966   1.767   1.487  11.992
 3184TIP3    H130967   1.785   1.581  12.008
 3184TIP3    H230968   1.860   1.456  11.991
 3185TIP3   OH230969   0.124   1.154  13.217
 3185TIP3    H130970   0.046   1.169  13.159
 3185TIP3    H230971   0.083   1.077  13.263
 3186TIP3   OH230972   0.069   1.468  12.893
 3186TIP3    H130973   0.151   1.427  12.921
 3186TIP3    H230974   0.040   1.513  12.973
 3187TIP3   OH230975   1.863   1.514  13.490
 3187TIP3    H130976   1.851   1.418  13.487
 3187TIP3    H230977   1.775   1.539  13.528
 3188TIP3   OH230978   0.958   1.468  13.376
 3188TIP3    H130979   0.964   1.552  13.426
 3188TIP3    H230980   0.871   1.432  13.401
 3189TIP3   OH230981   1.003   1.842  12.355
 3189TIP3    H130982   0.992   1.834  12.258
 3189TIP3    H230983   1.003   1.938  12.370
 3190TIP3   OH230984   0.365   1.730  12.536
 3190TIP3    H130985   0.380   1.690  12.624
 3190TIP3    H230986   0.282   1.687  12.512
 3191TIP3   OH230987   1.308   1.763  12.053
 3191TIP3    H130988   1.354   1.688  12.010
 3191TIP3    H230989   1.312   1.737  12.147
 3192TIP3   OH230990   1.278   1.757  12.330
 3192TIP3    H130991   1.181   1.764  12.348
 3192TIP3    H230992   1.301   1.683  12.388
 3193TIP3   OH230993   1.578   0.659  13.536
 3193TIP3    H130994   1.530   0.705  13.465
 3193TIP3    H230995   1.576   0.567  13.506
 3194TIP3   OH230996   0.293   1.309  13.343
 3194TIP3    H130997   0.311   1.265  13.428
 3194TIP3    H230998   0.209   1.264  13.316
 3195TIP3   OH230999   0.557   0.147  12.934
 3195TIP3    H131000   0.468   0.139  12.895
 3195TIP3    H231001   0.546   0.232  12.980
 3196TIP3   OH231002   1.021   0.118  13.273
 3196TIP3    H131003   1.064   0.076  13.348
 3196TIP3    H231004   0.926   0.107  13.289
 3197TIP3   OH231005   1.352   0.496  13.359
 3197TIP3    H131006   1.294   0.481  13.437
 3197TIP3    H231007   1.336   0.589  13.334
 3198TIP3   OH231008   1.428   0.982  11.948
 3198TIP3    H131009   1.426   0.963  11.851
 3198TIP3    H231010   1.514   1.026  11.953
 3199TIP3   OH231011   0.988   0.373  12.000
 3199TIP3    H131012   0.955   0.366  12.091
 3199TIP3    H231013   0.957   0.286  11.969
 3200TIP3   OH231014   0.568   0.646  13.057
 3200TIP3    H131015   0.496   0.647  13.123
 3200TIP3    H231016   0.566   0.737  13.020
 3201TIP3   OH231017   0.568   0.659  12.543
 3201TIP3    H131018   0.474   0.635  12.529
 3201TIP3    H231019   0.605   0.629  12.458
 3202TIP3   OH231020   1.118   0.709  12.421
 3202TIP3    H131021   1.078   0.791  12.384
 3202TIP3    H231022   1.187   0.691  12.355
 3203TIP3   OH231023   1.023   0.730  13.564
 3203TIP3    H131024   0.970   0.652  13.595
 3203TIP3    H231025   1.107   0.717  13.612
 3204TIP3   OH231026   1.221   0.658  12.705
 3204TIP3    H131027   1.193   0.713  12.631
 3204TIP3    H231028   1.230   0.573  12.658
 3205TIP3   OH231029   0.335   0.670  13.225
 3205TIP3    H131030   0.337   0.712  13.313
 3205TIP3    H231031   0.283   0.590  13.245
 3206TIP3   OH231032   0.669   0.413  11.912
 3206TIP3    H131033   0.623   0.369  11.986
 3206TIP3    H231034   0.598   0.452  11.859
 3207TIP3   OH231035   0.035   0.414  12.603
 3207TIP3    H131036   0.069   0.382  12.690
 3207TIP3    H231037   0.049   0.338  12.548
 3208TIP3   OH231038   0.124   0.469  12.159
 3208TIP3    H131039   0.179   0.522  12.098
 3208TIP3    H231040   0.050   0.526  12.180
 3209TIP3   OH231041   1.140   0.816  13.160
 3209TIP3    H131042   1.179   0.747  13.102
 3209TIP3    H231043   1.094   0.763  13.228
 3210TIP3   OH231044   0.821   0.413  12.642
 3210TIP3    H131045   0.728   0.413  12.673
 3210TIP3    H231046   0.870   0.398  12.724
 3211TIP3   OH231047   0.304   0.569  12.530
 3211TIP3    H131048   0.216   0.585  12.491
 3211TIP3    H231049   0.330   0.485  12.488
 3212TIP3   OH231050   0.666   0.573  12.293
 3212TIP3    H131051   0.762   0.584  12.309
 3212TIP3    H231052   0.641   0.642  12.230
 3213TIP3   OH231053   1.262   0.335  12.968
 3213TIP3    H131054   1.193   0.343  13.037
 3213TIP3    H231055   1.211   0.308  12.889
 3214TIP3   OH231056   0.538   0.690  12.051
 3214TIP3    H131057   0.484   0.654  11.979
 3214TIP3    H231058   0.620   0.712  12.004
 3215TIP3   OH231059   1.581   1.901  13.601
 3215TIP3    H131060   1.609   1.938  13.516
 3215TIP3    H231061   1.654   1.933  13.657
 3216TIP3   OH231062   0.347   1.146  13.559
 3216TIP3    H131063   0.421   1.171  13.618
 3216TIP3    H231064   0.272   1.159  13.620
 3217TIP3   OH231065   0.949   0.688  12.833
 3217TIP3    H131066   1.010   0.634  12.780
 3217TIP3    H231067   0.934   0.634  12.912
 3218TIP3   OH231068   0.447   0.308  12.477
 3218TIP3    H131069   0.417   0.216  12.479
 3218TIP3    H231070   0.526   0.300  12.422
 3219TIP3   OH231071   0.814   0.527  13.073
 3219TIP3    H131072   0.730   0.575  13.084
 3219TIP3    H231073   0.869   0.558  13.148
 3220TIP3   OH231074   0.872   1.144  12.245
 3220TIP3    H131075   0.792   1.097  12.211
 3220TIP3    H231076   0.849   1.156  12.339
 3221TIP3   OH231077   1.591   1.064  13.125
 3221TIP3    H131078   1.647   1.113  13.062
 3221TIP3    H231079   1.505   1.069  13.079
 3222TIP3   OH231080   1.253   0.426  12.064
 3222TIP3    H131081   1.158   0.442  12.048
 3222TIP3    H231082   1.288   0.511  12.097
 3223TIP3   OH231083   1.021   1.171  13.369
 3223TIP3    H131084   0.986   1.128  13.448
 3223TIP3    H231085   0.995   1.263  13.380
 3224TIP3   OH231086   1.329   0.617  12.224
 3224TIP3    H131087   1.417   0.603  12.265
 3224TIP3    H231088   1.339   0.700  12.174
 3225TIP3   OH231089   0.383   1.084  12.823
 3225TIP3    H131090   0.450   1.075  12.754
 3225TIP3    H231091   0.392   1.000  12.871
 3226TIP3   OH231092   1.081   1.291  12.148
 3226TIP3    H131093   1.047   1.375  12.183
 3226TIP3    H231094   1.008   1.229  12.169
 3227TIP3   OH231095   0.081   0.921  13.351
 3227TIP3    H131096   0.104   0.877  13.435
 3227TIP3    H231097   0.019   0.860  13.309
 3228TIP3   OH231098   0.783   0.880  13.568
 3228TIP3    H131099   0.751   0.849  13.482
 3228TIP3    H231100   0.875   0.847  13.568
 3229TIP3   OH231101   1.252   1.413  13.364
 3229TIP3    H131102   1.159   1.431  13.340
 3229TIP3    H231103   1.248   1.443  13.457
 3230TIP3   OH231104   1.822   0.631  12.201
 3230TIP3    H131105   1.759   0.605  12.131
 3230TIP3    H231106   1.828   0.727  12.176
 3231TIP3   OH231107   1.817   1.218  13.483
 3231TIP3    H131108   1.728   1.240  13.447
 3231TIP3    H231109   1.872   1.212  13.402
 3232TIP3   OH231110   1.644   1.514  12.242
 3232TIP3    H131111   1.611   1.430  12.277
 3232TIP3    H231112   1.679   1.492  12.154
 3233TIP3   OH231113   1.368   0.996  12.953
 3233TIP3    H131114   1.274   0.975  12.942
 3233TIP3    H231115   1.411   0.920  12.909
 3234TIP3   OH231116   0.619   1.430  12.564
 3234TIP3    H131117   0.670   1.509  12.543
 3234TIP3    H231118   0.531   1.452  12.531
 3235TIP3   OH231119   0.192   0.914  12.024
 3235TIP3    H131120   0.256   0.979  12.059
 3235TIP3    H231121   0.106   0.949  12.050
 3236TIP3   OH231122   0.761   1.196  12.514
 3236TIP3    H131123   0.730   1.288  12.524
 3236TIP3    H231124   0.690   1.146  12.559
 3237TIP3   OH231125   0.808   1.613  13.156
 3237TIP3    H131126   0.853   1.695  13.127
 3237TIP3    H231127   0.869   1.580  13.224
 3238TIP3   OH231128   0.629   1.694  12.467
 3238TIP3    H131129   0.533   1.709  12.481
 3238TIP3    H231130   0.666   1.778  12.502
 3239TIP3   OH231131   1.159   1.213  13.117
 3239TIP3    H131132   1.127   1.194  13.208
 3239TIP3    H231133   1.223   1.143  13.101
 3240TIP3   OH231134   1.393   1.322  12.027
 3240TIP3    H131135   1.423   1.274  12.107
 3240TIP3    H231136   1.298   1.303  12.035
 3241TIP3   OH231137   1.441   1.672  13.366
 3241TIP3    H131138   1.372   1.622  13.319
 3241TIP3    H231139   1.459   1.742  13.300
 3242TIP3   OH231140   1.840   1.756  12.052
 3242TIP3    H131141   1.909   1.822  12.031
 3242TIP3    H231142   1.769   1.818  12.081
 3243TIP3   OH231143   0.249   0.395  13.304
 3243TIP3    H131144   0.160   0.433  13.311
 3243TIP3    H231145   0.234   0.308  13.348
 3244TIP3   OH231146   1.470   1.185  12.251
 3244TIP3    H131147   1.447   1.106  12.304
 3244TIP3    H231148   1.566   1.189  12.269
 3245TIP3   OH231149   0.226   1.581  13.144
 3245TIP3    H131150   0.237   1.485  13.150
 3245TIP3    H231151   0.233   1.604  13.237
 3246TIP3   OH231152   0.806   1.428  11.876
 3246TIP3    H131153   0.816   1.352  11.817
 3246TIP3    H231154   0.762   1.385  11.953
 3247TIP3   OH231155   0.683   1.381  12.121
 3247TIP3    H131156   0.710   1.330  12.198
 3247TIP3    H231157   0.692   1.474  12.154
 3248TIP3   OH231158   0.332   1.105  12.169
 3248TIP3    H131159   0.261   1.145  12.224
 3248TIP3    H231160   0.385   1.183  12.142
 3249TIP3   OH231161   1.121   0.373  13.201
 3249TIP3    H131162   1.193   0.380  13.265
 3249TIP3    H231163   1.084   0.285  13.219
 3250TIP3   OH231164   1.198   0.331  12.313
 3250TIP3    H131165   1.217   0.377  12.228
 3250TIP3    H231166   1.251   0.382  12.375
 3251TIP3   OH231167   0.964   1.547  12.191
 3251TIP3    H131168   0.882   1.601  12.198
 3251TIP3    H231169   1.017   1.602  12.132
 3252TIP3   OH231170   0.919   0.504  12.393
 3252TIP3    H131171   0.995   0.565  12.397
 3252TIP3    H231172   0.893   0.495  12.487
 3253TIP3   OH231173   0.973   0.609  13.312
 3253TIP3    H131174   0.981   0.664  13.392
 3253TIP3    H231175   1.039   0.539  13.321
 3254TIP3   OH231176   1.005   0.213  12.485
 3254TIP3    H131177   0.970   0.280  12.546
 3254TIP3    H231178   1.071   0.268  12.436
 3255TIP3   OH231179   0.704   1.650  12.194
 3255TIP3    H131180   0.713   1.732  12.138
 3255TIP3    H231181   0.676   1.687  12.281
 3256TIP3   OH231182   0.568   0.322  12.150
 3256TIP3    H131183   0.561   0.411  12.189
 3256TIP3    H231184   0.660   0.302  12.176
 3257TIP3   OH231185   1.591   0.396  13.398
 3257TIP3    H131186   1.498   0.428  13.384
 3257TIP3    H231187   1.621   0.393  13.305
 3258TIP3   OH231188   1.452   0.775  12.796
 3258TIP3    H131189   1.369   0.731  12.769
 3258TIP3    H231190   1.500   0.707  12.848
 3259TIP3   OH231191   0.390   1.368  12.056
 3259TIP3    H131192   0.457   1.431  12.087
 3259TIP3    H231193   0.443   1.320  11.989
 3260TIP3   OH231194   0.220   0.634  11.972
 3260TIP3    H131195   0.228   0.730  11.989
 3260TIP3    H231196   0.133   0.617  11.935
 3261TIP3   OH231197   1.558   1.701  12.964
 3261TIP3    H131198   1.550   1.769  12.894
 3261TIP3    H231199   1.655   1.706  12.981
 3262TIP3   OH231200   0.287   0.128  12.851
 3262TIP3    H131201   0.289   0.120  12.753
 3262TIP3    H231202   0.265   0.036  12.874
 3263TIP3   OH231203   0.205   1.506  12.461
 3263TIP3    H131204   0.119   1.548  12.455
 3263TIP3    H231205   0.252   1.551  12.390
 3264TIP3   OH231206   0.164   1.768  13.573
 3264TIP3    H131207   0.186   1.757  13.668
 3264TIP3    H231208   0.099   1.695  13.570
 3265TIP3   OH231209   0.592   1.660  13.748
 3265TIP3    H131210   0.668   1.611  13.781
 3265TIP3    H231211   0.589   1.634  13.654
 3266TIP3   OH231212   1.005   1.613  11.889
 3266TIP3    H131213   0.936   1.548  11.911
 3266TIP3    H231214   1.077   1.554  11.864
 3267TIP3   OH231215   1.242   1.501  13.623
 3267TIP3    H131216   1.211   1.412  13.651
 3267TIP3    H231217   1.319   1.512  13.682
 3268TIP3   OH231218   1.461   1.588  11.907
 3268TIP3    H131219   1.491   1.510  11.958
 3268TIP3    H231220   1.538   1.610  11.852
 3269TIP3   OH231221   0.113   1.149  13.687
 3269TIP3    H131222   0.133   1.059  13.654
 3269TIP3    H231223   0.040   1.176  13.629
 3270TIP3   OH231224   0.550   1.182  11.889
 3270TIP3    H131225   0.563   1.106  11.947
 3270TIP3    H231226   0.625   1.170  11.827
 3271TIP3   OH231227   0.786   1.146  13.626
 3271TIP3    H131228   0.753   1.178  13.539
 3271TIP3    H231229   0.794   1.049  13.615
 3272TIP3   OH231230   1.093   1.293  11.867
 3272TIP3    H131231   1.066   1.301  11.960
 3272TIP3    H231232   1.074   1.197  11.852
 3273TIP3   OH231233   1.356   1.132  13.365
 3273TIP3    H131234   1.435   1.191  13.359
 3273TIP3    H231235   1.286   1.199  13.368
 3274TIP3   OH231236   0.201   0.868  13.624
 3274TIP3    H131237   0.251   0.785  13.617
 3274TIP3    H231238   0.183   0.870  13.720
 3275TIP3   OH231239   0.670   0.984  12.132
 3275TIP3    H131240   0.620   0.930  12.195
 3275TIP3    H231241   0.700   0.917  12.067
 3276TIP3   OH231242   0.596   0.764  13.361
 3276TIP3    H131243   0.535   0.835  13.386
 3276TIP3    H231244   0.636   0.801  13.280
 3277TIP3   OH231245   0.778   0.806  11.952
 3277TIP3    H131246   0.762   0.797  11.856
 3277TIP3    H231247   0.875   0.811  11.958
 3278TIP3   OH231248   1.104   1.021  13.694
 3278TIP3    H131249   1.200   1.020  13.682
 3278TIP3    H231250   1.087   0.944  13.751
 3279TIP3   OH231251   1.710   1.039  11.893
 3279TIP3    H131252   1.691   1.000  11.806
 3279TIP3    H231253   1.719   1.135  11.874
 3280TIP3   OH231254   0.639   0.502  13.466
 3280TIP3    H131255   0.649   0.431  13.401
 3280TIP3    H231256   0.631   0.583  13.411
 3281TIP3   OH231257   0.677   0.343  13.219
 3281TIP3    H131258   0.729   0.390  13.149
 3281TIP3    H231259   0.588   0.332  13.178
 3282TIP3   OH231260   0.831   0.889  13.246
 3282TIP3    H131261   0.907   0.873  13.189
 3282TIP3    H231262   0.795   0.973  13.212
 3283TIP3   OH231263   1.271   0.664  13.742
 3283TIP3    H131264   1.295   0.571  13.733
 3283TIP3    H231265   1.357   0.709  13.745
 3284TIP3   OH231266   1.405   0.944  13.559
 3284TIP3    H131267   1.380   1.016  13.497
 3284TIP3    H231268   1.501   0.941  13.540
 3285TIP3   OH231269   0.480   0.629  13.657
 3285TIP3    H131270   0.404   0.569  13.641
 3285TIP3    H231271   0.547   0.592  13.597
 3286TIP3   OH231272   0.742   0.104  13.288
 3286TIP3    H131273   0.735   0.198  13.258
 3286TIP3    H231274   0.684   0.062  13.224
 3287TIP3   OH231275   0.882   0.520  13.622
 3287TIP3    H131276   0.854   0.489  13.710
 3287TIP3    H231277   0.804   0.495  13.569
 3288TIP3   OH231278   1.156   0.433  13.533
 3288TIP3    H131279   1.059   0.435  13.544
 3288TIP3    H231280   1.184   0.369  13.602
 3289TIP3   OH231281   1.315   0.304  13.725
 3289TIP3    H131282   1.306   0.206  13.723
 3289TIP3    H231283   1.286   0.324  13.816
 3290TIP3   OH231284   0.306   0.419  13.637
 3290TIP3    H131285   0.320   0.346  13.574
 3290TIP3    H231286   0.286   0.372  13.720
 3291TIP3   OH231287   0.776   7.324  13.534
 3291TIP3    H131288   0.845   7.257  13.539
 3291TIP3    H231289   0.766   7.345  13.439
 3292TIP3   OH231290   0.817   0.192  13.738
 3292TIP3    H131291   0.799   0.135  13.661
 3292TIP3    H231292   0.753   0.264  13.731
 3293TIP3   OH231293   0.761   1.876  12.060
 3293TIP3    H131294   0.857   1.885  12.066
 3293TIP3    H231295   0.746   1.936  11.986
 3294TIP3   OH231296   0.120   1.334  12.008
 3294TIP3    H131297   0.216   1.345  12.025
 3294TIP3    H231298   0.124   1.269  11.934
 3295TIP3   OH231299   7.338   1.888  12.486
 3295TIP3    H131300   7.247   1.867  12.456
 3295TIP3    H231301   7.347   1.825  12.562
 3296TIP3   OH231302   0.079   1.690  12.686
 3296TIP3    H131303   0.044   1.601  12.709
 3296TIP3    H231304   0.104   1.718  12.776
 3297TIP3   OH231305   1.830   1.765  12.984
 3297TIP3    H131306   1.834   1.781  13.079
 3297TIP3    H231307   1.901   1.824  12.953
 3298TIP3   OH231308   1.788   1.725  13.278
 3298TIP3    H131309   1.741   1.648  13.240
 3298TIP3    H231310   1.836   1.680  13.349
 3299TIP3   OH231311   1.632   1.297  13.746
 3299TIP3    H131312   1.542   1.294  13.782
 3299TIP3    H231313   1.669   1.377  13.786
 3300TIP3   OH231314   1.764   1.130  12.288
 3300TIP3    H131315   1.850   1.169  12.307
 3300TIP3    H231316   1.762   1.058  12.355
 3301TIP3   OH231317   1.800   0.938  12.477
 3301TIP3    H131318   1.725   0.888  12.517
 3301TIP3    H231319   1.860   0.951  12.554
 3302TIP3   OH231320   1.775   1.207  12.976
 3302TIP3    H131321   1.857   1.169  12.937
 3302TIP3    H231322   1.790   1.302  12.959
 3303TIP3   OH231323   1.631   1.498  13.202
 3303TIP3    H131324   1.562   1.532  13.261
 3303TIP3    H231325   1.577   1.457  13.132
 3304TIP3   OH231326   1.830   0.920  12.116
 3304TIP3    H131327   1.773   0.954  12.044
 3304TIP3    H231328   1.822   0.992  12.181
 3305TIP3   OH231329   1.671   0.643  11.967
 3305TIP3    H131330   1.673   0.711  11.899
 3305TIP3    H231331   1.646   0.562  11.918
 3306TIP3   OH231332   1.582   0.785  12.534
 3306TIP3    H131333   1.567   0.689  12.530
 3306TIP3    H231334   1.549   0.806  12.623
 3307TIP3   OH231335   0.084   0.994  12.932
 3307TIP3    H131336   0.104   0.987  12.836
 3307TIP3    H231337   0.172   0.981  12.974
 3308TIP3   OH231338   1.668   0.981  13.503
 3308TIP3    H131339   1.729   0.906  13.516
 3308TIP3    H231340   1.728   1.059  13.503
 3309TIP3   OH231341   1.818   0.770  13.568
 3309TIP3    H131342   1.730   0.730  13.553
 3309TIP3    H231343   1.875   0.691  13.561
 3310TIP3   OH231344   1.594   0.389  11.881
 3310TIP3    H131345   1.649   0.346  11.949
 3310TIP3    H231346   1.505   0.349  11.896
 3311TIP3   OH231347   1.546   0.544  12.376
 3311TIP3    H131348   1.578   0.453  12.391
 3311TIP3    H231349   1.629   0.585  12.345
 3312TIP3   OH231350   1.612   0.600  12.924
 3312TIP3    H131351   1.709   0.621  12.923
 3312TIP3    H231352   1.594   0.611  13.018
 3313TIP3   OH231353   1.618   0.672  13.201
 3313TIP3    H131354   1.530   0.699  13.234
 3313TIP3    H231355   1.662   0.757  13.180
 3314TIP3   OH231356   0.073   0.513  13.558
 3314TIP3    H131357   0.162   0.488  13.586
 3314TIP3    H231358   0.014   0.442  13.592
 3315TIP3   OH231359   1.852   0.077  13.739
 3315TIP3    H131360   1.876   0.010  13.673
 3315TIP3    H231361   1.853   0.159  13.686
 3316TIP3   OH231362   1.615   0.275  12.385
 3316TIP3    H131363   1.635   0.228  12.469
 3316TIP3    H231364   1.557   0.210  12.338
 3317TIP3   OH231365   0.165   0.355  12.836
 3317TIP3    H131366   0.208   0.272  12.867
 3317TIP3    H231367   0.219   0.421  12.881
 3318TIP3   OH231368   0.049   0.727  12.981
 3318TIP3    H131369   0.050   0.684  12.893
 3318TIP3    H231370   0.055   0.818  12.954
 3319TIP3   OH231371   1.799   0.282  13.570
 3319TIP3    H131372   1.706   0.312  13.565
 3319TIP3    H231373   1.803   0.229  13.488
 3320TIP3   OH231374   1.800   0.277  12.038
 3320TIP3    H131375   1.835   0.199  11.988
 3320TIP3    H231376   1.870   0.342  12.047
 3321TIP3   OH231377   0.075   0.271  12.309
 3321TIP3    H131378  -0.018   0.293  12.321
 3321TIP3    H231379   0.098   0.345  12.249
 3322TIP3   OH231380   1.502   1.774  12.547
 3322TIP3    H131381   1.571   1.743  12.484
 3322TIP3    H231382   1.554   1.823  12.612
 3323TIP3   OH231383   7.348   0.146  13.207
 3323TIP3    H131384   7.267   0.123  13.252
 3323TIP3    H231385   7.304   0.192  13.133
 3324TIP3   OH231386   0.244   1.461  13.597
 3324TIP3    H131387   0.159   1.486  13.556
 3324TIP3    H231388   0.218   1.460  13.690
 3325TIP3   OH231389   0.541   1.566  13.228
 3325TIP3    H131390   0.501   1.650  13.198
 3325TIP3    H231391   0.632   1.575  13.193
 3326TIP3   OH231392   0.970   1.707  13.515
 3326TIP3    H131393   0.983   1.671  13.606
 3326TIP3    H231394   1.060   1.737  13.491
 3327TIP3   OH231395   1.198   1.833  13.446
 3327TIP3    H131396   1.272   1.775  13.423
 3327TIP3    H231397   1.236   1.877  13.526
 3328TIP3   OH231398   1.701   0.097  13.348
 3328TIP3    H131399   1.616   0.128  13.311
 3328TIP3    H231400   1.716   0.012  13.302
 3329TIP3   OH231401   0.283   1.888  13.228
 3329TIP3    H131402   0.208   1.937  13.188
 3329TIP3    H231403   0.248   1.869  13.316
 3330TIP3   OH231404   0.528   1.847  13.130
 3330TIP3    H131405   0.439   1.859  13.170
 3330TIP3    H231406   0.523   1.906  13.054
 3331TIP3   OH231407   0.998   1.837  13.048
 3331TIP3    H131408   0.951   1.893  12.984
 3331TIP3    H231409   1.011   1.900  13.122
 3332TIP3   OH231410   1.226   1.718  13.152
 3332TIP3    H131411   1.141   1.746  13.115
 3332TIP3    H231412   1.275   1.801  13.142
 3333TIP3   OH231413   1.485   1.875  13.174
 3333TIP3    H131414   1.479   1.971  13.151
 3333TIP3    H231415   1.506   1.837  13.086
 3334TIP3   OH231416   0.221   1.753  12.918
 3334TIP3    H131417   0.221   1.709  13.005
 3334TIP3    H231418   0.302   1.716  12.879
 3335TIP3   OH231419   0.431   1.625  12.785
 3335TIP3    H131420   0.415   1.531  12.808
 3335TIP3    H231421   0.517   1.640  12.829
 3336TIP3   OH231422   0.692   1.672  12.872
 3336TIP3    H131423   0.710   1.580  12.846
 3336TIP3    H231424   0.699   1.667  12.969
 3337TIP3   OH231425   1.028   0.244  12.784
 3337TIP3    H131426   0.969   0.172  12.812
 3337TIP3    H231427   1.096   0.195  12.734
 3338TIP3   OH231428   1.554   0.045  12.795
 3338TIP3    H131429   1.616   0.100  12.743
 3338TIP3    H231430   1.467   0.079  12.771
 3339TIP3   OH231431   1.722   0.171  12.620
 3339TIP3    H131432   1.786   0.111  12.579
 3339TIP3    H231433   1.773   0.254  12.629
 3340TIP3   OH231434   0.275   0.103  12.572
 3340TIP3    H131435   0.200   0.078  12.517
 3340TIP3    H231436   0.323   0.019  12.577
 3341TIP3   OH231437   0.157   0.073  12.138
 3341TIP3    H131438   0.204   0.140  12.087
 3341TIP3    H231439   0.097   0.130  12.190
 3342TIP3   OH231440   0.730   0.086  12.548
 3342TIP3    H131441   0.815   0.132  12.544
 3342TIP3    H231442   0.720   0.070  12.642
 3343TIP3   OH231443   1.269   0.132  12.727
 3343TIP3    H131444   1.283   0.127  12.632
 3343TIP3    H231445   1.260   0.034  12.741
 3344TIP3   OH231446   1.423   0.102  12.283
 3344TIP3    H131447   1.347   0.158  12.261
 3344TIP3    H231448   1.382   0.015  12.298
 3345TIP3   OH231449   0.145   1.674  12.248
 3345TIP3    H131450   0.085   1.671  12.173
 3345TIP3    H231451   0.147   1.770  12.262
 3346TIP3   OH231452   0.334   0.267  11.998
 3346TIP3    H131453   0.388   0.209  11.940
 3346TIP3    H231454   0.403   0.301  12.057
 3347TIP3   OH231455   0.831   0.294  12.239
 3347TIP3    H131456   0.867   0.237  12.310
 3347TIP3    H231457   0.847   0.381  12.282
 3348TIP3   OH231458   1.032   1.801  12.079
 3348TIP3    H131459   1.124   1.824  12.057
 3348TIP3    H231460   1.010   1.749  11.999
 3349TIP3   OH231461   1.701   1.751  12.351
 3349TIP3    H131462   1.683   1.673  12.294
 3349TIP3    H231463   1.695   1.825  12.286
 3350TIP3   OH231464   0.254   0.153  13.505
 3350TIP3    H131465   0.221   0.078  13.556
 3350TIP3    H231466   0.345   0.154  13.544
 3351TIP3   OH231467   0.438   0.113  13.669
 3351TIP3    H131468   0.532   0.094  13.655
 3351TIP3    H231469   0.423   0.027  13.714
 3352TIP3   OH231470   0.324   1.766  11.938
 3352TIP3    H131471   0.299   1.793  12.027
 3352TIP3    H231472   0.405   1.714  11.955
 3353TIP3   OH231473   1.296   7.359  13.686
 3353TIP3    H131474   1.302   7.303  13.767
 3353TIP3    H231475   1.386   7.337  13.655
 3354TIP3   OH231476   1.626   1.626  13.558
 3354TIP3    H131477   1.546   1.613  13.503
 3354TIP3    H231478   1.615   1.721  13.580
 3355TIP3   OH231479   3.071   1.014  12.555
 3355TIP3    H131480   3.069   1.112  12.553
 3355TIP3    H231481   2.998   0.991  12.496
 3356TIP3   OH231482   2.956   0.939  12.906
 3356TIP3    H131483   2.955   0.875  12.978
 3356TIP3    H231484   2.921   0.889  12.831
 3357TIP3   OH231485   2.192   0.907  13.061
 3357TIP3    H131486   2.200   0.838  13.131
 3357TIP3    H231487   2.267   0.964  13.084
 3358TIP3   OH231488   3.325   1.234  12.734
 3358TIP3    H131489   3.284   1.163  12.784
 3358TIP3    H231490   3.327   1.305  12.802
 3359TIP3   OH231491   2.284   1.352  12.911
 3359TIP3    H131492   2.253   1.265  12.880
 3359TIP3    H231493   2.380   1.334  12.916
 3360TIP3   OH231494   1.948   0.708  12.461
 3360TIP3    H131495   1.904   0.794  12.454
 3360TIP3    H231496   1.892   0.654  12.403
 3361TIP3   OH231497   2.019   0.932  12.675
 3361TIP3    H131498   2.046   0.849  12.720
 3361TIP3    H231499   2.089   0.941  12.608
 3362TIP3   OH231500   3.037   1.750  12.759
 3362TIP3    H131501   3.102   1.681  12.730
 3362TIP3    H231502   3.015   1.716  12.845
 3363TIP3   OH231503   2.794   1.179  12.953
 3363TIP3    H131504   2.828   1.117  12.887
 3363TIP3    H231505   2.875   1.195  13.005
 3364TIP3   OH231506   3.652   0.345  13.025
 3364TIP3    H131507   3.672   0.402  13.103
 3364TIP3    H231508   3.709   0.387  12.959
 3365TIP3   OH231509   3.111   0.626  12.986
 3365TIP3    H131510   3.126   0.530  12.986
 3365TIP3    H231511   3.100   0.641  12.890
 3366TIP3   OH231512   2.423   0.436  12.706
 3366TIP3    H131513   2.433   0.520  12.656
 3366TIP3    H231514   2.382   0.379  12.639
 3367TIP3   OH231515   3.196   0.441  12.543
 3367TIP3    H131516   3.261   0.413  12.612
 3367TIP3    H231517   3.251   0.500  12.490
 3368TIP3   OH231518   2.084   0.677  12.780
 3368TIP3    H131519   2.151   0.622  12.825
 3368TIP3    H231520   2.095   0.645  12.689
 3369TIP3   OH231521   2.600   0.832  12.712
 3369TIP3    H131522   2.667   0.774  12.751
 3369TIP3    H231523   2.548   0.766  12.661
 3370TIP3   OH231524   3.699   0.486  13.253
 3370TIP3    H131525   3.636   0.561  13.243
 3370TIP3    H231526   3.701   0.475  13.349
 3371TIP3   OH231527   2.314   0.331  13.109
 3371TIP3    H131528   2.282   0.384  13.034
 3371TIP3    H231529   2.244   0.348  13.176
 3372TIP3   OH231530   3.042   1.273  12.465
 3372TIP3    H131531   3.015   1.246  12.376
 3372TIP3    H231532   3.011   1.366  12.470
 3373TIP3   OH231533   2.564   1.089  13.134
 3373TIP3    H131534   2.494   1.154  13.156
 3373TIP3    H231535   2.635   1.149  13.105
 3374TIP3   OH231536   3.378   0.376  12.741
 3374TIP3    H131537   3.353   0.302  12.798
 3374TIP3    H231538   3.444   0.421  12.796
 3375TIP3   OH231539   2.269   0.516  12.911
 3375TIP3    H131540   2.334   0.580  12.945
 3375TIP3    H231541   2.321   0.471  12.840
 3376TIP3   OH231542   2.409   1.290  13.216
 3376TIP3    H131543   2.404   1.381  13.182
 3376TIP3    H231544   2.321   1.282  13.259
 3377TIP3   OH231545   2.016   1.250  12.296
 3377TIP3    H131546   1.992   1.283  12.208
 3377TIP3    H231547   2.026   1.334  12.345
 3378TIP3   OH231548   3.378   1.418  12.971
 3378TIP3    H131549   3.281   1.429  12.983
 3378TIP3    H231550   3.405   1.510  12.951
 3379TIP3   OH231551   3.414   0.246  13.116
 3379TIP3    H131552   3.339   0.305  13.101
 3379TIP3    H231553   3.482   0.287  13.059
 3380TIP3   OH231554   2.704   0.059  12.839
 3380TIP3    H131555   2.703  -0.036  12.856
 3380TIP3    H231556   2.625   0.086  12.889
 3381TIP3   OH231557   3.204   1.597  12.630
 3381TIP3    H131558   3.247   1.525  12.579
 3381TIP3    H231559   3.247   1.676  12.591
 3382TIP3   OH231560   3.325   1.389  12.482
 3382TIP3    H131561   3.295   1.320  12.422
 3382TIP3    H231562   3.328   1.340  12.566
 3383TIP3   OH231563   3.486   1.249  13.331
 3383TIP3    H131564   3.501   1.184  13.259
 3383TIP3    H231565   3.509   1.333  13.288
 3384TIP3   OH231566   2.936   0.936  12.307
 3384TIP3    H131567   2.867   0.995  12.271
 3384TIP3    H231568   3.007   0.948  12.241
 3385TIP3   OH231569   2.944   0.794  12.009
 3385TIP3    H131570   3.015   0.793  12.075
 3385TIP3    H231571   2.975   0.723  11.952
 3386TIP3   OH231572   3.675   0.880  13.136
 3386TIP3    H131573   3.610   0.952  13.139
 3386TIP3    H231574   3.725   0.903  13.055
 3387TIP3   OH231575   3.282   0.958  12.400
 3387TIP3    H131576   3.207   0.983  12.460
 3387TIP3    H231577   3.329   0.891  12.452
 3388TIP3   OH231578   3.274   0.775  13.313
 3388TIP3    H131579   3.275   0.857  13.364
 3388TIP3    H231580   3.211   0.804  13.243
 3389TIP3   OH231581   2.442   1.025  12.592
 3389TIP3    H131582   2.410   0.987  12.506
 3389TIP3    H231583   2.504   0.955  12.625
 3390TIP3   OH231584   2.574   1.363  12.859
 3390TIP3    H131585   2.574   1.311  12.778
 3390TIP3    H231586   2.653   1.327  12.905
 3391TIP3   OH231587   2.475   0.899  12.958
 3391TIP3    H131588   2.530   0.909  12.878
 3391TIP3    H231589   2.514   0.966  13.018
 3392TIP3   OH231590   3.117   1.457  13.029
 3392TIP3    H131591   3.088   1.520  13.094
 3392TIP3    H231592   3.091   1.371  13.070
 3393TIP3   OH231593   2.571   1.343  13.427
 3393TIP3    H131594   2.529   1.416  13.476
 3393TIP3    H231595   2.503   1.322  13.359
 3394TIP3   OH231596   3.169   0.879  12.166
 3394TIP3    H131597   3.225   0.896  12.246
 3394TIP3    H231598   3.214   0.929  12.094
 3395TIP3   OH231599   2.265   0.959  13.343
 3395TIP3    H131600   2.270   1.026  13.414
 3395TIP3    H231601   2.171   0.967  13.322
 3396TIP3   OH231602   2.940   1.551  12.514
 3396TIP3    H131603   2.983   1.582  12.594
 3396TIP3    H231604   2.884   1.626  12.490
 3397TIP3   OH231605   2.395   1.546  13.502
 3397TIP3    H131606   2.389   1.536  13.405
 3397TIP3    H231607   2.302   1.532  13.529
 3398TIP3   OH231608   3.538   0.067  12.133
 3398TIP3    H131609   3.451   0.070  12.176
 3398TIP3    H231610   3.562   0.158  12.110
 3399TIP3   OH231611   2.339   0.926  12.355
 3399TIP3    H131612   2.311   1.005  12.303
 3399TIP3    H231613   2.274   0.860  12.329
 3400TIP3   OH231614   3.653   1.487  11.992
 3400TIP3    H131615   3.669   1.582  12.008
 3400TIP3    H231616   3.745   1.456  11.991
 3401TIP3   OH231617   1.948   1.170  13.243
 3401TIP3    H131618   1.904   1.162  13.157
 3401TIP3    H231619   1.957   1.075  13.265
 3402TIP3   OH231620   1.925   1.443  12.921
 3402TIP3    H131621   2.020   1.432  12.919
 3402TIP3    H231622   1.916   1.525  12.971
 3403TIP3   OH231623   3.743   1.514  13.483
 3403TIP3    H131624   3.740   1.418  13.489
 3403TIP3    H231625   3.661   1.539  13.530
 3404TIP3   OH231626   2.844   1.468  13.376
 3404TIP3    H131627   2.849   1.552  13.426
 3404TIP3    H231628   2.757   1.432  13.401
 3405TIP3   OH231629   2.889   1.842  12.354
 3405TIP3    H131630   2.877   1.834  12.258
 3405TIP3    H231631   2.888   1.938  12.370
 3406TIP3   OH231632   2.252   1.730  12.537
 3406TIP3    H131633   2.266   1.688  12.624
 3406TIP3    H231634   2.168   1.688  12.511
 3407TIP3   OH231635   3.194   1.764  12.053
 3407TIP3    H131636   3.239   1.688  12.010
 3407TIP3    H231637   3.197   1.737  12.147
 3408TIP3   OH231638   3.164   1.757  12.331
 3408TIP3    H131639   3.068   1.765  12.347
 3408TIP3    H231640   3.187   1.682  12.388
 3409TIP3   OH231641   3.463   0.659  13.536
 3409TIP3    H131642   3.416   0.705  13.465
 3409TIP3    H231643   3.462   0.567  13.506
 3410TIP3   OH231644   2.177   1.301  13.334
 3410TIP3    H131645   2.198   1.266  13.423
 3410TIP3    H231646   2.089   1.262  13.315
 3411TIP3   OH231647   2.442   0.145  12.935
 3411TIP3    H131648   2.353   0.139  12.895
 3411TIP3    H231649   2.432   0.231  12.979
 3412TIP3   OH231650   2.907   0.118  13.273
 3412TIP3    H131651   2.950   0.076  13.348
 3412TIP3    H231652   2.812   0.107  13.289
 3413TIP3   OH231653   3.238   0.496  13.359
 3413TIP3    H131654   3.180   0.481  13.437
 3413TIP3    H231655   3.222   0.589  13.334
 3414TIP3   OH231656   3.314   0.982  11.948
 3414TIP3    H131657   3.312   0.963  11.851
 3414TIP3    H231658   3.400   1.026  11.953
 3415TIP3   OH231659   2.873   0.373  12.000
 3415TIP3    H131660   2.842   0.366  12.091
 3415TIP3    H231661   2.842   0.286  11.969
 3416TIP3   OH231662   2.455   0.647  13.059
 3416TIP3    H131663   2.381   0.645  13.121
 3416TIP3    H231664   2.450   0.737  13.020
 3417TIP3   OH231665   2.451   0.658  12.543
 3417TIP3    H131666   2.357   0.635  12.530
 3417TIP3    H231667   2.489   0.629  12.458
 3418TIP3   OH231668   3.004   0.709  12.421
 3418TIP3    H131669   2.964   0.791  12.384
 3418TIP3    H231670   3.073   0.691  12.355
 3419TIP3   OH231671   2.909   0.730  13.564
 3419TIP3    H131672   2.856   0.652  13.595
 3419TIP3    H231673   2.993   0.717  13.612
 3420TIP3   OH231674   3.107   0.658  12.705
 3420TIP3    H131675   3.078   0.713  12.631
 3420TIP3    H231676   3.116   0.573  12.658
 3421TIP3   OH231677   2.217   0.672  13.225
 3421TIP3    H131678   2.226   0.712  13.313
 3421TIP3    H231679   2.172   0.588  13.246
 3422TIP3   OH231680   2.554   0.412  11.912
 3422TIP3    H131681   2.509   0.370  11.987
 3422TIP3    H231682   2.485   0.455  11.860
 3423TIP3   OH231683   1.884   0.385  12.622
 3423TIP3    H131684   1.951   0.382  12.693
 3423TIP3    H231685   1.929   0.346  12.545
 3424TIP3   OH231686   2.008   0.453  12.156
 3424TIP3    H131687   2.061   0.516  12.104
 3424TIP3    H231688   1.942   0.516  12.193
 3425TIP3   OH231689   3.026   0.816  13.160
 3425TIP3    H131690   3.064   0.747  13.102
 3425TIP3    H231691   2.980   0.763  13.228
 3426TIP3   OH231692   2.707   0.413  12.642
 3426TIP3    H131693   2.614   0.413  12.673
 3426TIP3    H231694   2.756   0.398  12.724
 3427TIP3   OH231695   2.188   0.569  12.531
 3427TIP3    H131696   2.099   0.584  12.492
 3427TIP3    H231697   2.217   0.486  12.489
 3428TIP3   OH231698   2.552   0.573  12.294
 3428TIP3    H131699   2.648   0.583  12.310
 3428TIP3    H231700   2.528   0.642  12.229
 3429TIP3   OH231701   3.147   0.335  12.968
 3429TIP3    H131702   3.078   0.343  13.037
 3429TIP3    H231703   3.097   0.308  12.889
 3430TIP3   OH231704   2.422   0.689  12.052
 3430TIP3    H131705   2.369   0.654  11.979
 3430TIP3    H231706   2.504   0.711  12.006
 3431TIP3   OH231707   3.464   1.906  13.605
 3431TIP3    H131708   3.494   1.937  13.517
 3431TIP3    H231709   3.544   1.930  13.656
 3432TIP3   OH231710   2.235   1.149  13.558
 3432TIP3    H131711   2.307   1.173  13.619
 3432TIP3    H231712   2.158   1.157  13.618
 3433TIP3   OH231713   2.835   0.689  12.833
 3433TIP3    H131714   2.895   0.634  12.780
 3433TIP3    H231715   2.820   0.634  12.912
 3434TIP3   OH231716   2.334   0.307  12.477
 3434TIP3    H131717   2.303   0.214  12.479
 3434TIP3    H231718   2.413   0.298  12.422
 3435TIP3   OH231719   2.700   0.527  13.073
 3435TIP3    H131720   2.615   0.575  13.084
 3435TIP3    H231721   2.754   0.558  13.148
 3436TIP3   OH231722   2.758   1.143  12.245
 3436TIP3    H131723   2.678   1.098  12.211
 3436TIP3    H231724   2.735   1.156  12.339
 3437TIP3   OH231725   3.476   1.064  13.125
 3437TIP3    H131726   3.533   1.113  13.062
 3437TIP3    H231727   3.390   1.069  13.079
 3438TIP3   OH231728   3.139   0.426  12.065
 3438TIP3    H131729   3.044   0.442  12.048
 3438TIP3    H231730   3.174   0.512  12.097
 3439TIP3   OH231731   2.907   1.171  13.369
 3439TIP3    H131732   2.872   1.128  13.448
 3439TIP3    H231733   2.881   1.263  13.380
 3440TIP3   OH231734   3.215   0.617  12.224
 3440TIP3    H131735   3.303   0.603  12.265
 3440TIP3    H231736   3.225   0.700  12.174
 3441TIP3   OH231737   2.269   1.084  12.825
 3441TIP3    H131738   2.336   1.075  12.754
 3441TIP3    H231739   2.275   0.998  12.870
 3442TIP3   OH231740   2.966   1.291  12.148
 3442TIP3    H131741   2.932   1.375  12.183
 3442TIP3    H231742   2.893   1.230  12.169
 3443TIP3   OH231743   1.968   0.924  13.351
 3443TIP3    H131744   1.984   0.879  13.436
 3443TIP3    H231745   1.906   0.863  13.307
 3444TIP3   OH231746   2.669   0.880  13.568
 3444TIP3    H131747   2.637   0.849  13.482
 3444TIP3    H231748   2.761   0.847  13.568
 3445TIP3   OH231749   3.138   1.414  13.365
 3445TIP3    H131750   3.045   1.432  13.341
 3445TIP3    H231751   3.134   1.443  13.458
 3446TIP3   OH231752   3.705   0.632  12.202
 3446TIP3    H131753   3.648   0.603  12.129
 3446TIP3    H231754   3.712   0.727  12.177
 3447TIP3   OH231755   3.702   1.218  13.484
 3447TIP3    H131756   3.613   1.240  13.446
 3447TIP3    H231757   3.758   1.214  13.403
 3448TIP3   OH231758   3.530   1.515  12.243
 3448TIP3    H131759   3.497   1.431  12.277
 3448TIP3    H231760   3.565   1.493  12.155
 3449TIP3   OH231761   3.254   0.996  12.953
 3449TIP3    H131762   3.160   0.975  12.942
 3449TIP3    H231763   3.297   0.920  12.909
 3450TIP3   OH231764   2.506   1.429  12.563
 3450TIP3    H131765   2.556   1.510  12.542
 3450TIP3    H231766   2.418   1.452  12.530
 3451TIP3   OH231767   2.083   0.913  12.019
 3451TIP3    H131768   2.141   0.981  12.061
 3451TIP3    H231769   1.994   0.943  12.045
 3452TIP3   OH231770   2.649   1.195  12.517
 3452TIP3    H131771   2.617   1.287  12.524
 3452TIP3    H231772   2.575   1.146  12.558
 3453TIP3   OH231773   2.692   1.614  13.156
 3453TIP3    H131774   2.738   1.694  13.127
 3453TIP3    H231775   2.754   1.580  13.223
 3454TIP3   OH231776   2.515   1.694  12.468
 3454TIP3    H131777   2.418   1.708  12.479
 3454TIP3    H231778   2.551   1.779  12.502
 3455TIP3   OH231779   3.044   1.213  13.117
 3455TIP3    H131780   3.012   1.194  13.208
 3455TIP3    H231781   3.109   1.143  13.101
 3456TIP3   OH231782   3.279   1.322  12.027
 3456TIP3    H131783   3.308   1.274  12.107
 3456TIP3    H231784   3.183   1.303  12.035
 3457TIP3   OH231785   3.323   1.674  13.369
 3457TIP3    H131786   3.257   1.623  13.319
 3457TIP3    H231787   3.346   1.742  13.302
 3458TIP3   OH231788   3.724   1.756  12.051
 3458TIP3    H131789   3.793   1.822  12.029
 3458TIP3    H231790   3.653   1.817  12.079
 3459TIP3   OH231791   2.132   0.395  13.308
 3459TIP3    H131792   2.042   0.431  13.304
 3459TIP3    H231793   2.119   0.308  13.349
 3460TIP3   OH231794   3.356   1.185  12.251
 3460TIP3    H131795   3.332   1.106  12.305
 3460TIP3    H231796   3.451   1.189  12.268
 3461TIP3   OH231797   2.094   1.576  13.148
 3461TIP3    H131798   2.124   1.483  13.149
 3461TIP3    H231799   2.120   1.605  13.236
 3462TIP3   OH231800   2.694   1.428  11.877
 3462TIP3    H131801   2.700   1.352  11.817
 3462TIP3    H231802   2.646   1.386  11.952
 3463TIP3   OH231803   2.577   1.380  12.121
 3463TIP3    H131804   2.592   1.330  12.201
 3463TIP3    H231805   2.574   1.474  12.151
 3464TIP3   OH231806   2.219   1.095  12.177
 3464TIP3    H131807   2.150   1.144  12.224
 3464TIP3    H231808   2.270   1.173  12.142
 3465TIP3   OH231809   3.007   0.374  13.201
 3465TIP3    H131810   3.079   0.380  13.265
 3465TIP3    H231811   2.970   0.285  13.219
 3466TIP3   OH231812   3.083   0.331  12.313
 3466TIP3    H131813   3.103   0.376  12.228
 3466TIP3    H231814   3.137   0.382  12.375
 3467TIP3   OH231815   2.849   1.548  12.191
 3467TIP3    H131816   2.765   1.599  12.197
 3467TIP3    H231817   2.902   1.602  12.132
 3468TIP3   OH231818   2.805   0.504  12.393
 3468TIP3    H131819   2.881   0.565  12.397
 3468TIP3    H231820   2.778   0.495  12.487
 3469TIP3   OH231821   2.859   0.609  13.312
 3469TIP3    H131822   2.866   0.664  13.392
 3469TIP3    H231823   2.925   0.540  13.321
 3470TIP3   OH231824   2.890   0.213  12.485
 3470TIP3    H131825   2.856   0.280  12.546
 3470TIP3    H231826   2.956   0.268  12.436
 3471TIP3   OH231827   2.594   1.651  12.196
 3471TIP3    H131828   2.596   1.731  12.137
 3471TIP3    H231829   2.560   1.687  12.280
 3472TIP3   OH231830   2.451   0.323  12.149
 3472TIP3    H131831   2.448   0.411  12.190
 3472TIP3    H231832   2.543   0.301  12.175
 3473TIP3   OH231833   3.476   0.396  13.398
 3473TIP3    H131834   3.384   0.428  13.384
 3473TIP3    H231835   3.506   0.393  13.305
 3474TIP3   OH231836   3.338   0.775  12.796
 3474TIP3    H131837   3.255   0.731  12.769
 3474TIP3    H231838   3.386   0.707  12.848
 3475TIP3   OH231839   2.302   1.317  12.094
 3475TIP3    H131840   2.326   1.412  12.096
 3475TIP3    H231841   2.322   1.313  11.998
 3476TIP3   OH231842   2.110   0.634  11.970
 3476TIP3    H131843   2.115   0.730  11.992
 3476TIP3    H231844   2.019   0.622  11.941
 3477TIP3   OH231845   3.444   1.701  12.964
 3477TIP3    H131846   3.435   1.769  12.894
 3477TIP3    H231847   3.540   1.706  12.981
 3478TIP3   OH231848   2.169   0.129  12.850
 3478TIP3    H131849   2.175   0.119  12.752
 3478TIP3    H231850   2.155   0.037  12.873
 3479TIP3   OH231851   2.090   1.507  12.460
 3479TIP3    H131852   2.003   1.550  12.453
 3479TIP3    H231853   2.136   1.551  12.387
 3480TIP3   OH231854   2.009   1.770  13.588
 3480TIP3    H131855   2.070   1.750  13.662
 3480TIP3    H231856   1.970   1.683  13.569
 3481TIP3   OH231857   2.478   1.664  13.747
 3481TIP3    H131858   2.550   1.611  13.784
 3481TIP3    H231859   2.474   1.632  13.655
 3482TIP3   OH231860   2.891   1.613  11.889
 3482TIP3    H131861   2.820   1.548  11.911
 3482TIP3    H231862   2.962   1.553  11.864
 3483TIP3   OH231863   3.127   1.503  13.625
 3483TIP3    H131864   3.096   1.413  13.650
 3483TIP3    H231865   3.206   1.510  13.682
 3484TIP3   OH231866   3.347   1.588  11.907
 3484TIP3    H131867   3.376   1.510  11.957
 3484TIP3    H231868   3.423   1.610  11.852
 3485TIP3   OH231869   2.000   1.147  13.687
 3485TIP3    H131870   2.017   1.056  13.657
 3485TIP3    H231871   1.926   1.173  13.630
 3486TIP3   OH231872   2.435   1.178  11.884
 3486TIP3    H131873   2.450   1.107  11.949
 3486TIP3    H231874   2.512   1.171  11.827
 3487TIP3   OH231875   2.672   1.147  13.626
 3487TIP3    H131876   2.638   1.178  13.539
 3487TIP3    H231877   2.678   1.049  13.616
 3488TIP3   OH231878   2.979   1.293  11.867
 3488TIP3    H131879   2.950   1.302  11.959
 3488TIP3    H231880   2.960   1.198  11.852
 3489TIP3   OH231881   3.242   1.132  13.365
 3489TIP3    H131882   3.320   1.191  13.359
 3489TIP3    H231883   3.172   1.199  13.368
 3490TIP3   OH231884   2.091   0.869  13.624
 3490TIP3    H131885   2.134   0.783  13.616
 3490TIP3    H231886   2.069   0.871  13.719
 3491TIP3   OH231887   2.556   0.983  12.132
 3491TIP3    H131888   2.505   0.930  12.195
 3491TIP3    H231889   2.585   0.916  12.066
 3492TIP3   OH231890   2.482   0.764  13.360
 3492TIP3    H131891   2.423   0.836  13.386
 3492TIP3    H231892   2.522   0.801  13.280
 3493TIP3   OH231893   2.663   0.806  11.952
 3493TIP3    H131894   2.646   0.797  11.856
 3493TIP3    H231895   2.760   0.811  11.958
 3494TIP3   OH231896   2.990   1.021  13.694
 3494TIP3    H131897   3.085   1.020  13.682
 3494TIP3    H231898   2.973   0.944  13.751
 3495TIP3   OH231899   3.595   1.039  11.893
 3495TIP3    H131900   3.577   1.000  11.806
 3495TIP3    H231901   3.605   1.135  11.874
 3496TIP3   OH231902   2.522   0.502  13.466
 3496TIP3    H131903   2.535   0.431  13.401
 3496TIP3    H231904   2.518   0.583  13.411
 3497TIP3   OH231905   2.563   0.343  13.219
 3497TIP3    H131906   2.614   0.390  13.149
 3497TIP3    H231907   2.474   0.332  13.178
 3498TIP3   OH231908   2.717   0.890  13.246
 3498TIP3    H131909   2.792   0.873  13.189
 3498TIP3    H231910   2.681   0.973  13.212
 3499TIP3   OH231911   3.156   0.664  13.742
 3499TIP3    H131912   3.180   0.571  13.733
 3499TIP3    H231913   3.243   0.709  13.745
 3500TIP3   OH231914   3.291   0.944  13.559
 3500TIP3    H131915   3.266   1.016  13.497
 3500TIP3    H231916   3.387   0.941  13.540
 3501TIP3   OH231917   2.369   0.627  13.658
 3501TIP3    H131918   2.292   0.570  13.641
 3501TIP3    H231919   2.435   0.591  13.596
 3502TIP3   OH231920   2.627   0.104  13.289
 3502TIP3    H131921   2.622   0.198  13.258
 3502TIP3    H231922   2.569   0.062  13.223
 3503TIP3   OH231923   2.767   0.520  13.622
 3503TIP3    H131924   2.739   0.489  13.710
 3503TIP3    H231925   2.690   0.495  13.569
 3504TIP3   OH231926   3.041   0.433  13.533
 3504TIP3    H131927   2.945   0.435  13.544
 3504TIP3    H231928   3.069   0.369  13.602
 3505TIP3   OH231929   3.201   0.304  13.725
 3505TIP3    H131930   3.192   0.206  13.723
 3505TIP3    H231931   3.172   0.324  13.816
 3506TIP3   OH231932   2.175   0.420  13.634
 3506TIP3    H131933   2.202   0.347  13.575
 3506TIP3    H231934   2.169   0.375  13.720
 3507TIP3   OH231935   2.662   7.324  13.534
 3507TIP3    H131936   2.730   7.257  13.539
 3507TIP3    H231937   2.652   7.345  13.439
 3508TIP3   OH231938   2.703   0.192  13.738
 3508TIP3    H131939   2.685   0.135  13.661
 3508TIP3    H231940   2.639   0.264  13.731
 3509TIP3   OH231941   2.648   1.881  12.064
 3509TIP3    H131942   2.745   1.884  12.065
 3509TIP3    H231943   2.630   1.933  11.985
 3510TIP3   OH231944   2.002   1.331  12.009
 3510TIP3    H131945   2.098   1.346  12.023
 3510TIP3    H231946   2.009   1.271  11.931
 3511TIP3   OH231947   1.880   1.872  12.503
 3511TIP3    H131948   1.808   1.823  12.457
 3511TIP3    H231949   1.908   1.806  12.570
 3512TIP3   OH231950   1.962   1.686  12.691
 3512TIP3    H131951   1.927   1.598  12.710
 3512TIP3    H231952   1.985   1.719  12.779
 3513TIP3   OH231953   3.716   1.767  12.984
 3513TIP3    H131954   3.721   1.780  13.080
 3513TIP3    H231955   3.788   1.824  12.954
 3514TIP3   OH231956   3.671   1.725  13.279
 3514TIP3    H131957   3.628   1.646  13.241
 3514TIP3    H231958   3.723   1.682  13.350
 3515TIP3   OH231959   3.517   1.296  13.746
 3515TIP3    H131960   3.427   1.294  13.783
 3515TIP3    H231961   3.555   1.377  13.787
 3516TIP3   OH231962   3.649   1.130  12.288
 3516TIP3    H131963   3.736   1.169  12.307
 3516TIP3    H231964   3.648   1.058  12.355
 3517TIP3   OH231965   3.685   0.938  12.477
 3517TIP3    H131966   3.610   0.888  12.516
 3517TIP3    H231967   3.745   0.951  12.554
 3518TIP3   OH231968   3.661   1.207  12.975
 3518TIP3    H131969   3.742   1.169  12.938
 3518TIP3    H231970   3.676   1.302  12.958
 3519TIP3   OH231971   3.518   1.498  13.202
 3519TIP3    H131972   3.450   1.532  13.262
 3519TIP3    H231973   3.462   1.457  13.132
 3520TIP3   OH231974   3.715   0.920  12.116
 3520TIP3    H131975   3.659   0.954  12.044
 3520TIP3    H231976   3.705   0.991  12.182
 3521TIP3   OH231977   3.553   0.643  11.967
 3521TIP3    H131978   3.561   0.709  11.898
 3521TIP3    H231979   3.534   0.561  11.918
 3522TIP3   OH231980   3.468   0.785  12.534
 3522TIP3    H131981   3.453   0.689  12.530
 3522TIP3    H231982   3.434   0.806  12.623
 3523TIP3   OH231983   1.968   0.993  12.940
 3523TIP3    H131984   1.986   0.985  12.844
 3523TIP3    H231985   2.057   0.976  12.975
 3524TIP3   OH231986   3.554   0.981  13.503
 3524TIP3    H131987   3.615   0.906  13.516
 3524TIP3    H231988   3.614   1.059  13.503
 3525TIP3   OH231989   3.703   0.770  13.568
 3525TIP3    H131990   3.615   0.730  13.553
 3525TIP3    H231991   3.761   0.691  13.561
 3526TIP3   OH231992   3.477   0.391  11.883
 3526TIP3    H131993   3.536   0.346  11.947
 3526TIP3    H231994   3.391   0.346  11.896
 3527TIP3   OH231995   3.432   0.544  12.376
 3527TIP3    H131996   3.463   0.453  12.391
 3527TIP3    H231997   3.514   0.585  12.345
 3528TIP3   OH231998   3.498   0.600  12.924
 3528TIP3    H131999   3.594   0.621  12.923
 3528TIP3    H232000   3.479   0.611  13.018
 3529TIP3   OH232001   3.504   0.672  13.201
 3529TIP3    H132002   3.416   0.699  13.234
 3529TIP3    H232003   3.548   0.757  13.180
 3530TIP3   OH232004   1.929   0.525  13.556
 3530TIP3    H132005   2.023   0.503  13.573
 3530TIP3    H232006   1.885   0.441  13.581
 3531TIP3   OH232007   3.738   0.077  13.739
 3531TIP3    H132008   3.762   0.010  13.673
 3531TIP3    H232009   3.739   0.159  13.686
 3532TIP3   OH232010   3.501   0.275  12.385
 3532TIP3    H132011   3.521   0.227  12.469
 3532TIP3    H232012   3.443   0.210  12.338
 3533TIP3   OH232013   2.047   0.358  12.836
 3533TIP3    H132014   2.090   0.273  12.864
 3533TIP3    H232015   2.104   0.422  12.879
 3534TIP3   OH232016   1.878   0.653  12.944
 3534TIP3    H132017   1.934   0.627  12.868
 3534TIP3    H232018   1.925   0.733  12.971
 3535TIP3   OH232019   3.685   0.282  13.570
 3535TIP3    H132020   3.592   0.312  13.565
 3535TIP3    H232021   3.688   0.229  13.488
 3536TIP3   OH232022   3.686   0.276  12.041
 3536TIP3    H132023   3.723   0.203  11.986
 3536TIP3    H232024   3.757   0.341  12.043
 3537TIP3   OH232025   1.915   0.274  12.353
 3537TIP3    H132026   1.821   0.295  12.338
 3537TIP3    H232027   1.956   0.326  12.281
 3538TIP3   OH232028   3.388   1.774  12.546
 3538TIP3    H132029   3.456   1.742  12.485
 3538TIP3    H232030   3.440   1.823  12.612
 3539TIP3   OH232031   1.910   0.152  13.183
 3539TIP3    H132032   1.842   0.128  13.248
 3539TIP3    H232033   1.862   0.211  13.123
 3540TIP3   OH232034   2.133   1.463  13.595
 3540TIP3    H132035   2.048   1.486  13.554
 3540TIP3    H232036   2.110   1.456  13.689
 3541TIP3   OH232037   2.423   1.565  13.225
 3541TIP3    H132038   2.391   1.651  13.198
 3541TIP3    H232039   2.516   1.573  13.194
 3542TIP3   OH232040   2.854   1.707  13.515
 3542TIP3    H132041   2.868   1.670  13.605
 3542TIP3    H232042   2.945   1.736  13.490
 3543TIP3   OH232043   3.083   1.833  13.445
 3543TIP3    H132044   3.156   1.774  13.420
 3543TIP3    H232045   3.121   1.876  13.524
 3544TIP3   OH232046   3.586   0.097  13.348
 3544TIP3    H132047   3.502   0.128  13.311
 3544TIP3    H232048   3.602   0.012  13.302
 3545TIP3   OH232049   2.166   1.888  13.224
 3545TIP3    H132050   2.093   1.938  13.185
 3545TIP3    H232051   2.135   1.869  13.314
 3546TIP3   OH232052   2.413   1.846  13.132
 3546TIP3    H132053   2.323   1.861  13.171
 3546TIP3    H232054   2.407   1.905  13.054
 3547TIP3   OH232055   2.883   1.837  13.048
 3547TIP3    H132056   2.837   1.893  12.984
 3547TIP3    H232057   2.896   1.900  13.122
 3548TIP3   OH232058   3.112   1.718  13.152
 3548TIP3    H132059   3.027   1.746  13.115
 3548TIP3    H232060   3.160   1.801  13.143
 3549TIP3   OH232061   3.370   1.875  13.174
 3549TIP3    H132062   3.365   1.971  13.151
 3549TIP3    H232063   3.392   1.837  13.086
 3550TIP3   OH232064   2.112   1.753  12.919
 3550TIP3    H132065   2.104   1.707  13.005
 3550TIP3    H232066   2.193   1.715  12.880
 3551TIP3   OH232067   2.319   1.624  12.784
 3551TIP3    H132068   2.303   1.531  12.807
 3551TIP3    H232069   2.405   1.640  12.829
 3552TIP3   OH232070   2.580   1.673  12.872
 3552TIP3    H132071   2.595   1.580  12.846
 3552TIP3    H232072   2.584   1.667  12.969
 3553TIP3   OH232073   2.913   0.244  12.784
 3553TIP3    H132074   2.855   0.172  12.812
 3553TIP3    H232075   2.981   0.195  12.734
 3554TIP3   OH232076   3.439   0.045  12.795
 3554TIP3    H132077   3.501   0.100  12.743
 3554TIP3    H232078   3.353   0.079  12.771
 3555TIP3   OH232079   3.608   0.170  12.620
 3555TIP3    H132080   3.671   0.111  12.578
 3555TIP3    H232081   3.659   0.254  12.628
 3556TIP3   OH232082   2.159   0.104  12.572
 3556TIP3    H132083   2.082   0.080  12.519
 3556TIP3    H232084   2.207   0.019  12.576
 3557TIP3   OH232085   2.039   0.075  12.140
 3557TIP3    H132086   2.087   0.141  12.091
 3557TIP3    H232087   1.978   0.128  12.193
 3558TIP3   OH232088   2.615   0.086  12.548
 3558TIP3    H132089   2.701   0.132  12.544
 3558TIP3    H232090   2.605   0.070  12.642
 3559TIP3   OH232091   3.154   0.132  12.727
 3559TIP3    H132092   3.168   0.127  12.632
 3559TIP3    H232093   3.145   0.034  12.741
 3560TIP3   OH232094   3.308   0.102  12.283
 3560TIP3    H132095   3.233   0.158  12.261
 3560TIP3    H232096   3.267   0.015  12.296
 3561TIP3   OH232097   2.028   1.671  12.248
 3561TIP3    H132098   1.966   1.668  12.174
 3561TIP3    H232099   2.032   1.767  12.261
 3562TIP3   OH232100   2.222   0.264  11.994
 3562TIP3    H132101   2.284   0.205  11.945
 3562TIP3    H232102   2.286   0.301  12.060
 3563TIP3   OH232103   2.716   0.294  12.239
 3563TIP3    H132104   2.753   0.237  12.310
 3563TIP3    H232105   2.732   0.381  12.282
 3564TIP3   OH232106   2.918   1.801  12.079
 3564TIP3    H132107   3.010   1.824  12.056
 3564TIP3    H232108   2.896   1.749  11.999
 3565TIP3   OH232109   3.591   1.753  12.351
 3565TIP3    H132110   3.568   1.673  12.295
 3565TIP3    H232111   3.579   1.824  12.285
 3566TIP3   OH232112   2.141   0.151  13.504
 3566TIP3    H132113   2.107   0.078  13.557
 3566TIP3    H232114   2.231   0.154  13.546
 3567TIP3   OH232115   2.325   0.114  13.669
 3567TIP3    H132116   2.419   0.094  13.656
 3567TIP3    H232117   2.308   0.029  13.713
 3568TIP3   OH232118   2.214   1.816  11.946
 3568TIP3    H132119   2.178   1.799  12.033
 3568TIP3    H232120   2.268   1.731  11.944
 3569TIP3   OH232121   3.182   7.359  13.686
 3569TIP3    H132122   3.188   7.303  13.767
 3569TIP3    H232123   3.271   7.337  13.655
 3570TIP3   OH232124   3.506   1.625  13.562
 3570TIP3    H132125   3.430   1.613  13.501
 3570TIP3    H232126   3.503   1.720  13.578
 3571TIP3   OH232127   4.957   1.014  12.555
 3571TIP3    H132128   4.955   1.112  12.553
 3571TIP3    H232129   4.883   0.991  12.496
 3572TIP3   OH232130   4.842   0.939  12.906
 3572TIP3    H132131   4.841   0.875  12.978
 3572TIP3    H232132   4.807   0.889  12.831
 3573TIP3   OH232133   4.077   0.907  13.061
 3573TIP3    H132134   4.086   0.839  13.131
 3573TIP3    H232135   4.152   0.964  13.084
 3574TIP3   OH232136   5.210   1.234  12.735
 3574TIP3    H132137   5.169   1.163  12.784
 3574TIP3    H232138   5.213   1.305  12.802
 3575TIP3   OH232139   4.170   1.352  12.911
 3575TIP3    H132140   4.139   1.265  12.880
 3575TIP3    H232141   4.265   1.334  12.916
 3576TIP3   OH232142   3.834   0.707  12.461
 3576TIP3    H132143   3.790   0.794  12.454
 3576TIP3    H232144   3.777   0.653  12.403
 3577TIP3   OH232145   3.905   0.932  12.675
 3577TIP3    H132146   3.932   0.849  12.720
 3577TIP3    H232147   3.974   0.941  12.608
 3578TIP3   OH232148   4.923   1.750  12.758
 3578TIP3    H132149   4.988   1.682  12.729
 3578TIP3    H232150   4.901   1.716  12.845
 3579TIP3   OH232151   4.679   1.180  12.954
 3579TIP3    H132152   4.713   1.117  12.888
 3579TIP3    H232153   4.760   1.195  13.005
 3580TIP3   OH232154   5.535   0.347  13.025
 3580TIP3    H132155   5.559   0.401  13.103
 3580TIP3    H232156   5.597   0.388  12.963
 3581TIP3   OH232157   4.996   0.626  12.986
 3581TIP3    H132158   5.012   0.530  12.986
 3581TIP3    H232159   4.986   0.641  12.890
 3582TIP3   OH232160   4.309   0.437  12.706
 3582TIP3    H132161   4.319   0.520  12.656
 3582TIP3    H232162   4.267   0.379  12.639
 3583TIP3   OH232163   5.082   0.441  12.544
 3583TIP3    H132164   5.147   0.413  12.612
 3583TIP3    H232165   5.137   0.500  12.490
 3584TIP3   OH232166   3.969   0.677  12.780
 3584TIP3    H132167   4.037   0.622  12.825
 3584TIP3    H232168   3.980   0.645  12.689
 3585TIP3   OH232169   4.486   0.832  12.712
 3585TIP3    H132170   4.553   0.774  12.751
 3585TIP3    H232171   4.434   0.766  12.661
 3586TIP3   OH232172   5.569   0.479  13.256
 3586TIP3    H132173   5.522   0.563  13.243
 3586TIP3    H232174   5.589   0.478  13.350
 3587TIP3   OH232175   4.200   0.331  13.109
 3587TIP3    H132176   4.167   0.384  13.034
 3587TIP3    H232177   4.129   0.348  13.176
 3588TIP3   OH232178   4.927   1.273  12.465
 3588TIP3    H132179   4.901   1.246  12.376
 3588TIP3    H232180   4.897   1.367  12.470
 3589TIP3   OH232181   4.450   1.089  13.132
 3589TIP3    H132182   4.380   1.153  13.156
 3589TIP3    H232183   4.520   1.150  13.106
 3590TIP3   OH232184   5.264   0.376  12.742
 3590TIP3    H132185   5.239   0.303  12.798
 3590TIP3    H232186   5.331   0.421  12.797
 3591TIP3   OH232187   4.154   0.516  12.911
 3591TIP3    H132188   4.220   0.580  12.945
 3591TIP3    H232189   4.206   0.471  12.840
 3592TIP3   OH232190   4.296   1.290  13.216
 3592TIP3    H132191   4.289   1.381  13.182
 3592TIP3    H232192   4.207   1.282  13.261
 3593TIP3   OH232193   3.903   1.251  12.295
 3593TIP3    H132194   3.878   1.285  12.208
 3593TIP3    H232195   3.911   1.334  12.347
 3594TIP3   OH232196   5.263   1.418  12.971
 3594TIP3    H132197   5.167   1.430  12.983
 3594TIP3    H232198   5.290   1.510  12.951
 3595TIP3   OH232199   5.299   0.245  13.114
 3595TIP3    H132200   5.225   0.305  13.100
 3595TIP3    H232201   5.369   0.288  13.060
 3596TIP3   OH232202   4.590   0.059  12.839
 3596TIP3    H132203   4.589  -0.036  12.856
 3596TIP3    H232204   4.511   0.086  12.889
 3597TIP3   OH232205   5.090   1.597  12.630
 3597TIP3    H132206   5.132   1.525  12.579
 3597TIP3    H232207   5.133   1.676  12.591
 3598TIP3   OH232208   5.211   1.389  12.482
 3598TIP3    H132209   5.181   1.320  12.422
 3598TIP3    H232210   5.214   1.340  12.566
 3599TIP3   OH232211   5.372   1.249  13.331
 3599TIP3    H132212   5.387   1.183  13.260
 3599TIP3    H232213   5.393   1.333  13.287
 3600TIP3   OH232214   4.822   0.936  12.307
 3600TIP3    H132215   4.753   0.995  12.272
 3600TIP3    H232216   4.893   0.948  12.241
 3601TIP3   OH232217   4.830   0.795  12.008
 3601TIP3    H132218   4.901   0.793  12.075
 3601TIP3    H232219   4.861   0.723  11.952
 3602TIP3   OH232220   5.561   0.882  13.137
 3602TIP3    H132221   5.495   0.953  13.139
 3602TIP3    H232222   5.610   0.901  13.055
 3603TIP3   OH232223   5.167   0.958  12.399
 3603TIP3    H132224   5.093   0.983  12.460
 3603TIP3    H232225   5.214   0.891  12.452
 3604TIP3   OH232226   5.159   0.775  13.313
 3604TIP3    H132227   5.160   0.857  13.364
 3604TIP3    H232228   5.097   0.804  13.243
 3605TIP3   OH232229   4.328   1.025  12.591
 3605TIP3    H132230   4.296   0.986  12.507
 3605TIP3    H232231   4.389   0.956  12.625
 3606TIP3   OH232232   4.460   1.363  12.859
 3606TIP3    H132233   4.460   1.310  12.778
 3606TIP3    H232234   4.538   1.327  12.905
 3607TIP3   OH232235   4.361   0.899  12.958
 3607TIP3    H132236   4.416   0.909  12.877
 3607TIP3    H232237   4.400   0.966  13.018
 3608TIP3   OH232238   5.003   1.457  13.028
 3608TIP3    H132239   4.974   1.520  13.094
 3608TIP3    H232240   4.977   1.371  13.071
 3609TIP3   OH232241   4.460   1.346  13.424
 3609TIP3    H132242   4.412   1.415  13.475
 3609TIP3    H232243   4.390   1.322  13.358
 3610TIP3   OH232244   5.055   0.879  12.166
 3610TIP3    H132245   5.110   0.896  12.246
 3610TIP3    H232246   5.100   0.929  12.094
 3611TIP3   OH232247   4.151   0.958  13.342
 3611TIP3    H132248   4.156   1.025  13.414
 3611TIP3    H232249   4.056   0.967  13.322
 3612TIP3   OH232250   4.826   1.551  12.514
 3612TIP3    H132251   4.869   1.582  12.594
 3612TIP3    H232252   4.770   1.626  12.490
 3613TIP3   OH232253   4.302   1.529  13.503
 3613TIP3    H132254   4.277   1.532  13.407
 3613TIP3    H232255   4.207   1.543  13.530
 3614TIP3   OH232256   5.423   0.067  12.132
 3614TIP3    H132257   5.338   0.071  12.178
 3614TIP3    H232258   5.448   0.158  12.111
 3615TIP3   OH232259   4.224   0.926  12.355
 3615TIP3    H132260   4.196   1.005  12.303
 3615TIP3    H232261   4.159   0.860  12.330
 3616TIP3   OH232262   5.538   1.487  11.991
 3616TIP3    H132263   5.555   1.582  12.008
 3616TIP3    H232264   5.631   1.456  11.991
 3617TIP3   OH232265   3.834   1.170  13.243
 3617TIP3    H132266   3.790   1.162  13.157
 3617TIP3    H232267   3.842   1.076  13.264
 3618TIP3   OH232268   3.810   1.445  12.920
 3618TIP3    H132269   3.906   1.432  12.918
 3618TIP3    H232270   3.802   1.525  12.972
 3619TIP3   OH232271   5.634   1.514  13.490
 3619TIP3    H132272   5.622   1.418  13.487
 3619TIP3    H232273   5.547   1.539  13.528
 3620TIP3   OH232274   4.728   1.470  13.373
 3620TIP3    H132275   4.738   1.551  13.428
 3620TIP3    H232276   4.643   1.431  13.401
 3621TIP3   OH232277   4.774   1.842  12.355
 3621TIP3    H132278   4.763   1.835  12.259
 3621TIP3    H232279   4.774   1.938  12.371
 3622TIP3   OH232280   4.135   1.732  12.538
 3622TIP3    H132281   4.153   1.687  12.624
 3622TIP3    H232282   4.053   1.686  12.513
 3623TIP3   OH232283   5.079   1.763  12.053
 3623TIP3    H132284   5.125   1.688  12.010
 3623TIP3    H232285   5.083   1.737  12.148
 3624TIP3   OH232286   5.049   1.757  12.331
 3624TIP3    H132287   4.953   1.764  12.348
 3624TIP3    H232288   5.072   1.683  12.388
 3625TIP3   OH232289   5.349   0.659  13.536
 3625TIP3    H132290   5.301   0.705  13.465
 3625TIP3    H232291   5.347   0.567  13.505
 3626TIP3   OH232292   4.064   1.299  13.335
 3626TIP3    H132293   4.083   1.269  13.426
 3626TIP3    H232294   3.975   1.263  13.316
 3627TIP3   OH232295   4.328   0.145  12.935
 3627TIP3    H132296   4.239   0.139  12.895
 3627TIP3    H232297   4.317   0.231  12.979
 3628TIP3   OH232298   4.793   0.118  13.273
 3628TIP3    H132299   4.835   0.076  13.348
 3628TIP3    H232300   4.697   0.107  13.289
 3629TIP3   OH232301   5.123   0.496  13.358
 3629TIP3    H132302   5.066   0.481  13.437
 3629TIP3    H232303   5.107   0.589  13.334
 3630TIP3   OH232304   5.200   0.982  11.948
 3630TIP3    H132305   5.197   0.963  11.851
 3630TIP3    H232306   5.285   1.026  11.953
 3631TIP3   OH232307   4.759   0.373  12.000
 3631TIP3    H132308   4.727   0.366  12.091
 3631TIP3    H232309   4.728   0.286  11.969
 3632TIP3   OH232310   4.341   0.647  13.058
 3632TIP3    H132311   4.267   0.645  13.121
 3632TIP3    H232312   4.336   0.737  13.020
 3633TIP3   OH232313   4.337   0.658  12.543
 3633TIP3    H132314   4.243   0.634  12.530
 3633TIP3    H232315   4.374   0.629  12.458
 3634TIP3   OH232316   4.889   0.709  12.421
 3634TIP3    H132317   4.850   0.791  12.384
 3634TIP3    H232318   4.958   0.691  12.355
 3635TIP3   OH232319   4.795   0.730  13.564
 3635TIP3    H132320   4.742   0.652  13.595
 3635TIP3    H232321   4.878   0.717  13.612
 3636TIP3   OH232322   4.993   0.658  12.705
 3636TIP3    H132323   4.964   0.713  12.631
 3636TIP3    H232324   5.001   0.573  12.658
 3637TIP3   OH232325   4.103   0.672  13.225
 3637TIP3    H132326   4.111   0.712  13.313
 3637TIP3    H232327   4.058   0.588  13.246
 3638TIP3   OH232328   4.439   0.413  11.912
 3638TIP3    H132329   4.393   0.369  11.985
 3638TIP3    H232330   4.369   0.452  11.858
 3639TIP3   OH232331   3.769   0.385  12.622
 3639TIP3    H132332   3.837   0.382  12.693
 3639TIP3    H232333   3.814   0.346  12.545
 3640TIP3   OH232334   3.895   0.456  12.162
 3640TIP3    H132335   3.946   0.514  12.103
 3640TIP3    H232336   3.826   0.518  12.191
 3641TIP3   OH232337   4.911   0.816  13.160
 3641TIP3    H132338   4.950   0.747  13.102
 3641TIP3    H232339   4.865   0.763  13.228
 3642TIP3   OH232340   4.593   0.413  12.642
 3642TIP3    H132341   4.500   0.413  12.673
 3642TIP3    H232342   4.642   0.398  12.724
 3643TIP3   OH232343   4.073   0.569  12.531
 3643TIP3    H132344   3.985   0.583  12.492
 3643TIP3    H232345   4.103   0.486  12.489
 3644TIP3   OH232346   4.438   0.573  12.293
 3644TIP3    H132347   4.533   0.583  12.310
 3644TIP3    H232348   4.414   0.642  12.229
 3645TIP3   OH232349   5.033   0.335  12.967
 3645TIP3    H132350   4.964   0.343  13.037
 3645TIP3    H232351   4.983   0.308  12.889
 3646TIP3   OH232352   4.308   0.691  12.052
 3646TIP3    H132353   4.255   0.653  11.980
 3646TIP3    H232354   4.390   0.711  12.005
 3647TIP3   OH232355   5.352   1.901  13.600
 3647TIP3    H132356   5.379   1.940  13.515
 3647TIP3    H232357   5.424   1.934  13.656
 3648TIP3   OH232358   4.122   1.144  13.560
 3648TIP3    H132359   4.192   1.176  13.618
 3648TIP3    H232360   4.043   1.161  13.617
 3649TIP3   OH232361   4.721   0.689  12.833
 3649TIP3    H132362   4.781   0.634  12.780
 3649TIP3    H232363   4.706   0.634  12.912
 3650TIP3   OH232364   4.220   0.306  12.478
 3650TIP3    H132365   4.189   0.215  12.479
 3650TIP3    H232366   4.298   0.298  12.422
 3651TIP3   OH232367   4.585   0.527  13.073
 3651TIP3    H132368   4.501   0.575  13.084
 3651TIP3    H232369   4.640   0.558  13.148
 3652TIP3   OH232370   4.643   1.144  12.245
 3652TIP3    H132371   4.563   1.097  12.211
 3652TIP3    H232372   4.620   1.156  12.339
 3653TIP3   OH232373   5.362   1.065  13.125
 3653TIP3    H132374   5.418   1.113  13.062
 3653TIP3    H232375   5.276   1.069  13.078
 3654TIP3   OH232376   5.025   0.426  12.064
 3654TIP3    H132377   4.930   0.442  12.048
 3654TIP3    H232378   5.060   0.511  12.097
 3655TIP3   OH232379   4.792   1.170  13.368
 3655TIP3    H132380   4.758   1.128  13.447
 3655TIP3    H232381   4.767   1.263  13.379
 3656TIP3   OH232382   5.101   0.617  12.224
 3656TIP3    H132383   5.188   0.603  12.265
 3656TIP3    H232384   5.111   0.700  12.174
 3657TIP3   OH232385   4.154   1.084  12.825
 3657TIP3    H132386   4.222   1.075  12.755
 3657TIP3    H232387   4.160   0.998  12.870
 3658TIP3   OH232388   4.853   1.291  12.148
 3658TIP3    H132389   4.818   1.375  12.183
 3658TIP3    H232390   4.779   1.229  12.170
 3659TIP3   OH232391   3.853   0.922  13.350
 3659TIP3    H132392   3.870   0.880  13.436
 3659TIP3    H232393   3.791   0.862  13.307
 3660TIP3   OH232394   4.554   0.880  13.568
 3660TIP3    H132395   4.522   0.849  13.482
 3660TIP3    H232396   4.647   0.847  13.568
 3661TIP3   OH232397   5.023   1.413  13.364
 3661TIP3    H132398   4.930   1.431  13.340
 3661TIP3    H232399   5.020   1.443  13.457
 3662TIP3   OH232400   5.591   0.632  12.202
 3662TIP3    H132401   5.534   0.603  12.129
 3662TIP3    H232402   5.598   0.727  12.177
 3663TIP3   OH232403   5.589   1.218  13.483
 3663TIP3    H132404   5.499   1.240  13.447
 3663TIP3    H232405   5.643   1.212  13.402
 3664TIP3   OH232406   5.415   1.514  12.242
 3664TIP3    H132407   5.382   1.430  12.277
 3664TIP3    H232408   5.451   1.492  12.154
 3665TIP3   OH232409   5.139   0.996  12.953
 3665TIP3    H132410   5.045   0.975  12.942
 3665TIP3    H232411   5.183   0.920  12.910
 3666TIP3   OH232412   4.392   1.429  12.563
 3666TIP3    H132413   4.441   1.510  12.542
 3666TIP3    H232414   4.304   1.452  12.530
 3667TIP3   OH232415   3.968   0.913  12.020
 3667TIP3    H132416   4.026   0.979  12.061
 3667TIP3    H232417   3.879   0.944  12.045
 3668TIP3   OH232418   4.532   1.195  12.513
 3668TIP3    H132419   4.501   1.287  12.524
 3668TIP3    H232420   4.461   1.146  12.559
 3669TIP3   OH232421   4.576   1.619  13.164
 3669TIP3    H132422   4.627   1.693  13.125
 3669TIP3    H232423   4.643   1.577  13.221
 3670TIP3   OH232424   4.401   1.694  12.467
 3670TIP3    H132425   4.305   1.707  12.481
 3670TIP3    H232426   4.437   1.778  12.502
 3671TIP3   OH232427   4.930   1.213  13.117
 3671TIP3    H132428   4.898   1.194  13.208
 3671TIP3    H232429   4.994   1.143  13.101
 3672TIP3   OH232430   5.164   1.321  12.027
 3672TIP3    H132431   5.194   1.274  12.107
 3672TIP3    H232432   5.069   1.303  12.035
 3673TIP3   OH232433   5.212   1.672  13.366
 3673TIP3    H132434   5.143   1.622  13.318
 3673TIP3    H232435   5.231   1.742  13.300
 3674TIP3   OH232436   5.610   1.756  12.052
 3674TIP3    H132437   5.679   1.823  12.032
 3674TIP3    H232438   5.539   1.818  12.081
 3675TIP3   OH232439   4.018   0.395  13.308
 3675TIP3    H132440   3.927   0.431  13.304
 3675TIP3    H232441   4.004   0.308  13.349
 3676TIP3   OH232442   5.242   1.185  12.251
 3676TIP3    H132443   5.218   1.106  12.305
 3676TIP3    H232444   5.337   1.189  12.269
 3677TIP3   OH232445   3.980   1.576  13.148
 3677TIP3    H132446   4.011   1.484  13.152
 3677TIP3    H232447   4.004   1.607  13.238
 3678TIP3   OH232448   4.577   1.428  11.876
 3678TIP3    H132449   4.587   1.352  11.817
 3678TIP3    H232450   4.533   1.385  11.953
 3679TIP3   OH232451   4.454   1.381  12.121
 3679TIP3    H132452   4.481   1.330  12.198
 3679TIP3    H232453   4.463   1.474  12.154
 3680TIP3   OH232454   4.109   1.106  12.170
 3680TIP3    H132455   4.037   1.145  12.224
 3680TIP3    H232456   4.159   1.184  12.141
 3681TIP3   OH232457   4.892   0.374  13.201
 3681TIP3    H132458   4.964   0.380  13.265
 3681TIP3    H232459   4.855   0.285  13.219
 3682TIP3   OH232460   4.969   0.331  12.313
 3682TIP3    H132461   4.988   0.377  12.228
 3682TIP3    H232462   5.023   0.382  12.375
 3683TIP3   OH232463   4.735   1.547  12.191
 3683TIP3    H132464   4.653   1.601  12.198
 3683TIP3    H232465   4.789   1.602  12.132
 3684TIP3   OH232466   4.690   0.504  12.393
 3684TIP3    H132467   4.767   0.565  12.397
 3684TIP3    H232468   4.664   0.495  12.487
 3685TIP3   OH232469   4.744   0.609  13.312
 3685TIP3    H132470   4.752   0.664  13.392
 3685TIP3    H232471   4.811   0.539  13.321
 3686TIP3   OH232472   4.776   0.213  12.485
 3686TIP3    H132473   4.741   0.280  12.546
 3686TIP3    H232474   4.842   0.268  12.436
 3687TIP3   OH232475   4.475   1.651  12.194
 3687TIP3    H132476   4.484   1.732  12.139
 3687TIP3    H232477   4.448   1.687  12.281
 3688TIP3   OH232478   4.338   0.322  12.150
 3688TIP3    H132479   4.332   0.411  12.189
 3688TIP3    H232480   4.430   0.302  12.175
 3689TIP3   OH232481   5.360   0.395  13.399
 3689TIP3    H132482   5.268   0.429  13.383
 3689TIP3    H232483   5.394   0.395  13.307
 3690TIP3   OH232484   5.223   0.775  12.796
 3690TIP3    H132485   5.141   0.730  12.769
 3690TIP3    H232486   5.272   0.707  12.848
 3691TIP3   OH232487   4.163   1.367  12.056
 3691TIP3    H132488   4.230   1.430  12.087
 3691TIP3    H232489   4.215   1.321  11.988
 3692TIP3   OH232490   3.996   0.635  11.971
 3692TIP3    H132491   3.998   0.731  11.991
 3692TIP3    H232492   3.908   0.617  11.939
 3693TIP3   OH232493   5.330   1.700  12.964
 3693TIP3    H132494   5.321   1.769  12.895
 3693TIP3    H232495   5.426   1.706  12.981
 3694TIP3   OH232496   4.055   0.129  12.850
 3694TIP3    H132497   4.061   0.119  12.752
 3694TIP3    H232498   4.040   0.037  12.873
 3695TIP3   OH232499   3.975   1.504  12.460
 3695TIP3    H132500   3.889   1.547  12.454
 3695TIP3    H232501   4.022   1.550  12.389
 3696TIP3   OH232502   3.844   1.777  13.623
 3696TIP3    H132503   3.936   1.766  13.655
 3696TIP3    H232504   3.850   1.699  13.566
 3697TIP3   OH232505   4.373   1.664  13.740
 3697TIP3    H132506   4.438   1.608  13.784
 3697TIP3    H232507   4.350   1.619  13.658
 3698TIP3   OH232508   4.776   1.613  11.889
 3698TIP3    H132509   4.707   1.547  11.911
 3698TIP3    H232510   4.848   1.554  11.864
 3699TIP3   OH232511   5.013   1.501  13.623
 3699TIP3    H132512   4.982   1.412  13.651
 3699TIP3    H232513   5.090   1.512  13.683
 3700TIP3   OH232514   5.232   1.588  11.907
 3700TIP3    H132515   5.262   1.510  11.958
 3700TIP3    H232516   5.308   1.610  11.852
 3701TIP3   OH232517   3.885   1.146  13.689
 3701TIP3    H132518   3.902   1.056  13.656
 3701TIP3    H232519   3.814   1.176  13.629
 3702TIP3   OH232520   4.321   1.182  11.889
 3702TIP3    H132521   4.335   1.106  11.948
 3702TIP3    H232522   4.396   1.170  11.827
 3703TIP3   OH232523   4.558   1.147  13.625
 3703TIP3    H132524   4.524   1.177  13.539
 3703TIP3    H232525   4.565   1.049  13.615
 3704TIP3   OH232526   4.864   1.293  11.867
 3704TIP3    H132527   4.837   1.301  11.960
 3704TIP3    H232528   4.845   1.197  11.852
 3705TIP3   OH232529   5.127   1.132  13.365
 3705TIP3    H132530   5.206   1.190  13.359
 3705TIP3    H232531   5.057   1.199  13.368
 3706TIP3   OH232532   3.978   0.870  13.625
 3706TIP3    H132533   4.020   0.784  13.617
 3706TIP3    H232534   3.955   0.873  13.719
 3707TIP3   OH232535   4.442   0.984  12.133
 3707TIP3    H132536   4.391   0.930  12.195
 3707TIP3    H232537   4.471   0.917  12.067
 3708TIP3   OH232538   4.368   0.764  13.360
 3708TIP3    H132539   4.308   0.836  13.386
 3708TIP3    H232540   4.408   0.801  13.280
 3709TIP3   OH232541   4.549   0.806  11.952
 3709TIP3    H132542   4.534   0.797  11.855
 3709TIP3    H232543   4.646   0.811  11.958
 3710TIP3   OH232544   4.875   1.021  13.694
 3710TIP3    H132545   4.971   1.020  13.682
 3710TIP3    H232546   4.858   0.944  13.751
 3711TIP3   OH232547   5.482   1.038  11.893
 3711TIP3    H132548   5.463   1.000  11.806
 3711TIP3    H232549   5.491   1.134  11.874
 3712TIP3   OH232550   4.407   0.502  13.466
 3712TIP3    H132551   4.421   0.431  13.401
 3712TIP3    H232552   4.404   0.583  13.411
 3713TIP3   OH232553   4.449   0.343  13.219
 3713TIP3    H132554   4.500   0.390  13.149
 3713TIP3    H232555   4.359   0.332  13.178
 3714TIP3   OH232556   4.603   0.890  13.246
 3714TIP3    H132557   4.678   0.873  13.189
 3714TIP3    H232558   4.566   0.973  13.212
 3715TIP3   OH232559   5.042   0.664  13.742
 3715TIP3    H132560   5.066   0.571  13.733
 3715TIP3    H232561   5.129   0.709  13.745
 3716TIP3   OH232562   5.176   0.944  13.559
 3716TIP3    H132563   5.151   1.016  13.497
 3716TIP3    H232564   5.272   0.941  13.540
 3717TIP3   OH232565   4.255   0.627  13.658
 3717TIP3    H132566   4.178   0.570  13.641
 3717TIP3    H232567   4.320   0.591  13.596
 3718TIP3   OH232568   4.513   0.104  13.289
 3718TIP3    H132569   4.508   0.198  13.258
 3718TIP3    H232570   4.455   0.062  13.223
 3719TIP3   OH232571   4.652   0.520  13.622
 3719TIP3    H132572   4.625   0.489  13.710
 3719TIP3    H232573   4.575   0.495  13.569
 3720TIP3   OH232574   4.927   0.433  13.533
 3720TIP3    H132575   4.830   0.435  13.544
 3720TIP3    H232576   4.955   0.369  13.602
 3721TIP3   OH232577   5.087   0.304  13.725
 3721TIP3    H132578   5.077   0.206  13.723
 3721TIP3    H232579   5.057   0.324  13.816
 3722TIP3   OH232580   4.061   0.420  13.634
 3722TIP3    H132581   4.088   0.347  13.575
 3722TIP3    H232582   4.054   0.375  13.720
 3723TIP3   OH232583   4.548   7.324  13.534
 3723TIP3    H132584   4.616   7.257  13.539
 3723TIP3    H232585   4.537   7.345  13.439
 3724TIP3   OH232586   4.589   0.192  13.738
 3724TIP3    H132587   4.570   0.135  13.661
 3724TIP3    H232588   4.525   0.264  13.731
 3725TIP3   OH232589   4.532   1.876  12.060
 3725TIP3    H132590   4.629   1.885  12.066
 3725TIP3    H232591   4.517   1.936  11.986
 3726TIP3   OH232592   3.887   1.333  12.006
 3726TIP3    H132593   3.984   1.343  12.024
 3726TIP3    H232594   3.892   1.269  11.932
 3727TIP3   OH232595   3.770   1.876  12.504
 3727TIP3    H132596   3.697   1.826  12.457
 3727TIP3    H232597   3.793   1.805  12.569
 3728TIP3   OH232598   3.846   1.688  12.690
 3728TIP3    H132599   3.813   1.599  12.709
 3728TIP3    H232600   3.871   1.717  12.780
 3729TIP3   OH232601   5.602   1.765  12.984
 3729TIP3    H132602   5.605   1.781  13.080
 3729TIP3    H232603   5.672   1.824  12.953
 3730TIP3   OH232604   5.560   1.724  13.278
 3730TIP3    H132605   5.512   1.647  13.240
 3730TIP3    H232606   5.608   1.680  13.350
 3731TIP3   OH232607   5.403   1.297  13.745
 3731TIP3    H132608   5.313   1.294  13.782
 3731TIP3    H232609   5.441   1.377  13.787
 3732TIP3   OH232610   5.535   1.130  12.288
 3732TIP3    H132611   5.622   1.169  12.307
 3732TIP3    H232612   5.533   1.058  12.355
 3733TIP3   OH232613   5.571   0.937  12.477
 3733TIP3    H132614   5.496   0.888  12.517
 3733TIP3    H232615   5.631   0.950  12.554
 3734TIP3   OH232616   5.546   1.207  12.975
 3734TIP3    H132617   5.628   1.169  12.938
 3734TIP3    H232618   5.561   1.302  12.958
 3735TIP3   OH232619   5.402   1.498  13.202
 3735TIP3    H132620   5.333   1.532  13.261
 3735TIP3    H232621   5.348   1.457  13.132
 3736TIP3   OH232622   5.601   0.920  12.116
 3736TIP3    H132623   5.544   0.954  12.044
 3736TIP3    H232624   5.591   0.991  12.182
 3737TIP3   OH232625   5.439   0.643  11.967
 3737TIP3    H132626   5.446   0.710  11.898
 3737TIP3    H232627   5.420   0.561  11.918
 3738TIP3   OH232628   5.353   0.785  12.534
 3738TIP3    H132629   5.338   0.689  12.530
 3738TIP3    H232630   5.320   0.806  12.623
 3739TIP3   OH232631   3.854   0.994  12.940
 3739TIP3    H132632   3.871   0.985  12.844
 3739TIP3    H232633   3.943   0.976  12.975
 3740TIP3   OH232634   5.439   0.981  13.503
 3740TIP3    H132635   5.500   0.906  13.516
 3740TIP3    H232636   5.499   1.058  13.503
 3741TIP3   OH232637   5.588   0.770  13.571
 3741TIP3    H132638   5.500   0.730  13.554
 3741TIP3    H232639   5.646   0.692  13.559
 3742TIP3   OH232640   5.363   0.391  11.883
 3742TIP3    H132641   5.422   0.346  11.947
 3742TIP3    H232642   5.277   0.347  11.897
 3743TIP3   OH232643   5.317   0.544  12.376
 3743TIP3    H132644   5.349   0.453  12.391
 3743TIP3    H232645   5.400   0.584  12.345
 3744TIP3   OH232646   5.379   0.599  12.924
 3744TIP3    H132647   5.477   0.620  12.921
 3744TIP3    H232648   5.366   0.610  13.019
 3745TIP3   OH232649   5.390   0.672  13.203
 3745TIP3    H132650   5.302   0.701  13.233
 3745TIP3    H232651   5.435   0.756  13.179
 3746TIP3   OH232652   3.814   0.526  13.556
 3746TIP3    H132653   3.908   0.503  13.573
 3746TIP3    H232654   3.770   0.441  13.581
 3747TIP3   OH232655   5.621   0.076  13.740
 3747TIP3    H132656   5.647   0.010  13.674
 3747TIP3    H232657   5.624   0.158  13.688
 3748TIP3   OH232658   5.386   0.275  12.385
 3748TIP3    H132659   5.407   0.228  12.469
 3748TIP3    H232660   5.328   0.210  12.338
 3749TIP3   OH232661   3.932   0.358  12.836
 3749TIP3    H132662   3.976   0.273  12.864
 3749TIP3    H232663   3.990   0.422  12.879
 3750TIP3   OH232664   3.764   0.653  12.944
 3750TIP3    H132665   3.820   0.627  12.868
 3750TIP3    H232666   3.810   0.733  12.971
 3751TIP3   OH232667   5.570   0.280  13.572
 3751TIP3    H132668   5.478   0.312  13.565
 3751TIP3    H232669   5.575   0.231  13.488
 3752TIP3   OH232670   5.571   0.276  12.041
 3752TIP3    H132671   5.609   0.203  11.986
 3752TIP3    H232672   5.642   0.341  12.044
 3753TIP3   OH232673   3.801   0.276  12.354
 3753TIP3    H132674   3.707   0.294  12.336
 3753TIP3    H232675   3.843   0.324  12.280
 3754TIP3   OH232676   5.274   1.774  12.547
 3754TIP3    H132677   5.342   1.743  12.484
 3754TIP3    H232678   5.325   1.824  12.612
 3755TIP3   OH232679   3.796   0.152  13.183
 3755TIP3    H132680   3.728   0.128  13.248
 3755TIP3    H232681   3.747   0.211  13.123
 3756TIP3   OH232682   4.002   1.425  13.607
 3756TIP3    H132683   3.947   1.486  13.554
 3756TIP3    H232684   3.994   1.464  13.694
 3757TIP3   OH232685   4.311   1.566  13.228
 3757TIP3    H132686   4.273   1.649  13.196
 3757TIP3    H232687   4.402   1.575  13.193
 3758TIP3   OH232688   4.735   1.710  13.519
 3758TIP3    H132689   4.755   1.671  13.607
 3758TIP3    H232690   4.827   1.737  13.491
 3759TIP3   OH232691   4.968   1.833  13.448
 3759TIP3    H132692   5.043   1.776  13.422
 3759TIP3    H232693   5.008   1.878  13.525
 3760TIP3   OH232694   5.472   0.097  13.348
 3760TIP3    H132695   5.388   0.128  13.311
 3760TIP3    H232696   5.487   0.012  13.301
 3761TIP3   OH232697   4.054   1.890  13.225
 3761TIP3    H132698   3.978   1.937  13.186
 3761TIP3    H232699   4.022   1.863  13.314
 3762TIP3   OH232700   4.299   1.848  13.132
 3762TIP3    H132701   4.209   1.861  13.171
 3762TIP3    H232702   4.291   1.906  13.055
 3763TIP3   OH232703   4.766   1.835  13.051
 3763TIP3    H132704   4.725   1.892  12.984
 3763TIP3    H232705   4.785   1.902  13.121
 3764TIP3   OH232706   4.998   1.718  13.151
 3764TIP3    H132707   4.913   1.746  13.114
 3764TIP3    H232708   5.046   1.802  13.143
 3765TIP3   OH232709   5.256   1.876  13.174
 3765TIP3    H132710   5.250   1.972  13.151
 3765TIP3    H232711   5.277   1.838  13.086
 3766TIP3   OH232712   3.998   1.754  12.914
 3766TIP3    H132713   3.988   1.708  13.001
 3766TIP3    H232714   4.080   1.714  12.879
 3767TIP3   OH232715   4.205   1.624  12.784
 3767TIP3    H132716   4.189   1.531  12.807
 3767TIP3    H232717   4.291   1.639  12.829
 3768TIP3   OH232718   4.466   1.673  12.871
 3768TIP3    H132719   4.481   1.580  12.845
 3768TIP3    H232720   4.470   1.667  12.967
 3769TIP3   OH232721   4.798   0.244  12.784
 3769TIP3    H132722   4.740   0.172  12.812
 3769TIP3    H232723   4.867   0.195  12.734
 3770TIP3   OH232724   5.325   0.045  12.795
 3770TIP3    H132725   5.387   0.100  12.743
 3770TIP3    H232726   5.238   0.079  12.771
 3771TIP3   OH232727   5.494   0.171  12.620
 3771TIP3    H132728   5.557   0.111  12.578
 3771TIP3    H232729   5.545   0.254  12.629
 3772TIP3   OH232730   4.044   0.104  12.573
 3772TIP3    H132731   3.968   0.080  12.519
 3772TIP3    H232732   4.092   0.019  12.576
 3773TIP3   OH232733   3.927   0.076  12.144
 3773TIP3    H132734   3.969   0.141  12.086
 3773TIP3    H232735   3.862   0.130  12.191
 3774TIP3   OH232736   4.501   0.086  12.548
 3774TIP3    H132737   4.586   0.132  12.544
 3774TIP3    H232738   4.491   0.070  12.642
 3775TIP3   OH232739   5.040   0.132  12.727
 3775TIP3    H132740   5.054   0.127  12.632
 3775TIP3    H232741   5.031   0.034  12.741
 3776TIP3   OH232742   5.194   0.102  12.283
 3776TIP3    H132743   5.118   0.158  12.261
 3776TIP3    H232744   5.153   0.016  12.298
 3777TIP3   OH232745   3.915   1.671  12.247
 3777TIP3    H132746   3.851   1.667  12.173
 3777TIP3    H232747   3.916   1.766  12.260
 3778TIP3   OH232748   4.104   0.263  11.996
 3778TIP3    H132749   4.162   0.208  11.939
 3778TIP3    H232750   4.170   0.301  12.057
 3779TIP3   OH232751   4.602   0.294  12.239
 3779TIP3    H132752   4.638   0.237  12.309
 3779TIP3    H232753   4.618   0.381  12.282
 3780TIP3   OH232754   4.803   1.801  12.079
 3780TIP3    H132755   4.895   1.824  12.057
 3780TIP3    H232756   4.781   1.749  11.999
 3781TIP3   OH232757   5.473   1.751  12.351
 3781TIP3    H132758   5.454   1.673  12.294
 3781TIP3    H232759   5.466   1.825  12.286
 3782TIP3   OH232760   4.026   0.151  13.504
 3782TIP3    H132761   3.993   0.078  13.557
 3782TIP3    H232762   4.116   0.154  13.546
 3783TIP3   OH232763   4.210   0.114  13.669
 3783TIP3    H132764   4.304   0.094  13.656
 3783TIP3    H232765   4.193   0.029  13.713
 3784TIP3   OH232766   4.095   1.769  11.940
 3784TIP3    H132767   4.070   1.795  12.030
 3784TIP3    H232768   4.174   1.713  11.955
 3785TIP3   OH232769   5.068   7.358  13.687
 3785TIP3    H132770   5.074   7.302  13.767
 3785TIP3    H232771   5.157   7.337  13.655
 3786TIP3   OH232772   5.398   1.626  13.558
 3786TIP3    H132773   5.317   1.613  13.503
 3786TIP3    H232774   5.386   1.721  13.580
 3787TIP3   OH232775   6.842   1.012  12.556
 3787TIP3    H132776   6.842   1.111  12.554
 3787TIP3    H232777   6.769   0.990  12.496
 3788TIP3   OH232778   6.725   0.941  12.906
 3788TIP3    H132779   6.729   0.876  12.979
 3788TIP3    H232780   6.697   0.886  12.831
 3789TIP3   OH232781   5.961   0.909  13.063
 3789TIP3    H132782   5.971   0.837  13.129
 3789TIP3    H232783   6.038   0.963  13.085
 3790TIP3   OH232784   7.098   1.232  12.736
 3790TIP3    H132785   7.056   1.161  12.786
 3790TIP3    H232786   7.099   1.304  12.800
 3791TIP3   OH232787   6.055   1.352  12.911
 3791TIP3    H132788   6.024   1.265  12.880
 3791TIP3    H232789   6.151   1.334  12.916
 3792TIP3   OH232790   5.720   0.707  12.461
 3792TIP3    H132791   5.676   0.793  12.455
 3792TIP3    H232792   5.663   0.653  12.404
 3793TIP3   OH232793   5.791   0.933  12.674
 3793TIP3    H132794   5.816   0.850  12.720
 3793TIP3    H232795   5.861   0.941  12.608
 3794TIP3   OH232796   6.809   1.750  12.757
 3794TIP3    H132797   6.873   1.680  12.730
 3794TIP3    H232798   6.785   1.717  12.844
 3795TIP3   OH232799   6.566   1.180  12.954
 3795TIP3    H132800   6.599   1.116  12.888
 3795TIP3    H232801   6.648   1.194  13.006
 3796TIP3   OH232802   6.860   0.622  12.972
 3796TIP3    H132803   6.900   0.534  12.985
 3796TIP3    H232804   6.874   0.639  12.878
 3797TIP3   OH232805   6.202   0.435  12.701
 3797TIP3    H132806   6.202   0.521  12.657
 3797TIP3    H232807   6.151   0.380  12.639
 3798TIP3   OH232808   6.969   0.447  12.546
 3798TIP3    H132809   7.034   0.413  12.612
 3798TIP3    H232810   7.027   0.499  12.490
 3799TIP3   OH232811   5.859   0.680  12.778
 3799TIP3    H132812   5.918   0.621  12.830
 3799TIP3    H232813   5.867   0.642  12.690
 3800TIP3   OH232814   6.370   0.832  12.712
 3800TIP3    H132815   6.438   0.774  12.751
 3800TIP3    H232816   6.319   0.766  12.661
 3801TIP3   OH232817   6.087   0.330  13.109
 3801TIP3    H132818   6.050   0.385  13.036
 3801TIP3    H232819   6.015   0.350  13.174
 3802TIP3   OH232820   6.811   1.272  12.464
 3802TIP3    H132821   6.786   1.245  12.375
 3802TIP3    H232822   6.782   1.365  12.470
 3803TIP3   OH232823   6.335   1.090  13.134
 3803TIP3    H132824   6.265   1.154  13.156
 3803TIP3    H232825   6.406   1.149  13.105
 3804TIP3   OH232826   7.120   0.367  12.750
 3804TIP3    H132827   7.118   0.292  12.809
 3804TIP3    H232828   7.192   0.420  12.793
 3805TIP3   OH232829   6.049   0.517  12.896
 3805TIP3    H132830   6.108   0.578  12.944
 3805TIP3    H232831   6.105   0.468  12.832
 3806TIP3   OH232832   6.180   1.290  13.216
 3806TIP3    H132833   6.175   1.381  13.182
 3806TIP3    H232834   6.092   1.282  13.260
 3807TIP3   OH232835   5.788   1.251  12.295
 3807TIP3    H132836   5.763   1.285  12.208
 3807TIP3    H232837   5.796   1.334  12.347
 3808TIP3   OH232838   7.129   1.411  12.981
 3808TIP3    H132839   7.033   1.432  12.985
 3808TIP3    H232840   7.167   1.495  12.950
 3809TIP3   OH232841   7.159   0.262  13.085
 3809TIP3    H132842   7.091   0.330  13.096
 3809TIP3    H232843   7.237   0.309  13.054
 3810TIP3   OH232844   6.475   0.059  12.840
 3810TIP3    H132845   6.474  -0.036  12.856
 3810TIP3    H232846   6.397   0.086  12.889
 3811TIP3   OH232847   6.967   1.589  12.632
 3811TIP3    H132848   7.016   1.521  12.581
 3811TIP3    H232849   7.012   1.670  12.597
 3812TIP3   OH232850   7.095   1.388  12.482
 3812TIP3    H132851   7.070   1.317  12.421
 3812TIP3    H232852   7.101   1.337  12.566
 3813TIP3   OH232853   7.234   1.264  13.343
 3813TIP3    H132854   7.259   1.193  13.281
 3813TIP3    H232855   7.274   1.339  13.296
 3814TIP3   OH232856   6.707   0.936  12.306
 3814TIP3    H132857   6.638   0.995  12.271
 3814TIP3    H232858   6.778   0.947  12.241
 3815TIP3   OH232859   6.715   0.795  12.009
 3815TIP3    H132860   6.787   0.793  12.074
 3815TIP3    H232861   6.746   0.723  11.952
 3816TIP3   OH232862   7.049   0.959  12.396
 3816TIP3    H132863   6.977   0.984  12.458
 3816TIP3    H232864   7.098   0.896  12.453
 3817TIP3   OH232865   7.051   0.898  13.295
 3817TIP3    H132866   7.041   0.859  13.382
 3817TIP3    H232867   7.002   0.829  13.246
 3818TIP3   OH232868   6.213   1.024  12.592
 3818TIP3    H132869   6.182   0.986  12.507
 3818TIP3    H232870   6.275   0.955  12.625
 3819TIP3   OH232871   6.345   1.363  12.859
 3819TIP3    H132872   6.345   1.311  12.778
 3819TIP3    H232873   6.424   1.327  12.905
 3820TIP3   OH232874   6.248   0.901  12.957
 3820TIP3    H132875   6.304   0.910  12.877
 3820TIP3    H232876   6.287   0.967  13.019
 3821TIP3   OH232877   6.880   1.458  13.027
 3821TIP3    H132878   6.861   1.520  13.097
 3821TIP3    H232879   6.863   1.371  13.071
 3822TIP3   OH232880   6.342   1.342  13.427
 3822TIP3    H132881   6.300   1.416  13.476
 3822TIP3    H232882   6.275   1.322  13.357
 3823TIP3   OH232883   6.939   0.877  12.167
 3823TIP3    H132884   6.994   0.899  12.246
 3823TIP3    H232885   6.979   0.930  12.095
 3824TIP3   OH232886   6.038   0.961  13.343
 3824TIP3    H132887   6.041   1.027  13.415
 3824TIP3    H232888   5.943   0.965  13.321
 3825TIP3   OH232889   6.710   1.551  12.513
 3825TIP3    H132890   6.754   1.581  12.594
 3825TIP3    H232891   6.655   1.626  12.489
 3826TIP3   OH232892   6.167   1.546  13.502
 3826TIP3    H132893   6.160   1.536  13.405
 3826TIP3    H232894   6.074   1.532  13.529
 3827TIP3   OH232895   6.109   0.927  12.355
 3827TIP3    H132896   6.082   1.005  12.303
 3827TIP3    H232897   6.045   0.860  12.330
 3828TIP3   OH232898   5.719   1.171  13.244
 3828TIP3    H132899   5.675   1.162  13.157
 3828TIP3    H232900   5.728   1.075  13.264
 3829TIP3   OH232901   5.696   1.443  12.920
 3829TIP3    H132902   5.791   1.432  12.918
 3829TIP3    H232903   5.687   1.525  12.971
 3830TIP3   OH232904   6.615   1.468  13.376
 3830TIP3    H132905   6.622   1.552  13.427
 3830TIP3    H232906   6.528   1.432  13.401
 3831TIP3   OH232907   6.663   1.842  12.355
 3831TIP3    H132908   6.650   1.834  12.259
 3831TIP3    H232909   6.661   1.939  12.370
 3832TIP3   OH232910   6.023   1.730  12.537
 3832TIP3    H132911   6.038   1.688  12.625
 3832TIP3    H232912   5.938   1.689  12.513
 3833TIP3   OH232913   6.967   1.764  12.052
 3833TIP3    H132914   7.010   1.687  12.008
 3833TIP3    H232915   6.968   1.737  12.146
 3834TIP3   OH232916   6.932   1.755  12.332
 3834TIP3    H132917   6.836   1.764  12.348
 3834TIP3    H232918   6.955   1.681  12.389
 3835TIP3   OH232919   7.183   0.678  13.539
 3835TIP3    H132920   7.183   0.712  13.450
 3835TIP3    H232921   7.238   0.596  13.524
 3836TIP3   OH232922   5.948   1.302  13.337
 3836TIP3    H132923   5.970   1.265  13.425
 3836TIP3    H232924   5.861   1.262  13.316
 3837TIP3   OH232925   6.215   0.145  12.935
 3837TIP3    H132926   6.125   0.140  12.896
 3837TIP3    H232927   6.202   0.230  12.980
 3838TIP3   OH232928   6.678   0.118  13.273
 3838TIP3    H132929   6.721   0.076  13.348
 3838TIP3    H232930   6.583   0.106  13.289
 3839TIP3   OH232931   6.997   0.433  13.398
 3839TIP3    H132932   6.937   0.463  13.468
 3839TIP3    H232933   6.994   0.517  13.347
 3840TIP3   OH232934   7.089   0.973  11.948
 3840TIP3    H132935   7.082   0.957  11.851
 3840TIP3    H232936   7.166   1.029  11.951
 3841TIP3   OH232937   6.646   0.373  12.000
 3841TIP3    H132938   6.612   0.366  12.091
 3841TIP3    H232939   6.613   0.287  11.969
 3842TIP3   OH232940   6.225   0.647  13.058
 3842TIP3    H132941   6.149   0.644  13.120
 3842TIP3    H232942   6.219   0.737  13.020
 3843TIP3   OH232943   6.222   0.659  12.543
 3843TIP3    H132944   6.128   0.634  12.530
 3843TIP3    H232945   6.260   0.629  12.458
 3844TIP3   OH232946   6.777   0.710  12.421
 3844TIP3    H132947   6.735   0.791  12.384
 3844TIP3    H232948   6.845   0.692  12.354
 3845TIP3   OH232949   6.680   0.732  13.568
 3845TIP3    H132950   6.630   0.651  13.594
 3845TIP3    H232951   6.766   0.717  13.610
 3846TIP3   OH232952   6.875   0.661  12.704
 3846TIP3    H132953   6.851   0.714  12.627
 3846TIP3    H232954   6.887   0.573  12.662
 3847TIP3   OH232955   6.010   0.676  13.238
 3847TIP3    H132956   5.993   0.714  13.324
 3847TIP3    H232957   5.946   0.601  13.234
 3848TIP3   OH232958   6.325   0.413  11.912
 3848TIP3    H132959   6.279   0.369  11.986
 3848TIP3    H232960   6.255   0.452  11.859
 3849TIP3   OH232961   5.654   0.385  12.620
 3849TIP3    H132962   5.721   0.384  12.693
 3849TIP3    H232963   5.702   0.346  12.546
 3850TIP3   OH232964   5.781   0.456  12.162
 3850TIP3    H132965   5.832   0.514  12.103
 3850TIP3    H232966   5.712   0.518  12.191
 3851TIP3   OH232967   6.782   0.817  13.150
 3851TIP3    H132968   6.840   0.749  13.108
 3851TIP3    H232969   6.755   0.765  13.228
 3852TIP3   OH232970   6.478   0.412  12.642
 3852TIP3    H132971   6.385   0.413  12.674
 3852TIP3    H232972   6.529   0.398  12.725
 3853TIP3   OH232973   5.961   0.570  12.526
 3853TIP3    H132974   5.870   0.583  12.493
 3853TIP3    H232975   5.988   0.485  12.488
 3854TIP3   OH232976   6.323   0.573  12.293
 3854TIP3    H132977   6.418   0.583  12.310
 3854TIP3    H232978   6.299   0.642  12.229
 3855TIP3   OH232979   6.912   0.334  12.970
 3855TIP3    H132980   6.844   0.344  13.039
 3855TIP3    H232981   6.862   0.312  12.890
 3856TIP3   OH232982   6.194   0.691  12.052
 3856TIP3    H132983   6.140   0.653  11.980
 3856TIP3    H232984   6.276   0.711  12.005
 3857TIP3   OH232985   7.225   1.921  13.587
 3857TIP3    H132986   7.275   1.944  13.508
 3857TIP3    H232987   7.294   1.923  13.657
 3858TIP3   OH232988   6.006   1.148  13.558
 3858TIP3    H132989   6.078   1.172  13.618
 3858TIP3    H232990   5.929   1.156  13.618
 3859TIP3   OH232991   6.602   0.686  12.830
 3859TIP3    H132992   6.670   0.636  12.784
 3859TIP3    H232993   6.595   0.637  12.913
 3860TIP3   OH232994   6.105   0.306  12.477
 3860TIP3    H132995   6.074   0.214  12.479
 3860TIP3    H232996   6.184   0.298  12.422
 3861TIP3   OH232997   6.467   0.525  13.074
 3861TIP3    H132998   6.384   0.575  13.085
 3861TIP3    H232999   6.525   0.557  13.146
 3862TIP3   OH233000   6.529   1.144  12.245
 3862TIP3    H133001   6.449   1.097  12.211
 3862TIP3    H233002   6.506   1.156  12.339
 3863TIP3   OH233003   7.216   1.072  13.122
 3863TIP3    H133004   7.288   1.080  13.056
 3863TIP3    H233005   7.138   1.063  13.065
 3864TIP3   OH233006   6.915   0.428  12.062
 3864TIP3    H133007   6.819   0.439  12.047
 3864TIP3    H233008   6.942   0.514  12.099
 3865TIP3   OH233009   6.679   1.170  13.369
 3865TIP3    H133010   6.643   1.129  13.448
 3865TIP3    H233011   6.658   1.264  13.380
 3866TIP3   OH233012   6.985   0.620  12.222
 3866TIP3    H133013   7.072   0.605  12.265
 3866TIP3    H233014   6.995   0.703  12.174
 3867TIP3   OH233015   6.040   1.083  12.825
 3867TIP3    H133016   6.108   1.075  12.755
 3867TIP3    H233017   6.045   0.996  12.870
 3868TIP3   OH233018   6.736   1.291  12.148
 3868TIP3    H133019   6.704   1.376  12.184
 3868TIP3    H233020   6.664   1.229  12.171
 3869TIP3   OH233021   5.737   0.925  13.353
 3869TIP3    H133022   5.756   0.878  13.435
 3869TIP3    H233023   5.679   0.862  13.305
 3870TIP3   OH233024   6.442   0.881  13.569
 3870TIP3    H133025   6.408   0.849  13.484
 3870TIP3    H233026   6.533   0.847  13.568
 3871TIP3   OH233027   6.909   1.416  13.362
 3871TIP3    H133028   6.816   1.429  13.340
 3871TIP3    H233029   6.906   1.441  13.456
 3872TIP3   OH233030   7.020   0.999  12.944
 3872TIP3    H133031   6.927   0.970  12.944
 3872TIP3    H233032   7.067   0.919  12.915
 3873TIP3   OH233033   6.277   1.429  12.563
 3873TIP3    H133034   6.327   1.510  12.542
 3873TIP3    H233035   6.189   1.452  12.530
 3874TIP3   OH233036   5.854   0.913  12.020
 3874TIP3    H133037   5.912   0.979  12.061
 3874TIP3    H233038   5.765   0.944  12.045
 3875TIP3   OH233039   6.418   1.196  12.514
 3875TIP3    H133040   6.387   1.288  12.524
 3875TIP3    H233041   6.347   1.146  12.559
 3876TIP3   OH233042   6.463   1.614  13.156
 3876TIP3    H133043   6.510   1.694  13.127
 3876TIP3    H233044   6.525   1.580  13.224
 3877TIP3   OH233045   6.286   1.694  12.467
 3877TIP3    H133046   6.190   1.709  12.481
 3877TIP3    H233047   6.323   1.778  12.502
 3878TIP3   OH233048   6.818   1.212  13.118
 3878TIP3    H133049   6.784   1.194  13.208
 3878TIP3    H233050   6.881   1.139  13.102
 3879TIP3   OH233051   7.048   1.319  12.026
 3879TIP3    H133052   7.080   1.276  12.107
 3879TIP3    H233053   6.953   1.302  12.035
 3880TIP3   OH233054   7.096   1.668  13.364
 3880TIP3    H133055   7.024   1.622  13.316
 3880TIP3    H233056   7.119   1.741  13.302
 3881TIP3   OH233057   5.908   0.393  13.335
 3881TIP3    H133058   5.827   0.430  13.293
 3881TIP3    H233059   5.887   0.300  13.349
 3882TIP3   OH233060   7.128   1.180  12.249
 3882TIP3    H133061   7.105   1.103  12.306
 3882TIP3    H233062   7.221   1.192  12.271
 3883TIP3   OH233063   5.865   1.575  13.148
 3883TIP3    H133064   5.895   1.483  13.149
 3883TIP3    H233065   5.891   1.605  13.236
 3884TIP3   OH233066   6.463   1.428  11.876
 3884TIP3    H133067   6.473   1.352  11.817
 3884TIP3    H233068   6.418   1.385  11.953
 3885TIP3   OH233069   6.340   1.381  12.121
 3885TIP3    H133070   6.367   1.330  12.198
 3885TIP3    H233071   6.349   1.474  12.154
 3886TIP3   OH233072   5.994   1.106  12.170
 3886TIP3    H133073   5.923   1.145  12.224
 3886TIP3    H233074   6.045   1.184  12.141
 3887TIP3   OH233075   6.774   0.374  13.204
 3887TIP3    H133076   6.853   0.381  13.261
 3887TIP3    H233077   6.741   0.284  13.221
 3888TIP3   OH233078   6.859   0.330  12.312
 3888TIP3    H133079   6.875   0.378  12.228
 3888TIP3    H233080   6.910   0.382  12.375
 3889TIP3   OH233081   6.620   1.547  12.191
 3889TIP3    H133082   6.538   1.601  12.198
 3889TIP3    H233083   6.674   1.602  12.132
 3890TIP3   OH233084   6.576   0.504  12.394
 3890TIP3    H133085   6.652   0.565  12.397
 3890TIP3    H233086   6.550   0.496  12.488
 3891TIP3   OH233087   6.628   0.605  13.314
 3891TIP3    H133088   6.642   0.665  13.389
 3891TIP3    H233089   6.699   0.540  13.317
 3892TIP3   OH233090   6.658   0.213  12.484
 3892TIP3    H133091   6.628   0.281  12.548
 3892TIP3    H233092   6.726   0.266  12.436
 3893TIP3   OH233093   6.360   1.651  12.194
 3893TIP3    H133094   6.370   1.732  12.139
 3893TIP3    H233095   6.333   1.687  12.281
 3894TIP3   OH233096   6.223   0.322  12.150
 3894TIP3    H133097   6.218   0.411  12.189
 3894TIP3    H233098   6.316   0.302  12.175
 3895TIP3   OH233099   7.245   0.378  13.379
 3895TIP3    H133100   7.155   0.420  13.381
 3895TIP3    H233101   7.275   0.399  13.291
 3896TIP3   OH233102   7.110   0.774  12.796
 3896TIP3    H133103   7.026   0.732  12.773
 3896TIP3    H233104   7.150   0.706  12.851
 3897TIP3   OH233105   6.048   1.367  12.056
 3897TIP3    H133106   6.115   1.430  12.088
 3897TIP3    H233107   6.100   1.321  11.987
 3898TIP3   OH233108   5.882   0.636  11.972
 3898TIP3    H133109   5.884   0.731  11.992
 3898TIP3    H233110   5.793   0.618  11.940
 3899TIP3   OH233111   7.222   1.704  12.964
 3899TIP3    H133112   7.206   1.771  12.894
 3899TIP3    H233113   7.316   1.712  12.980
 3900TIP3   OH233114   5.943   0.127  12.851
 3900TIP3    H133115   5.946   0.120  12.753
 3900TIP3    H233116   5.925   0.036  12.873
 3901TIP3   OH233117   5.860   1.505  12.459
 3901TIP3    H133118   5.775   1.550  12.455
 3901TIP3    H233119   5.908   1.552  12.389
 3902TIP3   OH233120   5.780   1.770  13.587
 3902TIP3    H133121   5.841   1.750  13.661
 3902TIP3    H233122   5.740   1.683  13.569
 3903TIP3   OH233123   6.249   1.662  13.748
 3903TIP3    H133124   6.324   1.612  13.782
 3903TIP3    H233125   6.246   1.634  13.655
 3904TIP3   OH233126   6.663   1.613  11.887
 3904TIP3    H133127   6.593   1.548  11.911
 3904TIP3    H233128   6.735   1.553  11.864
 3905TIP3   OH233129   6.902   1.498  13.621
 3905TIP3    H133130   6.870   1.411  13.653
 3905TIP3    H233131   6.979   1.512  13.682
 3906TIP3   OH233132   7.115   1.590  11.912
 3906TIP3    H133133   7.146   1.510  11.957
 3906TIP3    H233134   7.190   1.608  11.852
 3907TIP3   OH233135   5.771   1.147  13.687
 3907TIP3    H133136   5.788   1.056  13.657
 3907TIP3    H233137   5.697   1.173  13.630
 3908TIP3   OH233138   6.206   1.182  11.889
 3908TIP3    H133139   6.221   1.106  11.948
 3908TIP3    H233140   6.281   1.170  11.828
 3909TIP3   OH233141   6.443   1.147  13.626
 3909TIP3    H133142   6.410   1.178  13.539
 3909TIP3    H233143   6.451   1.049  13.615
 3910TIP3   OH233144   6.749   1.293  11.867
 3910TIP3    H133145   6.722   1.301  11.960
 3910TIP3    H233146   6.730   1.197  11.852
 3911TIP3   OH233147   7.008   1.142  13.377
 3911TIP3    H133148   7.090   1.193  13.359
 3911TIP3    H233149   6.941   1.208  13.369
 3912TIP3   OH233150   5.863   0.869  13.624
 3912TIP3    H133151   5.905   0.783  13.614
 3912TIP3    H233152   5.840   0.870  13.719
 3913TIP3   OH233153   6.328   0.984  12.133
 3913TIP3    H133154   6.276   0.930  12.195
 3913TIP3    H233155   6.357   0.917  12.067
 3914TIP3   OH233156   6.259   0.767  13.365
 3914TIP3    H133157   6.193   0.835  13.386
 3914TIP3    H233158   6.291   0.800  13.279
 3915TIP3   OH233159   6.434   0.807  11.951
 3915TIP3    H133160   6.419   0.797  11.855
 3915TIP3    H233161   6.532   0.811  11.958
 3916TIP3   OH233162   6.761   1.022  13.694
 3916TIP3    H133163   6.856   1.021  13.681
 3916TIP3    H233164   6.746   0.944  13.750
 3917TIP3   OH233165   6.293   0.502  13.466
 3917TIP3    H133166   6.304   0.431  13.401
 3917TIP3    H233167   6.287   0.583  13.410
 3918TIP3   OH233168   6.335   0.341  13.218
 3918TIP3    H133169   6.384   0.391  13.149
 3918TIP3    H233170   6.244   0.333  13.179
 3919TIP3   OH233171   6.485   0.890  13.246
 3919TIP3    H133172   6.563   0.872  13.191
 3919TIP3    H233173   6.451   0.974  13.211
 3920TIP3   OH233174   6.934   0.667  13.748
 3920TIP3    H133175   6.955   0.574  13.730
 3920TIP3    H233176   7.021   0.709  13.737
 3921TIP3   OH233177   7.067   0.956  13.567
 3921TIP3    H133178   7.034   1.013  13.493
 3921TIP3    H233179   7.156   0.935  13.535
 3922TIP3   OH233180   6.139   0.627  13.659
 3922TIP3    H133181   6.062   0.570  13.639
 3922TIP3    H233182   6.205   0.592  13.596
 3923TIP3   OH233183   6.399   0.103  13.289
 3923TIP3    H133184   6.393   0.198  13.259
 3923TIP3    H233185   6.341   0.062  13.223
 3924TIP3   OH233186   6.537   0.521  13.622
 3924TIP3    H133187   6.511   0.489  13.710
 3924TIP3    H233188   6.460   0.496  13.569
 3925TIP3   OH233189   6.799   0.440  13.547
 3925TIP3    H133190   6.704   0.430  13.549
 3925TIP3    H233191   6.838   0.367  13.600
 3926TIP3   OH233192   6.981   0.302  13.730
 3926TIP3    H133193   6.963   0.205  13.724
 3926TIP3    H233194   6.941   0.323  13.816
 3927TIP3   OH233195   5.947   0.420  13.637
 3927TIP3    H133196   5.972   0.349  13.574
 3927TIP3    H233197   5.941   0.372  13.722
 3928TIP3   OH233198   6.433   7.324  13.534
 3928TIP3    H133199   6.502   7.258  13.538
 3928TIP3    H233200   6.423   7.345  13.439
 3929TIP3   OH233201   6.473   0.192  13.739
 3929TIP3    H133202   6.456   0.135  13.661
 3929TIP3    H233203   6.410   0.265  13.731
 3930TIP3   OH233204   6.418   1.876  12.059
 3930TIP3    H133205   6.515   1.885  12.066
 3930TIP3    H233206   6.403   1.936  11.986
 3931TIP3   OH233207   5.773   1.333  12.006
 3931TIP3    H133208   5.870   1.343  12.025
 3931TIP3    H233209   5.778   1.269  11.932
 3932TIP3   OH233210   5.652   1.872  12.503
 3932TIP3    H133211   5.579   1.823  12.457
 3932TIP3    H233212   5.679   1.806  12.570
 3933TIP3   OH233213   5.733   1.686  12.691
 3933TIP3    H133214   5.698   1.598  12.711
 3933TIP3    H233215   5.758   1.718  12.779
 3934TIP3   OH233216   7.280   1.491  13.208
 3934TIP3    H133217   7.214   1.534  13.265
 3934TIP3    H233218   7.227   1.454  13.135
 3935TIP3   OH233219   7.189   0.792  12.542
 3935TIP3    H133220   7.214   0.700  12.546
 3935TIP3    H233221   7.199   0.817  12.636
 3936TIP3   OH233222   5.739   0.999  12.940
 3936TIP3    H133223   5.757   0.983  12.844
 3936TIP3    H233224   5.827   0.973  12.976
 3937TIP3   OH233225   7.245   0.388  11.882
 3937TIP3    H133226   7.305   0.347  11.945
 3937TIP3    H233227   7.159   0.345  11.900
 3938TIP3   OH233228   7.202   0.536  12.364
 3938TIP3    H133229   7.232   0.453  12.405
 3938TIP3    H233230   7.287   0.572  12.334
 3939TIP3   OH233231  -0.055   0.516  12.919
 3939TIP3    H133232   0.035   0.549  12.911
 3939TIP3    H233233  -0.078   0.574  12.993
 3940TIP3   OH233234   7.299   0.684  13.237
 3940TIP3    H133235   7.200   0.686  13.230
 3940TIP3    H233236   7.318   0.750  13.168
 3941TIP3   OH233237   5.700   0.526  13.561
 3941TIP3    H133238   5.794   0.503  13.569
 3941TIP3    H233239   5.657   0.440  13.580
 3942TIP3   OH233240   7.182   0.239  12.450
 3942TIP3    H133241   7.275   0.226  12.472
 3942TIP3    H233242   7.184   0.198  12.361
 3943TIP3   OH233243   5.822   0.355  12.825
 3943TIP3    H133244   5.861   0.275  12.866
 3943TIP3    H233245   5.864   0.422  12.884
 3944TIP3   OH233246   5.633   0.673  12.921
 3944TIP3    H133247   5.704   0.624  12.873
 3944TIP3    H233248   5.695   0.726  12.974
 3945TIP3   OH233249   5.687   0.276  12.354
 3945TIP3    H133250   5.593   0.294  12.337
 3945TIP3    H233251   5.728   0.324  12.280
 3946TIP3   OH233252   7.141   1.755  12.556
 3946TIP3    H133253   7.208   1.723  12.495
 3946TIP3    H233254   7.193   1.814  12.614
 3947TIP3   OH233255   5.680   0.149  13.181
 3947TIP3    H133256   5.613   0.130  13.248
 3947TIP3    H233257   5.636   0.213  13.123
 3948TIP3   OH233258   5.905   1.463  13.597
 3948TIP3    H133259   5.821   1.486  13.553
 3948TIP3    H233260   5.878   1.456  13.689
 3949TIP3   OH233261   6.195   1.565  13.225
 3949TIP3    H133262   6.162   1.651  13.198
 3949TIP3    H233263   6.287   1.573  13.194
 3950TIP3   OH233264   6.627   1.707  13.515
 3950TIP3    H133265   6.640   1.671  13.606
 3950TIP3    H233266   6.717   1.737  13.491
 3951TIP3   OH233267   6.858   1.833  13.447
 3951TIP3    H133268   6.932   1.776  13.424
 3951TIP3    H233269   6.896   1.878  13.526
 3952TIP3   OH233270   5.937   1.888  13.224
 3952TIP3    H133271   5.864   1.938  13.185
 3952TIP3    H233272   5.905   1.870  13.314
 3953TIP3   OH233273   6.184   1.846  13.132
 3953TIP3    H133274   6.095   1.861  13.171
 3953TIP3    H233275   6.178   1.905  13.054
 3954TIP3   OH233276   6.651   1.835  13.049
 3954TIP3    H133277   6.608   1.893  12.984
 3954TIP3    H233278   6.667   1.899  13.122
 3955TIP3   OH233279   6.882   1.716  13.149
 3955TIP3    H133280   6.796   1.745  13.114
 3955TIP3    H233281   6.929   1.802  13.144
 3956TIP3   OH233282   7.128   1.875  13.173
 3956TIP3    H133283   7.128   1.970  13.151
 3956TIP3    H233284   7.162   1.838  13.089
 3957TIP3   OH233285   5.883   1.753  12.919
 3957TIP3    H133286   5.875   1.707  13.005
 3957TIP3    H233287   5.965   1.715  12.880
 3958TIP3   OH233288   6.090   1.624  12.784
 3958TIP3    H133289   6.074   1.531  12.807
 3958TIP3    H233290   6.176   1.640  12.829
 3959TIP3   OH233291   6.348   1.673  12.871
 3959TIP3    H133292   6.366   1.581  12.845
 3959TIP3    H233293   6.355   1.667  12.968
 3960TIP3   OH233294   6.683   0.244  12.783
 3960TIP3    H133295   6.625   0.172  12.812
 3960TIP3    H233296   6.752   0.195  12.735
 3961TIP3   OH233297   7.210   0.047  12.800
 3961TIP3    H133298   7.270   0.101  12.749
 3961TIP3    H233299   7.123   0.079  12.775
 3962TIP3   OH233300   5.930   0.104  12.573
 3962TIP3    H133301   5.853   0.080  12.519
 3962TIP3    H233302   5.978   0.020  12.577
 3963TIP3   OH233303   5.812   0.076  12.144
 3963TIP3    H133304   5.855   0.141  12.086
 3963TIP3    H233305   5.749   0.130  12.191
 3964TIP3   OH233306   6.387   0.086  12.548
 3964TIP3    H133307   6.472   0.132  12.544
 3964TIP3    H233308   6.376   0.070  12.642
 3965TIP3   OH233309   6.921   0.130  12.726
 3965TIP3    H133310   6.941   0.129  12.633
 3965TIP3    H233311   6.915   0.032  12.739
 3966TIP3   OH233312   7.075   0.092  12.268
 3966TIP3    H133313   7.002   0.156  12.262
 3966TIP3    H233314   7.034   0.010  12.296
 3967TIP3   OH233315   5.801   1.670  12.245
 3967TIP3    H133316   5.736   1.669  12.173
 3967TIP3    H233317   5.801   1.766  12.263
 3968TIP3   OH233318   5.990   0.263  11.996
 3968TIP3    H133319   6.047   0.208  11.939
 3968TIP3    H233320   6.055   0.301  12.057
 3969TIP3   OH233321   6.488   0.294  12.239
 3969TIP3    H133322   6.524   0.237  12.310
 3969TIP3    H233323   6.503   0.381  12.282
 3970TIP3   OH233324   6.688   1.801  12.079
 3970TIP3    H133325   6.780   1.824  12.057
 3970TIP3    H233326   6.667   1.749  11.998
 3971TIP3   OH233327   5.911   0.149  13.506
 3971TIP3    H133328   5.878   0.075  13.558
 3971TIP3    H233329   6.002   0.154  13.546
 3972TIP3   OH233330   6.096   0.114  13.670
 3972TIP3    H133331   6.190   0.094  13.656
 3972TIP3    H233332   6.079   0.029  13.713
 3973TIP3   OH233333   5.981   1.769  11.940
 3973TIP3    H133334   5.955   1.795  12.029
 3973TIP3    H233335   6.059   1.713  11.955
 3974TIP3   OH233336   6.960   7.360  13.685
 3974TIP3    H133337   6.961   7.304  13.766
 3974TIP3    H233338   7.048   7.337  13.653
 3975TIP3   OH233339   7.267   1.613  13.563
 3975TIP3    H133340   7.193   1.610  13.499
 3975TIP3    H233341   7.264   1.708  13.586
 3976TIP3   OH233342   1.186   2.900  12.555
 3976TIP3    H133343   1.184   2.998  12.553
 3976TIP3    H233344   1.112   2.876  12.496
 3977TIP3   OH233345   1.070   2.825  12.906
 3977TIP3    H133346   1.069   2.760  12.978
 3977TIP3    H233347   1.036   2.774  12.831
 3978TIP3   OH233348   0.311   2.791  13.058
 3978TIP3    H133349   0.317   2.724  13.129
 3978TIP3    H233350   0.381   2.852  13.085
 3979TIP3   OH233351   1.439   3.120  12.734
 3979TIP3    H133352   1.398   3.048  12.784
 3979TIP3    H233353   1.442   3.191  12.802
 3980TIP3   OH233354   0.398   3.236  12.913
 3980TIP3    H133355   0.367   3.150  12.878
 3980TIP3    H233356   0.494   3.219  12.915
 3981TIP3   OH233357   0.090   2.593  12.419
 3981TIP3    H133358   0.045   2.672  12.456
 3981TIP3    H233359   0.010   2.539  12.419
 3982TIP3   OH233360   0.130   2.809  12.670
 3982TIP3    H133361   0.160   2.733  12.723
 3982TIP3    H233362   0.204   2.826  12.610
 3983TIP3   OH233363   1.151   3.636  12.758
 3983TIP3    H133364   1.216   3.567  12.730
 3983TIP3    H233365   1.130   3.602  12.845
 3984TIP3   OH233366   0.908   3.065  12.954
 3984TIP3    H133367   0.942   3.002  12.888
 3984TIP3    H233368   0.989   3.081  13.005
 3985TIP3   OH233369   1.768   2.232  13.026
 3985TIP3    H133370   1.786   2.290  13.102
 3985TIP3    H233371   1.825   2.273  12.960
 3986TIP3   OH233372   1.225   2.512  12.985
 3986TIP3    H133373   1.242   2.416  12.985
 3986TIP3    H233374   1.215   2.526  12.889
 3987TIP3   OH233375   0.537   2.321  12.707
 3987TIP3    H133376   0.548   2.404  12.657
 3987TIP3    H233377   0.498   2.263  12.637
 3988TIP3   OH233378   1.310   2.329  12.543
 3988TIP3    H133379   1.375   2.297  12.610
 3988TIP3    H233380   1.366   2.387  12.490
 3989TIP3   OH233381   0.195   2.553  12.774
 3989TIP3    H133382   0.268   2.507  12.820
 3989TIP3    H233383   0.214   2.526  12.683
 3990TIP3   OH233384   0.714   2.717  12.712
 3990TIP3    H133385   0.782   2.659  12.751
 3990TIP3    H233386   0.663   2.651  12.661
 3991TIP3   OH233387   1.812   2.372  13.254
 3991TIP3    H133388   1.751   2.448  13.242
 3991TIP3    H233389   1.815   2.364  13.350
 3992TIP3   OH233390   0.431   2.211  13.110
 3992TIP3    H133391   0.400   2.268  13.036
 3992TIP3    H233392   0.363   2.233  13.178
 3993TIP3   OH233393   1.156   3.159  12.465
 3993TIP3    H133394   1.130   3.132  12.376
 3993TIP3    H233395   1.125   3.252  12.470
 3994TIP3   OH233396   0.681   2.975  13.134
 3994TIP3    H133397   0.609   3.039  13.156
 3994TIP3    H233398   0.750   3.036  13.105
 3995TIP3   OH233399   1.491   2.264  12.742
 3995TIP3    H133400   1.469   2.187  12.796
 3995TIP3    H233401   1.558   2.307  12.798
 3996TIP3   OH233402   0.382   2.395  12.914
 3996TIP3    H133403   0.444   2.464  12.946
 3996TIP3    H233404   0.436   2.356  12.840
 3997TIP3   OH233405   0.522   3.174  13.215
 3997TIP3    H133406   0.518   3.266  13.182
 3997TIP3    H233407   0.434   3.166  13.259
 3998TIP3   OH233408   0.128   3.140  12.291
 3998TIP3    H133409   0.108   3.174  12.202
 3998TIP3    H233410   0.139   3.221  12.344
 3999TIP3   OH233411   1.492   3.304  12.971
 3999TIP3    H133412   1.395   3.315  12.983
 3999TIP3    H233413   1.519   3.395  12.951
 4000TIP3   OH233414   1.524   2.132  13.110
 4000TIP3    H133415   1.452   2.195  13.101
 4000TIP3    H233416   1.596   2.174  13.058
 4001TIP3   OH233417   0.821   1.945  12.856
 4001TIP3    H133418   0.808   1.848  12.849
 4001TIP3    H233419   0.733   1.975  12.887
 4002TIP3   OH233420   1.318   3.482  12.630
 4002TIP3    H133421   1.361   3.410  12.579
 4002TIP3    H233422   1.362   3.561  12.591
 4003TIP3   OH233423   1.440   3.275  12.482
 4003TIP3    H133424   1.409   3.205  12.422
 4003TIP3    H233425   1.443   3.226  12.566
 4004TIP3   OH233426   1.601   3.135  13.331
 4004TIP3    H133427   1.616   3.069  13.259
 4004TIP3    H233428   1.622   3.219  13.287
 4005TIP3   OH233429   1.051   2.823  12.307
 4005TIP3    H133430   0.981   2.881  12.271
 4005TIP3    H233431   1.122   2.833  12.241
 4006TIP3   OH233432   1.059   2.680  12.008
 4006TIP3    H133433   1.129   2.678  12.075
 4006TIP3    H233434   1.090   2.608  11.952
 4007TIP3   OH233435   1.790   2.766  13.136
 4007TIP3    H133436   1.724   2.838  13.139
 4007TIP3    H233437   1.839   2.789  13.055
 4008TIP3   OH233438   1.397   2.844  12.399
 4008TIP3    H133439   1.322   2.868  12.459
 4008TIP3    H233440   1.443   2.777  12.452
 4009TIP3   OH233441   1.389   2.661  13.312
 4009TIP3    H133442   1.389   2.743  13.364
 4009TIP3    H233443   1.325   2.690  13.243
 4010TIP3   OH233444   0.559   2.911  12.592
 4010TIP3    H133445   0.523   2.871  12.509
 4010TIP3    H233446   0.619   2.841  12.625
 4011TIP3   OH233447   0.689   3.248  12.859
 4011TIP3    H133448   0.688   3.196  12.778
 4011TIP3    H233449   0.767   3.213  12.905
 4012TIP3   OH233450   0.593   2.784  12.958
 4012TIP3    H133451   0.646   2.796  12.877
 4012TIP3    H233452   0.629   2.853  13.019
 4013TIP3   OH233453   1.231   3.342  13.028
 4013TIP3    H133454   1.203   3.406  13.094
 4013TIP3    H233455   1.205   3.257  13.070
 4014TIP3   OH233456   0.685   3.228  13.427
 4014TIP3    H133457   0.643   3.302  13.476
 4014TIP3    H233458   0.618   3.208  13.357
 4015TIP3   OH233459   1.283   2.765  12.166
 4015TIP3    H133460   1.339   2.782  12.246
 4015TIP3    H233461   1.329   2.814  12.094
 4016TIP3   OH233462   0.379   2.845  13.345
 4016TIP3    H133463   0.383   2.913  13.414
 4016TIP3    H233464   0.285   2.854  13.322
 4017TIP3   OH233465   1.055   3.437  12.513
 4017TIP3    H133466   1.098   3.467  12.594
 4017TIP3    H233467   0.999   3.512  12.490
 4018TIP3   OH233468   0.510   3.430  13.502
 4018TIP3    H133469   0.502   3.422  13.405
 4018TIP3    H233470   0.416   3.418  13.528
 4019TIP3   OH233471   1.656   1.938  12.157
 4019TIP3    H133472   1.561   1.949  12.181
 4019TIP3    H233473   1.676   2.022  12.112
 4020TIP3   OH233474   0.455   2.812  12.354
 4020TIP3    H133475   0.426   2.890  12.303
 4020TIP3    H233476   0.390   2.746  12.331
 4021TIP3   OH233477   1.767   3.373  11.991
 4021TIP3    H133478   1.784   3.467  12.008
 4021TIP3    H233479   1.859   3.342  11.991
 4022TIP3   OH233480   0.122   3.042  13.217
 4022TIP3    H133481   0.045   3.055  13.158
 4022TIP3    H233482   0.085   2.964  13.263
 4023TIP3   OH233483   0.069   3.353  12.892
 4023TIP3    H133484   0.151   3.312  12.921
 4023TIP3    H233485   0.040   3.399  12.972
 4024TIP3   OH233486   1.863   3.400  13.490
 4024TIP3    H133487   1.851   3.304  13.487
 4024TIP3    H233488   1.775   3.424  13.528
 4025TIP3   OH233489   0.958   3.353  13.376
 4025TIP3    H133490   0.964   3.438  13.426
 4025TIP3    H233491   0.871   3.317  13.401
 4026TIP3   OH233492   1.003   3.728  12.355
 4026TIP3    H133493   0.992   3.720  12.258
 4026TIP3    H233494   1.003   3.824  12.370
 4027TIP3   OH233495   0.365   3.616  12.536
 4027TIP3    H133496   0.380   3.575  12.624
 4027TIP3    H233497   0.282   3.572  12.512
 4028TIP3   OH233498   1.308   3.649  12.053
 4028TIP3    H133499   1.354   3.573  12.010
 4028TIP3    H233500   1.312   3.623  12.147
 4029TIP3   OH233501   1.278   3.642  12.330
 4029TIP3    H133502   1.181   3.650  12.348
 4029TIP3    H233503   1.301   3.568  12.388
 4030TIP3   OH233504   1.577   2.546  13.535
 4030TIP3    H133505   1.529   2.591  13.463
 4030TIP3    H233506   1.575   2.454  13.505
 4031TIP3   OH233507   0.293   3.195  13.344
 4031TIP3    H133508   0.311   3.151  13.428
 4031TIP3    H233509   0.210   3.151  13.315
 4032TIP3   OH233510   0.560   2.036  12.932
 4032TIP3    H133511   0.470   2.023  12.895
 4032TIP3    H233512   0.546   2.118  12.981
 4033TIP3   OH233513   1.024   2.001  13.268
 4033TIP3    H133514   1.063   1.959  13.347
 4033TIP3    H233515   0.927   1.990  13.283
 4034TIP3   OH233516   1.352   2.386  13.358
 4034TIP3    H133517   1.296   2.364  13.436
 4034TIP3    H233518   1.334   2.479  13.335
 4035TIP3   OH233519   1.428   2.868  11.948
 4035TIP3    H133520   1.426   2.848  11.851
 4035TIP3    H233521   1.514   2.912  11.953
 4036TIP3   OH233522   0.988   2.260  11.999
 4036TIP3    H133523   0.956   2.254  12.091
 4036TIP3    H233524   0.957   2.172  11.968
 4037TIP3   OH233525   0.568   2.532  13.057
 4037TIP3    H133526   0.495   2.532  13.122
 4037TIP3    H233527   0.566   2.623  13.020
 4038TIP3   OH233528   0.568   2.544  12.543
 4038TIP3    H133529   0.474   2.519  12.530
 4038TIP3    H233530   0.605   2.514  12.458
 4039TIP3   OH233531   1.117   2.594  12.421
 4039TIP3    H133532   1.078   2.676  12.384
 4039TIP3    H233533   1.186   2.577  12.355
 4040TIP3   OH233534   1.023   2.615  13.564
 4040TIP3    H133535   0.970   2.537  13.595
 4040TIP3    H233536   1.107   2.603  13.612
 4041TIP3   OH233537   1.221   2.543  12.705
 4041TIP3    H133538   1.193   2.599  12.631
 4041TIP3    H233539   1.230   2.458  12.658
 4042TIP3   OH233540   0.333   2.555  13.225
 4042TIP3    H133541   0.335   2.598  13.313
 4042TIP3    H233542   0.284   2.474  13.245
 4043TIP3   OH233543   0.669   2.297  11.910
 4043TIP3    H133544   0.624   2.254  11.986
 4043TIP3    H233545   0.598   2.340  11.861
 4044TIP3   OH233546   0.036   2.300  12.605
 4044TIP3    H133547   0.068   2.265  12.690
 4044TIP3    H233548   0.049   2.224  12.548
 4045TIP3   OH233549   0.123   2.354  12.156
 4045TIP3    H133550   0.179   2.410  12.098
 4045TIP3    H233551   0.050   2.410  12.180
 4046TIP3   OH233552   1.141   2.701  13.160
 4046TIP3    H133553   1.179   2.633  13.102
 4046TIP3    H233554   1.094   2.648  13.228
 4047TIP3   OH233555   0.821   2.299  12.644
 4047TIP3    H133556   0.728   2.299  12.673
 4047TIP3    H233557   0.869   2.282  12.726
 4048TIP3   OH233558   0.303   2.453  12.530
 4048TIP3    H133559   0.216   2.471  12.491
 4048TIP3    H233560   0.327   2.368  12.489
 4049TIP3   OH233561   0.666   2.459  12.294
 4049TIP3    H133562   0.762   2.470  12.309
 4049TIP3    H233563   0.641   2.527  12.229
 4050TIP3   OH233564   1.261   2.222  12.968
 4050TIP3    H133565   1.193   2.227  13.039
 4050TIP3    H233566   1.211   2.197  12.890
 4051TIP3   OH233567   0.538   2.576  12.051
 4051TIP3    H133568   0.484   2.539  11.979
 4051TIP3    H233569   0.620   2.597  12.005
 4052TIP3   OH233570   1.581   3.787  13.601
 4052TIP3    H133571   1.608   3.825  13.515
 4052TIP3    H233572   1.654   3.819  13.657
 4053TIP3   OH233573   0.347   3.033  13.559
 4053TIP3    H133574   0.421   3.057  13.618
 4053TIP3    H233575   0.272   3.044  13.620
 4054TIP3   OH233576   0.948   2.574  12.833
 4054TIP3    H133577   1.009   2.521  12.780
 4054TIP3    H233578   0.935   2.520  12.912
 4055TIP3   OH233579   0.449   2.190  12.476
 4055TIP3    H133580   0.418   2.098  12.476
 4055TIP3    H233581   0.529   2.182  12.423
 4056TIP3   OH233582   0.813   2.407  13.075
 4056TIP3    H133583   0.731   2.459  13.084
 4056TIP3    H233584   0.869   2.443  13.147
 4057TIP3   OH233585   0.872   3.030  12.244
 4057TIP3    H133586   0.792   2.983  12.211
 4057TIP3    H233587   0.849   3.042  12.339
 4058TIP3   OH233588   1.591   2.950  13.125
 4058TIP3    H133589   1.647   2.998  13.062
 4058TIP3    H233590   1.505   2.954  13.079
 4059TIP3   OH233591   1.255   2.311  12.062
 4059TIP3    H133592   1.160   2.326  12.049
 4059TIP3    H233593   1.289   2.396  12.097
 4060TIP3   OH233594   1.021   3.057  13.369
 4060TIP3    H133595   0.986   3.014  13.448
 4060TIP3    H233596   0.995   3.149  13.380
 4061TIP3   OH233597   1.329   2.503  12.224
 4061TIP3    H133598   1.417   2.490  12.265
 4061TIP3    H233599   1.339   2.585  12.173
 4062TIP3   OH233600   0.382   2.969  12.823
 4062TIP3    H133601   0.450   2.961  12.754
 4062TIP3    H233602   0.392   2.885  12.871
 4063TIP3   OH233603   1.081   3.176  12.148
 4063TIP3    H133604   1.047   3.261  12.183
 4063TIP3    H233605   1.008   3.115  12.169
 4064TIP3   OH233606   0.079   2.807  13.351
 4064TIP3    H133607   0.105   2.763  13.434
 4064TIP3    H233608   0.020   2.743  13.308
 4065TIP3   OH233609   0.783   2.766  13.568
 4065TIP3    H133610   0.751   2.734  13.482
 4065TIP3    H233611   0.875   2.733  13.568
 4066TIP3   OH233612   1.252   3.299  13.364
 4066TIP3    H133613   1.159   3.317  13.340
 4066TIP3    H233614   1.248   3.328  13.457
 4067TIP3   OH233615   1.819   2.517  12.202
 4067TIP3    H133616   1.762   2.488  12.128
 4067TIP3    H233617   1.826   2.612  12.177
 4068TIP3   OH233618   1.817   3.103  13.483
 4068TIP3    H133619   1.728   3.125  13.447
 4068TIP3    H233620   1.872   3.098  13.402
 4069TIP3   OH233621   1.644   3.400  12.242
 4069TIP3    H133622   1.611   3.316  12.277
 4069TIP3    H233623   1.680   3.378  12.154
 4070TIP3   OH233624   1.368   2.881  12.953
 4070TIP3    H133625   1.274   2.861  12.942
 4070TIP3    H233626   1.411   2.805  12.909
 4071TIP3   OH233627   0.619   3.315  12.564
 4071TIP3    H133628   0.670   3.395  12.543
 4071TIP3    H233629   0.531   3.338  12.531
 4072TIP3   OH233630   0.192   2.799  12.024
 4072TIP3    H133631   0.256   2.865  12.059
 4072TIP3    H233632   0.106   2.834  12.050
 4073TIP3   OH233633   0.761   3.081  12.514
 4073TIP3    H133634   0.730   3.173  12.524
 4073TIP3    H233635   0.690   3.032  12.559
 4074TIP3   OH233636   0.808   3.499  13.156
 4074TIP3    H133637   0.853   3.580  13.127
 4074TIP3    H233638   0.869   3.465  13.224
 4075TIP3   OH233639   0.629   3.580  12.467
 4075TIP3    H133640   0.533   3.595  12.481
 4075TIP3    H233641   0.666   3.664  12.502
 4076TIP3   OH233642   1.159   3.099  13.117
 4076TIP3    H133643   1.127   3.080  13.208
 4076TIP3    H233644   1.223   3.028  13.101
 4077TIP3   OH233645   1.393   3.207  12.027
 4077TIP3    H133646   1.423   3.160  12.107
 4077TIP3    H233647   1.298   3.189  12.035
 4078TIP3   OH233648   1.441   3.557  13.366
 4078TIP3    H133649   1.372   3.508  13.319
 4078TIP3    H233650   1.459   3.627  13.300
 4079TIP3   OH233651   1.839   3.642  12.052
 4079TIP3    H133652   1.908   3.709  12.032
 4079TIP3    H233653   1.768   3.703  12.081
 4080TIP3   OH233654   0.247   2.283  13.301
 4080TIP3    H133655   0.158   2.320  13.311
 4080TIP3    H233656   0.236   2.200  13.350
 4081TIP3   OH233657   1.470   3.070  12.251
 4081TIP3    H133658   1.447   2.992  12.305
 4081TIP3    H233659   1.566   3.075  12.269
 4082TIP3   OH233660   0.225   3.466  13.144
 4082TIP3    H133661   0.237   3.371  13.149
 4082TIP3    H233662   0.234   3.490  13.237
 4083TIP3   OH233663   0.806   3.314  11.876
 4083TIP3    H133664   0.816   3.238  11.817
 4083TIP3    H233665   0.762   3.271  11.953
 4084TIP3   OH233666   0.683   3.267  12.121
 4084TIP3    H133667   0.710   3.215  12.198
 4084TIP3    H233668   0.692   3.359  12.154
 4085TIP3   OH233669   0.332   2.991  12.169
 4085TIP3    H133670   0.261   3.030  12.224
 4085TIP3    H233671   0.385   3.069  12.142
 4086TIP3   OH233672   1.120   2.260  13.202
 4086TIP3    H133673   1.192   2.266  13.266
 4086TIP3    H233674   1.082   2.173  13.222
 4087TIP3   OH233675   1.194   2.217  12.310
 4087TIP3    H133676   1.218   2.263  12.228
 4087TIP3    H233677   1.252   2.261  12.374
 4088TIP3   OH233678   0.964   3.433  12.191
 4088TIP3    H133679   0.882   3.486  12.198
 4088TIP3    H233680   1.017   3.488  12.132
 4089TIP3   OH233681   0.918   2.392  12.392
 4089TIP3    H133682   0.996   2.451  12.397
 4089TIP3    H233683   0.891   2.380  12.485
 4090TIP3   OH233684   0.973   2.495  13.312
 4090TIP3    H133685   0.980   2.550  13.391
 4090TIP3    H233686   1.039   2.425  13.321
 4091TIP3   OH233687   1.002   2.098  12.480
 4091TIP3    H133688   0.970   2.163  12.546
 4091TIP3    H233689   1.072   2.152  12.436
 4092TIP3   OH233690   0.704   3.536  12.194
 4092TIP3    H133691   0.713   3.617  12.139
 4092TIP3    H233692   0.676   3.573  12.281
 4093TIP3   OH233693   0.569   2.208  12.151
 4093TIP3    H133694   0.563   2.298  12.190
 4093TIP3    H233695   0.660   2.184  12.178
 4094TIP3   OH233696   1.591   2.282  13.396
 4094TIP3    H133697   1.498   2.313  13.383
 4094TIP3    H233698   1.621   2.280  13.304
 4095TIP3   OH233699   1.452   2.660  12.796
 4095TIP3    H133700   1.370   2.616  12.769
 4095TIP3    H233701   1.500   2.592  12.848
 4096TIP3   OH233702   0.390   3.254  12.056
 4096TIP3    H133703   0.457   3.317  12.087
 4096TIP3    H233704   0.443   3.206  11.989
 4097TIP3   OH233705   0.221   2.519  11.969
 4097TIP3    H133706   0.228   2.614  11.989
 4097TIP3    H233707   0.133   2.502  11.935
 4098TIP3   OH233708   1.558   3.587  12.964
 4098TIP3    H133709   1.550   3.655  12.894
 4098TIP3    H233710   1.655   3.592  12.981
 4099TIP3   OH233711   0.310   1.997  12.843
 4099TIP3    H133712   0.288   2.000  12.747
 4099TIP3    H233713   0.266   1.914  12.869
 4100TIP3   OH233714   0.205   3.391  12.461
 4100TIP3    H133715   0.119   3.434  12.455
 4100TIP3    H233716   0.252   3.437  12.390
 4101TIP3   OH233717   0.154   3.658  13.586
 4101TIP3    H133718   0.195   3.635  13.671
 4101TIP3    H233719   0.102   3.577  13.571
 4102TIP3   OH233720   0.592   3.546  13.748
 4102TIP3    H133721   0.668   3.497  13.781
 4102TIP3    H233722   0.589   3.519  13.654
 4103TIP3   OH233723   1.005   3.499  11.889
 4103TIP3    H133724   0.936   3.433  11.911
 4103TIP3    H233725   1.077   3.439  11.864
 4104TIP3   OH233726   1.242   3.386  13.623
 4104TIP3    H133727   1.211   3.297  13.651
 4104TIP3    H233728   1.319   3.398  13.683
 4105TIP3   OH233729   1.461   3.474  11.907
 4105TIP3    H133730   1.491   3.396  11.958
 4105TIP3    H233731   1.537   3.496  11.852
 4106TIP3   OH233732   0.111   3.033  13.686
 4106TIP3    H133733   0.133   2.944  13.654
 4106TIP3    H233734   0.040   3.061  13.628
 4107TIP3   OH233735   0.550   3.068  11.889
 4107TIP3    H133736   0.563   2.991  11.947
 4107TIP3    H233737   0.625   3.056  11.827
 4108TIP3   OH233738   0.786   3.032  13.626
 4108TIP3    H133739   0.753   3.063  13.539
 4108TIP3    H233740   0.794   2.934  13.615
 4109TIP3   OH233741   1.093   3.178  11.867
 4109TIP3    H133742   1.066   3.187  11.960
 4109TIP3    H233743   1.074   3.083  11.852
 4110TIP3   OH233744   1.356   3.018  13.365
 4110TIP3    H133745   1.435   3.076  13.359
 4110TIP3    H233746   1.286   3.085  13.368
 4111TIP3   OH233747   0.200   2.754  13.624
 4111TIP3    H133748   0.249   2.670  13.616
 4111TIP3    H233749   0.183   2.755  13.720
 4112TIP3   OH233750   0.670   2.869  12.132
 4112TIP3    H133751   0.620   2.815  12.195
 4112TIP3    H233752   0.700   2.802  12.067
 4113TIP3   OH233753   0.596   2.650  13.361
 4113TIP3    H133754   0.536   2.721  13.387
 4113TIP3    H233755   0.636   2.687  13.280
 4114TIP3   OH233756   0.777   2.692  11.952
 4114TIP3    H133757   0.762   2.683  11.856
 4114TIP3    H233758   0.875   2.697  11.958
 4115TIP3   OH233759   1.104   2.907  13.694
 4115TIP3    H133760   1.200   2.905  13.683
 4115TIP3    H233761   1.087   2.830  13.751
 4116TIP3   OH233762   1.711   2.924  11.893
 4116TIP3    H133763   1.691   2.885  11.806
 4116TIP3    H233764   1.720   3.020  11.874
 4117TIP3   OH233765   0.640   2.388  13.466
 4117TIP3    H133766   0.649   2.317  13.400
 4117TIP3    H233767   0.631   2.469  13.412
 4118TIP3   OH233768   0.678   2.226  13.222
 4118TIP3    H133769   0.729   2.273  13.151
 4118TIP3    H233770   0.589   2.218  13.181
 4119TIP3   OH233771   0.831   2.775  13.246
 4119TIP3    H133772   0.907   2.758  13.189
 4119TIP3    H233773   0.795   2.858  13.212
 4120TIP3   OH233774   1.270   2.551  13.739
 4120TIP3    H133775   1.294   2.457  13.733
 4120TIP3    H233776   1.357   2.594  13.745
 4121TIP3   OH233777   1.405   2.830  13.559
 4121TIP3    H133778   1.380   2.902  13.497
 4121TIP3    H233779   1.501   2.826  13.540
 4122TIP3   OH233780   0.481   2.514  13.657
 4122TIP3    H133781   0.405   2.454  13.642
 4122TIP3    H233782   0.547   2.476  13.597
 4123TIP3   OH233783   0.756   1.970  13.261
 4123TIP3    H133784   0.738   2.066  13.251
 4123TIP3    H233785   0.682   1.933  13.210
 4124TIP3   OH233786   0.884   2.403  13.623
 4124TIP3    H133787   0.852   2.379  13.713
 4124TIP3    H233788   0.806   2.383  13.569
 4125TIP3   OH233789   1.156   2.317  13.532
 4125TIP3    H133790   1.059   2.322  13.543
 4125TIP3    H233791   1.182   2.253  13.601
 4126TIP3   OH233792   1.314   2.179  13.722
 4126TIP3    H133793   1.309   2.081  13.725
 4126TIP3    H233794   1.289   2.208  13.812
 4127TIP3   OH233795   0.306   2.303  13.638
 4127TIP3    H133796   0.317   2.231  13.574
 4127TIP3    H233797   0.284   2.256  13.721
 4128TIP3   OH233798   0.778   1.909  13.531
 4128TIP3    H133799   0.844   1.838  13.530
 4128TIP3    H233800   0.767   1.923  13.435
 4129TIP3   OH233801   0.814   2.070  13.742
 4129TIP3    H133802   0.797   2.020  13.659
 4129TIP3    H233803   0.754   2.147  13.732
 4130TIP3   OH233804   0.761   3.762  12.060
 4130TIP3    H133805   0.857   3.770  12.066
 4130TIP3    H233806   0.746   3.822  11.986
 4131TIP3   OH233807   0.120   3.219  12.008
 4131TIP3    H133808   0.216   3.230  12.025
 4131TIP3    H233809   0.124   3.155  11.934
 4132TIP3   OH233810   7.338   3.774  12.486
 4132TIP3    H133811   7.247   3.753  12.456
 4132TIP3    H233812   7.347   3.710  12.562
 4133TIP3   OH233813   0.079   3.575  12.686
 4133TIP3    H133814   0.044   3.486  12.709
 4133TIP3    H233815   0.104   3.603  12.776
 4134TIP3   OH233816   1.830   3.651  12.984
 4134TIP3    H133817   1.834   3.667  13.079
 4134TIP3    H233818   1.901   3.709  12.953
 4135TIP3   OH233819   1.788   3.610  13.278
 4135TIP3    H133820   1.741   3.533  13.240
 4135TIP3    H233821   1.836   3.566  13.349
 4136TIP3   OH233822   1.632   3.182  13.745
 4136TIP3    H133823   1.542   3.180  13.782
 4136TIP3    H233824   1.669   3.263  13.787
 4137TIP3   OH233825   1.764   3.016  12.288
 4137TIP3    H133826   1.850   3.054  12.307
 4137TIP3    H233827   1.762   2.944  12.355
 4138TIP3   OH233828   1.800   2.823  12.477
 4138TIP3    H133829   1.725   2.773  12.516
 4138TIP3    H233830   1.859   2.836  12.553
 4139TIP3   OH233831   1.775   3.093  12.976
 4139TIP3    H133832   1.857   3.055  12.938
 4139TIP3    H233833   1.790   3.188  12.959
 4140TIP3   OH233834   1.631   3.383  13.202
 4140TIP3    H133835   1.562   3.417  13.261
 4140TIP3    H233836   1.577   3.343  13.132
 4141TIP3   OH233837   1.830   2.805  12.116
 4141TIP3    H133838   1.773   2.840  12.044
 4141TIP3    H233839   1.820   2.877  12.182
 4142TIP3   OH233840   1.667   2.528  11.967
 4142TIP3    H133841   1.675   2.595  11.898
 4142TIP3    H233842   1.649   2.446  11.918
 4143TIP3   OH233843   1.582   2.670  12.534
 4143TIP3    H133844   1.567   2.575  12.530
 4143TIP3    H233845   1.549   2.692  12.623
 4144TIP3   OH233846   0.084   2.877  12.932
 4144TIP3    H133847   0.104   2.873  12.836
 4144TIP3    H233848   0.172   2.866  12.974
 4145TIP3   OH233849   1.668   2.867  13.503
 4145TIP3    H133850   1.729   2.791  13.516
 4145TIP3    H233851   1.728   2.944  13.503
 4146TIP3   OH233852   1.818   2.655  13.568
 4146TIP3    H133853   1.730   2.615  13.553
 4146TIP3    H233854   1.875   2.577  13.561
 4147TIP3   OH233855   1.592   2.275  11.881
 4147TIP3    H133856   1.651   2.232  11.946
 4147TIP3    H233857   1.506   2.234  11.896
 4148TIP3   OH233858   1.546   2.428  12.375
 4148TIP3    H133859   1.578   2.336  12.392
 4148TIP3    H233860   1.629   2.469  12.345
 4149TIP3   OH233861   1.613   2.483  12.924
 4149TIP3    H133862   1.709   2.506  12.923
 4149TIP3    H233863   1.594   2.497  13.018
 4150TIP3   OH233864   1.619   2.555  13.203
 4150TIP3    H133865   1.531   2.584  13.234
 4150TIP3    H233866   1.662   2.641  13.180
 4151TIP3   OH233867   0.071   2.396  13.553
 4151TIP3    H133868   0.160   2.377  13.587
 4151TIP3    H233869   0.014   2.327  13.595
 4152TIP3   OH233870   1.846   1.962  13.736
 4152TIP3    H133871   1.882   1.895  13.674
 4152TIP3    H233872   1.857   2.043  13.683
 4153TIP3   OH233873   1.616   2.157  12.385
 4153TIP3    H133874   1.637   2.114  12.470
 4153TIP3    H233875   1.556   2.093  12.341
 4154TIP3   OH233876   0.168   2.234  12.836
 4154TIP3    H133877   0.214   2.154  12.869
 4154TIP3    H233878   0.218   2.304  12.881
 4155TIP3   OH233879   0.050   2.614  12.980
 4155TIP3    H133880   0.054   2.571  12.892
 4155TIP3    H233881   0.058   2.705  12.952
 4156TIP3   OH233882   1.798   2.172  13.572
 4156TIP3    H133883   1.705   2.199  13.567
 4156TIP3    H233884   1.802   2.116  13.492
 4157TIP3   OH233885   1.797   2.161  12.040
 4157TIP3    H133886   1.839   2.090  11.986
 4157TIP3    H233887   1.868   2.227  12.045
 4158TIP3   OH233888   0.076   2.159  12.308
 4158TIP3    H133889  -0.019   2.178  12.320
 4158TIP3    H233890   0.098   2.235  12.250
 4159TIP3   OH233891   1.503   3.659  12.547
 4159TIP3    H133892   1.571   3.629  12.484
 4159TIP3    H233893   1.554   3.709  12.612
 4160TIP3   OH233894   7.355   2.026  13.202
 4160TIP3    H133895   7.276   2.005  13.255
 4160TIP3    H233896   7.307   2.077  13.135
 4161TIP3   OH233897   0.244   3.352  13.598
 4161TIP3    H133898   0.160   3.370  13.555
 4161TIP3    H233899   0.219   3.342  13.690
 4162TIP3   OH233900   0.541   3.452  13.228
 4162TIP3    H133901   0.501   3.536  13.198
 4162TIP3    H233902   0.632   3.461  13.193
 4163TIP3   OH233903   0.970   3.592  13.515
 4163TIP3    H133904   0.983   3.557  13.606
 4163TIP3    H233905   1.060   3.623  13.491
 4164TIP3   OH233906   1.198   3.719  13.446
 4164TIP3    H133907   1.272   3.661  13.423
 4164TIP3    H233908   1.236   3.763  13.526
 4165TIP3   OH233909   1.700   1.980  13.357
 4165TIP3    H133910   1.618   2.010  13.316
 4165TIP3    H233911   1.717   1.898  13.305
 4166TIP3   OH233912   0.283   3.774  13.227
 4166TIP3    H133913   0.208   3.823  13.187
 4166TIP3    H233914   0.249   3.755  13.315
 4167TIP3   OH233915   0.528   3.732  13.130
 4167TIP3    H133916   0.439   3.745  13.170
 4167TIP3    H233917   0.523   3.792  13.054
 4168TIP3   OH233918   0.998   3.723  13.048
 4168TIP3    H133919   0.951   3.778  12.984
 4168TIP3    H233920   1.011   3.786  13.122
 4169TIP3   OH233921   1.226   3.603  13.152
 4169TIP3    H133922   1.141   3.631  13.115
 4169TIP3    H233923   1.275   3.687  13.142
 4170TIP3   OH233924   1.485   3.761  13.174
 4170TIP3    H133925   1.479   3.856  13.151
 4170TIP3    H233926   1.506   3.723  13.086
 4171TIP3   OH233927   0.221   3.639  12.918
 4171TIP3    H133928   0.220   3.594  13.005
 4171TIP3    H233929   0.302   3.601  12.879
 4172TIP3   OH233930   0.431   3.510  12.785
 4172TIP3    H133931   0.415   3.416  12.808
 4172TIP3    H233932   0.517   3.525  12.829
 4173TIP3   OH233933   0.692   3.557  12.872
 4173TIP3    H133934   0.710   3.465  12.846
 4173TIP3    H233935   0.699   3.553  12.969
 4174TIP3   OH233936   1.039   2.123  12.786
 4174TIP3    H133937   0.972   2.059  12.814
 4174TIP3    H233938   1.095   2.070  12.727
 4175TIP3   OH233939   1.553   1.928  12.792
 4175TIP3    H133940   1.614   1.987  12.741
 4175TIP3    H233941   1.465   1.964  12.769
 4176TIP3   OH233942   1.720   2.053  12.619
 4176TIP3    H133943   1.789   1.995  12.578
 4176TIP3    H233944   1.771   2.136  12.630
 4177TIP3   OH233945   0.277   1.985  12.573
 4177TIP3    H133946   0.199   1.965  12.517
 4177TIP3    H233947   0.326   1.901  12.563
 4178TIP3   OH233948   0.155   1.959  12.138
 4178TIP3    H133949   0.206   2.026  12.090
 4178TIP3    H233950   0.099   2.016  12.194
 4179TIP3   OH233951   0.723   1.978  12.549
 4179TIP3    H133952   0.814   2.014  12.541
 4179TIP3    H233953   0.720   1.956  12.642
 4180TIP3   OH233954   1.295   1.980  12.711
 4180TIP3    H133955   1.290   1.991  12.616
 4180TIP3    H233956   1.257   1.890  12.724
 4181TIP3   OH233957   1.422   1.983  12.280
 4181TIP3    H133958   1.347   2.042  12.264
 4181TIP3    H233959   1.378   1.898  12.303
 4182TIP3   OH233960   0.145   3.560  12.248
 4182TIP3    H133961   0.085   3.557  12.173
 4182TIP3    H233962   0.147   3.655  12.262
 4183TIP3   OH233963   0.335   2.156  11.997
 4183TIP3    H133964   0.388   2.095  11.941
 4183TIP3    H233965   0.405   2.187  12.057
 4184TIP3   OH233966   0.839   2.180  12.234
 4184TIP3    H133967   0.864   2.122  12.308
 4184TIP3    H233968   0.846   2.266  12.280
 4185TIP3   OH233969   1.032   3.687  12.079
 4185TIP3    H133970   1.124   3.710  12.057
 4185TIP3    H233971   1.010   3.635  11.999
 4186TIP3   OH233972   1.701   3.637  12.351
 4186TIP3    H133973   1.683   3.559  12.294
 4186TIP3    H233974   1.695   3.711  12.286
 4187TIP3   OH233975   0.261   2.042  13.518
 4187TIP3    H133976   0.224   1.958  13.555
 4187TIP3    H233977   0.352   2.034  13.554
 4188TIP3   OH233978   0.467   1.978  13.678
 4188TIP3    H133979   0.555   1.942  13.658
 4188TIP3    H233980   0.425   1.898  13.718
 4189TIP3   OH233981   0.324   3.651  11.938
 4189TIP3    H133982   0.299   3.679  12.027
 4189TIP3    H233983   0.405   3.599  11.955
 4190TIP3   OH233984   1.305   1.907  13.695
 4190TIP3    H133985   1.315   1.859  13.780
 4190TIP3    H233986   1.397   1.903  13.661
 4191TIP3   OH233987   1.626   3.512  13.558
 4191TIP3    H133988   1.546   3.498  13.503
 4191TIP3    H233989   1.615   3.607  13.580
 4192TIP3   OH233990   3.071   2.901  12.555
 4192TIP3    H133991   3.068   2.999  12.555
 4192TIP3    H233992   2.998   2.876  12.496
 4193TIP3   OH233993   2.961   2.822  12.905
 4193TIP3    H133994   2.954   2.759  12.978
 4193TIP3    H233995   2.920   2.775  12.831
 4194TIP3   OH233996   2.192   2.793  13.061
 4194TIP3    H133997   2.200   2.724  13.131
 4194TIP3    H233998   2.267   2.850  13.084
 4195TIP3   OH233999   3.328   3.119  12.735
 4195TIP3    H134000   3.281   3.050  12.783
 4195TIP3    H234001   3.326   3.191  12.801
 4196TIP3   OH234002   2.282   3.237  12.912
 4196TIP3    H134003   2.253   3.150  12.880
 4196TIP3    H234004   2.379   3.221  12.915
 4197TIP3   OH234005   1.948   2.593  12.461
 4197TIP3    H134006   1.904   2.680  12.454
 4197TIP3    H234007   1.892   2.539  12.403
 4198TIP3   OH234008   2.019   2.816  12.675
 4198TIP3    H134009   2.047   2.734  12.720
 4198TIP3    H234010   2.089   2.826  12.608
 4199TIP3   OH234011   3.039   3.639  12.758
 4199TIP3    H134012   3.101   3.567  12.730
 4199TIP3    H234013   3.012   3.600  12.843
 4200TIP3   OH234014   2.788   3.044  12.962
 4200TIP3    H134015   2.830   3.004  12.885
 4200TIP3    H234016   2.867   3.088  13.001
 4201TIP3   OH234017   3.655   2.231  13.024
 4201TIP3    H134018   3.671   2.289  13.101
 4201TIP3    H234019   3.711   2.275  12.959
 4202TIP3   OH234020   3.111   2.512  12.985
 4202TIP3    H134021   3.127   2.416  12.985
 4202TIP3    H234022   3.100   2.526  12.889
 4203TIP3   OH234023   2.422   2.321  12.706
 4203TIP3    H134024   2.433   2.404  12.657
 4203TIP3    H234025   2.382   2.264  12.637
 4204TIP3   OH234026   3.196   2.328  12.544
 4204TIP3    H134027   3.261   2.297  12.610
 4204TIP3    H234028   3.252   2.387  12.490
 4205TIP3   OH234029   2.084   2.562  12.780
 4205TIP3    H134030   2.151   2.508  12.825
 4205TIP3    H234031   2.095   2.530  12.688
 4206TIP3   OH234032   2.600   2.718  12.712
 4206TIP3    H134033   2.667   2.659  12.751
 4206TIP3    H234034   2.548   2.652  12.661
 4207TIP3   OH234035   3.697   2.371  13.253
 4207TIP3    H134036   3.637   2.448  13.243
 4207TIP3    H234037   3.701   2.364  13.350
 4208TIP3   OH234038   2.313   2.211  13.110
 4208TIP3    H134039   2.285   2.268  13.036
 4208TIP3    H234040   2.245   2.234  13.178
 4209TIP3   OH234041   3.044   3.159  12.464
 4209TIP3    H134042   3.016   3.132  12.375
 4209TIP3    H234043   3.011   3.251  12.472
 4210TIP3   OH234044   2.563   2.975  13.136
 4210TIP3    H134045   2.494   3.041  13.156
 4210TIP3    H234046   2.635   3.034  13.104
 4211TIP3   OH234047   3.380   2.263  12.742
 4211TIP3    H134048   3.353   2.188  12.796
 4211TIP3    H234049   3.440   2.309  12.802
 4212TIP3   OH234050   2.270   2.396  12.914
 4212TIP3    H134051   2.333   2.465  12.945
 4212TIP3    H234052   2.321   2.355  12.840
 4213TIP3   OH234053   2.408   3.175  13.217
 4213TIP3    H134054   2.405   3.266  13.182
 4213TIP3    H234055   2.319   3.168  13.261
 4214TIP3   OH234056   2.017   3.136  12.295
 4214TIP3    H134057   1.992   3.170  12.208
 4214TIP3    H234058   2.025   3.219  12.347
 4215TIP3   OH234059   3.382   3.303  12.970
 4215TIP3    H134060   3.283   3.314  12.984
 4215TIP3    H234061   3.404   3.396  12.951
 4216TIP3   OH234062   3.411   2.132  13.111
 4216TIP3    H134063   3.338   2.195  13.101
 4216TIP3    H234064   3.481   2.174  13.058
 4217TIP3   OH234065   2.706   1.944  12.857
 4217TIP3    H134066   2.692   1.848  12.849
 4217TIP3    H234067   2.619   1.975  12.887
 4218TIP3   OH234068   3.205   3.483  12.630
 4218TIP3    H134069   3.246   3.410  12.579
 4218TIP3    H234070   3.247   3.562  12.591
 4219TIP3   OH234071   3.325   3.275  12.482
 4219TIP3    H134072   3.295   3.205  12.422
 4219TIP3    H234073   3.329   3.226  12.566
 4220TIP3   OH234074   3.487   3.134  13.331
 4220TIP3    H134075   3.501   3.069  13.259
 4220TIP3    H234076   3.507   3.219  13.287
 4221TIP3   OH234077   2.936   2.823  12.307
 4221TIP3    H134078   2.867   2.881  12.271
 4221TIP3    H234079   3.007   2.833  12.241
 4222TIP3   OH234080   2.945   2.680  12.008
 4222TIP3    H134081   3.015   2.678  12.075
 4222TIP3    H234082   2.975   2.608  11.952
 4223TIP3   OH234083   3.676   2.766  13.136
 4223TIP3    H134084   3.610   2.838  13.140
 4223TIP3    H234085   3.724   2.789  13.055
 4224TIP3   OH234086   3.282   2.844  12.399
 4224TIP3    H134087   3.208   2.869  12.459
 4224TIP3    H234088   3.329   2.777  12.452
 4225TIP3   OH234089   3.274   2.661  13.312
 4225TIP3    H134090   3.275   2.743  13.365
 4225TIP3    H234091   3.211   2.690  13.243
 4226TIP3   OH234092   2.442   2.910  12.592
 4226TIP3    H134093   2.410   2.871  12.506
 4226TIP3    H234094   2.504   2.841  12.625
 4227TIP3   OH234095   2.565   3.243  12.863
 4227TIP3    H134096   2.577   3.197  12.779
 4227TIP3    H234097   2.654   3.226  12.903
 4228TIP3   OH234098   2.475   2.785  12.958
 4228TIP3    H134099   2.530   2.795  12.878
 4228TIP3    H234100   2.514   2.851  13.019
 4229TIP3   OH234101   3.136   3.341  13.040
 4229TIP3    H134102   3.080   3.405  13.086
 4229TIP3    H234103   3.089   3.259  13.066
 4230TIP3   OH234104   2.568   3.226  13.430
 4230TIP3    H134105   2.528   3.302  13.477
 4230TIP3    H234106   2.505   3.209  13.356
 4231TIP3   OH234107   3.169   2.765  12.166
 4231TIP3    H134108   3.225   2.782  12.246
 4231TIP3    H234109   3.214   2.814  12.094
 4232TIP3   OH234110   2.265   2.844  13.342
 4232TIP3    H134111   2.270   2.911  13.413
 4232TIP3    H234112   2.171   2.853  13.321
 4233TIP3   OH234113   2.944   3.438  12.510
 4233TIP3    H134114   2.980   3.464  12.596
 4233TIP3    H234115   2.883   3.511  12.492
 4234TIP3   OH234116   2.395   3.432  13.502
 4234TIP3    H134117   2.389   3.421  13.405
 4234TIP3    H234118   2.302   3.418  13.528
 4235TIP3   OH234119   3.543   1.939  12.159
 4235TIP3    H134120   3.447   1.948  12.179
 4235TIP3    H234121   3.561   2.021  12.110
 4236TIP3   OH234122   2.338   2.812  12.355
 4236TIP3    H134123   2.311   2.891  12.303
 4236TIP3    H234124   2.274   2.746  12.330
 4237TIP3   OH234125   3.653   3.373  11.992
 4237TIP3    H134126   3.669   3.467  12.008
 4237TIP3    H234127   3.745   3.342  11.991
 4238TIP3   OH234128   1.948   3.055  13.243
 4238TIP3    H134129   1.904   3.047  13.157
 4238TIP3    H234130   1.956   2.961  13.265
 4239TIP3   OH234131   1.925   3.329  12.920
 4239TIP3    H134132   2.021   3.318  12.918
 4239TIP3    H234133   1.916   3.411  12.971
 4240TIP3   OH234134   3.748   3.400  13.490
 4240TIP3    H134135   3.736   3.304  13.487
 4240TIP3    H234136   3.661   3.424  13.528
 4241TIP3   OH234137   2.846   3.351  13.381
 4241TIP3    H134138   2.849   3.439  13.425
 4241TIP3    H234139   2.755   3.319  13.398
 4242TIP3   OH234140   2.888   3.728  12.355
 4242TIP3    H134141   2.877   3.720  12.258
 4242TIP3    H234142   2.889   3.824  12.370
 4243TIP3   OH234143   2.252   3.616  12.537
 4243TIP3    H134144   2.266   3.574  12.625
 4243TIP3    H234145   2.167   3.575  12.513
 4244TIP3   OH234146   3.194   3.649  12.054
 4244TIP3    H134147   3.238   3.572  12.011
 4244TIP3    H234148   3.197   3.623  12.148
 4245TIP3   OH234149   3.163   3.643  12.331
 4245TIP3    H134150   3.067   3.650  12.348
 4245TIP3    H234151   3.187   3.568  12.388
 4246TIP3   OH234152   3.463   2.546  13.536
 4246TIP3    H134153   3.415   2.591  13.464
 4246TIP3    H234154   3.461   2.454  13.506
 4247TIP3   OH234155   2.176   3.188  13.337
 4247TIP3    H134156   2.199   3.151  13.425
 4247TIP3    H234157   2.090   3.147  13.316
 4248TIP3   OH234158   2.445   2.035  12.932
 4248TIP3    H134159   2.355   2.022  12.895
 4248TIP3    H234160   2.432   2.118  12.980
 4249TIP3   OH234161   2.910   2.001  13.269
 4249TIP3    H134162   2.949   1.958  13.347
 4249TIP3    H234163   2.812   1.989  13.283
 4250TIP3   OH234164   3.238   2.386  13.357
 4250TIP3    H134165   3.181   2.366  13.435
 4250TIP3    H234166   3.220   2.479  13.334
 4251TIP3   OH234167   3.314   2.867  11.948
 4251TIP3    H134168   3.312   2.848  11.851
 4251TIP3    H234169   3.400   2.912  11.953
 4252TIP3   OH234170   2.873   2.260  11.999
 4252TIP3    H134171   2.842   2.254  12.091
 4252TIP3    H234172   2.842   2.172  11.968
 4253TIP3   OH234173   2.456   2.533  13.058
 4253TIP3    H134174   2.381   2.531  13.121
 4253TIP3    H234175   2.450   2.623  13.020
 4254TIP3   OH234176   2.451   2.543  12.544
 4254TIP3    H134177   2.357   2.518  12.530
 4254TIP3    H234178   2.489   2.514  12.458
 4255TIP3   OH234179   3.003   2.594  12.421
 4255TIP3    H134180   2.964   2.676  12.384
 4255TIP3    H234181   3.072   2.577  12.355
 4256TIP3   OH234182   2.909   2.615  13.564
 4256TIP3    H134183   2.856   2.537  13.595
 4256TIP3    H234184   2.992   2.603  13.612
 4257TIP3   OH234185   3.107   2.543  12.705
 4257TIP3    H134186   3.078   2.599  12.631
 4257TIP3    H234187   3.116   2.458  12.658
 4258TIP3   OH234188   2.217   2.557  13.225
 4258TIP3    H134189   2.226   2.598  13.313
 4258TIP3    H234190   2.173   2.473  13.246
 4259TIP3   OH234191   2.555   2.298  11.911
 4259TIP3    H134192   2.509   2.253  11.985
 4259TIP3    H234193   2.483   2.339  11.862
 4260TIP3   OH234194   1.883   2.268  12.624
 4260TIP3    H134195   1.952   2.264  12.694
 4260TIP3    H234196   1.928   2.230  12.546
 4261TIP3   OH234197   2.009   2.340  12.158
 4261TIP3    H134198   2.061   2.401  12.103
 4261TIP3    H234199   1.941   2.402  12.191
 4262TIP3   OH234200   3.026   2.701  13.161
 4262TIP3    H134201   3.064   2.633  13.102
 4262TIP3    H234202   2.979   2.648  13.228
 4263TIP3   OH234203   2.707   2.299  12.644
 4263TIP3    H134204   2.613   2.299  12.673
 4263TIP3    H234205   2.755   2.282  12.726
 4264TIP3   OH234206   2.187   2.454  12.531
 4264TIP3    H134207   2.099   2.469  12.492
 4264TIP3    H234208   2.216   2.371  12.490
 4265TIP3   OH234209   2.552   2.459  12.294
 4265TIP3    H134210   2.647   2.470  12.310
 4265TIP3    H234211   2.528   2.527  12.228
 4266TIP3   OH234212   3.147   2.223  12.968
 4266TIP3    H134213   3.079   2.227  13.038
 4266TIP3    H234214   3.096   2.197  12.890
 4267TIP3   OH234215   2.422   2.576  12.052
 4267TIP3    H134216   2.369   2.538  11.980
 4267TIP3    H234217   2.505   2.597  12.005
 4268TIP3   OH234218   3.468   3.787  13.602
 4268TIP3    H134219   3.494   3.825  13.516
 4268TIP3    H234220   3.540   3.819  13.657
 4269TIP3   OH234221   2.235   3.034  13.558
 4269TIP3    H134222   2.307   3.058  13.618
 4269TIP3    H234223   2.158   3.042  13.618
 4270TIP3   OH234224   2.834   2.574  12.833
 4270TIP3    H134225   2.895   2.521  12.780
 4270TIP3    H234226   2.820   2.520  12.912
 4271TIP3   OH234227   2.336   2.189  12.477
 4271TIP3    H134228   2.305   2.097  12.476
 4271TIP3    H234229   2.415   2.182  12.422
 4272TIP3   OH234230   2.699   2.407  13.075
 4272TIP3    H134231   2.616   2.459  13.084
 4272TIP3    H234232   2.754   2.443  13.147
 4273TIP3   OH234233   2.758   3.030  12.245
 4273TIP3    H134234   2.678   2.983  12.211
 4273TIP3    H234235   2.735   3.042  12.339
 4274TIP3   OH234236   3.477   2.949  13.125
 4274TIP3    H134237   3.533   2.998  13.062
 4274TIP3    H234238   3.391   2.954  13.079
 4275TIP3   OH234239   3.140   2.311  12.063
 4275TIP3    H134240   3.045   2.326  12.049
 4275TIP3    H234241   3.174   2.396  12.097
 4276TIP3   OH234242   2.908   3.055  13.372
 4276TIP3    H134243   2.871   3.014  13.450
 4276TIP3    H234244   2.881   3.148  13.377
 4277TIP3   OH234245   3.214   2.503  12.225
 4277TIP3    H134246   3.303   2.490  12.265
 4277TIP3    H234247   3.224   2.585  12.173
 4278TIP3   OH234248   2.268   2.968  12.824
 4278TIP3    H134249   2.336   2.961  12.754
 4278TIP3    H234250   2.275   2.883  12.870
 4279TIP3   OH234251   2.967   3.176  12.148
 4279TIP3    H134252   2.933   3.261  12.183
 4279TIP3    H234253   2.894   3.115  12.170
 4280TIP3   OH234254   1.967   2.809  13.351
 4280TIP3    H134255   1.984   2.765  13.436
 4280TIP3    H234256   1.905   2.748  13.307
 4281TIP3   OH234257   2.669   2.765  13.569
 4281TIP3    H134258   2.637   2.735  13.482
 4281TIP3    H234259   2.761   2.733  13.568
 4282TIP3   OH234260   3.138   3.298  13.366
 4282TIP3    H134261   3.047   3.316  13.338
 4282TIP3    H234262   3.132   3.329  13.458
 4283TIP3   OH234263   3.704   2.515  12.203
 4283TIP3    H134264   3.647   2.489  12.128
 4283TIP3    H234265   3.712   2.610  12.178
 4284TIP3   OH234266   3.703   3.103  13.483
 4284TIP3    H134267   3.614   3.125  13.447
 4284TIP3    H234268   3.757   3.098  13.402
 4285TIP3   OH234269   3.530   3.400  12.242
 4285TIP3    H134270   3.496   3.316  12.277
 4285TIP3    H234271   3.565   3.378  12.154
 4286TIP3   OH234272   3.254   2.882  12.953
 4286TIP3    H134273   3.159   2.862  12.941
 4286TIP3    H234274   3.296   2.806  12.909
 4287TIP3   OH234275   2.506   3.313  12.560
 4287TIP3    H134276   2.556   3.395  12.545
 4287TIP3    H234277   2.418   3.339  12.531
 4288TIP3   OH234278   2.083   2.798  12.020
 4288TIP3    H134279   2.140   2.865  12.061
 4288TIP3    H234280   1.994   2.830  12.045
 4289TIP3   OH234281   2.645   3.082  12.511
 4289TIP3    H134282   2.617   3.174  12.526
 4289TIP3    H234283   2.576   3.033  12.561
 4290TIP3   OH234284   2.685   3.510  13.172
 4290TIP3    H134285   2.739   3.574  13.123
 4290TIP3    H234286   2.756   3.461  13.217
 4291TIP3   OH234287   2.516   3.580  12.469
 4291TIP3    H134288   2.419   3.594  12.481
 4291TIP3    H234289   2.552   3.664  12.502
 4292TIP3   OH234290   3.048   3.099  13.119
 4292TIP3    H134291   3.011   3.080  13.207
 4292TIP3    H234292   3.109   3.027  13.101
 4293TIP3   OH234293   3.279   3.207  12.026
 4293TIP3    H134294   3.308   3.160  12.107
 4293TIP3    H234295   3.183   3.189  12.035
 4294TIP3   OH234296   3.326   3.557  13.366
 4294TIP3    H134297   3.256   3.508  13.317
 4294TIP3    H234298   3.345   3.627  13.300
 4295TIP3   OH234299   3.725   3.642  12.052
 4295TIP3    H134300   3.794   3.709  12.032
 4295TIP3    H234301   3.653   3.703  12.081
 4296TIP3   OH234302   2.133   2.283  13.305
 4296TIP3    H134303   2.042   2.318  13.304
 4296TIP3    H234304   2.121   2.198  13.352
 4297TIP3   OH234305   3.356   3.070  12.251
 4297TIP3    H134306   3.332   2.992  12.304
 4297TIP3    H234307   3.452   3.074  12.269
 4298TIP3   OH234308   2.093   3.461  13.149
 4298TIP3    H134309   2.124   3.369  13.149
 4298TIP3    H234310   2.120   3.490  13.236
 4299TIP3   OH234311   2.691   3.314  11.876
 4299TIP3    H134312   2.702   3.237  11.818
 4299TIP3    H234313   2.647   3.271  11.953
 4300TIP3   OH234314   2.569   3.267  12.121
 4300TIP3    H134315   2.596   3.215  12.198
 4300TIP3    H234316   2.578   3.359  12.154
 4301TIP3   OH234317   2.223   2.991  12.170
 4301TIP3    H134318   2.151   3.031  12.224
 4301TIP3    H234319   2.273   3.069  12.141
 4302TIP3   OH234320   3.006   2.260  13.202
 4302TIP3    H134321   3.078   2.266  13.266
 4302TIP3    H234322   2.967   2.173  13.222
 4303TIP3   OH234323   3.080   2.217  12.311
 4303TIP3    H134324   3.103   2.263  12.228
 4303TIP3    H234325   3.138   2.261  12.374
 4304TIP3   OH234326   2.849   3.433  12.191
 4304TIP3    H134327   2.767   3.486  12.198
 4304TIP3    H234328   2.903   3.488  12.132
 4305TIP3   OH234329   2.803   2.392  12.392
 4305TIP3    H134330   2.881   2.451  12.397
 4305TIP3    H234331   2.776   2.379  12.485
 4306TIP3   OH234332   2.858   2.495  13.312
 4306TIP3    H134333   2.866   2.551  13.391
 4306TIP3    H234334   2.925   2.425  13.321
 4307TIP3   OH234335   2.888   2.098  12.480
 4307TIP3    H134336   2.855   2.162  12.545
 4307TIP3    H234337   2.957   2.152  12.436
 4308TIP3   OH234338   2.589   3.536  12.194
 4308TIP3    H134339   2.599   3.618  12.139
 4308TIP3    H234340   2.562   3.573  12.281
 4309TIP3   OH234341   2.454   2.208  12.152
 4309TIP3    H134342   2.448   2.298  12.190
 4309TIP3    H234343   2.545   2.184  12.178
 4310TIP3   OH234344   3.475   2.280  13.398
 4310TIP3    H134345   3.383   2.314  13.382
 4310TIP3    H234346   3.507   2.280  13.306
 4311TIP3   OH234347   3.337   2.661  12.797
 4311TIP3    H134348   3.255   2.616  12.769
 4311TIP3    H234349   3.386   2.592  12.848
 4312TIP3   OH234350   2.277   3.253  12.056
 4312TIP3    H134351   2.344   3.315  12.088
 4312TIP3    H234352   2.329   3.206  11.988
 4313TIP3   OH234353   2.112   2.520  11.970
 4313TIP3    H134354   2.113   2.616  11.991
 4313TIP3    H234355   2.022   2.503  11.940
 4314TIP3   OH234356   3.444   3.587  12.964
 4314TIP3    H134357   3.435   3.655  12.894
 4314TIP3    H234358   3.540   3.592  12.981
 4315TIP3   OH234359   2.193   1.999  12.845
 4315TIP3    H134360   2.174   2.000  12.749
 4315TIP3    H234361   2.152   1.913  12.870
 4316TIP3   OH234362   2.089   3.391  12.459
 4316TIP3    H134363   2.004   3.436  12.455
 4316TIP3    H234364   2.136   3.437  12.389
 4317TIP3   OH234365   2.009   3.656  13.587
 4317TIP3    H134366   2.070   3.636  13.661
 4317TIP3    H234367   1.969   3.569  13.569
 4318TIP3   OH234368   2.477   3.548  13.749
 4318TIP3    H134369   2.553   3.498  13.781
 4318TIP3    H234370   2.475   3.520  13.655
 4319TIP3   OH234371   2.891   3.499  11.889
 4319TIP3    H134372   2.822   3.433  11.911
 4319TIP3    H234373   2.963   3.439  11.864
 4320TIP3   OH234374   3.127   3.386  13.624
 4320TIP3    H134375   3.096   3.297  13.651
 4320TIP3    H234376   3.205   3.398  13.682
 4321TIP3   OH234377   3.347   3.473  11.907
 4321TIP3    H134378   3.376   3.396  11.957
 4321TIP3    H234379   3.423   3.496  11.852
 4322TIP3   OH234380   2.000   3.033  13.687
 4322TIP3    H134381   2.017   2.942  13.657
 4322TIP3    H234382   1.926   3.059  13.630
 4323TIP3   OH234383   2.435   3.067  11.889
 4323TIP3    H134384   2.450   2.991  11.948
 4323TIP3    H234385   2.510   3.056  11.827
 4324TIP3   OH234386   2.672   3.032  13.625
 4324TIP3    H134387   2.639   3.063  13.539
 4324TIP3    H234388   2.679   2.934  13.615
 4325TIP3   OH234389   2.978   3.178  11.867
 4325TIP3    H134390   2.951   3.187  11.960
 4325TIP3    H234391   2.959   3.083  11.852
 4326TIP3   OH234392   3.241   3.018  13.365
 4326TIP3    H134393   3.320   3.076  13.359
 4326TIP3    H234394   3.171   3.085  13.367
 4327TIP3   OH234395   2.093   2.756  13.625
 4327TIP3    H134396   2.134   2.669  13.616
 4327TIP3    H234397   2.069   2.756  13.719
 4328TIP3   OH234398   2.556   2.869  12.132
 4328TIP3    H134399   2.505   2.815  12.195
 4328TIP3    H234400   2.585   2.802  12.066
 4329TIP3   OH234401   2.482   2.650  13.360
 4329TIP3    H134402   2.423   2.722  13.386
 4329TIP3    H234403   2.522   2.687  13.280
 4330TIP3   OH234404   2.663   2.692  11.952
 4330TIP3    H134405   2.648   2.683  11.855
 4330TIP3    H234406   2.761   2.697  11.958
 4331TIP3   OH234407   2.990   2.907  13.694
 4331TIP3    H134408   3.085   2.906  13.682
 4331TIP3    H234409   2.973   2.830  13.751
 4332TIP3   OH234410   3.596   2.924  11.893
 4332TIP3    H134411   3.577   2.885  11.806
 4332TIP3    H234412   3.605   3.020  11.874
 4333TIP3   OH234413   2.523   2.388  13.466
 4333TIP3    H134414   2.535   2.317  13.400
 4333TIP3    H234415   2.518   2.469  13.411
 4334TIP3   OH234416   2.563   2.226  13.222
 4334TIP3    H134417   2.614   2.273  13.151
 4334TIP3    H234418   2.474   2.218  13.181
 4335TIP3   OH234419   2.717   2.776  13.246
 4335TIP3    H134420   2.792   2.759  13.189
 4335TIP3    H234421   2.682   2.860  13.211
 4336TIP3   OH234422   3.157   2.549  13.743
 4336TIP3    H134423   3.182   2.457  13.731
 4336TIP3    H234424   3.243   2.594  13.745
 4337TIP3   OH234425   3.291   2.829  13.559
 4337TIP3    H134426   3.266   2.902  13.497
 4337TIP3    H234427   3.387   2.826  13.540
 4338TIP3   OH234428   2.369   2.513  13.658
 4338TIP3    H134429   2.292   2.455  13.642
 4338TIP3    H234430   2.434   2.476  13.596
 4339TIP3   OH234431   2.643   1.970  13.259
 4339TIP3    H134432   2.624   2.066  13.251
 4339TIP3    H234433   2.567   1.933  13.210
 4340TIP3   OH234434   2.769   2.403  13.623
 4340TIP3    H134435   2.737   2.379  13.713
 4340TIP3    H234436   2.691   2.383  13.569
 4341TIP3   OH234437   3.042   2.317  13.534
 4341TIP3    H134438   2.944   2.324  13.541
 4341TIP3    H234439   3.065   2.253  13.601
 4342TIP3   OH234440   3.213   2.175  13.730
 4342TIP3    H134441   3.180   2.086  13.711
 4342TIP3    H234442   3.168   2.214  13.808
 4343TIP3   OH234443   2.176   2.307  13.634
 4343TIP3    H134444   2.201   2.233  13.576
 4343TIP3    H234445   2.168   2.262  13.721
 4344TIP3   OH234446   2.663   1.909  13.530
 4344TIP3    H134447   2.732   1.839  13.529
 4344TIP3    H234448   2.652   1.923  13.434
 4345TIP3   OH234449   2.704   2.071  13.742
 4345TIP3    H134450   2.683   2.020  13.660
 4345TIP3    H234451   2.641   2.146  13.733
 4346TIP3   OH234452   2.646   3.762  12.060
 4346TIP3    H134453   2.743   3.770  12.066
 4346TIP3    H234454   2.632   3.822  11.986
 4347TIP3   OH234455   2.002   3.219  12.006
 4347TIP3    H134456   2.098   3.228  12.025
 4347TIP3    H234457   2.007   3.155  11.932
 4348TIP3   OH234458   1.880   3.757  12.503
 4348TIP3    H134459   1.808   3.709  12.457
 4348TIP3    H234460   1.908   3.692  12.570
 4349TIP3   OH234461   1.962   3.571  12.691
 4349TIP3    H134462   1.927   3.483  12.711
 4349TIP3    H234463   1.986   3.604  12.779
 4350TIP3   OH234464   3.716   3.651  12.984
 4350TIP3    H134465   3.719   3.667  13.079
 4350TIP3    H234466   3.786   3.709  12.953
 4351TIP3   OH234467   3.674   3.610  13.279
 4351TIP3    H134468   3.626   3.533  13.240
 4351TIP3    H234469   3.723   3.564  13.350
 4352TIP3   OH234470   3.518   3.182  13.746
 4352TIP3    H134471   3.427   3.180  13.782
 4352TIP3    H234472   3.555   3.263  13.786
 4353TIP3   OH234473   3.649   3.015  12.288
 4353TIP3    H134474   3.736   3.055  12.307
 4353TIP3    H234475   3.648   2.944  12.355
 4354TIP3   OH234476   3.686   2.821  12.477
 4354TIP3    H134477   3.610   2.773  12.517
 4354TIP3    H234478   3.745   2.837  12.554
 4355TIP3   OH234479   3.663   3.092  12.976
 4355TIP3    H134480   3.744   3.055  12.937
 4355TIP3    H234481   3.675   3.187  12.959
 4356TIP3   OH234482   3.517   3.383  13.202
 4356TIP3    H134483   3.448   3.417  13.261
 4356TIP3    H234484   3.462   3.343  13.132
 4357TIP3   OH234485   3.715   2.805  12.116
 4357TIP3    H134486   3.659   2.839  12.044
 4357TIP3    H234487   3.705   2.877  12.182
 4358TIP3   OH234488   3.553   2.528  11.967
 4358TIP3    H134489   3.560   2.595  11.898
 4358TIP3    H234490   3.534   2.446  11.918
 4359TIP3   OH234491   3.467   2.671  12.534
 4359TIP3    H134492   3.453   2.575  12.530
 4359TIP3    H234493   3.433   2.693  12.623
 4360TIP3   OH234494   1.968   2.879  12.940
 4360TIP3    H134495   1.986   2.871  12.844
 4360TIP3    H234496   2.057   2.861  12.975
 4361TIP3   OH234497   3.553   2.866  13.504
 4361TIP3    H134498   3.614   2.791  13.516
 4361TIP3    H234499   3.613   2.944  13.503
 4362TIP3   OH234500   3.704   2.655  13.568
 4362TIP3    H134501   3.615   2.615  13.553
 4362TIP3    H234502   3.761   2.576  13.560
 4363TIP3   OH234503   3.478   2.275  11.881
 4363TIP3    H134504   3.537   2.232  11.946
 4363TIP3    H234505   3.392   2.234  11.897
 4364TIP3   OH234506   3.432   2.428  12.376
 4364TIP3    H134507   3.463   2.336  12.390
 4364TIP3    H234508   3.513   2.471  12.343
 4365TIP3   OH234509   3.498   2.484  12.924
 4365TIP3    H134510   3.594   2.506  12.923
 4365TIP3    H234511   3.479   2.497  13.018
 4366TIP3   OH234512   3.505   2.556  13.203
 4366TIP3    H134513   3.416   2.584  13.234
 4366TIP3    H234514   3.548   2.641  13.180
 4367TIP3   OH234515   1.930   2.409  13.556
 4367TIP3    H134516   2.024   2.388  13.575
 4367TIP3    H234517   1.884   2.327  13.583
 4368TIP3   OH234518   3.722   1.969  13.738
 4368TIP3    H134519   3.766   1.896  13.686
 4368TIP3    H234520   3.747   2.044  13.682
 4369TIP3   OH234521   3.504   2.156  12.384
 4369TIP3    H134522   3.518   2.113  12.470
 4369TIP3    H234523   3.441   2.096  12.340
 4370TIP3   OH234524   2.050   2.238  12.840
 4370TIP3    H134525   2.096   2.155  12.866
 4370TIP3    H234526   2.105   2.307  12.879
 4371TIP3   OH234527   1.878   2.538  12.944
 4371TIP3    H134528   1.934   2.513  12.868
 4371TIP3    H234529   1.925   2.619  12.971
 4372TIP3   OH234530   3.687   2.170  13.572
 4372TIP3    H134531   3.594   2.199  13.565
 4372TIP3    H234532   3.690   2.115  13.492
 4373TIP3   OH234533   3.684   2.159  12.044
 4373TIP3    H134534   3.722   2.090  11.986
 4373TIP3    H234535   3.753   2.228  12.042
 4374TIP3   OH234536   1.915   2.166  12.352
 4374TIP3    H134537   1.821   2.182  12.336
 4374TIP3    H234538   1.957   2.212  12.278
 4375TIP3   OH234539   3.389   3.660  12.546
 4375TIP3    H134540   3.457   3.629  12.484
 4375TIP3    H234541   3.440   3.709  12.611
 4376TIP3   OH234542   1.909   2.029  13.181
 4376TIP3    H134543   1.843   2.010  13.249
 4376TIP3    H234544   1.864   2.097  13.127
 4377TIP3   OH234545   2.134   3.349  13.597
 4377TIP3    H134546   2.050   3.371  13.553
 4377TIP3    H234547   2.107   3.342  13.689
 4378TIP3   OH234548   2.423   3.449  13.225
 4378TIP3    H134549   2.392   3.536  13.197
 4378TIP3    H234550   2.517   3.457  13.194
 4379TIP3   OH234551   2.855   3.592  13.515
 4379TIP3    H134552   2.869   3.557  13.606
 4379TIP3    H234553   2.946   3.623  13.491
 4380TIP3   OH234554   3.084   3.719  13.447
 4380TIP3    H134555   3.157   3.661  13.422
 4380TIP3    H234556   3.122   3.763  13.526
 4381TIP3   OH234557   3.584   1.981  13.358
 4381TIP3    H134558   3.502   2.010  13.315
 4381TIP3    H234559   3.604   1.899  13.307
 4382TIP3   OH234560   2.166   3.774  13.224
 4382TIP3    H134561   2.092   3.824  13.185
 4382TIP3    H234562   2.134   3.755  13.314
 4383TIP3   OH234563   2.413   3.731  13.132
 4383TIP3    H134564   2.324   3.746  13.171
 4383TIP3    H234565   2.407   3.791  13.055
 4384TIP3   OH234566   2.884   3.723  13.048
 4384TIP3    H134567   2.837   3.777  12.983
 4384TIP3    H234568   2.896   3.785  13.123
 4385TIP3   OH234569   3.112   3.605  13.154
 4385TIP3    H134570   3.027   3.627  13.113
 4385TIP3    H234571   3.159   3.688  13.141
 4386TIP3   OH234572   3.370   3.760  13.173
 4386TIP3    H134573   3.365   3.856  13.151
 4386TIP3    H234574   3.392   3.723  13.086
 4387TIP3   OH234575   2.112   3.638  12.919
 4387TIP3    H134576   2.105   3.591  13.004
 4387TIP3    H234577   2.193   3.601  12.879
 4388TIP3   OH234578   2.318   3.510  12.785
 4388TIP3    H134579   2.304   3.416  12.808
 4388TIP3    H234580   2.405   3.525  12.828
 4389TIP3   OH234581   2.574   3.556  12.872
 4389TIP3    H134582   2.602   3.467  12.847
 4389TIP3    H234583   2.588   3.552  12.967
 4390TIP3   OH234584   2.925   2.123  12.786
 4390TIP3    H134585   2.857   2.059  12.814
 4390TIP3    H234586   2.980   2.070  12.727
 4391TIP3   OH234587   3.439   1.928  12.791
 4391TIP3    H134588   3.498   1.988  12.741
 4391TIP3    H234589   3.349   1.963  12.770
 4392TIP3   OH234590   3.606   2.053  12.620
 4392TIP3    H134591   3.669   1.990  12.578
 4392TIP3    H234592   3.651   2.138  12.634
 4393TIP3   OH234593   2.162   1.986  12.570
 4393TIP3    H134594   2.083   1.966  12.518
 4393TIP3    H234595   2.208   1.899  12.564
 4394TIP3   OH234596   2.038   1.962  12.144
 4394TIP3    H134597   2.089   2.023  12.089
 4394TIP3    H234598   1.982   2.021  12.197
 4395TIP3   OH234599   2.609   1.978  12.549
 4395TIP3    H134600   2.699   2.014  12.542
 4395TIP3    H234601   2.606   1.956  12.642
 4396TIP3   OH234602   3.181   1.980  12.712
 4396TIP3    H134603   3.176   1.991  12.616
 4396TIP3    H234604   3.142   1.890  12.725
 4397TIP3   OH234605   3.308   1.984  12.280
 4397TIP3    H134606   3.232   2.042  12.264
 4397TIP3    H234607   3.265   1.898  12.303
 4398TIP3   OH234608   2.031   3.556  12.246
 4398TIP3    H134609   1.964   3.555  12.175
 4398TIP3    H234610   2.030   3.651  12.263
 4399TIP3   OH234611   2.222   2.155  11.993
 4399TIP3    H134612   2.274   2.091  11.942
 4399TIP3    H234613   2.289   2.187  12.057
 4400TIP3   OH234614   2.724   2.180  12.234
 4400TIP3    H134615   2.749   2.122  12.308
 4400TIP3    H234616   2.731   2.266  12.280
 4401TIP3   OH234617   2.918   3.687  12.079
 4401TIP3    H134618   3.010   3.710  12.057
 4401TIP3    H234619   2.896   3.635  11.999
 4402TIP3   OH234620   3.587   3.637  12.351
 4402TIP3    H134621   3.568   3.559  12.294
 4402TIP3    H234622   3.580   3.710  12.286
 4403TIP3   OH234623   2.151   2.040  13.515
 4403TIP3    H134624   2.112   1.960  13.556
 4403TIP3    H234625   2.241   2.036  13.554
 4404TIP3   OH234626   2.351   1.978  13.679
 4404TIP3    H134627   2.440   1.944  13.658
 4404TIP3    H234628   2.313   1.897  13.720
 4405TIP3   OH234629   2.209   3.654  11.939
 4405TIP3    H134630   2.184   3.680  12.029
 4405TIP3    H234631   2.288   3.598  11.955
 4406TIP3   OH234632   3.190   1.905  13.686
 4406TIP3    H134633   3.189   1.836  13.756
 4406TIP3    H234634   3.281   1.898  13.647
 4407TIP3   OH234635   3.512   3.512  13.558
 4407TIP3    H134636   3.431   3.498  13.503
 4407TIP3    H234637   3.500   3.607  13.580
 4408TIP3   OH234638   4.957   2.898  12.556
 4408TIP3    H134639   4.955   2.996  12.555
 4408TIP3    H234640   4.883   2.875  12.497
 4409TIP3   OH234641   4.838   2.828  12.906
 4409TIP3    H134642   4.844   2.761  12.977
 4409TIP3    H234643   4.809   2.773  12.831
 4410TIP3   OH234644   4.077   2.793  13.061
 4410TIP3    H134645   4.086   2.724  13.131
 4410TIP3    H234646   4.152   2.850  13.084
 4411TIP3   OH234647   5.210   3.120  12.734
 4411TIP3    H134648   5.169   3.048  12.784
 4411TIP3    H234649   5.213   3.191  12.802
 4412TIP3   OH234650   4.170   3.238  12.911
 4412TIP3    H134651   4.139   3.151  12.880
 4412TIP3    H234652   4.265   3.219  12.916
 4413TIP3   OH234653   3.832   2.591  12.462
 4413TIP3    H134654   3.793   2.680  12.455
 4413TIP3    H234655   3.776   2.542  12.401
 4414TIP3   OH234656   3.904   2.814  12.675
 4414TIP3    H134657   3.932   2.733  12.720
 4414TIP3    H234658   3.974   2.827  12.609
 4415TIP3   OH234659   4.922   3.636  12.758
 4415TIP3    H134660   4.987   3.567  12.730
 4415TIP3    H234661   4.901   3.602  12.845
 4416TIP3   OH234662   4.680   3.065  12.953
 4416TIP3    H134663   4.713   3.002  12.887
 4416TIP3    H234664   4.761   3.079  13.005
 4417TIP3   OH234665   5.542   2.230  13.026
 4417TIP3    H134666   5.555   2.290  13.102
 4417TIP3    H234667   5.596   2.274  12.959
 4418TIP3   OH234668   5.007   2.555  12.916
 4418TIP3    H134669   5.014   2.470  12.966
 4418TIP3    H234670   4.975   2.522  12.831
 4419TIP3   OH234671   4.306   2.321  12.706
 4419TIP3    H134672   4.320   2.404  12.658
 4419TIP3    H234673   4.270   2.264  12.636
 4420TIP3   OH234674   5.083   2.326  12.542
 4420TIP3    H134675   5.146   2.298  12.612
 4420TIP3    H234676   5.138   2.386  12.490
 4421TIP3   OH234677   3.967   2.560  12.780
 4421TIP3    H134678   4.038   2.509  12.826
 4421TIP3    H234679   3.982   2.532  12.688
 4422TIP3   OH234680   4.483   2.718  12.711
 4422TIP3    H134681   4.552   2.661  12.750
 4422TIP3    H234682   4.433   2.651  12.660
 4423TIP3   OH234683   5.587   2.373  13.254
 4423TIP3    H134684   5.522   2.447  13.243
 4423TIP3    H234685   5.586   2.363  13.349
 4424TIP3   OH234686   4.199   2.212  13.108
 4424TIP3    H134687   4.169   2.270  13.034
 4424TIP3    H234688   4.131   2.233  13.177
 4425TIP3   OH234689   4.927   3.159  12.464
 4425TIP3    H134690   4.901   3.132  12.376
 4425TIP3    H234691   4.897   3.252  12.470
 4426TIP3   OH234692   4.450   2.975  13.134
 4426TIP3    H134693   4.379   3.040  13.156
 4426TIP3    H234694   4.520   3.035  13.105
 4427TIP3   OH234695   5.263   2.262  12.742
 4427TIP3    H134696   5.238   2.188  12.798
 4427TIP3    H234697   5.329   2.308  12.797
 4428TIP3   OH234698   4.154   2.396  12.912
 4428TIP3    H134699   4.217   2.464  12.945
 4428TIP3    H234700   4.208   2.355  12.840
 4429TIP3   OH234701   4.295   3.176  13.216
 4429TIP3    H134702   4.290   3.267  13.182
 4429TIP3    H234703   4.206   3.168  13.260
 4430TIP3   OH234704   3.903   3.136  12.295
 4430TIP3    H134705   3.878   3.170  12.208
 4430TIP3    H234706   3.911   3.219  12.347
 4431TIP3   OH234707   5.263   3.304  12.971
 4431TIP3    H134708   5.167   3.315  12.983
 4431TIP3    H234709   5.290   3.395  12.951
 4432TIP3   OH234710   5.296   2.131  13.109
 4432TIP3    H134711   5.223   2.195  13.102
 4432TIP3    H234712   5.366   2.176  13.058
 4433TIP3   OH234713   4.592   1.944  12.856
 4433TIP3    H134714   4.578   1.848  12.850
 4433TIP3    H234715   4.505   1.975  12.888
 4434TIP3   OH234716   5.089   3.482  12.630
 4434TIP3    H134717   5.132   3.410  12.579
 4434TIP3    H234718   5.133   3.561  12.591
 4435TIP3   OH234719   5.211   3.275  12.482
 4435TIP3    H134720   5.181   3.205  12.422
 4435TIP3    H234721   5.214   3.226  12.566
 4436TIP3   OH234722   5.372   3.134  13.331
 4436TIP3    H134723   5.387   3.069  13.260
 4436TIP3    H234724   5.392   3.218  13.287
 4437TIP3   OH234725   4.822   2.823  12.307
 4437TIP3    H134726   4.752   2.881  12.271
 4437TIP3    H234727   4.893   2.833  12.241
 4438TIP3   OH234728   4.830   2.680  12.008
 4438TIP3    H134729   4.901   2.678  12.075
 4438TIP3    H234730   4.861   2.608  11.952
 4439TIP3   OH234731   5.561   2.766  13.135
 4439TIP3    H134732   5.497   2.839  13.140
 4439TIP3    H234733   5.611   2.789  13.055
 4440TIP3   OH234734   5.167   2.842  12.401
 4440TIP3    H134735   5.093   2.867  12.461
 4440TIP3    H234736   5.215   2.776  12.454
 4441TIP3   OH234737   5.170   2.672  13.314
 4441TIP3    H134738   5.157   2.751  13.366
 4441TIP3    H234739   5.100   2.683  13.246
 4442TIP3   OH234740   4.327   2.910  12.591
 4442TIP3    H134741   4.296   2.871  12.506
 4442TIP3    H234742   4.389   2.841  12.625
 4443TIP3   OH234743   4.460   3.248  12.859
 4443TIP3    H134744   4.459   3.196  12.778
 4443TIP3    H234745   4.538   3.213  12.905
 4444TIP3   OH234746   4.361   2.785  12.958
 4444TIP3    H134747   4.417   2.795  12.878
 4444TIP3    H234748   4.400   2.851  13.019
 4445TIP3   OH234749   5.003   3.342  13.028
 4445TIP3    H134750   4.974   3.406  13.094
 4445TIP3    H234751   4.977   3.257  13.071
 4446TIP3   OH234752   4.456   3.228  13.427
 4446TIP3    H134753   4.415   3.302  13.476
 4446TIP3    H234754   4.389   3.208  13.357
 4447TIP3   OH234755   5.055   2.765  12.166
 4447TIP3    H134756   5.110   2.782  12.246
 4447TIP3    H234757   5.100   2.814  12.094
 4448TIP3   OH234758   4.150   2.844  13.342
 4448TIP3    H134759   4.156   2.911  13.413
 4448TIP3    H234760   4.056   2.853  13.321
 4449TIP3   OH234761   4.826   3.437  12.513
 4449TIP3    H134762   4.869   3.467  12.594
 4449TIP3    H234763   4.770   3.512  12.490
 4450TIP3   OH234764   4.281   3.431  13.502
 4450TIP3    H134765   4.275   3.422  13.405
 4450TIP3    H234766   4.188   3.418  13.529
 4451TIP3   OH234767   5.427   1.938  12.157
 4451TIP3    H134768   5.332   1.949  12.181
 4451TIP3    H234769   5.447   2.022  12.112
 4452TIP3   OH234770   4.224   2.812  12.355
 4452TIP3    H134771   4.196   2.891  12.303
 4452TIP3    H234772   4.159   2.746  12.330
 4453TIP3   OH234773   5.538   3.373  11.991
 4453TIP3    H134774   5.555   3.467  12.008
 4453TIP3    H234775   5.631   3.342  11.991
 4454TIP3   OH234776   3.833   3.055  13.243
 4454TIP3    H134777   3.789   3.047  13.156
 4454TIP3    H234778   3.842   2.961  13.264
 4455TIP3   OH234779   3.810   3.329  12.920
 4455TIP3    H134780   3.906   3.317  12.918
 4455TIP3    H234781   3.802   3.411  12.971
 4456TIP3   OH234782   5.634   3.400  13.490
 4456TIP3    H134783   5.622   3.303  13.487
 4456TIP3    H234784   5.547   3.424  13.528
 4457TIP3   OH234785   4.729   3.353  13.376
 4457TIP3    H134786   4.735   3.438  13.426
 4457TIP3    H234787   4.642   3.317  13.401
 4458TIP3   OH234788   4.774   3.728  12.355
 4458TIP3    H134789   4.763   3.720  12.258
 4458TIP3    H234790   4.774   3.824  12.370
 4459TIP3   OH234791   4.138   3.615  12.537
 4459TIP3    H134792   4.152   3.574  12.625
 4459TIP3    H234793   4.053   3.575  12.513
 4460TIP3   OH234794   5.079   3.649  12.053
 4460TIP3    H134795   5.125   3.573  12.010
 4460TIP3    H234796   5.083   3.623  12.147
 4461TIP3   OH234797   5.049   3.643  12.331
 4461TIP3    H134798   4.953   3.650  12.347
 4461TIP3    H234799   5.072   3.568  12.388
 4462TIP3   OH234800   5.351   2.548  13.537
 4462TIP3    H134801   5.301   2.591  13.466
 4462TIP3    H234802   5.344   2.456  13.506
 4463TIP3   OH234803   4.063   3.187  13.337
 4463TIP3    H134804   4.085   3.151  13.425
 4463TIP3    H234805   3.976   3.147  13.316
 4464TIP3   OH234806   4.332   2.034  12.933
 4464TIP3    H134807   4.242   2.021  12.897
 4464TIP3    H234808   4.318   2.117  12.980
 4465TIP3   OH234809   4.792   1.984  13.266
 4465TIP3    H134810   4.835   1.960  13.350
 4465TIP3    H234811   4.695   1.990  13.286
 4466TIP3   OH234812   5.145   2.399  13.411
 4466TIP3    H134813   5.060   2.361  13.443
 4466TIP3    H234814   5.112   2.455  13.335
 4467TIP3   OH234815   5.199   2.868  11.948
 4467TIP3    H134816   5.197   2.849  11.851
 4467TIP3    H234817   5.285   2.912  11.953
 4468TIP3   OH234818   4.759   2.260  11.999
 4468TIP3    H134819   4.727   2.254  12.091
 4468TIP3    H234820   4.728   2.172  11.968
 4469TIP3   OH234821   4.339   2.531  13.057
 4469TIP3    H134822   4.266   2.531  13.122
 4469TIP3    H234823   4.336   2.622  13.020
 4470TIP3   OH234824   4.338   2.544  12.544
 4470TIP3    H134825   4.245   2.521  12.531
 4470TIP3    H234826   4.375   2.514  12.458
 4471TIP3   OH234827   4.889   2.595  12.422
 4471TIP3    H134828   4.850   2.677  12.385
 4471TIP3    H234829   4.958   2.577  12.356
 4472TIP3   OH234830   4.792   2.617  13.569
 4472TIP3    H134831   4.742   2.536  13.594
 4472TIP3    H234832   4.879   2.601  13.609
 4473TIP3   OH234833   4.983   2.540  12.678
 4473TIP3    H134834   4.962   2.601  12.608
 4473TIP3    H234835   5.003   2.454  12.637
 4474TIP3   OH234836   4.103   2.557  13.225
 4474TIP3    H134837   4.111   2.597  13.313
 4474TIP3    H234838   4.059   2.473  13.246
 4475TIP3   OH234839   4.440   2.296  11.911
 4475TIP3    H134840   4.395   2.254  11.986
 4475TIP3    H234841   4.369   2.340  11.861
 4476TIP3   OH234842   3.760   2.269  12.631
 4476TIP3    H134843   3.831   2.275  12.701
 4476TIP3    H234844   3.805   2.273  12.546
 4477TIP3   OH234845   3.897   2.341  12.163
 4477TIP3    H134846   3.947   2.400  12.102
 4477TIP3    H234847   3.826   2.404  12.188
 4478TIP3   OH234848   4.902   2.710  13.157
 4478TIP3    H134849   4.951   2.640  13.108
 4478TIP3    H234850   4.869   2.651  13.227
 4479TIP3   OH234851   4.592   2.300  12.645
 4479TIP3    H134852   4.498   2.299  12.674
 4479TIP3    H234853   4.641   2.283  12.727
 4480TIP3   OH234854   4.069   2.449  12.535
 4480TIP3    H134855   3.987   2.473  12.488
 4480TIP3    H234856   4.105   2.372  12.486
 4481TIP3   OH234857   4.438   2.459  12.294
 4481TIP3    H134858   4.534   2.470  12.311
 4481TIP3    H234859   4.414   2.527  12.228
 4482TIP3   OH234860   5.032   2.203  12.967
 4482TIP3    H134861   4.970   2.234  13.037
 4482TIP3    H234862   4.978   2.200  12.888
 4483TIP3   OH234863   4.308   2.576  12.052
 4483TIP3    H134864   4.255   2.539  11.980
 4483TIP3    H234865   4.390   2.597  12.005
 4484TIP3   OH234866   5.353   3.786  13.601
 4484TIP3    H134867   5.379   3.825  13.515
 4484TIP3    H234868   5.425   3.819  13.657
 4485TIP3   OH234869   4.120   3.034  13.558
 4485TIP3    H134870   4.192   3.058  13.618
 4485TIP3    H234871   4.043   3.042  13.618
 4486TIP3   OH234872   4.715   2.573  12.830
 4486TIP3    H134873   4.781   2.522  12.782
 4486TIP3    H234874   4.708   2.522  12.913
 4487TIP3   OH234875   4.217   2.187  12.475
 4487TIP3    H134876   4.197   2.092  12.474
 4487TIP3    H234877   4.300   2.185  12.424
 4488TIP3   OH234878   4.581   2.406  13.077
 4488TIP3    H134879   4.501   2.461  13.085
 4488TIP3    H234880   4.641   2.441  13.145
 4489TIP3   OH234881   4.643   3.030  12.244
 4489TIP3    H134882   4.563   2.983  12.211
 4489TIP3    H234883   4.621   3.042  12.339
 4490TIP3   OH234884   5.362   2.950  13.125
 4490TIP3    H134885   5.418   2.998  13.062
 4490TIP3    H234886   5.276   2.953  13.079
 4491TIP3   OH234887   5.026   2.311  12.063
 4491TIP3    H134888   4.931   2.327  12.049
 4491TIP3    H234889   5.060   2.396  12.097
 4492TIP3   OH234890   4.792   3.057  13.369
 4492TIP3    H134891   4.757   3.014  13.448
 4492TIP3    H234892   4.767   3.149  13.380
 4493TIP3   OH234893   5.100   2.503  12.224
 4493TIP3    H134894   5.188   2.490  12.266
 4493TIP3    H234895   5.110   2.585  12.174
 4494TIP3   OH234896   4.154   2.968  12.824
 4494TIP3    H134897   4.222   2.961  12.755
 4494TIP3    H234898   4.160   2.883  12.870
 4495TIP3   OH234899   4.853   3.176  12.148
 4495TIP3    H134900   4.818   3.261  12.183
 4495TIP3    H234901   4.779   3.115  12.170
 4496TIP3   OH234902   3.853   2.809  13.351
 4496TIP3    H134903   3.870   2.765  13.436
 4496TIP3    H234904   3.791   2.748  13.307
 4497TIP3   OH234905   4.554   2.766  13.568
 4497TIP3    H134906   4.522   2.734  13.482
 4497TIP3    H234907   4.647   2.733  13.569
 4498TIP3   OH234908   5.023   3.299  13.364
 4498TIP3    H134909   4.931   3.317  13.340
 4498TIP3    H234910   5.020   3.328  13.457
 4499TIP3   OH234911   5.590   2.516  12.202
 4499TIP3    H134912   5.533   2.488  12.128
 4499TIP3    H234913   5.598   2.611  12.177
 4500TIP3   OH234914   5.588   3.103  13.483
 4500TIP3    H134915   5.499   3.125  13.447
 4500TIP3    H234916   5.643   3.098  13.402
 4501TIP3   OH234917   5.415   3.400  12.242
 4501TIP3    H134918   5.382   3.316  12.277
 4501TIP3    H234919   5.451   3.378  12.154
 4502TIP3   OH234920   5.140   2.883  12.950
 4502TIP3    H134921   5.046   2.859  12.943
 4502TIP3    H234922   5.182   2.804  12.912
 4503TIP3   OH234923   4.392   3.315  12.563
 4503TIP3    H134924   4.441   3.396  12.542
 4503TIP3    H234925   4.304   3.338  12.530
 4504TIP3   OH234926   3.968   2.798  12.020
 4504TIP3    H134927   4.026   2.865  12.061
 4504TIP3    H234928   3.879   2.830  12.045
 4505TIP3   OH234929   4.532   3.081  12.514
 4505TIP3    H134930   4.501   3.173  12.524
 4505TIP3    H234931   4.461   3.032  12.559
 4506TIP3   OH234932   4.578   3.500  13.156
 4506TIP3    H134933   4.624   3.580  13.127
 4506TIP3    H234934   4.640   3.465  13.223
 4507TIP3   OH234935   4.401   3.580  12.467
 4507TIP3    H134936   4.304   3.594  12.481
 4507TIP3    H234937   4.437   3.664  12.502
 4508TIP3   OH234938   4.931   3.102  13.119
 4508TIP3    H134939   4.897   3.081  13.209
 4508TIP3    H234940   4.993   3.028  13.101
 4509TIP3   OH234941   5.164   3.207  12.027
 4509TIP3    H134942   5.194   3.160  12.107
 4509TIP3    H234943   5.069   3.189  12.035
 4510TIP3   OH234944   5.212   3.557  13.366
 4510TIP3    H134945   5.143   3.508  13.319
 4510TIP3    H234946   5.230   3.627  13.300
 4511TIP3   OH234947   5.610   3.642  12.052
 4511TIP3    H134948   5.680   3.708  12.032
 4511TIP3    H234949   5.539   3.703  12.081
 4512TIP3   OH234950   4.018   2.280  13.307
 4512TIP3    H134951   3.928   2.317  13.304
 4512TIP3    H234952   4.007   2.195  13.353
 4513TIP3   OH234953   5.242   3.070  12.251
 4513TIP3    H134954   5.218   2.991  12.305
 4513TIP3    H234955   5.337   3.075  12.269
 4514TIP3   OH234956   3.979   3.461  13.148
 4514TIP3    H134957   4.010   3.369  13.149
 4514TIP3    H234958   4.006   3.490  13.236
 4515TIP3   OH234959   4.577   3.314  11.876
 4515TIP3    H134960   4.587   3.238  11.817
 4515TIP3    H234961   4.533   3.271  11.953
 4516TIP3   OH234962   4.454   3.267  12.121
 4516TIP3    H134963   4.481   3.215  12.198
 4516TIP3    H234964   4.463   3.359  12.154
 4517TIP3   OH234965   4.109   2.991  12.170
 4517TIP3    H134966   4.037   3.031  12.224
 4517TIP3    H234967   4.159   3.069  12.141
 4518TIP3   OH234968   4.856   2.233  13.214
 4518TIP3    H134969   4.943   2.263  13.250
 4518TIP3    H234970   4.851   2.138  13.232
 4519TIP3   OH234971   4.966   2.217  12.310
 4519TIP3    H134972   4.989   2.263  12.228
 4519TIP3    H234973   5.024   2.261  12.374
 4520TIP3   OH234974   4.735   3.433  12.191
 4520TIP3    H134975   4.653   3.486  12.198
 4520TIP3    H234976   4.789   3.488  12.132
 4521TIP3   OH234977   4.690   2.393  12.393
 4521TIP3    H134978   4.768   2.451  12.399
 4521TIP3    H234979   4.663   2.381  12.487
 4522TIP3   OH234980   4.738   2.490  13.316
 4522TIP3    H134981   4.756   2.552  13.389
 4522TIP3    H234982   4.812   2.427  13.316
 4523TIP3   OH234983   4.774   2.099  12.481
 4523TIP3    H134984   4.743   2.165  12.546
 4523TIP3    H234985   4.843   2.152  12.436
 4524TIP3   OH234986   4.475   3.536  12.194
 4524TIP3    H134987   4.484   3.618  12.139
 4524TIP3    H234988   4.447   3.573  12.281
 4525TIP3   OH234989   4.340   2.209  12.151
 4525TIP3    H134990   4.334   2.298  12.190
 4525TIP3    H234991   4.430   2.184  12.178
 4526TIP3   OH234992   5.367   2.278  13.395
 4526TIP3    H134993   5.274   2.313  13.387
 4526TIP3    H234994   5.392   2.281  13.302
 4527TIP3   OH234995   5.228   2.659  12.789
 4527TIP3    H134996   5.140   2.619  12.776
 4527TIP3    H234997   5.268   2.594  12.850
 4528TIP3   OH234998   4.163   3.253  12.056
 4528TIP3    H134999   4.229   3.315  12.088
 4528TIP3    H235000   4.215   3.206  11.988
 4529TIP3   OH235001   3.997   2.520  11.971
 4529TIP3    H135002   3.999   2.616  11.991
 4529TIP3    H235003   3.908   2.503  11.939
 4530TIP3   OH235004   5.330   3.587  12.964
 4530TIP3    H135005   5.321   3.655  12.894
 4530TIP3    H235006   5.426   3.592  12.981
 4531TIP3   OH235007   4.075   2.000  12.843
 4531TIP3    H135008   4.062   1.997  12.747
 4531TIP3    H235009   4.039   1.913  12.871
 4532TIP3   OH235010   3.974   3.391  12.459
 4532TIP3    H135011   3.889   3.435  12.455
 4532TIP3    H235012   4.022   3.437  12.389
 4533TIP3   OH235013   3.895   3.656  13.587
 4533TIP3    H135014   3.955   3.636  13.661
 4533TIP3    H235015   3.855   3.569  13.569
 4534TIP3   OH235016   4.363   3.548  13.748
 4534TIP3    H135017   4.439   3.498  13.782
 4534TIP3    H235018   4.360   3.520  13.655
 4535TIP3   OH235019   4.776   3.499  11.889
 4535TIP3    H135020   4.707   3.433  11.911
 4535TIP3    H235021   4.848   3.439  11.864
 4536TIP3   OH235022   5.013   3.386  13.623
 4536TIP3    H135023   4.982   3.297  13.651
 4536TIP3    H235024   5.090   3.398  13.683
 4537TIP3   OH235025   5.232   3.473  11.907
 4537TIP3    H135026   5.262   3.396  11.958
 4537TIP3    H235027   5.308   3.496  11.852
 4538TIP3   OH235028   3.886   3.033  13.687
 4538TIP3    H135029   3.902   2.942  13.657
 4538TIP3    H235030   3.812   3.059  13.630
 4539TIP3   OH235031   4.321   3.068  11.889
 4539TIP3    H135032   4.335   2.991  11.947
 4539TIP3    H235033   4.396   3.056  11.827
 4540TIP3   OH235034   4.558   3.032  13.626
 4540TIP3    H135035   4.524   3.063  13.539
 4540TIP3    H235036   4.565   2.934  13.615
 4541TIP3   OH235037   4.864   3.178  11.867
 4541TIP3    H135038   4.837   3.187  11.960
 4541TIP3    H235039   4.845   3.083  11.852
 4542TIP3   OH235040   5.127   3.017  13.365
 4542TIP3    H135041   5.206   3.075  13.359
 4542TIP3    H235042   5.057   3.084  13.368
 4543TIP3   OH235043   3.978   2.756  13.625
 4543TIP3    H135044   4.020   2.669  13.616
 4543TIP3    H235045   3.955   2.756  13.719
 4544TIP3   OH235046   4.441   2.869  12.132
 4544TIP3    H135047   4.391   2.816  12.194
 4544TIP3    H235048   4.471   2.802  12.066
 4545TIP3   OH235049   4.368   2.650  13.361
 4545TIP3    H135050   4.309   2.723  13.387
 4545TIP3    H235051   4.408   2.687  13.280
 4546TIP3   OH235052   4.549   2.692  11.952
 4546TIP3    H135053   4.534   2.683  11.855
 4546TIP3    H235054   4.646   2.697  11.958
 4547TIP3   OH235055   4.875   2.907  13.694
 4547TIP3    H135056   4.971   2.906  13.682
 4547TIP3    H235057   4.858   2.830  13.751
 4548TIP3   OH235058   5.482   2.923  11.893
 4548TIP3    H135059   5.463   2.886  11.806
 4548TIP3    H235060   5.491   3.020  11.874
 4549TIP3   OH235061   4.409   2.388  13.466
 4549TIP3    H135062   4.421   2.318  13.400
 4549TIP3    H235063   4.404   2.469  13.412
 4550TIP3   OH235064   4.449   2.222  13.222
 4550TIP3    H135065   4.501   2.271  13.153
 4550TIP3    H235066   4.359   2.220  13.180
 4551TIP3   OH235067   4.600   2.776  13.246
 4551TIP3    H135068   4.678   2.758  13.191
 4551TIP3    H235069   4.565   2.860  13.212
 4552TIP3   OH235070   5.042   2.551  13.745
 4552TIP3    H135071   5.067   2.458  13.731
 4552TIP3    H235072   5.129   2.595  13.745
 4553TIP3   OH235073   5.177   2.832  13.562
 4553TIP3    H135074   5.151   2.900  13.496
 4553TIP3    H235075   5.272   2.825  13.539
 4554TIP3   OH235076   4.253   2.513  13.659
 4554TIP3    H135077   4.178   2.453  13.643
 4554TIP3    H235078   4.319   2.478  13.597
 4555TIP3   OH235079   4.521   1.967  13.267
 4555TIP3    H135080   4.512   2.064  13.250
 4555TIP3    H235081   4.451   1.934  13.207
 4556TIP3   OH235082   4.653   2.402  13.625
 4556TIP3    H135083   4.621   2.378  13.714
 4556TIP3    H235084   4.575   2.381  13.570
 4557TIP3   OH235085   4.926   2.318  13.533
 4557TIP3    H135086   4.829   2.322  13.540
 4557TIP3    H235087   4.953   2.253  13.599
 4558TIP3   OH235088   5.087   2.179  13.724
 4558TIP3    H135089   5.080   2.081  13.726
 4558TIP3    H235090   5.060   2.208  13.813
 4559TIP3   OH235091   4.061   2.306  13.632
 4559TIP3    H135092   4.086   2.231  13.576
 4559TIP3    H235093   4.055   2.263  13.721
 4560TIP3   OH235094   4.584   1.941  13.525
 4560TIP3    H135095   4.640   1.861  13.530
 4560TIP3    H235096   4.554   1.951  13.432
 4561TIP3   OH235097   4.582   2.071  13.749
 4561TIP3    H135098   4.575   2.029  13.661
 4561TIP3    H235099   4.525   2.150  13.738
 4562TIP3   OH235100   4.532   3.762  12.060
 4562TIP3    H135101   4.629   3.770  12.066
 4562TIP3    H235102   4.517   3.822  11.986
 4563TIP3   OH235103   3.887   3.219  12.006
 4563TIP3    H135104   3.984   3.228  12.025
 4563TIP3    H235105   3.892   3.155  11.932
 4564TIP3   OH235106   3.765   3.757  12.503
 4564TIP3    H135107   3.693   3.708  12.457
 4564TIP3    H235108   3.793   3.692  12.570
 4565TIP3   OH235109   3.848   3.571  12.691
 4565TIP3    H135110   3.813   3.483  12.711
 4565TIP3    H235111   3.870   3.604  12.779
 4566TIP3   OH235112   5.602   3.651  12.984
 4566TIP3    H135113   5.605   3.667  13.079
 4566TIP3    H235114   5.672   3.709  12.953
 4567TIP3   OH235115   5.559   3.610  13.278
 4567TIP3    H135116   5.512   3.533  13.240
 4567TIP3    H235117   5.608   3.566  13.350
 4568TIP3   OH235118   5.403   3.182  13.746
 4568TIP3    H135119   5.313   3.180  13.782
 4568TIP3    H235120   5.441   3.263  13.787
 4569TIP3   OH235121   5.535   3.016  12.288
 4569TIP3    H135122   5.622   3.054  12.307
 4569TIP3    H235123   5.533   2.944  12.355
 4570TIP3   OH235124   5.571   2.823  12.477
 4570TIP3    H135125   5.496   2.773  12.516
 4570TIP3    H235126   5.631   2.836  12.554
 4571TIP3   OH235127   5.547   3.092  12.976
 4571TIP3    H135128   5.628   3.055  12.938
 4571TIP3    H235129   5.561   3.188  12.959
 4572TIP3   OH235130   5.403   3.383  13.202
 4572TIP3    H135131   5.334   3.417  13.261
 4572TIP3    H235132   5.348   3.343  13.132
 4573TIP3   OH235133   5.601   2.805  12.116
 4573TIP3    H135134   5.544   2.839  12.044
 4573TIP3    H235135   5.591   2.877  12.182
 4574TIP3   OH235136   5.438   2.528  11.968
 4574TIP3    H135137   5.446   2.595  11.898
 4574TIP3    H235138   5.420   2.446  11.918
 4575TIP3   OH235139   5.353   2.670  12.534
 4575TIP3    H135140   5.338   2.575  12.530
 4575TIP3    H235141   5.320   2.691  12.623
 4576TIP3   OH235142   3.853   2.879  12.940
 4576TIP3    H135143   3.871   2.871  12.844
 4576TIP3    H235144   3.943   2.861  12.975
 4577TIP3   OH235145   5.439   2.866  13.503
 4577TIP3    H135146   5.500   2.791  13.516
 4577TIP3    H235147   5.499   2.944  13.503
 4578TIP3   OH235148   5.590   2.655  13.568
 4578TIP3    H135149   5.501   2.615  13.553
 4578TIP3    H235150   5.646   2.577  13.561
 4579TIP3   OH235151   5.363   2.276  11.881
 4579TIP3    H135152   5.422   2.232  11.945
 4579TIP3    H235153   5.277   2.234  11.896
 4580TIP3   OH235154   5.317   2.429  12.376
 4580TIP3    H135155   5.349   2.336  12.392
 4580TIP3    H235156   5.399   2.469  12.346
 4581TIP3   OH235157   5.385   2.482  12.923
 4581TIP3    H135158   5.480   2.507  12.924
 4581TIP3    H235159   5.362   2.497  13.017
 4582TIP3   OH235160   5.391   2.554  13.204
 4582TIP3    H135161   5.300   2.581  13.232
 4582TIP3    H235162   5.431   2.641  13.180
 4583TIP3   OH235163   3.815   2.409  13.556
 4583TIP3    H135164   3.909   2.387  13.575
 4583TIP3    H235165   3.768   2.328  13.583
 4584TIP3   OH235166   5.618   1.962  13.736
 4584TIP3    H135167   5.653   1.895  13.674
 4584TIP3    H235168   5.628   2.043  13.683
 4585TIP3   OH235169   5.387   2.157  12.384
 4585TIP3    H135170   5.409   2.114  12.470
 4585TIP3    H235171   5.327   2.093  12.341
 4586TIP3   OH235172   3.938   2.237  12.833
 4586TIP3    H135173   3.981   2.156  12.869
 4586TIP3    H235174   3.988   2.307  12.879
 4587TIP3   OH235175   3.763   2.538  12.945
 4587TIP3    H135176   3.820   2.515  12.869
 4587TIP3    H235177   3.810   2.619  12.972
 4588TIP3   OH235178   5.569   2.172  13.571
 4588TIP3    H135179   5.476   2.199  13.565
 4588TIP3    H235180   5.573   2.116  13.492
 4589TIP3   OH235181   5.569   2.161  12.040
 4589TIP3    H135182   5.610   2.090  11.986
 4589TIP3    H235183   5.639   2.227  12.045
 4590TIP3   OH235184   3.795   2.164  12.338
 4590TIP3    H135185   3.700   2.185  12.324
 4590TIP3    H235186   3.838   2.217  12.267
 4591TIP3   OH235187   5.274   3.659  12.547
 4591TIP3    H135188   5.342   3.629  12.484
 4591TIP3    H235189   5.325   3.709  12.612
 4592TIP3   OH235190   3.794   2.030  13.180
 4592TIP3    H135191   3.730   2.009  13.249
 4592TIP3    H235192   3.748   2.097  13.126
 4593TIP3   OH235193   4.019   3.349  13.597
 4593TIP3    H135194   3.935   3.371  13.553
 4593TIP3    H235195   3.992   3.342  13.689
 4594TIP3   OH235196   4.309   3.450  13.225
 4594TIP3    H135197   4.276   3.537  13.198
 4594TIP3    H235198   4.402   3.458  13.194
 4595TIP3   OH235199   4.741   3.592  13.515
 4595TIP3    H135200   4.755   3.557  13.606
 4595TIP3    H235201   4.831   3.623  13.491
 4596TIP3   OH235202   4.970   3.719  13.447
 4596TIP3    H135203   5.043   3.661  13.423
 4596TIP3    H235204   5.007   3.763  13.526
 4597TIP3   OH235205   5.471   1.980  13.357
 4597TIP3    H135206   5.389   2.012  13.316
 4597TIP3    H235207   5.488   1.898  13.305
 4598TIP3   OH235208   4.051   3.774  13.224
 4598TIP3    H135209   3.978   3.824  13.185
 4598TIP3    H235210   4.020   3.755  13.314
 4599TIP3   OH235211   4.298   3.731  13.132
 4599TIP3    H135212   4.209   3.746  13.171
 4599TIP3    H235213   4.293   3.790  13.054
 4600TIP3   OH235214   4.769   3.723  13.048
 4600TIP3    H135215   4.723   3.778  12.984
 4600TIP3    H235216   4.782   3.786  13.123
 4601TIP3   OH235217   4.997   3.603  13.152
 4601TIP3    H135218   4.912   3.631  13.115
 4601TIP3    H235219   5.046   3.686  13.142
 4602TIP3   OH235220   5.256   3.760  13.174
 4602TIP3    H135221   5.250   3.857  13.151
 4602TIP3    H235222   5.277   3.723  13.086
 4603TIP3   OH235223   3.997   3.640  12.919
 4603TIP3    H135224   3.989   3.593  13.005
 4603TIP3    H235225   4.078   3.601  12.880
 4604TIP3   OH235226   4.205   3.510  12.784
 4604TIP3    H135227   4.188   3.416  12.807
 4604TIP3    H235228   4.290   3.525  12.829
 4605TIP3   OH235229   4.466   3.558  12.872
 4605TIP3    H135230   4.481   3.466  12.846
 4605TIP3    H235231   4.470   3.552  12.968
 4606TIP3   OH235232   4.808   2.122  12.782
 4606TIP3    H135233   4.743   2.058  12.815
 4606TIP3    H235234   4.867   2.069  12.728
 4607TIP3   OH235235   5.324   1.928  12.791
 4607TIP3    H135236   5.385   1.987  12.741
 4607TIP3    H235237   5.236   1.964  12.769
 4608TIP3   OH235238   5.492   2.052  12.619
 4608TIP3    H135239   5.561   1.995  12.578
 4608TIP3    H235240   5.542   2.136  12.630
 4609TIP3   OH235241   4.047   1.982  12.569
 4609TIP3    H135242   3.976   1.948  12.513
 4609TIP3    H235243   4.100   1.900  12.568
 4610TIP3   OH235244   3.928   1.961  12.148
 4610TIP3    H135245   3.973   2.024  12.088
 4610TIP3    H235246   3.865   2.019  12.192
 4611TIP3   OH235247   4.494   1.978  12.549
 4611TIP3    H135248   4.585   2.014  12.542
 4611TIP3    H235249   4.491   1.956  12.642
 4612TIP3   OH235250   5.066   1.981  12.711
 4612TIP3    H135251   5.061   1.991  12.615
 4612TIP3    H235252   5.028   1.891  12.725
 4613TIP3   OH235253   5.193   1.983  12.280
 4613TIP3    H135254   5.118   2.042  12.264
 4613TIP3    H235255   5.149   1.898  12.303
 4614TIP3   OH235256   3.916   3.556  12.245
 4614TIP3    H135257   3.850   3.554  12.173
 4614TIP3    H235258   3.916   3.651  12.263
 4615TIP3   OH235259   4.106   2.154  11.997
 4615TIP3    H135260   4.159   2.094  11.942
 4615TIP3    H235261   4.175   2.188  12.056
 4616TIP3   OH235262   4.609   2.180  12.234
 4616TIP3    H135263   4.634   2.122  12.308
 4616TIP3    H235264   4.617   2.266  12.280
 4617TIP3   OH235265   4.803   3.687  12.079
 4617TIP3    H135266   4.895   3.710  12.057
 4617TIP3    H235267   4.781   3.635  11.999
 4618TIP3   OH235268   5.473   3.637  12.351
 4618TIP3    H135269   5.454   3.559  12.294
 4618TIP3    H235270   5.466   3.711  12.286
 4619TIP3   OH235271   4.029   2.045  13.518
 4619TIP3    H135272   3.997   1.958  13.552
 4619TIP3    H235273   4.124   2.035  13.546
 4620TIP3   OH235274   4.257   1.952  13.609
 4620TIP3    H135275   4.335   1.954  13.666
 4620TIP3    H235276   4.201   1.912  13.680
 4621TIP3   OH235277   4.095   3.655  11.939
 4621TIP3    H135278   4.069   3.680  12.029
 4621TIP3    H235279   4.174   3.598  11.955
 4622TIP3   OH235280   5.076   1.907  13.695
 4622TIP3    H135281   5.086   1.860  13.780
 4622TIP3    H235282   5.167   1.904  13.660
 4623TIP3   OH235283   5.398   3.512  13.558
 4623TIP3    H135284   5.317   3.498  13.503
 4623TIP3    H235285   5.386   3.607  13.580
 4624TIP3   OH235286   6.842   2.898  12.556
 4624TIP3    H135287   6.842   2.997  12.553
 4624TIP3    H235288   6.769   2.876  12.496
 4625TIP3   OH235289   6.728   2.825  12.906
 4625TIP3    H135290   6.726   2.760  12.978
 4625TIP3    H235291   6.695   2.774  12.830
 4626TIP3   OH235292   5.963   2.793  13.061
 4626TIP3    H135293   5.971   2.724  13.131
 4626TIP3    H235294   6.038   2.850  13.084
 4627TIP3   OH235295   7.098   3.118  12.736
 4627TIP3    H135296   7.056   3.047  12.785
 4627TIP3    H235297   7.099   3.190  12.801
 4628TIP3   OH235298   6.055   3.238  12.911
 4628TIP3    H135299   6.024   3.151  12.880
 4628TIP3    H235300   6.151   3.219  12.916
 4629TIP3   OH235301   5.721   2.594  12.458
 4629TIP3    H135302   5.676   2.680  12.454
 4629TIP3    H235303   5.662   2.539  12.405
 4630TIP3   OH235304   5.792   2.817  12.676
 4630TIP3    H135305   5.817   2.733  12.720
 4630TIP3    H235306   5.861   2.826  12.608
 4631TIP3   OH235307   6.809   3.636  12.758
 4631TIP3    H135308   6.873   3.566  12.730
 4631TIP3    H235309   6.785   3.602  12.844
 4632TIP3   OH235310   6.565   3.065  12.954
 4632TIP3    H135311   6.599   3.003  12.888
 4632TIP3    H235312   6.647   3.081  13.005
 4633TIP3   OH235313   6.883   2.513  12.984
 4633TIP3    H135314   6.899   2.417  12.983
 4633TIP3    H235315   6.873   2.527  12.888
 4634TIP3   OH235316   6.193   2.321  12.706
 4634TIP3    H135317   6.204   2.404  12.657
 4634TIP3    H235318   6.153   2.264  12.637
 4635TIP3   OH235319   6.970   2.333  12.545
 4635TIP3    H135320   7.034   2.297  12.611
 4635TIP3    H235321   7.029   2.385  12.491
 4636TIP3   OH235322   5.855   2.562  12.780
 4636TIP3    H135323   5.922   2.508  12.825
 4636TIP3    H235324   5.866   2.530  12.688
 4637TIP3   OH235325   6.371   2.718  12.712
 4637TIP3    H135326   6.439   2.659  12.751
 4637TIP3    H235327   6.320   2.652  12.661
 4638TIP3   OH235328   6.084   2.211  13.110
 4638TIP3    H135329   6.056   2.268  13.036
 4638TIP3    H235330   6.016   2.234  13.178
 4639TIP3   OH235331   6.811   3.157  12.464
 4639TIP3    H135332   6.786   3.131  12.375
 4639TIP3    H235333   6.782   3.251  12.470
 4640TIP3   OH235334   6.335   2.976  13.134
 4640TIP3    H135335   6.265   3.040  13.156
 4640TIP3    H235336   6.406   3.035  13.105
 4641TIP3   OH235337   7.118   2.261  12.754
 4641TIP3    H135338   7.121   2.179  12.804
 4641TIP3    H235339   7.195   2.307  12.794
 4642TIP3   OH235340   6.041   2.396  12.914
 4642TIP3    H135341   6.104   2.465  12.945
 4642TIP3    H235342   6.093   2.355  12.840
 4643TIP3   OH235343   6.180   3.176  13.216
 4643TIP3    H135344   6.175   3.267  13.182
 4643TIP3    H235345   6.092   3.168  13.260
 4644TIP3   OH235346   5.788   3.136  12.295
 4644TIP3    H135347   5.763   3.170  12.208
 4644TIP3    H235348   5.796   3.219  12.347
 4645TIP3   OH235349   7.129   3.296  12.981
 4645TIP3    H135350   7.033   3.318  12.985
 4645TIP3    H235351   7.167   3.381  12.950
 4646TIP3   OH235352   7.161   2.144  13.085
 4646TIP3    H135353   7.092   2.212  13.098
 4646TIP3    H235354   7.238   2.194  13.055
 4647TIP3   OH235355   6.478   1.944  12.857
 4647TIP3    H135356   6.464   1.848  12.850
 4647TIP3    H235357   6.390   1.975  12.887
 4648TIP3   OH235358   6.967   3.475  12.632
 4648TIP3    H135359   7.015   3.407  12.581
 4648TIP3    H235360   7.012   3.555  12.596
 4649TIP3   OH235361   7.095   3.274  12.482
 4649TIP3    H135362   7.070   3.203  12.421
 4649TIP3    H235363   7.101   3.223  12.566
 4650TIP3   OH235364   7.232   3.148  13.343
 4650TIP3    H135365   7.260   3.078  13.281
 4650TIP3    H235366   7.273   3.224  13.298
 4651TIP3   OH235367   6.707   2.823  12.307
 4651TIP3    H135368   6.638   2.881  12.271
 4651TIP3    H235369   6.778   2.832  12.242
 4652TIP3   OH235370   6.715   2.680  12.009
 4652TIP3    H135371   6.787   2.678  12.074
 4652TIP3    H235372   6.746   2.608  11.951
 4653TIP3   OH235373   7.049   2.845  12.396
 4653TIP3    H135374   6.977   2.870  12.458
 4653TIP3    H235375   7.097   2.781  12.453
 4654TIP3   OH235376   7.047   2.662  13.309
 4654TIP3    H135377   7.042   2.742  13.364
 4654TIP3    H235378   6.983   2.689  13.241
 4655TIP3   OH235379   6.213   2.910  12.592
 4655TIP3    H135380   6.182   2.871  12.507
 4655TIP3    H235381   6.275   2.841  12.625
 4656TIP3   OH235382   6.345   3.249  12.859
 4656TIP3    H135383   6.345   3.196  12.778
 4656TIP3    H235384   6.424   3.213  12.905
 4657TIP3   OH235385   6.246   2.785  12.958
 4657TIP3    H135386   6.301   2.795  12.878
 4657TIP3    H235387   6.285   2.851  13.019
 4658TIP3   OH235388   6.880   3.344  13.027
 4658TIP3    H135389   6.861   3.406  13.097
 4658TIP3    H235390   6.862   3.257  13.070
 4659TIP3   OH235391   6.342   3.228  13.427
 4659TIP3    H135392   6.301   3.304  13.475
 4659TIP3    H235393   6.275   3.208  13.358
 4660TIP3   OH235394   6.939   2.762  12.167
 4660TIP3    H135395   6.995   2.784  12.246
 4660TIP3    H235396   6.979   2.815  12.095
 4661TIP3   OH235397   6.036   2.844  13.342
 4661TIP3    H135398   6.041   2.911  13.413
 4661TIP3    H235399   5.941   2.852  13.321
 4662TIP3   OH235400   6.710   3.437  12.512
 4662TIP3    H135401   6.754   3.466  12.594
 4662TIP3    H235402   6.655   3.512  12.489
 4663TIP3   OH235403   6.166   3.431  13.502
 4663TIP3    H135404   6.160   3.419  13.406
 4663TIP3    H235405   6.073   3.418  13.529
 4664TIP3   OH235406   6.110   2.812  12.354
 4664TIP3    H135407   6.082   2.891  12.303
 4664TIP3    H235408   6.045   2.746  12.330
 4665TIP3   OH235409   5.719   3.055  13.243
 4665TIP3    H135410   5.674   3.046  13.157
 4665TIP3    H235411   5.728   2.961  13.265
 4666TIP3   OH235412   5.695   3.329  12.920
 4666TIP3    H135413   5.791   3.317  12.918
 4666TIP3    H235414   5.687   3.411  12.971
 4667TIP3   OH235415   6.615   3.353  13.375
 4667TIP3    H135416   6.621   3.438  13.426
 4667TIP3    H235417   6.528   3.317  13.401
 4668TIP3   OH235418   6.663   3.728  12.355
 4668TIP3    H135419   6.650   3.720  12.259
 4668TIP3    H235420   6.661   3.824  12.370
 4669TIP3   OH235421   6.023   3.616  12.537
 4669TIP3    H135422   6.038   3.574  12.625
 4669TIP3    H235423   5.938   3.575  12.513
 4670TIP3   OH235424   6.967   3.650  12.052
 4670TIP3    H135425   7.010   3.573  12.008
 4670TIP3    H235426   6.968   3.623  12.146
 4671TIP3   OH235427   6.932   3.641  12.332
 4671TIP3    H135428   6.836   3.650  12.348
 4671TIP3    H235429   6.955   3.567  12.389
 4672TIP3   OH235430   7.184   2.564  13.540
 4672TIP3    H135431   7.181   2.598  13.450
 4672TIP3    H235432   7.238   2.481  13.524
 4673TIP3   OH235433   5.948   3.188  13.337
 4673TIP3    H135434   5.970   3.151  13.425
 4673TIP3    H235435   5.861   3.147  13.315
 4674TIP3   OH235436   6.216   2.035  12.932
 4674TIP3    H135437   6.126   2.022  12.895
 4674TIP3    H235438   6.203   2.118  12.980
 4675TIP3   OH235439   6.681   2.001  13.268
 4675TIP3    H135440   6.720   1.959  13.347
 4675TIP3    H235441   6.583   1.989  13.283
 4676TIP3   OH235442   7.002   2.382  13.352
 4676TIP3    H135443   6.954   2.365  13.436
 4676TIP3    H235444   6.994   2.477  13.338
 4677TIP3   OH235445   7.090   2.858  11.948
 4677TIP3    H135446   7.082   2.843  11.851
 4677TIP3    H235447   7.166   2.915  11.951
 4678TIP3   OH235448   6.645   2.260  11.999
 4678TIP3    H135449   6.613   2.254  12.091
 4678TIP3    H235450   6.614   2.173  11.968
 4679TIP3   OH235451   6.227   2.532  13.058
 4679TIP3    H135452   6.152   2.531  13.121
 4679TIP3    H235453   6.222   2.623  13.020
 4680TIP3   OH235454   6.222   2.543  12.544
 4680TIP3    H135455   6.128   2.518  12.530
 4680TIP3    H235456   6.260   2.514  12.458
 4681TIP3   OH235457   6.776   2.595  12.422
 4681TIP3    H135458   6.735   2.676  12.384
 4681TIP3    H235459   6.844   2.577  12.355
 4682TIP3   OH235460   6.681   2.615  13.565
 4682TIP3    H135461   6.629   2.537  13.595
 4682TIP3    H235462   6.765   2.603  13.612
 4683TIP3   OH235463   6.875   2.545  12.707
 4683TIP3    H135464   6.851   2.599  12.630
 4683TIP3    H235465   6.887   2.459  12.661
 4684TIP3   OH235466   5.989   2.557  13.225
 4684TIP3    H135467   5.997   2.598  13.313
 4684TIP3    H235468   5.944   2.473  13.246
 4685TIP3   OH235469   6.326   2.296  11.911
 4685TIP3    H135470   6.280   2.254  11.986
 4685TIP3    H235471   6.255   2.340  11.861
 4686TIP3   OH235472   5.654   2.268  12.624
 4686TIP3    H135473   5.723   2.264  12.694
 4686TIP3    H235474   5.699   2.230  12.546
 4687TIP3   OH235475   5.781   2.340  12.158
 4687TIP3    H135476   5.832   2.401  12.103
 4687TIP3    H235477   5.712   2.402  12.191
 4688TIP3   OH235478   6.796   2.700  13.160
 4688TIP3    H135479   6.836   2.631  13.103
 4688TIP3    H235480   6.750   2.648  13.228
 4689TIP3   OH235481   6.477   2.300  12.645
 4689TIP3    H135482   6.383   2.299  12.674
 4689TIP3    H235483   6.527   2.282  12.726
 4690TIP3   OH235484   5.959   2.454  12.531
 4690TIP3    H135485   5.870   2.470  12.492
 4690TIP3    H235486   5.987   2.371  12.490
 4691TIP3   OH235487   6.323   2.459  12.294
 4691TIP3    H135488   6.419   2.470  12.310
 4691TIP3    H235489   6.299   2.527  12.228
 4692TIP3   OH235490   6.911   2.220  12.970
 4692TIP3    H135491   6.844   2.227  13.040
 4692TIP3    H235492   6.862   2.198  12.889
 4693TIP3   OH235493   6.194   2.576  12.052
 4693TIP3    H135494   6.140   2.538  11.980
 4693TIP3    H235495   6.276   2.597  12.005
 4694TIP3   OH235496   7.229   3.791  13.604
 4694TIP3    H135497   7.263   3.824  13.519
 4694TIP3    H235498   7.303   3.817  13.660
 4695TIP3   OH235499   6.006   3.033  13.558
 4695TIP3    H135500   6.078   3.058  13.618
 4695TIP3    H235501   5.929   3.041  13.618
 4696TIP3   OH235502   6.606   2.574  12.833
 4696TIP3    H135503   6.666   2.521  12.780
 4696TIP3    H235504   6.591   2.520  12.912
 4697TIP3   OH235505   6.107   2.189  12.477
 4697TIP3    H135506   6.076   2.097  12.476
 4697TIP3    H235507   6.186   2.182  12.422
 4698TIP3   OH235508   6.470   2.407  13.075
 4698TIP3    H135509   6.387   2.459  13.084
 4698TIP3    H235510   6.525   2.442  13.147
 4699TIP3   OH235511   6.529   3.030  12.245
 4699TIP3    H135512   6.449   2.983  12.211
 4699TIP3    H235513   6.506   3.042  12.339
 4700TIP3   OH235514   7.216   2.952  13.124
 4700TIP3    H135515   7.288   2.965  13.059
 4700TIP3    H235516   7.140   2.952  13.063
 4701TIP3   OH235517   6.915   2.312  12.061
 4701TIP3    H135518   6.819   2.324  12.047
 4701TIP3    H235519   6.943   2.398  12.099
 4702TIP3   OH235520   6.679   3.057  13.369
 4702TIP3    H135521   6.643   3.014  13.447
 4702TIP3    H235522   6.655   3.149  13.380
 4703TIP3   OH235523   6.985   2.505  12.222
 4703TIP3    H135524   7.072   2.491  12.265
 4703TIP3    H235525   6.995   2.589  12.174
 4704TIP3   OH235526   6.040   2.969  12.825
 4704TIP3    H135527   6.108   2.961  12.755
 4704TIP3    H235528   6.046   2.883  12.870
 4705TIP3   OH235529   6.736   3.177  12.148
 4705TIP3    H135530   6.704   3.262  12.184
 4705TIP3    H235531   6.664   3.115  12.171
 4706TIP3   OH235532   5.739   2.810  13.351
 4706TIP3    H135533   5.756   2.765  13.436
 4706TIP3    H235534   5.677   2.749  13.307
 4707TIP3   OH235535   6.440   2.765  13.568
 4707TIP3    H135536   6.408   2.734  13.482
 4707TIP3    H235537   6.532   2.733  13.568
 4708TIP3   OH235538   6.908   3.297  13.364
 4708TIP3    H135539   6.816   3.316  13.340
 4708TIP3    H235540   6.906   3.328  13.456
 4709TIP3   OH235541   7.019   2.879  12.954
 4709TIP3    H135542   6.926   2.857  12.939
 4709TIP3    H235543   7.067   2.805  12.911
 4710TIP3   OH235544   6.277   3.315  12.563
 4710TIP3    H135545   6.327   3.396  12.542
 4710TIP3    H235546   6.189   3.338  12.530
 4711TIP3   OH235547   5.854   2.798  12.020
 4711TIP3    H135548   5.912   2.865  12.061
 4711TIP3    H235549   5.765   2.830  12.045
 4712TIP3   OH235550   6.419   3.082  12.515
 4712TIP3    H135551   6.387   3.174  12.524
 4712TIP3    H235552   6.347   3.032  12.559
 4713TIP3   OH235553   6.462   3.502  13.158
 4713TIP3    H135554   6.513   3.579  13.126
 4713TIP3    H235555   6.526   3.463  13.222
 4714TIP3   OH235556   6.286   3.580  12.467
 4714TIP3    H135557   6.190   3.594  12.480
 4714TIP3    H235558   6.323   3.664  12.502
 4715TIP3   OH235559   6.818   3.099  13.118
 4715TIP3    H135560   6.784   3.080  13.208
 4715TIP3    H235561   6.880   3.027  13.101
 4716TIP3   OH235562   7.048   3.205  12.026
 4716TIP3    H135563   7.080   3.161  12.107
 4716TIP3    H235564   6.953   3.188  12.035
 4717TIP3   OH235565   7.098   3.555  13.365
 4717TIP3    H135566   7.026   3.508  13.318
 4717TIP3    H235567   7.119   3.627  13.301
 4718TIP3   OH235568   5.904   2.283  13.305
 4718TIP3    H135569   5.813   2.318  13.303
 4718TIP3    H235570   5.893   2.198  13.352
 4719TIP3   OH235571   7.128   3.065  12.248
 4719TIP3    H135572   7.105   2.989  12.306
 4719TIP3    H235573   7.221   3.078  12.271
 4720TIP3   OH235574   5.864   3.460  13.148
 4720TIP3    H135575   5.895   3.369  13.149
 4720TIP3    H235576   5.889   3.488  13.237
 4721TIP3   OH235577   6.463   3.314  11.876
 4721TIP3    H135578   6.473   3.238  11.817
 4721TIP3    H235579   6.418   3.271  11.953
 4722TIP3   OH235580   6.340   3.267  12.121
 4722TIP3    H135581   6.367   3.215  12.198
 4722TIP3    H235582   6.349   3.359  12.154
 4723TIP3   OH235583   5.994   2.991  12.170
 4723TIP3    H135584   5.923   3.031  12.224
 4723TIP3    H235585   6.045   3.069  12.141
 4724TIP3   OH235586   6.774   2.259  13.203
 4724TIP3    H135587   6.849   2.266  13.263
 4724TIP3    H235588   6.737   2.171  13.223
 4725TIP3   OH235589   6.857   2.215  12.310
 4725TIP3    H135590   6.875   2.264  12.228
 4725TIP3    H235591   6.912   2.262  12.375
 4726TIP3   OH235592   6.620   3.433  12.191
 4726TIP3    H135593   6.538   3.486  12.198
 4726TIP3    H235594   6.674   3.488  12.132
 4727TIP3   OH235595   6.575   2.392  12.392
 4727TIP3    H135596   6.653   2.451  12.397
 4727TIP3    H235597   6.548   2.380  12.486
 4728TIP3   OH235598   6.633   2.495  13.312
 4728TIP3    H135599   6.641   2.551  13.391
 4728TIP3    H235600   6.698   2.424  13.321
 4729TIP3   OH235601   6.655   2.099  12.479
 4729TIP3    H135602   6.628   2.163  12.546
 4729TIP3    H235603   6.727   2.152  12.436
 4730TIP3   OH235604   6.360   3.536  12.194
 4730TIP3    H135605   6.370   3.618  12.139
 4730TIP3    H235606   6.333   3.573  12.281
 4731TIP3   OH235607   6.225   2.209  12.152
 4731TIP3    H135608   6.220   2.298  12.190
 4731TIP3    H235609   6.316   2.184  12.178
 4732TIP3   OH235610   7.235   2.259  13.376
 4732TIP3    H135611   7.152   2.312  13.380
 4732TIP3    H235612   7.275   2.287  13.294
 4733TIP3   OH235613   7.108   2.660  12.801
 4733TIP3    H135614   7.026   2.617  12.770
 4733TIP3    H235615   7.151   2.589  12.850
 4734TIP3   OH235616   6.048   3.253  12.056
 4734TIP3    H135617   6.115   3.315  12.088
 4734TIP3    H235618   6.100   3.206  11.987
 4735TIP3   OH235619   5.883   2.520  11.970
 4735TIP3    H135620   5.885   2.616  11.991
 4735TIP3    H235621   5.794   2.503  11.940
 4736TIP3   OH235622   7.222   3.589  12.963
 4736TIP3    H135623   7.206   3.656  12.893
 4736TIP3    H235624   7.316   3.598  12.979
 4737TIP3   OH235625   5.964   1.999  12.845
 4737TIP3    H135626   5.945   2.000  12.749
 4737TIP3    H235627   5.923   1.913  12.870
 4738TIP3   OH235628   5.860   3.391  12.460
 4738TIP3    H135629   5.775   3.436  12.455
 4738TIP3    H235630   5.908   3.437  12.389
 4739TIP3   OH235631   5.780   3.656  13.588
 4739TIP3    H135632   5.841   3.636  13.661
 4739TIP3    H235633   5.740   3.569  13.569
 4740TIP3   OH235634   6.249   3.547  13.749
 4740TIP3    H135635   6.324   3.498  13.782
 4740TIP3    H235636   6.246   3.520  13.655
 4741TIP3   OH235637   6.663   3.499  11.888
 4741TIP3    H135638   6.593   3.433  11.911
 4741TIP3    H235639   6.735   3.439  11.864
 4742TIP3   OH235640   6.905   3.385  13.623
 4742TIP3    H135641   6.870   3.298  13.651
 4742TIP3    H235642   6.980   3.395  13.684
 4743TIP3   OH235643   7.115   3.475  11.912
 4743TIP3    H135644   7.146   3.395  11.957
 4743TIP3    H235645   7.190   3.493  11.852
 4744TIP3   OH235646   5.771   3.033  13.687
 4744TIP3    H135647   5.788   2.942  13.657
 4744TIP3    H235648   5.697   3.059  13.630
 4745TIP3   OH235649   6.206   3.067  11.889
 4745TIP3    H135650   6.221   2.991  11.948
 4745TIP3    H235651   6.281   3.056  11.827
 4746TIP3   OH235652   6.443   3.032  13.626
 4746TIP3    H135653   6.410   3.063  13.539
 4746TIP3    H235654   6.451   2.934  13.615
 4747TIP3   OH235655   6.749   3.178  11.867
 4747TIP3    H135656   6.722   3.187  11.960
 4747TIP3    H235657   6.730   3.083  11.852
 4748TIP3   OH235658   7.010   3.014  13.365
 4748TIP3    H135659   7.089   3.073  13.359
 4748TIP3    H235660   6.943   3.083  13.369
 4749TIP3   OH235661   5.864   2.756  13.625
 4749TIP3    H135662   5.905   2.669  13.616
 4749TIP3    H235663   5.840   2.756  13.719
 4750TIP3   OH235664   6.328   2.869  12.133
 4750TIP3    H135665   6.276   2.815  12.195
 4750TIP3    H235666   6.357   2.802  12.067
 4751TIP3   OH235667   6.253   2.650  13.360
 4751TIP3    H135668   6.194   2.722  13.386
 4751TIP3    H235669   6.293   2.687  13.280
 4752TIP3   OH235670   6.434   2.692  11.952
 4752TIP3    H135671   6.419   2.683  11.855
 4752TIP3    H235672   6.532   2.697  11.958
 4753TIP3   OH235673   6.761   2.908  13.695
 4753TIP3    H135674   6.856   2.906  13.682
 4753TIP3    H235675   6.745   2.830  13.750
 4754TIP3   OH235676   6.295   2.388  13.466
 4754TIP3    H135677   6.306   2.317  13.400
 4754TIP3    H235678   6.290   2.469  13.411
 4755TIP3   OH235679   6.334   2.226  13.222
 4755TIP3    H135680   6.385   2.273  13.151
 4755TIP3    H235681   6.245   2.218  13.181
 4756TIP3   OH235682   6.488   2.775  13.246
 4756TIP3    H135683   6.564   2.758  13.189
 4756TIP3    H235684   6.452   2.859  13.212
 4757TIP3   OH235685   6.933   2.553  13.743
 4757TIP3    H135686   6.955   2.459  13.732
 4757TIP3    H235687   7.021   2.595  13.739
 4758TIP3   OH235688   7.064   2.834  13.559
 4758TIP3    H135689   7.035   2.902  13.495
 4758TIP3    H235690   7.157   2.823  13.538
 4759TIP3   OH235691   6.140   2.513  13.658
 4759TIP3    H135692   6.063   2.455  13.642
 4759TIP3    H235693   6.206   2.476  13.596
 4760TIP3   OH235694   6.413   1.970  13.260
 4760TIP3    H135695   6.395   2.066  13.251
 4760TIP3    H235696   6.338   1.933  13.210
 4761TIP3   OH235697   6.540   2.403  13.623
 4761TIP3    H135698   6.509   2.379  13.713
 4761TIP3    H235699   6.462   2.382  13.569
 4762TIP3   OH235700   6.808   2.320  13.533
 4762TIP3    H135701   6.712   2.321  13.545
 4762TIP3    H235702   6.840   2.255  13.598
 4763TIP3   OH235703   6.976   2.178  13.724
 4763TIP3    H135704   6.965   2.080  13.725
 4763TIP3    H235705   6.945   2.206  13.812
 4764TIP3   OH235706   5.948   2.306  13.634
 4764TIP3    H135707   5.973   2.233  13.575
 4764TIP3    H235708   5.939   2.262  13.720
 4765TIP3   OH235709   6.435   1.909  13.531
 4765TIP3    H135710   6.503   1.839  13.529
 4765TIP3    H235711   6.423   1.923  13.435
 4766TIP3   OH235712   6.471   2.070  13.742
 4766TIP3    H135713   6.454   2.020  13.659
 4766TIP3    H235714   6.411   2.147  13.732
 4767TIP3   OH235715   6.418   3.762  12.059
 4767TIP3    H135716   6.515   3.770  12.066
 4767TIP3    H235717   6.403   3.822  11.986
 4768TIP3   OH235718   5.773   3.219  12.007
 4768TIP3    H135719   5.870   3.228  12.025
 4768TIP3    H235720   5.778   3.155  11.932
 4769TIP3   OH235721   5.651   3.757  12.503
 4769TIP3    H135722   5.579   3.709  12.457
 4769TIP3    H235723   5.679   3.692  12.570
 4770TIP3   OH235724   5.734   3.571  12.691
 4770TIP3    H135725   5.698   3.484  12.711
 4770TIP3    H235726   5.757   3.604  12.780
 4771TIP3   OH235727   7.280   3.377  13.208
 4771TIP3    H135728   7.214   3.420  13.264
 4771TIP3    H235729   7.227   3.340  13.135
 4772TIP3   OH235730   7.188   2.677  12.544
 4772TIP3    H135731   7.214   2.585  12.547
 4772TIP3    H235732   7.200   2.702  12.638
 4773TIP3   OH235733   5.739   2.879  12.940
 4773TIP3    H135734   5.757   2.871  12.844
 4773TIP3    H235735   5.829   2.861  12.975
 4774TIP3   OH235736   7.247   2.272  11.881
 4774TIP3    H135737   7.305   2.230  11.944
 4774TIP3    H235738   7.160   2.231  11.900
 4775TIP3   OH235739   7.202   2.422  12.364
 4775TIP3    H135740   7.231   2.338  12.404
 4775TIP3    H235741   7.287   2.457  12.334
 4776TIP3   OH235742  -0.053   2.399  12.924
 4776TIP3    H135743   0.035   2.435  12.910
 4776TIP3    H235744  -0.075   2.464  12.994
 4777TIP3   OH235745   7.278   2.561  13.228
 4777TIP3    H135746   7.184   2.588  13.237
 4777TIP3    H235747   7.314   2.630  13.169
 4778TIP3   OH235748   5.703   2.409  13.557
 4778TIP3    H135749   5.796   2.387  13.575
 4778TIP3    H235750   5.656   2.327  13.583
 4779TIP3   OH235751   7.183   2.127  12.450
 4779TIP3    H135752   7.276   2.109  12.472
 4779TIP3    H235753   7.184   2.084  12.361
 4780TIP3   OH235754   5.821   2.238  12.840
 4780TIP3    H135755   5.867   2.155  12.866
 4780TIP3    H235756   5.876   2.307  12.879
 4781TIP3   OH235757   5.649   2.538  12.944
 4781TIP3    H135758   5.706   2.513  12.868
 4781TIP3    H235759   5.696   2.619  12.971
 4782TIP3   OH235760   5.686   2.166  12.352
 4782TIP3    H135761   5.592   2.182  12.336
 4782TIP3    H235762   5.728   2.213  12.279
 4783TIP3   OH235763   7.141   3.641  12.556
 4783TIP3    H135764   7.208   3.608  12.495
 4783TIP3    H235765   7.193   3.699  12.614
 4784TIP3   OH235766   5.681   2.029  13.181
 4784TIP3    H135767   5.614   2.010  13.249
 4784TIP3    H235768   5.635   2.096  13.127
 4785TIP3   OH235769   5.905   3.348  13.597
 4785TIP3    H135770   5.820   3.370  13.554
 4785TIP3    H235771   5.878   3.342  13.689
 4786TIP3   OH235772   6.195   3.450  13.227
 4786TIP3    H135773   6.161   3.535  13.197
 4786TIP3    H235774   6.287   3.457  13.195
 4787TIP3   OH235775   6.627   3.593  13.515
 4787TIP3    H135776   6.640   3.557  13.606
 4787TIP3    H235777   6.717   3.623  13.491
 4788TIP3   OH235778   6.858   3.719  13.447
 4788TIP3    H135779   6.932   3.662  13.423
 4788TIP3    H235780   6.896   3.764  13.526
 4789TIP3   OH235781   5.940   3.778  13.226
 4789TIP3    H135782   5.863   3.821  13.185
 4789TIP3    H235783   5.905   3.753  13.313
 4790TIP3   OH235784   6.182   3.732  13.133
 4790TIP3    H135785   6.090   3.738  13.170
 4790TIP3    H235786   6.169   3.774  13.045
 4791TIP3   OH235787   6.647   3.720  13.052
 4791TIP3    H135788   6.611   3.778  12.983
 4791TIP3    H235789   6.671   3.784  13.122
 4792TIP3   OH235790   6.882   3.603  13.152
 4792TIP3    H135791   6.797   3.631  13.115
 4792TIP3    H235792   6.930   3.688  13.144
 4793TIP3   OH235793   7.128   3.760  13.173
 4793TIP3    H135794   7.127   3.855  13.151
 4793TIP3    H235795   7.162   3.723  13.089
 4794TIP3   OH235796   5.886   3.642  12.921
 4794TIP3    H135797   5.873   3.591  13.004
 4794TIP3    H235798   5.963   3.599  12.879
 4795TIP3   OH235799   6.089   3.511  12.786
 4795TIP3    H135800   6.074   3.417  12.807
 4795TIP3    H235801   6.177   3.523  12.827
 4796TIP3   OH235802   6.347   3.559  12.873
 4796TIP3    H135803   6.366   3.467  12.844
 4796TIP3    H235804   6.356   3.548  12.969
 4797TIP3   OH235805   6.694   2.123  12.786
 4797TIP3    H135806   6.628   2.058  12.814
 4797TIP3    H235807   6.751   2.071  12.728
 4798TIP3   OH235808   7.211   1.927  12.793
 4798TIP3    H135809   7.269   1.989  12.749
 4798TIP3    H235810   7.122   1.963  12.772
 4799TIP3   OH235811   5.934   1.986  12.570
 4799TIP3    H135812   5.854   1.966  12.517
 4799TIP3    H235813   5.979   1.899  12.564
 4800TIP3   OH235814   5.810   1.961  12.142
 4800TIP3    H135815   5.859   2.026  12.089
 4800TIP3    H235816   5.753   2.018  12.196
 4801TIP3   OH235817   6.380   1.978  12.549
 4801TIP3    H135818   6.470   2.014  12.542
 4801TIP3    H235819   6.377   1.956  12.642
 4802TIP3   OH235820   6.954   1.976  12.712
 4802TIP3    H135821   6.948   1.994  12.617
 4802TIP3    H235822   6.911   1.888  12.723
 4803TIP3   OH235823   7.075   1.974  12.268
 4803TIP3    H135824   7.005   2.041  12.264
 4803TIP3    H235825   7.028   1.895  12.301
 4804TIP3   OH235826   5.801   3.556  12.245
 4804TIP3    H135827   5.736   3.554  12.173
 4804TIP3    H235828   5.801   3.651  12.263
 4805TIP3   OH235829   5.993   2.155  11.994
 4805TIP3    H135830   6.046   2.094  11.941
 4805TIP3    H235831   6.059   2.188  12.057
 4806TIP3   OH235832   6.496   2.180  12.234
 4806TIP3    H135833   6.521   2.122  12.308
 4806TIP3    H235834   6.503   2.266  12.280
 4807TIP3   OH235835   6.688   3.687  12.079
 4807TIP3    H135836   6.780   3.710  12.057
 4807TIP3    H235837   6.667   3.635  11.998
 4808TIP3   OH235838   5.922   2.040  13.515
 4808TIP3    H135839   5.883   1.960  13.556
 4808TIP3    H235840   6.013   2.036  13.554
 4809TIP3   OH235841   6.122   1.978  13.680
 4809TIP3    H135842   6.211   1.944  13.658
 4809TIP3    H235843   6.084   1.897  13.720
 4810TIP3   OH235844   5.981   3.655  11.940
 4810TIP3    H135845   5.955   3.680  12.029
 4810TIP3    H235846   6.059   3.598  11.955
 4811TIP3   OH235847   6.963   1.909  13.693
 4811TIP3    H135848   6.974   1.861  13.778
 4811TIP3    H235849   7.056   1.907  13.659
 4812TIP3   OH235850   7.262   3.500  13.572
 4812TIP3    H135851   7.197   3.494  13.498
 4812TIP3    H235852   7.264   3.598  13.580
 4813TIP3   OH235853   1.186   4.785  12.555
 4813TIP3    H135854   1.184   4.883  12.553
 4813TIP3    H235855   1.112   4.762  12.496
 4814TIP3   OH235856   1.070   4.710  12.906
 4814TIP3    H135857   1.069   4.646  12.978
 4814TIP3    H235858   1.036   4.660  12.831
 4815TIP3   OH235859   0.312   4.677  13.058
 4815TIP3    H135860   0.317   4.610  13.129
 4815TIP3    H235861   0.381   4.738  13.085
 4816TIP3   OH235862   1.439   5.006  12.734
 4816TIP3    H135863   1.398   4.934  12.784
 4816TIP3    H235864   1.442   5.076  12.802
 4817TIP3   OH235865   0.398   5.121  12.914
 4817TIP3    H135866   0.367   5.035  12.879
 4817TIP3    H235867   0.494   5.105  12.915
 4818TIP3   OH235868   0.090   4.478  12.419
 4818TIP3    H135869   0.045   4.558  12.456
 4818TIP3    H235870   0.010   4.425  12.419
 4819TIP3   OH235871   0.130   4.694  12.670
 4819TIP3    H135872   0.160   4.619  12.723
 4819TIP3    H235873   0.204   4.712  12.610
 4820TIP3   OH235874   1.152   5.522  12.759
 4820TIP3    H135875   1.216   5.453  12.730
 4820TIP3    H235876   1.129   5.488  12.845
 4821TIP3   OH235877   0.908   4.951  12.953
 4821TIP3    H135878   0.942   4.888  12.888
 4821TIP3    H235879   0.989   4.966  13.005
 4822TIP3   OH235880   1.768   4.117  13.026
 4822TIP3    H135881   1.786   4.176  13.102
 4822TIP3    H235882   1.825   4.159  12.960
 4823TIP3   OH235883   1.225   4.398  12.985
 4823TIP3    H135884   1.242   4.302  12.985
 4823TIP3    H235885   1.215   4.412  12.889
 4824TIP3   OH235886   0.537   4.207  12.707
 4824TIP3    H135887   0.548   4.289  12.657
 4824TIP3    H235888   0.498   4.149  12.637
 4825TIP3   OH235889   1.310   4.214  12.543
 4825TIP3    H135890   1.375   4.183  12.610
 4825TIP3    H235891   1.366   4.272  12.490
 4826TIP3   OH235892   0.195   4.439  12.774
 4826TIP3    H135893   0.268   4.392  12.820
 4826TIP3    H235894   0.214   4.411  12.683
 4827TIP3   OH235895   0.714   4.603  12.712
 4827TIP3    H135896   0.782   4.545  12.751
 4827TIP3    H235897   0.663   4.537  12.661
 4828TIP3   OH235898   1.812   4.257  13.253
 4828TIP3    H135899   1.751   4.334  13.242
 4828TIP3    H235900   1.815   4.249  13.349
 4829TIP3   OH235901   0.431   4.097  13.110
 4829TIP3    H135902   0.400   4.153  13.036
 4829TIP3    H235903   0.363   4.119  13.178
 4830TIP3   OH235904   1.156   5.045  12.465
 4830TIP3    H135905   1.130   5.017  12.376
 4830TIP3    H235906   1.125   5.138  12.470
 4831TIP3   OH235907   0.681   4.861  13.134
 4831TIP3    H135908   0.609   4.924  13.156
 4831TIP3    H235909   0.750   4.921  13.105
 4832TIP3   OH235910   1.491   4.149  12.742
 4832TIP3    H135911   1.469   4.072  12.796
 4832TIP3    H235912   1.558   4.193  12.798
 4833TIP3   OH235913   0.382   4.280  12.914
 4833TIP3    H135914   0.444   4.350  12.946
 4833TIP3    H235915   0.436   4.241  12.840
 4834TIP3   OH235916   0.522   5.060  13.215
 4834TIP3    H135917   0.518   5.152  13.182
 4834TIP3    H235918   0.434   5.052  13.259
 4835TIP3   OH235919   0.128   5.026  12.291
 4835TIP3    H135920   0.108   5.059  12.202
 4835TIP3    H235921   0.139   5.107  12.344
 4836TIP3   OH235922   1.492   5.189  12.971
 4836TIP3    H135923   1.395   5.201  12.983
 4836TIP3    H235924   1.519   5.281  12.951
 4837TIP3   OH235925   1.524   4.018  13.110
 4837TIP3    H135926   1.452   4.081  13.101
 4837TIP3    H235927   1.596   4.059  13.058
 4838TIP3   OH235928   0.821   3.830  12.856
 4838TIP3    H135929   0.808   3.734  12.849
 4838TIP3    H235930   0.733   3.860  12.887
 4839TIP3   OH235931   1.318   5.368  12.630
 4839TIP3    H135932   1.361   5.296  12.579
 4839TIP3    H235933   1.361   5.447  12.590
 4840TIP3   OH235934   1.438   5.161  12.482
 4840TIP3    H135935   1.410   5.091  12.421
 4840TIP3    H235936   1.443   5.111  12.566
 4841TIP3   OH235937   1.601   5.020  13.331
 4841TIP3    H135938   1.616   4.955  13.259
 4841TIP3    H235939   1.622   5.104  13.287
 4842TIP3   OH235940   1.051   4.708  12.307
 4842TIP3    H135941   0.981   4.766  12.271
 4842TIP3    H235942   1.122   4.718  12.241
 4843TIP3   OH235943   1.059   4.566  12.008
 4843TIP3    H135944   1.129   4.564  12.075
 4843TIP3    H235945   1.090   4.494  11.952
 4844TIP3   OH235946   1.790   4.651  13.136
 4844TIP3    H135947   1.724   4.724  13.139
 4844TIP3    H235948   1.839   4.675  13.055
 4845TIP3   OH235949   1.396   4.729  12.399
 4845TIP3    H135950   1.322   4.754  12.459
 4845TIP3    H235951   1.443   4.662  12.452
 4846TIP3   OH235952   1.389   4.546  13.312
 4846TIP3    H135953   1.389   4.628  13.364
 4846TIP3    H235954   1.326   4.576  13.243
 4847TIP3   OH235955   0.559   4.797  12.592
 4847TIP3    H135956   0.523   4.757  12.509
 4847TIP3    H235957   0.619   4.727  12.625
 4848TIP3   OH235958   0.688   5.134  12.859
 4848TIP3    H135959   0.689   5.081  12.778
 4848TIP3    H235960   0.766   5.100  12.906
 4849TIP3   OH235961   0.593   4.670  12.958
 4849TIP3    H135962   0.646   4.681  12.877
 4849TIP3    H235963   0.629   4.738  13.019
 4850TIP3   OH235964   1.232   5.228  13.029
 4850TIP3    H135965   1.203   5.291  13.095
 4850TIP3    H235966   1.205   5.142  13.071
 4851TIP3   OH235967   0.685   5.113  13.427
 4851TIP3    H135968   0.643   5.187  13.476
 4851TIP3    H235969   0.618   5.094  13.357
 4852TIP3   OH235970   1.283   4.650  12.166
 4852TIP3    H135971   1.339   4.668  12.246
 4852TIP3    H235972   1.329   4.700  12.094
 4853TIP3   OH235973   0.379   4.731  13.345
 4853TIP3    H135974   0.383   4.799  13.414
 4853TIP3    H235975   0.285   4.739  13.322
 4854TIP3   OH235976   1.052   5.323  12.513
 4854TIP3    H135977   1.097   5.353  12.593
 4854TIP3    H235978   0.999   5.399  12.490
 4855TIP3   OH235979   0.511   5.311  13.503
 4855TIP3    H135980   0.502   5.310  13.405
 4855TIP3    H235981   0.416   5.305  13.527
 4856TIP3   OH235982   1.656   3.823  12.157
 4856TIP3    H135983   1.561   3.835  12.181
 4856TIP3    H235984   1.676   3.907  12.112
 4857TIP3   OH235985   0.455   4.697  12.354
 4857TIP3    H135986   0.426   4.775  12.303
 4857TIP3    H235987   0.390   4.631  12.331
 4858TIP3   OH235988   1.765   5.261  11.989
 4858TIP3    H135989   1.784   5.354  12.009
 4858TIP3    H235990   1.857   5.228  11.991
 4859TIP3   OH235991   0.122   4.927  13.217
 4859TIP3    H135992   0.045   4.940  13.158
 4859TIP3    H235993   0.085   4.849  13.264
 4860TIP3   OH235994   0.069   5.238  12.893
 4860TIP3    H135995   0.152   5.200  12.922
 4860TIP3    H235996   0.042   5.286  12.972
 4861TIP3   OH235997   1.863   5.285  13.490
 4861TIP3    H135998   1.851   5.189  13.487
 4861TIP3    H235999   1.775   5.310  13.528
 4862TIP3   OH236000   0.958   5.239  13.376
 4862TIP3    H136001   0.964   5.323  13.427
 4862TIP3    H236002   0.871   5.203  13.400
 4863TIP3   OH236003   0.994   5.614  12.355
 4863TIP3    H136004   0.998   5.606  12.257
 4863TIP3    H236005   1.007   5.710  12.370
 4864TIP3   OH236006   0.368   5.501  12.534
 4864TIP3    H136007   0.379   5.462  12.624
 4864TIP3    H236008   0.282   5.459  12.513
 4865TIP3   OH236009   1.315   5.538  12.054
 4865TIP3    H136010   1.352   5.459  12.009
 4865TIP3    H236011   1.309   5.509  12.147
 4866TIP3   OH236012   1.279   5.528  12.333
 4866TIP3    H136013   1.183   5.535  12.345
 4866TIP3    H236014   1.301   5.453  12.390
 4867TIP3   OH236015   1.577   4.432  13.536
 4867TIP3    H136016   1.530   4.477  13.465
 4867TIP3    H236017   1.576   4.340  13.506
 4868TIP3   OH236018   0.293   5.081  13.344
 4868TIP3    H136019   0.311   5.036  13.428
 4868TIP3    H236020   0.210   5.037  13.315
 4869TIP3   OH236021   0.560   3.921  12.932
 4869TIP3    H136022   0.470   3.909  12.895
 4869TIP3    H236023   0.546   4.004  12.981
 4870TIP3   OH236024   1.024   3.887  13.268
 4870TIP3    H136025   1.063   3.844  13.347
 4870TIP3    H236026   0.927   3.875  13.283
 4871TIP3   OH236027   1.353   4.271  13.358
 4871TIP3    H136028   1.296   4.250  13.436
 4871TIP3    H236029   1.334   4.364  13.335
 4872TIP3   OH236030   1.427   4.754  11.948
 4872TIP3    H136031   1.425   4.735  11.852
 4872TIP3    H236032   1.513   4.798  11.954
 4873TIP3   OH236033   0.988   4.146  11.999
 4873TIP3    H136034   0.956   4.139  12.091
 4873TIP3    H236035   0.957   4.058  11.968
 4874TIP3   OH236036   0.568   4.418  13.057
 4874TIP3    H136037   0.495   4.417  13.122
 4874TIP3    H236038   0.566   4.509  13.020
 4875TIP3   OH236039   0.568   4.430  12.543
 4875TIP3    H136040   0.474   4.405  12.530
 4875TIP3    H236041   0.605   4.400  12.458
 4876TIP3   OH236042   1.117   4.480  12.421
 4876TIP3    H136043   1.078   4.562  12.384
 4876TIP3    H236044   1.186   4.463  12.355
 4877TIP3   OH236045   1.023   4.500  13.564
 4877TIP3    H136046   0.970   4.423  13.595
 4877TIP3    H236047   1.107   4.488  13.612
 4878TIP3   OH236048   1.221   4.429  12.705
 4878TIP3    H136049   1.193   4.485  12.631
 4878TIP3    H236050   1.230   4.344  12.658
 4879TIP3   OH236051   0.333   4.441  13.225
 4879TIP3    H136052   0.335   4.483  13.313
 4879TIP3    H236053   0.284   4.360  13.245
 4880TIP3   OH236054   0.669   4.182  11.910
 4880TIP3    H136055   0.624   4.140  11.986
 4880TIP3    H236056   0.598   4.225  11.861
 4881TIP3   OH236057   0.035   4.186  12.605
 4881TIP3    H136058   0.068   4.151  12.690
 4881TIP3    H236059   0.049   4.110  12.548
 4882TIP3   OH236060   0.123   4.240  12.156
 4882TIP3    H136061   0.179   4.296  12.098
 4882TIP3    H236062   0.050   4.296  12.181
 4883TIP3   OH236063   1.141   4.587  13.160
 4883TIP3    H136064   1.179   4.518  13.102
 4883TIP3    H236065   1.094   4.534  13.228
 4884TIP3   OH236066   0.821   4.185  12.644
 4884TIP3    H136067   0.728   4.185  12.673
 4884TIP3    H236068   0.869   4.167  12.726
 4885TIP3   OH236069   0.303   4.339  12.530
 4885TIP3    H136070   0.216   4.357  12.491
 4885TIP3    H236071   0.327   4.254  12.489
 4886TIP3   OH236072   0.666   4.344  12.294
 4886TIP3    H136073   0.762   4.356  12.309
 4886TIP3    H236074   0.641   4.413  12.229
 4887TIP3   OH236075   1.261   4.108  12.968
 4887TIP3    H136076   1.193   4.113  13.039
 4887TIP3    H236077   1.211   4.082  12.890
 4888TIP3   OH236078   0.538   4.461  12.051
 4888TIP3    H136079   0.484   4.425  11.979
 4888TIP3    H236080   0.620   4.483  12.005
 4889TIP3   OH236081   1.582   5.672  13.601
 4889TIP3    H136082   1.608   5.711  13.515
 4889TIP3    H236083   1.654   5.704  13.657
 4890TIP3   OH236084   0.347   4.918  13.559
 4890TIP3    H136085   0.421   4.943  13.617
 4890TIP3    H236086   0.272   4.929  13.620
 4891TIP3   OH236087   0.948   4.460  12.833
 4891TIP3    H136088   1.009   4.407  12.780
 4891TIP3    H236089   0.935   4.405  12.912
 4892TIP3   OH236090   0.449   4.076  12.476
 4892TIP3    H136091   0.418   3.984  12.476
 4892TIP3    H236092   0.529   4.068  12.423
 4893TIP3   OH236093   0.813   4.293  13.075
 4893TIP3    H136094   0.731   4.345  13.084
 4893TIP3    H236095   0.869   4.328  13.147
 4894TIP3   OH236096   0.872   4.915  12.245
 4894TIP3    H136097   0.792   4.868  12.211
 4894TIP3    H236098   0.849   4.927  12.339
 4895TIP3   OH236099   1.591   4.836  13.125
 4895TIP3    H136100   1.647   4.884  13.062
 4895TIP3    H236101   1.505   4.840  13.079
 4896TIP3   OH236102   1.255   4.197  12.062
 4896TIP3    H136103   1.160   4.212  12.049
 4896TIP3    H236104   1.289   4.282  12.097
 4897TIP3   OH236105   1.021   4.942  13.369
 4897TIP3    H136106   0.986   4.899  13.448
 4897TIP3    H236107   0.995   5.034  13.380
 4898TIP3   OH236108   1.329   4.389  12.224
 4898TIP3    H136109   1.417   4.375  12.265
 4898TIP3    H236110   1.339   4.471  12.174
 4899TIP3   OH236111   0.382   4.855  12.823
 4899TIP3    H136112   0.450   4.847  12.754
 4899TIP3    H236113   0.392   4.771  12.871
 4900TIP3   OH236114   1.081   5.062  12.147
 4900TIP3    H136115   1.047   5.146  12.183
 4900TIP3    H236116   1.008   5.000  12.169
 4901TIP3   OH236117   0.079   4.693  13.351
 4901TIP3    H136118   0.105   4.649  13.434
 4901TIP3    H236119   0.020   4.629  13.308
 4902TIP3   OH236120   0.783   4.651  13.568
 4902TIP3    H136121   0.751   4.620  13.482
 4902TIP3    H236122   0.875   4.619  13.568
 4903TIP3   OH236123   1.252   5.185  13.364
 4903TIP3    H136124   1.159   5.202  13.340
 4903TIP3    H236125   1.248   5.214  13.457
 4904TIP3   OH236126   1.820   4.402  12.203
 4904TIP3    H136127   1.761   4.374  12.131
 4904TIP3    H236128   1.826   4.497  12.179
 4905TIP3   OH236129   1.817   4.989  13.483
 4905TIP3    H136130   1.728   5.011  13.447
 4905TIP3    H236131   1.872   4.984  13.402
 4906TIP3   OH236132   1.644   5.285  12.241
 4906TIP3    H136133   1.611   5.202  12.277
 4906TIP3    H236134   1.681   5.263  12.154
 4907TIP3   OH236135   1.368   4.767  12.953
 4907TIP3    H136136   1.274   4.746  12.942
 4907TIP3    H236137   1.411   4.691  12.909
 4908TIP3   OH236138   0.618   5.199  12.563
 4908TIP3    H136139   0.670   5.279  12.546
 4908TIP3    H236140   0.529   5.222  12.533
 4909TIP3   OH236141   0.192   4.684  12.024
 4909TIP3    H136142   0.256   4.750  12.059
 4909TIP3    H236143   0.106   4.720  12.050
 4910TIP3   OH236144   0.762   4.966  12.514
 4910TIP3    H136145   0.730   5.057  12.525
 4910TIP3    H236146   0.690   4.916  12.559
 4911TIP3   OH236147   0.808   5.383  13.154
 4911TIP3    H136148   0.850   5.467  13.128
 4911TIP3    H236149   0.868   5.352  13.225
 4912TIP3   OH236150   0.628   5.468  12.472
 4912TIP3    H136151   0.532   5.471  12.497
 4912TIP3    H236152   0.665   5.544  12.521
 4913TIP3   OH236153   1.158   4.984  13.117
 4913TIP3    H136154   1.127   4.966  13.208
 4913TIP3    H236155   1.223   4.914  13.101
 4914TIP3   OH236156   1.394   5.091  12.025
 4914TIP3    H136157   1.423   5.045  12.107
 4914TIP3    H236158   1.298   5.074  12.034
 4915TIP3   OH236159   1.441   5.443  13.366
 4915TIP3    H136160   1.372   5.394  13.319
 4915TIP3    H236161   1.459   5.513  13.300
 4916TIP3   OH236162   1.839   5.528  12.052
 4916TIP3    H136163   1.908   5.594  12.031
 4916TIP3    H236164   1.768   5.589  12.081
 4917TIP3   OH236165   0.247   4.169  13.302
 4917TIP3    H136166   0.158   4.206  13.311
 4917TIP3    H236167   0.236   4.085  13.350
 4918TIP3   OH236168   1.471   4.956  12.251
 4918TIP3    H136169   1.447   4.877  12.304
 4918TIP3    H236170   1.566   4.960  12.268
 4919TIP3   OH236171   0.223   5.349  13.143
 4919TIP3    H136172   0.239   5.255  13.152
 4919TIP3    H236173   0.235   5.380  13.234
 4920TIP3   OH236174   0.805   5.199  11.876
 4920TIP3    H136175   0.816   5.123  11.817
 4920TIP3    H236176   0.762   5.154  11.952
 4921TIP3   OH236177   0.680   5.151  12.122
 4921TIP3    H136178   0.711   5.098  12.197
 4921TIP3    H236179   0.694   5.243  12.153
 4922TIP3   OH236180   0.332   4.877  12.169
 4922TIP3    H136181   0.261   4.916  12.224
 4922TIP3    H236182   0.385   4.955  12.142
 4923TIP3   OH236183   1.120   4.146  13.202
 4923TIP3    H136184   1.191   4.152  13.266
 4923TIP3    H236185   1.082   4.058  13.222
 4924TIP3   OH236186   1.194   4.103  12.311
 4924TIP3    H136187   1.218   4.149  12.228
 4924TIP3    H236188   1.252   4.147  12.374
 4925TIP3   OH236189   0.962   5.313  12.193
 4925TIP3    H136190   0.884   5.370  12.197
 4925TIP3    H236191   1.019   5.371  12.136
 4926TIP3   OH236192   0.918   4.278  12.392
 4926TIP3    H136193   0.996   4.336  12.397
 4926TIP3    H236194   0.891   4.265  12.485
 4927TIP3   OH236195   0.973   4.380  13.312
 4927TIP3    H136196   0.980   4.436  13.391
 4927TIP3    H236197   1.039   4.311  13.321
 4928TIP3   OH236198   1.002   3.983  12.480
 4928TIP3    H136199   0.970   4.048  12.546
 4928TIP3    H236200   1.072   4.038  12.436
 4929TIP3   OH236201   0.702   5.415  12.184
 4929TIP3    H136202   0.724   5.496  12.131
 4929TIP3    H236203   0.700   5.436  12.278
 4930TIP3   OH236204   0.569   4.094  12.151
 4930TIP3    H136205   0.563   4.184  12.190
 4930TIP3    H236206   0.660   4.070  12.178
 4931TIP3   OH236207   1.591   4.167  13.396
 4931TIP3    H136208   1.498   4.199  13.383
 4931TIP3    H236209   1.621   4.166  13.304
 4932TIP3   OH236210   1.452   4.546  12.797
 4932TIP3    H136211   1.370   4.501  12.769
 4932TIP3    H236212   1.500   4.477  12.848
 4933TIP3   OH236213   0.390   5.140  12.055
 4933TIP3    H136214   0.458   5.201  12.086
 4933TIP3    H236215   0.443   5.091  11.988
 4934TIP3   OH236216   0.221   4.404  11.969
 4934TIP3    H136217   0.228   4.500  11.989
 4934TIP3    H236218   0.133   4.387  11.935
 4935TIP3   OH236219   1.559   5.472  12.964
 4935TIP3    H136220   1.549   5.540  12.895
 4935TIP3    H236221   1.655   5.477  12.981
 4936TIP3   OH236222   0.310   3.883  12.843
 4936TIP3    H136223   0.288   3.886  12.747
 4936TIP3    H236224   0.266   3.800  12.869
 4937TIP3   OH236225   0.207   5.280  12.463
 4937TIP3    H136226   0.118   5.318  12.456
 4937TIP3    H236227   0.250   5.323  12.388
 4938TIP3   OH236228   0.154   5.544  13.586
 4938TIP3    H136229   0.197   5.521  13.670
 4938TIP3    H236230   0.103   5.463  13.569
 4939TIP3   OH236231   0.594   5.431  13.749
 4939TIP3    H136232   0.670   5.381  13.781
 4939TIP3    H236233   0.590   5.406  13.654
 4940TIP3   OH236234   1.005   5.382  11.886
 4940TIP3    H136235   0.937   5.317  11.910
 4940TIP3    H236236   1.079   5.324  11.864
 4941TIP3   OH236237   1.242   5.272  13.623
 4941TIP3    H136238   1.211   5.183  13.651
 4941TIP3    H236239   1.319   5.284  13.682
 4942TIP3   OH236240   1.462   5.357  11.906
 4942TIP3    H136241   1.491   5.281  11.958
 4942TIP3    H236242   1.538   5.381  11.852
 4943TIP3   OH236243   0.111   4.919  13.686
 4943TIP3    H136244   0.133   4.830  13.654
 4943TIP3    H236245   0.040   4.946  13.628
 4944TIP3   OH236246   0.550   4.953  11.889
 4944TIP3    H136247   0.563   4.877  11.947
 4944TIP3    H236248   0.625   4.942  11.828
 4945TIP3   OH236249   0.786   4.917  13.626
 4945TIP3    H136250   0.753   4.949  13.539
 4945TIP3    H236251   0.794   4.819  13.615
 4946TIP3   OH236252   1.093   5.064  11.867
 4946TIP3    H136253   1.066   5.072  11.960
 4946TIP3    H236254   1.074   4.968  11.852
 4947TIP3   OH236255   1.356   4.903  13.365
 4947TIP3    H136256   1.435   4.962  13.359
 4947TIP3    H236257   1.286   4.970  13.368
 4948TIP3   OH236258   0.200   4.640  13.624
 4948TIP3    H136259   0.249   4.556  13.616
 4948TIP3    H236260   0.183   4.641  13.720
 4949TIP3   OH236261   0.670   4.755  12.132
 4949TIP3    H136262   0.620   4.701  12.195
 4949TIP3    H236263   0.700   4.688  12.067
 4950TIP3   OH236264   0.596   4.535  13.361
 4950TIP3    H136265   0.536   4.607  13.387
 4950TIP3    H236266   0.636   4.573  13.280
 4951TIP3   OH236267   0.777   4.577  11.952
 4951TIP3    H136268   0.762   4.568  11.856
 4951TIP3    H236269   0.875   4.582  11.958
 4952TIP3   OH236270   1.104   4.793  13.694
 4952TIP3    H136271   1.200   4.791  13.682
 4952TIP3    H236272   1.087   4.716  13.751
 4953TIP3   OH236273   1.716   4.810  11.891
 4953TIP3    H136274   1.686   4.773  11.807
 4953TIP3    H236275   1.718   4.907  11.876
 4954TIP3   OH236276   0.640   4.274  13.466
 4954TIP3    H136277   0.649   4.203  13.400
 4954TIP3    H236278   0.631   4.355  13.412
 4955TIP3   OH236279   0.678   4.112  13.222
 4955TIP3    H136280   0.729   4.158  13.151
 4955TIP3    H236281   0.589   4.104  13.181
 4956TIP3   OH236282   0.831   4.661  13.246
 4956TIP3    H136283   0.907   4.644  13.189
 4956TIP3    H236284   0.795   4.744  13.212
 4957TIP3   OH236285   1.271   4.436  13.742
 4957TIP3    H136286   1.295   4.342  13.733
 4957TIP3    H236287   1.357   4.480  13.745
 4958TIP3   OH236288   1.405   4.715  13.559
 4958TIP3    H136289   1.380   4.787  13.497
 4958TIP3    H236290   1.501   4.712  13.540
 4959TIP3   OH236291   0.481   4.400  13.657
 4959TIP3    H136292   0.405   4.340  13.642
 4959TIP3    H236293   0.547   4.362  13.597
 4960TIP3   OH236294   0.756   3.855  13.260
 4960TIP3    H136295   0.738   3.952  13.251
 4960TIP3    H236296   0.682   3.819  13.210
 4961TIP3   OH236297   0.884   4.288  13.623
 4961TIP3    H136298   0.852   4.265  13.713
 4961TIP3    H236299   0.806   4.268  13.569
 4962TIP3   OH236300   1.156   4.203  13.532
 4962TIP3    H136301   1.059   4.208  13.543
 4962TIP3    H236302   1.182   4.139  13.601
 4963TIP3   OH236303   1.314   4.065  13.722
 4963TIP3    H136304   1.309   3.967  13.725
 4963TIP3    H236305   1.289   4.094  13.812
 4964TIP3   OH236306   0.306   4.190  13.637
 4964TIP3    H136307   0.316   4.116  13.574
 4964TIP3    H236308   0.285   4.144  13.721
 4965TIP3   OH236309   0.778   3.795  13.531
 4965TIP3    H136310   0.846   3.724  13.529
 4965TIP3    H236311   0.767   3.809  13.435
 4966TIP3   OH236312   0.814   3.956  13.742
 4966TIP3    H136313   0.797   3.905  13.659
 4966TIP3    H236314   0.754   4.032  13.732
 4967TIP3   OH236315   0.759   5.650  12.068
 4967TIP3    H136316   0.857   5.658  12.061
 4967TIP3    H236317   0.745   5.703  11.986
 4968TIP3   OH236318   0.120   5.105  12.008
 4968TIP3    H136319   0.216   5.116  12.025
 4968TIP3    H236320   0.125   5.041  11.935
 4969TIP3   OH236321   7.338   5.660  12.487
 4969TIP3    H136322   7.247   5.639  12.456
 4969TIP3    H236323   7.347   5.596  12.562
 4970TIP3   OH236324   0.078   5.460  12.684
 4970TIP3    H136325   0.043   5.371  12.708
 4970TIP3    H236326   0.102   5.488  12.774
 4971TIP3   OH236327   1.830   5.536  12.984
 4971TIP3    H136328   1.834   5.552  13.080
 4971TIP3    H236329   1.901   5.595  12.953
 4972TIP3   OH236330   1.788   5.496  13.278
 4972TIP3    H136331   1.741   5.419  13.240
 4972TIP3    H236332   1.836   5.451  13.349
 4973TIP3   OH236333   1.632   5.068  13.746
 4973TIP3    H136334   1.542   5.065  13.782
 4973TIP3    H236335   1.669   5.149  13.787
 4974TIP3   OH236336   1.760   4.900  12.289
 4974TIP3    H136337   1.849   4.941  12.306
 4974TIP3    H236338   1.762   4.830  12.356
 4975TIP3   OH236339   1.798   4.708  12.477
 4975TIP3    H136340   1.725   4.658  12.518
 4975TIP3    H236341   1.861   4.723  12.551
 4976TIP3   OH236342   1.775   4.978  12.976
 4976TIP3    H136343   1.857   4.940  12.938
 4976TIP3    H236344   1.790   5.074  12.959
 4977TIP3   OH236345   1.631   5.269  13.202
 4977TIP3    H136346   1.562   5.303  13.261
 4977TIP3    H236347   1.577   5.228  13.132
 4978TIP3   OH236348   1.829   4.688  12.116
 4978TIP3    H136349   1.773   4.726  12.045
 4978TIP3    H236350   1.824   4.760  12.182
 4979TIP3   OH236351   1.668   4.413  11.968
 4979TIP3    H136352   1.674   4.480  11.898
 4979TIP3    H236353   1.648   4.331  11.919
 4980TIP3   OH236354   1.582   4.556  12.534
 4980TIP3    H136355   1.567   4.460  12.530
 4980TIP3    H236356   1.549   4.577  12.623
 4981TIP3   OH236357   0.084   4.763  12.932
 4981TIP3    H136358   0.104   4.759  12.836
 4981TIP3    H236359   0.172   4.752  12.974
 4982TIP3   OH236360   1.668   4.753  13.503
 4982TIP3    H136361   1.729   4.677  13.516
 4982TIP3    H236362   1.728   4.830  13.503
 4983TIP3   OH236363   1.818   4.541  13.568
 4983TIP3    H136364   1.730   4.501  13.553
 4983TIP3    H236365   1.875   4.462  13.560
 4984TIP3   OH236366   1.592   4.161  11.881
 4984TIP3    H136367   1.651   4.117  11.946
 4984TIP3    H236368   1.505   4.119  11.897
 4985TIP3   OH236369   1.546   4.314  12.375
 4985TIP3    H136370   1.578   4.222  12.392
 4985TIP3    H236371   1.629   4.355  12.345
 4986TIP3   OH236372   1.612   4.369  12.924
 4986TIP3    H136373   1.709   4.392  12.923
 4986TIP3    H236374   1.594   4.383  13.018
 4987TIP3   OH236375   1.619   4.441  13.203
 4987TIP3    H136376   1.531   4.470  13.234
 4987TIP3    H236377   1.663   4.527  13.180
 4988TIP3   OH236378   0.071   4.282  13.553
 4988TIP3    H136379   0.160   4.263  13.587
 4988TIP3    H236380   0.014   4.213  13.595
 4989TIP3   OH236381   1.846   3.847  13.736
 4989TIP3    H136382   1.882   3.781  13.674
 4989TIP3    H236383   1.857   3.929  13.683
 4990TIP3   OH236384   1.616   4.043  12.385
 4990TIP3    H136385   1.637   3.999  12.470
 4990TIP3    H236386   1.556   3.979  12.341
 4991TIP3   OH236387   0.168   4.119  12.836
 4991TIP3    H136388   0.214   4.040  12.869
 4991TIP3    H236389   0.218   4.190  12.881
 4992TIP3   OH236390   0.050   4.499  12.980
 4992TIP3    H136391   0.054   4.456  12.892
 4992TIP3    H236392   0.058   4.591  12.952
 4993TIP3   OH236393   1.798   4.057  13.572
 4993TIP3    H136394   1.705   4.084  13.567
 4993TIP3    H236395   1.802   4.002  13.492
 4994TIP3   OH236396   1.798   4.044  12.042
 4994TIP3    H136397   1.839   3.974  11.986
 4994TIP3    H236398   1.867   4.112  12.045
 4995TIP3   OH236399   0.076   4.045  12.308
 4995TIP3    H136400  -0.019   4.064  12.321
 4995TIP3    H236401   0.098   4.121  12.250
 4996TIP3   OH236402   1.503   5.544  12.547
 4996TIP3    H136403   1.571   5.515  12.484
 4996TIP3    H236404   1.554   5.595  12.612
 4997TIP3   OH236405   7.355   3.912  13.202
 4997TIP3    H136406   7.276   3.891  13.255
 4997TIP3    H236407   7.307   3.963  13.135
 4998TIP3   OH236408   0.244   5.238  13.598
 4998TIP3    H136409   0.160   5.255  13.555
 4998TIP3    H236410   0.219   5.227  13.690
 4999TIP3   OH236411   0.541   5.338  13.229
 4999TIP3    H136412   0.501   5.421  13.197
 4999TIP3    H236413   0.631   5.348  13.193
 5000TIP3   OH236414   0.970   5.478  13.515
 5000TIP3    H136415   0.983   5.442  13.606
 5000TIP3    H236416   1.060   5.508  13.491
 5001TIP3   OH236417   1.198   5.605  13.447
 5001TIP3    H136418   1.272   5.546  13.422
 5001TIP3    H236419   1.236   5.649  13.526
 5002TIP3   OH236420   1.700   3.866  13.357
 5002TIP3    H136421   1.617   3.896  13.316
 5002TIP3    H236422   1.717   3.784  13.306
 5003TIP3   OH236423   0.241   5.622  13.219
 5003TIP3    H136424   0.206   5.709  13.189
 5003TIP3    H236425   0.253   5.643  13.313
 5004TIP3   OH236426   0.515   5.583  13.089
 5004TIP3    H136427   0.455   5.612  13.161
 5004TIP3    H236428   0.529   5.672  13.050
 5005TIP3   OH236429   0.998   5.609  13.047
 5005TIP3    H136430   0.949   5.665  12.985
 5005TIP3    H236431   1.009   5.671  13.123
 5006TIP3   OH236432   1.226   5.489  13.152
 5006TIP3    H136433   1.141   5.517  13.114
 5006TIP3    H236434   1.274   5.573  13.143
 5007TIP3   OH236435   1.485   5.646  13.174
 5007TIP3    H136436   1.479   5.742  13.151
 5007TIP3    H236437   1.506   5.609  13.086
 5008TIP3   OH236438   0.218   5.521  12.914
 5008TIP3    H136439   0.221   5.486  13.005
 5008TIP3    H236440   0.304   5.488  12.881
 5009TIP3   OH236441   0.434   5.396  12.780
 5009TIP3    H136442   0.415   5.304  12.807
 5009TIP3    H236443   0.517   5.411  12.831
 5010TIP3   OH236444   0.695   5.443  12.869
 5010TIP3    H136445   0.710   5.349  12.846
 5010TIP3    H236446   0.696   5.441  12.966
 5011TIP3   OH236447   1.039   4.009  12.786
 5011TIP3    H136448   0.972   3.945  12.814
 5011TIP3    H236449   1.095   3.955  12.727
 5012TIP3   OH236450   1.553   3.813  12.792
 5012TIP3    H136451   1.614   3.873  12.741
 5012TIP3    H236452   1.465   3.850  12.769
 5013TIP3   OH236453   1.720   3.938  12.620
 5013TIP3    H136454   1.789   3.881  12.578
 5013TIP3    H236455   1.771   4.022  12.630
 5014TIP3   OH236456   0.277   3.870  12.573
 5014TIP3    H136457   0.199   3.850  12.517
 5014TIP3    H236458   0.326   3.786  12.563
 5015TIP3   OH236459   0.155   3.844  12.138
 5015TIP3    H136460   0.206   3.911  12.090
 5015TIP3    H236461   0.099   3.901  12.194
 5016TIP3   OH236462   0.723   3.864  12.549
 5016TIP3    H136463   0.814   3.900  12.541
 5016TIP3    H236464   0.720   3.842  12.642
 5017TIP3   OH236465   1.295   3.866  12.711
 5017TIP3    H136466   1.290   3.877  12.616
 5017TIP3    H236467   1.257   3.775  12.724
 5018TIP3   OH236468   1.422   3.869  12.280
 5018TIP3    H136469   1.347   3.928  12.264
 5018TIP3    H236470   1.378   3.783  12.303
 5019TIP3   OH236471   0.149   5.447  12.246
 5019TIP3    H136472   0.085   5.441  12.174
 5019TIP3    H236473   0.144   5.542  12.262
 5020TIP3   OH236474   0.335   4.041  11.997
 5020TIP3    H136475   0.388   3.981  11.941
 5020TIP3    H236476   0.405   4.072  12.057
 5021TIP3   OH236477   0.839   4.065  12.234
 5021TIP3    H136478   0.864   4.007  12.308
 5021TIP3    H236479   0.846   4.152  12.280
 5022TIP3   OH236480   1.042   5.542  12.097
 5022TIP3    H136481   1.114   5.599  12.061
 5022TIP3    H236482   1.009   5.524  12.005
 5023TIP3   OH236483   1.702   5.522  12.350
 5023TIP3    H136484   1.683   5.444  12.293
 5023TIP3    H236485   1.695   5.596  12.286
 5024TIP3   OH236486   0.259   3.927  13.520
 5024TIP3    H136487   0.226   3.842  13.554
 5024TIP3    H236488   0.352   3.921  13.553
 5025TIP3   OH236489   0.465   3.863  13.679
 5025TIP3    H136490   0.555   3.829  13.658
 5025TIP3    H236491   0.426   3.783  13.719
 5026TIP3   OH236492   0.326   5.539  11.937
 5026TIP3    H136493   0.299   5.566  12.026
 5026TIP3    H236494   0.404   5.483  11.953
 5027TIP3   OH236495   1.305   3.792  13.695
 5027TIP3    H136496   1.315   3.745  13.780
 5027TIP3    H236497   1.397   3.789  13.660
 5028TIP3   OH236498   1.626   5.398  13.558
 5028TIP3    H136499   1.546   5.384  13.503
 5028TIP3    H236500   1.615   5.492  13.580
 5029TIP3   OH236501   3.071   4.785  12.555
 5029TIP3    H136502   3.069   4.883  12.553
 5029TIP3    H236503   2.998   4.763  12.496
 5030TIP3   OH236504   2.957   4.710  12.906
 5030TIP3    H136505   2.955   4.646  12.978
 5030TIP3    H236506   2.921   4.660  12.831
 5031TIP3   OH236507   2.192   4.678  13.060
 5031TIP3    H136508   2.200   4.610  13.130
 5031TIP3    H236509   2.267   4.736  13.083
 5032TIP3   OH236510   3.325   5.005  12.735
 5032TIP3    H136511   3.284   4.934  12.784
 5032TIP3    H236512   3.327   5.076  12.802
 5033TIP3   OH236513   2.284   5.123  12.915
 5033TIP3    H136514   2.253   5.038  12.878
 5033TIP3    H236515   2.380   5.104  12.914
 5034TIP3   OH236516   1.946   4.477  12.463
 5034TIP3    H136517   1.907   4.566  12.454
 5034TIP3    H236518   1.892   4.426  12.402
 5035TIP3   OH236519   2.019   4.701  12.674
 5035TIP3    H136520   2.050   4.620  12.718
 5035TIP3    H236521   2.088   4.718  12.606
 5036TIP3   OH236522   3.037   5.521  12.758
 5036TIP3    H136523   3.102   5.453  12.729
 5036TIP3    H236524   3.016   5.487  12.845
 5037TIP3   OH236525   2.794   4.950  12.953
 5037TIP3    H136526   2.828   4.888  12.887
 5037TIP3    H236527   2.875   4.966  13.005
 5038TIP3   OH236528   3.649   4.122  13.022
 5038TIP3    H136529   3.671   4.172  13.105
 5038TIP3    H236530   3.719   4.152  12.964
 5039TIP3   OH236531   3.111   4.398  12.985
 5039TIP3    H136532   3.126   4.302  12.986
 5039TIP3    H236533   3.100   4.411  12.889
 5040TIP3   OH236534   2.422   4.205  12.707
 5040TIP3    H136535   2.433   4.289  12.657
 5040TIP3    H236536   2.382   4.149  12.637
 5041TIP3   OH236537   3.196   4.215  12.544
 5041TIP3    H136538   3.261   4.182  12.610
 5041TIP3    H236539   3.251   4.272  12.489
 5042TIP3   OH236540   2.083   4.445  12.781
 5042TIP3    H136541   2.151   4.391  12.826
 5042TIP3    H236542   2.096   4.418  12.689
 5043TIP3   OH236543   2.602   4.602  12.713
 5043TIP3    H136544   2.669   4.543  12.752
 5043TIP3    H236545   2.549   4.539  12.661
 5044TIP3   OH236546   3.697   4.257  13.252
 5044TIP3    H136547   3.637   4.335  13.245
 5044TIP3    H236548   3.702   4.248  13.348
 5045TIP3   OH236549   2.313   4.096  13.110
 5045TIP3    H136550   2.285   4.154  13.036
 5045TIP3    H236551   2.245   4.119  13.178
 5046TIP3   OH236552   3.042   5.044  12.464
 5046TIP3    H136553   3.015   5.017  12.376
 5046TIP3    H236554   3.011   5.137  12.470
 5047TIP3   OH236555   2.564   4.861  13.134
 5047TIP3    H136556   2.494   4.925  13.156
 5047TIP3    H236557   2.635   4.921  13.105
 5048TIP3   OH236558   3.380   4.149  12.742
 5048TIP3    H136559   3.351   4.072  12.793
 5048TIP3    H236560   3.441   4.191  12.804
 5049TIP3   OH236561   2.270   4.282  12.914
 5049TIP3    H136562   2.333   4.351  12.945
 5049TIP3    H236563   2.321   4.241  12.840
 5050TIP3   OH236564   2.409   5.061  13.216
 5050TIP3    H136565   2.404   5.152  13.182
 5050TIP3    H236566   2.321   5.053  13.260
 5051TIP3   OH236567   1.987   5.034  12.289
 5051TIP3    H136568   1.996   5.063  12.198
 5051TIP3    H236569   2.028   5.104  12.344
 5052TIP3   OH236570   3.378   5.189  12.971
 5052TIP3    H136571   3.281   5.201  12.983
 5052TIP3    H236572   3.405   5.281  12.951
 5053TIP3   OH236573   3.409   4.018  13.110
 5053TIP3    H136574   3.335   4.080  13.102
 5053TIP3    H236575   3.480   4.060  13.058
 5054TIP3   OH236576   2.705   3.830  12.855
 5054TIP3    H136577   2.694   3.733  12.850
 5054TIP3    H236578   2.618   3.859  12.888
 5055TIP3   OH236579   3.205   5.367  12.632
 5055TIP3    H136580   3.247   5.296  12.578
 5055TIP3    H236581   3.245   5.447  12.591
 5056TIP3   OH236582   3.325   5.160  12.482
 5056TIP3    H136583   3.295   5.091  12.422
 5056TIP3    H236584   3.328   5.111  12.566
 5057TIP3   OH236585   3.486   5.020  13.332
 5057TIP3    H136586   3.501   4.955  13.259
 5057TIP3    H236587   3.507   5.105  13.288
 5058TIP3   OH236588   2.938   4.709  12.308
 5058TIP3    H136589   2.868   4.766  12.271
 5058TIP3    H236590   3.008   4.718  12.241
 5059TIP3   OH236591   2.945   4.566  12.008
 5059TIP3    H136592   3.015   4.564  12.075
 5059TIP3    H236593   2.975   4.494  11.952
 5060TIP3   OH236594   3.671   4.649  13.130
 5060TIP3    H136595   3.610   4.724  13.141
 5060TIP3    H236596   3.727   4.680  13.056
 5061TIP3   OH236597   3.282   4.730  12.400
 5061TIP3    H136598   3.207   4.754  12.459
 5061TIP3    H236599   3.328   4.662  12.452
 5062TIP3   OH236600   3.274   4.546  13.312
 5062TIP3    H136601   3.275   4.629  13.364
 5062TIP3    H236602   3.212   4.575  13.243
 5063TIP3   OH236603   2.449   4.795  12.595
 5063TIP3    H136604   2.407   4.763  12.512
 5063TIP3    H236605   2.506   4.722  12.625
 5064TIP3   OH236606   2.574   5.134  12.859
 5064TIP3    H136607   2.572   5.081  12.777
 5064TIP3    H236608   2.652   5.098  12.905
 5065TIP3   OH236609   2.475   4.670  12.958
 5065TIP3    H136610   2.530   4.681  12.877
 5065TIP3    H236611   2.514   4.737  13.019
 5066TIP3   OH236612   3.117   5.228  13.028
 5066TIP3    H136613   3.088   5.291  13.094
 5066TIP3    H236614   3.092   5.143  13.071
 5067TIP3   OH236615   2.571   5.114  13.427
 5067TIP3    H136616   2.529   5.188  13.476
 5067TIP3    H236617   2.503   5.094  13.357
 5068TIP3   OH236618   3.169   4.650  12.166
 5068TIP3    H136619   3.225   4.668  12.246
 5068TIP3    H236620   3.214   4.700  12.094
 5069TIP3   OH236621   2.265   4.730  13.342
 5069TIP3    H136622   2.270   4.796  13.413
 5069TIP3    H236623   2.171   4.738  13.321
 5070TIP3   OH236624   2.938   5.321  12.515
 5070TIP3    H136625   2.984   5.355  12.593
 5070TIP3    H236626   2.884   5.397  12.489
 5071TIP3   OH236627   2.395   5.317  13.502
 5071TIP3    H136628   2.389   5.307  13.405
 5071TIP3    H236629   2.302   5.304  13.529
 5072TIP3   OH236630   3.541   3.823  12.157
 5072TIP3    H136631   3.447   3.835  12.181
 5072TIP3    H236632   3.562   3.907  12.112
 5073TIP3   OH236633   2.365   4.665  12.320
 5073TIP3    H136634   2.335   4.759  12.314
 5073TIP3    H236635   2.279   4.627  12.337
 5074TIP3   OH236636   3.652   5.259  11.992
 5074TIP3    H136637   3.668   5.354  12.009
 5074TIP3    H236638   3.745   5.228  11.991
 5075TIP3   OH236639   1.948   4.941  13.243
 5075TIP3    H136640   1.904   4.933  13.157
 5075TIP3    H236641   1.956   4.846  13.264
 5076TIP3   OH236642   1.924   5.215  12.920
 5076TIP3    H136643   2.020   5.203  12.919
 5076TIP3    H236644   1.916   5.296  12.971
 5077TIP3   OH236645   3.748   5.285  13.490
 5077TIP3    H136646   3.736   5.189  13.487
 5077TIP3    H236647   3.661   5.310  13.528
 5078TIP3   OH236648   2.844   5.239  13.376
 5078TIP3    H136649   2.850   5.323  13.426
 5078TIP3    H236650   2.757   5.203  13.401
 5079TIP3   OH236651   2.874   5.609  12.355
 5079TIP3    H136652   2.880   5.606  12.258
 5079TIP3    H236653   2.897   5.704  12.370
 5080TIP3   OH236654   2.252   5.501  12.537
 5080TIP3    H136655   2.267   5.461  12.625
 5080TIP3    H236656   2.168   5.458  12.513
 5081TIP3   OH236657   3.194   5.535  12.052
 5081TIP3    H136658   3.240   5.459  12.010
 5081TIP3    H236659   3.198   5.509  12.146
 5082TIP3   OH236660   3.165   5.518  12.325
 5082TIP3    H136661   3.072   5.541  12.348
 5082TIP3    H236662   3.186   5.452  12.392
 5083TIP3   OH236663   3.463   4.432  13.537
 5083TIP3    H136664   3.415   4.477  13.465
 5083TIP3    H236665   3.461   4.340  13.507
 5084TIP3   OH236666   2.177   5.073  13.337
 5084TIP3    H136667   2.199   5.036  13.425
 5084TIP3    H236668   2.090   5.033  13.316
 5085TIP3   OH236669   2.445   3.920  12.932
 5085TIP3    H136670   2.355   3.907  12.895
 5085TIP3    H236671   2.432   4.003  12.980
 5086TIP3   OH236672   2.909   3.887  13.268
 5086TIP3    H136673   2.948   3.844  13.347
 5086TIP3    H236674   2.812   3.875  13.283
 5087TIP3   OH236675   3.238   4.271  13.357
 5087TIP3    H136676   3.182   4.250  13.436
 5087TIP3    H236677   3.220   4.364  13.335
 5088TIP3   OH236678   3.314   4.753  11.948
 5088TIP3    H136679   3.312   4.734  11.851
 5088TIP3    H236680   3.400   4.798  11.953
 5089TIP3   OH236681   2.873   4.146  11.999
 5089TIP3    H136682   2.842   4.139  12.091
 5089TIP3    H236683   2.843   4.058  11.968
 5090TIP3   OH236684   2.456   4.418  13.059
 5090TIP3    H136685   2.381   4.417  13.121
 5090TIP3    H236686   2.450   4.508  13.020
 5091TIP3   OH236687   2.452   4.424  12.545
 5091TIP3    H136688   2.358   4.406  12.530
 5091TIP3    H236689   2.488   4.402  12.457
 5092TIP3   OH236690   3.003   4.480  12.421
 5092TIP3    H136691   2.963   4.562  12.384
 5092TIP3    H236692   3.072   4.463  12.355
 5093TIP3   OH236693   2.909   4.500  13.564
 5093TIP3    H136694   2.856   4.423  13.595
 5093TIP3    H236695   2.992   4.488  13.612
 5094TIP3   OH236696   3.106   4.429  12.705
 5094TIP3    H136697   3.078   4.485  12.631
 5094TIP3    H236698   3.115   4.344  12.658
 5095TIP3   OH236699   2.217   4.442  13.225
 5095TIP3    H136700   2.226   4.483  13.313
 5095TIP3    H236701   2.173   4.359  13.246
 5096TIP3   OH236702   2.554   4.182  11.911
 5096TIP3    H136703   2.509   4.140  11.986
 5096TIP3    H236704   2.483   4.225  11.861
 5097TIP3   OH236705   1.883   4.153  12.624
 5097TIP3    H136706   1.952   4.150  12.694
 5097TIP3    H236707   1.928   4.116  12.546
 5098TIP3   OH236708   2.009   4.223  12.159
 5098TIP3    H136709   2.062   4.283  12.105
 5098TIP3    H236710   1.941   4.286  12.191
 5099TIP3   OH236711   3.026   4.587  13.160
 5099TIP3    H136712   3.064   4.518  13.102
 5099TIP3    H236713   2.980   4.534  13.228
 5100TIP3   OH236714   2.706   4.185  12.644
 5100TIP3    H136715   2.613   4.185  12.674
 5100TIP3    H236716   2.755   4.167  12.726
 5101TIP3   OH236717   2.187   4.338  12.533
 5101TIP3    H136718   2.100   4.357  12.491
 5101TIP3    H236719   2.216   4.256  12.490
 5102TIP3   OH236720   2.552   4.344  12.293
 5102TIP3    H136721   2.647   4.356  12.309
 5102TIP3    H236722   2.527   4.414  12.229
 5103TIP3   OH236723   3.147   4.108  12.968
 5103TIP3    H136724   3.079   4.113  13.039
 5103TIP3    H236725   3.096   4.082  12.890
 5104TIP3   OH236726   2.424   4.459  12.052
 5104TIP3    H136727   2.370   4.423  11.980
 5104TIP3    H236728   2.505   4.482  12.004
 5105TIP3   OH236729   3.467   5.672  13.601
 5105TIP3    H136730   3.494   5.711  13.515
 5105TIP3    H236731   3.540   5.704  13.657
 5106TIP3   OH236732   2.235   4.919  13.558
 5106TIP3    H136733   2.307   4.944  13.618
 5106TIP3    H236734   2.158   4.927  13.618
 5107TIP3   OH236735   2.835   4.460  12.833
 5107TIP3    H136736   2.895   4.407  12.780
 5107TIP3    H236737   2.820   4.405  12.912
 5108TIP3   OH236738   2.336   4.075  12.477
 5108TIP3    H136739   2.305   3.982  12.476
 5108TIP3    H236740   2.415   4.068  12.422
 5109TIP3   OH236741   2.699   4.293  13.076
 5109TIP3    H136742   2.616   4.345  13.084
 5109TIP3    H236743   2.754   4.329  13.147
 5110TIP3   OH236744   2.758   4.915  12.245
 5110TIP3    H136745   2.677   4.869  12.211
 5110TIP3    H236746   2.734   4.928  12.339
 5111TIP3   OH236747   3.476   4.836  13.125
 5111TIP3    H136748   3.532   4.884  13.062
 5111TIP3    H236749   3.390   4.840  13.078
 5112TIP3   OH236750   3.140   4.197  12.062
 5112TIP3    H136751   3.045   4.212  12.049
 5112TIP3    H236752   3.174   4.282  12.097
 5113TIP3   OH236753   2.907   4.942  13.369
 5113TIP3    H136754   2.872   4.899  13.448
 5113TIP3    H236755   2.881   5.034  13.380
 5114TIP3   OH236756   3.214   4.389  12.225
 5114TIP3    H136757   3.303   4.375  12.266
 5114TIP3    H236758   3.225   4.471  12.173
 5115TIP3   OH236759   2.271   4.855  12.828
 5115TIP3    H136760   2.334   4.847  12.754
 5115TIP3    H236761   2.274   4.767  12.868
 5116TIP3   OH236762   2.967   5.062  12.148
 5116TIP3    H136763   2.933   5.147  12.183
 5116TIP3    H236764   2.894   5.000  12.170
 5117TIP3   OH236765   1.968   4.695  13.351
 5117TIP3    H136766   1.985   4.650  13.436
 5117TIP3    H236767   1.905   4.634  13.307
 5118TIP3   OH236768   2.669   4.651  13.568
 5118TIP3    H136769   2.637   4.620  13.482
 5118TIP3    H236770   2.761   4.619  13.568
 5119TIP3   OH236771   3.137   5.185  13.364
 5119TIP3    H136772   3.045   5.202  13.340
 5119TIP3    H236773   3.134   5.214  13.457
 5120TIP3   OH236774   3.705   4.402  12.203
 5120TIP3    H136775   3.648   4.374  12.129
 5120TIP3    H236776   3.712   4.497  12.178
 5121TIP3   OH236777   3.703   4.989  13.483
 5121TIP3    H136778   3.614   5.011  13.447
 5121TIP3    H236779   3.757   4.984  13.402
 5122TIP3   OH236780   3.529   5.286  12.242
 5122TIP3    H136781   3.496   5.202  12.277
 5122TIP3    H236782   3.565   5.264  12.154
 5123TIP3   OH236783   3.254   4.768  12.954
 5123TIP3    H136784   3.159   4.747  12.942
 5123TIP3    H236785   3.296   4.692  12.909
 5124TIP3   OH236786   2.504   5.198  12.562
 5124TIP3    H136787   2.553   5.279  12.541
 5124TIP3    H236788   2.416   5.219  12.529
 5125TIP3   OH236789   2.079   4.683  12.015
 5125TIP3    H136790   2.139   4.748  12.059
 5125TIP3    H236791   1.994   4.715  12.050
 5126TIP3   OH236792   2.650   4.967  12.517
 5126TIP3    H136793   2.614   5.058  12.523
 5126TIP3    H236794   2.575   4.917  12.557
 5127TIP3   OH236795   2.692   5.385  13.156
 5127TIP3    H136796   2.738   5.466  13.127
 5127TIP3    H236797   2.754   5.351  13.223
 5128TIP3   OH236798   2.515   5.465  12.467
 5128TIP3    H136799   2.419   5.481  12.481
 5128TIP3    H236800   2.552   5.549  12.502
 5129TIP3   OH236801   3.044   4.984  13.117
 5129TIP3    H136802   3.012   4.966  13.208
 5129TIP3    H236803   3.109   4.914  13.101
 5130TIP3   OH236804   3.279   5.093  12.026
 5130TIP3    H136805   3.308   5.045  12.107
 5130TIP3    H236806   3.183   5.074  12.035
 5131TIP3   OH236807   3.327   5.443  13.366
 5131TIP3    H136808   3.257   5.394  13.319
 5131TIP3    H236809   3.345   5.513  13.300
 5132TIP3   OH236810   3.725   5.528  12.052
 5132TIP3    H136811   3.794   5.594  12.031
 5132TIP3    H236812   3.653   5.589  12.081
 5133TIP3   OH236813   2.133   4.168  13.305
 5133TIP3    H136814   2.042   4.204  13.304
 5133TIP3    H236815   2.121   4.084  13.352
 5134TIP3   OH236816   3.356   4.955  12.251
 5134TIP3    H136817   3.332   4.877  12.304
 5134TIP3    H236818   3.451   4.960  12.269
 5135TIP3   OH236819   2.094   5.347  13.148
 5135TIP3    H136820   2.124   5.255  13.149
 5135TIP3    H236821   2.120   5.376  13.236
 5136TIP3   OH236822   2.691   5.200  11.876
 5136TIP3    H136823   2.701   5.123  11.817
 5136TIP3    H236824   2.647   5.157  11.952
 5137TIP3   OH236825   2.566   5.152  12.122
 5137TIP3    H136826   2.595   5.100  12.198
 5137TIP3    H236827   2.577   5.244  12.154
 5138TIP3   OH236828   2.210   4.886  12.127
 5138TIP3    H136829   2.163   4.903  12.213
 5138TIP3    H236830   2.279   4.953  12.137
 5139TIP3   OH236831   3.006   4.146  13.202
 5139TIP3    H136832   3.077   4.152  13.266
 5139TIP3    H236833   2.967   4.058  13.222
 5140TIP3   OH236834   3.080   4.102  12.311
 5140TIP3    H136835   3.103   4.149  12.228
 5140TIP3    H236836   3.138   4.147  12.374
 5141TIP3   OH236837   2.847   5.316  12.188
 5141TIP3    H136838   2.769   5.373  12.199
 5141TIP3    H236839   2.904   5.375  12.135
 5142TIP3   OH236840   2.806   4.275  12.393
 5142TIP3    H136841   2.882   4.336  12.397
 5142TIP3    H236842   2.775   4.266  12.485
 5143TIP3   OH236843   2.858   4.380  13.312
 5143TIP3    H136844   2.866   4.436  13.392
 5143TIP3    H236845   2.925   4.311  13.321
 5144TIP3   OH236846   2.888   3.983  12.480
 5144TIP3    H136847   2.856   4.048  12.545
 5144TIP3    H236848   2.957   4.038  12.436
 5145TIP3   OH236849   2.588   5.422  12.194
 5145TIP3    H136850   2.598   5.503  12.139
 5145TIP3    H236851   2.562   5.459  12.281
 5146TIP3   OH236852   2.454   4.094  12.152
 5146TIP3    H136853   2.449   4.184  12.190
 5146TIP3    H236854   2.545   4.070  12.178
 5147TIP3   OH236855   3.476   4.167  13.397
 5147TIP3    H136856   3.383   4.199  13.383
 5147TIP3    H236857   3.506   4.165  13.305
 5148TIP3   OH236858   3.339   4.544  12.796
 5148TIP3    H136859   3.254   4.503  12.770
 5148TIP3    H236860   3.382   4.476  12.851
 5149TIP3   OH236861   2.277   5.145  12.051
 5149TIP3    H136862   2.347   5.200  12.089
 5149TIP3    H236863   2.329   5.091  11.990
 5150TIP3   OH236864   2.113   4.409  11.961
 5150TIP3    H136865   2.114   4.501  11.996
 5150TIP3    H236866   2.021   4.388  11.945
 5151TIP3   OH236867   3.444   5.472  12.964
 5151TIP3    H136868   3.435   5.540  12.895
 5151TIP3    H236869   3.541   5.477  12.981
 5152TIP3   OH236870   2.193   3.884  12.845
 5152TIP3    H136871   2.174   3.886  12.749
 5152TIP3    H236872   2.152   3.799  12.870
 5153TIP3   OH236873   2.090   5.282  12.463
 5153TIP3    H136874   2.003   5.320  12.452
 5153TIP3    H236875   2.137   5.320  12.388
 5154TIP3   OH236876   2.009   5.541  13.587
 5154TIP3    H136877   2.070   5.521  13.661
 5154TIP3    H236878   1.969   5.455  13.569
 5155TIP3   OH236879   2.477   5.433  13.748
 5155TIP3    H136880   2.553   5.383  13.782
 5155TIP3    H236881   2.475   5.405  13.655
 5156TIP3   OH236882   2.891   5.385  11.888
 5156TIP3    H136883   2.822   5.319  11.911
 5156TIP3    H236884   2.963   5.325  11.864
 5157TIP3   OH236885   3.128   5.272  13.623
 5157TIP3    H136886   3.096   5.183  13.651
 5157TIP3    H236887   3.205   5.284  13.683
 5158TIP3   OH236888   3.347   5.359  11.907
 5158TIP3    H136889   3.376   5.282  11.958
 5158TIP3    H236890   3.423   5.382  11.852
 5159TIP3   OH236891   2.000   4.919  13.687
 5159TIP3    H136892   2.017   4.827  13.657
 5159TIP3    H236893   1.926   4.944  13.630
 5160TIP3   OH236894   2.435   4.955  11.888
 5160TIP3    H136895   2.446   4.878  11.947
 5160TIP3    H236896   2.511   4.940  11.828
 5161TIP3   OH236897   2.672   4.917  13.626
 5161TIP3    H136898   2.638   4.949  13.539
 5161TIP3    H236899   2.679   4.820  13.615
 5162TIP3   OH236900   2.978   5.064  11.867
 5162TIP3    H136901   2.951   5.072  11.960
 5162TIP3    H236902   2.959   4.968  11.852
 5163TIP3   OH236903   3.242   4.903  13.365
 5163TIP3    H136904   3.320   4.962  13.359
 5163TIP3    H236905   3.172   4.970  13.368
 5164TIP3   OH236906   2.093   4.641  13.625
 5164TIP3    H136907   2.134   4.555  13.616
 5164TIP3    H236908   2.069   4.642  13.719
 5165TIP3   OH236909   2.559   4.754  12.132
 5165TIP3    H136910   2.505   4.702  12.195
 5165TIP3    H236911   2.584   4.686  12.067
 5166TIP3   OH236912   2.482   4.536  13.360
 5166TIP3    H136913   2.423   4.608  13.386
 5166TIP3    H236914   2.522   4.572  13.280
 5167TIP3   OH236915   2.663   4.577  11.952
 5167TIP3    H136916   2.648   4.568  11.855
 5167TIP3    H236917   2.761   4.582  11.958
 5168TIP3   OH236918   2.990   4.793  13.694
 5168TIP3    H136919   3.085   4.791  13.682
 5168TIP3    H236920   2.973   4.716  13.751
 5169TIP3   OH236921   3.596   4.809  11.893
 5169TIP3    H136922   3.577   4.771  11.806
 5169TIP3    H236923   3.605   4.905  11.874
 5170TIP3   OH236924   2.523   4.273  13.466
 5170TIP3    H136925   2.535   4.203  13.400
 5170TIP3    H236926   2.518   4.354  13.411
 5171TIP3   OH236927   2.563   4.112  13.222
 5171TIP3    H136928   2.614   4.158  13.151
 5171TIP3    H236929   2.474   4.104  13.181
 5172TIP3   OH236930   2.717   4.661  13.246
 5172TIP3    H136931   2.792   4.644  13.189
 5172TIP3    H236932   2.681   4.744  13.212
 5173TIP3   OH236933   3.157   4.435  13.743
 5173TIP3    H136934   3.180   4.342  13.733
 5173TIP3    H236935   3.243   4.480  13.745
 5174TIP3   OH236936   3.291   4.715  13.559
 5174TIP3    H136937   3.266   4.787  13.497
 5174TIP3    H236938   3.386   4.712  13.540
 5175TIP3   OH236939   2.369   4.398  13.658
 5175TIP3    H136940   2.292   4.341  13.642
 5175TIP3    H236941   2.434   4.362  13.596
 5176TIP3   OH236942   2.642   3.855  13.261
 5176TIP3    H136943   2.624   3.952  13.251
 5176TIP3    H236944   2.567   3.818  13.211
 5177TIP3   OH236945   2.769   4.288  13.623
 5177TIP3    H136946   2.738   4.265  13.713
 5177TIP3    H236947   2.691   4.268  13.569
 5178TIP3   OH236948   3.041   4.203  13.532
 5178TIP3    H136949   2.945   4.208  13.543
 5178TIP3    H236950   3.068   4.138  13.601
 5179TIP3   OH236951   3.199   4.065  13.722
 5179TIP3    H136952   3.195   3.967  13.725
 5179TIP3    H236953   3.175   4.094  13.812
 5180TIP3   OH236954   2.177   4.192  13.634
 5180TIP3    H136955   2.202   4.119  13.575
 5180TIP3    H236956   2.168   4.147  13.720
 5181TIP3   OH236957   2.664   3.795  13.531
 5181TIP3    H136958   2.731   3.724  13.529
 5181TIP3    H236959   2.652   3.809  13.435
 5182TIP3   OH236960   2.700   3.956  13.742
 5182TIP3    H136961   2.682   3.905  13.659
 5182TIP3    H236962   2.640   4.032  13.732
 5183TIP3   OH236963   2.646   5.646  12.057
 5183TIP3    H136964   2.742   5.656  12.068
 5183TIP3    H236965   2.632   5.709  11.986
 5184TIP3   OH236966   2.001   5.110  12.003
 5184TIP3    H136967   2.097   5.114  12.026
 5184TIP3    H236968   2.008   5.041  11.935
 5185TIP3   OH236969   1.880   5.643  12.503
 5185TIP3    H136970   1.808   5.595  12.457
 5185TIP3    H236971   1.908   5.578  12.570
 5186TIP3   OH236972   1.962   5.457  12.691
 5186TIP3    H136973   1.927   5.369  12.710
 5186TIP3    H236974   1.985   5.490  12.779
 5187TIP3   OH236975   3.716   5.536  12.984
 5187TIP3    H136976   3.719   5.552  13.079
 5187TIP3    H236977   3.786   5.595  12.953
 5188TIP3   OH236978   3.673   5.496  13.278
 5188TIP3    H136979   3.626   5.419  13.240
 5188TIP3    H236980   3.722   5.451  13.349
 5189TIP3   OH236981   3.518   5.068  13.746
 5189TIP3    H136982   3.427   5.065  13.782
 5189TIP3    H236983   3.555   5.149  13.787
 5190TIP3   OH236984   3.649   4.901  12.288
 5190TIP3    H136985   3.736   4.940  12.307
 5190TIP3    H236986   3.648   4.829  12.355
 5191TIP3   OH236987   3.686   4.707  12.477
 5191TIP3    H136988   3.609   4.660  12.516
 5191TIP3    H236989   3.745   4.723  12.553
 5192TIP3   OH236990   3.661   4.978  12.976
 5192TIP3    H136991   3.742   4.941  12.937
 5192TIP3    H236992   3.675   5.074  12.959
 5193TIP3   OH236993   3.517   5.268  13.203
 5193TIP3    H136994   3.448   5.303  13.261
 5193TIP3    H236995   3.462   5.229  13.132
 5194TIP3   OH236996   3.715   4.691  12.116
 5194TIP3    H136997   3.659   4.725  12.044
 5194TIP3    H236998   3.706   4.762  12.182
 5195TIP3   OH236999   3.553   4.413  11.967
 5195TIP3    H137000   3.561   4.480  11.898
 5195TIP3    H237001   3.534   4.331  11.918
 5196TIP3   OH237002   3.472   4.554  12.538
 5196TIP3    H137003   3.449   4.461  12.527
 5196TIP3    H237004   3.430   4.578  12.622
 5197TIP3   OH237005   1.968   4.764  12.941
 5197TIP3    H137006   1.986   4.757  12.844
 5197TIP3    H237007   2.058   4.747  12.975
 5198TIP3   OH237008   3.553   4.753  13.503
 5198TIP3    H137009   3.614   4.677  13.517
 5198TIP3    H237010   3.614   4.830  13.503
 5199TIP3   OH237011   3.704   4.541  13.567
 5199TIP3    H137012   3.615   4.501  13.553
 5199TIP3    H237013   3.761   4.462  13.558
 5200TIP3   OH237014   3.478   4.161  11.881
 5200TIP3    H137015   3.536   4.117  11.945
 5200TIP3    H237016   3.391   4.120  11.896
 5201TIP3   OH237017   3.433   4.315  12.379
 5201TIP3    H137018   3.463   4.222  12.389
 5201TIP3    H237019   3.513   4.355  12.342
 5202TIP3   OH237020   3.502   4.368  12.926
 5202TIP3    H137021   3.588   4.407  12.942
 5202TIP3    H237022   3.469   4.381  13.018
 5203TIP3   OH237023   3.503   4.441  13.195
 5203TIP3    H137024   3.417   4.469  13.235
 5203TIP3    H237025   3.548   4.529  13.183
 5204TIP3   OH237026   1.930   4.295  13.556
 5204TIP3    H137027   2.024   4.273  13.575
 5204TIP3    H237028   1.884   4.212  13.583
 5205TIP3   OH237029   3.732   3.847  13.736
 5205TIP3    H137030   3.767   3.781  13.674
 5205TIP3    H237031   3.742   3.929  13.683
 5206TIP3   OH237032   3.501   4.044  12.386
 5206TIP3    H137033   3.522   3.997  12.469
 5206TIP3    H237034   3.442   3.980  12.341
 5207TIP3   OH237035   2.050   4.123  12.841
 5207TIP3    H137036   2.096   4.041  12.866
 5207TIP3    H237037   2.105   4.193  12.879
 5208TIP3   OH237038   1.878   4.424  12.944
 5208TIP3    H137039   1.934   4.399  12.868
 5208TIP3    H237040   1.925   4.504  12.971
 5209TIP3   OH237041   3.684   4.057  13.572
 5209TIP3    H137042   3.590   4.084  13.566
 5209TIP3    H237043   3.687   4.002  13.492
 5210TIP3   OH237044   3.683   4.046  12.042
 5210TIP3    H137045   3.724   3.975  11.987
 5210TIP3    H237046   3.753   4.113  12.045
 5211TIP3   OH237047   1.915   4.051  12.353
 5211TIP3    H137048   1.821   4.067  12.336
 5211TIP3    H237049   1.957   4.099  12.279
 5212TIP3   OH237050   3.387   5.545  12.546
 5212TIP3    H137051   3.456   5.516  12.484
 5212TIP3    H237052   3.438   5.597  12.610
 5213TIP3   OH237053   1.909   3.915  13.181
 5213TIP3    H137054   1.843   3.896  13.249
 5213TIP3    H237055   1.864   3.982  13.127
 5214TIP3   OH237056   2.133   5.234  13.597
 5214TIP3    H137057   2.050   5.257  13.553
 5214TIP3    H237058   2.106   5.227  13.689
 5215TIP3   OH237059   2.423   5.336  13.225
 5215TIP3    H137060   2.390   5.422  13.198
 5215TIP3    H237061   2.516   5.344  13.194
 5216TIP3   OH237062   2.855   5.478  13.515
 5216TIP3    H137063   2.869   5.443  13.606
 5216TIP3    H237064   2.946   5.508  13.491
 5217TIP3   OH237065   3.084   5.605  13.446
 5217TIP3    H137066   3.157   5.546  13.423
 5217TIP3    H237067   3.122   5.649  13.526
 5218TIP3   OH237068   3.587   3.866  13.357
 5218TIP3    H137069   3.503   3.896  13.316
 5218TIP3    H237070   3.603   3.784  13.305
 5219TIP3   OH237071   2.166   5.659  13.224
 5219TIP3    H137072   2.093   5.709  13.185
 5219TIP3    H237073   2.135   5.640  13.314
 5220TIP3   OH237074   2.413   5.617  13.132
 5220TIP3    H137075   2.323   5.632  13.171
 5220TIP3    H237076   2.407   5.676  13.054
 5221TIP3   OH237077   2.883   5.608  13.048
 5221TIP3    H137078   2.837   5.664  12.984
 5221TIP3    H237079   2.896   5.671  13.122
 5222TIP3   OH237080   3.112   5.489  13.152
 5222TIP3    H137081   3.027   5.517  13.115
 5222TIP3    H237082   3.161   5.573  13.142
 5223TIP3   OH237083   3.370   5.646  13.174
 5223TIP3    H137084   3.365   5.742  13.151
 5223TIP3    H237085   3.392   5.609  13.086
 5224TIP3   OH237086   2.112   5.524  12.919
 5224TIP3    H137087   2.104   5.478  13.005
 5224TIP3    H237088   2.193   5.486  12.880
 5225TIP3   OH237089   2.319   5.394  12.783
 5225TIP3    H137090   2.303   5.301  12.805
 5225TIP3    H237091   2.404   5.410  12.829
 5226TIP3   OH237092   2.580   5.444  12.872
 5226TIP3    H137093   2.595   5.351  12.846
 5226TIP3    H237094   2.584   5.438  12.969
 5227TIP3   OH237095   2.925   4.009  12.786
 5227TIP3    H137096   2.857   3.944  12.814
 5227TIP3    H237097   2.980   3.955  12.727
 5228TIP3   OH237098   3.439   3.815  12.793
 5228TIP3    H137099   3.500   3.872  12.740
 5228TIP3    H237100   3.350   3.849  12.769
 5229TIP3   OH237101   3.606   3.939  12.620
 5229TIP3    H137102   3.673   3.879  12.578
 5229TIP3    H237103   3.658   4.021  12.628
 5230TIP3   OH237104   2.162   3.872  12.570
 5230TIP3    H137105   2.082   3.852  12.517
 5230TIP3    H237106   2.208   3.785  12.565
 5231TIP3   OH237107   2.039   3.846  12.143
 5231TIP3    H137108   2.088   3.912  12.089
 5231TIP3    H237109   1.982   3.904  12.196
 5232TIP3   OH237110   2.609   3.864  12.549
 5232TIP3    H137111   2.699   3.900  12.542
 5232TIP3    H237112   2.606   3.842  12.642
 5233TIP3   OH237113   3.181   3.865  12.711
 5233TIP3    H137114   3.175   3.877  12.616
 5233TIP3    H237115   3.142   3.775  12.725
 5234TIP3   OH237116   3.307   3.869  12.280
 5234TIP3    H137117   3.232   3.928  12.264
 5234TIP3    H237118   3.263   3.783  12.303
 5235TIP3   OH237119   2.030   5.443  12.246
 5235TIP3    H137120   1.964   5.441  12.174
 5235TIP3    H237121   2.030   5.539  12.263
 5236TIP3   OH237122   2.222   4.041  11.994
 5236TIP3    H137123   2.275   3.979  11.941
 5236TIP3    H237124   2.288   4.072  12.058
 5237TIP3   OH237125   2.724   4.065  12.234
 5237TIP3    H137126   2.749   4.008  12.308
 5237TIP3    H237127   2.731   4.152  12.280
 5238TIP3   OH237128   2.917   5.569  12.077
 5238TIP3    H137129   3.008   5.596  12.059
 5238TIP3    H237130   2.897   5.518  11.996
 5239TIP3   OH237131   3.591   5.521  12.350
 5239TIP3    H137132   3.568   5.444  12.293
 5239TIP3    H237133   3.578   5.596  12.287
 5240TIP3   OH237134   2.151   3.926  13.515
 5240TIP3    H137135   2.112   3.846  13.556
 5240TIP3    H237136   2.241   3.921  13.554
 5241TIP3   OH237137   2.351   3.864  13.680
 5241TIP3    H137138   2.440   3.830  13.658
 5241TIP3    H237139   2.313   3.783  13.720
 5242TIP3   OH237140   2.210   5.540  11.940
 5242TIP3    H137141   2.184   5.566  12.029
 5242TIP3    H237142   2.288   5.483  11.955
 5243TIP3   OH237143   3.191   3.792  13.695
 5243TIP3    H137144   3.200   3.745  13.780
 5243TIP3    H237145   3.283   3.789  13.660
 5244TIP3   OH237146   3.512   5.398  13.558
 5244TIP3    H137147   3.432   5.384  13.503
 5244TIP3    H237148   3.500   5.492  13.580
 5245TIP3   OH237149   4.957   4.785  12.555
 5245TIP3    H137150   4.955   4.883  12.553
 5245TIP3    H237151   4.883   4.762  12.496
 5246TIP3   OH237152   4.840   4.712  12.904
 5246TIP3    H137153   4.842   4.649  12.979
 5246TIP3    H237154   4.806   4.658  12.832
 5247TIP3   OH237155   4.076   4.677  13.061
 5247TIP3    H137156   4.086   4.610  13.131
 5247TIP3    H237157   4.151   4.735  13.082
 5248TIP3   OH237158   5.210   5.006  12.735
 5248TIP3    H137159   5.169   4.934  12.784
 5248TIP3    H237160   5.213   5.076  12.802
 5249TIP3   OH237161   4.170   5.123  12.911
 5249TIP3    H137162   4.139   5.036  12.880
 5249TIP3    H237163   4.265   5.105  12.916
 5250TIP3   OH237164   3.830   4.476  12.466
 5250TIP3    H137165   3.793   4.566  12.452
 5250TIP3    H237166   3.778   4.426  12.401
 5251TIP3   OH237167   3.905   4.701  12.674
 5251TIP3    H137168   3.936   4.621  12.720
 5251TIP3    H237169   3.974   4.715  12.608
 5252TIP3   OH237170   4.922   5.521  12.758
 5252TIP3    H137171   4.987   5.453  12.730
 5252TIP3    H237172   4.901   5.488  12.845
 5253TIP3   OH237173   4.680   4.953  12.951
 5253TIP3    H137174   4.713   4.888  12.887
 5253TIP3    H237175   4.760   4.965  13.006
 5254TIP3   OH237176   5.539   4.117  13.026
 5254TIP3    H137177   5.557   4.176  13.102
 5254TIP3    H237178   5.596   4.159  12.960
 5255TIP3   OH237179   5.001   4.396  12.983
 5255TIP3    H137180   5.013   4.300  12.985
 5255TIP3    H237181   4.986   4.411  12.888
 5256TIP3   OH237182   4.308   4.206  12.706
 5256TIP3    H137183   4.318   4.290  12.657
 5256TIP3    H237184   4.268   4.149  12.637
 5257TIP3   OH237185   5.081   4.214  12.543
 5257TIP3    H137186   5.146   4.183  12.610
 5257TIP3    H237187   5.138   4.272  12.490
 5258TIP3   OH237188   3.960   4.438  12.778
 5258TIP3    H137189   4.037   4.397  12.824
 5258TIP3    H237190   3.985   4.418  12.686
 5259TIP3   OH237191   4.485   4.603  12.711
 5259TIP3    H137192   4.553   4.546  12.751
 5259TIP3    H237193   4.434   4.537  12.661
 5260TIP3   OH237194   5.583   4.257  13.254
 5260TIP3    H137195   5.523   4.334  13.242
 5260TIP3    H237196   5.587   4.249  13.349
 5261TIP3   OH237197   4.199   4.096  13.111
 5261TIP3    H137198   4.172   4.153  13.036
 5261TIP3    H237199   4.131   4.119  13.178
 5262TIP3   OH237200   4.927   5.045  12.464
 5262TIP3    H137201   4.901   5.017  12.376
 5262TIP3    H237202   4.896   5.138  12.470
 5263TIP3   OH237203   4.447   4.861  13.131
 5263TIP3    H137204   4.379   4.927  13.156
 5263TIP3    H237205   4.521   4.919  13.107
 5264TIP3   OH237206   5.262   4.150  12.743
 5264TIP3    H137207   5.240   4.072  12.796
 5264TIP3    H237208   5.330   4.193  12.798
 5265TIP3   OH237209   4.153   4.285  12.911
 5265TIP3    H137210   4.219   4.350  12.946
 5265TIP3    H237211   4.208   4.241  12.841
 5266TIP3   OH237212   4.294   5.060  13.215
 5266TIP3    H137213   4.290   5.152  13.182
 5266TIP3    H237214   4.207   5.053  13.261
 5267TIP3   OH237215   3.903   5.022  12.295
 5267TIP3    H137216   3.878   5.056  12.208
 5267TIP3    H237217   3.911   5.105  12.347
 5268TIP3   OH237218   5.263   5.189  12.971
 5268TIP3    H137219   5.167   5.200  12.983
 5268TIP3    H237220   5.290   5.281  12.951
 5269TIP3   OH237221   5.296   4.018  13.110
 5269TIP3    H137222   5.223   4.081  13.101
 5269TIP3    H237223   5.367   4.060  13.058
 5270TIP3   OH237224   4.592   3.830  12.857
 5270TIP3    H137225   4.578   3.733  12.849
 5270TIP3    H237226   4.504   3.860  12.887
 5271TIP3   OH237227   5.089   5.368  12.630
 5271TIP3    H137228   5.132   5.296  12.579
 5271TIP3    H237229   5.133   5.447  12.591
 5272TIP3   OH237230   5.211   5.160  12.482
 5272TIP3    H137231   5.181   5.091  12.422
 5272TIP3    H237232   5.214   5.111  12.566
 5273TIP3   OH237233   5.376   5.022  13.331
 5273TIP3    H137234   5.385   4.954  13.260
 5273TIP3    H237235   5.394   5.105  13.285
 5274TIP3   OH237236   4.822   4.708  12.307
 5274TIP3    H137237   4.753   4.767  12.271
 5274TIP3    H237238   4.893   4.718  12.241
 5275TIP3   OH237239   4.830   4.566  12.008
 5275TIP3    H137240   4.901   4.564  12.075
 5275TIP3    H237241   4.861   4.494  11.952
 5276TIP3   OH237242   5.561   4.652  13.136
 5276TIP3    H137243   5.497   4.724  13.140
 5276TIP3    H237244   5.610   4.675  13.055
 5277TIP3   OH237245   5.168   4.729  12.399
 5277TIP3    H137246   5.093   4.754  12.459
 5277TIP3    H237247   5.215   4.662  12.452
 5278TIP3   OH237248   5.173   4.546  13.302
 5278TIP3    H137249   5.155   4.620  13.363
 5278TIP3    H237250   5.097   4.573  13.247
 5279TIP3   OH237251   4.327   4.795  12.591
 5279TIP3    H137252   4.296   4.757  12.506
 5279TIP3    H237253   4.389   4.727  12.625
 5280TIP3   OH237254   4.460   5.134  12.859
 5280TIP3    H137255   4.460   5.082  12.778
 5280TIP3    H237256   4.538   5.099  12.905
 5281TIP3   OH237257   4.360   4.670  12.957
 5281TIP3    H137258   4.416   4.680  12.878
 5281TIP3    H237259   4.400   4.736  13.019
 5282TIP3   OH237260   5.003   5.227  13.029
 5282TIP3    H137261   4.973   5.292  13.094
 5282TIP3    H237262   4.978   5.142  13.072
 5283TIP3   OH237263   4.456   5.114  13.427
 5283TIP3    H137264   4.415   5.187  13.476
 5283TIP3    H237265   4.389   5.094  13.357
 5284TIP3   OH237266   5.055   4.650  12.166
 5284TIP3    H137267   5.110   4.668  12.246
 5284TIP3    H237268   5.100   4.700  12.094
 5285TIP3   OH237269   4.152   4.731  13.344
 5285TIP3    H137270   4.156   4.797  13.415
 5285TIP3    H237271   4.058   4.739  13.322
 5286TIP3   OH237272   4.826   5.322  12.514
 5286TIP3    H137273   4.869   5.353  12.594
 5286TIP3    H237274   4.770   5.397  12.490
 5287TIP3   OH237275   4.281   5.317  13.502
 5287TIP3    H137276   4.275   5.307  13.405
 5287TIP3    H237277   4.188   5.304  13.529
 5288TIP3   OH237278   5.427   3.823  12.157
 5288TIP3    H137279   5.332   3.834  12.182
 5288TIP3    H237280   5.447   3.907  12.112
 5289TIP3   OH237281   4.224   4.698  12.355
 5289TIP3    H137282   4.196   4.776  12.303
 5289TIP3    H237283   4.159   4.631  12.329
 5290TIP3   OH237284   5.538   5.259  11.991
 5290TIP3    H137285   5.555   5.353  12.008
 5290TIP3    H237286   5.631   5.227  11.991
 5291TIP3   OH237287   3.833   4.942  13.244
 5291TIP3    H137288   3.789   4.934  13.158
 5291TIP3    H237289   3.842   4.847  13.265
 5292TIP3   OH237290   3.810   5.215  12.920
 5292TIP3    H137291   3.906   5.203  12.918
 5292TIP3    H237292   3.802   5.297  12.971
 5293TIP3   OH237293   5.634   5.285  13.490
 5293TIP3    H137294   5.622   5.189  13.486
 5293TIP3    H237295   5.545   5.309  13.527
 5294TIP3   OH237296   4.728   5.242  13.374
 5294TIP3    H137297   4.735   5.325  13.427
 5294TIP3    H237298   4.642   5.204  13.401
 5295TIP3   OH237299   4.774   5.613  12.355
 5295TIP3    H137300   4.763   5.605  12.258
 5295TIP3    H237301   4.774   5.709  12.370
 5296TIP3   OH237302   4.137   5.501  12.537
 5296TIP3    H137303   4.152   5.460  12.625
 5296TIP3    H237304   4.052   5.460  12.513
 5297TIP3   OH237305   5.079   5.535  12.053
 5297TIP3    H137306   5.125   5.459  12.010
 5297TIP3    H237307   5.083   5.508  12.147
 5298TIP3   OH237308   5.049   5.528  12.331
 5298TIP3    H137309   4.953   5.536  12.347
 5298TIP3    H237310   5.072   5.454  12.388
 5299TIP3   OH237311   5.349   4.432  13.534
 5299TIP3    H137312   5.299   4.478  13.465
 5299TIP3    H237313   5.345   4.340  13.505
 5300TIP3   OH237314   4.063   5.073  13.337
 5300TIP3    H137315   4.085   5.036  13.425
 5300TIP3    H237316   3.976   5.033  13.316
 5301TIP3   OH237317   4.330   3.920  12.932
 5301TIP3    H137318   4.240   3.907  12.895
 5301TIP3    H237319   4.317   4.003  12.980
 5302TIP3   OH237320   4.795   3.886  13.268
 5302TIP3    H137321   4.834   3.845  13.347
 5302TIP3    H237322   4.698   3.875  13.283
 5303TIP3   OH237323   5.123   4.271  13.358
 5303TIP3    H137324   5.067   4.251  13.436
 5303TIP3    H237325   5.105   4.364  13.335
 5304TIP3   OH237326   5.199   4.753  11.948
 5304TIP3    H137327   5.197   4.734  11.851
 5304TIP3    H237328   5.285   4.798  11.953
 5305TIP3   OH237329   4.759   4.146  11.999
 5305TIP3    H137330   4.727   4.139  12.091
 5305TIP3    H237331   4.728   4.058  11.968
 5306TIP3   OH237332   4.339   4.417  13.057
 5306TIP3    H137333   4.266   4.417  13.121
 5306TIP3    H237334   4.336   4.508  13.020
 5307TIP3   OH237335   4.336   4.429  12.544
 5307TIP3    H137336   4.243   4.404  12.530
 5307TIP3    H237337   4.375   4.400  12.458
 5308TIP3   OH237338   4.889   4.480  12.421
 5308TIP3    H137339   4.849   4.562  12.384
 5308TIP3    H237340   4.957   4.463  12.355
 5309TIP3   OH237341   4.784   4.497  13.578
 5309TIP3    H137342   4.741   4.413  13.600
 5309TIP3    H237343   4.876   4.490  13.607
 5310TIP3   OH237344   4.992   4.429  12.705
 5310TIP3    H137345   4.964   4.485  12.631
 5310TIP3    H237346   5.002   4.344  12.658
 5311TIP3   OH237347   4.101   4.442  13.224
 5311TIP3    H137348   4.111   4.483  13.312
 5311TIP3    H237349   4.060   4.358  13.247
 5312TIP3   OH237350   4.440   4.182  11.911
 5312TIP3    H137351   4.395   4.140  11.986
 5312TIP3    H237352   4.369   4.225  11.861
 5313TIP3   OH237353   3.770   4.160  12.628
 5313TIP3    H137354   3.842   4.144  12.692
 5313TIP3    H237355   3.808   4.118  12.547
 5314TIP3   OH237356   3.895   4.225  12.158
 5314TIP3    H137357   3.946   4.286  12.102
 5314TIP3    H237358   3.826   4.287  12.191
 5315TIP3   OH237359   4.896   4.579  13.136
 5315TIP3    H137360   4.953   4.509  13.099
 5315TIP3    H237361   4.875   4.548  13.227
 5316TIP3   OH237362   4.593   4.185  12.644
 5316TIP3    H137363   4.500   4.184  12.673
 5316TIP3    H237364   4.641   4.167  12.726
 5317TIP3   OH237365   4.070   4.337  12.534
 5317TIP3    H137366   3.986   4.355  12.488
 5317TIP3    H237367   4.104   4.258  12.488
 5318TIP3   OH237368   4.437   4.344  12.294
 5318TIP3    H137369   4.533   4.355  12.310
 5318TIP3    H237370   4.414   4.413  12.228
 5319TIP3   OH237371   5.033   4.108  12.968
 5319TIP3    H137372   4.965   4.113  13.039
 5319TIP3    H237373   4.982   4.083  12.890
 5320TIP3   OH237374   4.308   4.462  12.052
 5320TIP3    H137375   4.255   4.424  11.980
 5320TIP3    H237376   4.390   4.483  12.005
 5321TIP3   OH237377   5.353   5.672  13.601
 5321TIP3    H137378   5.379   5.711  13.515
 5321TIP3    H237379   5.425   5.704  13.656
 5322TIP3   OH237380   4.120   4.919  13.558
 5322TIP3    H137381   4.193   4.944  13.618
 5322TIP3    H237382   4.043   4.927  13.618
 5323TIP3   OH237383   4.720   4.460  12.833
 5323TIP3    H137384   4.781   4.407  12.780
 5323TIP3    H237385   4.706   4.406  12.912
 5324TIP3   OH237386   4.221   4.075  12.477
 5324TIP3    H137387   4.190   3.982  12.476
 5324TIP3    H237388   4.301   4.068  12.422
 5325TIP3   OH237389   4.585   4.293  13.076
 5325TIP3    H137390   4.502   4.345  13.084
 5325TIP3    H237391   4.641   4.330  13.148
 5326TIP3   OH237392   4.643   4.915  12.244
 5326TIP3    H137393   4.563   4.869  12.211
 5326TIP3    H237394   4.620   4.928  12.339
 5327TIP3   OH237395   5.365   4.836  13.123
 5327TIP3    H137396   5.419   4.885  13.060
 5327TIP3    H237397   5.276   4.840  13.081
 5328TIP3   OH237398   5.026   4.197  12.062
 5328TIP3    H137399   4.931   4.212  12.049
 5328TIP3    H237400   5.060   4.282  12.097
 5329TIP3   OH237401   4.780   4.950  13.362
 5329TIP3    H137402   4.765   4.898  13.443
 5329TIP3    H237403   4.765   5.041  13.386
 5330TIP3   OH237404   5.100   4.389  12.224
 5330TIP3    H137405   5.188   4.375  12.265
 5330TIP3    H237406   5.110   4.471  12.173
 5331TIP3   OH237407   4.154   4.855  12.824
 5331TIP3    H137408   4.222   4.847  12.755
 5331TIP3    H237409   4.160   4.769  12.870
 5332TIP3   OH237410   4.853   5.062  12.148
 5332TIP3    H137411   4.818   5.147  12.183
 5332TIP3    H237412   4.779   5.000  12.170
 5333TIP3   OH237413   3.853   4.696  13.351
 5333TIP3    H137414   3.870   4.651  13.437
 5333TIP3    H237415   3.791   4.634  13.308
 5334TIP3   OH237416   4.552   4.650  13.569
 5334TIP3    H137417   4.525   4.621  13.481
 5334TIP3    H237418   4.646   4.620  13.568
 5335TIP3   OH237419   5.023   5.189  13.363
 5335TIP3    H137420   4.930   5.200  13.341
 5335TIP3    H237421   5.019   5.212  13.457
 5336TIP3   OH237422   5.590   4.402  12.202
 5336TIP3    H137423   5.533   4.374  12.128
 5336TIP3    H237424   5.598   4.497  12.177
 5337TIP3   OH237425   5.589   4.989  13.484
 5337TIP3    H137426   5.500   5.011  13.447
 5337TIP3    H237427   5.644   4.983  13.403
 5338TIP3   OH237428   5.415   5.285  12.242
 5338TIP3    H137429   5.382   5.202  12.277
 5338TIP3    H237430   5.451   5.263  12.154
 5339TIP3   OH237431   5.140   4.769  12.949
 5339TIP3    H137432   5.046   4.746  12.944
 5339TIP3    H237433   5.182   4.690  12.911
 5340TIP3   OH237434   4.392   5.200  12.563
 5340TIP3    H137435   4.441   5.281  12.542
 5340TIP3    H237436   4.304   5.223  12.530
 5341TIP3   OH237437   3.968   4.684  12.020
 5341TIP3    H137438   4.026   4.751  12.061
 5341TIP3    H237439   3.879   4.715  12.045
 5342TIP3   OH237440   4.532   4.967  12.514
 5342TIP3    H137441   4.501   5.059  12.524
 5342TIP3    H237442   4.461   4.917  12.559
 5343TIP3   OH237443   4.578   5.385  13.156
 5343TIP3    H137444   4.625   5.465  13.128
 5343TIP3    H237445   4.640   5.350  13.224
 5344TIP3   OH237446   4.401   5.466  12.467
 5344TIP3    H137447   4.304   5.480  12.481
 5344TIP3    H237448   4.437   5.549  12.502
 5345TIP3   OH237449   4.931   4.986  13.117
 5345TIP3    H137450   4.898   4.965  13.208
 5345TIP3    H237451   4.993   4.913  13.103
 5346TIP3   OH237452   5.164   5.093  12.026
 5346TIP3    H137453   5.194   5.045  12.107
 5346TIP3    H237454   5.069   5.074  12.035
 5347TIP3   OH237455   5.212   5.443  13.366
 5347TIP3    H137456   5.143   5.394  13.319
 5347TIP3    H237457   5.230   5.513  13.300
 5348TIP3   OH237458   5.610   5.528  12.052
 5348TIP3    H137459   5.679   5.594  12.032
 5348TIP3    H237460   5.539   5.589  12.081
 5349TIP3   OH237461   4.019   4.168  13.306
 5349TIP3    H137462   3.928   4.204  13.306
 5349TIP3    H237463   4.008   4.083  13.353
 5350TIP3   OH237464   5.242   4.956  12.251
 5350TIP3    H137465   5.218   4.877  12.304
 5350TIP3    H237466   5.337   4.960  12.269
 5351TIP3   OH237467   3.979   5.347  13.148
 5351TIP3    H137468   4.010   5.255  13.149
 5351TIP3    H237469   4.006   5.376  13.236
 5352TIP3   OH237470   4.577   5.200  11.876
 5352TIP3    H137471   4.587   5.123  11.817
 5352TIP3    H237472   4.533   5.157  11.953
 5353TIP3   OH237473   4.454   5.152  12.121
 5353TIP3    H137474   4.481   5.101  12.198
 5353TIP3    H237475   4.463   5.245  12.154
 5354TIP3   OH237476   4.109   4.877  12.170
 5354TIP3    H137477   4.037   4.916  12.224
 5354TIP3    H237478   4.159   4.955  12.141
 5355TIP3   OH237479   4.892   4.143  13.200
 5355TIP3    H137480   4.962   4.153  13.266
 5355TIP3    H237481   4.853   4.056  13.223
 5356TIP3   OH237482   4.965   4.102  12.311
 5356TIP3    H137483   4.989   4.149  12.228
 5356TIP3    H237484   5.023   4.147  12.374
 5357TIP3   OH237485   4.735   5.319  12.191
 5357TIP3    H137486   4.653   5.372  12.198
 5357TIP3    H237487   4.789   5.374  12.132
 5358TIP3   OH237488   4.689   4.278  12.392
 5358TIP3    H137489   4.767   4.336  12.397
 5358TIP3    H237490   4.662   4.265  12.485
 5359TIP3   OH237491   4.740   4.375  13.315
 5359TIP3    H137492   4.754   4.440  13.387
 5359TIP3    H237493   4.812   4.312  13.321
 5360TIP3   OH237494   4.773   3.983  12.480
 5360TIP3    H137495   4.741   4.048  12.546
 5360TIP3    H237496   4.843   4.038  12.436
 5361TIP3   OH237497   4.475   5.422  12.194
 5361TIP3    H137498   4.484   5.503  12.139
 5361TIP3    H237499   4.447   5.458  12.281
 5362TIP3   OH237500   4.339   4.094  12.152
 5362TIP3    H137501   4.334   4.184  12.190
 5362TIP3    H237502   4.430   4.070  12.178
 5363TIP3   OH237503   5.361   4.168  13.396
 5363TIP3    H137504   5.269   4.200  13.383
 5363TIP3    H237505   5.392   4.166  13.304
 5364TIP3   OH237506   5.224   4.546  12.796
 5364TIP3    H137507   5.141   4.502  12.769
 5364TIP3    H237508   5.271   4.477  12.848
 5365TIP3   OH237509   4.163   5.138  12.056
 5365TIP3    H137510   4.229   5.201  12.088
 5365TIP3    H237511   4.215   5.092  11.988
 5366TIP3   OH237512   3.997   4.406  11.970
 5366TIP3    H137513   3.999   4.501  11.991
 5366TIP3    H237514   3.908   4.388  11.940
 5367TIP3   OH237515   5.330   5.472  12.964
 5367TIP3    H137516   5.321   5.540  12.894
 5367TIP3    H237517   5.426   5.478  12.981
 5368TIP3   OH237518   4.077   3.886  12.845
 5368TIP3    H137519   4.061   3.884  12.748
 5368TIP3    H237520   4.038   3.799  12.870
 5369TIP3   OH237521   3.974   5.276  12.459
 5369TIP3    H137522   3.889   5.322  12.454
 5369TIP3    H237523   4.022   5.323  12.389
 5370TIP3   OH237524   3.895   5.541  13.587
 5370TIP3    H137525   3.955   5.521  13.661
 5370TIP3    H237526   3.855   5.454  13.569
 5371TIP3   OH237527   4.363   5.433  13.748
 5371TIP3    H137528   4.439   5.383  13.782
 5371TIP3    H237529   4.360   5.405  13.655
 5372TIP3   OH237530   4.776   5.385  11.889
 5372TIP3    H137531   4.707   5.319  11.911
 5372TIP3    H237532   4.848   5.325  11.864
 5373TIP3   OH237533   5.013   5.271  13.623
 5373TIP3    H137534   4.982   5.182  13.649
 5373TIP3    H237535   5.090   5.283  13.682
 5374TIP3   OH237536   5.232   5.359  11.907
 5374TIP3    H137537   5.262   5.281  11.958
 5374TIP3    H237538   5.309   5.381  11.852
 5375TIP3   OH237539   3.886   4.919  13.687
 5375TIP3    H137540   3.903   4.828  13.658
 5375TIP3    H237541   3.812   4.944  13.630
 5376TIP3   OH237542   4.321   4.953  11.889
 5376TIP3    H137543   4.335   4.877  11.948
 5376TIP3    H237544   4.396   4.941  11.827
 5377TIP3   OH237545   4.555   4.918  13.626
 5377TIP3    H137546   4.526   4.948  13.538
 5377TIP3    H237547   4.568   4.821  13.614
 5378TIP3   OH237548   4.864   5.064  11.867
 5378TIP3    H137549   4.837   5.072  11.960
 5378TIP3    H237550   4.845   4.968  11.852
 5379TIP3   OH237551   5.134   4.909  13.361
 5379TIP3    H137552   5.209   4.970  13.358
 5379TIP3    H237553   5.057   4.966  13.369
 5380TIP3   OH237554   3.978   4.641  13.625
 5380TIP3    H137555   4.020   4.555  13.617
 5380TIP3    H237556   3.955   4.642  13.719
 5381TIP3   OH237557   4.441   4.755  12.132
 5381TIP3    H137558   4.391   4.701  12.195
 5381TIP3    H237559   4.471   4.688  12.066
 5382TIP3   OH237560   4.364   4.534  13.359
 5382TIP3    H137561   4.308   4.608  13.386
 5382TIP3    H237562   4.410   4.573  13.282
 5383TIP3   OH237563   4.549   4.577  11.952
 5383TIP3    H137564   4.534   4.568  11.855
 5383TIP3    H237565   4.646   4.582  11.958
 5384TIP3   OH237566   4.878   4.799  13.710
 5384TIP3    H137567   4.967   4.789  13.673
 5384TIP3    H237568   4.858   4.712  13.747
 5385TIP3   OH237569   5.480   4.811  11.894
 5385TIP3    H137570   5.463   4.772  11.807
 5385TIP3    H237571   5.490   4.907  11.874
 5386TIP3   OH237572   4.408   4.273  13.466
 5386TIP3    H137573   4.420   4.203  13.400
 5386TIP3    H237574   4.404   4.354  13.411
 5387TIP3   OH237575   4.448   4.111  13.222
 5387TIP3    H137576   4.500   4.158  13.151
 5387TIP3    H237577   4.359   4.104  13.181
 5388TIP3   OH237578   4.598   4.658  13.243
 5388TIP3    H137579   4.681   4.644  13.194
 5388TIP3    H237580   4.569   4.746  13.214
 5389TIP3   OH237581   5.042   4.434  13.746
 5389TIP3    H137582   5.066   4.342  13.731
 5389TIP3    H237583   5.127   4.481  13.740
 5390TIP3   OH237584   5.188   4.724  13.573
 5390TIP3    H137585   5.146   4.777  13.500
 5390TIP3    H237586   5.277   4.713  13.536
 5391TIP3   OH237587   4.253   4.398  13.659
 5391TIP3    H137588   4.177   4.340  13.642
 5391TIP3    H237589   4.319   4.362  13.597
 5392TIP3   OH237590   4.528   3.855  13.260
 5392TIP3    H137591   4.510   3.952  13.251
 5392TIP3    H237592   4.453   3.819  13.210
 5393TIP3   OH237593   4.655   4.281  13.624
 5393TIP3    H137594   4.621   4.264  13.714
 5393TIP3    H237595   4.576   4.269  13.569
 5394TIP3   OH237596   4.927   4.199  13.530
 5394TIP3    H137597   4.831   4.210  13.543
 5394TIP3    H237598   4.953   4.139  13.602
 5395TIP3   OH237599   5.085   4.065  13.723
 5395TIP3    H137600   5.080   3.967  13.725
 5395TIP3    H237601   5.060   4.094  13.812
 5396TIP3   OH237602   4.062   4.192  13.634
 5396TIP3    H137603   4.087   4.119  13.575
 5396TIP3    H237604   4.053   4.147  13.720
 5397TIP3   OH237605   4.549   3.795  13.531
 5397TIP3    H137606   4.617   3.724  13.529
 5397TIP3    H237607   4.538   3.809  13.435
 5398TIP3   OH237608   4.585   3.955  13.743
 5398TIP3    H137609   4.568   3.905  13.659
 5398TIP3    H237610   4.526   4.032  13.732
 5399TIP3   OH237611   4.532   5.647  12.060
 5399TIP3    H137612   4.629   5.656  12.066
 5399TIP3    H237613   4.517   5.708  11.986
 5400TIP3   OH237614   3.887   5.105  12.007
 5400TIP3    H137615   3.984   5.114  12.025
 5400TIP3    H237616   3.892   5.040  11.932
 5401TIP3   OH237617   3.765   5.644  12.503
 5401TIP3    H137618   3.693   5.594  12.457
 5401TIP3    H237619   3.794   5.578  12.569
 5402TIP3   OH237620   3.848   5.457  12.691
 5402TIP3    H137621   3.812   5.369  12.711
 5402TIP3    H237622   3.870   5.490  12.779
 5403TIP3   OH237623   5.602   5.536  12.984
 5403TIP3    H137624   5.605   5.552  13.080
 5403TIP3    H237625   5.672   5.595  12.953
 5404TIP3   OH237626   5.559   5.496  13.278
 5404TIP3    H137627   5.512   5.419  13.240
 5404TIP3    H237628   5.608   5.451  13.349
 5405TIP3   OH237629   5.402   5.069  13.745
 5405TIP3    H137630   5.312   5.066  13.782
 5405TIP3    H237631   5.440   5.148  13.787
 5406TIP3   OH237632   5.535   4.901  12.288
 5406TIP3    H137633   5.622   4.940  12.307
 5406TIP3    H237634   5.533   4.829  12.355
 5407TIP3   OH237635   5.571   4.709  12.477
 5407TIP3    H137636   5.496   4.659  12.517
 5407TIP3    H237637   5.631   4.722  12.554
 5408TIP3   OH237638   5.547   4.978  12.975
 5408TIP3    H137639   5.628   4.940  12.938
 5408TIP3    H237640   5.561   5.074  12.958
 5409TIP3   OH237641   5.403   5.269  13.202
 5409TIP3    H137642   5.333   5.302  13.262
 5409TIP3    H237643   5.348   5.229  13.132
 5410TIP3   OH237644   5.601   4.692  12.118
 5410TIP3    H137645   5.545   4.725  12.045
 5410TIP3    H237646   5.591   4.764  12.183
 5411TIP3   OH237647   5.440   4.413  11.967
 5411TIP3    H137648   5.445   4.481  11.899
 5411TIP3    H237649   5.419   4.331  11.919
 5412TIP3   OH237650   5.353   4.556  12.534
 5412TIP3    H137651   5.338   4.460  12.530
 5412TIP3    H237652   5.320   4.577  12.623
 5413TIP3   OH237653   3.853   4.758  12.940
 5413TIP3    H137654   3.873   4.759  12.843
 5413TIP3    H237655   3.943   4.749  12.976
 5414TIP3   OH237656   5.440   4.753  13.503
 5414TIP3    H137657   5.499   4.677  13.516
 5414TIP3    H237658   5.499   4.831  13.503
 5415TIP3   OH237659   5.590   4.540  13.570
 5415TIP3    H137660   5.501   4.502  13.553
 5415TIP3    H237661   5.646   4.461  13.559
 5416TIP3   OH237662   5.365   4.160  11.878
 5416TIP3    H137663   5.421   4.118  11.947
 5416TIP3    H237664   5.277   4.121  11.895
 5417TIP3   OH237665   5.318   4.314  12.375
 5417TIP3    H137666   5.349   4.222  12.392
 5417TIP3    H237667   5.400   4.355  12.345
 5418TIP3   OH237668   5.384   4.368  12.924
 5418TIP3    H137669   5.480   4.392  12.923
 5418TIP3    H237670   5.365   4.383  13.018
 5419TIP3   OH237671   5.393   4.440  13.201
 5419TIP3    H137672   5.303   4.469  13.234
 5419TIP3    H237673   5.433   4.528  13.180
 5420TIP3   OH237674   3.816   4.295  13.559
 5420TIP3    H137675   3.910   4.273  13.575
 5420TIP3    H237676   3.770   4.212  13.584
 5421TIP3   OH237677   5.617   3.847  13.736
 5421TIP3    H137678   5.653   3.781  13.674
 5421TIP3    H237679   5.628   3.929  13.683
 5422TIP3   OH237680   5.387   4.043  12.384
 5422TIP3    H137681   5.408   3.999  12.470
 5422TIP3    H237682   5.327   3.979  12.341
 5423TIP3   OH237683   3.933   4.126  12.843
 5423TIP3    H137684   3.980   4.042  12.864
 5423TIP3    H237685   3.995   4.192  12.879
 5424TIP3   OH237686   3.793   4.434  12.972
 5424TIP3    H137687   3.855   4.412  12.899
 5424TIP3    H237688   3.820   4.528  12.982
 5425TIP3   OH237689   5.570   4.058  13.572
 5425TIP3    H137690   5.476   4.084  13.566
 5425TIP3    H237691   5.573   4.002  13.492
 5426TIP3   OH237692   5.568   4.047  12.039
 5426TIP3    H137693   5.610   3.974  11.988
 5426TIP3    H237694   5.640   4.113  12.046
 5427TIP3   OH237695   3.799   4.054  12.355
 5427TIP3    H137696   3.706   4.066  12.334
 5427TIP3    H237697   3.842   4.098  12.279
 5428TIP3   OH237698   5.274   5.545  12.547
 5428TIP3    H137699   5.342   5.515  12.484
 5428TIP3    H237700   5.325   5.595  12.612
 5429TIP3   OH237701   3.795   3.916  13.180
 5429TIP3    H137702   3.729   3.896  13.249
 5429TIP3    H237703   3.748   3.982  13.127
 5430TIP3   OH237704   4.019   5.234  13.597
 5430TIP3    H137705   3.935   5.257  13.553
 5430TIP3    H237706   3.992   5.227  13.689
 5431TIP3   OH237707   4.309   5.336  13.225
 5431TIP3    H137708   4.276   5.422  13.198
 5431TIP3    H237709   4.402   5.344  13.194
 5432TIP3   OH237710   4.741   5.478  13.515
 5432TIP3    H137711   4.755   5.443  13.606
 5432TIP3    H237712   4.831   5.508  13.491
 5433TIP3   OH237713   4.969   5.605  13.447
 5433TIP3    H137714   5.043   5.546  13.423
 5433TIP3    H237715   5.007   5.649  13.526
 5434TIP3   OH237716   5.472   3.866  13.357
 5434TIP3    H137717   5.389   3.896  13.316
 5434TIP3    H237718   5.488   3.784  13.305
 5435TIP3   OH237719   4.051   5.659  13.224
 5435TIP3    H137720   3.978   5.709  13.185
 5435TIP3    H237721   4.020   5.640  13.314
 5436TIP3   OH237722   4.298   5.617  13.132
 5436TIP3    H137723   4.209   5.632  13.171
 5436TIP3    H237724   4.293   5.676  13.054
 5437TIP3   OH237725   4.769   5.608  13.048
 5437TIP3    H137726   4.723   5.664  12.984
 5437TIP3    H237727   4.782   5.671  13.122
 5438TIP3   OH237728   4.998   5.488  13.152
 5438TIP3    H137729   4.912   5.517  13.115
 5438TIP3    H237730   5.046   5.572  13.142
 5439TIP3   OH237731   5.256   5.646  13.174
 5439TIP3    H137732   5.251   5.742  13.151
 5439TIP3    H237733   5.278   5.609  13.086
 5440TIP3   OH237734   3.998   5.524  12.919
 5440TIP3    H137735   3.989   5.478  13.005
 5440TIP3    H237736   4.079   5.486  12.880
 5441TIP3   OH237737   4.205   5.395  12.784
 5441TIP3    H137738   4.188   5.302  12.807
 5441TIP3    H237739   4.290   5.411  12.829
 5442TIP3   OH237740   4.466   5.444  12.872
 5442TIP3    H137741   4.481   5.351  12.846
 5442TIP3    H237742   4.470   5.438  12.968
 5443TIP3   OH237743   4.811   4.009  12.786
 5443TIP3    H137744   4.743   3.945  12.814
 5443TIP3    H237745   4.866   3.955  12.727
 5444TIP3   OH237746   5.325   3.813  12.792
 5444TIP3    H137747   5.386   3.873  12.741
 5444TIP3    H237748   5.236   3.849  12.769
 5445TIP3   OH237749   5.491   3.938  12.619
 5445TIP3    H137750   5.560   3.881  12.578
 5445TIP3    H237751   5.542   4.022  12.630
 5446TIP3   OH237752   4.048   3.871  12.570
 5446TIP3    H137753   3.968   3.852  12.517
 5446TIP3    H237754   4.094   3.785  12.564
 5447TIP3   OH237755   3.924   3.846  12.142
 5447TIP3    H137756   3.974   3.911  12.089
 5447TIP3    H237757   3.868   3.904  12.196
 5448TIP3   OH237758   4.495   3.864  12.549
 5448TIP3    H137759   4.585   3.900  12.542
 5448TIP3    H237760   4.491   3.842  12.642
 5449TIP3   OH237761   5.067   3.865  12.711
 5449TIP3    H137762   5.061   3.877  12.615
 5449TIP3    H237763   5.028   3.775  12.724
 5450TIP3   OH237764   5.193   3.869  12.280
 5450TIP3    H137765   5.118   3.928  12.264
 5450TIP3    H237766   5.149   3.783  12.303
 5451TIP3   OH237767   3.916   5.441  12.245
 5451TIP3    H137768   3.850   5.440  12.174
 5451TIP3    H237769   3.916   5.537  12.263
 5452TIP3   OH237770   4.107   4.041  11.994
 5452TIP3    H137771   4.160   3.979  11.941
 5452TIP3    H237772   4.174   4.073  12.057
 5453TIP3   OH237773   4.609   4.065  12.234
 5453TIP3    H137774   4.635   4.008  12.308
 5453TIP3    H237775   4.617   4.152  12.280
 5454TIP3   OH237776   4.803   5.573  12.079
 5454TIP3    H137777   4.895   5.595  12.057
 5454TIP3    H237778   4.781   5.521  11.999
 5455TIP3   OH237779   5.473   5.523  12.351
 5455TIP3    H137780   5.454   5.444  12.294
 5455TIP3    H237781   5.466   5.596  12.286
 5456TIP3   OH237782   4.036   3.926  13.515
 5456TIP3    H137783   3.997   3.846  13.556
 5456TIP3    H237784   4.127   3.921  13.554
 5457TIP3   OH237785   4.236   3.864  13.680
 5457TIP3    H137786   4.325   3.830  13.658
 5457TIP3    H237787   4.199   3.783  13.720
 5458TIP3   OH237788   4.095   5.540  11.939
 5458TIP3    H137789   4.069   5.566  12.029
 5458TIP3    H237790   4.174   5.484  11.955
 5459TIP3   OH237791   5.076   3.792  13.695
 5459TIP3    H137792   5.086   3.745  13.780
 5459TIP3    H237793   5.168   3.789  13.660
 5460TIP3   OH237794   5.398   5.398  13.558
 5460TIP3    H137795   5.317   5.384  13.503
 5460TIP3    H237796   5.386   5.493  13.580
 5461TIP3   OH237797   6.842   4.784  12.556
 5461TIP3    H137798   6.842   4.882  12.554
 5461TIP3    H237799   6.769   4.762  12.496
 5462TIP3   OH237800   6.728   4.710  12.906
 5462TIP3    H137801   6.726   4.646  12.978
 5462TIP3    H237802   6.695   4.659  12.830
 5463TIP3   OH237803   5.963   4.678  13.061
 5463TIP3    H137804   5.971   4.610  13.131
 5463TIP3    H237805   6.038   4.735  13.084
 5464TIP3   OH237806   7.098   5.003  12.736
 5464TIP3    H137807   7.056   4.932  12.785
 5464TIP3    H237808   7.099   5.075  12.801
 5465TIP3   OH237809   6.055   5.123  12.911
 5465TIP3    H137810   6.024   5.036  12.880
 5465TIP3    H237811   6.151   5.105  12.916
 5466TIP3   OH237812   5.719   4.479  12.461
 5466TIP3    H137813   5.676   4.566  12.454
 5466TIP3    H237814   5.663   4.425  12.404
 5467TIP3   OH237815   5.790   4.701  12.675
 5467TIP3    H137816   5.818   4.619  12.720
 5467TIP3    H237817   5.860   4.712  12.608
 5468TIP3   OH237818   6.809   5.521  12.757
 5468TIP3    H137819   6.873   5.452  12.730
 5468TIP3    H237820   6.785   5.488  12.844
 5469TIP3   OH237821   6.566   4.950  12.954
 5469TIP3    H137822   6.599   4.888  12.887
 5469TIP3    H237823   6.647   4.966  13.005
 5470TIP3   OH237824   6.883   4.398  12.984
 5470TIP3    H137825   6.899   4.302  12.983
 5470TIP3    H237826   6.873   4.413  12.888
 5471TIP3   OH237827   6.192   4.205  12.708
 5471TIP3    H137828   6.204   4.289  12.659
 5471TIP3    H237829   6.153   4.150  12.636
 5472TIP3   OH237830   6.969   4.219  12.545
 5472TIP3    H137831   7.033   4.182  12.611
 5472TIP3    H237832   7.029   4.271  12.491
 5473TIP3   OH237833   5.856   4.447  12.780
 5473TIP3    H137834   5.923   4.393  12.825
 5473TIP3    H237835   5.866   4.417  12.689
 5474TIP3   OH237836   6.371   4.603  12.712
 5474TIP3    H137837   6.439   4.545  12.751
 5474TIP3    H237838   6.320   4.537  12.661
 5475TIP3   OH237839   6.087   4.095  13.112
 5475TIP3    H137840   6.056   4.153  13.037
 5475TIP3    H237841   6.016   4.119  13.178
 5476TIP3   OH237842   6.811   5.043  12.464
 5476TIP3    H137843   6.786   5.017  12.375
 5476TIP3    H237844   6.782   5.137  12.470
 5477TIP3   OH237845   6.335   4.861  13.134
 5477TIP3    H137846   6.265   4.925  13.156
 5477TIP3    H237847   6.406   4.921  13.105
 5478TIP3   OH237848   7.118   4.147  12.754
 5478TIP3    H137849   7.121   4.064  12.804
 5478TIP3    H237850   7.195   4.193  12.794
 5479TIP3   OH237851   6.043   4.280  12.915
 5479TIP3    H137852   6.103   4.352  12.944
 5479TIP3    H237853   6.092   4.242  12.838
 5480TIP3   OH237854   6.180   5.061  13.216
 5480TIP3    H137855   6.175   5.153  13.182
 5480TIP3    H237856   6.092   5.053  13.260
 5481TIP3   OH237857   5.788   5.022  12.295
 5481TIP3    H137858   5.763   5.056  12.208
 5481TIP3    H237859   5.796   5.105  12.347
 5482TIP3   OH237860   7.129   5.182  12.981
 5482TIP3    H137861   7.034   5.204  12.985
 5482TIP3    H237862   7.168   5.267  12.952
 5483TIP3   OH237863   7.161   4.030  13.085
 5483TIP3    H137864   7.092   4.099  13.096
 5483TIP3    H237865   7.237   4.080  13.053
 5484TIP3   OH237866   6.478   3.831  12.860
 5484TIP3    H137867   6.466   3.734  12.847
 5484TIP3    H237868   6.388   3.859  12.882
 5485TIP3   OH237869   6.967   5.361  12.632
 5485TIP3    H137870   7.016   5.293  12.581
 5485TIP3    H237871   7.012   5.441  12.597
 5486TIP3   OH237872   7.095   5.159  12.482
 5486TIP3    H137873   7.070   5.088  12.421
 5486TIP3    H237874   7.101   5.109  12.566
 5487TIP3   OH237875   7.232   5.034  13.343
 5487TIP3    H137876   7.260   4.964  13.281
 5487TIP3    H237877   7.273   5.111  13.298
 5488TIP3   OH237878   6.707   4.708  12.307
 5488TIP3    H137879   6.638   4.767  12.271
 5488TIP3    H237880   6.778   4.718  12.242
 5489TIP3   OH237881   6.715   4.566  12.009
 5489TIP3    H137882   6.787   4.564  12.074
 5489TIP3    H237883   6.746   4.494  11.951
 5490TIP3   OH237884   7.049   4.731  12.396
 5490TIP3    H137885   6.977   4.756  12.458
 5490TIP3    H237886   7.097   4.666  12.453
 5491TIP3   OH237887   7.047   4.548  13.309
 5491TIP3    H137888   7.042   4.628  13.364
 5491TIP3    H237889   6.983   4.575  13.241
 5492TIP3   OH237890   6.213   4.795  12.592
 5492TIP3    H137891   6.182   4.757  12.507
 5492TIP3    H237892   6.275   4.726  12.625
 5493TIP3   OH237893   6.345   5.134  12.859
 5493TIP3    H137894   6.345   5.082  12.778
 5493TIP3    H237895   6.424   5.099  12.905
 5494TIP3   OH237896   6.247   4.669  12.958
 5494TIP3    H137897   6.301   4.680  12.878
 5494TIP3    H237898   6.285   4.737  13.018
 5495TIP3   OH237899   6.880   5.229  13.027
 5495TIP3    H137900   6.861   5.292  13.097
 5495TIP3    H237901   6.863   5.143  13.070
 5496TIP3   OH237902   6.342   5.114  13.427
 5496TIP3    H137903   6.300   5.188  13.476
 5496TIP3    H237904   6.275   5.094  13.357
 5497TIP3   OH237905   6.939   4.648  12.167
 5497TIP3    H137906   6.995   4.670  12.246
 5497TIP3    H237907   6.979   4.701  12.095
 5498TIP3   OH237908   6.036   4.730  13.342
 5498TIP3    H137909   6.041   4.796  13.413
 5498TIP3    H237910   5.942   4.739  13.322
 5499TIP3   OH237911   6.710   5.322  12.513
 5499TIP3    H137912   6.754   5.352  12.594
 5499TIP3    H237913   6.655   5.397  12.489
 5500TIP3   OH237914   6.166   5.317  13.502
 5500TIP3    H137915   6.160   5.307  13.405
 5500TIP3    H237916   6.074   5.304  13.529
 5501TIP3   OH237917   6.109   4.698  12.355
 5501TIP3    H137918   6.082   4.776  12.303
 5501TIP3    H237919   6.045   4.631  12.330
 5502TIP3   OH237920   5.721   4.941  13.243
 5502TIP3    H137921   5.675   4.933  13.157
 5502TIP3    H237922   5.728   4.846  13.264
 5503TIP3   OH237923   5.695   5.215  12.920
 5503TIP3    H137924   5.791   5.203  12.919
 5503TIP3    H237925   5.687   5.296  12.971
 5504TIP3   OH237926   6.615   5.239  13.376
 5504TIP3    H137927   6.621   5.323  13.426
 5504TIP3    H237928   6.528   5.203  13.401
 5505TIP3   OH237929   6.663   5.614  12.355
 5505TIP3    H137930   6.650   5.605  12.259
 5505TIP3    H237931   6.661   5.710  12.370
 5506TIP3   OH237932   6.023   5.501  12.537
 5506TIP3    H137933   6.038   5.460  12.625
 5506TIP3    H237934   5.938   5.460  12.513
 5507TIP3   OH237935   6.967   5.536  12.052
 5507TIP3    H137936   7.010   5.459  12.008
 5507TIP3    H237937   6.968   5.509  12.146
 5508TIP3   OH237938   6.932   5.526  12.332
 5508TIP3    H137939   6.836   5.535  12.348
 5508TIP3    H237940   6.955   5.452  12.390
 5509TIP3   OH237941   7.184   4.449  13.540
 5509TIP3    H137942   7.181   4.484  13.450
 5509TIP3    H237943   7.238   4.367  13.524
 5510TIP3   OH237944   5.948   5.072  13.338
 5510TIP3    H137945   5.970   5.035  13.426
 5510TIP3    H237946   5.861   5.033  13.316
 5511TIP3   OH237947   6.213   3.921  12.936
 5511TIP3    H137948   6.127   3.906  12.890
 5511TIP3    H237949   6.199   4.013  12.962
 5512TIP3   OH237950   6.683   3.887  13.268
 5512TIP3    H137951   6.724   3.845  13.346
 5512TIP3    H237952   6.587   3.872  13.284
 5513TIP3   OH237953   7.002   4.267  13.352
 5513TIP3    H137954   6.954   4.250  13.436
 5513TIP3    H237955   6.995   4.363  13.339
 5514TIP3   OH237956   7.090   4.744  11.948
 5514TIP3    H137957   7.082   4.729  11.851
 5514TIP3    H237958   7.166   4.801  11.951
 5515TIP3   OH237959   6.645   4.146  11.999
 5515TIP3    H137960   6.613   4.139  12.091
 5515TIP3    H237961   6.614   4.058  11.968
 5516TIP3   OH237962   6.227   4.417  13.058
 5516TIP3    H137963   6.152   4.419  13.121
 5516TIP3    H237964   6.223   4.508  13.020
 5517TIP3   OH237965   6.222   4.428  12.544
 5517TIP3    H137966   6.128   4.404  12.530
 5517TIP3    H237967   6.260   4.400  12.458
 5518TIP3   OH237968   6.776   4.480  12.422
 5518TIP3    H137969   6.735   4.561  12.384
 5518TIP3    H237970   6.844   4.463  12.355
 5519TIP3   OH237971   6.681   4.501  13.565
 5519TIP3    H137972   6.629   4.422  13.595
 5519TIP3    H237973   6.765   4.488  13.612
 5520TIP3   OH237974   6.875   4.430  12.707
 5520TIP3    H137975   6.851   4.485  12.630
 5520TIP3    H237976   6.887   4.344  12.661
 5521TIP3   OH237977   5.991   4.439  13.225
 5521TIP3    H137978   5.997   4.483  13.312
 5521TIP3    H237979   5.942   4.359  13.246
 5522TIP3   OH237980   6.326   4.182  11.911
 5522TIP3    H137981   6.280   4.140  11.986
 5522TIP3    H237982   6.255   4.225  11.861
 5523TIP3   OH237983   5.654   4.153  12.623
 5523TIP3    H137984   5.722   4.150  12.694
 5523TIP3    H237985   5.699   4.116  12.546
 5524TIP3   OH237986   5.781   4.225  12.159
 5524TIP3    H137987   5.833   4.286  12.104
 5524TIP3    H237988   5.712   4.288  12.191
 5525TIP3   OH237989   6.796   4.586  13.160
 5525TIP3    H137990   6.836   4.517  13.103
 5525TIP3    H237991   6.750   4.534  13.228
 5526TIP3   OH237992   6.479   4.185  12.643
 5526TIP3    H137993   6.385   4.186  12.672
 5526TIP3    H237994   6.528   4.169  12.724
 5527TIP3   OH237995   5.959   4.339  12.532
 5527TIP3    H137996   5.871   4.355  12.492
 5527TIP3    H237997   5.987   4.256  12.490
 5528TIP3   OH237998   6.323   4.344  12.294
 5528TIP3    H137999   6.419   4.355  12.310
 5528TIP3    H238000   6.299   4.413  12.228
 5529TIP3   OH238001   6.911   4.105  12.970
 5529TIP3    H138002   6.844   4.112  13.040
 5529TIP3    H238003   6.862   4.084  12.889
 5530TIP3   OH238004   6.194   4.462  12.052
 5530TIP3    H138005   6.140   4.424  11.981
 5530TIP3    H238006   6.276   4.483  12.005
 5531TIP3   OH238007   7.230   5.678  13.603
 5531TIP3    H138008   7.266   5.709  13.518
 5531TIP3    H238009   7.305   5.703  13.659
 5532TIP3   OH238010   6.007   4.916  13.560
 5532TIP3    H138011   6.079   4.946  13.618
 5532TIP3    H238012   5.928   4.928  13.617
 5533TIP3   OH238013   6.606   4.460  12.834
 5533TIP3    H138014   6.666   4.407  12.780
 5533TIP3    H238015   6.591   4.405  12.912
 5534TIP3   OH238016   6.107   4.075  12.477
 5534TIP3    H138017   6.076   3.982  12.476
 5534TIP3    H238018   6.186   4.068  12.422
 5535TIP3   OH238019   6.467   4.291  13.077
 5535TIP3    H138020   6.388   4.348  13.083
 5535TIP3    H238021   6.526   4.330  13.145
 5536TIP3   OH238022   6.529   4.915  12.245
 5536TIP3    H138023   6.449   4.869  12.211
 5536TIP3    H238024   6.506   4.928  12.339
 5537TIP3   OH238025   7.216   4.837  13.124
 5537TIP3    H138026   7.288   4.850  13.059
 5537TIP3    H238027   7.139   4.838  13.063
 5538TIP3   OH238028   6.915   4.198  12.061
 5538TIP3    H138029   6.819   4.210  12.047
 5538TIP3    H238030   6.943   4.284  12.098
 5539TIP3   OH238031   6.679   4.942  13.369
 5539TIP3    H138032   6.643   4.899  13.447
 5539TIP3    H238033   6.655   5.035  13.380
 5540TIP3   OH238034   6.985   4.390  12.222
 5540TIP3    H138035   7.072   4.376  12.265
 5540TIP3    H238036   6.995   4.474  12.174
 5541TIP3   OH238037   6.040   4.855  12.825
 5541TIP3    H138038   6.108   4.846  12.755
 5541TIP3    H238039   6.046   4.769  12.870
 5542TIP3   OH238040   6.736   5.062  12.148
 5542TIP3    H138041   6.704   5.147  12.184
 5542TIP3    H238042   6.664   5.000  12.171
 5543TIP3   OH238043   5.740   4.695  13.350
 5543TIP3    H138044   5.756   4.651  13.436
 5543TIP3    H238045   5.677   4.634  13.308
 5544TIP3   OH238046   6.440   4.651  13.568
 5544TIP3    H138047   6.408   4.620  13.483
 5544TIP3    H238048   6.532   4.618  13.568
 5545TIP3   OH238049   6.908   5.183  13.364
 5545TIP3    H138050   6.816   5.201  13.340
 5545TIP3    H238051   6.906   5.213  13.456
 5546TIP3   OH238052   7.019   4.764  12.954
 5546TIP3    H138053   6.926   4.743  12.939
 5546TIP3    H238054   7.067   4.691  12.911
 5547TIP3   OH238055   6.277   5.200  12.563
 5547TIP3    H138056   6.327   5.281  12.542
 5547TIP3    H238057   6.189   5.223  12.530
 5548TIP3   OH238058   5.854   4.684  12.020
 5548TIP3    H138059   5.912   4.751  12.062
 5548TIP3    H238060   5.765   4.715  12.045
 5549TIP3   OH238061   6.418   4.967  12.514
 5549TIP3    H138062   6.387   5.059  12.524
 5549TIP3    H238063   6.347   4.917  12.559
 5550TIP3   OH238064   6.463   5.385  13.156
 5550TIP3    H138065   6.510   5.466  13.127
 5550TIP3    H238066   6.525   5.351  13.224
 5551TIP3   OH238067   6.286   5.466  12.467
 5551TIP3    H138068   6.190   5.480  12.481
 5551TIP3    H238069   6.323   5.549  12.502
 5552TIP3   OH238070   6.818   4.985  13.118
 5552TIP3    H138071   6.784   4.965  13.208
 5552TIP3    H238072   6.880   4.913  13.101
 5553TIP3   OH238073   7.048   5.090  12.026
 5553TIP3    H138074   7.080   5.047  12.107
 5553TIP3    H238075   6.953   5.073  12.035
 5554TIP3   OH238076   7.098   5.441  13.365
 5554TIP3    H138077   7.027   5.394  13.317
 5554TIP3    H238078   7.119   5.513  13.301
 5555TIP3   OH238079   5.907   4.166  13.305
 5555TIP3    H138080   5.816   4.204  13.304
 5555TIP3    H238081   5.891   4.083  13.354
 5556TIP3   OH238082   7.128   4.951  12.248
 5556TIP3    H138083   7.105   4.874  12.306
 5556TIP3    H238084   7.221   4.963  12.271
 5557TIP3   OH238085   5.865   5.347  13.148
 5557TIP3    H138086   5.895   5.254  13.149
 5557TIP3    H238087   5.891   5.376  13.236
 5558TIP3   OH238088   6.463   5.200  11.876
 5558TIP3    H138089   6.473   5.123  11.817
 5558TIP3    H238090   6.418   5.157  11.953
 5559TIP3   OH238091   6.340   5.152  12.121
 5559TIP3    H138092   6.367   5.101  12.198
 5559TIP3    H238093   6.349   5.245  12.154
 5560TIP3   OH238094   5.994   4.877  12.170
 5560TIP3    H138095   5.923   4.916  12.224
 5560TIP3    H238096   6.045   4.955  12.141
 5561TIP3   OH238097   6.771   4.145  13.204
 5561TIP3    H138098   6.848   4.152  13.262
 5561TIP3    H238099   6.739   4.055  13.224
 5562TIP3   OH238100   6.857   4.101  12.311
 5562TIP3    H138101   6.875   4.149  12.228
 5562TIP3    H238102   6.912   4.148  12.375
 5563TIP3   OH238103   6.620   5.319  12.191
 5563TIP3    H138104   6.538   5.372  12.198
 5563TIP3    H238105   6.674   5.374  12.132
 5564TIP3   OH238106   6.575   4.278  12.392
 5564TIP3    H138107   6.653   4.337  12.397
 5564TIP3    H238108   6.548   4.266  12.485
 5565TIP3   OH238109   6.631   4.380  13.312
 5565TIP3    H138110   6.640   4.436  13.391
 5565TIP3    H238111   6.698   4.310  13.320
 5566TIP3   OH238112   6.655   3.984  12.479
 5566TIP3    H138113   6.627   4.049  12.545
 5566TIP3    H238114   6.727   4.037  12.436
 5567TIP3   OH238115   6.360   5.422  12.194
 5567TIP3    H138116   6.370   5.503  12.139
 5567TIP3    H238117   6.333   5.458  12.281
 5568TIP3   OH238118   6.225   4.094  12.152
 5568TIP3    H138119   6.220   4.184  12.190
 5568TIP3    H238120   6.316   4.070  12.178
 5569TIP3   OH238121   7.235   4.144  13.376
 5569TIP3    H138122   7.152   4.197  13.380
 5569TIP3    H238123   7.275   4.173  13.294
 5570TIP3   OH238124   7.108   4.546  12.801
 5570TIP3    H138125   7.026   4.503  12.770
 5570TIP3    H238126   7.151   4.475  12.850
 5571TIP3   OH238127   6.048   5.138  12.056
 5571TIP3    H138128   6.115   5.201  12.088
 5571TIP3    H238129   6.100   5.092  11.987
 5572TIP3   OH238130   5.883   4.406  11.969
 5572TIP3    H138131   5.885   4.502  11.993
 5572TIP3    H238132   5.792   4.389  11.942
 5573TIP3   OH238133   7.222   5.474  12.962
 5573TIP3    H138134   7.206   5.542  12.894
 5573TIP3    H238135   7.316   5.483  12.980
 5574TIP3   OH238136   5.967   3.883  12.845
 5574TIP3    H138137   5.945   3.886  12.749
 5574TIP3    H238138   5.922   3.799  12.869
 5575TIP3   OH238139   5.860   5.276  12.459
 5575TIP3    H138140   5.775   5.321  12.455
 5575TIP3    H238141   5.908   5.323  12.389
 5576TIP3   OH238142   5.780   5.541  13.589
 5576TIP3    H138143   5.841   5.521  13.662
 5576TIP3    H238144   5.740   5.455  13.570
 5577TIP3   OH238145   6.248   5.432  13.748
 5577TIP3    H138146   6.324   5.383  13.781
 5577TIP3    H238147   6.246   5.405  13.654
 5578TIP3   OH238148   6.663   5.385  11.888
 5578TIP3    H138149   6.593   5.319  11.911
 5578TIP3    H238150   6.735   5.324  11.864
 5579TIP3   OH238151   6.905   5.270  13.623
 5579TIP3    H138152   6.870   5.183  13.651
 5579TIP3    H238153   6.980   5.281  13.684
 5580TIP3   OH238154   7.115   5.361  11.912
 5580TIP3    H138155   7.146   5.281  11.957
 5580TIP3    H238156   7.190   5.379  11.852
 5581TIP3   OH238157   5.772   4.919  13.688
 5581TIP3    H138158   5.787   4.828  13.656
 5581TIP3    H238159   5.698   4.945  13.630
 5582TIP3   OH238160   6.206   4.953  11.889
 5582TIP3    H138161   6.220   4.877  11.947
 5582TIP3    H238162   6.281   4.941  11.827
 5583TIP3   OH238163   6.444   4.918  13.625
 5583TIP3    H138164   6.409   4.948  13.539
 5583TIP3    H238165   6.450   4.820  13.615
 5584TIP3   OH238166   6.749   5.064  11.867
 5584TIP3    H138167   6.722   5.072  11.960
 5584TIP3    H238168   6.730   4.968  11.852
 5585TIP3   OH238169   7.010   4.900  13.365
 5585TIP3    H138170   7.089   4.959  13.359
 5585TIP3    H238171   6.943   4.969  13.369
 5586TIP3   OH238172   5.868   4.641  13.624
 5586TIP3    H138173   5.903   4.552  13.613
 5586TIP3    H238174   5.836   4.643  13.715
 5587TIP3   OH238175   6.328   4.755  12.133
 5587TIP3    H138176   6.276   4.701  12.195
 5587TIP3    H238177   6.357   4.687  12.067
 5588TIP3   OH238178   6.254   4.536  13.361
 5588TIP3    H138179   6.194   4.608  13.386
 5588TIP3    H238180   6.293   4.572  13.280
 5589TIP3   OH238181   6.434   4.577  11.952
 5589TIP3    H138182   6.419   4.568  11.856
 5589TIP3    H238183   6.532   4.582  11.958
 5590TIP3   OH238184   6.761   4.794  13.695
 5590TIP3    H138185   6.856   4.792  13.682
 5590TIP3    H238186   6.745   4.715  13.750
 5591TIP3   OH238187   6.293   4.273  13.466
 5591TIP3    H138188   6.308   4.204  13.400
 5591TIP3    H238189   6.290   4.356  13.413
 5592TIP3   OH238190   6.336   4.116  13.221
 5592TIP3    H138191   6.391   4.166  13.154
 5592TIP3    H238192   6.246   4.131  13.185
 5593TIP3   OH238193   6.487   4.660  13.246
 5593TIP3    H138194   6.563   4.644  13.189
 5593TIP3    H238195   6.452   4.744  13.213
 5594TIP3   OH238196   6.934   4.439  13.743
 5594TIP3    H138197   6.956   4.345  13.732
 5594TIP3    H238198   7.021   4.480  13.739
 5595TIP3   OH238199   7.064   4.720  13.559
 5595TIP3    H138200   7.035   4.788  13.495
 5595TIP3    H238201   7.157   4.708  13.538
 5596TIP3   OH238202   6.140   4.399  13.660
 5596TIP3    H138203   6.064   4.340  13.640
 5596TIP3    H238204   6.205   4.363  13.597
 5597TIP3   OH238205   6.423   3.851  13.271
 5597TIP3    H138206   6.414   3.948  13.262
 5597TIP3    H238207   6.354   3.801  13.225
 5598TIP3   OH238208   6.541   4.289  13.624
 5598TIP3    H138209   6.509   4.265  13.713
 5598TIP3    H238210   6.462   4.270  13.570
 5599TIP3   OH238211   6.808   4.205  13.533
 5599TIP3    H138212   6.712   4.207  13.546
 5599TIP3    H238213   6.840   4.140  13.599
 5600TIP3   OH238214   6.980   4.062  13.726
 5600TIP3    H138215   6.965   3.965  13.725
 5600TIP3    H238216   6.944   4.093  13.811
 5601TIP3   OH238217   5.948   4.194  13.637
 5601TIP3    H138218   5.971   4.121  13.577
 5601TIP3    H238219   5.938   4.146  13.721
 5602TIP3   OH238220   6.434   3.794  13.532
 5602TIP3    H138221   6.503   3.724  13.532
 5602TIP3    H238222   6.427   3.808  13.436
 5603TIP3   OH238223   6.471   3.956  13.743
 5603TIP3    H138224   6.454   3.905  13.661
 5603TIP3    H238225   6.411   4.032  13.732
 5604TIP3   OH238226   6.418   5.647  12.059
 5604TIP3    H138227   6.515   5.656  12.066
 5604TIP3    H238228   6.403   5.708  11.986
 5605TIP3   OH238229   5.773   5.105  12.007
 5605TIP3    H138230   5.870   5.114  12.025
 5605TIP3    H238231   5.778   5.040  11.932
 5606TIP3   OH238232   5.651   5.643  12.503
 5606TIP3    H138233   5.579   5.595  12.457
 5606TIP3    H238234   5.679   5.578  12.570
 5607TIP3   OH238235   5.733   5.457  12.691
 5607TIP3    H138236   5.698   5.369  12.711
 5607TIP3    H238237   5.758   5.489  12.779
 5608TIP3   OH238238   7.279   5.261  13.209
 5608TIP3    H138239   7.214   5.306  13.264
 5608TIP3    H238240   7.227   5.226  13.135
 5609TIP3   OH238241   7.188   4.563  12.544
 5609TIP3    H138242   7.214   4.470  12.547
 5609TIP3    H238243   7.200   4.588  12.638
 5610TIP3   OH238244   5.740   4.765  12.940
 5610TIP3    H138245   5.757   4.756  12.844
 5610TIP3    H238246   5.829   4.747  12.975
 5611TIP3   OH238247   7.247   4.157  11.881
 5611TIP3    H138248   7.305   4.115  11.944
 5611TIP3    H238249   7.160   4.116  11.900
 5612TIP3   OH238250   7.202   4.308  12.364
 5612TIP3    H138251   7.231   4.224  12.404
 5612TIP3    H238252   7.287   4.343  12.334
 5613TIP3   OH238253  -0.053   4.285  12.924
 5613TIP3    H138254   0.035   4.320  12.910
 5613TIP3    H238255  -0.075   4.349  12.994
 5614TIP3   OH238256   7.278   4.447  13.228
 5614TIP3    H138257   7.184   4.473  13.237
 5614TIP3    H238258   7.314   4.515  13.169
 5615TIP3   OH238259   5.701   4.295  13.556
 5615TIP3    H138260   5.794   4.272  13.573
 5615TIP3    H238261   5.655   4.212  13.583
 5616TIP3   OH238262   7.183   4.012  12.450
 5616TIP3    H138263   7.276   3.995  12.472
 5616TIP3    H238264   7.184   3.970  12.361
 5617TIP3   OH238265   5.821   4.123  12.841
 5617TIP3    H138266   5.866   4.041  12.866
 5617TIP3    H238267   5.875   4.193  12.879
 5618TIP3   OH238268   5.649   4.424  12.944
 5618TIP3    H138269   5.706   4.399  12.868
 5618TIP3    H238270   5.696   4.504  12.971
 5619TIP3   OH238271   5.686   4.051  12.352
 5619TIP3    H138272   5.592   4.067  12.336
 5619TIP3    H238273   5.728   4.099  12.279
 5620TIP3   OH238274   7.141   5.527  12.556
 5620TIP3    H138275   7.208   5.494  12.495
 5620TIP3    H238276   7.193   5.585  12.613
 5621TIP3   OH238277   5.682   3.915  13.181
 5621TIP3    H138278   5.615   3.896  13.249
 5621TIP3    H238279   5.636   3.982  13.127
 5622TIP3   OH238280   5.905   5.234  13.597
 5622TIP3    H138281   5.821   5.257  13.553
 5622TIP3    H238282   5.878   5.227  13.689
 5623TIP3   OH238283   6.195   5.336  13.225
 5623TIP3    H138284   6.162   5.422  13.198
 5623TIP3    H238285   6.287   5.344  13.194
 5624TIP3   OH238286   6.627   5.478  13.515
 5624TIP3    H138287   6.640   5.443  13.606
 5624TIP3    H238288   6.717   5.509  13.491
 5625TIP3   OH238289   6.857   5.604  13.447
 5625TIP3    H138290   6.932   5.547  13.423
 5625TIP3    H238291   6.896   5.650  13.525
 5626TIP3   OH238292   5.937   5.659  13.224
 5626TIP3    H138293   5.864   5.709  13.185
 5626TIP3    H238294   5.906   5.640  13.314
 5627TIP3   OH238295   6.184   5.617  13.132
 5627TIP3    H138296   6.095   5.633  13.171
 5627TIP3    H238297   6.178   5.676  13.054
 5628TIP3   OH238298   6.651   5.606  13.049
 5628TIP3    H138299   6.608   5.664  12.984
 5628TIP3    H238300   6.667   5.671  13.122
 5629TIP3   OH238301   6.883   5.488  13.151
 5629TIP3    H138302   6.797   5.516  13.115
 5629TIP3    H238303   6.929   5.574  13.145
 5630TIP3   OH238304   7.126   5.646  13.173
 5630TIP3    H138305   7.128   5.741  13.151
 5630TIP3    H238306   7.163   5.609  13.090
 5631TIP3   OH238307   5.883   5.524  12.919
 5631TIP3    H138308   5.875   5.478  13.005
 5631TIP3    H238309   5.965   5.486  12.880
 5632TIP3   OH238310   6.090   5.395  12.784
 5632TIP3    H138311   6.074   5.302  12.807
 5632TIP3    H238312   6.176   5.411  12.829
 5633TIP3   OH238313   6.348   5.444  12.871
 5633TIP3    H138314   6.366   5.352  12.845
 5633TIP3    H238315   6.355   5.438  12.968
 5634TIP3   OH238316   6.693   4.009  12.787
 5634TIP3    H138317   6.628   3.942  12.813
 5634TIP3    H238318   6.751   3.958  12.728
 5635TIP3   OH238319   7.211   3.813  12.793
 5635TIP3    H138320   7.269   3.875  12.749
 5635TIP3    H238321   7.122   3.848  12.772
 5636TIP3   OH238322   5.933   3.871  12.570
 5636TIP3    H138323   5.854   3.852  12.517
 5636TIP3    H238324   5.979   3.785  12.565
 5637TIP3   OH238325   5.810   3.847  12.142
 5637TIP3    H138326   5.859   3.912  12.089
 5637TIP3    H238327   5.753   3.904  12.196
 5638TIP3   OH238328   6.380   3.864  12.548
 5638TIP3    H138329   6.470   3.900  12.541
 5638TIP3    H238330   6.377   3.841  12.640
 5639TIP3   OH238331   6.954   3.861  12.712
 5639TIP3    H138332   6.948   3.880  12.617
 5639TIP3    H238333   6.911   3.773  12.722
 5640TIP3   OH238334   7.075   3.860  12.268
 5640TIP3    H138335   7.005   3.927  12.264
 5640TIP3    H238336   7.028   3.780  12.301
 5641TIP3   OH238337   5.801   5.441  12.245
 5641TIP3    H138338   5.736   5.440  12.173
 5641TIP3    H238339   5.801   5.537  12.263
 5642TIP3   OH238340   5.993   4.043  11.990
 5642TIP3    H138341   6.046   3.978  11.942
 5642TIP3    H238342   6.058   4.073  12.056
 5643TIP3   OH238343   6.496   4.065  12.234
 5643TIP3    H138344   6.521   4.008  12.308
 5643TIP3    H238345   6.503   4.152  12.280
 5644TIP3   OH238346   6.688   5.572  12.079
 5644TIP3    H138347   6.780   5.596  12.057
 5644TIP3    H238348   6.667   5.520  11.998
 5645TIP3   OH238349   5.924   3.924  13.512
 5645TIP3    H138350   5.882   3.848  13.556
 5645TIP3    H238351   6.012   3.921  13.556
 5646TIP3   OH238352   6.123   3.863  13.676
 5646TIP3    H138353   6.213   3.829  13.660
 5646TIP3    H238354   6.085   3.784  13.719
 5647TIP3   OH238355   5.981   5.540  11.939
 5647TIP3    H138356   5.955   5.566  12.029
 5647TIP3    H238357   6.059   5.484  11.955
 5648TIP3   OH238358   6.962   3.794  13.692
 5648TIP3    H138359   6.971   3.747  13.778
 5648TIP3    H238360   7.055   3.792  13.659
 5649TIP3   OH238361   7.261   5.385  13.572
 5649TIP3    H138362   7.197   5.380  13.498
 5649TIP3    H238363   7.264   5.484  13.580
 5650TIP3   OH238364   1.185   6.669  12.555
 5650TIP3    H138365   1.183   6.767  12.554
 5650TIP3    H238366   1.112   6.647  12.495
 5651TIP3   OH238367   1.072   6.598  12.906
 5651TIP3    H138368   1.068   6.531  12.977
 5651TIP3    H238369   1.036   6.545  12.832
 5652TIP3   OH238370   0.311   6.563  13.058
 5652TIP3    H138371   0.317   6.495  13.129
 5652TIP3    H238372   0.381   6.623  13.085
 5653TIP3   OH238373   1.439   6.890  12.736
 5653TIP3    H138374   1.397   6.818  12.785
 5653TIP3    H238375   1.443   6.962  12.801
 5654TIP3   OH238376   0.399   7.008  12.916
 5654TIP3    H138377   0.366   6.924  12.880
 5654TIP3    H238378   0.495   6.990  12.914
 5655TIP3   OH238379   0.089   6.364  12.418
 5655TIP3    H138380   0.045   6.444  12.456
 5655TIP3    H238381   0.010   6.311  12.418
 5656TIP3   OH238382   0.131   6.579  12.671
 5656TIP3    H138383   0.160   6.503  12.723
 5656TIP3    H238384   0.205   6.596  12.611
 5657TIP3   OH238385   0.906   6.834  12.954
 5657TIP3    H138386   0.942   6.773  12.887
 5657TIP3    H238387   0.988   6.854  13.004
 5658TIP3   OH238388   1.767   6.003  13.026
 5658TIP3    H138389   1.785   6.061  13.102
 5658TIP3    H238390   1.825   6.045  12.960
 5659TIP3   OH238391   1.231   6.284  12.985
 5659TIP3    H138392   1.240   6.187  12.985
 5659TIP3    H238393   1.211   6.297  12.890
 5660TIP3   OH238394   0.490   6.092  12.694
 5660TIP3    H138395   0.550   6.164  12.665
 5660TIP3    H238396   0.492   6.029  12.621
 5661TIP3   OH238397   1.310   6.100  12.543
 5661TIP3    H138398   1.375   6.068  12.610
 5661TIP3    H238399   1.366   6.158  12.490
 5662TIP3   OH238400   0.193   6.324  12.774
 5662TIP3    H138401   0.268   6.279  12.820
 5662TIP3    H238402   0.216   6.297  12.683
 5663TIP3   OH238403   0.716   6.490  12.711
 5663TIP3    H138404   0.778   6.428  12.753
 5663TIP3    H238405   0.663   6.422  12.664
 5664TIP3   OH238406   1.812   6.143  13.253
 5664TIP3    H138407   1.751   6.219  13.242
 5664TIP3    H238408   1.815   6.135  13.349
 5665TIP3   OH238409   0.430   5.986  13.105
 5665TIP3    H138410   0.398   6.044  13.034
 5665TIP3    H238411   0.365   6.003  13.177
 5666TIP3   OH238412   1.154   6.927  12.465
 5666TIP3    H138413   1.131   6.904  12.374
 5666TIP3    H238414   1.126   7.021  12.471
 5667TIP3   OH238415   0.681   6.744  13.135
 5667TIP3    H138416   0.609   6.807  13.156
 5667TIP3    H238417   0.750   6.805  13.105
 5668TIP3   OH238418   1.491   6.035  12.742
 5668TIP3    H138419   1.469   5.958  12.796
 5668TIP3    H238420   1.558   6.078  12.798
 5669TIP3   OH238421   0.380   6.172  12.914
 5669TIP3    H138422   0.448   6.234  12.947
 5669TIP3    H238423   0.435   6.130  12.842
 5670TIP3   OH238424   0.524   6.945  13.213
 5670TIP3    H138425   0.518   7.036  13.180
 5670TIP3    H238426   0.436   6.937  13.257
 5671TIP3   OH238427   0.129   6.914  12.292
 5671TIP3    H138428   0.106   6.947  12.204
 5671TIP3    H238429   0.140   6.995  12.345
 5672TIP3   OH238430   1.493   7.077  12.976
 5672TIP3    H138431   1.395   7.085  12.985
 5672TIP3    H238432   1.521   7.166  12.949
 5673TIP3   OH238433   1.525   5.903  13.110
 5673TIP3    H138434   1.452   5.966  13.101
 5673TIP3    H238435   1.596   5.945  13.058
 5674TIP3   OH238436   0.823   5.714  12.855
 5674TIP3    H138437   0.806   5.618  12.853
 5674TIP3    H238438   0.736   5.749  12.887
 5675TIP3   OH238439   1.321   7.223  12.612
 5675TIP3    H138440   1.378   7.161  12.561
 5675TIP3    H238441   1.361   7.306  12.588
 5676TIP3   OH238442   1.444   7.036  12.481
 5676TIP3    H138443   1.408   6.970  12.421
 5676TIP3    H238444   1.443   6.991  12.568
 5677TIP3   OH238445   1.602   6.909  13.332
 5677TIP3    H138446   1.614   6.842  13.262
 5677TIP3    H238447   1.624   6.992  13.285
 5678TIP3   OH238448   1.051   6.594  12.307
 5678TIP3    H138449   0.981   6.652  12.272
 5678TIP3    H238450   1.122   6.604  12.241
 5679TIP3   OH238451   1.057   6.449  12.011
 5679TIP3    H138452   1.131   6.451  12.074
 5679TIP3    H238453   1.091   6.381  11.951
 5680TIP3   OH238454   1.790   6.537  13.136
 5680TIP3    H138455   1.724   6.609  13.140
 5680TIP3    H238456   1.839   6.560  13.055
 5681TIP3   OH238457   1.396   6.614  12.400
 5681TIP3    H138458   1.321   6.638  12.460
 5681TIP3    H238459   1.443   6.547  12.452
 5682TIP3   OH238460   1.388   6.432  13.312
 5682TIP3    H138461   1.389   6.514  13.364
 5682TIP3    H238462   1.324   6.460  13.243
 5683TIP3   OH238463   0.558   6.684  12.592
 5683TIP3    H138464   0.523   6.643  12.509
 5683TIP3    H238465   0.618   6.613  12.626
 5684TIP3   OH238466   0.689   7.022  12.858
 5684TIP3    H138467   0.689   6.967  12.779
 5684TIP3    H238468   0.766   6.985  12.906
 5685TIP3   OH238469   0.590   6.560  12.957
 5685TIP3    H138470   0.646   6.565  12.878
 5685TIP3    H238471   0.630   6.623  13.019
 5686TIP3   OH238472   1.234   7.113  13.030
 5686TIP3    H138473   1.198   7.176  13.092
 5686TIP3    H238474   1.205   7.027  13.070
 5687TIP3   OH238475   0.685   6.999  13.427
 5687TIP3    H138476   0.641   7.074  13.475
 5687TIP3    H238477   0.619   6.977  13.357
 5688TIP3   OH238478   1.282   6.536  12.168
 5688TIP3    H138479   1.339   6.553  12.247
 5688TIP3    H238480   1.329   6.583  12.094
 5689TIP3   OH238481   0.379   6.616  13.345
 5689TIP3    H138482   0.383   6.685  13.414
 5689TIP3    H238483   0.285   6.625  13.322
 5690TIP3   OH238484   1.050   7.205  12.514
 5690TIP3    H138485   1.100   7.237  12.590
 5690TIP3    H238486   0.999   7.282  12.487
 5691TIP3   OH238487   0.508   7.193  13.500
 5691TIP3    H138488   0.499   7.192  13.403
 5691TIP3    H238489   0.414   7.187  13.526
 5692TIP3   OH238490   1.656   5.709  12.157
 5692TIP3    H138491   1.562   5.720  12.181
 5692TIP3    H238492   1.676   5.793  12.112
 5693TIP3   OH238493   0.455   6.583  12.354
 5693TIP3    H138494   0.426   6.661  12.302
 5693TIP3    H238495   0.390   6.517  12.331
 5694TIP3   OH238496   1.773   7.145  11.992
 5694TIP3    H138497   1.782   7.239  12.009
 5694TIP3    H238498   1.865   7.112  11.993
 5695TIP3   OH238499   0.122   6.813  13.218
 5695TIP3    H138500   0.046   6.825  13.158
 5695TIP3    H238501   0.085   6.734  13.264
 5696TIP3   OH238502   0.068   7.120  12.897
 5696TIP3    H138503   0.153   7.087  12.925
 5696TIP3    H238504   0.045   7.177  12.971
 5697TIP3   OH238505   1.860   7.170  13.497
 5697TIP3    H138506   1.850   7.074  13.484
 5697TIP3    H238507   1.771   7.196  13.529
 5698TIP3   OH238508   0.957   7.126  13.374
 5698TIP3    H138509   0.967   7.207  13.426
 5698TIP3    H238510   0.872   7.086  13.403
 5699TIP3   OH238511   1.577   6.317  13.536
 5699TIP3    H138512   1.530   6.362  13.465
 5699TIP3    H238513   1.576   6.225  13.506
 5700TIP3   OH238514   0.296   6.965  13.343
 5700TIP3    H138515   0.311   6.921  13.429
 5700TIP3    H238516   0.212   6.923  13.313
 5701TIP3   OH238517   0.561   5.807  12.929
 5701TIP3    H138518   0.469   5.795  12.896
 5701TIP3    H238519   0.548   5.889  12.981
 5702TIP3   OH238520   1.027   5.772  13.268
 5702TIP3    H138521   1.063   5.730  13.348
 5702TIP3    H238522   0.929   5.762  13.281
 5703TIP3   OH238523   1.355   6.158  13.361
 5703TIP3    H138524   1.295   6.136  13.435
 5703TIP3    H238525   1.334   6.250  13.335
 5704TIP3   OH238526   1.438   6.621  11.956
 5704TIP3    H138527   1.423   6.628  11.859
 5704TIP3    H238528   1.510   6.686  11.956
 5705TIP3   OH238529   0.982   6.043  12.001
 5705TIP3    H138530   0.958   6.026  12.093
 5705TIP3    H238531   0.968   5.948  11.969
 5706TIP3   OH238532   0.567   6.306  13.063
 5706TIP3    H138533   0.491   6.303  13.123
 5706TIP3    H238534   0.565   6.394  13.020
 5707TIP3   OH238535   0.567   6.319  12.539
 5707TIP3    H138536   0.474   6.289  12.531
 5707TIP3    H238537   0.605   6.283  12.458
 5708TIP3   OH238538   1.118   6.366  12.420
 5708TIP3    H138539   1.079   6.448  12.383
 5708TIP3    H238540   1.187   6.348  12.354
 5709TIP3   OH238541   1.023   6.386  13.565
 5709TIP3    H138542   0.970   6.308  13.595
 5709TIP3    H238543   1.107   6.374  13.612
 5710TIP3   OH238544   1.227   6.315  12.703
 5710TIP3    H138545   1.191   6.370  12.632
 5710TIP3    H238546   1.230   6.229  12.658
 5711TIP3   OH238547   0.329   6.331  13.227
 5711TIP3    H138548   0.334   6.370  13.315
 5711TIP3    H238549   0.285   6.246  13.246
 5712TIP3   OH238550   0.669   6.085  11.917
 5712TIP3    H138551   0.628   6.026  11.983
 5712TIP3    H238552   0.595   6.108  11.859
 5713TIP3   OH238553   0.035   6.071  12.605
 5713TIP3    H138554   0.069   6.037  12.690
 5713TIP3    H238555   0.049   5.996  12.548
 5714TIP3   OH238556   0.122   6.126  12.156
 5714TIP3    H138557   0.179   6.181  12.098
 5714TIP3    H238558   0.050   6.182  12.181
 5715TIP3   OH238559   1.140   6.471  13.160
 5715TIP3    H138560   1.176   6.402  13.100
 5715TIP3    H238561   1.092   6.419  13.226
 5716TIP3   OH238562   0.837   6.033  12.618
 5716TIP3    H138563   0.749   6.064  12.651
 5716TIP3    H238564   0.872   6.053  12.708
 5717TIP3   OH238565   0.301   6.227  12.528
 5717TIP3    H138566   0.213   6.240  12.488
 5717TIP3    H238567   0.329   6.140  12.492
 5718TIP3   OH238568   0.665   6.231  12.293
 5718TIP3    H138569   0.761   6.241  12.311
 5718TIP3    H238570   0.641   6.300  12.228
 5719TIP3   OH238571   1.262   5.993  12.968
 5719TIP3    H138572   1.192   5.999  13.038
 5719TIP3    H238573   1.210   5.969  12.890
 5720TIP3   OH238574   0.536   6.351  12.051
 5720TIP3    H138575   0.485   6.310  11.980
 5720TIP3    H238576   0.620   6.368  12.005
 5721TIP3   OH238577   0.347   6.806  13.558
 5721TIP3    H138578   0.421   6.828  13.618
 5721TIP3    H238579   0.272   6.814  13.620
 5722TIP3   OH238580   0.971   6.355  12.841
 5722TIP3    H138581   1.004   6.291  12.778
 5722TIP3    H238582   0.926   6.293  12.903
 5723TIP3   OH238583   0.445   5.961  12.469
 5723TIP3    H138584   0.416   5.869  12.479
 5723TIP3    H238585   0.530   5.954  12.423
 5724TIP3   OH238586   0.820   6.174  13.108
 5724TIP3    H138587   0.740   6.226  13.082
 5724TIP3    H238588   0.875   6.229  13.164
 5725TIP3   OH238589   0.871   6.799  12.245
 5725TIP3    H138590   0.791   6.753  12.212
 5725TIP3    H238591   0.849   6.812  12.340
 5726TIP3   OH238592   1.591   6.721  13.125
 5726TIP3    H138593   1.647   6.771  13.062
 5726TIP3    H238594   1.505   6.726  13.079
 5727TIP3   OH238595   1.253   6.082  12.063
 5727TIP3    H138596   1.158   6.095  12.048
 5727TIP3    H238597   1.287   6.168  12.095
 5728TIP3   OH238598   1.019   6.830  13.368
 5728TIP3    H138599   0.986   6.786  13.447
 5728TIP3    H238600   0.996   6.922  13.380
 5729TIP3   OH238601   1.329   6.274  12.225
 5729TIP3    H138602   1.417   6.261  12.265
 5729TIP3    H238603   1.339   6.356  12.173
 5730TIP3   OH238604   0.382   6.738  12.823
 5730TIP3    H138605   0.450   6.733  12.755
 5730TIP3    H238606   0.394   6.653  12.870
 5731TIP3   OH238607   1.079   6.947  12.150
 5731TIP3    H138608   1.046   7.033  12.182
 5731TIP3    H238609   1.006   6.886  12.172
 5732TIP3   OH238610   0.079   6.578  13.351
 5732TIP3    H138611   0.105   6.534  13.434
 5732TIP3    H238612   0.020   6.514  13.309
 5733TIP3   OH238613   0.783   6.538  13.570
 5733TIP3    H138614   0.751   6.506  13.484
 5733TIP3    H238615   0.875   6.504  13.569
 5734TIP3   OH238616   1.250   7.076  13.356
 5734TIP3    H138617   1.156   7.083  13.339
 5734TIP3    H238618   1.248   7.094  13.453
 5735TIP3   OH238619   1.819   6.287  12.202
 5735TIP3    H138620   1.762   6.259  12.128
 5735TIP3    H238621   1.826   6.382  12.177
 5736TIP3   OH238622   1.819   6.872  13.482
 5736TIP3    H138623   1.730   6.896  13.448
 5736TIP3    H238624   1.872   6.867  13.400
 5737TIP3   OH238625   1.661   7.147  12.263
 5737TIP3    H138626   1.605   7.072  12.276
 5737TIP3    H238627   1.673   7.155  12.167
 5738TIP3   OH238628   1.369   6.652  12.954
 5738TIP3    H138629   1.274   6.632  12.942
 5738TIP3    H238630   1.412   6.577  12.910
 5739TIP3   OH238631   0.623   7.082  12.555
 5739TIP3    H138632   0.670   7.166  12.546
 5739TIP3    H238633   0.532   7.106  12.535
 5740TIP3   OH238634   0.191   6.570  12.024
 5740TIP3    H138635   0.256   6.634  12.060
 5740TIP3    H238636   0.106   6.606  12.050
 5741TIP3   OH238637   0.764   6.851  12.515
 5741TIP3    H138638   0.732   6.943  12.524
 5741TIP3    H238639   0.691   6.803  12.558
 5742TIP3   OH238640   0.838   7.239  13.124
 5742TIP3    H138641   0.852   7.334  13.117
 5742TIP3    H238642   0.869   7.223  13.215
 5743TIP3   OH238643   1.159   6.871  13.118
 5743TIP3    H138644   1.125   6.849  13.207
 5743TIP3    H238645   1.223   6.799  13.101
 5744TIP3   OH238646   1.394   6.978  12.027
 5744TIP3    H138647   1.423   6.932  12.108
 5744TIP3    H238648   1.299   6.959  12.033
 5745TIP3   OH238649   0.248   6.056  13.302
 5745TIP3    H138650   0.158   6.089  13.311
 5745TIP3    H238651   0.240   5.970  13.346
 5746TIP3   OH238652   1.469   6.837  12.252
 5746TIP3    H138653   1.447   6.759  12.307
 5746TIP3    H238654   1.565   6.846  12.267
 5747TIP3   OH238655   0.233   7.233  13.140
 5747TIP3    H138656   0.236   7.138  13.150
 5747TIP3    H238657   0.226   7.264  13.232
 5748TIP3   OH238658   0.806   7.083  11.874
 5748TIP3    H138659   0.815   7.006  11.816
 5748TIP3    H238660   0.763   7.042  11.952
 5749TIP3   OH238661   0.681   7.034  12.120
 5749TIP3    H138662   0.709   6.985  12.199
 5749TIP3    H238663   0.693   7.127  12.147
 5750TIP3   OH238664   0.332   6.763  12.168
 5750TIP3    H138665   0.261   6.802  12.224
 5750TIP3    H238666   0.384   6.841  12.142
 5751TIP3   OH238667   1.123   6.032  13.203
 5751TIP3    H138668   1.192   6.036  13.269
 5751TIP3    H238669   1.081   5.945  13.221
 5752TIP3   OH238670   1.195   5.990  12.312
 5752TIP3    H138671   1.218   6.033  12.228
 5752TIP3    H238672   1.254   6.034  12.374
 5753TIP3   OH238673   0.968   7.208  12.193
 5753TIP3    H138674   0.882   7.255  12.198
 5753TIP3    H238675   1.015   7.258  12.126
 5754TIP3   OH238676   0.918   6.165  12.389
 5754TIP3    H138677   0.996   6.222  12.397
 5754TIP3    H238678   0.891   6.147  12.481
 5755TIP3   OH238679   0.974   6.268  13.314
 5755TIP3    H138680   0.983   6.322  13.395
 5755TIP3    H238681   1.038   6.196  13.320
 5756TIP3   OH238682   1.003   5.869  12.481
 5756TIP3    H138683   0.968   5.934  12.546
 5756TIP3    H238684   1.071   5.925  12.437
 5757TIP3   OH238685   0.708   0.005  12.197
 5757TIP3    H138686   0.711   0.084  12.139
 5757TIP3    H238687   0.679   0.042  12.281
 5758TIP3   OH238688   0.566   5.979  12.156
 5758TIP3    H138689   0.562   6.071  12.189
 5758TIP3    H238690   0.661   5.959  12.174
 5759TIP3   OH238691   1.591   6.052  13.396
 5759TIP3    H138692   1.498   6.084  13.383
 5759TIP3    H238693   1.621   6.052  13.304
 5760TIP3   OH238694   1.453   6.432  12.796
 5760TIP3    H138695   1.370   6.387  12.770
 5760TIP3    H238696   1.500   6.363  12.848
 5761TIP3   OH238697   0.391   7.026  12.054
 5761TIP3    H138698   0.459   7.088  12.083
 5761TIP3    H238699   0.443   6.977  11.988
 5762TIP3   OH238700   0.221   6.290  11.969
 5762TIP3    H138701   0.229   6.385  11.989
 5762TIP3    H238702   0.133   6.273  11.935
 5763TIP3   OH238703   0.307   5.767  12.841
 5763TIP3    H138704   0.285   5.771  12.746
 5763TIP3    H238705   0.265   5.684  12.871
 5764TIP3   OH238706   0.207   7.162  12.454
 5764TIP3    H138707   0.120   7.203  12.457
 5764TIP3    H238708   0.255   7.213  12.389
 5765TIP3   OH238709   0.620   7.287  13.770
 5765TIP3    H138710   0.706   7.247  13.787
 5765TIP3    H238711   0.613   7.273  13.674
 5766TIP3   OH238712   1.008   7.263  11.899
 5766TIP3    H138713   0.934   7.201  11.907
 5766TIP3    H238714   1.078   7.209  11.861
 5767TIP3   OH238715   1.251   7.119  13.609
 5767TIP3    H138716   1.203   7.052  13.660
 5767TIP3    H238717   1.312   7.156  13.674
 5768TIP3   OH238718   1.479   7.243  11.925
 5768TIP3    H138719   1.500   7.155  11.958
 5768TIP3    H238720   1.546   7.258  11.857
 5769TIP3   OH238721   0.112   6.804  13.686
 5769TIP3    H138722   0.133   6.715  13.654
 5769TIP3    H238723   0.040   6.832  13.628
 5770TIP3   OH238724   0.549   6.836  11.889
 5770TIP3    H138725   0.564   6.761  11.947
 5770TIP3    H238726   0.625   6.826  11.828
 5771TIP3   OH238727   0.788   6.803  13.625
 5771TIP3    H138728   0.752   6.833  13.539
 5771TIP3    H238729   0.794   6.705  13.615
 5772TIP3   OH238730   1.088   6.953  11.867
 5772TIP3    H138731   1.063   6.960  11.960
 5772TIP3    H238732   1.078   6.856  11.852
 5773TIP3   OH238733   1.356   6.789  13.365
 5773TIP3    H138734   1.435   6.847  13.358
 5773TIP3    H238735   1.286   6.856  13.369
 5774TIP3   OH238736   0.201   6.528  13.625
 5774TIP3    H138737   0.248   6.443  13.616
 5774TIP3    H238738   0.183   6.527  13.720
 5775TIP3   OH238739   0.670   6.642  12.132
 5775TIP3    H138740   0.620   6.587  12.194
 5775TIP3    H238741   0.700   6.574  12.067
 5776TIP3   OH238742   0.597   6.423  13.363
 5776TIP3    H138743   0.536   6.494  13.386
 5776TIP3    H238744   0.635   6.456  13.279
 5777TIP3   OH238745   0.777   6.463  11.952
 5777TIP3    H138746   0.762   6.453  11.856
 5777TIP3    H238747   0.875   6.468  11.959
 5778TIP3   OH238748   1.104   6.678  13.694
 5778TIP3    H138749   1.200   6.677  13.681
 5778TIP3    H238750   1.087   6.601  13.751
 5779TIP3   OH238751   1.718   6.695  11.892
 5779TIP3    H138752   1.687   6.659  11.807
 5779TIP3    H238753   1.715   6.792  11.874
 5780TIP3   OH238754   0.644   6.162  13.466
 5780TIP3    H138755   0.649   6.089  13.401
 5780TIP3    H238756   0.630   6.239  13.408
 5781TIP3   OH238757   0.680   5.998  13.222
 5781TIP3    H138758   0.729   6.046  13.149
 5781TIP3    H238759   0.589   5.986  13.184
 5782TIP3   OH238760   0.834   6.549  13.249
 5782TIP3    H138761   0.905   6.528  13.187
 5782TIP3    H238762   0.794   6.629  13.211
 5783TIP3   OH238763   1.271   6.321  13.742
 5783TIP3    H138764   1.295   6.228  13.733
 5783TIP3    H238765   1.357   6.366  13.745
 5784TIP3   OH238766   1.406   6.602  13.560
 5784TIP3    H138767   1.380   6.673  13.497
 5784TIP3    H238768   1.501   6.599  13.540
 5785TIP3   OH238769   0.481   6.284  13.656
 5785TIP3    H138770   0.405   6.223  13.641
 5785TIP3    H238771   0.547   6.245  13.596
 5786TIP3   OH238772   0.768   5.741  13.250
 5786TIP3    H138773   0.740   5.837  13.252
 5786TIP3    H238774   0.681   5.708  13.221
 5787TIP3   OH238775   0.884   6.174  13.623
 5787TIP3    H138776   0.852   6.151  13.713
 5787TIP3    H238777   0.805   6.152  13.569
 5788TIP3   OH238778   1.156   6.089  13.533
 5788TIP3    H138779   1.059   6.094  13.543
 5788TIP3    H238780   1.182   6.024  13.601
 5789TIP3   OH238781   1.313   5.950  13.722
 5789TIP3    H138782   1.309   5.852  13.725
 5789TIP3    H238783   1.289   5.979  13.812
 5790TIP3   OH238784   0.305   6.075  13.637
 5790TIP3    H138785   0.316   6.002  13.573
 5790TIP3    H238786   0.285   6.027  13.719
 5791TIP3   OH238787   0.779   5.681  13.530
 5791TIP3    H138788   0.845   5.610  13.525
 5791TIP3    H238789   0.762   5.696  13.434
 5792TIP3   OH238790   0.814   5.842  13.742
 5792TIP3    H138791   0.796   5.791  13.659
 5792TIP3    H238792   0.753   5.917  13.731
 5793TIP3   OH238793   0.120   6.992  12.006
 5793TIP3    H138794   0.215   7.003  12.027
 5793TIP3    H238795   0.125   6.926  11.935
 5794TIP3   OH238796   1.632   6.954  13.744
 5794TIP3    H138797   1.542   6.949  13.783
 5794TIP3    H238798   1.671   7.033  13.789
 5795TIP3   OH238799   1.764   6.784  12.287
 5795TIP3    H138800   1.849   6.827  12.308
 5795TIP3    H238801   1.762   6.714  12.356
 5796TIP3   OH238802   1.800   6.594  12.478
 5796TIP3    H138803   1.725   6.544  12.517
 5796TIP3    H238804   1.860   6.607  12.554
 5797TIP3   OH238805   1.776   6.863  12.978
 5797TIP3    H138806   1.856   6.826  12.938
 5797TIP3    H238807   1.790   6.958  12.961
 5798TIP3   OH238808   1.625   7.152  13.208
 5798TIP3    H138809   1.555   7.190  13.261
 5798TIP3    H238810   1.575   7.116  13.131
 5799TIP3   OH238811   1.830   6.576  12.116
 5799TIP3    H138812   1.773   6.612  12.044
 5799TIP3    H238813   1.820   6.647  12.182
 5800TIP3   OH238814   1.667   6.300  11.967
 5800TIP3    H138815   1.672   6.367  11.898
 5800TIP3    H238816   1.650   6.216  11.919
 5801TIP3   OH238817   1.582   6.441  12.534
 5801TIP3    H138818   1.567   6.346  12.530
 5801TIP3    H238819   1.549   6.463  12.623
 5802TIP3   OH238820   0.084   6.649  12.932
 5802TIP3    H138821   0.104   6.644  12.836
 5802TIP3    H238822   0.172   6.637  12.974
 5803TIP3   OH238823   1.668   6.638  13.503
 5803TIP3    H138824   1.729   6.563  13.516
 5803TIP3    H238825   1.728   6.715  13.504
 5804TIP3   OH238826   1.818   6.426  13.568
 5804TIP3    H138827   1.730   6.386  13.553
 5804TIP3    H238828   1.875   6.348  13.560
 5805TIP3   OH238829   1.592   6.044  11.882
 5805TIP3    H138830   1.651   6.002  11.947
 5805TIP3    H238831   1.504   6.004  11.897
 5806TIP3   OH238832   1.547   6.200  12.377
 5806TIP3    H138833   1.579   6.108  12.392
 5806TIP3    H238834   1.628   6.241  12.344
 5807TIP3   OH238835   1.612   6.254  12.924
 5807TIP3    H138836   1.708   6.277  12.923
 5807TIP3    H238837   1.594   6.268  13.018
 5808TIP3   OH238838   1.619   6.326  13.203
 5808TIP3    H138839   1.531   6.355  13.234
 5808TIP3    H238840   1.663   6.412  13.180
 5809TIP3   OH238841   0.072   6.166  13.552
 5809TIP3    H138842   0.161   6.147  13.586
 5809TIP3    H238843   0.014   6.099  13.595
 5810TIP3   OH238844   1.846   5.733  13.736
 5810TIP3    H138845   1.882   5.667  13.674
 5810TIP3    H238846   1.857   5.814  13.683
 5811TIP3   OH238847   1.616   5.929  12.384
 5811TIP3    H138848   1.637   5.885  12.470
 5811TIP3    H238849   1.556   5.865  12.341
 5812TIP3   OH238850   0.167   6.005  12.840
 5812TIP3    H138851   0.216   5.926  12.869
 5812TIP3    H238852   0.221   6.075  12.880
 5813TIP3   OH238853   0.050   6.385  12.980
 5813TIP3    H138854   0.055   6.342  12.892
 5813TIP3    H238855   0.058   6.476  12.952
 5814TIP3   OH238856   1.798   5.943  13.572
 5814TIP3    H138857   1.705   5.970  13.567
 5814TIP3    H238858   1.802   5.888  13.492
 5815TIP3   OH238859   1.798   5.932  12.040
 5815TIP3    H138860   1.839   5.861  11.986
 5815TIP3    H238861   1.868   5.998  12.045
 5816TIP3   OH238862   0.074   5.930  12.306
 5816TIP3    H138863  -0.020   5.950  12.320
 5816TIP3    H238864   0.098   6.007  12.251
 5817TIP3   OH238865   7.352   5.802  13.203
 5817TIP3    H138866   7.275   5.777  13.256
 5817TIP3    H238867   7.305   5.850  13.135
 5818TIP3   OH238868   0.242   7.128  13.598
 5818TIP3    H138869   0.156   7.141  13.557
 5818TIP3    H238870   0.220   7.110  13.690
 5819TIP3   OH238871   0.547   7.223  13.235
 5819TIP3    H138872   0.496   7.296  13.195
 5819TIP3    H238873   0.630   7.219  13.186
 5820TIP3   OH238874   1.700   5.752  13.357
 5820TIP3    H138875   1.618   5.782  13.316
 5820TIP3    H238876   1.717   5.669  13.305
 5821TIP3   OH238877   0.460   7.253  12.761
 5821TIP3    H138878   0.417   7.180  12.809
 5821TIP3    H238879   0.516   7.291  12.831
 5822TIP3   OH238880   1.044   5.892  12.789
 5822TIP3    H138881   0.970   5.834  12.812
 5822TIP3    H238882   1.093   5.840  12.725
 5823TIP3   OH238883   1.553   5.699  12.792
 5823TIP3    H138884   1.614   5.758  12.741
 5823TIP3    H238885   1.465   5.735  12.769
 5824TIP3   OH238886   1.720   5.824  12.619
 5824TIP3    H138887   1.789   5.766  12.578
 5824TIP3    H238888   1.771   5.908  12.630
 5825TIP3   OH238889   0.280   5.756  12.570
 5825TIP3    H138890   0.198   5.737  12.518
 5825TIP3    H238891   0.325   5.670  12.567
 5826TIP3   OH238892   0.157   5.730  12.139
 5826TIP3    H138893   0.205   5.797  12.088
 5826TIP3    H238894   0.098   5.787  12.193
 5827TIP3   OH238895   0.725   5.739  12.544
 5827TIP3    H138896   0.810   5.789  12.542
 5827TIP3    H238897   0.719   5.732  12.640
 5828TIP3   OH238898   1.296   5.751  12.711
 5828TIP3    H138899   1.290   5.763  12.615
 5828TIP3    H238900   1.254   5.662  12.725
 5829TIP3   OH238901   1.422   5.755  12.283
 5829TIP3    H138902   1.347   5.813  12.261
 5829TIP3    H238903   1.377   5.669  12.302
 5830TIP3   OH238904   0.335   5.925  11.997
 5830TIP3    H138905   0.388   5.868  11.938
 5830TIP3    H238906   0.405   5.960  12.055
 5831TIP3   OH238907   0.830   5.950  12.240
 5831TIP3    H138908   0.868   5.894  12.308
 5831TIP3    H238909   0.847   6.038  12.281
 5832TIP3   OH238910   0.253   5.817  13.531
 5832TIP3    H138911   0.227   5.726  13.552
 5832TIP3    H238912   0.351   5.807  13.543
 5833TIP3   OH238913   0.466   5.750  13.685
 5833TIP3    H138914   0.552   5.715  13.653
 5833TIP3    H238915   0.426   5.668  13.718
 5834TIP3   OH238916   1.306   5.678  13.695
 5834TIP3    H138917   1.315   5.631  13.780
 5834TIP3    H238918   1.397   5.675  13.660
 5835TIP3   OH238919   1.608  -0.024  13.575
 5835TIP3    H138920   1.546  -0.037  13.503
 5835TIP3    H238921   1.622   0.072  13.574
 5836TIP3   OH238922   3.070   6.668  12.555
 5836TIP3    H138923   3.068   6.766  12.553
 5836TIP3    H238924   2.998   6.645  12.495
 5837TIP3   OH238925   2.956   6.596  12.906
 5837TIP3    H138926   2.955   6.531  12.978
 5837TIP3    H238927   2.922   6.545  12.831
 5838TIP3   OH238928   2.192   6.564  13.061
 5838TIP3    H138929   2.200   6.495  13.131
 5838TIP3    H238930   2.267   6.621  13.084
 5839TIP3   OH238931   3.325   6.890  12.736
 5839TIP3    H138932   3.283   6.818  12.785
 5839TIP3    H238933   3.329   6.962  12.801
 5840TIP3   OH238934   2.286   7.009  12.914
 5840TIP3    H138935   2.253   6.924  12.881
 5840TIP3    H238936   2.381   6.990  12.915
 5841TIP3   OH238937   1.948   6.364  12.461
 5841TIP3    H138938   1.904   6.451  12.454
 5841TIP3    H238939   1.892   6.310  12.403
 5842TIP3   OH238940   2.019   6.587  12.675
 5842TIP3    H138941   2.047   6.505  12.720
 5842TIP3    H238942   2.089   6.598  12.608
 5843TIP3   OH238943   2.792   6.834  12.955
 5843TIP3    H138944   2.827   6.773  12.887
 5843TIP3    H238945   2.874   6.854  13.004
 5844TIP3   OH238946   3.653   6.003  13.026
 5844TIP3    H138947   3.671   6.061  13.102
 5844TIP3    H238948   3.710   6.044  12.960
 5845TIP3   OH238949   3.110   6.283  12.984
 5845TIP3    H138950   3.127   6.187  12.985
 5845TIP3    H238951   3.100   6.297  12.888
 5846TIP3   OH238952   2.423   6.092  12.706
 5846TIP3    H138953   2.433   6.175  12.657
 5846TIP3    H238954   2.382   6.035  12.637
 5847TIP3   OH238955   3.195   6.106  12.553
 5847TIP3    H138956   3.264   6.067  12.611
 5847TIP3    H238957   3.249   6.154  12.488
 5848TIP3   OH238958   2.084   6.333  12.780
 5848TIP3    H138959   2.151   6.279  12.825
 5848TIP3    H238960   2.095   6.302  12.688
 5849TIP3   OH238961   2.600   6.489  12.712
 5849TIP3    H138962   2.667   6.431  12.751
 5849TIP3    H238963   2.549   6.423  12.660
 5850TIP3   OH238964   3.697   6.143  13.253
 5850TIP3    H138965   3.637   6.219  13.242
 5850TIP3    H238966   3.701   6.135  13.349
 5851TIP3   OH238967   2.313   5.982  13.110
 5851TIP3    H138968   2.285   6.039  13.036
 5851TIP3    H238969   2.245   6.005  13.178
 5852TIP3   OH238970   3.040   6.927  12.465
 5852TIP3    H138971   3.017   6.904  12.375
 5852TIP3    H238972   3.011   7.021  12.471
 5853TIP3   OH238973   2.564   6.744  13.135
 5853TIP3    H138974   2.494   6.809  13.157
 5853TIP3    H238975   2.635   6.804  13.105
 5854TIP3   OH238976   3.378   6.036  12.743
 5854TIP3    H138977   3.354   5.958  12.794
 5854TIP3    H238978   3.444   6.078  12.799
 5855TIP3   OH238979   2.270   6.168  12.914
 5855TIP3    H138980   2.333   6.237  12.945
 5855TIP3    H238981   2.321   6.127  12.840
 5856TIP3   OH238982   2.410   6.947  13.215
 5856TIP3    H138983   2.404   7.037  13.180
 5856TIP3    H238984   2.322   6.938  13.258
 5857TIP3   OH238985   2.016   6.913  12.296
 5857TIP3    H138986   1.990   6.945  12.207
 5857TIP3    H238987   2.024   6.996  12.347
 5858TIP3   OH238988   3.378   7.077  12.976
 5858TIP3    H138989   3.280   7.085  12.985
 5858TIP3    H238990   3.407   7.166  12.949
 5859TIP3   OH238991   3.410   5.903  13.110
 5859TIP3    H138992   3.338   5.967  13.101
 5859TIP3    H238993   3.481   5.945  13.058
 5860TIP3   OH238994   2.707   5.715  12.857
 5860TIP3    H138995   2.692   5.619  12.849
 5860TIP3    H238996   2.619   5.746  12.887
 5861TIP3   OH238997   3.207   7.223  12.612
 5861TIP3    H138998   3.264   7.161  12.561
 5861TIP3    H238999   3.247   7.306  12.588
 5862TIP3   OH239000   3.329   7.036  12.482
 5862TIP3    H139001   3.293   6.970  12.421
 5862TIP3    H239002   3.328   6.991  12.568
 5863TIP3   OH239003   3.487   6.909  13.332
 5863TIP3    H139004   3.500   6.842  13.262
 5863TIP3    H239005   3.510   6.992  13.285
 5864TIP3   OH239006   2.936   6.596  12.308
 5864TIP3    H139007   2.867   6.653  12.270
 5864TIP3    H239008   3.007   6.602  12.241
 5865TIP3   OH239009   2.945   6.452  12.008
 5865TIP3    H139010   3.015   6.449  12.075
 5865TIP3    H239011   2.975   6.380  11.952
 5866TIP3   OH239012   3.675   6.537  13.136
 5866TIP3    H139013   3.610   6.609  13.140
 5866TIP3    H239014   3.725   6.560  13.055
 5867TIP3   OH239015   3.284   6.618  12.401
 5867TIP3    H139016   3.207   6.638  12.459
 5867TIP3    H239017   3.328   6.546  12.450
 5868TIP3   OH239018   3.274   6.432  13.312
 5868TIP3    H139019   3.275   6.514  13.364
 5868TIP3    H239020   3.211   6.461  13.243
 5869TIP3   OH239021   2.442   6.681  12.592
 5869TIP3    H139022   2.410   6.642  12.507
 5869TIP3    H239023   2.504   6.612  12.625
 5870TIP3   OH239024   2.575   7.022  12.858
 5870TIP3    H139025   2.575   6.967  12.779
 5870TIP3    H239026   2.652   6.985  12.906
 5871TIP3   OH239027   2.475   6.556  12.958
 5871TIP3    H139028   2.530   6.566  12.877
 5871TIP3    H239029   2.514   6.622  13.019
 5872TIP3   OH239030   3.120   7.113  13.030
 5872TIP3    H139031   3.083   7.176  13.092
 5872TIP3    H239032   3.091   7.027  13.070
 5873TIP3   OH239033   2.570   7.000  13.427
 5873TIP3    H139034   2.527   7.074  13.475
 5873TIP3    H239035   2.504   6.977  13.357
 5874TIP3   OH239036   3.166   6.540  12.167
 5874TIP3    H139037   3.224   6.552  12.246
 5874TIP3    H239038   3.215   6.584  12.093
 5875TIP3   OH239039   2.265   6.615  13.343
 5875TIP3    H139040   2.270   6.682  13.413
 5875TIP3    H239041   2.171   6.624  13.321
 5876TIP3   OH239042   2.936   7.205  12.514
 5876TIP3    H139043   2.985   7.237  12.590
 5876TIP3    H239044   2.885   7.282  12.487
 5877TIP3   OH239045   2.393   7.194  13.501
 5877TIP3    H139046   2.386   7.191  13.403
 5877TIP3    H239047   2.300   7.188  13.527
 5878TIP3   OH239048   3.547   5.708  12.153
 5878TIP3    H139049   3.452   5.718  12.180
 5878TIP3    H239050   3.562   5.794  12.112
 5879TIP3   OH239051   2.338   6.583  12.355
 5879TIP3    H139052   2.311   6.662  12.303
 5879TIP3    H239053   2.274   6.517  12.330
 5880TIP3   OH239054   3.657   7.141  11.993
 5880TIP3    H139055   3.665   7.237  12.005
 5880TIP3    H239056   3.750   7.113  11.992
 5881TIP3   OH239057   1.947   6.827  13.243
 5881TIP3    H139058   1.904   6.818  13.156
 5881TIP3    H239059   1.956   6.732  13.264
 5882TIP3   OH239060   1.928   7.096  12.924
 5882TIP3    H139061   2.023   7.091  12.915
 5882TIP3    H239062   1.918   7.179  12.973
 5883TIP3   OH239063   3.746   7.170  13.497
 5883TIP3    H139064   3.736   7.074  13.484
 5883TIP3    H239065   3.657   7.196  13.529
 5884TIP3   OH239066   2.842   7.126  13.374
 5884TIP3    H139067   2.853   7.207  13.426
 5884TIP3    H239068   2.758   7.086  13.403
 5885TIP3   OH239069   3.463   6.317  13.536
 5885TIP3    H139070   3.415   6.362  13.465
 5885TIP3    H239071   3.461   6.225  13.506
 5886TIP3   OH239072   2.178   6.960  13.337
 5886TIP3    H139073   2.198   6.921  13.425
 5886TIP3    H239074   2.091   6.920  13.314
 5887TIP3   OH239075   2.444   5.805  12.933
 5887TIP3    H139076   2.354   5.793  12.895
 5887TIP3    H239077   2.431   5.889  12.981
 5888TIP3   OH239078   2.909   5.772  13.268
 5888TIP3    H139079   2.949   5.730  13.347
 5888TIP3    H239080   2.812   5.761  13.282
 5889TIP3   OH239081   3.238   6.157  13.358
 5889TIP3    H139082   3.182   6.136  13.436
 5889TIP3    H239083   3.220   6.250  13.335
 5890TIP3   OH239084   3.316   6.634  11.949
 5890TIP3    H139085   3.311   6.620  11.852
 5890TIP3    H239086   3.399   6.686  11.952
 5891TIP3   OH239087   2.872   6.031  11.998
 5891TIP3    H139088   2.844   6.025  12.091
 5891TIP3    H239089   2.843   5.943  11.969
 5892TIP3   OH239090   2.456   6.303  13.058
 5892TIP3    H139091   2.381   6.302  13.121
 5892TIP3    H239092   2.450   6.394  13.020
 5893TIP3   OH239093   2.450   6.316  12.543
 5893TIP3    H139094   2.357   6.290  12.530
 5893TIP3    H239095   2.489   6.286  12.459
 5894TIP3   OH239096   3.004   6.370  12.425
 5894TIP3    H139097   2.964   6.449  12.383
 5894TIP3    H239098   3.069   6.343  12.356
 5895TIP3   OH239099   2.909   6.386  13.564
 5895TIP3    H139100   2.856   6.308  13.595
 5895TIP3    H239101   2.992   6.374  13.612
 5896TIP3   OH239102   3.106   6.314  12.706
 5896TIP3    H139103   3.078   6.370  12.631
 5896TIP3    H239104   3.117   6.229  12.658
 5897TIP3   OH239105   2.217   6.328  13.225
 5897TIP3    H139106   2.226   6.369  13.313
 5897TIP3    H239107   2.173   6.244  13.246
 5898TIP3   OH239108   2.554   6.068  11.910
 5898TIP3    H139109   2.509   6.026  11.986
 5898TIP3    H239110   2.483   6.111  11.861
 5899TIP3   OH239111   1.883   6.039  12.624
 5899TIP3    H139112   1.952   6.035  12.694
 5899TIP3    H239113   1.928   6.002  12.546
 5900TIP3   OH239114   2.010   6.111  12.159
 5900TIP3    H139115   2.061   6.172  12.103
 5900TIP3    H239116   1.941   6.173  12.191
 5901TIP3   OH239117   3.026   6.472  13.160
 5901TIP3    H139118   3.064   6.404  13.102
 5901TIP3    H239119   2.980   6.420  13.228
 5902TIP3   OH239120   2.704   6.076  12.647
 5902TIP3    H139121   2.610   6.071  12.676
 5902TIP3    H239122   2.755   6.052  12.726
 5903TIP3   OH239123   2.188   6.225  12.531
 5903TIP3    H139124   2.099   6.241  12.492
 5903TIP3    H239125   2.217   6.142  12.489
 5904TIP3   OH239126   2.552   6.229  12.294
 5904TIP3    H139127   2.648   6.240  12.310
 5904TIP3    H239128   2.530   6.297  12.228
 5905TIP3   OH239129   3.148   5.993  12.968
 5905TIP3    H139130   3.078   5.998  13.038
 5905TIP3    H239131   3.097   5.967  12.890
 5906TIP3   OH239132   2.422   6.348  12.052
 5906TIP3    H139133   2.369   6.309  11.981
 5906TIP3    H239134   2.504   6.368  12.005
 5907TIP3   OH239135   2.235   6.809  13.557
 5907TIP3    H139136   2.307   6.829  13.619
 5907TIP3    H239137   2.158   6.812  13.618
 5908TIP3   OH239138   2.835   6.346  12.833
 5908TIP3    H139139   2.895   6.293  12.779
 5908TIP3    H239140   2.820   6.289  12.910
 5909TIP3   OH239141   2.336   5.960  12.477
 5909TIP3    H139142   2.305   5.868  12.476
 5909TIP3    H239143   2.415   5.953  12.422
 5910TIP3   OH239144   2.699   6.178  13.074
 5910TIP3    H139145   2.616   6.230  13.083
 5910TIP3    H239146   2.754   6.213  13.146
 5911TIP3   OH239147   2.757   6.799  12.246
 5911TIP3    H139148   2.677   6.752  12.212
 5911TIP3    H239149   2.735   6.812  12.340
 5912TIP3   OH239150   3.477   6.721  13.125
 5912TIP3    H139151   3.533   6.771  13.062
 5912TIP3    H239152   3.391   6.726  13.079
 5913TIP3   OH239153   3.145   6.094  12.040
 5913TIP3    H139154   3.048   6.097  12.052
 5913TIP3    H239155   3.174   6.165  12.101
 5914TIP3   OH239156   2.904   6.830  13.368
 5914TIP3    H139157   2.872   6.786  13.447
 5914TIP3    H239158   2.882   6.922  13.380
 5915TIP3   OH239159   3.223   6.286  12.217
 5915TIP3    H139160   3.306   6.265  12.263
 5915TIP3    H239161   3.233   6.368  12.168
 5916TIP3   OH239162   2.268   6.740  12.825
 5916TIP3    H139163   2.337   6.733  12.755
 5916TIP3    H239164   2.275   6.654  12.870
 5917TIP3   OH239165   2.967   6.945  12.148
 5917TIP3    H139166   2.934   7.032  12.181
 5917TIP3    H239167   2.893   6.886  12.171
 5918TIP3   OH239168   1.968   6.580  13.351
 5918TIP3    H139169   1.984   6.536  13.436
 5918TIP3    H239170   1.905   6.520  13.307
 5919TIP3   OH239171   2.669   6.537  13.568
 5919TIP3    H139172   2.637   6.505  13.482
 5919TIP3    H239173   2.761   6.504  13.568
 5920TIP3   OH239174   3.136   7.076  13.356
 5920TIP3    H139175   3.042   7.083  13.339
 5920TIP3    H239176   3.134   7.094  13.454
 5921TIP3   OH239177   3.704   6.287  12.202
 5921TIP3    H139178   3.647   6.259  12.128
 5921TIP3    H239179   3.712   6.382  12.177
 5922TIP3   OH239180   3.705   6.872  13.482
 5922TIP3    H139181   3.616   6.896  13.448
 5922TIP3    H239182   3.758   6.867  13.400
 5923TIP3   OH239183   3.547   7.146  12.264
 5923TIP3    H139184   3.490   7.072  12.276
 5923TIP3    H239185   3.558   7.155  12.167
 5924TIP3   OH239186   3.255   6.652  12.953
 5924TIP3    H139187   3.160   6.632  12.942
 5924TIP3    H239188   3.297   6.576  12.909
 5925TIP3   OH239189   2.510   7.082  12.554
 5925TIP3    H139190   2.556   7.166  12.546
 5925TIP3    H239191   2.418   7.106  12.534
 5926TIP3   OH239192   2.083   6.569  12.020
 5926TIP3    H139193   2.141   6.635  12.063
 5926TIP3    H239194   1.993   6.601  12.045
 5927TIP3   OH239195   2.649   6.851  12.515
 5927TIP3    H139196   2.618   6.943  12.524
 5927TIP3    H239197   2.576   6.803  12.559
 5928TIP3   OH239198   2.723   7.239  13.124
 5928TIP3    H139199   2.738   7.334  13.117
 5928TIP3    H239200   2.754   7.223  13.215
 5929TIP3   OH239201   3.045   6.871  13.118
 5929TIP3    H139202   3.011   6.849  13.207
 5929TIP3    H239203   3.108   6.799  13.101
 5930TIP3   OH239204   3.278   6.975  12.024
 5930TIP3    H139205   3.309   6.932  12.106
 5930TIP3    H239206   3.183   6.962  12.035
 5931TIP3   OH239207   2.132   6.054  13.305
 5931TIP3    H139208   2.042   6.089  13.304
 5931TIP3    H239209   2.121   5.970  13.352
 5932TIP3   OH239210   3.355   6.835  12.249
 5932TIP3    H139211   3.333   6.760  12.307
 5932TIP3    H239212   3.450   6.847  12.269
 5933TIP3   OH239213   2.094   7.229  13.148
 5933TIP3    H139214   2.123   7.138  13.152
 5933TIP3    H239215   2.114   7.263  13.235
 5934TIP3   OH239216   2.690   7.083  11.875
 5934TIP3    H139217   2.699   7.005  11.817
 5934TIP3    H239218   2.649   7.041  11.953
 5935TIP3   OH239219   2.567   7.033  12.120
 5935TIP3    H139220   2.595   6.985  12.199
 5935TIP3    H239221   2.579   7.127  12.148
 5936TIP3   OH239222   2.223   6.763  12.170
 5936TIP3    H139223   2.151   6.803  12.223
 5936TIP3    H239224   2.273   6.841  12.140
 5937TIP3   OH239225   3.006   6.031  13.202
 5937TIP3    H139226   3.077   6.037  13.266
 5937TIP3    H239227   2.967   5.944  13.222
 5938TIP3   OH239228   3.079   6.091  12.292
 5938TIP3    H139229   3.103   6.033  12.219
 5938TIP3    H239230   3.123   6.035  12.360
 5939TIP3   OH239231   2.854   7.208  12.194
 5939TIP3    H139232   2.769   7.254  12.196
 5939TIP3    H239233   2.901   7.257  12.125
 5940TIP3   OH239234   2.798   6.170  12.392
 5940TIP3    H139235   2.884   6.217  12.395
 5940TIP3    H239236   2.779   6.149  12.485
 5941TIP3   OH239237   2.858   6.266  13.312
 5941TIP3    H139238   2.866   6.322  13.391
 5941TIP3    H239239   2.925   6.197  13.321
 5942TIP3   OH239240   2.845   5.883  12.501
 5942TIP3    H139241   2.847   5.950  12.570
 5942TIP3    H239242   2.929   5.907  12.452
 5943TIP3   OH239243   2.594   0.005  12.197
 5943TIP3    H139244   2.597   0.084  12.139
 5943TIP3    H239245   2.565   0.042  12.281
 5944TIP3   OH239246   2.454   5.981  12.151
 5944TIP3    H139247   2.449   6.070  12.191
 5944TIP3    H239248   2.545   5.956  12.178
 5945TIP3   OH239249   3.476   6.053  13.396
 5945TIP3    H139250   3.384   6.084  13.383
 5945TIP3    H239251   3.506   6.051  13.304
 5946TIP3   OH239252   3.337   6.431  12.796
 5946TIP3    H139253   3.255   6.386  12.768
 5946TIP3    H239254   3.386   6.363  12.848
 5947TIP3   OH239255   2.279   7.023  12.056
 5947TIP3    H139256   2.346   7.088  12.083
 5947TIP3    H239257   2.330   6.977  11.987
 5948TIP3   OH239258   2.111   6.291  11.970
 5948TIP3    H139259   2.113   6.387  11.991
 5948TIP3    H239260   2.022   6.274  11.940
 5949TIP3   OH239261   2.193   5.770  12.845
 5949TIP3    H139262   2.174   5.772  12.748
 5949TIP3    H239263   2.152   5.684  12.870
 5950TIP3   OH239264   2.090   7.162  12.456
 5950TIP3    H139265   2.003   7.205  12.456
 5950TIP3    H239266   2.139   7.211  12.390
 5951TIP3   OH239267   2.506   7.287  13.770
 5951TIP3    H139268   2.591   7.247  13.787
 5951TIP3    H239269   2.498   7.273  13.674
 5952TIP3   OH239270   2.892   7.264  11.903
 5952TIP3    H139271   2.820   7.199  11.906
 5952TIP3    H239272   2.964   7.214  11.858
 5953TIP3   OH239273   3.137   7.119  13.609
 5953TIP3    H139274   3.089   7.052  13.660
 5953TIP3    H239275   3.198   7.156  13.674
 5954TIP3   OH239276   3.368   7.243  11.927
 5954TIP3    H139277   3.386   7.153  11.956
 5954TIP3    H239278   3.431   7.257  11.854
 5955TIP3   OH239279   2.002   6.803  13.686
 5955TIP3    H139280   2.016   6.712  13.656
 5955TIP3    H239281   1.927   6.832  13.630
 5956TIP3   OH239282   2.435   6.837  11.889
 5956TIP3    H139283   2.450   6.761  11.948
 5956TIP3    H239284   2.511   6.826  11.828
 5957TIP3   OH239285   2.674   6.803  13.625
 5957TIP3    H139286   2.638   6.833  13.539
 5957TIP3    H239287   2.679   6.705  13.615
 5958TIP3   OH239288   2.974   6.947  11.868
 5958TIP3    H139289   2.949   6.959  11.961
 5958TIP3    H239290   2.960   6.852  11.853
 5959TIP3   OH239291   3.242   6.789  13.365
 5959TIP3    H139292   3.321   6.848  13.358
 5959TIP3    H239293   3.172   6.856  13.369
 5960TIP3   OH239294   2.093   6.528  13.625
 5960TIP3    H139295   2.134   6.441  13.616
 5960TIP3    H239296   2.069   6.528  13.719
 5961TIP3   OH239297   2.556   6.640  12.132
 5961TIP3    H139298   2.505   6.586  12.195
 5961TIP3    H239299   2.585   6.573  12.066
 5962TIP3   OH239300   2.482   6.421  13.361
 5962TIP3    H139301   2.422   6.493  13.386
 5962TIP3    H239302   2.522   6.458  13.280
 5963TIP3   OH239303   2.663   6.463  11.952
 5963TIP3    H139304   2.648   6.454  11.856
 5963TIP3    H239305   2.761   6.468  11.959
 5964TIP3   OH239306   2.989   6.678  13.694
 5964TIP3    H139307   3.085   6.677  13.682
 5964TIP3    H239308   2.972   6.601  13.751
 5965TIP3   OH239309   3.600   6.693  11.893
 5965TIP3    H139310   3.576   6.658  11.805
 5965TIP3    H239311   3.603   6.790  11.875
 5966TIP3   OH239312   2.523   6.159  13.466
 5966TIP3    H139313   2.535   6.088  13.400
 5966TIP3    H239314   2.518   6.240  13.411
 5967TIP3   OH239315   2.563   5.997  13.222
 5967TIP3    H139316   2.614   6.044  13.151
 5967TIP3    H239317   2.474   5.989  13.181
 5968TIP3   OH239318   2.717   6.546  13.246
 5968TIP3    H139319   2.793   6.530  13.189
 5968TIP3    H239320   2.681   6.629  13.212
 5969TIP3   OH239321   3.157   6.321  13.742
 5969TIP3    H139322   3.180   6.228  13.733
 5969TIP3    H239323   3.243   6.366  13.745
 5970TIP3   OH239324   3.291   6.601  13.559
 5970TIP3    H139325   3.265   6.673  13.497
 5970TIP3    H239326   3.386   6.599  13.540
 5971TIP3   OH239327   2.369   6.284  13.658
 5971TIP3    H139328   2.292   6.226  13.642
 5971TIP3    H239329   2.434   6.247  13.596
 5972TIP3   OH239330   2.642   5.741  13.260
 5972TIP3    H139331   2.624   5.837  13.251
 5972TIP3    H239332   2.567   5.704  13.210
 5973TIP3   OH239333   2.769   6.174  13.623
 5973TIP3    H139334   2.738   6.151  13.713
 5973TIP3    H239335   2.691   6.154  13.569
 5974TIP3   OH239336   3.041   6.088  13.532
 5974TIP3    H139337   2.945   6.094  13.543
 5974TIP3    H239338   3.068   6.024  13.601
 5975TIP3   OH239339   3.199   5.950  13.722
 5975TIP3    H139340   3.195   5.852  13.725
 5975TIP3    H239341   3.175   5.979  13.812
 5976TIP3   OH239342   2.177   6.078  13.634
 5976TIP3    H139343   2.202   6.004  13.575
 5976TIP3    H239344   2.168   6.033  13.720
 5977TIP3   OH239345   2.664   5.680  13.531
 5977TIP3    H139346   2.732   5.610  13.529
 5977TIP3    H239347   2.652   5.694  13.435
 5978TIP3   OH239348   2.700   5.842  13.742
 5978TIP3    H139349   2.682   5.791  13.659
 5978TIP3    H239350   2.640   5.918  13.732
 5979TIP3   OH239351   2.005   6.992  12.003
 5979TIP3    H139352   2.100   7.000  12.027
 5979TIP3    H239353   2.010   6.924  11.932
 5980TIP3   OH239354   3.517   6.954  13.744
 5980TIP3    H139355   3.428   6.949  13.783
 5980TIP3    H239356   3.557   7.033  13.789
 5981TIP3   OH239357   3.650   6.784  12.287
 5981TIP3    H139358   3.734   6.827  12.308
 5981TIP3    H239359   3.648   6.714  12.356
 5982TIP3   OH239360   3.686   6.594  12.477
 5982TIP3    H139361   3.611   6.544  12.516
 5982TIP3    H239362   3.745   6.607  12.554
 5983TIP3   OH239363   3.662   6.863  12.978
 5983TIP3    H139364   3.742   6.826  12.938
 5983TIP3    H239365   3.676   6.958  12.961
 5984TIP3   OH239366   3.511   7.152  13.208
 5984TIP3    H139367   3.441   7.190  13.261
 5984TIP3    H239368   3.461   7.116  13.131
 5985TIP3   OH239369   3.716   6.576  12.116
 5985TIP3    H139370   3.659   6.612  12.045
 5985TIP3    H239371   3.706   6.647  12.182
 5986TIP3   OH239372   3.553   6.299  11.968
 5986TIP3    H139373   3.560   6.366  11.898
 5986TIP3    H239374   3.532   6.217  11.919
 5987TIP3   OH239375   3.470   6.442  12.536
 5987TIP3    H139376   3.452   6.347  12.530
 5987TIP3    H239377   3.434   6.464  12.624
 5988TIP3   OH239378   1.968   6.650  12.940
 5988TIP3    H139379   1.986   6.642  12.844
 5988TIP3    H239380   2.057   6.632  12.975
 5989TIP3   OH239381   3.553   6.638  13.503
 5989TIP3    H139382   3.614   6.563  13.516
 5989TIP3    H239383   3.614   6.716  13.504
 5990TIP3   OH239384   3.704   6.426  13.568
 5990TIP3    H139385   3.615   6.386  13.553
 5990TIP3    H239386   3.761   6.348  13.560
 5991TIP3   OH239387   3.477   6.046  11.882
 5991TIP3    H139388   3.537   6.003  11.946
 5991TIP3    H239389   3.390   6.005  11.899
 5992TIP3   OH239390   3.433   6.202  12.376
 5992TIP3    H139391   3.462   6.109  12.391
 5992TIP3    H239392   3.515   6.241  12.343
 5993TIP3   OH239393   3.498   6.254  12.924
 5993TIP3    H139394   3.594   6.277  12.923
 5993TIP3    H239395   3.479   6.268  13.018
 5994TIP3   OH239396   3.505   6.326  13.203
 5994TIP3    H139397   3.416   6.355  13.234
 5994TIP3    H239398   3.548   6.412  13.180
 5995TIP3   OH239399   1.930   6.180  13.556
 5995TIP3    H139400   2.024   6.159  13.575
 5995TIP3    H239401   1.884   6.098  13.583
 5996TIP3   OH239402   3.732   5.733  13.736
 5996TIP3    H139403   3.767   5.667  13.674
 5996TIP3    H239404   3.742   5.814  13.683
 5997TIP3   OH239405   3.504   5.927  12.384
 5997TIP3    H139406   3.521   5.885  12.470
 5997TIP3    H239407   3.442   5.866  12.340
 5998TIP3   OH239408   2.050   6.009  12.840
 5998TIP3    H139409   2.096   5.926  12.866
 5998TIP3    H239410   2.105   6.078  12.879
 5999TIP3   OH239411   1.878   6.310  12.944
 5999TIP3    H139412   1.934   6.284  12.868
 5999TIP3    H239413   1.925   6.390  12.971
 6000TIP3   OH239414   3.684   5.943  13.572
 6000TIP3    H139415   3.590   5.970  13.567
 6000TIP3    H239416   3.687   5.887  13.492
 6001TIP3   OH239417   3.683   5.932  12.040
 6001TIP3    H139418   3.724   5.861  11.986
 6001TIP3    H239419   3.753   5.998  12.045
 6002TIP3   OH239420   1.915   5.937  12.352
 6002TIP3    H139421   1.821   5.953  12.336
 6002TIP3    H239422   1.957   5.985  12.279
 6003TIP3   OH239423   1.909   5.800  13.181
 6003TIP3    H139424   1.843   5.781  13.249
 6003TIP3    H239425   1.864   5.868  13.127
 6004TIP3   OH239426   2.133   7.126  13.599
 6004TIP3    H139427   2.048   7.140  13.553
 6004TIP3    H239428   2.105   7.110  13.690
 6005TIP3   OH239429   2.427   7.220  13.232
 6005TIP3    H139430   2.383   7.298  13.195
 6005TIP3    H239431   2.513   7.218  13.188
 6006TIP3   OH239432   3.586   5.752  13.357
 6006TIP3    H139433   3.503   5.781  13.316
 6006TIP3    H239434   3.603   5.669  13.305
 6007TIP3   OH239435   2.343   7.255  12.761
 6007TIP3    H139436   2.305   7.179  12.808
 6007TIP3    H239437   2.401   7.292  12.831
 6008TIP3   OH239438   2.926   5.894  12.789
 6008TIP3    H139439   2.857   5.830  12.813
 6008TIP3    H239440   2.979   5.843  12.726
 6009TIP3   OH239441   3.440   5.700  12.793
 6009TIP3    H139442   3.499   5.759  12.740
 6009TIP3    H239443   3.351   5.734  12.769
 6010TIP3   OH239444   3.607   5.824  12.622
 6010TIP3    H139445   3.675   5.767  12.578
 6010TIP3    H239446   3.657   5.908  12.630
 6011TIP3   OH239447   2.162   5.757  12.570
 6011TIP3    H139448   2.083   5.737  12.518
 6011TIP3    H239449   2.208   5.671  12.564
 6012TIP3   OH239450   2.039   5.732  12.142
 6012TIP3    H139451   2.088   5.797  12.089
 6012TIP3    H239452   1.982   5.790  12.196
 6013TIP3   OH239453   2.608   5.750  12.549
 6013TIP3    H139454   2.699   5.787  12.539
 6013TIP3    H239455   2.608   5.728  12.642
 6014TIP3   OH239456   3.183   5.750  12.711
 6014TIP3    H139457   3.173   5.764  12.615
 6014TIP3    H239458   3.142   5.661  12.724
 6015TIP3   OH239459   3.326   5.742  12.268
 6015TIP3    H139460   3.251   5.806  12.268
 6015TIP3    H239461   3.269   5.670  12.304
 6016TIP3   OH239462   2.222   5.926  11.994
 6016TIP3    H139463   2.275   5.865  11.941
 6016TIP3    H239464   2.288   5.959  12.057
 6017TIP3   OH239465   2.721   5.952  12.235
 6017TIP3    H139466   2.751   5.894  12.308
 6017TIP3    H239467   2.734   6.038  12.280
 6018TIP3   OH239468   2.151   5.811  13.515
 6018TIP3    H139469   2.112   5.732  13.556
 6018TIP3    H239470   2.241   5.807  13.554
 6019TIP3   OH239471   2.351   5.749  13.680
 6019TIP3    H139472   2.440   5.716  13.658
 6019TIP3    H239473   2.313   5.669  13.720
 6020TIP3   OH239474   3.191   5.678  13.695
 6020TIP3    H139475   3.200   5.631  13.780
 6020TIP3    H239476   3.283   5.675  13.660
 6021TIP3   OH239477   3.494  -0.024  13.575
 6021TIP3    H139478   3.432  -0.037  13.503
 6021TIP3    H239479   3.508   0.072  13.574
 6022TIP3   OH239480   4.953   6.668  12.557
 6022TIP3    H139481   4.956   6.767  12.553
 6022TIP3    H239482   4.886   6.647  12.491
 6023TIP3   OH239483   4.838   6.597  12.905
 6023TIP3    H139484   4.842   6.533  12.978
 6023TIP3    H239485   4.810   6.542  12.831
 6024TIP3   OH239486   4.077   6.564  13.062
 6024TIP3    H139487   4.085   6.495  13.131
 6024TIP3    H239488   4.152   6.621  13.084
 6025TIP3   OH239489   5.210   6.890  12.736
 6025TIP3    H139490   5.168   6.819  12.785
 6025TIP3    H239491   5.214   6.962  12.801
 6026TIP3   OH239492   4.172   7.010  12.913
 6026TIP3    H139493   4.137   6.924  12.882
 6026TIP3    H239494   4.267   6.990  12.916
 6027TIP3   OH239495   3.833   6.364  12.461
 6027TIP3    H139496   3.791   6.452  12.454
 6027TIP3    H239497   3.777   6.310  12.403
 6028TIP3   OH239498   3.904   6.587  12.676
 6028TIP3    H139499   3.932   6.505  12.720
 6028TIP3    H239500   3.972   6.597  12.608
 6029TIP3   OH239501   4.677   6.833  12.952
 6029TIP3    H139502   4.717   6.772  12.889
 6029TIP3    H239503   4.756   6.855  13.004
 6030TIP3   OH239504   5.539   6.003  13.026
 6030TIP3    H139505   5.557   6.061  13.102
 6030TIP3    H239506   5.596   6.045  12.960
 6031TIP3   OH239507   4.996   6.283  12.985
 6031TIP3    H139508   5.013   6.187  12.985
 6031TIP3    H239509   4.986   6.297  12.889
 6032TIP3   OH239510   4.308   6.092  12.706
 6032TIP3    H139511   4.317   6.175  12.656
 6032TIP3    H239512   4.268   6.035  12.637
 6033TIP3   OH239513   5.081   6.100  12.543
 6033TIP3    H139514   5.147   6.068  12.610
 6033TIP3    H239515   5.138   6.158  12.490
 6034TIP3   OH239516   3.970   6.333  12.780
 6034TIP3    H139517   4.037   6.279  12.825
 6034TIP3    H239518   3.980   6.302  12.688
 6035TIP3   OH239519   4.483   6.472  12.723
 6035TIP3    H139520   4.554   6.413  12.759
 6035TIP3    H239521   4.433   6.407  12.668
 6036TIP3   OH239522   5.583   6.143  13.253
 6036TIP3    H139523   5.523   6.219  13.242
 6036TIP3    H239524   5.586   6.135  13.349
 6037TIP3   OH239525   4.199   5.982  13.110
 6037TIP3    H139526   4.170   6.039  13.036
 6037TIP3    H239527   4.131   6.005  13.178
 6038TIP3   OH239528   4.920   6.925  12.466
 6038TIP3    H139529   4.905   6.905  12.373
 6038TIP3    H239530   4.899   7.021  12.471
 6039TIP3   OH239531   4.449   6.744  13.131
 6039TIP3    H139532   4.379   6.808  13.158
 6039TIP3    H239533   4.520   6.805  13.107
 6040TIP3   OH239534   5.263   6.035  12.742
 6040TIP3    H139535   5.240   5.958  12.796
 6040TIP3    H239536   5.330   6.078  12.798
 6041TIP3   OH239537   4.155   6.167  12.914
 6041TIP3    H139538   4.218   6.236  12.945
 6041TIP3    H239539   4.207   6.127  12.840
 6042TIP3   OH239540   4.296   6.947  13.215
 6042TIP3    H139541   4.290   7.037  13.180
 6042TIP3    H239542   4.207   6.938  13.258
 6043TIP3   OH239543   3.902   6.913  12.296
 6043TIP3    H139544   3.876   6.945  12.207
 6043TIP3    H239545   3.910   6.996  12.347
 6044TIP3   OH239546   5.263   7.076  12.976
 6044TIP3    H139547   5.166   7.085  12.985
 6044TIP3    H239548   5.292   7.166  12.949
 6045TIP3   OH239549   5.296   5.903  13.110
 6045TIP3    H139550   5.223   5.967  13.101
 6045TIP3    H239551   5.367   5.945  13.058
 6046TIP3   OH239552   4.592   5.715  12.857
 6046TIP3    H139553   4.578   5.619  12.849
 6046TIP3    H239554   4.504   5.746  12.887
 6047TIP3   OH239555   5.093   7.223  12.612
 6047TIP3    H139556   5.149   7.161  12.561
 6047TIP3    H239557   5.133   7.306  12.588
 6048TIP3   OH239558   5.214   7.036  12.481
 6048TIP3    H139559   5.179   6.970  12.421
 6048TIP3    H239560   5.214   6.991  12.568
 6049TIP3   OH239561   5.373   6.910  13.332
 6049TIP3    H139562   5.386   6.842  13.262
 6049TIP3    H239563   5.396   6.992  13.285
 6050TIP3   OH239564   4.821   6.596  12.309
 6050TIP3    H139565   4.753   6.653  12.268
 6050TIP3    H239566   4.893   6.603  12.243
 6051TIP3   OH239567   4.830   6.451  12.008
 6051TIP3    H139568   4.901   6.449  12.075
 6051TIP3    H239569   4.861   6.380  11.952
 6052TIP3   OH239570   5.561   6.537  13.136
 6052TIP3    H139571   5.495   6.609  13.140
 6052TIP3    H239572   5.611   6.560  13.055
 6053TIP3   OH239573   5.168   6.615  12.400
 6053TIP3    H139574   5.094   6.639  12.460
 6053TIP3    H239575   5.215   6.547  12.452
 6054TIP3   OH239576   5.160   6.432  13.312
 6054TIP3    H139577   5.160   6.514  13.364
 6054TIP3    H239578   5.097   6.461  13.243
 6055TIP3   OH239579   4.314   6.684  12.586
 6055TIP3    H139580   4.279   6.648  12.499
 6055TIP3    H239581   4.332   6.603  12.636
 6056TIP3   OH239582   4.460   7.020  12.858
 6056TIP3    H139583   4.461   6.969  12.778
 6056TIP3    H239584   4.538   6.986  12.907
 6057TIP3   OH239585   4.358   6.559  12.957
 6057TIP3    H139586   4.418   6.563  12.881
 6057TIP3    H239587   4.399   6.622  13.021
 6058TIP3   OH239588   5.006   7.113  13.030
 6058TIP3    H139589   4.969   7.176  13.092
 6058TIP3    H239590   4.976   7.027  13.070
 6059TIP3   OH239591   4.456   7.000  13.427
 6059TIP3    H139592   4.413   7.074  13.475
 6059TIP3    H239593   4.389   6.977  13.357
 6060TIP3   OH239594   5.054   6.536  12.166
 6060TIP3    H139595   5.110   6.552  12.246
 6060TIP3    H239596   5.099   6.584  12.094
 6061TIP3   OH239597   4.150   6.615  13.343
 6061TIP3    H139598   4.156   6.682  13.413
 6061TIP3    H239599   4.056   6.624  13.321
 6062TIP3   OH239600   4.821   7.205  12.514
 6062TIP3    H139601   4.871   7.237  12.590
 6062TIP3    H239602   4.770   7.282  12.487
 6063TIP3   OH239603   4.279   7.194  13.501
 6063TIP3    H139604   4.272   7.191  13.403
 6063TIP3    H239605   4.185   7.188  13.528
 6064TIP3   OH239606   5.427   5.709  12.157
 6064TIP3    H139607   5.332   5.720  12.181
 6064TIP3    H239608   5.447   5.793  12.112
 6065TIP3   OH239609   4.225   6.584  12.355
 6065TIP3    H139610   4.195   6.661  12.301
 6065TIP3    H239611   4.160   6.517  12.329
 6066TIP3   OH239612   5.543   7.141  11.991
 6066TIP3    H139613   5.551   7.237  12.006
 6066TIP3    H239614   5.636   7.113  11.993
 6067TIP3   OH239615   3.833   6.827  13.243
 6067TIP3    H139616   3.790   6.818  13.156
 6067TIP3    H239617   3.842   6.732  13.264
 6068TIP3   OH239618   3.813   7.096  12.925
 6068TIP3    H139619   3.909   7.091  12.915
 6068TIP3    H239620   3.804   7.179  12.973
 6069TIP3   OH239621   5.631   7.170  13.498
 6069TIP3    H139622   5.621   7.075  13.484
 6069TIP3    H239623   5.542   7.196  13.529
 6070TIP3   OH239624   4.728   7.126  13.374
 6070TIP3    H139625   4.738   7.207  13.426
 6070TIP3    H239626   4.644   7.086  13.403
 6071TIP3   OH239627   5.349   6.317  13.536
 6071TIP3    H139628   5.301   6.362  13.465
 6071TIP3    H239629   5.347   6.225  13.506
 6072TIP3   OH239630   4.063   6.960  13.337
 6072TIP3    H139631   4.084   6.921  13.425
 6072TIP3    H239632   3.976   6.920  13.314
 6073TIP3   OH239633   4.331   5.806  12.932
 6073TIP3    H139634   4.240   5.793  12.895
 6073TIP3    H239635   4.317   5.889  12.980
 6074TIP3   OH239636   4.795   5.772  13.268
 6074TIP3    H139637   4.834   5.730  13.347
 6074TIP3    H239638   4.698   5.761  13.282
 6075TIP3   OH239639   5.124   6.157  13.358
 6075TIP3    H139640   5.067   6.136  13.436
 6075TIP3    H239641   5.105   6.250  13.335
 6076TIP3   OH239642   5.200   6.638  11.948
 6076TIP3    H139643   5.197   6.620  11.851
 6076TIP3    H239644   5.285   6.683  11.953
 6077TIP3   OH239645   4.759   6.031  11.999
 6077TIP3    H139646   4.728   6.025  12.091
 6077TIP3    H239647   4.728   5.943  11.968
 6078TIP3   OH239648   4.340   6.305  13.055
 6078TIP3    H139649   4.268   6.302  13.120
 6078TIP3    H239650   4.335   6.396  13.021
 6079TIP3   OH239651   4.337   6.320  12.542
 6079TIP3    H139652   4.244   6.289  12.531
 6079TIP3    H239653   4.374   6.283  12.458
 6080TIP3   OH239654   4.889   6.366  12.422
 6080TIP3    H139655   4.850   6.448  12.383
 6080TIP3    H239656   4.958   6.347  12.355
 6081TIP3   OH239657   4.794   6.386  13.564
 6081TIP3    H139658   4.742   6.308  13.595
 6081TIP3    H239659   4.878   6.374  13.612
 6082TIP3   OH239660   4.990   6.315  12.705
 6082TIP3    H139661   4.966   6.370  12.630
 6082TIP3    H239662   5.002   6.230  12.659
 6083TIP3   OH239663   4.103   6.328  13.225
 6083TIP3    H139664   4.111   6.369  13.313
 6083TIP3    H239665   4.059   6.244  13.246
 6084TIP3   OH239666   4.440   6.068  11.911
 6084TIP3    H139667   4.395   6.026  11.986
 6084TIP3    H239668   4.369   6.111  11.861
 6085TIP3   OH239669   3.769   6.039  12.624
 6085TIP3    H139670   3.837   6.035  12.694
 6085TIP3    H239671   3.814   6.002  12.546
 6086TIP3   OH239672   3.895   6.111  12.159
 6086TIP3    H139673   3.946   6.172  12.103
 6086TIP3    H239674   3.826   6.173  12.191
 6087TIP3   OH239675   4.912   6.472  13.160
 6087TIP3    H139676   4.950   6.404  13.102
 6087TIP3    H239677   4.865   6.420  13.228
 6088TIP3   OH239678   4.591   6.075  12.645
 6088TIP3    H139679   4.498   6.068  12.674
 6088TIP3    H239680   4.640   6.054  12.726
 6089TIP3   OH239681   4.074   6.225  12.531
 6089TIP3    H139682   3.986   6.242  12.492
 6089TIP3    H239683   4.102   6.142  12.490
 6090TIP3   OH239684   4.438   6.234  12.297
 6090TIP3    H139685   4.535   6.239  12.307
 6090TIP3    H239686   4.414   6.296  12.226
 6091TIP3   OH239687   5.033   5.994  12.968
 6091TIP3    H139688   4.965   5.999  13.039
 6091TIP3    H239689   4.982   5.968  12.890
 6092TIP3   OH239690   4.308   6.347  12.053
 6092TIP3    H139691   4.255   6.309  11.981
 6092TIP3    H239692   4.390   6.368  12.005
 6093TIP3   OH239693   4.121   6.809  13.557
 6093TIP3    H139694   4.193   6.829  13.619
 6093TIP3    H239695   4.043   6.812  13.618
 6094TIP3   OH239696   4.719   6.345  12.832
 6094TIP3    H139697   4.781   6.292  12.781
 6094TIP3    H239698   4.707   6.291  12.912
 6095TIP3   OH239699   4.222   5.960  12.477
 6095TIP3    H139700   4.190   5.868  12.476
 6095TIP3    H239701   4.300   5.954  12.422
 6096TIP3   OH239702   4.584   6.178  13.075
 6096TIP3    H139703   4.502   6.231  13.083
 6096TIP3    H239704   4.640   6.214  13.147
 6097TIP3   OH239705   4.643   6.797  12.246
 6097TIP3    H139706   4.563   6.753  12.210
 6097TIP3    H239707   4.620   6.815  12.338
 6098TIP3   OH239708   5.362   6.721  13.125
 6098TIP3    H139709   5.418   6.771  13.062
 6098TIP3    H239710   5.276   6.726  13.079
 6099TIP3   OH239711   5.026   6.082  12.062
 6099TIP3    H139712   4.931   6.098  12.049
 6099TIP3    H239713   5.060   6.167  12.097
 6100TIP3   OH239714   4.790   6.830  13.368
 6100TIP3    H139715   4.757   6.786  13.447
 6100TIP3    H239716   4.768   6.922  13.381
 6101TIP3   OH239717   5.100   6.274  12.225
 6101TIP3    H139718   5.188   6.261  12.265
 6101TIP3    H239719   5.110   6.356  12.173
 6102TIP3   OH239720   4.154   6.740  12.826
 6102TIP3    H139721   4.219   6.734  12.755
 6102TIP3    H239722   4.158   6.654  12.872
 6103TIP3   OH239723   4.853   6.946  12.147
 6103TIP3    H139724   4.819   7.032  12.181
 6103TIP3    H239725   4.780   6.886  12.169
 6104TIP3   OH239726   3.853   6.581  13.351
 6104TIP3    H139727   3.870   6.536  13.436
 6104TIP3    H239728   3.791   6.520  13.307
 6105TIP3   OH239729   4.554   6.537  13.568
 6105TIP3    H139730   4.522   6.505  13.482
 6105TIP3    H239731   4.647   6.504  13.568
 6106TIP3   OH239732   5.021   7.076  13.356
 6106TIP3    H139733   4.927   7.083  13.339
 6106TIP3    H239734   5.019   7.094  13.454
 6107TIP3   OH239735   5.590   6.287  12.202
 6107TIP3    H139736   5.533   6.259  12.128
 6107TIP3    H239737   5.598   6.382  12.177
 6108TIP3   OH239738   5.590   6.873  13.483
 6108TIP3    H139739   5.501   6.896  13.448
 6108TIP3    H239740   5.643   6.868  13.401
 6109TIP3   OH239741   5.433   7.146  12.263
 6109TIP3    H139742   5.376   7.072  12.276
 6109TIP3    H239743   5.444   7.155  12.167
 6110TIP3   OH239744   5.140   6.652  12.954
 6110TIP3    H139745   5.046   6.632  12.942
 6110TIP3    H239746   5.183   6.577  12.909
 6111TIP3   OH239747   4.396   7.080  12.552
 6111TIP3    H139748   4.441   7.166  12.547
 6111TIP3    H239749   4.304   7.106  12.535
 6112TIP3   OH239750   3.968   6.570  12.020
 6112TIP3    H139751   4.027   6.635  12.063
 6112TIP3    H239752   3.879   6.601  12.045
 6113TIP3   OH239753   4.530   6.849  12.522
 6113TIP3    H139754   4.510   6.945  12.520
 6113TIP3    H239755   4.444   6.820  12.555
 6114TIP3   OH239756   4.609   7.239  13.124
 6114TIP3    H139757   4.623   7.334  13.117
 6114TIP3    H239758   4.640   7.223  13.215
 6115TIP3   OH239759   4.931   6.871  13.118
 6115TIP3    H139760   4.897   6.849  13.207
 6115TIP3    H239761   4.994   6.800  13.101
 6116TIP3   OH239762   5.164   6.976  12.025
 6116TIP3    H139763   5.194   6.932  12.108
 6116TIP3    H239764   5.069   6.961  12.035
 6117TIP3   OH239765   4.018   6.054  13.305
 6117TIP3    H139766   3.927   6.089  13.304
 6117TIP3    H239767   4.007   5.970  13.352
 6118TIP3   OH239768   5.241   6.835  12.249
 6118TIP3    H139769   5.218   6.760  12.307
 6118TIP3    H239770   5.336   6.847  12.269
 6119TIP3   OH239771   3.980   7.229  13.148
 6119TIP3    H139772   4.009   7.138  13.152
 6119TIP3    H239773   4.000   7.263  13.235
 6120TIP3   OH239774   4.578   7.083  11.874
 6120TIP3    H139775   4.586   7.006  11.816
 6120TIP3    H239776   4.534   7.042  11.952
 6121TIP3   OH239777   4.452   7.034  12.119
 6121TIP3    H139778   4.480   6.986  12.197
 6121TIP3    H239779   4.465   7.128  12.147
 6122TIP3   OH239780   4.109   6.763  12.171
 6122TIP3    H139781   4.037   6.803  12.223
 6122TIP3    H239782   4.159   6.841  12.141
 6123TIP3   OH239783   4.891   6.031  13.202
 6123TIP3    H139784   4.963   6.037  13.266
 6123TIP3    H239785   4.853   5.944  13.222
 6124TIP3   OH239786   4.965   5.988  12.310
 6124TIP3    H139787   4.989   6.034  12.228
 6124TIP3    H239788   5.024   6.032  12.374
 6125TIP3   OH239789   4.739   7.207  12.193
 6125TIP3    H139790   4.654   7.255  12.198
 6125TIP3    H239791   4.786   7.258  12.126
 6126TIP3   OH239792   4.688   6.165  12.392
 6126TIP3    H139793   4.768   6.221  12.397
 6126TIP3    H239794   4.664   6.149  12.485
 6127TIP3   OH239795   4.744   6.266  13.312
 6127TIP3    H139796   4.752   6.322  13.391
 6127TIP3    H239797   4.810   6.196  13.321
 6128TIP3   OH239798   4.773   5.869  12.480
 6128TIP3    H139799   4.742   5.934  12.546
 6128TIP3    H239800   4.843   5.924  12.436
 6129TIP3   OH239801   4.480   0.005  12.197
 6129TIP3    H139802   4.483   0.084  12.139
 6129TIP3    H239803   4.450   0.043  12.281
 6130TIP3   OH239804   4.339   5.980  12.152
 6130TIP3    H139805   4.334   6.070  12.190
 6130TIP3    H239806   4.430   5.955  12.178
 6131TIP3   OH239807   5.362   6.053  13.396
 6131TIP3    H139808   5.269   6.084  13.383
 6131TIP3    H239809   5.392   6.051  13.304
 6132TIP3   OH239810   5.223   6.431  12.796
 6132TIP3    H139811   5.141   6.387  12.770
 6132TIP3    H239812   5.272   6.363  12.848
 6133TIP3   OH239813   4.165   7.022  12.057
 6133TIP3    H139814   4.232   7.088  12.083
 6133TIP3    H239815   4.215   6.977  11.987
 6134TIP3   OH239816   3.997   6.291  11.970
 6134TIP3    H139817   3.999   6.387  11.991
 6134TIP3    H239818   3.908   6.274  11.940
 6135TIP3   OH239819   4.079   5.770  12.845
 6135TIP3    H139820   4.060   5.771  12.749
 6135TIP3    H239821   4.037   5.684  12.870
 6136TIP3   OH239822   3.975   7.163  12.456
 6136TIP3    H139823   3.888   7.205  12.455
 6136TIP3    H239824   4.024   7.212  12.389
 6137TIP3   OH239825   4.392   7.287  13.770
 6137TIP3    H139826   4.477   7.247  13.787
 6137TIP3    H239827   4.384   7.273  13.674
 6138TIP3   OH239828   4.779   7.263  11.899
 6138TIP3    H139829   4.705   7.201  11.907
 6138TIP3    H239830   4.849   7.210  11.861
 6139TIP3   OH239831   5.023   7.119  13.609
 6139TIP3    H139832   4.974   7.052  13.660
 6139TIP3    H239833   5.083   7.156  13.674
 6140TIP3   OH239834   5.247   7.239  11.921
 6140TIP3    H139835   5.274   7.156  11.960
 6140TIP3    H239836   5.319   7.261  11.858
 6141TIP3   OH239837   3.887   6.803  13.686
 6141TIP3    H139838   3.902   6.712  13.656
 6141TIP3    H239839   3.813   6.832  13.630
 6142TIP3   OH239840   4.321   6.837  11.889
 6142TIP3    H139841   4.336   6.761  11.948
 6142TIP3    H239842   4.396   6.826  11.828
 6143TIP3   OH239843   4.559   6.803  13.625
 6143TIP3    H139844   4.523   6.833  13.539
 6143TIP3    H239845   4.565   6.705  13.615
 6144TIP3   OH239846   4.865   6.951  11.867
 6144TIP3    H139847   4.835   6.960  11.958
 6144TIP3    H239848   4.845   6.856  11.852
 6145TIP3   OH239849   5.127   6.789  13.365
 6145TIP3    H139850   5.206   6.847  13.356
 6145TIP3    H239851   5.058   6.856  13.369
 6146TIP3   OH239852   3.979   6.528  13.625
 6146TIP3    H139853   4.020   6.441  13.616
 6146TIP3    H239854   3.955   6.528  13.719
 6147TIP3   OH239855   4.444   6.640  12.136
 6147TIP3    H139856   4.388   6.584  12.192
 6147TIP3    H239857   4.471   6.575  12.066
 6148TIP3   OH239858   4.368   6.421  13.360
 6148TIP3    H139859   4.308   6.493  13.386
 6148TIP3    H239860   4.408   6.458  13.280
 6149TIP3   OH239861   4.549   6.463  11.952
 6149TIP3    H139862   4.534   6.454  11.855
 6149TIP3    H239863   4.646   6.468  11.959
 6150TIP3   OH239864   4.875   6.678  13.694
 6150TIP3    H139865   4.971   6.677  13.682
 6150TIP3    H239866   4.858   6.601  13.751
 6151TIP3   OH239867   5.483   6.694  11.893
 6151TIP3    H139868   5.463   6.656  11.806
 6151TIP3    H239869   5.489   6.791  11.874
 6152TIP3   OH239870   4.408   6.159  13.466
 6152TIP3    H139871   4.420   6.088  13.400
 6152TIP3    H239872   4.404   6.240  13.411
 6153TIP3   OH239873   4.449   5.997  13.222
 6153TIP3    H139874   4.500   6.044  13.151
 6153TIP3    H239875   4.360   5.989  13.181
 6154TIP3   OH239876   4.603   6.546  13.246
 6154TIP3    H139877   4.678   6.530  13.189
 6154TIP3    H239878   4.566   6.629  13.212
 6155TIP3   OH239879   5.042   6.321  13.742
 6155TIP3    H139880   5.066   6.228  13.733
 6155TIP3    H239881   5.129   6.366  13.745
 6156TIP3   OH239882   5.176   6.601  13.559
 6156TIP3    H139883   5.151   6.673  13.497
 6156TIP3    H239884   5.272   6.599  13.540
 6157TIP3   OH239885   4.255   6.284  13.658
 6157TIP3    H139886   4.178   6.226  13.642
 6157TIP3    H239887   4.320   6.247  13.596
 6158TIP3   OH239888   4.528   5.741  13.260
 6158TIP3    H139889   4.509   5.837  13.251
 6158TIP3    H239890   4.453   5.704  13.210
 6159TIP3   OH239891   4.655   6.174  13.623
 6159TIP3    H139892   4.623   6.151  13.713
 6159TIP3    H239893   4.577   6.154  13.569
 6160TIP3   OH239894   4.927   6.088  13.532
 6160TIP3    H139895   4.830   6.094  13.543
 6160TIP3    H239896   4.953   6.024  13.601
 6161TIP3   OH239897   5.085   5.950  13.722
 6161TIP3    H139898   5.080   5.852  13.725
 6161TIP3    H239899   5.060   5.979  13.812
 6162TIP3   OH239900   4.062   6.078  13.634
 6162TIP3    H139901   4.087   6.004  13.575
 6162TIP3    H239902   4.054   6.033  13.720
 6163TIP3   OH239903   4.549   5.680  13.531
 6163TIP3    H139904   4.617   5.610  13.529
 6163TIP3    H239905   4.538   5.694  13.435
 6164TIP3   OH239906   4.585   5.842  13.742
 6164TIP3    H139907   4.568   5.791  13.659
 6164TIP3    H239908   4.525   5.918  13.732
 6165TIP3   OH239909   3.890   6.991  12.004
 6165TIP3    H139910   3.985   7.001  12.026
 6165TIP3    H239911   3.896   6.923  11.932
 6166TIP3   OH239912   5.403   6.954  13.744
 6166TIP3    H139913   5.314   6.949  13.783
 6166TIP3    H239914   5.442   7.033  13.789
 6167TIP3   OH239915   5.535   6.783  12.287
 6167TIP3    H139916   5.620   6.827  12.308
 6167TIP3    H239917   5.534   6.714  12.356
 6168TIP3   OH239918   5.571   6.594  12.478
 6168TIP3    H139919   5.496   6.544  12.517
 6168TIP3    H239920   5.631   6.607  12.554
 6169TIP3   OH239921   5.547   6.863  12.978
 6169TIP3    H139922   5.628   6.826  12.938
 6169TIP3    H239923   5.561   6.958  12.961
 6170TIP3   OH239924   5.396   7.152  13.208
 6170TIP3    H139925   5.327   7.190  13.261
 6170TIP3    H239926   5.346   7.116  13.130
 6171TIP3   OH239927   5.602   6.576  12.116
 6171TIP3    H139928   5.545   6.612  12.045
 6171TIP3    H239929   5.592   6.647  12.182
 6172TIP3   OH239930   5.439   6.299  11.967
 6172TIP3    H139931   5.446   6.366  11.898
 6172TIP3    H239932   5.420   6.217  11.918
 6173TIP3   OH239933   5.353   6.441  12.534
 6173TIP3    H139934   5.338   6.346  12.530
 6173TIP3    H239935   5.320   6.463  12.623
 6174TIP3   OH239936   3.854   6.650  12.940
 6174TIP3    H139937   3.872   6.642  12.843
 6174TIP3    H239938   3.943   6.632  12.975
 6175TIP3   OH239939   5.439   6.638  13.503
 6175TIP3    H139940   5.500   6.563  13.516
 6175TIP3    H239941   5.500   6.715  13.504
 6176TIP3   OH239942   5.589   6.426  13.568
 6176TIP3    H139943   5.501   6.386  13.553
 6176TIP3    H239944   5.646   6.348  13.560
 6177TIP3   OH239945   5.363   6.047  11.881
 6177TIP3    H139946   5.422   6.003  11.945
 6177TIP3    H239947   5.277   6.005  11.896
 6178TIP3   OH239948   5.318   6.200  12.376
 6178TIP3    H139949   5.349   6.108  12.392
 6178TIP3    H239950   5.399   6.241  12.345
 6179TIP3   OH239951   5.384   6.254  12.924
 6179TIP3    H139952   5.480   6.277  12.923
 6179TIP3    H239953   5.365   6.268  13.018
 6180TIP3   OH239954   5.391   6.326  13.203
 6180TIP3    H139955   5.302   6.355  13.234
 6180TIP3    H239956   5.434   6.412  13.180
 6181TIP3   OH239957   3.816   6.180  13.556
 6181TIP3    H139958   3.909   6.159  13.575
 6181TIP3    H239959   3.770   6.098  13.583
 6182TIP3   OH239960   5.617   5.733  13.736
 6182TIP3    H139961   5.653   5.667  13.674
 6182TIP3    H239962   5.628   5.814  13.683
 6183TIP3   OH239963   5.387   5.929  12.385
 6183TIP3    H139964   5.408   5.885  12.470
 6183TIP3    H239965   5.327   5.865  12.341
 6184TIP3   OH239966   3.935   6.009  12.840
 6184TIP3    H139967   3.981   5.926  12.866
 6184TIP3    H239968   3.990   6.078  12.880
 6185TIP3   OH239969   3.764   6.309  12.944
 6185TIP3    H139970   3.820   6.284  12.868
 6185TIP3    H239971   3.810   6.390  12.971
 6186TIP3   OH239972   5.570   5.943  13.572
 6186TIP3    H139973   5.476   5.970  13.566
 6186TIP3    H239974   5.573   5.888  13.492
 6187TIP3   OH239975   5.568   5.932  12.040
 6187TIP3    H139976   5.610   5.861  11.986
 6187TIP3    H239977   5.639   5.998  12.045
 6188TIP3   OH239978   3.800   5.937  12.352
 6188TIP3    H139979   3.706   5.953  12.336
 6188TIP3    H239980   3.842   5.984  12.279
 6189TIP3   OH239981   3.795   5.800  13.181
 6189TIP3    H139982   3.728   5.781  13.249
 6189TIP3    H239983   3.749   5.868  13.127
 6190TIP3   OH239984   4.018   7.126  13.599
 6190TIP3    H139985   3.933   7.140  13.553
 6190TIP3    H239986   3.991   7.110  13.690
 6191TIP3   OH239987   4.313   7.220  13.232
 6191TIP3    H139988   4.269   7.298  13.195
 6191TIP3    H239989   4.399   7.218  13.188
 6192TIP3   OH239990   5.472   5.752  13.357
 6192TIP3    H139991   5.389   5.782  13.316
 6192TIP3    H239992   5.488   5.669  13.305
 6193TIP3   OH239993   4.229   7.255  12.761
 6193TIP3    H139994   4.191   7.179  12.808
 6193TIP3    H239995   4.287   7.292  12.831
 6194TIP3   OH239996   4.810   5.894  12.785
 6194TIP3    H139997   4.743   5.830  12.814
 6194TIP3    H239998   4.866   5.841  12.727
 6195TIP3   OH239999   5.324   5.699  12.792
 6195TIP3    H140000   5.385   5.758  12.741
 6195TIP3    H240001   5.236   5.735  12.769
 6196TIP3   OH240002   5.491   5.824  12.620
 6196TIP3    H140003   5.560   5.767  12.578
 6196TIP3    H240004   5.542   5.908  12.630
 6197TIP3   OH240005   4.049   5.757  12.570
 6197TIP3    H140006   3.969   5.738  12.518
 6197TIP3    H240007   4.094   5.670  12.564
 6198TIP3   OH240008   3.925   5.732  12.143
 6198TIP3    H140009   3.974   5.797  12.089
 6198TIP3    H240010   3.867   5.789  12.196
 6199TIP3   OH240011   4.495   5.750  12.549
 6199TIP3    H140012   4.585   5.785  12.542
 6199TIP3    H240013   4.491   5.727  12.642
 6200TIP3   OH240014   5.066   5.751  12.711
 6200TIP3    H140015   5.061   5.763  12.616
 6200TIP3    H240016   5.028   5.661  12.724
 6201TIP3   OH240017   5.193   5.754  12.280
 6201TIP3    H140018   5.118   5.814  12.264
 6201TIP3    H240019   5.149   5.669  12.303
 6202TIP3   OH240020   4.107   5.927  11.994
 6202TIP3    H140021   4.160   5.865  11.941
 6202TIP3    H240022   4.174   5.959  12.057
 6203TIP3   OH240023   4.610   5.951  12.234
 6203TIP3    H140024   4.635   5.893  12.308
 6203TIP3    H240025   4.617   6.038  12.280
 6204TIP3   OH240026   4.036   5.811  13.515
 6204TIP3    H140027   3.997   5.732  13.556
 6204TIP3    H240028   4.127   5.807  13.554
 6205TIP3   OH240029   4.236   5.749  13.680
 6205TIP3    H140030   4.326   5.716  13.658
 6205TIP3    H240031   4.199   5.669  13.720
 6206TIP3   OH240032   5.077   5.678  13.695
 6206TIP3    H140033   5.086   5.631  13.780
 6206TIP3    H240034   5.168   5.676  13.660
 6207TIP3   OH240035   5.379  -0.024  13.575
 6207TIP3    H140036   5.318  -0.036  13.502
 6207TIP3    H240037   5.394   0.072  13.574
 6208TIP3   OH240038   6.842   6.669  12.556
 6208TIP3    H140039   6.842   6.767  12.554
 6208TIP3    H240040   6.769   6.647  12.496
 6209TIP3   OH240041   6.728   6.596  12.906
 6209TIP3    H140042   6.726   6.532  12.978
 6209TIP3    H240043   6.695   6.545  12.830
 6210TIP3   OH240044   5.963   6.564  13.061
 6210TIP3    H140045   5.971   6.495  13.131
 6210TIP3    H240046   6.038   6.621  13.084
 6211TIP3   OH240047   7.098   6.889  12.735
 6211TIP3    H140048   7.056   6.818  12.784
 6211TIP3    H240049   7.100   6.961  12.800
 6212TIP3   OH240050   6.057   7.009  12.914
 6212TIP3    H140051   6.024   6.924  12.881
 6212TIP3    H240052   6.152   6.990  12.915
 6213TIP3   OH240053   5.719   6.364  12.461
 6213TIP3    H140054   5.676   6.451  12.454
 6213TIP3    H240055   5.663   6.310  12.403
 6214TIP3   OH240056   5.790   6.587  12.675
 6214TIP3    H140057   5.818   6.505  12.720
 6214TIP3    H240058   5.860   6.598  12.609
 6215TIP3   OH240059   6.564   6.834  12.955
 6215TIP3    H140060   6.599   6.773  12.887
 6215TIP3    H240061   6.645   6.854  13.004
 6216TIP3   OH240062   6.883   6.284  12.984
 6216TIP3    H140063   6.899   6.188  12.983
 6216TIP3    H240064   6.873   6.298  12.888
 6217TIP3   OH240065   6.193   6.092  12.706
 6217TIP3    H140066   6.204   6.176  12.657
 6217TIP3    H240067   6.153   6.035  12.637
 6218TIP3   OH240068   6.969   6.104  12.545
 6218TIP3    H140069   7.034   6.068  12.611
 6218TIP3    H240070   7.029   6.157  12.491
 6219TIP3   OH240071   5.856   6.333  12.780
 6219TIP3    H140072   5.923   6.279  12.825
 6219TIP3    H240073   5.866   6.302  12.688
 6220TIP3   OH240074   6.371   6.489  12.712
 6220TIP3    H140075   6.439   6.431  12.751
 6220TIP3    H240076   6.320   6.423  12.661
 6221TIP3   OH240077   6.084   5.982  13.110
 6221TIP3    H140078   6.056   6.039  13.036
 6221TIP3    H240079   6.016   6.005  13.178
 6222TIP3   OH240080   6.813   6.928  12.464
 6222TIP3    H140081   6.787   6.903  12.375
 6222TIP3    H240082   6.782   7.021  12.472
 6223TIP3   OH240083   6.335   6.744  13.135
 6223TIP3    H140084   6.265   6.809  13.156
 6223TIP3    H240085   6.406   6.804  13.105
 6224TIP3   OH240086   7.118   6.032  12.754
 6224TIP3    H140087   7.121   5.950  12.804
 6224TIP3    H240088   7.195   6.078  12.794
 6225TIP3   OH240089   6.041   6.168  12.914
 6225TIP3    H140090   6.104   6.237  12.945
 6225TIP3    H240091   6.093   6.127  12.840
 6226TIP3   OH240092   6.182   6.947  13.215
 6226TIP3    H140093   6.175   7.037  13.180
 6226TIP3    H240094   6.093   6.938  13.258
 6227TIP3   OH240095   5.788   6.913  12.296
 6227TIP3    H140096   5.762   6.945  12.207
 6227TIP3    H240097   5.796   6.996  12.347
 6228TIP3   OH240098   7.130   7.069  12.984
 6228TIP3    H140099   7.033   7.087  12.987
 6228TIP3    H240100   7.169   7.151  12.950
 6229TIP3   OH240101   7.161   5.917  13.084
 6229TIP3    H140102   7.092   5.984  13.097
 6229TIP3    H240103   7.237   5.966  13.053
 6230TIP3   OH240104   6.478   5.715  12.857
 6230TIP3    H140105   6.464   5.619  12.850
 6230TIP3    H240106   6.390   5.746  12.887
 6231TIP3   OH240107   6.981   7.224  12.612
 6231TIP3    H140108   7.036   7.161  12.562
 6231TIP3    H240109   7.019   7.308  12.588
 6232TIP3   OH240110   7.102   7.038  12.481
 6232TIP3    H140111   7.068   6.971  12.421
 6232TIP3    H240112   7.101   6.991  12.567
 6233TIP3   OH240113   7.232   6.920  13.343
 6233TIP3    H140114   7.260   6.849  13.282
 6233TIP3    H240115   7.276   6.994  13.297
 6234TIP3   OH240116   6.707   6.594  12.307
 6234TIP3    H140117   6.638   6.652  12.271
 6234TIP3    H240118   6.778   6.604  12.242
 6235TIP3   OH240119   6.715   6.452  12.009
 6235TIP3    H140120   6.787   6.449  12.074
 6235TIP3    H240121   6.746   6.380  11.952
 6236TIP3   OH240122   7.049   6.616  12.397
 6236TIP3    H140123   6.977   6.641  12.459
 6236TIP3    H240124   7.097   6.552  12.453
 6237TIP3   OH240125   7.047   6.434  13.309
 6237TIP3    H140126   7.042   6.513  13.364
 6237TIP3    H240127   6.983   6.460  13.241
 6238TIP3   OH240128   6.213   6.681  12.592
 6238TIP3    H140129   6.182   6.642  12.507
 6238TIP3    H240130   6.275   6.612  12.625
 6239TIP3   OH240131   6.346   7.022  12.858
 6239TIP3    H140132   6.346   6.967  12.779
 6239TIP3    H240133   6.423   6.985  12.906
 6240TIP3   OH240134   6.246   6.556  12.958
 6240TIP3    H140135   6.301   6.566  12.878
 6240TIP3    H240136   6.285   6.622  13.019
 6241TIP3   OH240137   6.882   7.114  13.028
 6241TIP3    H140138   6.857   7.176  13.095
 6241TIP3    H240139   6.860   7.027  13.070
 6242TIP3   OH240140   6.342   7.000  13.428
 6242TIP3    H140141   6.298   7.074  13.475
 6242TIP3    H240142   6.275   6.976  13.357
 6243TIP3   OH240143   6.939   6.534  12.167
 6243TIP3    H140144   6.995   6.556  12.246
 6243TIP3    H240145   6.979   6.586  12.095
 6244TIP3   OH240146   6.036   6.615  13.343
 6244TIP3    H140147   6.041   6.682  13.413
 6244TIP3    H240148   5.942   6.624  13.321
 6245TIP3   OH240149   6.707   7.205  12.516
 6245TIP3    H140150   6.760   7.239  12.588
 6245TIP3    H240151   6.657   7.283  12.487
 6246TIP3   OH240152   6.165   7.193  13.501
 6246TIP3    H140153   6.157   7.191  13.403
 6246TIP3    H240154   6.071   7.188  13.528
 6247TIP3   OH240155   6.109   6.583  12.355
 6247TIP3    H140156   6.082   6.662  12.303
 6247TIP3    H240157   6.045   6.517  12.330
 6248TIP3   OH240158   5.719   6.827  13.243
 6248TIP3    H140159   5.675   6.818  13.156
 6248TIP3    H240160   5.728   6.732  13.264
 6249TIP3   OH240161   5.699   7.096  12.924
 6249TIP3    H140162   5.794   7.091  12.915
 6249TIP3    H240163   5.689   7.179  12.973
 6250TIP3   OH240164   6.613   7.125  13.375
 6250TIP3    H140165   6.624   7.206  13.425
 6250TIP3    H240166   6.529   7.086  13.403
 6251TIP3   OH240167   7.185   6.334  13.540
 6251TIP3    H140168   7.181   6.370  13.450
 6251TIP3    H240169   7.238   6.252  13.524
 6252TIP3   OH240170   5.949   6.960  13.337
 6252TIP3    H140171   5.970   6.921  13.425
 6252TIP3    H240172   5.862   6.920  13.314
 6253TIP3   OH240173   6.216   5.806  12.932
 6253TIP3    H140174   6.126   5.793  12.895
 6253TIP3    H240175   6.203   5.889  12.980
 6254TIP3   OH240176   6.681   5.772  13.268
 6254TIP3    H140177   6.720   5.730  13.347
 6254TIP3    H240178   6.583   5.761  13.283
 6255TIP3   OH240179   7.002   6.153  13.352
 6255TIP3    H140180   6.954   6.136  13.436
 6255TIP3    H240181   6.995   6.248  13.338
 6256TIP3   OH240182   7.089   6.629  11.948
 6256TIP3    H140183   7.082   6.615  11.851
 6256TIP3    H240184   7.166   6.686  11.951
 6257TIP3   OH240185   6.645   6.031  11.999
 6257TIP3    H140186   6.613   6.025  12.091
 6257TIP3    H240187   6.614   5.944  11.968
 6258TIP3   OH240188   6.227   6.304  13.058
 6258TIP3    H140189   6.153   6.302  13.121
 6258TIP3    H240190   6.222   6.394  13.020
 6259TIP3   OH240191   6.222   6.314  12.544
 6259TIP3    H140192   6.129   6.290  12.530
 6259TIP3    H240193   6.260   6.286  12.458
 6260TIP3   OH240194   6.776   6.366  12.422
 6260TIP3    H140195   6.735   6.447  12.384
 6260TIP3    H240196   6.844   6.349  12.355
 6261TIP3   OH240197   6.681   6.386  13.565
 6261TIP3    H140198   6.629   6.308  13.595
 6261TIP3    H240199   6.765   6.374  13.612
 6262TIP3   OH240200   6.875   6.316  12.707
 6262TIP3    H140201   6.851   6.370  12.630
 6262TIP3    H240202   6.888   6.230  12.661
 6263TIP3   OH240203   5.988   6.328  13.225
 6263TIP3    H140204   5.997   6.369  13.313
 6263TIP3    H240205   5.944   6.244  13.246
 6264TIP3   OH240206   6.326   6.068  11.911
 6264TIP3    H140207   6.280   6.026  11.986
 6264TIP3    H240208   6.255   6.111  11.861
 6265TIP3   OH240209   5.654   6.039  12.624
 6265TIP3    H140210   5.723   6.035  12.694
 6265TIP3    H240211   5.699   6.002  12.546
 6266TIP3   OH240212   5.781   6.111  12.159
 6266TIP3    H140213   5.832   6.172  12.103
 6266TIP3    H240214   5.712   6.173  12.191
 6267TIP3   OH240215   6.796   6.471  13.160
 6267TIP3    H140216   6.836   6.402  13.103
 6267TIP3    H240217   6.750   6.419  13.228
 6268TIP3   OH240218   6.477   6.071  12.645
 6268TIP3    H140219   6.383   6.071  12.674
 6268TIP3    H240220   6.527   6.053  12.726
 6269TIP3   OH240221   5.959   6.225  12.531
 6269TIP3    H140222   5.870   6.241  12.492
 6269TIP3    H240223   5.987   6.142  12.490
 6270TIP3   OH240224   6.323   6.230  12.294
 6270TIP3    H140225   6.419   6.241  12.310
 6270TIP3    H240226   6.299   6.298  12.228
 6271TIP3   OH240227   6.911   5.991  12.969
 6271TIP3    H140228   6.844   5.998  13.040
 6271TIP3    H240229   6.862   5.969  12.889
 6272TIP3   OH240230   6.194   6.348  12.053
 6272TIP3    H140231   6.141   6.309  11.981
 6272TIP3    H240232   6.276   6.368  12.005
 6273TIP3   OH240233   6.006   6.809  13.557
 6273TIP3    H140234   6.078   6.829  13.619
 6273TIP3    H240235   5.929   6.812  13.618
 6274TIP3   OH240236   6.606   6.346  12.833
 6274TIP3    H140237   6.666   6.293  12.780
 6274TIP3    H240238   6.591   6.291  12.912
 6275TIP3   OH240239   6.107   5.960  12.477
 6275TIP3    H140240   6.076   5.868  12.476
 6275TIP3    H240241   6.186   5.954  12.422
 6276TIP3   OH240242   6.470   6.178  13.075
 6276TIP3    H140243   6.388   6.230  13.084
 6276TIP3    H240244   6.525   6.214  13.147
 6277TIP3   OH240245   6.529   6.799  12.245
 6277TIP3    H140246   6.449   6.753  12.212
 6277TIP3    H240247   6.506   6.812  12.340
 6278TIP3   OH240248   7.215   6.723  13.125
 6278TIP3    H140249   7.288   6.736  13.059
 6278TIP3    H240250   7.140   6.723  13.063
 6279TIP3   OH240251   6.915   6.083  12.061
 6279TIP3    H140252   6.819   6.095  12.047
 6279TIP3    H240253   6.943   6.169  12.098
 6280TIP3   OH240254   6.677   6.830  13.368
 6280TIP3    H140255   6.643   6.786  13.446
 6280TIP3    H240256   6.656   6.922  13.380
 6281TIP3   OH240257   6.985   6.276  12.222
 6281TIP3    H140258   7.072   6.262  12.265
 6281TIP3    H240259   6.995   6.360  12.174
 6282TIP3   OH240260   6.039   6.740  12.825
 6282TIP3    H140261   6.108   6.733  12.755
 6282TIP3    H240262   6.046   6.654  12.870
 6283TIP3   OH240263   6.736   6.946  12.147
 6283TIP3    H140264   6.705   7.032  12.181
 6283TIP3    H240265   6.663   6.886  12.172
 6284TIP3   OH240266   5.739   6.581  13.351
 6284TIP3    H140267   5.756   6.536  13.436
 6284TIP3    H240268   5.677   6.520  13.307
 6285TIP3   OH240269   6.440   6.537  13.568
 6285TIP3    H140270   6.408   6.505  13.482
 6285TIP3    H240271   6.532   6.504  13.568
 6286TIP3   OH240272   6.908   7.076  13.357
 6286TIP3    H140273   6.814   7.082  13.338
 6286TIP3    H240274   6.905   7.093  13.454
 6287TIP3   OH240275   7.019   6.650  12.954
 6287TIP3    H140276   6.926   6.628  12.939
 6287TIP3    H240277   7.067   6.576  12.911
 6288TIP3   OH240278   6.281   7.082  12.554
 6288TIP3    H140279   6.327   7.167  12.546
 6288TIP3    H240280   6.190   7.106  12.535
 6289TIP3   OH240281   5.854   6.569  12.020
 6289TIP3    H140282   5.912   6.635  12.062
 6289TIP3    H240283   5.765   6.601  12.045
 6290TIP3   OH240284   6.421   6.851  12.515
 6290TIP3    H140285   6.389   6.943  12.524
 6290TIP3    H240286   6.348   6.803  12.559
 6291TIP3   OH240287   6.493   7.238  13.125
 6291TIP3    H140288   6.508   7.333  13.117
 6291TIP3    H240289   6.525   7.224  13.216
 6292TIP3   OH240290   6.819   6.871  13.118
 6292TIP3    H140291   6.782   6.849  13.206
 6292TIP3    H240292   6.880   6.798  13.100
 6293TIP3   OH240293   7.048   6.971  12.025
 6293TIP3    H140294   7.080   6.934  12.109
 6293TIP3    H240295   6.953   6.959  12.035
 6294TIP3   OH240296   5.904   6.054  13.305
 6294TIP3    H140297   5.813   6.089  13.304
 6294TIP3    H240298   5.893   5.970  13.352
 6295TIP3   OH240299   7.128   6.833  12.248
 6295TIP3    H140300   7.106   6.759  12.308
 6295TIP3    H240301   7.220   6.852  12.271
 6296TIP3   OH240302   5.865   7.227  13.148
 6296TIP3    H140303   5.895   7.136  13.153
 6296TIP3    H240304   5.885   7.265  13.234
 6297TIP3   OH240305   6.463   7.083  11.874
 6297TIP3    H140306   6.470   7.005  11.816
 6297TIP3    H240307   6.420   7.042  11.952
 6298TIP3   OH240308   6.338   7.034  12.120
 6298TIP3    H140309   6.366   6.985  12.199
 6298TIP3    H240310   6.350   7.127  12.148
 6299TIP3   OH240311   5.994   6.763  12.170
 6299TIP3    H140312   5.922   6.803  12.223
 6299TIP3    H240313   6.044   6.841  12.140
 6300TIP3   OH240314   6.774   6.031  13.203
 6300TIP3    H140315   6.849   6.037  13.263
 6300TIP3    H240316   6.737   5.942  13.223
 6301TIP3   OH240317   6.857   5.986  12.311
 6301TIP3    H140318   6.875   6.035  12.228
 6301TIP3    H240319   6.912   6.034  12.375
 6302TIP3   OH240320   6.625   7.208  12.193
 6302TIP3    H140321   6.540   7.255  12.198
 6302TIP3    H240322   6.673   7.258  12.126
 6303TIP3   OH240323   6.575   6.163  12.392
 6303TIP3    H140324   6.653   6.222  12.397
 6303TIP3    H240325   6.548   6.152  12.486
 6304TIP3   OH240326   6.633   6.266  13.312
 6304TIP3    H140327   6.641   6.322  13.391
 6304TIP3    H240328   6.698   6.195  13.321
 6305TIP3   OH240329   6.655   5.870  12.479
 6305TIP3    H140330   6.628   5.935  12.546
 6305TIP3    H240331   6.727   5.923  12.436
 6306TIP3   OH240332   6.366   0.005  12.197
 6306TIP3    H140333   6.368   0.084  12.139
 6306TIP3    H240334   6.336   0.042  12.281
 6307TIP3   OH240335   6.225   5.980  12.152
 6307TIP3    H140336   6.220   6.070  12.190
 6307TIP3    H240337   6.316   5.955  12.178
 6308TIP3   OH240338   7.235   6.030  13.377
 6308TIP3    H140339   7.152   6.083  13.379
 6308TIP3    H240340   7.276   6.057  13.295
 6309TIP3   OH240341   7.108   6.432  12.801
 6309TIP3    H140342   7.026   6.388  12.770
 6309TIP3    H240343   7.152   6.360  12.850
 6310TIP3   OH240344   6.050   7.024  12.056
 6310TIP3    H140345   6.118   7.088  12.083
 6310TIP3    H240346   6.101   6.977  11.987
 6311TIP3   OH240347   5.883   6.291  11.970
 6311TIP3    H140348   5.885   6.387  11.991
 6311TIP3    H240349   5.794   6.274  11.940
 6312TIP3   OH240350   5.964   5.770  12.845
 6312TIP3    H140351   5.945   5.771  12.749
 6312TIP3    H240352   5.923   5.684  12.870
 6313TIP3   OH240353   5.861   7.162  12.456
 6313TIP3    H140354   5.774   7.205  12.456
 6313TIP3    H240355   5.910   7.211  12.390
 6314TIP3   OH240356   6.277   7.287  13.770
 6314TIP3    H140357   6.363   7.247  13.787
 6314TIP3    H240358   6.270   7.273  13.674
 6315TIP3   OH240359   6.665   7.264  11.899
 6315TIP3    H140360   6.590   7.201  11.907
 6315TIP3    H240361   6.735   7.210  11.862
 6316TIP3   OH240362   6.911   7.120  13.610
 6316TIP3    H140363   6.862   7.052  13.660
 6316TIP3    H240364   6.972   7.154  13.677
 6317TIP3   OH240365   7.140   7.244  11.928
 6317TIP3    H140366   7.156   7.154  11.960
 6317TIP3    H240367   7.204   7.258  11.857
 6318TIP3   OH240368   5.773   6.803  13.686
 6318TIP3    H140369   5.788   6.712  13.656
 6318TIP3    H240370   5.698   6.832  13.630
 6319TIP3   OH240371   6.206   6.836  11.888
 6319TIP3    H140372   6.221   6.761  11.948
 6319TIP3    H240373   6.282   6.826  11.828
 6320TIP3   OH240374   6.445   6.803  13.624
 6320TIP3    H140375   6.409   6.833  13.539
 6320TIP3    H240376   6.451   6.705  13.615
 6321TIP3   OH240377   6.750   6.951  11.867
 6321TIP3    H140378   6.720   6.960  11.958
 6321TIP3    H240379   6.730   6.856  11.852
 6322TIP3   OH240380   7.011   6.786  13.365
 6322TIP3    H140381   7.090   6.845  13.357
 6322TIP3    H240382   6.943   6.854  13.370
 6323TIP3   OH240383   5.864   6.528  13.625
 6323TIP3    H140384   5.905   6.441  13.616
 6323TIP3    H240385   5.840   6.528  13.719
 6324TIP3   OH240386   6.328   6.640  12.133
 6324TIP3    H140387   6.276   6.586  12.195
 6324TIP3    H240388   6.357   6.573  12.067
 6325TIP3   OH240389   6.253   6.421  13.361
 6325TIP3    H140390   6.194   6.493  13.386
 6325TIP3    H240391   6.293   6.458  13.280
 6326TIP3   OH240392   6.434   6.463  11.952
 6326TIP3    H140393   6.419   6.454  11.855
 6326TIP3    H240394   6.532   6.468  11.958
 6327TIP3   OH240395   6.761   6.678  13.694
 6327TIP3    H140396   6.856   6.677  13.683
 6327TIP3    H240397   6.745   6.601  13.750
 6328TIP3   OH240398   6.294   6.159  13.466
 6328TIP3    H140399   6.306   6.088  13.400
 6328TIP3    H240400   6.290   6.240  13.412
 6329TIP3   OH240401   6.334   5.997  13.222
 6329TIP3    H140402   6.385   6.044  13.151
 6329TIP3    H240403   6.245   5.989  13.181
 6330TIP3   OH240404   6.488   6.546  13.246
 6330TIP3    H140405   6.564   6.530  13.189
 6330TIP3    H240406   6.452   6.629  13.212
 6331TIP3   OH240407   6.933   6.324  13.743
 6331TIP3    H140408   6.955   6.230  13.732
 6331TIP3    H240409   7.021   6.366  13.739
 6332TIP3   OH240410   7.064   6.605  13.559
 6332TIP3    H140411   7.034   6.674  13.495
 6332TIP3    H240412   7.157   6.595  13.538
 6333TIP3   OH240413   6.140   6.284  13.658
 6333TIP3    H140414   6.063   6.227  13.640
 6333TIP3    H240415   6.206   6.247  13.596
 6334TIP3   OH240416   6.413   5.741  13.261
 6334TIP3    H140417   6.395   5.837  13.251
 6334TIP3    H240418   6.338   5.704  13.210
 6335TIP3   OH240419   6.540   6.174  13.624
 6335TIP3    H140420   6.508   6.150  13.713
 6335TIP3    H240421   6.462   6.154  13.569
 6336TIP3   OH240422   6.808   6.090  13.533
 6336TIP3    H140423   6.712   6.093  13.545
 6336TIP3    H240424   6.840   6.026  13.598
 6337TIP3   OH240425   6.980   5.948  13.726
 6337TIP3    H140426   6.965   5.851  13.725
 6337TIP3    H240427   6.944   5.979  13.811
 6338TIP3   OH240428   5.948   6.078  13.634
 6338TIP3    H140429   5.973   6.004  13.575
 6338TIP3    H240430   5.939   6.033  13.720
 6339TIP3   OH240431   6.435   5.680  13.531
 6339TIP3    H140432   6.503   5.610  13.529
 6339TIP3    H240433   6.423   5.695  13.435
 6340TIP3   OH240434   6.471   5.842  13.742
 6340TIP3    H140435   6.454   5.791  13.659
 6340TIP3    H240436   6.411   5.918  13.732
 6341TIP3   OH240437   5.776   6.990  12.004
 6341TIP3    H140438   5.871   7.001  12.026
 6341TIP3    H240439   5.781   6.923  11.932
 6342TIP3   OH240440   7.276   7.147  13.211
 6342TIP3    H140441   7.208   7.191  13.262
 6342TIP3    H240442   7.228   7.110  13.134
 6343TIP3   OH240443   7.188   6.448  12.543
 6343TIP3    H140444   7.214   6.356  12.547
 6343TIP3    H240445   7.200   6.474  12.637
 6344TIP3   OH240446   5.739   6.650  12.940
 6344TIP3    H140447   5.757   6.642  12.844
 6344TIP3    H240448   5.829   6.632  12.975
 6345TIP3   OH240449   7.247   6.043  11.881
 6345TIP3    H140450   7.305   6.001  11.944
 6345TIP3    H240451   7.160   6.002  11.900
 6346TIP3   OH240452   7.202   6.193  12.363
 6346TIP3    H140453   7.230   6.109  12.404
 6346TIP3    H240454   7.287   6.228  12.334
 6347TIP3   OH240455  -0.054   6.171  12.925
 6347TIP3    H140456   0.035   6.206  12.910
 6347TIP3    H240457  -0.075   6.235  12.994
 6348TIP3   OH240458   7.278   6.332  13.228
 6348TIP3    H140459   7.184   6.359  13.237
 6348TIP3    H240460   7.314   6.401  13.169
 6349TIP3   OH240461   5.701   6.180  13.556
 6349TIP3    H140462   5.795   6.159  13.575
 6349TIP3    H240463   5.655   6.098  13.583
 6350TIP3   OH240464   7.183   5.898  12.450
 6350TIP3    H140465   7.276   5.880  12.472
 6350TIP3    H240466   7.185   5.856  12.361
 6351TIP3   OH240467   5.821   6.009  12.840
 6351TIP3    H140468   5.867   5.927  12.866
 6351TIP3    H240469   5.876   6.078  12.879
 6352TIP3   OH240470   5.649   6.310  12.944
 6352TIP3    H140471   5.706   6.284  12.868
 6352TIP3    H240472   5.696   6.390  12.971
 6353TIP3   OH240473   5.686   5.937  12.352
 6353TIP3    H140474   5.592   5.953  12.336
 6353TIP3    H240475   5.728   5.985  12.279
 6354TIP3   OH240476   5.681   5.800  13.181
 6354TIP3    H140477   5.614   5.781  13.249
 6354TIP3    H240478   5.635   5.868  13.127
 6355TIP3   OH240479   5.904   7.126  13.599
 6355TIP3    H140480   5.819   7.140  13.553
 6355TIP3    H240481   5.876   7.110  13.690
 6356TIP3   OH240482   6.199   7.220  13.232
 6356TIP3    H140483   6.154   7.298  13.195
 6356TIP3    H240484   6.285   7.218  13.188
 6357TIP3   OH240485   6.116   7.254  12.761
 6357TIP3    H140486   6.076   7.179  12.808
 6357TIP3    H240487   6.172   7.292  12.831
 6358TIP3   OH240488   6.694   5.894  12.786
 6358TIP3    H140489   6.628   5.829  12.814
 6358TIP3    H240490   6.751   5.842  12.728
 6359TIP3   OH240491   7.211   5.698  12.793
 6359TIP3    H140492   7.268   5.761  12.749
 6359TIP3    H240493   7.122   5.734  12.772
 6360TIP3   OH240494   5.934   5.757  12.570
 6360TIP3    H140495   5.854   5.737  12.517
 6360TIP3    H240496   5.979   5.671  12.564
 6361TIP3   OH240497   5.810   5.732  12.142
 6361TIP3    H140498   5.859   5.797  12.089
 6361TIP3    H240499   5.753   5.790  12.196
 6362TIP3   OH240500   6.380   5.749  12.549
 6362TIP3    H140501   6.470   5.785  12.541
 6362TIP3    H240502   6.377   5.727  12.642
 6363TIP3   OH240503   6.954   5.747  12.712
 6363TIP3    H140504   6.948   5.765  12.617
 6363TIP3    H240505   6.911   5.659  12.723
 6364TIP3   OH240506   7.075   5.746  12.268
 6364TIP3    H140507   7.005   5.812  12.264
 6364TIP3    H240508   7.028   5.666  12.301
 6365TIP3   OH240509   5.993   5.927  11.994
 6365TIP3    H140510   6.046   5.865  11.941
 6365TIP3    H240511   6.059   5.959  12.057
 6366TIP3   OH240512   6.496   5.951  12.234
 6366TIP3    H140513   6.521   5.893  12.308
 6366TIP3    H240514   6.503   6.037  12.280
 6367TIP3   OH240515   5.922   5.811  13.515
 6367TIP3    H140516   5.883   5.731  13.556
 6367TIP3    H240517   6.013   5.807  13.553
 6368TIP3   OH240518   6.122   5.749  13.680
 6368TIP3    H140519   6.211   5.716  13.658
 6368TIP3    H240520   6.085   5.669  13.720
 6369TIP3   OH240521   6.962   5.681  13.694
 6369TIP3    H140522   6.971   5.633  13.779
 6369TIP3    H240523   7.054   5.678  13.659
 6370TIP3   OH240524   7.274  -0.026  13.573
 6370TIP3    H140525   7.208  -0.040  13.505
 6370TIP3    H240526   7.280   0.071  13.576
 6371TIP3   OH240527   1.185   1.014  14.440
 6371TIP3    H140528   1.183   1.112  14.439
 6371TIP3    H240529   1.112   0.991  14.381
 6372TIP3   OH240530   1.070   0.939  14.792
 6372TIP3    H140531   1.069   0.874  14.863
 6372TIP3    H240532   1.036   0.888  14.716
 6373TIP3   OH240533   0.310   0.907  14.947
 6373TIP3    H140534   0.318   0.837  15.014
 6373TIP3    H240535   0.383   0.966  14.969
 6374TIP3   OH240536   1.439   1.234  14.620
 6374TIP3    H140537   1.398   1.162  14.670
 6374TIP3    H240538   1.442   1.305  14.687
 6375TIP3   OH240539   0.398   1.350  14.799
 6375TIP3    H140540   0.367   1.265  14.764
 6375TIP3    H240541   0.494   1.333  14.801
 6376TIP3   OH240542   0.089   0.706  14.305
 6376TIP3    H140543   0.045   0.787  14.341
 6376TIP3    H240544   0.010   0.653  14.304
 6377TIP3   OH240545   0.130   0.925  14.556
 6377TIP3    H140546   0.160   0.848  14.608
 6377TIP3    H240547   0.204   0.941  14.496
 6378TIP3   OH240548   1.151   1.750  14.644
 6378TIP3    H140549   1.216   1.681  14.615
 6378TIP3    H240550   1.130   1.717  14.731
 6379TIP3   OH240551   0.908   1.180  14.839
 6379TIP3    H140552   0.942   1.117  14.773
 6379TIP3    H240553   0.989   1.195  14.890
 6380TIP3   OH240554   1.767   0.345  14.911
 6380TIP3    H140555   1.786   0.403  14.989
 6380TIP3    H240556   1.823   0.388  14.845
 6381TIP3   OH240557   1.225   0.626  14.871
 6381TIP3    H140558   1.241   0.530  14.871
 6381TIP3    H240559   1.215   0.641  14.775
 6382TIP3   OH240560   0.538   0.437  14.593
 6382TIP3    H140561   0.548   0.519  14.542
 6382TIP3    H240562   0.498   0.379  14.524
 6383TIP3   OH240563   1.311   0.441  14.429
 6383TIP3    H140564   1.376   0.413  14.497
 6383TIP3    H240565   1.365   0.500  14.376
 6384TIP3   OH240566   0.195   0.668  14.659
 6384TIP3    H140567   0.268   0.621  14.706
 6384TIP3    H240568   0.213   0.640  14.569
 6385TIP3   OH240569   0.714   0.832  14.597
 6385TIP3    H140570   0.782   0.774  14.637
 6385TIP3    H240571   0.663   0.766  14.546
 6386TIP3   OH240572   1.814   0.487  15.140
 6386TIP3    H140573   1.751   0.561  15.129
 6386TIP3    H240574   1.816   0.476  15.236
 6387TIP3   OH240575   0.431   0.330  14.994
 6387TIP3    H140576   0.397   0.385  14.920
 6387TIP3    H240577   0.361   0.348  15.062
 6388TIP3   OH240578   1.156   1.273  14.350
 6388TIP3    H140579   1.130   1.246  14.261
 6388TIP3    H240580   1.125   1.366  14.356
 6389TIP3   OH240581   0.680   1.089  15.022
 6389TIP3    H140582   0.609   1.154  15.040
 6389TIP3    H240583   0.750   1.148  14.991
 6390TIP3   OH240584   1.493   0.376  14.627
 6390TIP3    H140585   1.467   0.302  14.683
 6390TIP3    H240586   1.558   0.421  14.683
 6391TIP3   OH240587   0.381   0.514  14.797
 6391TIP3    H140588   0.445   0.579  14.832
 6391TIP3    H240589   0.435   0.471  14.726
 6392TIP3   OH240590   0.522   1.288  15.101
 6392TIP3    H140591   0.519   1.379  15.067
 6392TIP3    H240592   0.433   1.283  15.143
 6393TIP3   OH240593   0.126   1.256  14.175
 6393TIP3    H140594   0.108   1.291  14.086
 6393TIP3    H240595   0.140   1.335  14.231
 6394TIP3   OH240596   1.492   1.418  14.857
 6394TIP3    H140597   1.395   1.429  14.869
 6394TIP3    H240598   1.519   1.510  14.837
 6395TIP3   OH240599   1.527   0.247  15.002
 6395TIP3    H140600   1.453   0.306  14.986
 6395TIP3    H240601   1.597   0.287  14.946
 6396TIP3   OH240602   0.818   0.059  14.725
 6396TIP3    H140603   0.817  -0.036  14.741
 6396TIP3    H240604   0.739   0.086  14.775
 6397TIP3   OH240605   1.318   1.597  14.516
 6397TIP3    H140606   1.361   1.525  14.465
 6397TIP3    H240607   1.362   1.675  14.477
 6398TIP3   OH240608   1.440   1.389  14.368
 6398TIP3    H140609   1.409   1.320  14.307
 6398TIP3    H240610   1.443   1.340  14.452
 6399TIP3   OH240611   1.601   1.249  15.217
 6399TIP3    H140612   1.616   1.183  15.145
 6399TIP3    H240613   1.620   1.333  15.173
 6400TIP3   OH240614   1.051   0.936  14.193
 6400TIP3    H140615   0.982   0.995  14.157
 6400TIP3    H240616   1.122   0.948  14.127
 6401TIP3   OH240617   1.059   0.795  13.894
 6401TIP3    H140618   1.130   0.793  13.960
 6401TIP3    H240619   1.090   0.723  13.837
 6402TIP3   OH240620   1.788   0.878  15.019
 6402TIP3    H140621   1.726   0.953  15.025
 6402TIP3    H240622   1.839   0.903  14.941
 6403TIP3   OH240623   1.396   0.958  14.285
 6403TIP3    H140624   1.322   0.983  14.345
 6403TIP3    H240625   1.443   0.891  14.338
 6404TIP3   OH240626   1.388   0.776  15.196
 6404TIP3    H140627   1.389   0.856  15.250
 6404TIP3    H240628   1.325   0.805  15.128
 6405TIP3   OH240629   0.559   1.026  14.477
 6405TIP3    H140630   0.524   0.986  14.393
 6405TIP3    H240631   0.619   0.955  14.510
 6406TIP3   OH240632   0.689   1.363  14.745
 6406TIP3    H140633   0.689   1.310  14.664
 6406TIP3    H240634   0.767   1.328  14.791
 6407TIP3   OH240635   0.593   0.899  14.843
 6407TIP3    H140636   0.646   0.910  14.762
 6407TIP3    H240637   0.629   0.968  14.903
 6408TIP3   OH240638   1.231   1.457  14.914
 6408TIP3    H140639   1.202   1.520  14.979
 6408TIP3    H240640   1.206   1.371  14.956
 6409TIP3   OH240641   0.683   1.339  15.314
 6409TIP3    H140642   0.644   1.415  15.362
 6409TIP3    H240643   0.618   1.324  15.241
 6410TIP3   OH240644   1.284   0.879  14.052
 6410TIP3    H140645   1.339   0.896  14.132
 6410TIP3    H240646   1.329   0.929  13.980
 6411TIP3   OH240647   0.377   0.965  15.230
 6411TIP3    H140648   0.383   1.043  15.288
 6411TIP3    H240649   0.284   0.975  15.199
 6412TIP3   OH240650   1.055   1.551  14.399
 6412TIP3    H140651   1.098   1.582  14.480
 6412TIP3    H240652   0.999   1.626  14.375
 6413TIP3   OH240653   0.510   1.545  15.387
 6413TIP3    H140654   0.502   1.537  15.290
 6413TIP3    H240655   0.416   1.531  15.413
 6414TIP3   OH240656   1.652   0.067  14.017
 6414TIP3    H140657   1.567   0.071  14.063
 6414TIP3    H240658   1.676   0.158  13.996
 6415TIP3   OH240659   0.455   0.926  14.240
 6415TIP3    H140660   0.426   1.004  14.188
 6415TIP3    H240661   0.390   0.860  14.216
 6416TIP3   OH240662   1.766   1.489  13.875
 6416TIP3    H140663   1.785   1.582  13.895
 6416TIP3    H240664   1.858   1.456  13.878
 6417TIP3   OH240665   0.123   1.155  15.104
 6417TIP3    H140666   0.047   1.170  15.044
 6417TIP3    H240667   0.082   1.077  15.148
 6418TIP3   OH240668   0.069   1.467  14.778
 6418TIP3    H140669   0.151   1.427  14.807
 6418TIP3    H240670   0.040   1.513  14.858
 6419TIP3   OH240671   1.863   1.513  15.371
 6419TIP3    H140672   1.848   1.417  15.375
 6419TIP3    H240673   1.778   1.540  15.415
 6420TIP3   OH240674   0.958   1.468  15.262
 6420TIP3    H140675   0.964   1.552  15.314
 6420TIP3    H240676   0.871   1.432  15.286
 6421TIP3   OH240677   1.003   1.842  14.240
 6421TIP3    H140678   0.992   1.834  14.144
 6421TIP3    H240679   1.003   1.938  14.256
 6422TIP3   OH240680   0.365   1.730  14.421
 6422TIP3    H140681   0.380   1.690  14.510
 6422TIP3    H240682   0.282   1.687  14.398
 6423TIP3   OH240683   1.308   1.763  13.939
 6423TIP3    H140684   1.354   1.687  13.895
 6423TIP3    H240685   1.312   1.737  14.033
 6424TIP3   OH240686   1.278   1.757  14.216
 6424TIP3    H140687   1.182   1.764  14.233
 6424TIP3    H240688   1.301   1.683  14.274
 6425TIP3   OH240689   1.579   0.659  15.419
 6425TIP3    H140690   1.530   0.704  15.349
 6425TIP3    H240691   1.577   0.566  15.393
 6426TIP3   OH240692   0.294   1.308  15.228
 6426TIP3    H140693   0.310   1.268  15.315
 6426TIP3    H240694   0.209   1.266  15.200
 6427TIP3   OH240695   0.557   0.146  14.820
 6427TIP3    H140696   0.468   0.139  14.781
 6427TIP3    H240697   0.546   0.232  14.865
 6428TIP3   OH240698   1.021   0.118  15.159
 6428TIP3    H140699   1.064   0.075  15.233
 6428TIP3    H240700   0.926   0.107  15.175
 6429TIP3   OH240701   1.350   0.495  15.242
 6429TIP3    H140702   1.294   0.480  15.322
 6429TIP3    H240703   1.337   0.589  15.221
 6430TIP3   OH240704   1.428   0.982  13.834
 6430TIP3    H140705   1.426   0.963  13.737
 6430TIP3    H240706   1.514   1.027  13.839
 6431TIP3   OH240707   0.988   0.373  13.886
 6431TIP3    H140708   0.955   0.366  13.977
 6431TIP3    H240709   0.956   0.286  13.855
 6432TIP3   OH240710   0.569   0.647  14.944
 6432TIP3    H140711   0.494   0.646  15.006
 6432TIP3    H240712   0.566   0.737  14.904
 6433TIP3   OH240713   0.568   0.659  14.429
 6433TIP3    H140714   0.474   0.635  14.415
 6433TIP3    H240715   0.605   0.629  14.344
 6434TIP3   OH240716   1.118   0.709  14.306
 6434TIP3    H140717   1.078   0.791  14.269
 6434TIP3    H240718   1.187   0.691  14.240
 6435TIP3   OH240719   1.023   0.731  15.450
 6435TIP3    H140720   0.971   0.652  15.480
 6435TIP3    H240721   1.108   0.718  15.496
 6436TIP3   OH240722   1.221   0.658  14.591
 6436TIP3    H140723   1.192   0.713  14.517
 6436TIP3    H240724   1.230   0.573  14.544
 6437TIP3   OH240725   0.334   0.671  15.111
 6437TIP3    H140726   0.332   0.709  15.198
 6437TIP3    H240727   0.284   0.589  15.127
 6438TIP3   OH240728   0.669   0.413  13.797
 6438TIP3    H140729   0.623   0.369  13.871
 6438TIP3    H240730   0.598   0.452  13.745
 6439TIP3   OH240731   0.034   0.413  14.489
 6439TIP3    H140732   0.069   0.382  14.576
 6439TIP3    H240733   0.050   0.338  14.433
 6440TIP3   OH240734   0.123   0.469  14.045
 6440TIP3    H140735   0.178   0.522  13.984
 6440TIP3    H240736   0.050   0.526  14.066
 6441TIP3   OH240737   1.140   0.816  15.046
 6441TIP3    H140738   1.179   0.747  14.988
 6441TIP3    H240739   1.094   0.763  15.113
 6442TIP3   OH240740   0.821   0.413  14.528
 6442TIP3    H140741   0.728   0.413  14.559
 6442TIP3    H240742   0.870   0.397  14.610
 6443TIP3   OH240743   0.304   0.569  14.416
 6443TIP3    H140744   0.216   0.585  14.376
 6443TIP3    H240745   0.330   0.485  14.374
 6444TIP3   OH240746   0.666   0.573  14.179
 6444TIP3    H140747   0.762   0.584  14.195
 6444TIP3    H240748   0.641   0.642  14.115
 6445TIP3   OH240749   1.262   0.335  14.853
 6445TIP3    H140750   1.193   0.343  14.923
 6445TIP3    H240751   1.211   0.308  14.775
 6446TIP3   OH240752   0.538   0.690  13.937
 6446TIP3    H140753   0.484   0.654  13.865
 6446TIP3    H240754   0.620   0.712  13.890
 6447TIP3   OH240755   1.581   1.901  15.490
 6447TIP3    H140756   1.608   1.938  15.404
 6447TIP3    H240757   1.654   1.931  15.546
 6448TIP3   OH240758   0.351   1.137  15.449
 6448TIP3    H140759   0.421   1.176  15.506
 6448TIP3    H240760   0.274   1.161  15.504
 6449TIP3   OH240761   0.949   0.688  14.719
 6449TIP3    H140762   1.010   0.634  14.666
 6449TIP3    H240763   0.934   0.634  14.797
 6450TIP3   OH240764   0.447   0.308  14.363
 6450TIP3    H140765   0.417   0.216  14.365
 6450TIP3    H240766   0.526   0.300  14.307
 6451TIP3   OH240767   0.814   0.527  14.959
 6451TIP3    H140768   0.730   0.575  14.970
 6451TIP3    H240769   0.869   0.558  15.034
 6452TIP3   OH240770   0.872   1.144  14.130
 6452TIP3    H140771   0.792   1.097  14.097
 6452TIP3    H240772   0.849   1.156  14.225
 6453TIP3   OH240773   1.591   1.065  15.011
 6453TIP3    H140774   1.647   1.113  14.947
 6453TIP3    H240775   1.505   1.069  14.964
 6454TIP3   OH240776   1.254   0.426  13.949
 6454TIP3    H140777   1.159   0.442  13.933
 6454TIP3    H240778   1.288   0.511  13.983
 6455TIP3   OH240779   1.021   1.171  15.254
 6455TIP3    H140780   0.986   1.128  15.333
 6455TIP3    H240781   0.996   1.263  15.265
 6456TIP3   OH240782   1.329   0.617  14.109
 6456TIP3    H140783   1.417   0.603  14.150
 6456TIP3    H240784   1.339   0.700  14.060
 6457TIP3   OH240785   0.383   1.084  14.709
 6457TIP3    H140786   0.450   1.075  14.640
 6457TIP3    H240787   0.392   1.000  14.757
 6458TIP3   OH240788   1.081   1.291  14.033
 6458TIP3    H140789   1.047   1.375  14.069
 6458TIP3    H240790   1.008   1.229  14.055
 6459TIP3   OH240791   0.085   0.918  15.236
 6459TIP3    H140792   0.096   0.876  15.323
 6459TIP3    H240793   0.019   0.861  15.193
 6460TIP3   OH240794   0.780   0.878  15.455
 6460TIP3    H140795   0.755   0.849  15.366
 6460TIP3    H240796   0.874   0.850  15.456
 6461TIP3   OH240797   1.252   1.413  15.249
 6461TIP3    H140798   1.159   1.431  15.226
 6461TIP3    H240799   1.248   1.442  15.342
 6462TIP3   OH240800   1.820   0.632  14.088
 6462TIP3    H140801   1.762   0.603  14.014
 6462TIP3    H240802   1.827   0.727  14.063
 6463TIP3   OH240803   1.819   1.220  15.367
 6463TIP3    H140804   1.728   1.239  15.333
 6463TIP3    H240805   1.871   1.211  15.286
 6464TIP3   OH240806   1.643   1.514  14.127
 6464TIP3    H140807   1.611   1.430  14.162
 6464TIP3    H240808   1.681   1.492  14.041
 6465TIP3   OH240809   1.369   0.996  14.838
 6465TIP3    H140810   1.275   0.975  14.828
 6465TIP3    H240811   1.411   0.920  14.795
 6466TIP3   OH240812   0.619   1.430  14.450
 6466TIP3    H140813   0.670   1.509  14.428
 6466TIP3    H240814   0.531   1.452  14.417
 6467TIP3   OH240815   0.192   0.914  13.910
 6467TIP3    H140816   0.256   0.979  13.945
 6467TIP3    H240817   0.106   0.949  13.936
 6468TIP3   OH240818   0.761   1.196  14.399
 6468TIP3    H140819   0.730   1.288  14.410
 6468TIP3    H240820   0.690   1.146  14.444
 6469TIP3   OH240821   0.808   1.613  15.041
 6469TIP3    H140822   0.852   1.695  15.013
 6469TIP3    H240823   0.870   1.579  15.108
 6470TIP3   OH240824   0.629   1.694  14.353
 6470TIP3    H140825   0.533   1.709  14.366
 6470TIP3    H240826   0.666   1.778  14.387
 6471TIP3   OH240827   1.158   1.213  15.003
 6471TIP3    H140828   1.127   1.194  15.094
 6471TIP3    H240829   1.223   1.143  14.987
 6472TIP3   OH240830   1.393   1.321  13.912
 6472TIP3    H140831   1.423   1.274  13.993
 6472TIP3    H240832   1.298   1.303  13.920
 6473TIP3   OH240833   1.442   1.672  15.252
 6473TIP3    H140834   1.372   1.623  15.204
 6473TIP3    H240835   1.459   1.742  15.186
 6474TIP3   OH240836   1.837   1.757  13.934
 6474TIP3    H140837   1.909   1.822  13.919
 6474TIP3    H240838   1.767   1.819  13.966
 6475TIP3   OH240839   0.248   0.396  15.190
 6475TIP3    H140840   0.158   0.432  15.195
 6475TIP3    H240841   0.233   0.309  15.233
 6476TIP3   OH240842   1.471   1.185  14.136
 6476TIP3    H140843   1.447   1.106  14.190
 6476TIP3    H240844   1.566   1.189  14.154
 6477TIP3   OH240845   0.225   1.581  15.029
 6477TIP3    H140846   0.237   1.485  15.035
 6477TIP3    H240847   0.234   1.604  15.122
 6478TIP3   OH240848   0.806   1.428  13.762
 6478TIP3    H140849   0.816   1.352  13.703
 6478TIP3    H240850   0.762   1.385  13.838
 6479TIP3   OH240851   0.683   1.381  14.007
 6479TIP3    H140852   0.710   1.330  14.084
 6479TIP3    H240853   0.692   1.474  14.039
 6480TIP3   OH240854   0.333   1.105  14.055
 6480TIP3    H140855   0.261   1.145  14.110
 6480TIP3    H240856   0.384   1.183  14.027
 6481TIP3   OH240857   1.122   0.373  15.086
 6481TIP3    H140858   1.193   0.380  15.150
 6481TIP3    H240859   1.084   0.285  15.105
 6482TIP3   OH240860   1.198   0.331  14.198
 6482TIP3    H140861   1.217   0.377  14.114
 6482TIP3    H240862   1.251   0.382  14.261
 6483TIP3   OH240863   0.964   1.547  14.077
 6483TIP3    H140864   0.882   1.601  14.084
 6483TIP3    H240865   1.017   1.602  14.018
 6484TIP3   OH240866   0.919   0.504  14.279
 6484TIP3    H140867   0.995   0.565  14.282
 6484TIP3    H240868   0.893   0.495  14.373
 6485TIP3   OH240869   0.974   0.610  15.197
 6485TIP3    H140870   0.981   0.664  15.278
 6485TIP3    H240871   1.039   0.540  15.207
 6486TIP3   OH240872   1.005   0.213  14.371
 6486TIP3    H140873   0.970   0.280  14.432
 6486TIP3    H240874   1.071   0.268  14.322
 6487TIP3   OH240875   0.703   1.651  14.079
 6487TIP3    H140876   0.712   1.732  14.024
 6487TIP3    H240877   0.676   1.688  14.166
 6488TIP3   OH240878   0.568   0.322  14.036
 6488TIP3    H140879   0.561   0.411  14.075
 6488TIP3    H240880   0.660   0.302  14.061
 6489TIP3   OH240881   1.590   0.396  15.281
 6489TIP3    H140882   1.497   0.429  15.268
 6489TIP3    H240883   1.620   0.393  15.189
 6490TIP3   OH240884   1.452   0.775  14.682
 6490TIP3    H140885   1.369   0.731  14.655
 6490TIP3    H240886   1.500   0.707  14.734
 6491TIP3   OH240887   0.392   1.365  13.944
 6491TIP3    H140888   0.456   1.432  13.972
 6491TIP3    H240889   0.444   1.320  13.874
 6492TIP3   OH240890   0.220   0.634  13.858
 6492TIP3    H140891   0.228   0.730  13.875
 6492TIP3    H240892   0.133   0.617  13.820
 6493TIP3   OH240893   1.559   1.701  14.850
 6493TIP3    H140894   1.550   1.769  14.780
 6493TIP3    H240895   1.655   1.706  14.868
 6494TIP3   OH240896   0.287   0.127  14.737
 6494TIP3    H140897   0.289   0.120  14.639
 6494TIP3    H240898   0.265   0.036  14.759
 6495TIP3   OH240899   0.205   1.507  14.345
 6495TIP3    H140900   0.118   1.548  14.339
 6495TIP3    H240901   0.251   1.553  14.274
 6496TIP3   OH240902   0.155   1.776  15.475
 6496TIP3    H140903   0.195   1.748  15.558
 6496TIP3    H240904   0.102   1.695  15.455
 6497TIP3   OH240905   0.588   1.658  15.636
 6497TIP3    H140906   0.668   1.613  15.667
 6497TIP3    H240907   0.587   1.631  15.542
 6498TIP3   OH240908   1.005   1.613  13.774
 6498TIP3    H140909   0.936   1.548  13.797
 6498TIP3    H240910   1.077   1.554  13.749
 6499TIP3   OH240911   1.241   1.500  15.506
 6499TIP3    H140912   1.210   1.412  15.536
 6499TIP3    H240913   1.319   1.513  15.563
 6500TIP3   OH240914   1.461   1.588  13.793
 6500TIP3    H140915   1.491   1.510  13.843
 6500TIP3    H240916   1.537   1.610  13.738
 6501TIP3   OH240917   0.110   1.145  15.570
 6501TIP3    H140918   0.130   1.057  15.536
 6501TIP3    H240919   0.040   1.177  15.511
 6502TIP3   OH240920   0.550   1.182  13.774
 6502TIP3    H140921   0.563   1.106  13.833
 6502TIP3    H240922   0.625   1.170  13.713
 6503TIP3   OH240923   0.784   1.146  15.512
 6503TIP3    H140924   0.755   1.179  15.425
 6503TIP3    H240925   0.795   1.049  15.499
 6504TIP3   OH240926   1.093   1.293  13.752
 6504TIP3    H140927   1.066   1.301  13.845
 6504TIP3    H240928   1.074   1.197  13.738
 6505TIP3   OH240929   1.356   1.132  15.250
 6505TIP3    H140930   1.435   1.190  15.244
 6505TIP3    H240931   1.286   1.199  15.254
 6506TIP3   OH240932   0.192   0.867  15.518
 6506TIP3    H140933   0.223   0.775  15.515
 6506TIP3    H240934   0.175   0.873  15.615
 6507TIP3   OH240935   0.670   0.984  14.018
 6507TIP3    H140936   0.620   0.930  14.080
 6507TIP3    H240937   0.700   0.917  13.952
 6508TIP3   OH240938   0.592   0.766  15.246
 6508TIP3    H140939   0.544   0.846  15.264
 6508TIP3    H240940   0.640   0.796  15.166
 6509TIP3   OH240941   0.778   0.806  13.838
 6509TIP3    H140942   0.762   0.797  13.741
 6509TIP3    H240943   0.875   0.811  13.844
 6510TIP3   OH240944   1.104   1.023  15.584
 6510TIP3    H140945   1.199   1.018  15.567
 6510TIP3    H240946   1.087   0.944  15.639
 6511TIP3   OH240947   1.710   1.038  13.778
 6511TIP3    H140948   1.691   1.000  13.691
 6511TIP3    H240949   1.720   1.134  13.760
 6512TIP3   OH240950   0.635   0.503  15.350
 6512TIP3    H140951   0.651   0.429  15.289
 6512TIP3    H240952   0.634   0.582  15.293
 6513TIP3   OH240953   0.678   0.343  15.104
 6513TIP3    H140954   0.729   0.390  15.035
 6513TIP3    H240955   0.588   0.332  15.064
 6514TIP3   OH240956   0.829   0.890  15.132
 6514TIP3    H140957   0.906   0.872  15.076
 6514TIP3    H240958   0.796   0.974  15.097
 6515TIP3   OH240959   1.271   0.663  15.625
 6515TIP3    H140960   1.296   0.570  15.621
 6515TIP3    H240961   1.358   0.706  15.632
 6516TIP3   OH240962   1.405   0.945  15.445
 6516TIP3    H140963   1.380   1.016  15.382
 6516TIP3    H240964   1.501   0.940  15.425
 6517TIP3   OH240965   0.474   0.635  15.536
 6517TIP3    H140966   0.405   0.564  15.529
 6517TIP3    H240967   0.546   0.590  15.484
 6518TIP3   OH240968   0.742   0.104  15.174
 6518TIP3    H140969   0.735   0.197  15.144
 6518TIP3    H240970   0.684   0.062  15.110
 6519TIP3   OH240971   0.882   0.521  15.507
 6519TIP3    H140972   0.854   0.490  15.595
 6519TIP3    H240973   0.807   0.494  15.452
 6520TIP3   OH240974   1.155   0.432  15.417
 6520TIP3    H140975   1.060   0.435  15.431
 6520TIP3    H240976   1.185   0.370  15.487
 6521TIP3   OH240977   1.310   0.307  15.611
 6521TIP3    H140978   1.307   0.207  15.609
 6521TIP3    H240979   1.287   0.326  15.704
 6522TIP3   OH240980   0.310   0.421  15.524
 6522TIP3    H140981   0.319   0.347  15.461
 6522TIP3    H240982   0.286   0.372  15.606
 6523TIP3   OH240983   0.776   7.324  15.419
 6523TIP3    H140984   0.845   7.257  15.424
 6523TIP3    H240985   0.766   7.345  15.324
 6524TIP3   OH240986   0.816   0.191  15.623
 6524TIP3    H140987   0.799   0.134  15.544
 6524TIP3    H240988   0.754   0.264  15.615
 6525TIP3   OH240989   0.761   1.876  13.945
 6525TIP3    H140990   0.857   1.885  13.952
 6525TIP3    H240991   0.746   1.936  13.871
 6526TIP3   OH240992   0.121   1.329  13.897
 6526TIP3    H140993   0.216   1.347  13.910
 6526TIP3    H240994   0.125   1.271  13.819
 6527TIP3   OH240995   7.337   1.891  14.376
 6527TIP3    H140996   7.249   1.868  14.340
 6527TIP3    H240997   7.347   1.824  14.448
 6528TIP3   OH240998   0.079   1.689  14.572
 6528TIP3    H140999   0.044   1.601  14.595
 6528TIP3    H241000   0.104   1.718  14.662
 6529TIP3   OH241001   1.834   1.761  14.870
 6529TIP3    H141002   1.833   1.783  14.965
 6529TIP3    H241003   1.899   1.824  14.837
 6530TIP3   OH241004   1.791   1.724  15.163
 6530TIP3    H141005   1.739   1.649  15.126
 6530TIP3    H241006   1.834   1.680  15.238
 6531TIP3   OH241007   1.633   1.296  15.632
 6531TIP3    H141008   1.542   1.294  15.668
 6531TIP3    H241009   1.669   1.376  15.675
 6532TIP3   OH241010   1.764   1.130  14.174
 6532TIP3    H141011   1.851   1.170  14.192
 6532TIP3    H241012   1.762   1.058  14.241
 6533TIP3   OH241013   1.800   0.937  14.363
 6533TIP3    H141014   1.725   0.888  14.402
 6533TIP3    H241015   1.860   0.951  14.439
 6534TIP3   OH241016   1.777   1.207  14.863
 6534TIP3    H141017   1.857   1.168  14.822
 6534TIP3    H241018   1.789   1.301  14.842
 6535TIP3   OH241019   1.635   1.497  15.089
 6535TIP3    H141020   1.565   1.532  15.146
 6535TIP3    H241021   1.579   1.457  15.018
 6536TIP3   OH241022   1.830   0.920  14.002
 6536TIP3    H141023   1.773   0.954  13.929
 6536TIP3    H241024   1.820   0.991  14.068
 6537TIP3   OH241025   1.668   0.643  13.853
 6537TIP3    H141026   1.675   0.710  13.783
 6537TIP3    H241027   1.649   0.561  13.804
 6538TIP3   OH241028   1.582   0.785  14.420
 6538TIP3    H141029   1.567   0.689  14.416
 6538TIP3    H241030   1.549   0.806  14.509
 6539TIP3   OH241031   0.084   0.992  14.818
 6539TIP3    H141032   0.104   0.988  14.722
 6539TIP3    H241033   0.172   0.981  14.859
 6540TIP3   OH241034   1.669   0.981  15.391
 6540TIP3    H141035   1.730   0.904  15.403
 6540TIP3    H241036   1.729   1.058  15.388
 6541TIP3   OH241037   1.819   0.772  15.448
 6541TIP3    H141038   1.730   0.730  15.439
 6541TIP3    H241039   1.874   0.692  15.451
 6542TIP3   OH241040   1.592   0.391  13.768
 6542TIP3    H141041   1.651   0.346  13.832
 6542TIP3    H241042   1.506   0.347  13.782
 6543TIP3   OH241043   1.546   0.544  14.261
 6543TIP3    H141044   1.578   0.453  14.277
 6543TIP3    H241045   1.629   0.585  14.231
 6544TIP3   OH241046   1.612   0.600  14.809
 6544TIP3    H141047   1.709   0.621  14.809
 6544TIP3    H241048   1.594   0.611  14.904
 6545TIP3   OH241049   1.618   0.672  15.086
 6545TIP3    H141050   1.531   0.699  15.121
 6545TIP3    H241051   1.663   0.758  15.065
 6546TIP3   OH241052   0.073   0.512  15.442
 6546TIP3    H141053   0.160   0.486  15.473
 6546TIP3    H241054   0.013   0.442  15.479
 6547TIP3   OH241055   1.863   0.079  15.623
 6547TIP3    H141056   1.875   0.011  15.555
 6547TIP3    H241057   1.852   0.160  15.571
 6548TIP3   OH241058   1.615   0.275  14.271
 6548TIP3    H141059   1.635   0.228  14.354
 6548TIP3    H241060   1.557   0.210  14.224
 6549TIP3   OH241061   0.165   0.354  14.720
 6549TIP3    H141062   0.208   0.271  14.752
 6549TIP3    H241063   0.219   0.421  14.767
 6550TIP3   OH241064   0.050   0.728  14.866
 6550TIP3    H141065   0.054   0.684  14.778
 6550TIP3    H241066   0.058   0.819  14.838
 6551TIP3   OH241067   1.799   0.281  15.454
 6551TIP3    H141068   1.706   0.310  15.451
 6551TIP3    H241069   1.801   0.227  15.374
 6552TIP3   OH241070   1.800   0.276  13.926
 6552TIP3    H141071   1.838   0.203  13.872
 6552TIP3    H241072   1.871   0.341  13.929
 6553TIP3   OH241073   0.075   0.271  14.195
 6553TIP3    H141074  -0.019   0.293  14.206
 6553TIP3    H241075   0.098   0.345  14.135
 6554TIP3   OH241076   1.503   1.774  14.432
 6554TIP3    H141077   1.571   1.743  14.370
 6554TIP3    H241078   1.554   1.824  14.497
 6555TIP3   OH241079   7.348   0.148  15.093
 6555TIP3    H141080   7.267   0.121  15.138
 6555TIP3    H241081   7.304   0.191  15.018
 6556TIP3   OH241082   0.244   1.465  15.483
 6556TIP3    H141083   0.159   1.484  15.443
 6556TIP3    H241084   0.220   1.457  15.576
 6557TIP3   OH241085   0.541   1.567  15.114
 6557TIP3    H141086   0.501   1.650  15.083
 6557TIP3    H241087   0.632   1.575  15.079
 6558TIP3   OH241088   0.969   1.706  15.401
 6558TIP3    H141089   0.982   1.672  15.493
 6558TIP3    H241090   1.060   1.737  15.378
 6559TIP3   OH241091   1.199   1.833  15.332
 6559TIP3    H141092   1.272   1.775  15.308
 6559TIP3    H241093   1.236   1.877  15.411
 6560TIP3   OH241094   1.703   0.100  15.229
 6560TIP3    H141095   1.614   0.124  15.199
 6560TIP3    H241096   1.715   0.010  15.191
 6561TIP3   OH241097   0.283   1.889  15.112
 6561TIP3    H141098   0.208   1.937  15.073
 6561TIP3    H241099   0.248   1.869  15.200
 6562TIP3   OH241100   0.528   1.846  15.016
 6562TIP3    H141101   0.439   1.860  15.055
 6562TIP3    H241102   0.523   1.906  14.939
 6563TIP3   OH241103   0.998   1.837  14.934
 6563TIP3    H141104   0.951   1.893  14.870
 6563TIP3    H241105   1.011   1.900  15.008
 6564TIP3   OH241106   1.226   1.718  15.037
 6564TIP3    H141107   1.141   1.746  15.000
 6564TIP3    H241108   1.275   1.801  15.028
 6565TIP3   OH241109   1.484   1.875  15.059
 6565TIP3    H141110   1.479   1.971  15.037
 6565TIP3    H241111   1.506   1.838  14.972
 6566TIP3   OH241112   0.221   1.753  14.803
 6566TIP3    H141113   0.221   1.709  14.890
 6566TIP3    H241114   0.302   1.716  14.764
 6567TIP3   OH241115   0.431   1.625  14.670
 6567TIP3    H141116   0.415   1.531  14.694
 6567TIP3    H241117   0.517   1.640  14.714
 6568TIP3   OH241118   0.692   1.672  14.758
 6568TIP3    H141119   0.710   1.580  14.731
 6568TIP3    H241120   0.699   1.667  14.854
 6569TIP3   OH241121   1.027   0.244  14.669
 6569TIP3    H141122   0.969   0.172  14.698
 6569TIP3    H241123   1.096   0.195  14.620
 6570TIP3   OH241124   1.554   0.045  14.681
 6570TIP3    H141125   1.616   0.100  14.628
 6570TIP3    H241126   1.467   0.079  14.657
 6571TIP3   OH241127   1.723   0.170  14.505
 6571TIP3    H141128   1.786   0.111  14.464
 6571TIP3    H241129   1.773   0.254  14.514
 6572TIP3   OH241130   0.275   0.104  14.458
 6572TIP3    H141131   0.200   0.078  14.402
 6572TIP3    H241132   0.323   0.019  14.463
 6573TIP3   OH241133   0.157   0.073  14.023
 6573TIP3    H141134   0.204   0.140  13.973
 6573TIP3    H241135   0.097   0.130  14.075
 6574TIP3   OH241136   0.730   0.086  14.433
 6574TIP3    H141137   0.815   0.132  14.430
 6574TIP3    H241138   0.720   0.070  14.528
 6575TIP3   OH241139   1.269   0.132  14.613
 6575TIP3    H141140   1.283   0.127  14.518
 6575TIP3    H241141   1.260   0.034  14.626
 6576TIP3   OH241142   1.423   0.102  14.169
 6576TIP3    H141143   1.347   0.158  14.146
 6576TIP3    H241144   1.382   0.016  14.184
 6577TIP3   OH241145   0.143   1.673  14.134
 6577TIP3    H141146   0.087   1.673  14.054
 6577TIP3    H241147   0.147   1.769  14.144
 6578TIP3   OH241148   0.334   0.266  13.884
 6578TIP3    H141149   0.388   0.209  13.826
 6578TIP3    H241150   0.403   0.301  13.943
 6579TIP3   OH241151   0.831   0.294  14.124
 6579TIP3    H141152   0.867   0.237  14.195
 6579TIP3    H241153   0.847   0.381  14.167
 6580TIP3   OH241154   1.032   1.801  13.964
 6580TIP3    H141155   1.124   1.824  13.942
 6580TIP3    H241156   1.010   1.749  13.884
 6581TIP3   OH241157   1.702   1.751  14.236
 6581TIP3    H141158   1.683   1.673  14.179
 6581TIP3    H241159   1.695   1.825  14.172
 6582TIP3   OH241160   0.254   0.154  15.391
 6582TIP3    H141161   0.222   0.079  15.441
 6582TIP3    H241162   0.345   0.154  15.429
 6583TIP3   OH241163   0.439   0.112  15.553
 6583TIP3    H141164   0.533   0.092  15.539
 6583TIP3    H241165   0.423   0.028  15.601
 6584TIP3   OH241166   0.335   1.773  13.822
 6584TIP3    H141167   0.295   1.792  13.909
 6584TIP3    H241168   0.406   1.711  13.843
 6585TIP3   OH241169   1.301   7.363  15.576
 6585TIP3    H141170   1.305   7.300  15.651
 6585TIP3    H241171   1.385   7.335  15.537
 6586TIP3   OH241172   1.626   1.626  15.446
 6586TIP3    H141173   1.547   1.612  15.390
 6586TIP3    H241174   1.615   1.721  15.466
 6587TIP3   OH241175   3.071   1.014  14.440
 6587TIP3    H141176   3.069   1.112  14.439
 6587TIP3    H241177   2.998   0.991  14.381
 6588TIP3   OH241178   2.956   0.939  14.792
 6588TIP3    H141179   2.955   0.875  14.863
 6588TIP3    H241180   2.922   0.889  14.717
 6589TIP3   OH241181   2.190   0.908  14.948
 6589TIP3    H141182   2.200   0.837  15.016
 6589TIP3    H241183   2.268   0.962  14.969
 6590TIP3   OH241184   3.325   1.234  14.620
 6590TIP3    H141185   3.284   1.163  14.669
 6590TIP3    H241186   3.327   1.305  14.687
 6591TIP3   OH241187   2.283   1.349  14.809
 6591TIP3    H141188   2.254   1.266  14.764
 6591TIP3    H241189   2.379   1.334  14.799
 6592TIP3   OH241190   1.948   0.707  14.346
 6592TIP3    H141191   1.904   0.794  14.340
 6592TIP3    H241192   1.892   0.653  14.289
 6593TIP3   OH241193   2.020   0.932  14.561
 6593TIP3    H141194   2.046   0.849  14.605
 6593TIP3    H241195   2.089   0.941  14.494
 6594TIP3   OH241196   3.038   1.751  14.643
 6594TIP3    H141197   3.102   1.681  14.615
 6594TIP3    H241198   3.016   1.717  14.730
 6595TIP3   OH241199   2.794   1.179  14.839
 6595TIP3    H141200   2.828   1.117  14.773
 6595TIP3    H241201   2.875   1.195  14.890
 6596TIP3   OH241202   3.652   0.345  14.911
 6596TIP3    H141203   3.672   0.402  14.989
 6596TIP3    H241204   3.709   0.387  14.845
 6597TIP3   OH241205   3.111   0.626  14.871
 6597TIP3    H141206   3.126   0.530  14.871
 6597TIP3    H241207   3.100   0.641  14.775
 6598TIP3   OH241208   2.423   0.436  14.592
 6598TIP3    H141209   2.433   0.519  14.542
 6598TIP3    H241210   2.382   0.379  14.524
 6599TIP3   OH241211   3.196   0.441  14.429
 6599TIP3    H141212   3.261   0.413  14.497
 6599TIP3    H241213   3.251   0.500  14.376
 6600TIP3   OH241214   2.084   0.677  14.665
 6600TIP3    H141215   2.151   0.622  14.711
 6600TIP3    H241216   2.095   0.645  14.574
 6601TIP3   OH241217   2.600   0.832  14.597
 6601TIP3    H141218   2.667   0.774  14.637
 6601TIP3    H241219   2.548   0.766  14.547
 6602TIP3   OH241220   3.699   0.487  15.139
 6602TIP3    H141221   3.636   0.561  15.128
 6602TIP3    H241222   3.701   0.475  15.235
 6603TIP3   OH241223   2.314   0.331  14.995
 6603TIP3    H141224   2.282   0.384  14.919
 6603TIP3    H241225   2.244   0.348  15.062
 6604TIP3   OH241226   3.042   1.273  14.350
 6604TIP3    H141227   3.015   1.246  14.262
 6604TIP3    H241228   3.011   1.366  14.356
 6605TIP3   OH241229   2.564   1.090  15.020
 6605TIP3    H141230   2.494   1.154  15.041
 6605TIP3    H241231   2.636   1.148  14.990
 6606TIP3   OH241232   3.378   0.376  14.627
 6606TIP3    H141233   3.353   0.302  14.683
 6606TIP3    H241234   3.444   0.421  14.682
 6607TIP3   OH241235   2.269   0.516  14.797
 6607TIP3    H141236   2.334   0.580  14.831
 6607TIP3    H241237   2.321   0.471  14.725
 6608TIP3   OH241238   2.406   1.289  15.100
 6608TIP3    H141239   2.412   1.382  15.068
 6608TIP3    H241240   2.325   1.274  15.153
 6609TIP3   OH241241   2.011   1.248  14.182
 6609TIP3    H141242   1.996   1.286  14.093
 6609TIP3    H241243   2.031   1.331  14.230
 6610TIP3   OH241244   3.378   1.418  14.857
 6610TIP3    H141245   3.281   1.429  14.869
 6610TIP3    H241246   3.405   1.510  14.837
 6611TIP3   OH241247   3.413   0.246  15.002
 6611TIP3    H141248   3.339   0.305  14.986
 6611TIP3    H241249   3.482   0.287  14.945
 6612TIP3   OH241250   2.704   0.059  14.725
 6612TIP3    H141251   2.703  -0.036  14.741
 6612TIP3    H241252   2.625   0.086  14.775
 6613TIP3   OH241253   3.204   1.597  14.515
 6613TIP3    H141254   3.247   1.525  14.465
 6613TIP3    H241255   3.247   1.675  14.476
 6614TIP3   OH241256   3.325   1.389  14.368
 6614TIP3    H141257   3.295   1.320  14.307
 6614TIP3    H241258   3.328   1.340  14.452
 6615TIP3   OH241259   3.486   1.249  15.217
 6615TIP3    H141260   3.501   1.184  15.145
 6615TIP3    H241261   3.507   1.333  15.172
 6616TIP3   OH241262   2.937   0.936  14.193
 6616TIP3    H141263   2.867   0.995  14.157
 6616TIP3    H241264   3.007   0.948  14.127
 6617TIP3   OH241265   2.944   0.795  13.894
 6617TIP3    H141266   3.015   0.793  13.960
 6617TIP3    H241267   2.975   0.723  13.837
 6618TIP3   OH241268   3.676   0.880  15.021
 6618TIP3    H141269   3.609   0.952  15.025
 6618TIP3    H241270   3.725   0.904  14.940
 6619TIP3   OH241271   3.281   0.958  14.285
 6619TIP3    H141272   3.207   0.983  14.345
 6619TIP3    H241273   3.329   0.891  14.338
 6620TIP3   OH241274   3.274   0.775  15.198
 6620TIP3    H141275   3.275   0.857  15.250
 6620TIP3    H241276   3.211   0.804  15.129
 6621TIP3   OH241277   2.443   1.024  14.478
 6621TIP3    H141278   2.410   0.987  14.392
 6621TIP3    H241279   2.504   0.955  14.510
 6622TIP3   OH241280   2.569   1.360  14.750
 6622TIP3    H141281   2.574   1.313  14.665
 6622TIP3    H241282   2.652   1.329  14.790
 6623TIP3   OH241283   2.475   0.899  14.843
 6623TIP3    H141284   2.530   0.909  14.763
 6623TIP3    H241285   2.515   0.965  14.904
 6624TIP3   OH241286   3.116   1.457  14.913
 6624TIP3    H141287   3.088   1.520  14.980
 6624TIP3    H241288   3.091   1.372  14.956
 6625TIP3   OH241289   2.567   1.342  15.315
 6625TIP3    H141290   2.530   1.419  15.361
 6625TIP3    H241291   2.504   1.321  15.243
 6626TIP3   OH241292   3.169   0.879  14.052
 6626TIP3    H141293   3.225   0.896  14.132
 6626TIP3    H241294   3.214   0.929  13.980
 6627TIP3   OH241295   2.266   0.961  15.225
 6627TIP3    H141296   2.269   1.022  15.301
 6627TIP3    H241297   2.170   0.964  15.208
 6628TIP3   OH241298   2.941   1.552  14.398
 6628TIP3    H141299   2.983   1.582  14.479
 6628TIP3    H241300   2.884   1.626  14.376
 6629TIP3   OH241301   2.395   1.545  15.386
 6629TIP3    H141302   2.391   1.537  15.290
 6629TIP3    H241303   2.302   1.534  15.416
 6630TIP3   OH241304   3.538   0.067  14.017
 6630TIP3    H141305   3.452   0.071  14.063
 6630TIP3    H241306   3.562   0.158  13.996
 6631TIP3   OH241307   2.339   0.925  14.239
 6631TIP3    H141308   2.311   1.005  14.190
 6631TIP3    H241309   2.273   0.859  14.215
 6632TIP3   OH241310   3.654   1.486  13.878
 6632TIP3    H141311   3.672   1.581  13.892
 6632TIP3    H241312   3.747   1.456  13.875
 6633TIP3   OH241313   1.952   1.171  15.126
 6633TIP3    H141314   1.902   1.161  15.042
 6633TIP3    H241315   1.956   1.076  15.150
 6634TIP3   OH241316   1.927   1.442  14.812
 6634TIP3    H141317   2.022   1.435  14.796
 6634TIP3    H241318   1.914   1.528  14.853
 6635TIP3   OH241319   3.747   1.514  15.372
 6635TIP3    H141320   3.736   1.417  15.373
 6635TIP3    H241321   3.662   1.539  15.415
 6636TIP3   OH241322   2.845   1.468  15.261
 6636TIP3    H141323   2.850   1.552  15.314
 6636TIP3    H241324   2.759   1.431  15.288
 6637TIP3   OH241325   2.893   1.842  14.239
 6637TIP3    H141326   2.875   1.834  14.144
 6637TIP3    H241327   2.886   1.938  14.257
 6638TIP3   OH241328   2.250   1.735  14.426
 6638TIP3    H141329   2.266   1.687  14.509
 6638TIP3    H241330   2.170   1.687  14.395
 6639TIP3   OH241331   3.199   1.769  13.938
 6639TIP3    H141332   3.237   1.687  13.897
 6639TIP3    H241333   3.195   1.737  14.032
 6640TIP3   OH241334   3.164   1.757  14.215
 6640TIP3    H141335   3.068   1.764  14.234
 6640TIP3    H241336   3.187   1.683  14.274
 6641TIP3   OH241337   3.464   0.659  15.419
 6641TIP3    H141338   3.414   0.705  15.349
 6641TIP3    H241339   3.461   0.567  15.390
 6642TIP3   OH241340   2.174   1.279  15.237
 6642TIP3    H141341   2.193   1.248  15.329
 6642TIP3    H241342   2.085   1.242  15.217
 6643TIP3   OH241343   2.442   0.145  14.821
 6643TIP3    H141344   2.353   0.139  14.781
 6643TIP3    H241345   2.432   0.231  14.865
 6644TIP3   OH241346   2.907   0.118  15.159
 6644TIP3    H141347   2.950   0.076  15.234
 6644TIP3    H241348   2.812   0.107  15.174
 6645TIP3   OH241349   3.239   0.497  15.245
 6645TIP3    H141350   3.180   0.481  15.322
 6645TIP3    H241351   3.221   0.589  15.220
 6646TIP3   OH241352   3.314   0.982  13.833
 6646TIP3    H141353   3.312   0.963  13.737
 6646TIP3    H241354   3.400   1.026  13.839
 6647TIP3   OH241355   2.874   0.373  13.886
 6647TIP3    H141356   2.841   0.366  13.977
 6647TIP3    H241357   2.842   0.286  13.855
 6648TIP3   OH241358   2.456   0.647  14.944
 6648TIP3    H141359   2.381   0.645  15.007
 6648TIP3    H241360   2.450   0.737  14.906
 6649TIP3   OH241361   2.451   0.658  14.429
 6649TIP3    H141362   2.357   0.634  14.416
 6649TIP3    H241363   2.489   0.629  14.344
 6650TIP3   OH241364   3.004   0.709  14.306
 6650TIP3    H141365   2.964   0.791  14.269
 6650TIP3    H241366   3.073   0.691  14.240
 6651TIP3   OH241367   2.908   0.731  15.450
 6651TIP3    H141368   2.857   0.652  15.480
 6651TIP3    H241369   2.993   0.718  15.495
 6652TIP3   OH241370   3.107   0.658  14.591
 6652TIP3    H141371   3.078   0.713  14.517
 6652TIP3    H241372   3.116   0.573  14.544
 6653TIP3   OH241373   2.217   0.672  15.111
 6653TIP3    H141374   2.226   0.712  15.199
 6653TIP3    H241375   2.172   0.589  15.132
 6654TIP3   OH241376   2.554   0.413  13.798
 6654TIP3    H141377   2.508   0.369  13.871
 6654TIP3    H241378   2.484   0.453  13.745
 6655TIP3   OH241379   1.884   0.385  14.508
 6655TIP3    H141380   1.952   0.382  14.578
 6655TIP3    H241381   1.929   0.346  14.431
 6656TIP3   OH241382   2.010   0.456  14.047
 6656TIP3    H141383   2.061   0.514  13.988
 6656TIP3    H241384   1.940   0.518  14.077
 6657TIP3   OH241385   3.026   0.816  15.046
 6657TIP3    H141386   3.064   0.747  14.988
 6657TIP3    H241387   2.979   0.763  15.113
 6658TIP3   OH241388   2.707   0.413  14.527
 6658TIP3    H141389   2.614   0.413  14.559
 6658TIP3    H241390   2.756   0.398  14.610
 6659TIP3   OH241391   2.188   0.569  14.417
 6659TIP3    H141392   2.099   0.583  14.377
 6659TIP3    H241393   2.217   0.486  14.375
 6660TIP3   OH241394   2.552   0.573  14.179
 6660TIP3    H141395   2.648   0.583  14.195
 6660TIP3    H241396   2.528   0.642  14.114
 6661TIP3   OH241397   3.147   0.335  14.853
 6661TIP3    H141398   3.078   0.343  14.923
 6661TIP3    H241399   3.097   0.308  14.775
 6662TIP3   OH241400   2.422   0.691  13.938
 6662TIP3    H141401   2.369   0.653  13.866
 6662TIP3    H241402   2.504   0.712  13.891
 6663TIP3   OH241403   3.466   1.901  15.490
 6663TIP3    H141404   3.494   1.937  15.404
 6663TIP3    H241405   3.540   1.931  15.546
 6664TIP3   OH241406   2.238   1.147  15.448
 6664TIP3    H141407   2.307   1.173  15.510
 6664TIP3    H241408   2.157   1.154  15.504
 6665TIP3   OH241409   2.835   0.689  14.719
 6665TIP3    H141410   2.895   0.634  14.666
 6665TIP3    H241411   2.820   0.634  14.797
 6666TIP3   OH241412   2.334   0.307  14.363
 6666TIP3    H141413   2.303   0.214  14.365
 6666TIP3    H241414   2.412   0.298  14.307
 6667TIP3   OH241415   2.700   0.527  14.959
 6667TIP3    H141416   2.615   0.575  14.970
 6667TIP3    H241417   2.754   0.558  15.034
 6668TIP3   OH241418   2.758   1.143  14.131
 6668TIP3    H141419   2.677   1.099  14.097
 6668TIP3    H241420   2.734   1.158  14.224
 6669TIP3   OH241421   3.476   1.064  15.010
 6669TIP3    H141422   3.533   1.113  14.947
 6669TIP3    H241423   3.390   1.069  14.964
 6670TIP3   OH241424   3.139   0.426  13.949
 6670TIP3    H141425   3.044   0.442  13.933
 6670TIP3    H241426   3.174   0.511  13.983
 6671TIP3   OH241427   2.907   1.171  15.253
 6671TIP3    H141428   2.873   1.127  15.332
 6671TIP3    H241429   2.881   1.263  15.265
 6672TIP3   OH241430   3.215   0.617  14.109
 6672TIP3    H141431   3.303   0.603  14.150
 6672TIP3    H241432   3.225   0.700  14.060
 6673TIP3   OH241433   2.270   1.085  14.712
 6673TIP3    H141434   2.336   1.075  14.640
 6673TIP3    H241435   2.274   0.998  14.754
 6674TIP3   OH241436   2.967   1.291  14.033
 6674TIP3    H141437   2.932   1.375  14.069
 6674TIP3    H241438   2.894   1.229  14.055
 6675TIP3   OH241439   1.967   0.926  15.237
 6675TIP3    H141440   1.984   0.880  15.322
 6675TIP3    H241441   1.906   0.864  15.192
 6676TIP3   OH241442   2.669   0.882  15.455
 6676TIP3    H141443   2.637   0.848  15.369
 6676TIP3    H241444   2.760   0.847  15.453
 6677TIP3   OH241445   3.137   1.413  15.249
 6677TIP3    H141446   3.045   1.431  15.226
 6677TIP3    H241447   3.134   1.442  15.342
 6678TIP3   OH241448   3.705   0.632  14.088
 6678TIP3    H141449   3.648   0.603  14.014
 6678TIP3    H241450   3.712   0.727  14.063
 6679TIP3   OH241451   3.703   1.217  15.368
 6679TIP3    H141452   3.614   1.240  15.332
 6679TIP3    H241453   3.757   1.212  15.287
 6680TIP3   OH241454   3.532   1.513  14.128
 6680TIP3    H141455   3.497   1.430  14.162
 6680TIP3    H241456   3.566   1.494  14.039
 6681TIP3   OH241457   3.254   0.996  14.839
 6681TIP3    H141458   3.160   0.975  14.828
 6681TIP3    H241459   3.297   0.920  14.795
 6682TIP3   OH241460   2.504   1.431  14.453
 6682TIP3    H141461   2.554   1.510  14.427
 6682TIP3    H241462   2.419   1.450  14.411
 6683TIP3   OH241463   2.083   0.914  13.906
 6683TIP3    H141464   2.140   0.981  13.947
 6683TIP3    H241465   1.993   0.943  13.930
 6684TIP3   OH241466   2.649   1.195  14.402
 6684TIP3    H141467   2.616   1.287  14.409
 6684TIP3    H241468   2.574   1.147  14.443
 6685TIP3   OH241469   2.690   1.614  15.043
 6685TIP3    H141470   2.736   1.693  15.012
 6685TIP3    H241471   2.756   1.580  15.106
 6686TIP3   OH241472   2.515   1.693  14.354
 6686TIP3    H141473   2.418   1.705  14.363
 6686TIP3    H241474   2.549   1.778  14.387
 6687TIP3   OH241475   3.044   1.213  15.003
 6687TIP3    H141476   3.012   1.194  15.094
 6687TIP3    H241477   3.109   1.143  14.987
 6688TIP3   OH241478   3.279   1.322  13.912
 6688TIP3    H141479   3.308   1.274  13.992
 6688TIP3    H241480   3.183   1.303  13.920
 6689TIP3   OH241481   3.327   1.672  15.252
 6689TIP3    H141482   3.257   1.623  15.204
 6689TIP3    H241483   3.345   1.742  15.186
 6690TIP3   OH241484   3.720   1.756  13.939
 6690TIP3    H141485   3.794   1.817  13.915
 6690TIP3    H241486   3.653   1.821  13.968
 6691TIP3   OH241487   2.132   0.395  15.193
 6691TIP3    H141488   2.041   0.431  15.191
 6691TIP3    H241489   2.119   0.309  15.235
 6692TIP3   OH241490   3.356   1.185  14.136
 6692TIP3    H141491   3.332   1.106  14.190
 6692TIP3    H241492   3.451   1.189  14.154
 6693TIP3   OH241493   2.093   1.599  15.027
 6693TIP3    H141494   2.090   1.507  15.008
 6693TIP3    H241495   2.112   1.617  15.120
 6694TIP3   OH241496   2.694   1.428  13.761
 6694TIP3    H141497   2.702   1.351  13.702
 6694TIP3    H241498   2.647   1.387  13.838
 6695TIP3   OH241499   2.573   1.380  14.005
 6695TIP3    H141500   2.593   1.330  14.085
 6695TIP3    H241501   2.572   1.472  14.039
 6696TIP3   OH241502   2.223   1.106  14.055
 6696TIP3    H141503   2.153   1.147  14.110
 6696TIP3    H241504   2.273   1.185  14.027
 6697TIP3   OH241505   3.007   0.373  15.087
 6697TIP3    H141506   3.079   0.380  15.151
 6697TIP3    H241507   2.970   0.285  15.105
 6698TIP3   OH241508   3.084   0.331  14.198
 6698TIP3    H141509   3.102   0.377  14.114
 6698TIP3    H241510   3.137   0.382  14.261
 6699TIP3   OH241511   2.848   1.546  14.077
 6699TIP3    H141512   2.765   1.599  14.084
 6699TIP3    H241513   2.901   1.601  14.018
 6700TIP3   OH241514   2.805   0.503  14.279
 6700TIP3    H141515   2.881   0.565  14.282
 6700TIP3    H241516   2.778   0.495  14.373
 6701TIP3   OH241517   2.860   0.610  15.197
 6701TIP3    H141518   2.867   0.664  15.278
 6701TIP3    H241519   2.925   0.539  15.207
 6702TIP3   OH241520   2.891   0.213  14.371
 6702TIP3    H141521   2.856   0.280  14.432
 6702TIP3    H241522   2.956   0.268  14.322
 6703TIP3   OH241523   2.594   1.651  14.080
 6703TIP3    H141524   2.596   1.732  14.024
 6703TIP3    H241525   2.558   1.684  14.165
 6704TIP3   OH241526   2.452   0.322  14.036
 6704TIP3    H141527   2.447   0.411  14.075
 6704TIP3    H241528   2.545   0.302  14.061
 6705TIP3   OH241529   3.476   0.396  15.283
 6705TIP3    H141530   3.384   0.428  15.269
 6705TIP3    H241531   3.506   0.393  15.190
 6706TIP3   OH241532   3.338   0.775  14.682
 6706TIP3    H141533   3.255   0.731  14.655
 6706TIP3    H241534   3.386   0.707  14.734
 6707TIP3   OH241535   2.281   1.361  13.897
 6707TIP3    H141536   2.327   1.415  13.967
 6707TIP3    H241537   2.354   1.311  13.857
 6708TIP3   OH241538   2.111   0.636  13.857
 6708TIP3    H141539   2.113   0.732  13.877
 6708TIP3    H241540   2.022   0.618  13.825
 6709TIP3   OH241541   3.444   1.701  14.850
 6709TIP3    H141542   3.435   1.769  14.780
 6709TIP3    H241543   3.540   1.706  14.867
 6710TIP3   OH241544   2.169   0.129  14.736
 6710TIP3    H141545   2.175   0.119  14.638
 6710TIP3    H241546   2.155   0.037  14.758
 6711TIP3   OH241547   2.075   1.526  14.372
 6711TIP3    H141548   1.993   1.558  14.335
 6711TIP3    H241549   2.132   1.534  14.290
 6712TIP3   OH241550   2.012   1.768  15.471
 6712TIP3    H141551   2.068   1.750  15.550
 6712TIP3    H241552   1.966   1.684  15.459
 6713TIP3   OH241553   2.474   1.654  15.639
 6713TIP3    H141554   2.557   1.614  15.666
 6713TIP3    H241555   2.475   1.637  15.543
 6714TIP3   OH241556   2.893   1.614  13.776
 6714TIP3    H141557   2.822   1.550  13.797
 6714TIP3    H241558   2.962   1.552  13.748
 6715TIP3   OH241559   3.126   1.501  15.507
 6715TIP3    H141560   3.095   1.412  15.536
 6715TIP3    H241561   3.205   1.513  15.563
 6716TIP3   OH241562   3.347   1.590  13.795
 6716TIP3    H141563   3.376   1.510  13.842
 6716TIP3    H241564   3.422   1.608  13.736
 6717TIP3   OH241565   2.002   1.147  15.568
 6717TIP3    H141566   2.017   1.054  15.541
 6717TIP3    H241567   1.925   1.172  15.514
 6718TIP3   OH241568   2.437   1.179  13.771
 6718TIP3    H141569   2.450   1.106  13.834
 6718TIP3    H241570   2.513   1.169  13.712
 6719TIP3   OH241571   2.670   1.145  15.515
 6719TIP3    H141572   2.641   1.178  15.427
 6719TIP3    H241573   2.680   1.048  15.498
 6720TIP3   OH241574   2.979   1.293  13.752
 6720TIP3    H141575   2.952   1.301  13.845
 6720TIP3    H241576   2.960   1.198  13.738
 6721TIP3   OH241577   3.242   1.132  15.251
 6721TIP3    H141578   3.320   1.190  15.244
 6721TIP3    H241579   3.172   1.199  15.254
 6722TIP3   OH241580   2.095   0.871  15.511
 6722TIP3    H141581   2.132   0.783  15.502
 6722TIP3    H241582   2.069   0.870  15.606
 6723TIP3   OH241583   2.557   0.982  14.018
 6723TIP3    H141584   2.505   0.929  14.080
 6723TIP3    H241585   2.586   0.915  13.951
 6724TIP3   OH241586   2.482   0.764  15.246
 6724TIP3    H141587   2.423   0.836  15.273
 6724TIP3    H241588   2.521   0.802  15.166
 6725TIP3   OH241589   2.663   0.807  13.837
 6725TIP3    H141590   2.648   0.797  13.741
 6725TIP3    H241591   2.761   0.811  13.844
 6726TIP3   OH241592   2.988   1.024  15.587
 6726TIP3    H141593   3.083   1.019  15.565
 6726TIP3    H241594   2.974   0.943  15.638
 6727TIP3   OH241595   3.593   1.037  13.779
 6727TIP3    H141596   3.577   0.999  13.691
 6727TIP3    H241597   3.605   1.133  13.760
 6728TIP3   OH241598   2.524   0.503  15.350
 6728TIP3    H141599   2.535   0.431  15.286
 6728TIP3    H241600   2.517   0.584  15.296
 6729TIP3   OH241601   2.563   0.342  15.104
 6729TIP3    H141602   2.615   0.390  15.035
 6729TIP3    H241603   2.474   0.332  15.064
 6730TIP3   OH241604   2.717   0.889  15.132
 6730TIP3    H141605   2.792   0.873  15.074
 6730TIP3    H241606   2.681   0.973  15.098
 6731TIP3   OH241607   3.155   0.663  15.625
 6731TIP3    H141608   3.179   0.570  15.619
 6731TIP3    H241609   3.241   0.707  15.631
 6732TIP3   OH241610   3.292   0.945  15.445
 6732TIP3    H141611   3.266   1.016  15.382
 6732TIP3    H241612   3.387   0.940  15.425
 6733TIP3   OH241613   2.372   0.625  15.547
 6733TIP3    H141614   2.292   0.572  15.528
 6733TIP3    H241615   2.434   0.591  15.479
 6734TIP3   OH241616   2.627   0.104  15.174
 6734TIP3    H141617   2.622   0.198  15.144
 6734TIP3    H241618   2.569   0.062  15.108
 6735TIP3   OH241619   2.768   0.520  15.507
 6735TIP3    H141620   2.739   0.490  15.595
 6735TIP3    H241621   2.691   0.496  15.453
 6736TIP3   OH241622   3.041   0.432  15.417
 6736TIP3    H141623   2.945   0.435  15.431
 6736TIP3    H241624   3.070   0.369  15.486
 6737TIP3   OH241625   3.195   0.305  15.611
 6737TIP3    H141626   3.191   0.205  15.611
 6737TIP3    H241627   3.171   0.324  15.704
 6738TIP3   OH241628   2.181   0.420  15.519
 6738TIP3    H141629   2.201   0.345  15.461
 6738TIP3    H241630   2.168   0.375  15.605
 6739TIP3   OH241631   2.662   7.324  15.419
 6739TIP3    H141632   2.730   7.257  15.425
 6739TIP3    H241633   2.652   7.345  15.324
 6740TIP3   OH241634   2.702   0.190  15.622
 6740TIP3    H141635   2.684   0.134  15.544
 6740TIP3    H241636   2.641   0.264  15.615
 6741TIP3   OH241637   2.647   1.877  13.944
 6741TIP3    H141638   2.743   1.885  13.952
 6741TIP3    H241639   2.632   1.937  13.870
 6742TIP3   OH241640   2.000   1.333  13.891
 6742TIP3    H141641   2.097   1.345  13.910
 6742TIP3    H241642   2.009   1.269  13.817
 6743TIP3   OH241643   1.878   1.872  14.391
 6743TIP3    H141644   1.810   1.822  14.342
 6743TIP3    H241645   1.910   1.805  14.454
 6744TIP3   OH241646   1.958   1.689  14.577
 6744TIP3    H141647   1.929   1.598  14.591
 6744TIP3    H241648   1.985   1.719  14.665
 6745TIP3   OH241649   3.716   1.765  14.869
 6745TIP3    H141650   3.719   1.781  14.965
 6745TIP3    H241651   3.786   1.824  14.839
 6746TIP3   OH241652   3.673   1.725  15.164
 6746TIP3    H141653   3.626   1.648  15.126
 6746TIP3    H241654   3.722   1.680  15.235
 6747TIP3   OH241655   3.519   1.296  15.632
 6747TIP3    H141656   3.428   1.294  15.668
 6747TIP3    H241657   3.555   1.376  15.675
 6748TIP3   OH241658   3.649   1.130  14.174
 6748TIP3    H141659   3.736   1.169  14.193
 6748TIP3    H241660   3.648   1.058  14.241
 6749TIP3   OH241661   3.685   0.938  14.363
 6749TIP3    H141662   3.610   0.888  14.402
 6749TIP3    H241663   3.745   0.951  14.439
 6750TIP3   OH241664   3.661   1.207  14.861
 6750TIP3    H141665   3.742   1.169  14.823
 6750TIP3    H241666   3.676   1.302  14.844
 6751TIP3   OH241667   3.517   1.498  15.088
 6751TIP3    H141668   3.448   1.532  15.147
 6751TIP3    H241669   3.462   1.457  15.017
 6752TIP3   OH241670   3.715   0.920  14.002
 6752TIP3    H141671   3.659   0.954  13.929
 6752TIP3    H241672   3.705   0.991  14.068
 6753TIP3   OH241673   3.553   0.643  13.853
 6753TIP3    H141674   3.561   0.710  13.783
 6753TIP3    H241675   3.534   0.561  13.804
 6754TIP3   OH241676   3.467   0.785  14.420
 6754TIP3    H141677   3.453   0.689  14.416
 6754TIP3    H241678   3.434   0.806  14.509
 6755TIP3   OH241679   1.969   0.997  14.826
 6755TIP3    H141680   1.985   0.986  14.730
 6755TIP3    H241681   2.057   0.973  14.861
 6756TIP3   OH241682   3.554   0.982  15.391
 6756TIP3    H141683   3.615   0.906  15.401
 6756TIP3    H241684   3.614   1.059  15.388
 6757TIP3   OH241685   3.702   0.770  15.455
 6757TIP3    H141686   3.615   0.730  15.436
 6757TIP3    H241687   3.760   0.693  15.447
 6758TIP3   OH241688   3.477   0.391  13.768
 6758TIP3    H141689   3.537   0.346  13.832
 6758TIP3    H241690   3.392   0.347  13.782
 6759TIP3   OH241691   3.432   0.544  14.261
 6759TIP3    H141692   3.463   0.453  14.277
 6759TIP3    H241693   3.514   0.584  14.231
 6760TIP3   OH241694   3.498   0.600  14.809
 6760TIP3    H141695   3.594   0.621  14.808
 6760TIP3    H241696   3.480   0.611  14.904
 6761TIP3   OH241697   3.504   0.671  15.086
 6761TIP3    H141698   3.416   0.699  15.120
 6761TIP3    H241699   3.548   0.757  15.065
 6762TIP3   OH241700   1.930   0.521  15.429
 6762TIP3    H141701   2.020   0.505  15.462
 6762TIP3    H241702   1.884   0.446  15.472
 6763TIP3   OH241703   3.741   0.079  15.622
 6763TIP3    H141704   3.763   0.011  15.557
 6763TIP3    H241705   3.740   0.161  15.570
 6764TIP3   OH241706   3.501   0.275  14.271
 6764TIP3    H141707   3.521   0.228  14.354
 6764TIP3    H241708   3.443   0.210  14.224
 6765TIP3   OH241709   2.046   0.358  14.722
 6765TIP3    H141710   2.090   0.273  14.749
 6765TIP3    H241711   2.104   0.422  14.764
 6766TIP3   OH241712   1.878   0.653  14.830
 6766TIP3    H141713   1.934   0.627  14.754
 6766TIP3    H241714   1.925   0.733  14.857
 6767TIP3   OH241715   3.684   0.282  15.455
 6767TIP3    H141716   3.592   0.312  15.450
 6767TIP3    H241717   3.688   0.229  15.374
 6768TIP3   OH241718   3.686   0.276  13.926
 6768TIP3    H141719   3.723   0.203  13.872
 6768TIP3    H241720   3.757   0.341  13.929
 6769TIP3   OH241721   1.915   0.276  14.240
 6769TIP3    H141722   1.821   0.294  14.222
 6769TIP3    H241723   1.957   0.324  14.166
 6770TIP3   OH241724   3.388   1.774  14.433
 6770TIP3    H141725   3.457   1.742  14.371
 6770TIP3    H241726   3.440   1.823  14.498
 6771TIP3   OH241727   1.909   0.150  15.067
 6771TIP3    H141728   1.841   0.126  15.133
 6771TIP3    H241729   1.861   0.211  15.009
 6772TIP3   OH241730   2.132   1.465  15.479
 6772TIP3    H141731   2.045   1.486  15.442
 6772TIP3    H241732   2.109   1.458  15.573
 6773TIP3   OH241733   2.416   1.562  15.104
 6773TIP3    H141734   2.394   1.656  15.084
 6773TIP3    H241735   2.513   1.571  15.083
 6774TIP3   OH241736   2.855   1.705  15.402
 6774TIP3    H141737   2.869   1.672  15.494
 6774TIP3    H241738   2.945   1.737  15.378
 6775TIP3   OH241739   3.084   1.833  15.332
 6775TIP3    H141740   3.157   1.775  15.308
 6775TIP3    H241741   3.122   1.877  15.411
 6776TIP3   OH241742   3.586   0.098  15.233
 6776TIP3    H141743   3.502   0.128  15.196
 6776TIP3    H241744   3.602   0.011  15.189
 6777TIP3   OH241745   2.161   1.881  15.110
 6777TIP3    H141746   2.094   1.939  15.070
 6777TIP3    H241747   2.133   1.874  15.202
 6778TIP3   OH241748   2.410   1.843  15.016
 6778TIP3    H141749   2.323   1.865  15.056
 6778TIP3    H241750   2.409   1.905  14.941
 6779TIP3   OH241751   2.883   1.837  14.934
 6779TIP3    H141752   2.837   1.893  14.870
 6779TIP3    H241753   2.897   1.900  15.008
 6780TIP3   OH241754   3.112   1.718  15.037
 6780TIP3    H141755   3.027   1.746  15.000
 6780TIP3    H241756   3.161   1.801  15.028
 6781TIP3   OH241757   3.371   1.875  15.059
 6781TIP3    H141758   3.365   1.971  15.036
 6781TIP3    H241759   3.392   1.837  14.972
 6782TIP3   OH241760   2.111   1.752  14.803
 6782TIP3    H141761   2.104   1.709  14.890
 6782TIP3    H241762   2.194   1.716  14.764
 6783TIP3   OH241763   2.317   1.627  14.678
 6783TIP3    H141764   2.305   1.531  14.685
 6783TIP3    H241765   2.407   1.640  14.714
 6784TIP3   OH241766   2.577   1.671  14.758
 6784TIP3    H141767   2.597   1.580  14.731
 6784TIP3    H241768   2.586   1.667  14.854
 6785TIP3   OH241769   2.913   0.244  14.669
 6785TIP3    H141770   2.855   0.172  14.698
 6785TIP3    H241771   2.981   0.195  14.620
 6786TIP3   OH241772   3.439   0.045  14.681
 6786TIP3    H141773   3.501   0.100  14.629
 6786TIP3    H241774   3.353   0.079  14.657
 6787TIP3   OH241775   3.608   0.170  14.506
 6787TIP3    H141776   3.671   0.111  14.464
 6787TIP3    H241777   3.659   0.254  14.514
 6788TIP3   OH241778   2.159   0.103  14.458
 6788TIP3    H141779   2.082   0.080  14.404
 6788TIP3    H241780   2.207   0.019  14.461
 6789TIP3   OH241781   2.041   0.075  14.029
 6789TIP3    H141782   2.083   0.141  13.972
 6789TIP3    H241783   1.978   0.130  14.077
 6790TIP3   OH241784   2.615   0.086  14.433
 6790TIP3    H141785   2.701   0.132  14.430
 6790TIP3    H241786   2.605   0.070  14.528
 6791TIP3   OH241787   3.154   0.132  14.613
 6791TIP3    H141788   3.168   0.127  14.518
 6791TIP3    H241789   3.145   0.034  14.626
 6792TIP3   OH241790   3.308   0.102  14.169
 6792TIP3    H141791   3.233   0.158  14.146
 6792TIP3    H241792   3.268   0.016  14.184
 6793TIP3   OH241793   2.017   1.674  14.136
 6793TIP3    H141794   1.963   1.671  14.056
 6793TIP3    H241795   2.030   1.769  14.147
 6794TIP3   OH241796   2.219   0.263  13.881
 6794TIP3    H141797   2.276   0.208  13.825
 6794TIP3    H241798   2.284   0.301  13.943
 6795TIP3   OH241799   2.716   0.294  14.124
 6795TIP3    H141800   2.753   0.237  14.195
 6795TIP3    H241801   2.732   0.381  14.167
 6796TIP3   OH241802   2.918   1.804  13.963
 6796TIP3    H141803   3.010   1.821  13.942
 6796TIP3    H241804   2.893   1.749  13.886
 6797TIP3   OH241805   3.584   1.753  14.236
 6797TIP3    H141806   3.569   1.672  14.180
 6797TIP3    H241807   3.582   1.825  14.170
 6798TIP3   OH241808   2.142   0.149  15.388
 6798TIP3    H141809   2.106   0.078  15.443
 6798TIP3    H241810   2.231   0.153  15.431
 6799TIP3   OH241811   2.325   0.114  15.554
 6799TIP3    H141812   2.419   0.093  15.540
 6799TIP3    H241813   2.309   0.029  15.601
 6800TIP3   OH241814   2.211   1.771  13.827
 6800TIP3    H141815   2.184   1.792  13.917
 6800TIP3    H241816   2.286   1.711  13.842
 6801TIP3   OH241817   3.182   7.358  15.572
 6801TIP3    H141818   3.187   7.303  15.654
 6801TIP3    H241819   3.272   7.336  15.542
 6802TIP3   OH241820   3.511   1.626  15.446
 6802TIP3    H141821   3.432   1.613  15.390
 6802TIP3    H241822   3.501   1.721  15.466
 6803TIP3   OH241823   4.957   1.014  14.441
 6803TIP3    H141824   4.955   1.112  14.439
 6803TIP3    H241825   4.883   0.991  14.381
 6804TIP3   OH241826   4.843   0.940  14.792
 6804TIP3    H141827   4.841   0.875  14.863
 6804TIP3    H241828   4.806   0.890  14.717
 6805TIP3   OH241829   4.077   0.907  14.947
 6805TIP3    H141830   4.086   0.839  15.017
 6805TIP3    H241831   4.152   0.964  14.969
 6806TIP3   OH241832   5.211   1.235  14.620
 6806TIP3    H141833   5.169   1.163  14.669
 6806TIP3    H241834   5.213   1.305  14.687
 6807TIP3   OH241835   4.170   1.352  14.797
 6807TIP3    H141836   4.139   1.265  14.765
 6807TIP3    H241837   4.265   1.334  14.802
 6808TIP3   OH241838   3.834   0.707  14.346
 6808TIP3    H141839   3.790   0.794  14.340
 6808TIP3    H241840   3.777   0.653  14.289
 6809TIP3   OH241841   3.905   0.932  14.561
 6809TIP3    H141842   3.932   0.849  14.605
 6809TIP3    H241843   3.974   0.941  14.494
 6810TIP3   OH241844   4.923   1.751  14.644
 6810TIP3    H141845   4.987   1.681  14.615
 6810TIP3    H241846   4.901   1.717  14.731
 6811TIP3   OH241847   4.679   1.179  14.839
 6811TIP3    H141848   4.713   1.117  14.773
 6811TIP3    H241849   4.761   1.195  14.890
 6812TIP3   OH241850   5.538   0.345  14.911
 6812TIP3    H141851   5.558   0.402  14.989
 6812TIP3    H241852   5.595   0.387  14.845
 6813TIP3   OH241853   4.993   0.625  14.873
 6813TIP3    H141854   5.013   0.529  14.871
 6813TIP3    H241855   4.985   0.641  14.776
 6814TIP3   OH241856   4.309   0.436  14.592
 6814TIP3    H141857   4.319   0.520  14.542
 6814TIP3    H241858   4.267   0.379  14.524
 6815TIP3   OH241859   5.085   0.437  14.426
 6815TIP3    H141860   5.148   0.416  14.499
 6815TIP3    H241861   5.136   0.502  14.376
 6816TIP3   OH241862   3.970   0.676  14.666
 6816TIP3    H141863   4.037   0.622  14.711
 6816TIP3    H241864   3.980   0.645  14.574
 6817TIP3   OH241865   4.486   0.832  14.597
 6817TIP3    H141866   4.553   0.774  14.637
 6817TIP3    H241867   4.434   0.766  14.547
 6818TIP3   OH241868   5.584   0.485  15.140
 6818TIP3    H141869   5.522   0.561  15.127
 6818TIP3    H241870   5.585   0.476  15.236
 6819TIP3   OH241871   4.202   0.334  14.996
 6819TIP3    H141872   4.166   0.383  14.919
 6819TIP3    H241873   4.128   0.347  15.061
 6820TIP3   OH241874   4.927   1.273  14.350
 6820TIP3    H141875   4.901   1.246  14.262
 6820TIP3    H241876   4.897   1.366  14.356
 6821TIP3   OH241877   4.450   1.089  15.020
 6821TIP3    H141878   4.379   1.154  15.042
 6821TIP3    H241879   4.520   1.150  14.991
 6822TIP3   OH241880   5.267   0.372  14.625
 6822TIP3    H141881   5.236   0.304  14.686
 6822TIP3    H241882   5.329   0.423  14.681
 6823TIP3   OH241883   4.154   0.516  14.797
 6823TIP3    H141884   4.219   0.581  14.830
 6823TIP3    H241885   4.206   0.471  14.725
 6824TIP3   OH241886   4.295   1.290  15.102
 6824TIP3    H141887   4.290   1.381  15.068
 6824TIP3    H241888   4.206   1.282  15.146
 6825TIP3   OH241889   3.903   1.251  14.181
 6825TIP3    H141890   3.878   1.285  14.093
 6825TIP3    H241891   3.911   1.335  14.231
 6826TIP3   OH241892   5.263   1.418  14.857
 6826TIP3    H141893   5.167   1.429  14.869
 6826TIP3    H241894   5.290   1.510  14.837
 6827TIP3   OH241895   5.299   0.246  15.002
 6827TIP3    H141896   5.224   0.305  14.986
 6827TIP3    H241897   5.368   0.287  14.945
 6828TIP3   OH241898   4.590   0.059  14.725
 6828TIP3    H141899   4.588  -0.036  14.741
 6828TIP3    H241900   4.511   0.086  14.775
 6829TIP3   OH241901   5.089   1.597  14.515
 6829TIP3    H141902   5.132   1.525  14.465
 6829TIP3    H241903   5.133   1.676  14.477
 6830TIP3   OH241904   5.211   1.389  14.368
 6830TIP3    H141905   5.181   1.320  14.307
 6830TIP3    H241906   5.214   1.340  14.452
 6831TIP3   OH241907   5.372   1.249  15.217
 6831TIP3    H141908   5.387   1.184  15.145
 6831TIP3    H241909   5.393   1.333  15.172
 6832TIP3   OH241910   4.822   0.936  14.193
 6832TIP3    H141911   4.753   0.995  14.158
 6832TIP3    H241912   4.893   0.948  14.127
 6833TIP3   OH241913   4.830   0.795  13.894
 6833TIP3    H141914   4.901   0.793  13.960
 6833TIP3    H241915   4.861   0.723  13.837
 6834TIP3   OH241916   5.561   0.880  15.021
 6834TIP3    H141917   5.496   0.953  15.025
 6834TIP3    H241918   5.611   0.903  14.941
 6835TIP3   OH241919   5.167   0.958  14.285
 6835TIP3    H141920   5.093   0.983  14.345
 6835TIP3    H241921   5.214   0.891  14.338
 6836TIP3   OH241922   5.159   0.775  15.198
 6836TIP3    H141923   5.160   0.857  15.250
 6836TIP3    H241924   5.097   0.804  15.129
 6837TIP3   OH241925   4.328   1.025  14.477
 6837TIP3    H141926   4.296   0.987  14.392
 6837TIP3    H241927   4.389   0.955  14.510
 6838TIP3   OH241928   4.460   1.363  14.745
 6838TIP3    H141929   4.460   1.311  14.664
 6838TIP3    H241930   4.538   1.327  14.791
 6839TIP3   OH241931   4.362   0.898  14.844
 6839TIP3    H141932   4.416   0.909  14.763
 6839TIP3    H241933   4.400   0.966  14.904
 6840TIP3   OH241934   5.003   1.456  14.914
 6840TIP3    H141935   4.974   1.520  14.979
 6840TIP3    H241936   4.977   1.371  14.956
 6841TIP3   OH241937   4.456   1.342  15.313
 6841TIP3    H141938   4.415   1.416  15.362
 6841TIP3    H241939   4.389   1.322  15.243
 6842TIP3   OH241940   5.055   0.879  14.052
 6842TIP3    H141941   5.110   0.896  14.132
 6842TIP3    H241942   5.100   0.928  13.980
 6843TIP3   OH241943   4.151   0.958  15.228
 6843TIP3    H141944   4.156   1.025  15.299
 6843TIP3    H241945   4.057   0.965  15.208
 6844TIP3   OH241946   4.826   1.551  14.399
 6844TIP3    H141947   4.869   1.582  14.480
 6844TIP3    H241948   4.770   1.626  14.375
 6845TIP3   OH241949   4.281   1.546  15.387
 6845TIP3    H141950   4.275   1.536  15.291
 6845TIP3    H241951   4.188   1.532  15.414
 6846TIP3   OH241952   5.428   0.071  14.030
 6846TIP3    H141953   5.334   0.072  14.056
 6846TIP3    H241954   5.447   0.156  13.989
 6847TIP3   OH241955   4.224   0.927  14.240
 6847TIP3    H141956   4.196   1.005  14.188
 6847TIP3    H241957   4.159   0.860  14.215
 6848TIP3   OH241958   5.539   1.487  13.878
 6848TIP3    H141959   5.555   1.581  13.894
 6848TIP3    H241960   5.631   1.456  13.877
 6849TIP3   OH241961   3.834   1.170  15.129
 6849TIP3    H141962   3.789   1.162  15.042
 6849TIP3    H241963   3.842   1.075  15.150
 6850TIP3   OH241964   3.810   1.443  14.806
 6850TIP3    H141965   3.906   1.432  14.804
 6850TIP3    H241966   3.802   1.525  14.857
 6851TIP3   OH241967   5.633   1.514  15.372
 6851TIP3    H141968   5.622   1.417  15.373
 6851TIP3    H241969   5.548   1.539  15.415
 6852TIP3   OH241970   4.730   1.468  15.262
 6852TIP3    H141971   4.735   1.552  15.314
 6852TIP3    H241972   4.642   1.432  15.286
 6853TIP3   OH241973   4.774   1.842  14.239
 6853TIP3    H141974   4.761   1.835  14.143
 6853TIP3    H241975   4.774   1.938  14.256
 6854TIP3   OH241976   4.137   1.730  14.426
 6854TIP3    H141977   4.152   1.687  14.513
 6854TIP3    H241978   4.053   1.688  14.400
 6855TIP3   OH241979   5.080   1.763  13.938
 6855TIP3    H141980   5.125   1.688  13.895
 6855TIP3    H241981   5.083   1.737  14.033
 6856TIP3   OH241982   5.049   1.757  14.216
 6856TIP3    H141983   4.953   1.765  14.233
 6856TIP3    H241984   5.072   1.683  14.274
 6857TIP3   OH241985   5.351   0.658  15.418
 6857TIP3    H141986   5.301   0.705  15.350
 6857TIP3    H241987   5.345   0.566  15.389
 6858TIP3   OH241988   4.063   1.301  15.223
 6858TIP3    H141989   4.085   1.265  15.311
 6858TIP3    H241990   3.976   1.262  15.201
 6859TIP3   OH241991   4.329   0.146  14.823
 6859TIP3    H141992   4.241   0.139  14.781
 6859TIP3    H241993   4.316   0.232  14.864
 6860TIP3   OH241994   4.791   0.123  15.161
 6860TIP3    H141995   4.836   0.075  15.231
 6860TIP3    H241996   4.697   0.102  15.174
 6861TIP3   OH241997   5.121   0.495  15.242
 6861TIP3    H141998   5.067   0.481  15.323
 6861TIP3    H241999   5.111   0.589  15.221
 6862TIP3   OH242000   5.200   0.981  13.834
 6862TIP3    H142001   5.197   0.963  13.737
 6862TIP3    H242002   5.285   1.027  13.838
 6863TIP3   OH242003   4.759   0.373  13.886
 6863TIP3    H142004   4.727   0.366  13.977
 6863TIP3    H242005   4.727   0.287  13.854
 6864TIP3   OH242006   4.342   0.647  14.947
 6864TIP3    H142007   4.264   0.646  15.004
 6864TIP3    H242008   4.336   0.736  14.904
 6865TIP3   OH242009   4.337   0.658  14.429
 6865TIP3    H142010   4.243   0.634  14.416
 6865TIP3    H242011   4.374   0.629  14.343
 6866TIP3   OH242012   4.889   0.709  14.306
 6866TIP3    H142013   4.849   0.791  14.269
 6866TIP3    H242014   4.958   0.692  14.240
 6867TIP3   OH242015   4.794   0.728  15.446
 6867TIP3    H142016   4.743   0.652  15.483
 6867TIP3    H242017   4.878   0.721  15.495
 6868TIP3   OH242018   4.993   0.658  14.591
 6868TIP3    H142019   4.964   0.714  14.517
 6868TIP3    H242020   5.001   0.573  14.544
 6869TIP3   OH242021   4.105   0.669  15.111
 6869TIP3    H142022   4.109   0.713  15.198
 6869TIP3    H242023   4.055   0.589  15.132
 6870TIP3   OH242024   4.440   0.413  13.798
 6870TIP3    H142025   4.393   0.369  13.871
 6870TIP3    H242026   4.369   0.452  13.745
 6871TIP3   OH242027   3.769   0.385  14.507
 6871TIP3    H142028   3.837   0.382  14.578
 6871TIP3    H242029   3.814   0.346  14.431
 6872TIP3   OH242030   3.895   0.456  14.047
 6872TIP3    H142031   3.947   0.514  13.988
 6872TIP3    H242032   3.826   0.518  14.077
 6873TIP3   OH242033   4.909   0.816  15.045
 6873TIP3    H142034   4.951   0.748  14.987
 6873TIP3    H242035   4.867   0.763  15.114
 6874TIP3   OH242036   4.591   0.413  14.528
 6874TIP3    H142037   4.498   0.413  14.560
 6874TIP3    H242038   4.641   0.398  14.610
 6875TIP3   OH242039   4.073   0.569  14.416
 6875TIP3    H142040   3.985   0.583  14.377
 6875TIP3    H242041   4.103   0.486  14.375
 6876TIP3   OH242042   4.438   0.573  14.179
 6876TIP3    H142043   4.533   0.583  14.195
 6876TIP3    H242044   4.414   0.642  14.114
 6877TIP3   OH242045   5.034   0.335  14.853
 6877TIP3    H142046   4.965   0.342  14.921
 6877TIP3    H242047   4.982   0.308  14.775
 6878TIP3   OH242048   4.308   0.691  13.938
 6878TIP3    H142049   4.255   0.653  13.866
 6878TIP3    H242050   4.390   0.711  13.891
 6879TIP3   OH242051   5.352   1.901  15.490
 6879TIP3    H142052   5.380   1.937  15.404
 6879TIP3    H242053   5.426   1.931  15.546
 6880TIP3   OH242054   4.122   1.147  15.445
 6880TIP3    H142055   4.192   1.173  15.507
 6880TIP3    H242056   4.043   1.156  15.503
 6881TIP3   OH242057   4.721   0.688  14.719
 6881TIP3    H142058   4.780   0.635  14.666
 6881TIP3    H242059   4.706   0.634  14.797
 6882TIP3   OH242060   4.220   0.306  14.363
 6882TIP3    H142061   4.189   0.214  14.365
 6882TIP3    H242062   4.298   0.298  14.307
 6883TIP3   OH242063   4.582   0.521  14.969
 6883TIP3    H142064   4.502   0.578  14.965
 6883TIP3    H242065   4.644   0.567  15.027
 6884TIP3   OH242066   4.643   1.144  14.130
 6884TIP3    H142067   4.563   1.098  14.097
 6884TIP3    H242068   4.620   1.157  14.224
 6885TIP3   OH242069   5.362   1.064  15.010
 6885TIP3    H142070   5.418   1.113  14.947
 6885TIP3    H242071   5.276   1.069  14.964
 6886TIP3   OH242072   5.025   0.427  13.949
 6886TIP3    H142073   4.930   0.442  13.933
 6886TIP3    H242074   5.060   0.511  13.983
 6887TIP3   OH242075   4.792   1.171  15.254
 6887TIP3    H142076   4.757   1.128  15.333
 6887TIP3    H242077   4.767   1.263  15.265
 6888TIP3   OH242078   5.101   0.617  14.110
 6888TIP3    H142079   5.189   0.602  14.150
 6888TIP3    H242080   5.111   0.700  14.060
 6889TIP3   OH242081   4.154   1.084  14.710
 6889TIP3    H142082   4.222   1.075  14.640
 6889TIP3    H242083   4.160   0.998  14.756
 6890TIP3   OH242084   4.852   1.291  14.033
 6890TIP3    H142085   4.818   1.375  14.069
 6890TIP3    H242086   4.779   1.229  14.055
 6891TIP3   OH242087   3.853   0.924  15.237
 6891TIP3    H142088   3.870   0.880  15.322
 6891TIP3    H242089   3.791   0.863  15.192
 6892TIP3   OH242090   4.553   0.877  15.456
 6892TIP3    H142091   4.523   0.852  15.368
 6892TIP3    H242092   4.648   0.850  15.454
 6893TIP3   OH242093   5.023   1.413  15.249
 6893TIP3    H142094   4.930   1.431  15.226
 6893TIP3    H242095   5.020   1.442  15.342
 6894TIP3   OH242096   5.591   0.632  14.088
 6894TIP3    H142097   5.534   0.603  14.014
 6894TIP3    H242098   5.598   0.727  14.062
 6895TIP3   OH242099   5.589   1.217  15.368
 6895TIP3    H142100   5.499   1.240  15.332
 6895TIP3    H242101   5.643   1.212  15.287
 6896TIP3   OH242102   5.415   1.514  14.127
 6896TIP3    H142103   5.382   1.430  14.162
 6896TIP3    H242104   5.451   1.492  14.040
 6897TIP3   OH242105   5.140   0.996  14.839
 6897TIP3    H142106   5.046   0.976  14.826
 6897TIP3    H242107   5.183   0.920  14.795
 6898TIP3   OH242108   4.392   1.429  14.449
 6898TIP3    H142109   4.441   1.510  14.428
 6898TIP3    H242110   4.304   1.452  14.416
 6899TIP3   OH242111   3.968   0.911  13.908
 6899TIP3    H142112   4.026   0.979  13.947
 6899TIP3    H242113   3.879   0.945  13.929
 6900TIP3   OH242114   4.532   1.196  14.399
 6900TIP3    H142115   4.501   1.288  14.410
 6900TIP3    H242116   4.461   1.146  14.444
 6901TIP3   OH242117   4.578   1.614  15.042
 6901TIP3    H142118   4.624   1.694  15.013
 6901TIP3    H242119   4.640   1.579  15.108
 6902TIP3   OH242120   4.401   1.692  14.357
 6902TIP3    H142121   4.304   1.707  14.366
 6902TIP3    H242122   4.436   1.779  14.385
 6903TIP3   OH242123   4.930   1.213  15.003
 6903TIP3    H142124   4.898   1.194  15.094
 6903TIP3    H242125   4.994   1.143  14.987
 6904TIP3   OH242126   5.164   1.321  13.912
 6904TIP3    H142127   5.194   1.274  13.993
 6904TIP3    H242128   5.069   1.303  13.920
 6905TIP3   OH242129   5.213   1.672  15.252
 6905TIP3    H142130   5.143   1.623  15.204
 6905TIP3    H242131   5.230   1.742  15.186
 6906TIP3   OH242132   5.610   1.756  13.938
 6906TIP3    H142133   5.679   1.823  13.917
 6906TIP3    H242134   5.539   1.818  13.966
 6907TIP3   OH242135   4.020   0.395  15.194
 6907TIP3    H142136   3.929   0.431  15.189
 6907TIP3    H242137   4.004   0.308  15.235
 6908TIP3   OH242138   5.242   1.185  14.136
 6908TIP3    H142139   5.218   1.106  14.190
 6908TIP3    H242140   5.337   1.189  14.154
 6909TIP3   OH242141   3.979   1.575  15.034
 6909TIP3    H142142   4.010   1.484  15.035
 6909TIP3    H242143   4.006   1.605  15.122
 6910TIP3   OH242144   4.574   1.428  13.760
 6910TIP3    H142145   4.588   1.349  13.704
 6910TIP3    H242146   4.534   1.385  13.839
 6911TIP3   OH242147   4.455   1.382  14.006
 6911TIP3    H142148   4.481   1.331  14.084
 6911TIP3    H242149   4.462   1.476  14.038
 6912TIP3   OH242150   4.109   1.106  14.056
 6912TIP3    H142151   4.037   1.146  14.107
 6912TIP3    H242152   4.159   1.185  14.026
 6913TIP3   OH242153   4.886   0.376  15.093
 6913TIP3    H142154   4.966   0.379  15.147
 6913TIP3    H242155   4.859   0.283  15.103
 6914TIP3   OH242156   4.974   0.328  14.198
 6914TIP3    H142157   4.987   0.377  14.114
 6914TIP3    H242158   5.021   0.384  14.261
 6915TIP3   OH242159   4.734   1.548  14.076
 6915TIP3    H142160   4.652   1.602  14.082
 6915TIP3    H242161   4.788   1.603  14.018
 6916TIP3   OH242162   4.691   0.504  14.278
 6916TIP3    H142163   4.766   0.565  14.282
 6916TIP3    H242164   4.664   0.495  14.372
 6917TIP3   OH242165   4.742   0.603  15.202
 6917TIP3    H142166   4.758   0.669  15.274
 6917TIP3    H242167   4.821   0.545  15.204
 6918TIP3   OH242168   4.776   0.213  14.371
 6918TIP3    H142169   4.741   0.280  14.432
 6918TIP3    H242170   4.842   0.268  14.322
 6919TIP3   OH242171   4.476   1.650  14.079
 6919TIP3    H142172   4.483   1.732  14.024
 6919TIP3    H242173   4.446   1.688  14.163
 6920TIP3   OH242174   4.338   0.322  14.036
 6920TIP3    H142175   4.332   0.411  14.075
 6920TIP3    H242176   4.430   0.302  14.061
 6921TIP3   OH242177   5.362   0.396  15.284
 6921TIP3    H142178   5.269   0.428  15.270
 6921TIP3    H242179   5.391   0.394  15.190
 6922TIP3   OH242180   5.223   0.775  14.682
 6922TIP3    H142181   5.141   0.731  14.655
 6922TIP3    H242182   5.272   0.707  14.734
 6923TIP3   OH242183   4.165   1.361  13.947
 6923TIP3    H142184   4.227   1.432  13.971
 6923TIP3    H242185   4.213   1.323  13.871
 6924TIP3   OH242186   3.996   0.636  13.857
 6924TIP3    H142187   3.999   0.732  13.877
 6924TIP3    H242188   3.908   0.618  13.825
 6925TIP3   OH242189   5.330   1.700  14.849
 6925TIP3    H142190   5.321   1.769  14.780
 6925TIP3    H242191   5.426   1.706  14.868
 6926TIP3   OH242192   4.055   0.129  14.736
 6926TIP3    H142193   4.061   0.119  14.638
 6926TIP3    H242194   4.040   0.037  14.758
 6927TIP3   OH242195   3.975   1.506  14.345
 6927TIP3    H142196   3.889   1.550  14.340
 6927TIP3    H242197   4.022   1.552  14.274
 6928TIP3   OH242198   3.894   1.771  15.474
 6928TIP3    H142199   3.954   1.751  15.548
 6928TIP3    H242200   3.854   1.684  15.456
 6929TIP3   OH242201   4.361   1.657  15.636
 6929TIP3    H142202   4.440   1.612  15.667
 6929TIP3    H242203   4.360   1.634  15.541
 6930TIP3   OH242204   4.774   1.614  13.771
 6930TIP3    H142205   4.709   1.547  13.799
 6930TIP3    H242206   4.849   1.555  13.751
 6931TIP3   OH242207   5.012   1.500  15.506
 6931TIP3    H142208   4.981   1.412  15.536
 6931TIP3    H242209   5.091   1.513  15.563
 6932TIP3   OH242210   5.232   1.588  13.793
 6932TIP3    H142211   5.262   1.510  13.843
 6932TIP3    H242212   5.308   1.610  13.738
 6933TIP3   OH242213   3.885   1.145  15.571
 6933TIP3    H142214   3.903   1.055  15.539
 6933TIP3    H242215   3.812   1.173  15.513
 6934TIP3   OH242216   4.321   1.183  13.775
 6934TIP3    H142217   4.335   1.106  13.833
 6934TIP3    H242218   4.396   1.171  13.713
 6935TIP3   OH242219   4.557   1.145  15.511
 6935TIP3    H142220   4.524   1.178  15.425
 6935TIP3    H242221   4.564   1.047  15.500
 6936TIP3   OH242222   4.864   1.293  13.752
 6936TIP3    H142223   4.836   1.302  13.845
 6936TIP3    H242224   4.845   1.197  13.738
 6937TIP3   OH242225   5.127   1.132  15.250
 6937TIP3    H142226   5.206   1.190  15.244
 6937TIP3    H242227   5.057   1.199  15.254
 6938TIP3   OH242228   3.976   0.870  15.511
 6938TIP3    H142229   4.019   0.785  15.501
 6938TIP3    H242230   3.955   0.872  15.606
 6939TIP3   OH242231   4.442   0.984  14.018
 6939TIP3    H142232   4.391   0.930  14.080
 6939TIP3    H242233   4.471   0.917  13.952
 6940TIP3   OH242234   4.370   0.762  15.245
 6940TIP3    H142235   4.309   0.834  15.272
 6940TIP3    H242236   4.406   0.803  15.165
 6941TIP3   OH242237   4.549   0.806  13.837
 6941TIP3    H142238   4.534   0.797  13.741
 6941TIP3    H242239   4.646   0.811  13.844
 6942TIP3   OH242240   4.874   1.023  15.584
 6942TIP3    H142241   4.970   1.020  15.567
 6942TIP3    H242242   4.858   0.945  15.639
 6943TIP3   OH242243   5.481   1.039  13.779
 6943TIP3    H142244   5.463   1.000  13.692
 6943TIP3    H242245   5.491   1.135  13.760
 6944TIP3   OH242246   4.404   0.509  15.354
 6944TIP3    H142247   4.390   0.433  15.295
 6944TIP3    H242248   4.387   0.591  15.301
 6945TIP3   OH242249   4.448   0.346  15.106
 6945TIP3    H142250   4.496   0.386  15.028
 6945TIP3    H242251   4.359   0.329  15.065
 6946TIP3   OH242252   4.602   0.887  15.131
 6946TIP3    H142253   4.679   0.875  15.074
 6946TIP3    H242254   4.566   0.972  15.100
 6947TIP3   OH242255   5.041   0.662  15.625
 6947TIP3    H142256   5.066   0.569  15.619
 6947TIP3    H242257   5.127   0.707  15.631
 6948TIP3   OH242258   5.177   0.945  15.445
 6948TIP3    H142259   5.151   1.016  15.382
 6948TIP3    H242260   5.273   0.941  15.425
 6949TIP3   OH242261   4.255   0.627  15.547
 6949TIP3    H142262   4.176   0.572  15.528
 6949TIP3    H242263   4.317   0.593  15.481
 6950TIP3   OH242264   4.512   0.106  15.173
 6950TIP3    H142265   4.506   0.196  15.138
 6950TIP3    H242266   4.456   0.059  15.110
 6951TIP3   OH242267   4.652   0.516  15.502
 6951TIP3    H142268   4.631   0.493  15.596
 6951TIP3    H242269   4.565   0.498  15.465
 6952TIP3   OH242270   4.925   0.431  15.416
 6952TIP3    H142271   4.831   0.435  15.436
 6952TIP3    H242272   4.957   0.370  15.486
 6953TIP3   OH242273   5.082   0.305  15.611
 6953TIP3    H142274   5.077   0.206  15.610
 6953TIP3    H242275   5.056   0.325  15.703
 6954TIP3   OH242276   4.066   0.420  15.519
 6954TIP3    H142277   4.086   0.345  15.461
 6954TIP3    H242278   4.055   0.375  15.605
 6955TIP3   OH242279   4.551   7.326  15.419
 6955TIP3    H142280   4.614   7.254  15.425
 6955TIP3    H242281   4.537   7.342  15.323
 6956TIP3   OH242282   4.590   0.192  15.620
 6956TIP3    H142283   4.568   0.131  15.545
 6956TIP3    H242284   4.523   0.262  15.619
 6957TIP3   OH242285   4.543   1.866  13.941
 6957TIP3    H142286   4.636   1.889  13.953
 6957TIP3    H242287   4.513   1.936  13.880
 6958TIP3   OH242288   3.889   1.332  13.894
 6958TIP3    H142289   3.985   1.344  13.909
 6958TIP3    H242290   3.893   1.272  13.816
 6959TIP3   OH242291   3.765   1.872  14.388
 6959TIP3    H142292   3.693   1.823  14.343
 6959TIP3    H242293   3.794   1.807  14.455
 6960TIP3   OH242294   3.848   1.686  14.576
 6960TIP3    H142295   3.813   1.598  14.596
 6960TIP3    H242296   3.870   1.719  14.665
 6961TIP3   OH242297   5.602   1.765  14.869
 6961TIP3    H142298   5.605   1.781  14.965
 6961TIP3    H242299   5.672   1.824  14.839
 6962TIP3   OH242300   5.559   1.725  15.164
 6962TIP3    H142301   5.512   1.648  15.126
 6962TIP3    H242302   5.608   1.680  15.235
 6963TIP3   OH242303   5.404   1.296  15.632
 6963TIP3    H142304   5.313   1.294  15.668
 6963TIP3    H242305   5.440   1.376  15.675
 6964TIP3   OH242306   5.535   1.130  14.174
 6964TIP3    H142307   5.622   1.169  14.193
 6964TIP3    H242308   5.533   1.058  14.241
 6965TIP3   OH242309   5.571   0.937  14.363
 6965TIP3    H142310   5.496   0.888  14.402
 6965TIP3    H242311   5.631   0.951  14.439
 6966TIP3   OH242312   5.547   1.207  14.861
 6966TIP3    H142313   5.628   1.169  14.823
 6966TIP3    H242314   5.561   1.302  14.844
 6967TIP3   OH242315   5.403   1.498  15.088
 6967TIP3    H142316   5.334   1.532  15.147
 6967TIP3    H242317   5.348   1.457  15.017
 6968TIP3   OH242318   5.601   0.920  14.002
 6968TIP3    H142319   5.545   0.954  13.930
 6968TIP3    H242320   5.591   0.991  14.068
 6969TIP3   OH242321   5.439   0.643  13.853
 6969TIP3    H142322   5.446   0.710  13.783
 6969TIP3    H242323   5.420   0.561  13.804
 6970TIP3   OH242324   5.353   0.785  14.420
 6970TIP3    H142325   5.338   0.689  14.416
 6970TIP3    H242326   5.320   0.807  14.509
 6971TIP3   OH242327   3.854   0.993  14.826
 6971TIP3    H142328   3.871   0.985  14.729
 6971TIP3    H242329   3.943   0.976  14.861
 6972TIP3   OH242330   5.439   0.981  15.391
 6972TIP3    H142331   5.501   0.906  15.401
 6972TIP3    H242332   5.500   1.059  15.388
 6973TIP3   OH242333   5.588   0.769  15.456
 6973TIP3    H142334   5.500   0.730  15.436
 6973TIP3    H242335   5.646   0.692  15.445
 6974TIP3   OH242336   5.363   0.391  13.769
 6974TIP3    H142337   5.422   0.346  13.833
 6974TIP3    H242338   5.277   0.347  13.782
 6975TIP3   OH242339   5.317   0.544  14.261
 6975TIP3    H142340   5.351   0.453  14.276
 6975TIP3    H242341   5.398   0.587  14.230
 6976TIP3   OH242342   5.384   0.600  14.809
 6976TIP3    H142343   5.480   0.621  14.808
 6976TIP3    H242344   5.365   0.611  14.904
 6977TIP3   OH242345   5.389   0.672  15.086
 6977TIP3    H142346   5.301   0.700  15.119
 6977TIP3    H242347   5.434   0.757  15.065
 6978TIP3   OH242348   3.814   0.524  15.439
 6978TIP3    H142349   3.908   0.503  15.459
 6978TIP3    H242350   3.770   0.441  15.467
 6979TIP3   OH242351   5.639   0.082  15.620
 6979TIP3    H142352   5.643   0.005  15.560
 6979TIP3    H242353   5.601   0.152  15.565
 6980TIP3   OH242354   5.390   0.272  14.267
 6980TIP3    H142355   5.403   0.241  14.358
 6980TIP3    H242356   5.323   0.215  14.221
 6981TIP3   OH242357   3.932   0.358  14.722
 6981TIP3    H142358   3.976   0.273  14.749
 6981TIP3    H242359   3.990   0.423  14.764
 6982TIP3   OH242360   3.764   0.652  14.830
 6982TIP3    H142361   3.820   0.627  14.754
 6982TIP3    H242362   3.810   0.733  14.856
 6983TIP3   OH242363   5.561   0.279  15.454
 6983TIP3    H142364   5.468   0.313  15.447
 6983TIP3    H242365   5.563   0.230  15.369
 6984TIP3   OH242366   5.572   0.274  13.929
 6984TIP3    H142367   5.609   0.204  13.871
 6984TIP3    H242368   5.641   0.341  13.928
 6985TIP3   OH242369   3.801   0.276  14.240
 6985TIP3    H142370   3.707   0.294  14.222
 6985TIP3    H242371   3.843   0.324  14.166
 6986TIP3   OH242372   5.274   1.773  14.432
 6986TIP3    H142373   5.342   1.743  14.370
 6986TIP3    H242374   5.325   1.823  14.497
 6987TIP3   OH242375   3.796   0.152  15.068
 6987TIP3    H142376   3.728   0.128  15.133
 6987TIP3    H242377   3.748   0.211  15.008
 6988TIP3   OH242378   4.019   1.466  15.483
 6988TIP3    H142379   3.935   1.486  15.440
 6988TIP3    H242380   3.992   1.458  15.575
 6989TIP3   OH242381   4.308   1.564  15.111
 6989TIP3    H142382   4.277   1.652  15.084
 6989TIP3    H242383   4.401   1.573  15.080
 6990TIP3   OH242384   4.741   1.705  15.401
 6990TIP3    H142385   4.754   1.672  15.493
 6990TIP3    H242386   4.831   1.737  15.378
 6991TIP3   OH242387   4.970   1.834  15.332
 6991TIP3    H142388   5.043   1.775  15.308
 6991TIP3    H242389   5.007   1.877  15.411
 6992TIP3   OH242390   5.473   0.098  15.234
 6992TIP3    H142391   5.388   0.127  15.196
 6992TIP3    H242392   5.487   0.011  15.190
 6993TIP3   OH242393   4.051   1.888  15.110
 6993TIP3    H142394   3.978   1.938  15.070
 6993TIP3    H242395   4.020   1.869  15.200
 6994TIP3   OH242396   4.298   1.845  15.018
 6994TIP3    H142397   4.209   1.861  15.057
 6994TIP3    H242398   4.293   1.905  14.941
 6995TIP3   OH242399   4.769   1.836  14.935
 6995TIP3    H142400   4.723   1.891  14.870
 6995TIP3    H242401   4.782   1.899  15.008
 6996TIP3   OH242402   4.998   1.718  15.038
 6996TIP3    H142403   4.912   1.746  15.000
 6996TIP3    H242404   5.046   1.801  15.028
 6997TIP3   OH242405   5.256   1.875  15.059
 6997TIP3    H142406   5.251   1.971  15.036
 6997TIP3    H242407   5.278   1.837  14.972
 6998TIP3   OH242408   3.997   1.753  14.804
 6998TIP3    H142409   3.989   1.707  14.890
 6998TIP3    H242410   4.079   1.715  14.766
 6999TIP3   OH242411   4.205   1.624  14.670
 6999TIP3    H142412   4.189   1.531  14.693
 6999TIP3    H242413   4.291   1.640  14.715
 7000TIP3   OH242414   4.466   1.673  14.757
 7000TIP3    H142415   4.481   1.580  14.731
 7000TIP3    H242416   4.470   1.667  14.854
 7001TIP3   OH242417   4.799   0.244  14.669
 7001TIP3    H142418   4.740   0.172  14.698
 7001TIP3    H242419   4.867   0.194  14.620
 7002TIP3   OH242420   5.325   0.040  14.669
 7002TIP3    H142421   5.387   0.107  14.636
 7002TIP3    H242422   5.237   0.081  14.661
 7003TIP3   OH242423   5.501   0.171  14.504
 7003TIP3    H142424   5.577   0.119  14.475
 7003TIP3    H242425   5.546   0.258  14.519
 7004TIP3   OH242426   4.044   0.103  14.458
 7004TIP3    H142427   3.968   0.080  14.404
 7004TIP3    H242428   4.092   0.019  14.461
 7005TIP3   OH242429   3.927   0.075  14.029
 7005TIP3    H142430   3.969   0.141  13.972
 7005TIP3    H242431   3.864   0.130  14.077
 7006TIP3   OH242432   4.501   0.086  14.433
 7006TIP3    H142433   4.586   0.132  14.430
 7006TIP3    H242434   4.491   0.070  14.528
 7007TIP3   OH242435   5.043   0.131  14.613
 7007TIP3    H142436   5.050   0.127  14.517
 7007TIP3    H242437   5.030   0.034  14.627
 7008TIP3   OH242438   5.195   0.100  14.179
 7008TIP3    H142439   5.122   0.158  14.146
 7008TIP3    H242440   5.150   0.015  14.180
 7009TIP3   OH242441   3.913   1.671  14.134
 7009TIP3    H142442   3.851   1.670  14.059
 7009TIP3    H242443   3.920   1.767  14.145
 7010TIP3   OH242444   4.104   0.263  13.881
 7010TIP3    H142445   4.162   0.208  13.825
 7010TIP3    H242446   4.170   0.301  13.943
 7011TIP3   OH242447   4.602   0.294  14.124
 7011TIP3    H142448   4.638   0.237  14.195
 7011TIP3    H242449   4.618   0.381  14.167
 7012TIP3   OH242450   4.806   1.800  13.964
 7012TIP3    H142451   4.896   1.824  13.940
 7012TIP3    H242452   4.781   1.750  13.884
 7013TIP3   OH242453   5.473   1.751  14.236
 7013TIP3    H142454   5.454   1.673  14.179
 7013TIP3    H242455   5.466   1.825  14.172
 7014TIP3   OH242456   4.025   0.151  15.391
 7014TIP3    H142457   3.992   0.077  15.442
 7014TIP3    H242458   4.116   0.153  15.431
 7015TIP3   OH242459   4.212   0.114  15.553
 7015TIP3    H142460   4.306   0.091  15.541
 7015TIP3    H242461   4.193   0.030  15.600
 7016TIP3   OH242462   4.069   1.726  13.834
 7016TIP3    H142463   4.069   1.795  13.903
 7016TIP3    H242464   4.166   1.714  13.833
 7017TIP3   OH242465   5.068   7.359  15.572
 7017TIP3    H142466   5.076   7.304  15.653
 7017TIP3    H242467   5.157   7.338  15.539
 7018TIP3   OH242468   5.397   1.626  15.446
 7018TIP3    H142469   5.318   1.613  15.390
 7018TIP3    H242470   5.386   1.721  15.466
 7019TIP3   OH242471   6.840   1.012  14.442
 7019TIP3    H142472   6.842   1.110  14.439
 7019TIP3    H242473   6.769   0.992  14.380
 7020TIP3   OH242474   6.727   0.939  14.791
 7020TIP3    H142475   6.727   0.876  14.864
 7020TIP3    H242476   6.695   0.888  14.715
 7021TIP3   OH242477   5.963   0.907  14.947
 7021TIP3    H142478   5.971   0.839  15.017
 7021TIP3    H242479   6.038   0.964  14.969
 7022TIP3   OH242480   7.098   1.232  14.621
 7022TIP3    H142481   7.056   1.161  14.670
 7022TIP3    H242482   7.099   1.304  14.687
 7023TIP3   OH242483   6.055   1.352  14.797
 7023TIP3    H142484   6.024   1.265  14.765
 7023TIP3    H242485   6.151   1.334  14.802
 7024TIP3   OH242486   5.720   0.707  14.347
 7024TIP3    H142487   5.676   0.794  14.340
 7024TIP3    H242488   5.663   0.654  14.289
 7025TIP3   OH242489   5.791   0.932  14.561
 7025TIP3    H142490   5.817   0.849  14.605
 7025TIP3    H242491   5.860   0.941  14.494
 7026TIP3   OH242492   6.808   1.750  14.644
 7026TIP3    H142493   6.873   1.680  14.616
 7026TIP3    H242494   6.785   1.716  14.730
 7027TIP3   OH242495   6.566   1.179  14.839
 7027TIP3    H142496   6.599   1.117  14.773
 7027TIP3    H242497   6.647   1.195  14.890
 7028TIP3   OH242498   6.880   0.627  14.870
 7028TIP3    H142499   6.898   0.531  14.869
 7028TIP3    H242500   6.875   0.642  14.774
 7029TIP3   OH242501   6.200   0.436  14.589
 7029TIP3    H142502   6.196   0.520  14.542
 7029TIP3    H242503   6.151   0.378  14.526
 7030TIP3   OH242504   6.968   0.449  14.431
 7030TIP3    H142505   7.032   0.413  14.497
 7030TIP3    H242506   7.029   0.498  14.376
 7031TIP3   OH242507   5.854   0.676  14.666
 7031TIP3    H142508   5.922   0.622  14.712
 7031TIP3    H242509   5.866   0.645  14.575
 7032TIP3   OH242510   6.379   0.828  14.589
 7032TIP3    H142511   6.436   0.774  14.646
 7032TIP3    H242512   6.312   0.768  14.553
 7033TIP3   OH242513   6.086   0.331  14.993
 7033TIP3    H142514   6.053   0.384  14.918
 7033TIP3    H242515   6.016   0.349  15.060
 7034TIP3   OH242516   6.811   1.271  14.350
 7034TIP3    H142517   6.786   1.245  14.261
 7034TIP3    H242518   6.782   1.365  14.356
 7035TIP3   OH242519   6.335   1.089  15.019
 7035TIP3    H142520   6.265   1.154  15.042
 7035TIP3    H242521   6.406   1.149  14.991
 7036TIP3   OH242522   7.118   0.370  14.638
 7036TIP3    H142523   7.119   0.292  14.694
 7036TIP3    H242524   7.193   0.419  14.678
 7037TIP3   OH242525   6.040   0.516  14.795
 7037TIP3    H142526   6.105   0.580  14.832
 7037TIP3    H242527   6.093   0.470  14.725
 7038TIP3   OH242528   6.180   1.290  15.102
 7038TIP3    H142529   6.175   1.381  15.068
 7038TIP3    H242530   6.092   1.282  15.146
 7039TIP3   OH242531   5.788   1.251  14.181
 7039TIP3    H142532   5.763   1.285  14.093
 7039TIP3    H242533   5.796   1.334  14.232
 7040TIP3   OH242534   7.129   1.411  14.867
 7040TIP3    H142535   7.033   1.432  14.870
 7040TIP3    H242536   7.167   1.495  14.836
 7041TIP3   OH242537   7.159   0.262  14.970
 7041TIP3    H142538   7.091   0.330  14.979
 7041TIP3    H242539   7.238   0.308  14.940
 7042TIP3   OH242540   6.475   0.059  14.725
 7042TIP3    H142541   6.474  -0.037  14.741
 7042TIP3    H242542   6.397   0.086  14.775
 7043TIP3   OH242543   6.967   1.589  14.518
 7043TIP3    H142544   7.016   1.522  14.467
 7043TIP3    H242545   7.012   1.670  14.482
 7044TIP3   OH242546   7.095   1.388  14.368
 7044TIP3    H142547   7.070   1.317  14.307
 7044TIP3    H242548   7.101   1.337  14.451
 7045TIP3   OH242549   7.231   1.264  15.227
 7045TIP3    H142550   7.259   1.194  15.165
 7045TIP3    H242551   7.273   1.339  15.183
 7046TIP3   OH242552   6.705   0.934  14.192
 7046TIP3    H142553   6.639   0.996  14.157
 7046TIP3    H242554   6.778   0.948  14.128
 7047TIP3   OH242555   6.716   0.794  13.893
 7047TIP3    H142556   6.787   0.793  13.959
 7047TIP3    H242557   6.746   0.722  13.837
 7048TIP3   OH242558   7.049   0.959  14.282
 7048TIP3    H142559   6.977   0.984  14.344
 7048TIP3    H242560   7.098   0.896  14.338
 7049TIP3   OH242561   7.047   0.776  15.195
 7049TIP3    H142562   7.042   0.856  15.250
 7049TIP3    H242563   6.983   0.803  15.126
 7050TIP3   OH242564   6.214   1.025  14.477
 7050TIP3    H142565   6.181   0.987  14.391
 7050TIP3    H242566   6.275   0.957  14.510
 7051TIP3   OH242567   6.345   1.363  14.745
 7051TIP3    H142568   6.345   1.311  14.664
 7051TIP3    H242569   6.424   1.328  14.791
 7052TIP3   OH242570   6.248   0.897  14.842
 7052TIP3    H142571   6.302   0.913  14.763
 7052TIP3    H242572   6.284   0.965  14.904
 7053TIP3   OH242573   6.880   1.458  14.912
 7053TIP3    H142574   6.861   1.521  14.982
 7053TIP3    H242575   6.863   1.371  14.956
 7054TIP3   OH242576   6.342   1.342  15.313
 7054TIP3    H142577   6.300   1.416  15.362
 7054TIP3    H242578   6.275   1.322  15.243
 7055TIP3   OH242579   6.939   0.877  14.053
 7055TIP3    H142580   6.995   0.899  14.132
 7055TIP3    H242581   6.979   0.929  13.981
 7056TIP3   OH242582   6.036   0.959  15.228
 7056TIP3    H142583   6.041   1.025  15.299
 7056TIP3    H242584   5.942   0.967  15.207
 7057TIP3   OH242585   6.710   1.551  14.398
 7057TIP3    H142586   6.754   1.581  14.479
 7057TIP3    H242587   6.655   1.626  14.375
 7058TIP3   OH242588   6.167   1.546  15.387
 7058TIP3    H142589   6.160   1.536  15.291
 7058TIP3    H242590   6.074   1.532  15.414
 7059TIP3   OH242591   6.111   0.924  14.240
 7059TIP3    H142592   6.084   1.004  14.190
 7059TIP3    H242593   6.043   0.861  14.215
 7060TIP3   OH242594   5.719   1.170  15.129
 7060TIP3    H142595   5.675   1.162  15.042
 7060TIP3    H242596   5.728   1.075  15.150
 7061TIP3   OH242597   5.695   1.444  14.806
 7061TIP3    H142598   5.791   1.432  14.804
 7061TIP3    H242599   5.687   1.525  14.857
 7062TIP3   OH242600   6.615   1.468  15.262
 7062TIP3    H142601   6.621   1.552  15.314
 7062TIP3    H242602   6.528   1.432  15.286
 7063TIP3   OH242603   6.663   1.842  14.241
 7063TIP3    H142604   6.650   1.834  14.144
 7063TIP3    H242605   6.661   1.939  14.255
 7064TIP3   OH242606   6.023   1.730  14.423
 7064TIP3    H142607   6.038   1.688  14.510
 7064TIP3    H242608   5.938   1.689  14.399
 7065TIP3   OH242609   6.959   1.760  13.937
 7065TIP3    H142610   7.012   1.690  13.893
 7065TIP3    H242611   6.971   1.737  14.031
 7066TIP3   OH242612   6.932   1.757  14.219
 7066TIP3    H142613   6.836   1.764  14.235
 7066TIP3    H242614   6.956   1.681  14.274
 7067TIP3   OH242615   7.188   0.681  15.423
 7067TIP3    H142616   7.178   0.712  15.333
 7067TIP3    H242617   7.237   0.596  15.409
 7068TIP3   OH242618   5.948   1.301  15.223
 7068TIP3    H142619   5.970   1.265  15.311
 7068TIP3    H242620   5.861   1.262  15.201
 7069TIP3   OH242621   6.214   0.145  14.821
 7069TIP3    H142622   6.125   0.139  14.781
 7069TIP3    H242623   6.203   0.231  14.865
 7070TIP3   OH242624   6.678   0.118  15.159
 7070TIP3    H142625   6.721   0.076  15.234
 7070TIP3    H242626   6.583   0.107  15.175
 7071TIP3   OH242627   7.002   0.492  15.239
 7071TIP3    H142628   6.951   0.480  15.322
 7071TIP3    H242629   6.996   0.588  15.223
 7072TIP3   OH242630   7.091   0.969  13.835
 7072TIP3    H142631   7.082   0.960  13.737
 7072TIP3    H242632   7.165   1.030  13.837
 7073TIP3   OH242633   6.646   0.373  13.885
 7073TIP3    H142634   6.613   0.365  13.975
 7073TIP3    H242635   6.613   0.287  13.853
 7074TIP3   OH242636   6.227   0.646  14.942
 7074TIP3    H142637   6.153   0.645  15.006
 7074TIP3    H242638   6.221   0.738  14.907
 7075TIP3   OH242639   6.229   0.653  14.427
 7075TIP3    H142640   6.132   0.636  14.419
 7075TIP3    H242641   6.253   0.629  14.335
 7076TIP3   OH242642   6.771   0.708  14.306
 7076TIP3    H142643   6.736   0.792  14.269
 7076TIP3    H242644   6.843   0.692  14.243
 7077TIP3   OH242645   6.680   0.730  15.450
 7077TIP3    H142646   6.630   0.651  15.480
 7077TIP3    H242647   6.765   0.718  15.495
 7078TIP3   OH242648   6.868   0.658  14.592
 7078TIP3    H142649   6.856   0.715  14.515
 7078TIP3    H242650   6.890   0.574  14.548
 7079TIP3   OH242651   5.988   0.673  15.110
 7079TIP3    H142652   5.997   0.712  15.199
 7079TIP3    H242653   5.944   0.589  15.130
 7080TIP3   OH242654   6.325   0.413  13.798
 7080TIP3    H142655   6.279   0.369  13.871
 7080TIP3    H242656   6.255   0.452  13.745
 7081TIP3   OH242657   5.654   0.382  14.508
 7081TIP3    H142658   5.723   0.384  14.579
 7081TIP3    H242659   5.703   0.349  14.431
 7082TIP3   OH242660   5.781   0.456  14.048
 7082TIP3    H142661   5.832   0.514  13.988
 7082TIP3    H242662   5.711   0.518  14.076
 7083TIP3   OH242663   6.796   0.815  15.045
 7083TIP3    H142664   6.835   0.745  14.988
 7083TIP3    H242665   6.750   0.763  15.113
 7084TIP3   OH242666   6.477   0.415  14.532
 7084TIP3    H142667   6.384   0.402  14.564
 7084TIP3    H242668   6.529   0.390  14.612
 7085TIP3   OH242669   5.961   0.569  14.416
 7085TIP3    H142670   5.871   0.584  14.378
 7085TIP3    H242671   5.986   0.484  14.376
 7086TIP3   OH242672   6.325   0.580  14.188
 7086TIP3    H142673   6.422   0.582  14.184
 7086TIP3    H242674   6.297   0.639  14.114
 7087TIP3   OH242675   6.911   0.336  14.855
 7087TIP3    H142676   6.843   0.343  14.925
 7087TIP3    H242677   6.864   0.309  14.775
 7088TIP3   OH242678   6.196   0.689  13.940
 7088TIP3    H142679   6.140   0.653  13.868
 7088TIP3    H242680   6.276   0.712  13.890
 7089TIP3   OH242681   7.227   1.906  15.491
 7089TIP3    H142682   7.261   1.938  15.406
 7089TIP3    H242683   7.302   1.931  15.546
 7090TIP3   OH242684   6.007   1.147  15.445
 7090TIP3    H142685   6.078   1.173  15.507
 7090TIP3    H242686   5.929   1.156  15.503
 7091TIP3   OH242687   6.597   0.679  14.710
 7091TIP3    H142688   6.674   0.635  14.671
 7091TIP3    H242689   6.593   0.638  14.798
 7092TIP3   OH242690   6.107   0.307  14.365
 7092TIP3    H142691   6.072   0.216  14.366
 7092TIP3    H242692   6.182   0.295  14.306
 7093TIP3   OH242693   6.472   0.528  14.959
 7093TIP3    H142694   6.386   0.575  14.972
 7093TIP3    H242695   6.526   0.557  15.035
 7094TIP3   OH242696   6.529   1.144  14.130
 7094TIP3    H142697   6.449   1.098  14.096
 7094TIP3    H242698   6.506   1.159  14.224
 7095TIP3   OH242699   7.216   1.067  15.010
 7095TIP3    H142700   7.289   1.079  14.945
 7095TIP3    H242701   7.139   1.067  14.949
 7096TIP3   OH242702   6.914   0.426  13.952
 7096TIP3    H142703   6.820   0.439  13.930
 7096TIP3    H242704   6.942   0.514  13.983
 7097TIP3   OH242705   6.679   1.170  15.254
 7097TIP3    H142706   6.643   1.128  15.333
 7097TIP3    H242707   6.655   1.263  15.265
 7098TIP3   OH242708   6.985   0.620  14.109
 7098TIP3    H142709   7.072   0.605  14.151
 7098TIP3    H242710   6.996   0.703  14.059
 7099TIP3   OH242711   6.040   1.084  14.710
 7099TIP3    H142712   6.108   1.075  14.640
 7099TIP3    H242713   6.046   0.998  14.756
 7100TIP3   OH242714   6.736   1.291  14.034
 7100TIP3    H142715   6.704   1.376  14.070
 7100TIP3    H242716   6.664   1.229  14.056
 7101TIP3   OH242717   5.738   0.924  15.237
 7101TIP3    H142718   5.756   0.879  15.322
 7101TIP3    H242719   5.677   0.863  15.192
 7102TIP3   OH242720   6.439   0.880  15.455
 7102TIP3    H142721   6.408   0.849  15.369
 7102TIP3    H242722   6.532   0.848  15.454
 7103TIP3   OH242723   6.908   1.412  15.249
 7103TIP3    H142724   6.816   1.430  15.225
 7103TIP3    H242725   6.906   1.442  15.342
 7104TIP3   OH242726   7.019   0.993  14.839
 7104TIP3    H142727   6.926   0.972  14.825
 7104TIP3    H242728   7.068   0.920  14.797
 7105TIP3   OH242729   6.277   1.429  14.449
 7105TIP3    H142730   6.327   1.510  14.428
 7105TIP3    H242731   6.189   1.452  14.416
 7106TIP3   OH242732   5.854   0.913  13.906
 7106TIP3    H142733   5.912   0.979  13.947
 7106TIP3    H242734   5.765   0.944  13.931
 7107TIP3   OH242735   6.418   1.195  14.400
 7107TIP3    H142736   6.388   1.287  14.409
 7107TIP3    H242737   6.346   1.148  14.445
 7108TIP3   OH242738   6.463   1.614  15.042
 7108TIP3    H142739   6.510   1.694  15.013
 7108TIP3    H242740   6.525   1.580  15.108
 7109TIP3   OH242741   6.286   1.694  14.353
 7109TIP3    H142742   6.190   1.709  14.366
 7109TIP3    H242743   6.323   1.778  14.387
 7110TIP3   OH242744   6.818   1.214  15.004
 7110TIP3    H142745   6.784   1.194  15.094
 7110TIP3    H242746   6.882   1.143  14.987
 7111TIP3   OH242747   7.047   1.314  13.911
 7111TIP3    H142748   7.081   1.277  13.995
 7111TIP3    H242749   6.952   1.303  13.921
 7112TIP3   OH242750   7.098   1.669  15.251
 7112TIP3    H142751   7.026   1.623  15.204
 7112TIP3    H242752   7.119   1.741  15.187
 7113TIP3   OH242753   5.903   0.397  15.196
 7113TIP3    H142754   5.813   0.432  15.186
 7113TIP3    H242755   5.890   0.307  15.230
 7114TIP3   OH242756   7.128   1.180  14.135
 7114TIP3    H142757   7.105   1.103  14.191
 7114TIP3    H242758   7.222   1.192  14.157
 7115TIP3   OH242759   5.865   1.575  15.034
 7115TIP3    H142760   5.895   1.483  15.035
 7115TIP3    H242761   5.891   1.605  15.122
 7116TIP3   OH242762   6.463   1.428  13.762
 7116TIP3    H142763   6.473   1.352  13.703
 7116TIP3    H242764   6.418   1.385  13.838
 7117TIP3   OH242765   6.340   1.381  14.007
 7117TIP3    H142766   6.367   1.330  14.084
 7117TIP3    H242767   6.349   1.474  14.039
 7118TIP3   OH242768   5.994   1.106  14.056
 7118TIP3    H142769   5.923   1.145  14.109
 7118TIP3    H242770   6.045   1.184  14.026
 7119TIP3   OH242771   6.775   0.374  15.088
 7119TIP3    H142772   6.851   0.379  15.148
 7119TIP3    H242773   6.740   0.285  15.106
 7120TIP3   OH242774   6.854   0.335  14.200
 7120TIP3    H142775   6.876   0.376  14.113
 7120TIP3    H242776   6.913   0.382  14.260
 7121TIP3   OH242777   6.620   1.548  14.077
 7121TIP3    H142778   6.539   1.601  14.084
 7121TIP3    H242779   6.674   1.602  14.018
 7122TIP3   OH242780   6.573   0.512  14.277
 7122TIP3    H142781   6.659   0.561  14.276
 7122TIP3    H242782   6.568   0.469  14.363
 7123TIP3   OH242783   6.633   0.610  15.197
 7123TIP3    H142784   6.641   0.665  15.277
 7123TIP3    H242785   6.698   0.538  15.206
 7124TIP3   OH242786   6.655   0.215  14.366
 7124TIP3    H142787   6.631   0.277  14.436
 7124TIP3    H242788   6.728   0.264  14.322
 7125TIP3   OH242789   6.360   1.651  14.079
 7125TIP3    H142790   6.371   1.732  14.024
 7125TIP3    H242791   6.333   1.687  14.166
 7126TIP3   OH242792   6.223   0.322  14.037
 7126TIP3    H142793   6.217   0.412  14.074
 7126TIP3    H242794   6.316   0.301  14.060
 7127TIP3   OH242795   7.237   0.376  15.267
 7127TIP3    H142796   7.152   0.426  15.264
 7127TIP3    H242797   7.275   0.396  15.181
 7128TIP3   OH242798   7.108   0.775  14.687
 7128TIP3    H142799   7.026   0.731  14.656
 7128TIP3    H242800   7.151   0.704  14.734
 7129TIP3   OH242801   6.048   1.367  13.942
 7129TIP3    H142802   6.115   1.430  13.973
 7129TIP3    H242803   6.100   1.321  13.873
 7130TIP3   OH242804   5.882   0.636  13.858
 7130TIP3    H142805   5.884   0.732  13.877
 7130TIP3    H242806   5.794   0.617  13.825
 7131TIP3   OH242807   7.222   1.704  14.848
 7131TIP3    H142808   7.206   1.771  14.779
 7131TIP3    H242809   7.316   1.712  14.865
 7132TIP3   OH242810   5.941   0.129  14.736
 7132TIP3    H142811   5.947   0.119  14.638
 7132TIP3    H242812   5.926   0.037  14.758
 7133TIP3   OH242813   5.860   1.505  14.345
 7133TIP3    H142814   5.775   1.550  14.340
 7133TIP3    H242815   5.908   1.552  14.275
 7134TIP3   OH242816   5.779   1.771  15.474
 7134TIP3    H142817   5.840   1.751  15.548
 7134TIP3    H242818   5.739   1.684  15.456
 7135TIP3   OH242819   6.246   1.657  15.636
 7135TIP3    H142820   6.326   1.612  15.667
 7135TIP3    H242821   6.245   1.634  15.541
 7136TIP3   OH242822   6.663   1.613  13.774
 7136TIP3    H142823   6.593   1.548  13.797
 7136TIP3    H242824   6.735   1.553  13.750
 7137TIP3   OH242825   6.904   1.499  15.507
 7137TIP3    H142826   6.869   1.413  15.537
 7137TIP3    H242827   6.981   1.511  15.566
 7138TIP3   OH242828   7.099   1.567  13.782
 7138TIP3    H142829   7.145   1.511  13.845
 7138TIP3    H242830   7.179   1.617  13.750
 7139TIP3   OH242831   5.770   1.145  15.571
 7139TIP3    H142832   5.789   1.055  15.539
 7139TIP3    H242833   5.698   1.173  15.513
 7140TIP3   OH242834   6.206   1.182  13.774
 7140TIP3    H142835   6.220   1.106  13.833
 7140TIP3    H242836   6.281   1.170  13.713
 7141TIP3   OH242837   6.443   1.145  15.511
 7141TIP3    H142838   6.410   1.178  15.425
 7141TIP3    H242839   6.450   1.048  15.500
 7142TIP3   OH242840   6.748   1.293  13.752
 7142TIP3    H142841   6.722   1.301  13.845
 7142TIP3    H242842   6.730   1.197  13.738
 7143TIP3   OH242843   7.010   1.128  15.250
 7143TIP3    H142844   7.088   1.188  15.245
 7143TIP3    H242845   6.942   1.197  15.255
 7144TIP3   OH242846   5.861   0.871  15.511
 7144TIP3    H142847   5.906   0.787  15.501
 7144TIP3    H242848   5.841   0.872  15.606
 7145TIP3   OH242849   6.328   0.984  14.017
 7145TIP3    H142850   6.276   0.930  14.079
 7145TIP3    H242851   6.356   0.917  13.950
 7146TIP3   OH242852   6.253   0.764  15.246
 7146TIP3    H142853   6.194   0.836  15.272
 7146TIP3    H242854   6.293   0.801  15.166
 7147TIP3   OH242855   6.433   0.808  13.837
 7147TIP3    H142856   6.419   0.797  13.741
 7147TIP3    H242857   6.531   0.811  13.844
 7148TIP3   OH242858   6.759   1.024  15.584
 7148TIP3    H142859   6.854   1.020  15.566
 7148TIP3    H242860   6.745   0.944  15.638
 7149TIP3   OH242861   6.295   0.503  15.350
 7149TIP3    H142862   6.306   0.431  15.286
 7149TIP3    H242863   6.290   0.584  15.295
 7150TIP3   OH242864   6.334   0.343  15.104
 7150TIP3    H142865   6.386   0.389  15.034
 7150TIP3    H242866   6.245   0.332  15.063
 7151TIP3   OH242867   6.488   0.889  15.132
 7151TIP3    H142868   6.563   0.873  15.075
 7151TIP3    H242869   6.452   0.973  15.098
 7152TIP3   OH242870   6.933   0.666  15.630
 7152TIP3    H142871   6.955   0.572  15.618
 7152TIP3    H242872   7.019   0.708  15.625
 7153TIP3   OH242873   7.063   0.949  15.445
 7153TIP3    H142874   7.034   1.017  15.380
 7153TIP3    H242875   7.155   0.936  15.423
 7154TIP3   OH242876   6.142   0.624  15.547
 7154TIP3    H142877   6.064   0.573  15.524
 7154TIP3    H242878   6.207   0.594  15.480
 7155TIP3   OH242879   6.399   0.104  15.174
 7155TIP3    H142880   6.393   0.198  15.144
 7155TIP3    H242881   6.341   0.062  15.108
 7156TIP3   OH242882   6.537   0.520  15.507
 7156TIP3    H142883   6.510   0.490  15.595
 7156TIP3    H242884   6.461   0.496  15.452
 7157TIP3   OH242885   6.809   0.433  15.418
 7157TIP3    H142886   6.713   0.434  15.432
 7157TIP3    H242887   6.842   0.370  15.485
 7158TIP3   OH242888   6.972   0.303  15.612
 7158TIP3    H142889   6.962   0.205  15.611
 7158TIP3    H242890   6.942   0.326  15.703
 7159TIP3   OH242891   5.940   0.414  15.520
 7159TIP3    H142892   5.985   0.350  15.461
 7159TIP3    H242893   5.954   0.379  15.610
 7160TIP3   OH242894   6.433   7.324  15.419
 7160TIP3    H142895   6.502   7.257  15.424
 7160TIP3    H242896   6.423   7.345  15.324
 7161TIP3   OH242897   6.472   0.190  15.623
 7161TIP3    H142898   6.455   0.134  15.544
 7161TIP3    H242899   6.411   0.265  15.615
 7162TIP3   OH242900   6.418   1.876  13.945
 7162TIP3    H142901   6.515   1.885  13.952
 7162TIP3    H242902   6.403   1.936  13.871
 7163TIP3   OH242903   5.773   1.333  13.892
 7163TIP3    H142904   5.870   1.343  13.910
 7163TIP3    H242905   5.778   1.269  13.817
 7164TIP3   OH242906   5.652   1.871  14.388
 7164TIP3    H142907   5.579   1.823  14.343
 7164TIP3    H242908   5.679   1.806  14.455
 7165TIP3   OH242909   5.733   1.686  14.576
 7165TIP3    H142910   5.698   1.598  14.596
 7165TIP3    H242911   5.758   1.718  14.665
 7166TIP3   OH242912   7.280   1.491  15.094
 7166TIP3    H142913   7.214   1.534  15.150
 7166TIP3    H242914   7.227   1.454  15.020
 7167TIP3   OH242915   7.187   0.791  14.428
 7167TIP3    H142916   7.214   0.699  14.432
 7167TIP3    H242917   7.199   0.817  14.522
 7168TIP3   OH242918   5.739   0.994  14.826
 7168TIP3    H142919   5.757   0.985  14.730
 7168TIP3    H242920   5.829   0.976  14.861
 7169TIP3   OH242921   7.245   0.388  13.769
 7169TIP3    H142922   7.305   0.347  13.831
 7169TIP3    H242923   7.159   0.345  13.786
 7170TIP3   OH242924   7.202   0.536  14.249
 7170TIP3    H142925   7.232   0.453  14.290
 7170TIP3    H242926   7.286   0.573  14.219
 7171TIP3   OH242927  -0.055   0.515  14.807
 7171TIP3    H142928   0.035   0.548  14.796
 7171TIP3    H242929  -0.074   0.576  14.880
 7172TIP3   OH242930   7.280   0.677  15.116
 7172TIP3    H142931   7.185   0.701  15.122
 7172TIP3    H242932   7.313   0.743  15.052
 7173TIP3   OH242933   5.701   0.522  15.437
 7173TIP3    H142934   5.795   0.507  15.458
 7173TIP3    H242935   5.651   0.445  15.467
 7174TIP3   OH242936   7.182   0.239  14.336
 7174TIP3    H142937   7.275   0.226  14.358
 7174TIP3    H242938   7.184   0.198  14.246
 7175TIP3   OH242939   5.818   0.358  14.722
 7175TIP3    H142940   5.861   0.273  14.749
 7175TIP3    H242941   5.875   0.422  14.765
 7176TIP3   OH242942   5.649   0.654  14.831
 7176TIP3    H142943   5.706   0.628  14.755
 7176TIP3    H242944   5.696   0.734  14.856
 7177TIP3   OH242945   5.683   0.273  14.239
 7177TIP3    H142946   5.592   0.299  14.219
 7177TIP3    H242947   5.729   0.323  14.168
 7178TIP3   OH242948   7.141   1.755  14.441
 7178TIP3    H142949   7.208   1.723  14.378
 7178TIP3    H242950   7.193   1.813  14.498
 7179TIP3   OH242951   5.682   0.154  15.072
 7179TIP3    H142952   5.611   0.126  15.131
 7179TIP3    H242953   5.634   0.210  15.007
 7180TIP3   OH242954   5.905   1.466  15.483
 7180TIP3    H142955   5.820   1.486  15.440
 7180TIP3    H242956   5.877   1.458  15.575
 7181TIP3   OH242957   6.194   1.565  15.111
 7181TIP3    H142958   6.162   1.651  15.083
 7181TIP3    H242959   6.287   1.573  15.080
 7182TIP3   OH242960   6.627   1.706  15.401
 7182TIP3    H142961   6.640   1.672  15.493
 7182TIP3    H242962   6.717   1.737  15.378
 7183TIP3   OH242963   6.858   1.833  15.333
 7183TIP3    H142964   6.932   1.776  15.309
 7183TIP3    H242965   6.896   1.878  15.411
 7184TIP3   OH242966   5.937   1.888  15.110
 7184TIP3    H142967   5.864   1.938  15.070
 7184TIP3    H242968   5.906   1.869  15.200
 7185TIP3   OH242969   6.184   1.846  15.017
 7185TIP3    H142970   6.095   1.861  15.057
 7185TIP3    H242971   6.178   1.905  14.940
 7186TIP3   OH242972   6.651   1.835  14.935
 7186TIP3    H142973   6.608   1.893  14.869
 7186TIP3    H242974   6.667   1.899  15.008
 7187TIP3   OH242975   6.883   1.717  15.037
 7187TIP3    H142976   6.797   1.745  15.000
 7187TIP3    H242977   6.929   1.803  15.030
 7188TIP3   OH242978   7.128   1.875  15.058
 7188TIP3    H142979   7.127   1.970  15.037
 7188TIP3    H242980   7.162   1.838  14.975
 7189TIP3   OH242981   5.883   1.753  14.804
 7189TIP3    H142982   5.875   1.707  14.890
 7189TIP3    H242983   5.965   1.715  14.765
 7190TIP3   OH242984   6.090   1.624  14.670
 7190TIP3    H142985   6.074   1.531  14.693
 7190TIP3    H242986   6.176   1.640  14.715
 7191TIP3   OH242987   6.348   1.672  14.757
 7191TIP3    H142988   6.366   1.580  14.731
 7191TIP3    H242989   6.355   1.667  14.853
 7192TIP3   OH242990   6.679   0.245  14.665
 7192TIP3    H142991   6.626   0.171  14.699
 7192TIP3    H242992   6.753   0.195  14.623
 7193TIP3   OH242993   7.210   0.047  14.685
 7193TIP3    H142994   7.270   0.101  14.634
 7193TIP3    H242995   7.123   0.079  14.661
 7194TIP3   OH242996   5.929   0.103  14.460
 7194TIP3    H142997   5.855   0.079  14.403
 7194TIP3    H242998   5.980   0.020  14.462
 7195TIP3   OH242999   5.811   0.076  14.031
 7195TIP3    H143000   5.855   0.139  13.972
 7195TIP3    H243001   5.749   0.133  14.076
 7196TIP3   OH243002   6.385   0.092  14.434
 7196TIP3    H143003   6.474   0.129  14.430
 7196TIP3    H243004   6.376   0.069  14.527
 7197TIP3   OH243005   6.920   0.130  14.612
 7197TIP3    H143006   6.941   0.129  14.518
 7197TIP3    H243007   6.915   0.032  14.625
 7198TIP3   OH243008   7.076   0.092  14.153
 7198TIP3    H143009   7.003   0.155  14.147
 7198TIP3    H243010   7.034   0.010  14.182
 7199TIP3   OH243011   5.801   1.670  14.131
 7199TIP3    H143012   5.736   1.669  14.059
 7199TIP3    H243013   5.801   1.766  14.148
 7200TIP3   OH243014   5.990   0.262  13.882
 7200TIP3    H143015   6.047   0.208  13.825
 7200TIP3    H243016   6.055   0.301  13.943
 7201TIP3   OH243017   6.487   0.294  14.125
 7201TIP3    H143018   6.524   0.236  14.194
 7201TIP3    H243019   6.504   0.381  14.166
 7202TIP3   OH243020   6.688   1.802  13.964
 7202TIP3    H143021   6.781   1.823  13.942
 7202TIP3    H243022   6.667   1.749  13.884
 7203TIP3   OH243023   5.904   0.156  15.402
 7203TIP3    H143024   5.884   0.068  15.436
 7203TIP3    H243025   6.001   0.154  15.428
 7204TIP3   OH243026   6.095   0.113  15.554
 7204TIP3    H143027   6.190   0.093  15.540
 7204TIP3    H243028   6.082   0.028  15.601
 7205TIP3   OH243029   5.981   1.769  13.825
 7205TIP3    H143030   5.955   1.795  13.915
 7205TIP3    H243031   6.059   1.713  13.841
 7206TIP3   OH243032   6.960   7.359  15.572
 7206TIP3    H143033   6.962   7.303  15.652
 7206TIP3    H243034   7.048   7.337  15.538
 7207TIP3   OH243035   7.264   1.615  15.456
 7207TIP3    H143036   7.197   1.609  15.384
 7207TIP3    H243037   7.263   1.713  15.466
 7208TIP3   OH243038   1.184   2.900  14.442
 7208TIP3    H143039   1.184   2.998  14.439
 7208TIP3    H243040   1.112   2.876  14.381
 7209TIP3   OH243041   1.068   2.826  14.793
 7209TIP3    H143042   1.069   2.760  14.864
 7209TIP3    H243043   1.038   2.774  14.716
 7210TIP3   OH243044   0.311   2.792  14.943
 7210TIP3    H143045   0.317   2.724  15.014
 7210TIP3    H243046   0.381   2.852  14.971
 7211TIP3   OH243047   1.440   3.119  14.619
 7211TIP3    H143048   1.398   3.048  14.669
 7211TIP3    H243049   1.443   3.189  14.687
 7212TIP3   OH243050   0.398   3.236  14.799
 7212TIP3    H143051   0.367   3.150  14.764
 7212TIP3    H243052   0.494   3.219  14.801
 7213TIP3   OH243053   0.090   2.593  14.304
 7213TIP3    H143054   0.045   2.672  14.342
 7213TIP3    H243055   0.010   2.539  14.303
 7214TIP3   OH243056   0.130   2.809  14.556
 7214TIP3    H143057   0.160   2.733  14.608
 7214TIP3    H243058   0.204   2.826  14.496
 7215TIP3   OH243059   1.151   3.636  14.644
 7215TIP3    H143060   1.216   3.567  14.615
 7215TIP3    H243061   1.130   3.603  14.731
 7216TIP3   OH243062   0.908   3.065  14.839
 7216TIP3    H143063   0.942   3.002  14.773
 7216TIP3    H243064   0.989   3.081  14.890
 7217TIP3   OH243065   1.768   2.231  14.911
 7217TIP3    H143066   1.786   2.290  14.988
 7217TIP3    H243067   1.824   2.274  14.844
 7218TIP3   OH243068   1.225   2.512  14.870
 7218TIP3    H143069   1.242   2.416  14.869
 7218TIP3    H243070   1.215   2.527  14.774
 7219TIP3   OH243071   0.537   2.321  14.593
 7219TIP3    H143072   0.548   2.404  14.542
 7219TIP3    H243073   0.498   2.263  14.523
 7220TIP3   OH243074   1.309   2.328  14.429
 7220TIP3    H143075   1.376   2.298  14.496
 7220TIP3    H243076   1.366   2.387  14.376
 7221TIP3   OH243077   0.195   2.553  14.659
 7221TIP3    H143078   0.268   2.507  14.706
 7221TIP3    H243079   0.214   2.526  14.569
 7222TIP3   OH243080   0.714   2.717  14.597
 7222TIP3    H143081   0.782   2.659  14.637
 7222TIP3    H243082   0.663   2.651  14.546
 7223TIP3   OH243083   1.813   2.370  15.140
 7223TIP3    H143084   1.753   2.447  15.127
 7223TIP3    H243085   1.816   2.363  15.236
 7224TIP3   OH243086   0.431   2.211  14.995
 7224TIP3    H143087   0.400   2.268  14.921
 7224TIP3    H243088   0.363   2.233  15.062
 7225TIP3   OH243089   1.155   3.159  14.351
 7225TIP3    H143090   1.130   3.132  14.262
 7225TIP3    H243091   1.125   3.253  14.355
 7226TIP3   OH243092   0.681   2.975  15.020
 7226TIP3    H143093   0.609   3.039  15.041
 7226TIP3    H243094   0.750   3.036  14.990
 7227TIP3   OH243095   1.486   2.263  14.631
 7227TIP3    H143096   1.470   2.185  14.683
 7227TIP3    H243097   1.558   2.307  14.680
 7228TIP3   OH243098   0.382   2.395  14.799
 7228TIP3    H143099   0.444   2.464  14.832
 7228TIP3    H243100   0.437   2.356  14.726
 7229TIP3   OH243101   0.522   3.174  15.100
 7229TIP3    H143102   0.518   3.266  15.068
 7229TIP3    H243103   0.434   3.166  15.145
 7230TIP3   OH243104   0.128   3.140  14.176
 7230TIP3    H143105   0.108   3.174  14.087
 7230TIP3    H243106   0.139   3.221  14.230
 7231TIP3   OH243107   1.492   3.304  14.857
 7231TIP3    H143108   1.395   3.315  14.869
 7231TIP3    H243109   1.519   3.395  14.837
 7232TIP3   OH243110   1.525   2.132  14.996
 7232TIP3    H143111   1.452   2.195  14.986
 7232TIP3    H243112   1.596   2.174  14.944
 7233TIP3   OH243113   0.821   1.945  14.742
 7233TIP3    H143114   0.808   1.848  14.735
 7233TIP3    H243115   0.733   1.975  14.773
 7234TIP3   OH243116   1.318   3.482  14.516
 7234TIP3    H143117   1.361   3.410  14.465
 7234TIP3    H243118   1.362   3.561  14.476
 7235TIP3   OH243119   1.439   3.277  14.368
 7235TIP3    H143120   1.409   3.206  14.307
 7235TIP3    H243121   1.443   3.227  14.451
 7236TIP3   OH243122   1.601   3.135  15.217
 7236TIP3    H143123   1.616   3.069  15.145
 7236TIP3    H243124   1.622   3.219  15.172
 7237TIP3   OH243125   1.050   2.822  14.193
 7237TIP3    H143126   0.982   2.881  14.156
 7237TIP3    H243127   1.123   2.832  14.128
 7238TIP3   OH243128   1.059   2.680  13.894
 7238TIP3    H143129   1.129   2.678  13.960
 7238TIP3    H243130   1.089   2.608  13.837
 7239TIP3   OH243131   1.790   2.766  15.022
 7239TIP3    H143132   1.724   2.838  15.025
 7239TIP3    H243133   1.840   2.790  14.942
 7240TIP3   OH243134   1.391   2.850  14.281
 7240TIP3    H143135   1.320   2.869  14.346
 7240TIP3    H243136   1.440   2.781  14.333
 7241TIP3   OH243137   1.388   2.661  15.198
 7241TIP3    H143138   1.389   2.743  15.250
 7241TIP3    H243139   1.326   2.690  15.128
 7242TIP3   OH243140   0.559   2.911  14.477
 7242TIP3    H143141   0.524   2.871  14.394
 7242TIP3    H243142   0.619   2.841  14.510
 7243TIP3   OH243143   0.689   3.249  14.745
 7243TIP3    H143144   0.688   3.196  14.664
 7243TIP3    H243145   0.767   3.213  14.791
 7244TIP3   OH243146   0.593   2.784  14.843
 7244TIP3    H143147   0.646   2.796  14.762
 7244TIP3    H243148   0.629   2.853  14.904
 7245TIP3   OH243149   1.231   3.342  14.914
 7245TIP3    H143150   1.202   3.406  14.980
 7245TIP3    H243151   1.205   3.257  14.956
 7246TIP3   OH243152   0.685   3.228  15.313
 7246TIP3    H143153   0.644   3.302  15.362
 7246TIP3    H243154   0.618   3.208  15.243
 7247TIP3   OH243155   1.284   2.765  14.052
 7247TIP3    H143156   1.340   2.781  14.132
 7247TIP3    H243157   1.329   2.815  13.980
 7248TIP3   OH243158   0.379   2.845  15.230
 7248TIP3    H143159   0.384   2.913  15.300
 7248TIP3    H243160   0.285   2.854  15.208
 7249TIP3   OH243161   1.055   3.437  14.399
 7249TIP3    H143162   1.098   3.467  14.480
 7249TIP3    H243163   0.999   3.512  14.375
 7250TIP3   OH243164   0.510   3.430  15.387
 7250TIP3    H143165   0.502   3.422  15.291
 7250TIP3    H243166   0.416   3.418  15.414
 7251TIP3   OH243167   1.656   1.937  14.043
 7251TIP3    H143168   1.562   1.949  14.066
 7251TIP3    H243169   1.676   2.021  13.998
 7252TIP3   OH243170   0.455   2.812  14.240
 7252TIP3    H143171   0.426   2.890  14.188
 7252TIP3    H243172   0.390   2.745  14.216
 7253TIP3   OH243173   1.767   3.373  13.877
 7253TIP3    H143174   1.784   3.467  13.894
 7253TIP3    H243175   1.859   3.342  13.877
 7254TIP3   OH243176   0.123   3.042  15.103
 7254TIP3    H143177   0.045   3.055  15.044
 7254TIP3    H243178   0.085   2.964  15.149
 7255TIP3   OH243179   0.069   3.353  14.778
 7255TIP3    H143180   0.151   3.312  14.807
 7255TIP3    H243181   0.040   3.399  14.858
 7256TIP3   OH243182   1.862   3.400  15.372
 7256TIP3    H143183   1.851   3.303  15.373
 7256TIP3    H243184   1.776   3.424  15.416
 7257TIP3   OH243185   0.958   3.354  15.262
 7257TIP3    H143186   0.964   3.437  15.314
 7257TIP3    H243187   0.871   3.317  15.286
 7258TIP3   OH243188   1.003   3.728  14.240
 7258TIP3    H143189   0.992   3.720  14.144
 7258TIP3    H243190   1.003   3.824  14.256
 7259TIP3   OH243191   0.365   3.616  14.421
 7259TIP3    H143192   0.380   3.575  14.510
 7259TIP3    H243193   0.282   3.572  14.398
 7260TIP3   OH243194   1.308   3.649  13.939
 7260TIP3    H143195   1.354   3.573  13.895
 7260TIP3    H243196   1.312   3.623  14.033
 7261TIP3   OH243197   1.278   3.642  14.216
 7261TIP3    H143198   1.181   3.650  14.233
 7261TIP3    H243199   1.301   3.568  14.274
 7262TIP3   OH243200   1.578   2.546  15.419
 7262TIP3    H143201   1.528   2.591  15.348
 7262TIP3    H243202   1.575   2.454  15.390
 7263TIP3   OH243203   0.293   3.195  15.229
 7263TIP3    H143204   0.311   3.151  15.314
 7263TIP3    H243205   0.210   3.151  15.201
 7264TIP3   OH243206   0.560   2.036  14.817
 7264TIP3    H143207   0.470   2.023  14.780
 7264TIP3    H243208   0.546   2.118  14.867
 7265TIP3   OH243209   1.024   2.001  15.153
 7265TIP3    H143210   1.063   1.959  15.232
 7265TIP3    H243211   0.927   1.989  15.168
 7266TIP3   OH243212   1.353   2.386  15.244
 7266TIP3    H143213   1.296   2.365  15.322
 7266TIP3    H243214   1.334   2.479  15.221
 7267TIP3   OH243215   1.428   2.868  13.833
 7267TIP3    H143216   1.426   2.849  13.737
 7267TIP3    H243217   1.514   2.912  13.838
 7268TIP3   OH243218   0.988   2.260  13.884
 7268TIP3    H143219   0.956   2.254  13.976
 7268TIP3    H243220   0.957   2.172  13.854
 7269TIP3   OH243221   0.568   2.532  14.942
 7269TIP3    H143222   0.495   2.532  15.008
 7269TIP3    H243223   0.566   2.623  14.906
 7270TIP3   OH243224   0.568   2.544  14.429
 7270TIP3    H143225   0.474   2.519  14.415
 7270TIP3    H243226   0.605   2.514  14.344
 7271TIP3   OH243227   1.118   2.594  14.307
 7271TIP3    H143228   1.078   2.676  14.270
 7271TIP3    H243229   1.188   2.577  14.242
 7272TIP3   OH243230   1.022   2.616  15.450
 7272TIP3    H143231   0.971   2.537  15.480
 7272TIP3    H243232   1.107   2.604  15.495
 7273TIP3   OH243233   1.216   2.542  14.592
 7273TIP3    H143234   1.196   2.600  14.516
 7273TIP3    H243235   1.233   2.459  14.543
 7274TIP3   OH243236   0.333   2.555  15.111
 7274TIP3    H143237   0.335   2.598  15.198
 7274TIP3    H243238   0.284   2.474  15.131
 7275TIP3   OH243239   0.669   2.297  13.796
 7275TIP3    H143240   0.624   2.254  13.872
 7275TIP3    H243241   0.598   2.340  13.747
 7276TIP3   OH243242   0.035   2.300  14.490
 7276TIP3    H143243   0.068   2.265  14.576
 7276TIP3    H243244   0.049   2.225  14.433
 7277TIP3   OH243245   0.123   2.354  14.041
 7277TIP3    H143246   0.179   2.410  13.984
 7277TIP3    H243247   0.050   2.410  14.066
 7278TIP3   OH243248   1.141   2.701  15.046
 7278TIP3    H143249   1.179   2.632  14.988
 7278TIP3    H243250   1.094   2.648  15.113
 7279TIP3   OH243251   0.821   2.299  14.530
 7279TIP3    H143252   0.728   2.299  14.559
 7279TIP3    H243253   0.869   2.282  14.613
 7280TIP3   OH243254   0.303   2.453  14.416
 7280TIP3    H143255   0.216   2.470  14.376
 7280TIP3    H243256   0.327   2.368  14.375
 7281TIP3   OH243257   0.666   2.458  14.179
 7281TIP3    H143258   0.762   2.470  14.195
 7281TIP3    H243259   0.641   2.527  14.115
 7282TIP3   OH243260   1.261   2.222  14.854
 7282TIP3    H143261   1.193   2.227  14.924
 7282TIP3    H243262   1.211   2.197  14.775
 7283TIP3   OH243263   0.538   2.576  13.937
 7283TIP3    H143264   0.484   2.539  13.865
 7283TIP3    H243265   0.620   2.597  13.890
 7284TIP3   OH243266   1.579   3.787  15.489
 7284TIP3    H143267   1.610   3.822  15.403
 7284TIP3    H243268   1.653   3.815  15.546
 7285TIP3   OH243269   0.347   3.031  15.446
 7285TIP3    H143270   0.420   3.058  15.505
 7285TIP3    H243271   0.272   3.044  15.505
 7286TIP3   OH243272   0.948   2.574  14.718
 7286TIP3    H143273   1.010   2.522  14.665
 7286TIP3    H243274   0.935   2.520  14.797
 7287TIP3   OH243275   0.449   2.190  14.362
 7287TIP3    H143276   0.418   2.098  14.362
 7287TIP3    H243277   0.529   2.182  14.308
 7288TIP3   OH243278   0.813   2.407  14.961
 7288TIP3    H143279   0.730   2.459  14.969
 7288TIP3    H243280   0.869   2.443  15.033
 7289TIP3   OH243281   0.872   3.030  14.130
 7289TIP3    H143282   0.792   2.983  14.097
 7289TIP3    H243283   0.850   3.042  14.225
 7290TIP3   OH243284   1.591   2.950  15.010
 7290TIP3    H143285   1.647   2.998  14.946
 7290TIP3    H243286   1.505   2.954  14.963
 7291TIP3   OH243287   1.255   2.311  13.947
 7291TIP3    H143288   1.160   2.326  13.934
 7291TIP3    H243289   1.289   2.396  13.983
 7292TIP3   OH243290   1.021   3.056  15.254
 7292TIP3    H143291   0.986   3.014  15.333
 7292TIP3    H243292   0.996   3.149  15.265
 7293TIP3   OH243293   1.323   2.506  14.106
 7293TIP3    H143294   1.410   2.488  14.150
 7293TIP3    H243295   1.340   2.588  14.058
 7294TIP3   OH243296   0.382   2.969  14.709
 7294TIP3    H143297   0.450   2.961  14.640
 7294TIP3    H243298   0.392   2.885  14.757
 7295TIP3   OH243299   1.081   3.176  14.033
 7295TIP3    H143300   1.047   3.261  14.069
 7295TIP3    H243301   1.008   3.115  14.055
 7296TIP3   OH243302   0.079   2.807  15.236
 7296TIP3    H143303   0.105   2.764  15.320
 7296TIP3    H243304   0.020   2.743  15.194
 7297TIP3   OH243305   0.782   2.765  15.455
 7297TIP3    H143306   0.751   2.735  15.369
 7297TIP3    H243307   0.875   2.734  15.454
 7298TIP3   OH243308   1.252   3.299  15.249
 7298TIP3    H143309   1.159   3.317  15.226
 7298TIP3    H243310   1.248   3.328  15.343
 7299TIP3   OH243311   1.828   2.516  14.079
 7299TIP3    H143312   1.759   2.489  14.016
 7299TIP3    H243313   1.826   2.613  14.064
 7300TIP3   OH243314   1.818   3.103  15.368
 7300TIP3    H143315   1.728   3.125  15.332
 7300TIP3    H243316   1.872   3.098  15.287
 7301TIP3   OH243317   1.644   3.400  14.127
 7301TIP3    H143318   1.611   3.316  14.162
 7301TIP3    H243319   1.680   3.378  14.040
 7302TIP3   OH243320   1.368   2.882  14.839
 7302TIP3    H143321   1.274   2.860  14.828
 7302TIP3    H243322   1.411   2.805  14.794
 7303TIP3   OH243323   0.619   3.315  14.450
 7303TIP3    H143324   0.670   3.395  14.428
 7303TIP3    H243325   0.531   3.338  14.417
 7304TIP3   OH243326   0.192   2.799  13.910
 7304TIP3    H143327   0.256   2.865  13.945
 7304TIP3    H243328   0.106   2.835  13.936
 7305TIP3   OH243329   0.762   3.081  14.399
 7305TIP3    H143330   0.730   3.173  14.410
 7305TIP3    H243331   0.690   3.032  14.445
 7306TIP3   OH243332   0.808   3.499  15.041
 7306TIP3    H143333   0.853   3.580  15.013
 7306TIP3    H243334   0.870   3.465  15.108
 7307TIP3   OH243335   0.629   3.580  14.353
 7307TIP3    H143336   0.533   3.595  14.366
 7307TIP3    H243337   0.666   3.664  14.387
 7308TIP3   OH243338   1.159   3.099  15.003
 7308TIP3    H143339   1.127   3.080  15.094
 7308TIP3    H243340   1.223   3.028  14.987
 7309TIP3   OH243341   1.393   3.208  13.912
 7309TIP3    H143342   1.422   3.160  13.992
 7309TIP3    H243343   1.298   3.189  13.920
 7310TIP3   OH243344   1.440   3.559  15.253
 7310TIP3    H143345   1.373   3.507  15.205
 7310TIP3    H243346   1.459   3.626  15.185
 7311TIP3   OH243347   1.839   3.642  13.938
 7311TIP3    H143348   1.908   3.709  13.917
 7311TIP3    H243349   1.768   3.703  13.966
 7312TIP3   OH243350   0.248   2.283  15.188
 7312TIP3    H143351   0.159   2.321  15.194
 7312TIP3    H243352   0.234   2.198  15.233
 7313TIP3   OH243353   1.471   3.070  14.136
 7313TIP3    H143354   1.447   2.991  14.189
 7313TIP3    H243355   1.566   3.075  14.154
 7314TIP3   OH243356   0.225   3.467  15.029
 7314TIP3    H143357   0.237   3.371  15.035
 7314TIP3    H243358   0.234   3.490  15.122
 7315TIP3   OH243359   0.806   3.314  13.762
 7315TIP3    H143360   0.816   3.238  13.703
 7315TIP3    H243361   0.762   3.271  13.838
 7316TIP3   OH243362   0.683   3.267  14.007
 7316TIP3    H143363   0.710   3.215  14.084
 7316TIP3    H243364   0.692   3.359  14.039
 7317TIP3   OH243365   0.332   2.991  14.055
 7317TIP3    H143366   0.261   3.030  14.110
 7317TIP3    H243367   0.385   3.069  14.027
 7318TIP3   OH243368   1.120   2.260  15.087
 7318TIP3    H143369   1.193   2.266  15.150
 7318TIP3    H243370   1.082   2.172  15.107
 7319TIP3   OH243371   1.195   2.217  14.196
 7319TIP3    H143372   1.218   2.263  14.113
 7319TIP3    H243373   1.254   2.262  14.259
 7320TIP3   OH243374   0.964   3.433  14.077
 7320TIP3    H143375   0.882   3.486  14.084
 7320TIP3    H243376   1.017   3.488  14.018
 7321TIP3   OH243377   0.919   2.393  14.278
 7321TIP3    H143378   0.997   2.451  14.283
 7321TIP3    H243379   0.891   2.380  14.371
 7322TIP3   OH243380   0.974   2.496  15.197
 7322TIP3    H143381   0.981   2.550  15.278
 7322TIP3    H243382   1.039   2.425  15.207
 7323TIP3   OH243383   1.003   2.098  14.366
 7323TIP3    H143384   0.970   2.162  14.431
 7323TIP3    H243385   1.072   2.153  14.322
 7324TIP3   OH243386   0.704   3.536  14.079
 7324TIP3    H143387   0.713   3.617  14.024
 7324TIP3    H243388   0.676   3.573  14.166
 7325TIP3   OH243389   0.569   2.208  14.037
 7325TIP3    H143390   0.563   2.298  14.076
 7325TIP3    H243391   0.660   2.184  14.064
 7326TIP3   OH243392   1.591   2.282  15.283
 7326TIP3    H143393   1.498   2.313  15.269
 7326TIP3    H243394   1.621   2.280  15.190
 7327TIP3   OH243395   1.447   2.662  14.696
 7327TIP3    H143396   1.373   2.616  14.652
 7327TIP3    H243397   1.501   2.590  14.733
 7328TIP3   OH243398   0.390   3.254  13.941
 7328TIP3    H143399   0.457   3.317  13.972
 7328TIP3    H243400   0.443   3.206  13.874
 7329TIP3   OH243401   0.221   2.519  13.855
 7329TIP3    H143402   0.228   2.614  13.875
 7329TIP3    H243403   0.133   2.502  13.821
 7330TIP3   OH243404   1.557   3.590  14.852
 7330TIP3    H143405   1.549   3.654  14.779
 7330TIP3    H243406   1.654   3.592  14.867
 7331TIP3   OH243407   0.311   1.997  14.728
 7331TIP3    H143408   0.289   2.001  14.633
 7331TIP3    H243409   0.266   1.914  14.755
 7332TIP3   OH243410   0.205   3.391  14.347
 7332TIP3    H143411   0.119   3.434  14.341
 7332TIP3    H243412   0.252   3.437  14.276
 7333TIP3   OH243413   0.157   3.659  15.471
 7333TIP3    H143414   0.196   3.636  15.557
 7333TIP3    H243415   0.103   3.579  15.455
 7334TIP3   OH243416   0.589   3.543  15.636
 7334TIP3    H143417   0.668   3.497  15.667
 7334TIP3    H243418   0.588   3.520  15.542
 7335TIP3   OH243419   1.005   3.499  13.774
 7335TIP3    H143420   0.936   3.433  13.797
 7335TIP3    H243421   1.077   3.439  13.749
 7336TIP3   OH243422   1.241   3.386  15.506
 7336TIP3    H143423   1.209   3.298  15.536
 7336TIP3    H243424   1.319   3.398  15.563
 7337TIP3   OH243425   1.461   3.473  13.793
 7337TIP3    H143426   1.491   3.396  13.843
 7337TIP3    H243427   1.537   3.496  13.738
 7338TIP3   OH243428   0.107   3.030  15.572
 7338TIP3    H143429   0.134   2.944  15.535
 7338TIP3    H243430   0.041   3.061  15.510
 7339TIP3   OH243431   0.550   3.068  13.774
 7339TIP3    H143432   0.563   2.991  13.833
 7339TIP3    H243433   0.625   3.056  13.713
 7340TIP3   OH243434   0.786   3.031  15.511
 7340TIP3    H143435   0.753   3.063  15.425
 7340TIP3    H243436   0.793   2.933  15.499
 7341TIP3   OH243437   1.093   3.178  13.752
 7341TIP3    H143438   1.066   3.187  13.845
 7341TIP3    H243439   1.074   3.083  13.738
 7342TIP3   OH243440   1.356   3.018  15.250
 7342TIP3    H143441   1.435   3.076  15.244
 7342TIP3    H243442   1.286   3.085  15.254
 7343TIP3   OH243443   0.200   2.756  15.509
 7343TIP3    H143444   0.248   2.672  15.499
 7343TIP3    H243445   0.185   2.756  15.605
 7344TIP3   OH243446   0.670   2.869  14.018
 7344TIP3    H143447   0.620   2.815  14.080
 7344TIP3    H243448   0.700   2.802  13.952
 7345TIP3   OH243449   0.596   2.650  15.246
 7345TIP3    H143450   0.536   2.721  15.272
 7345TIP3    H243451   0.636   2.687  15.166
 7346TIP3   OH243452   0.778   2.692  13.837
 7346TIP3    H143453   0.762   2.683  13.741
 7346TIP3    H243454   0.875   2.697  13.844
 7347TIP3   OH243455   1.103   2.908  15.584
 7347TIP3    H143456   1.198   2.905  15.566
 7347TIP3    H243457   1.087   2.830  15.639
 7348TIP3   OH243458   1.710   2.924  13.778
 7348TIP3    H143459   1.691   2.886  13.691
 7348TIP3    H243460   1.719   3.020  13.760
 7349TIP3   OH243461   0.637   2.387  15.351
 7349TIP3    H143462   0.651   2.318  15.283
 7349TIP3    H243463   0.632   2.469  15.297
 7350TIP3   OH243464   0.677   2.227  15.109
 7350TIP3    H143465   0.729   2.272  15.038
 7350TIP3    H243466   0.589   2.218  15.066
 7351TIP3   OH243467   0.831   2.775  15.132
 7351TIP3    H143468   0.907   2.758  15.075
 7351TIP3    H243469   0.795   2.858  15.098
 7352TIP3   OH243470   1.269   2.549  15.626
 7352TIP3    H143471   1.294   2.455  15.619
 7352TIP3    H243472   1.356   2.593  15.631
 7353TIP3   OH243473   1.406   2.830  15.445
 7353TIP3    H143474   1.380   2.901  15.382
 7353TIP3    H243475   1.502   2.826  15.425
 7354TIP3   OH243476   0.486   2.507  15.550
 7354TIP3    H143477   0.404   2.460  15.523
 7354TIP3    H243478   0.546   2.481  15.477
 7355TIP3   OH243479   0.755   1.969  15.148
 7355TIP3    H143480   0.740   2.065  15.133
 7355TIP3    H243481   0.682   1.932  15.096
 7356TIP3   OH243482   0.885   2.402  15.508
 7356TIP3    H143483   0.854   2.382  15.599
 7356TIP3    H243484   0.807   2.384  15.452
 7357TIP3   OH243485   1.155   2.316  15.416
 7357TIP3    H143486   1.059   2.322  15.430
 7357TIP3    H243487   1.182   2.252  15.485
 7358TIP3   OH243488   1.309   2.180  15.608
 7358TIP3    H143489   1.309   2.082  15.610
 7358TIP3    H243490   1.287   2.208  15.700
 7359TIP3   OH243491   0.321   2.298  15.529
 7359TIP3    H143492   0.307   2.233  15.457
 7359TIP3    H243493   0.270   2.261  15.604
 7360TIP3   OH243494   0.778   1.909  15.416
 7360TIP3    H143495   0.846   1.839  15.414
 7360TIP3    H243496   0.768   1.923  15.320
 7361TIP3   OH243497   0.803   2.064  15.630
 7361TIP3    H143498   0.800   2.017  15.542
 7361TIP3    H243499   0.765   2.150  15.611
 7362TIP3   OH243500   0.761   3.762  13.945
 7362TIP3    H143501   0.857   3.770  13.952
 7362TIP3    H243502   0.746   3.822  13.871
 7363TIP3   OH243503   0.120   3.219  13.893
 7363TIP3    H143504   0.216   3.230  13.911
 7363TIP3    H243505   0.124   3.155  13.820
 7364TIP3   OH243506   7.338   3.774  14.372
 7364TIP3    H143507   7.247   3.753  14.341
 7364TIP3    H243508   7.347   3.710  14.447
 7365TIP3   OH243509   0.079   3.575  14.571
 7365TIP3    H143510   0.044   3.486  14.595
 7365TIP3    H243511   0.104   3.603  14.662
 7366TIP3   OH243512   1.830   3.651  14.869
 7366TIP3    H143513   1.833   3.667  14.965
 7366TIP3    H243514   1.901   3.708  14.839
 7367TIP3   OH243515   1.788   3.610  15.165
 7367TIP3    H143516   1.741   3.533  15.126
 7367TIP3    H243517   1.837   3.564  15.235
 7368TIP3   OH243518   1.633   3.181  15.632
 7368TIP3    H143519   1.542   3.180  15.668
 7368TIP3    H243520   1.669   3.262  15.675
 7369TIP3   OH243521   1.764   3.017  14.173
 7369TIP3    H143522   1.851   3.054  14.193
 7369TIP3    H243523   1.761   2.944  14.240
 7370TIP3   OH243524   1.795   2.835  14.367
 7370TIP3    H143525   1.731   2.768  14.398
 7370TIP3    H243526   1.861   2.834  14.439
 7371TIP3   OH243527   1.776   3.093  14.861
 7371TIP3    H143528   1.857   3.055  14.823
 7371TIP3    H243529   1.790   3.188  14.843
 7372TIP3   OH243530   1.632   3.383  15.088
 7372TIP3    H143531   1.562   3.417  15.147
 7372TIP3    H243532   1.576   3.343  15.017
 7373TIP3   OH243533   1.832   2.807  13.999
 7373TIP3    H143534   1.771   2.840  13.929
 7373TIP3    H243535   1.819   2.875  14.068
 7374TIP3   OH243536   1.665   2.530  13.854
 7374TIP3    H143537   1.675   2.595  13.783
 7374TIP3    H243538   1.649   2.446  13.806
 7375TIP3   OH243539   1.513   2.686  14.433
 7375TIP3    H143540   1.564   2.603  14.412
 7375TIP3    H243541   1.547   2.698  14.524
 7376TIP3   OH243542   0.084   2.877  14.818
 7376TIP3    H143543   0.104   2.873  14.722
 7376TIP3    H243544   0.172   2.866  14.860
 7377TIP3   OH243545   1.668   2.867  15.391
 7377TIP3    H143546   1.729   2.791  15.401
 7377TIP3    H243547   1.729   2.944  15.388
 7378TIP3   OH243548   1.817   2.656  15.455
 7378TIP3    H143549   1.730   2.615  15.436
 7378TIP3    H243550   1.875   2.578  15.447
 7379TIP3   OH243551   1.592   2.276  13.767
 7379TIP3    H143552   1.651   2.232  13.831
 7379TIP3    H243553   1.506   2.233  13.782
 7380TIP3   OH243554   1.531   2.412  14.234
 7380TIP3    H143555   1.573   2.335  14.278
 7380TIP3    H243556   1.613   2.467  14.242
 7381TIP3   OH243557   1.613   2.483  14.810
 7381TIP3    H143558   1.709   2.506  14.807
 7381TIP3    H243559   1.594   2.498  14.903
 7382TIP3   OH243560   1.619   2.555  15.086
 7382TIP3    H143561   1.531   2.584  15.119
 7382TIP3    H243562   1.663   2.641  15.065
 7383TIP3   OH243563   0.073   2.394  15.440
 7383TIP3    H143564   0.160   2.378  15.474
 7383TIP3    H243565   0.013   2.328  15.482
 7384TIP3   OH243566   1.845   1.962  15.622
 7384TIP3    H143567   1.881   1.895  15.561
 7384TIP3    H243568   1.857   2.044  15.570
 7385TIP3   OH243569   1.618   2.152  14.268
 7385TIP3    H143570   1.636   2.113  14.356
 7385TIP3    H243571   1.554   2.092  14.226
 7386TIP3   OH243572   0.168   2.234  14.722
 7386TIP3    H143573   0.214   2.154  14.754
 7386TIP3    H243574   0.218   2.304  14.766
 7387TIP3   OH243575   0.050   2.614  14.866
 7387TIP3    H143576   0.054   2.571  14.778
 7387TIP3    H243577   0.058   2.705  14.838
 7388TIP3   OH243578   1.798   2.172  15.457
 7388TIP3    H143579   1.704   2.199  15.452
 7388TIP3    H243580   1.801   2.116  15.378
 7389TIP3   OH243581   1.798   2.160  13.925
 7389TIP3    H143582   1.840   2.089  13.871
 7389TIP3    H243583   1.867   2.228  13.932
 7390TIP3   OH243584   0.077   2.163  14.198
 7390TIP3    H143585  -0.019   2.177  14.205
 7390TIP3    H243586   0.098   2.234  14.134
 7391TIP3   OH243587   1.503   3.659  14.432
 7391TIP3    H143588   1.571   3.629  14.370
 7391TIP3    H243589   1.555   3.709  14.497
 7392TIP3   OH243590   7.355   2.026  15.088
 7392TIP3    H143591   7.276   2.005  15.140
 7392TIP3    H243592   7.307   2.078  15.021
 7393TIP3   OH243593   0.245   3.354  15.483
 7393TIP3    H143594   0.160   3.370  15.441
 7393TIP3    H243595   0.220   3.343  15.575
 7394TIP3   OH243596   0.541   3.452  15.114
 7394TIP3    H143597   0.501   3.536  15.083
 7394TIP3    H243598   0.632   3.461  15.079
 7395TIP3   OH243599   0.969   3.591  15.401
 7395TIP3    H143600   0.982   3.557  15.493
 7395TIP3    H243601   1.060   3.621  15.379
 7396TIP3   OH243602   1.201   3.724  15.329
 7396TIP3    H143603   1.270   3.659  15.310
 7396TIP3    H243604   1.235   3.761  15.413
 7397TIP3   OH243605   1.698   1.981  15.244
 7397TIP3    H143606   1.617   2.011  15.201
 7397TIP3    H243607   1.717   1.900  15.192
 7398TIP3   OH243608   0.283   3.774  15.112
 7398TIP3    H143609   0.208   3.823  15.073
 7398TIP3    H243610   0.249   3.755  15.201
 7399TIP3   OH243611   0.528   3.732  15.016
 7399TIP3    H143612   0.439   3.745  15.056
 7399TIP3    H243613   0.523   3.792  14.939
 7400TIP3   OH243614   1.001   3.724  14.933
 7400TIP3    H143615   0.951   3.777  14.869
 7400TIP3    H243616   1.009   3.785  15.009
 7401TIP3   OH243617   1.226   3.604  15.039
 7401TIP3    H143618   1.141   3.629  14.999
 7401TIP3    H243619   1.275   3.686  15.027
 7402TIP3   OH243620   1.479   3.762  15.057
 7402TIP3    H143621   1.485   3.856  15.032
 7402TIP3    H243622   1.508   3.719  14.972
 7403TIP3   OH243623   0.221   3.639  14.803
 7403TIP3    H143624   0.221   3.594  14.890
 7403TIP3    H243625   0.302   3.601  14.765
 7404TIP3   OH243626   0.431   3.510  14.670
 7404TIP3    H143627   0.415   3.416  14.694
 7404TIP3    H243628   0.517   3.525  14.714
 7405TIP3   OH243629   0.693   3.557  14.758
 7405TIP3    H143630   0.710   3.465  14.731
 7405TIP3    H243631   0.699   3.552  14.854
 7406TIP3   OH243632   1.039   2.123  14.671
 7406TIP3    H143633   0.972   2.059  14.699
 7406TIP3    H243634   1.095   2.070  14.613
 7407TIP3   OH243635   1.553   1.928  14.678
 7407TIP3    H143636   1.614   1.987  14.627
 7407TIP3    H243637   1.465   1.964  14.655
 7408TIP3   OH243638   1.720   2.050  14.507
 7408TIP3    H143639   1.789   1.996  14.463
 7408TIP3    H243640   1.769   2.136  14.516
 7409TIP3   OH243641   0.278   1.985  14.459
 7409TIP3    H143642   0.199   1.965  14.402
 7409TIP3    H243643   0.326   1.901  14.449
 7410TIP3   OH243644   0.165   1.962  14.036
 7410TIP3    H143645   0.204   2.024  13.973
 7410TIP3    H243646   0.098   2.016  14.079
 7411TIP3   OH243647   0.724   1.978  14.435
 7411TIP3    H143648   0.814   2.014  14.427
 7411TIP3    H243649   0.720   1.957  14.528
 7412TIP3   OH243650   1.295   1.980  14.597
 7412TIP3    H143651   1.290   1.991  14.501
 7412TIP3    H243652   1.257   1.890  14.610
 7413TIP3   OH243653   1.422   1.983  14.165
 7413TIP3    H143654   1.347   2.043  14.149
 7413TIP3    H243655   1.378   1.898  14.189
 7414TIP3   OH243656   0.145   3.560  14.134
 7414TIP3    H143657   0.085   3.557  14.058
 7414TIP3    H243658   0.147   3.655  14.148
 7415TIP3   OH243659   0.337   2.159  13.881
 7415TIP3    H143660   0.386   2.094  13.828
 7415TIP3    H243661   0.406   2.185  13.943
 7416TIP3   OH243662   0.839   2.180  14.120
 7416TIP3    H143663   0.864   2.122  14.193
 7416TIP3    H243664   0.846   2.266  14.165
 7417TIP3   OH243665   1.032   3.687  13.964
 7417TIP3    H143666   1.124   3.710  13.942
 7417TIP3    H243667   1.010   3.635  13.884
 7418TIP3   OH243668   1.701   3.637  14.237
 7418TIP3    H143669   1.682   3.559  14.179
 7418TIP3    H243670   1.695   3.711  14.172
 7419TIP3   OH243671   0.259   2.043  15.409
 7419TIP3    H143672   0.224   1.956  15.438
 7419TIP3    H243673   0.353   2.031  15.433
 7420TIP3   OH243674   0.470   1.982  15.570
 7420TIP3    H143675   0.552   1.938  15.538
 7420TIP3    H243676   0.425   1.900  15.602
 7421TIP3   OH243677   0.324   3.651  13.824
 7421TIP3    H143678   0.299   3.679  13.913
 7421TIP3    H243679   0.405   3.599  13.840
 7422TIP3   OH243680   1.305   1.906  15.581
 7422TIP3    H143681   1.316   1.860  15.666
 7422TIP3    H243682   1.397   1.904  15.546
 7423TIP3   OH243683   1.626   3.512  15.446
 7423TIP3    H143684   1.547   3.498  15.390
 7423TIP3    H243685   1.614   3.607  15.466
 7424TIP3   OH243686   3.071   2.900  14.440
 7424TIP3    H143687   3.069   2.998  14.439
 7424TIP3    H243688   2.998   2.876  14.381
 7425TIP3   OH243689   2.956   2.825  14.792
 7425TIP3    H143690   2.955   2.760  14.863
 7425TIP3    H243691   2.921   2.774  14.717
 7426TIP3   OH243692   2.191   2.793  14.947
 7426TIP3    H143693   2.200   2.724  15.016
 7426TIP3    H243694   2.266   2.850  14.969
 7427TIP3   OH243695   3.325   3.120  14.620
 7427TIP3    H143696   3.284   3.048  14.669
 7427TIP3    H243697   3.327   3.191  14.687
 7428TIP3   OH243698   2.284   3.238  14.797
 7428TIP3    H143699   2.253   3.151  14.765
 7428TIP3    H243700   2.380   3.219  14.801
 7429TIP3   OH243701   1.991   2.618  14.316
 7429TIP3    H143702   1.921   2.679  14.344
 7429TIP3    H243703   1.922   2.548  14.299
 7430TIP3   OH243704   2.022   2.818  14.563
 7430TIP3    H143705   2.045   2.732  14.605
 7430TIP3    H243706   2.087   2.825  14.492
 7431TIP3   OH243707   3.037   3.636  14.644
 7431TIP3    H143708   3.102   3.567  14.615
 7431TIP3    H243709   3.015   3.602  14.731
 7432TIP3   OH243710   2.793   3.066  14.840
 7432TIP3    H143711   2.826   3.004  14.774
 7432TIP3    H243712   2.874   3.081  14.891
 7433TIP3   OH243713   3.653   2.232  14.911
 7433TIP3    H143714   3.671   2.290  14.988
 7433TIP3    H243715   3.710   2.273  14.845
 7434TIP3   OH243716   3.111   2.512  14.870
 7434TIP3    H143717   3.127   2.416  14.871
 7434TIP3    H243718   3.100   2.526  14.774
 7435TIP3   OH243719   2.424   2.320  14.592
 7435TIP3    H143720   2.434   2.404  14.543
 7435TIP3    H243721   2.383   2.263  14.523
 7436TIP3   OH243722   3.195   2.328  14.429
 7436TIP3    H143723   3.260   2.297  14.496
 7436TIP3    H243724   3.252   2.386  14.376
 7437TIP3   OH243725   2.084   2.563  14.665
 7437TIP3    H143726   2.150   2.507  14.710
 7437TIP3    H243727   2.095   2.531  14.574
 7438TIP3   OH243728   2.599   2.717  14.597
 7438TIP3    H143729   2.667   2.660  14.637
 7438TIP3    H243730   2.548   2.651  14.546
 7439TIP3   OH243731   3.698   2.371  15.139
 7439TIP3    H143732   3.637   2.448  15.128
 7439TIP3    H243733   3.701   2.364  15.235
 7440TIP3   OH243734   2.313   2.211  14.996
 7440TIP3    H143735   2.285   2.268  14.921
 7440TIP3    H243736   2.245   2.234  15.064
 7441TIP3   OH243737   3.042   3.159  14.350
 7441TIP3    H143738   3.015   3.132  14.261
 7441TIP3    H243739   3.011   3.252  14.355
 7442TIP3   OH243740   2.564   2.976  15.019
 7442TIP3    H143741   2.494   3.040  15.042
 7442TIP3    H243742   2.635   3.035  14.990
 7443TIP3   OH243743   3.377   2.264  14.628
 7443TIP3    H143744   3.355   2.187  14.681
 7443TIP3    H243745   3.444   2.307  14.684
 7444TIP3   OH243746   2.270   2.396  14.799
 7444TIP3    H143747   2.333   2.465  14.831
 7444TIP3    H243748   2.321   2.355  14.725
 7445TIP3   OH243749   2.409   3.176  15.102
 7445TIP3    H143750   2.404   3.266  15.066
 7445TIP3    H243751   2.320   3.168  15.146
 7446TIP3   OH243752   2.017   3.136  14.181
 7446TIP3    H143753   1.992   3.170  14.094
 7446TIP3    H243754   2.025   3.219  14.232
 7447TIP3   OH243755   3.376   3.303  14.855
 7447TIP3    H143756   3.280   3.315  14.869
 7447TIP3    H243757   3.405   3.395  14.837
 7448TIP3   OH243758   3.410   2.132  14.996
 7448TIP3    H143759   3.338   2.195  14.986
 7448TIP3    H243760   3.482   2.174  14.943
 7449TIP3   OH243761   2.707   1.944  14.742
 7449TIP3    H143762   2.693   1.848  14.735
 7449TIP3    H243763   2.619   1.975  14.773
 7450TIP3   OH243764   3.204   3.482  14.516
 7450TIP3    H143765   3.247   3.410  14.465
 7450TIP3    H243766   3.247   3.561  14.476
 7451TIP3   OH243767   3.325   3.275  14.368
 7451TIP3    H143768   3.295   3.205  14.307
 7451TIP3    H243769   3.328   3.226  14.452
 7452TIP3   OH243770   3.485   3.134  15.217
 7452TIP3    H143771   3.503   3.070  15.145
 7452TIP3    H243772   3.507   3.219  15.173
 7453TIP3   OH243773   2.936   2.822  14.193
 7453TIP3    H143774   2.867   2.880  14.157
 7453TIP3    H243775   3.007   2.833  14.127
 7454TIP3   OH243776   2.945   2.680  13.894
 7454TIP3    H143777   3.015   2.678  13.961
 7454TIP3    H243778   2.975   2.608  13.837
 7455TIP3   OH243779   3.673   2.764  15.020
 7455TIP3    H143780   3.611   2.839  15.025
 7455TIP3    H243781   3.725   2.789  14.941
 7456TIP3   OH243782   3.282   2.844  14.285
 7456TIP3    H143783   3.207   2.869  14.345
 7456TIP3    H243784   3.329   2.777  14.338
 7457TIP3   OH243785   3.274   2.661  15.198
 7457TIP3    H143786   3.275   2.743  15.250
 7457TIP3    H243787   3.211   2.690  15.129
 7458TIP3   OH243788   2.443   2.911  14.477
 7458TIP3    H143789   2.411   2.872  14.392
 7458TIP3    H243790   2.503   2.840  14.510
 7459TIP3   OH243791   2.574   3.249  14.745
 7459TIP3    H143792   2.574   3.196  14.664
 7459TIP3    H243793   2.653   3.213  14.791
 7460TIP3   OH243794   2.475   2.785  14.843
 7460TIP3    H143795   2.530   2.795  14.763
 7460TIP3    H243796   2.514   2.852  14.904
 7461TIP3   OH243797   3.117   3.342  14.914
 7461TIP3    H143798   3.088   3.406  14.980
 7461TIP3    H243799   3.092   3.257  14.956
 7462TIP3   OH243800   2.571   3.231  15.311
 7462TIP3    H143801   2.529   3.302  15.363
 7462TIP3    H243802   2.503   3.207  15.243
 7463TIP3   OH243803   3.169   2.764  14.052
 7463TIP3    H143804   3.225   2.782  14.132
 7463TIP3    H243805   3.214   2.814  13.980
 7464TIP3   OH243806   2.265   2.844  15.227
 7464TIP3    H143807   2.270   2.911  15.299
 7464TIP3    H243808   2.171   2.853  15.207
 7465TIP3   OH243809   2.940   3.437  14.399
 7465TIP3    H143810   2.983   3.467  14.480
 7465TIP3    H243811   2.884   3.512  14.375
 7466TIP3   OH243812   2.393   3.440  15.385
 7466TIP3    H143813   2.389   3.416  15.291
 7466TIP3    H243814   2.303   3.416  15.416
 7467TIP3   OH243815   3.537   1.937  14.037
 7467TIP3    H143816   3.447   1.952  14.074
 7467TIP3    H243817   3.565   2.023  14.001
 7468TIP3   OH243818   2.338   2.812  14.240
 7468TIP3    H143819   2.310   2.890  14.188
 7468TIP3    H243820   2.273   2.746  14.216
 7469TIP3   OH243821   3.653   3.373  13.877
 7469TIP3    H143822   3.669   3.467  13.894
 7469TIP3    H243823   3.745   3.342  13.877
 7470TIP3   OH243824   1.948   3.055  15.129
 7470TIP3    H143825   1.904   3.047  15.042
 7470TIP3    H243826   1.956   2.960  15.150
 7471TIP3   OH243827   1.925   3.330  14.807
 7471TIP3    H143828   2.021   3.317  14.804
 7471TIP3    H243829   1.916   3.411  14.857
 7472TIP3   OH243830   3.745   3.400  15.374
 7472TIP3    H143831   3.737   3.304  15.372
 7472TIP3    H243832   3.660   3.424  15.416
 7473TIP3   OH243833   2.842   3.355  15.259
 7473TIP3    H143834   2.851   3.436  15.315
 7473TIP3    H243835   2.757   3.316  15.287
 7474TIP3   OH243836   2.889   3.728  14.240
 7474TIP3    H143837   2.877   3.720  14.144
 7474TIP3    H243838   2.888   3.824  14.256
 7475TIP3   OH243839   2.252   3.616  14.423
 7475TIP3    H143840   2.267   3.574  14.510
 7475TIP3    H243841   2.167   3.575  14.399
 7476TIP3   OH243842   3.194   3.649  13.939
 7476TIP3    H143843   3.239   3.573  13.895
 7476TIP3    H243844   3.198   3.623  14.033
 7477TIP3   OH243845   3.163   3.643  14.216
 7477TIP3    H143846   3.067   3.650  14.233
 7477TIP3    H243847   3.187   3.568  14.274
 7478TIP3   OH243848   3.463   2.546  15.419
 7478TIP3    H143849   3.414   2.591  15.348
 7478TIP3    H243850   3.461   2.454  15.391
 7479TIP3   OH243851   2.177   3.187  15.223
 7479TIP3    H143852   2.199   3.150  15.311
 7479TIP3    H243853   2.090   3.147  15.201
 7480TIP3   OH243854   2.446   2.036  14.817
 7480TIP3    H143855   2.355   2.022  14.781
 7480TIP3    H243856   2.432   2.118  14.866
 7481TIP3   OH243857   2.909   2.001  15.153
 7481TIP3    H143858   2.948   1.958  15.232
 7481TIP3    H243859   2.812   1.989  15.167
 7482TIP3   OH243860   3.238   2.386  15.244
 7482TIP3    H143861   3.181   2.365  15.322
 7482TIP3    H243862   3.219   2.479  15.221
 7483TIP3   OH243863   3.314   2.868  13.833
 7483TIP3    H143864   3.312   2.849  13.737
 7483TIP3    H243865   3.400   2.912  13.839
 7484TIP3   OH243866   2.878   2.256  13.886
 7484TIP3    H143867   2.841   2.255  13.976
 7484TIP3    H243868   2.839   2.172  13.854
 7485TIP3   OH243869   2.455   2.532  14.943
 7485TIP3    H143870   2.381   2.531  15.007
 7485TIP3    H243871   2.450   2.623  14.905
 7486TIP3   OH243872   2.452   2.543  14.429
 7486TIP3    H143873   2.358   2.518  14.416
 7486TIP3    H243874   2.490   2.514  14.344
 7487TIP3   OH243875   3.003   2.594  14.307
 7487TIP3    H143876   2.964   2.676  14.270
 7487TIP3    H243877   3.072   2.577  14.240
 7488TIP3   OH243878   2.907   2.616  15.450
 7488TIP3    H143879   2.857   2.537  15.480
 7488TIP3    H243880   2.992   2.603  15.495
 7489TIP3   OH243881   3.107   2.543  14.591
 7489TIP3    H143882   3.078   2.599  14.517
 7489TIP3    H243883   3.116   2.458  14.544
 7490TIP3   OH243884   2.217   2.557  15.111
 7490TIP3    H143885   2.226   2.598  15.199
 7490TIP3    H243886   2.173   2.473  15.132
 7491TIP3   OH243887   2.555   2.296  13.796
 7491TIP3    H143888   2.509   2.255  13.872
 7491TIP3    H243889   2.484   2.340  13.747
 7492TIP3   OH243890   1.884   2.256  14.513
 7492TIP3    H143891   1.954   2.263  14.580
 7492TIP3    H243892   1.929   2.231  14.431
 7493TIP3   OH243893   2.010   2.337  14.042
 7493TIP3    H143894   2.060   2.402  13.989
 7493TIP3    H243895   1.942   2.400  14.076
 7494TIP3   OH243896   3.026   2.701  15.046
 7494TIP3    H143897   3.064   2.633  14.988
 7494TIP3    H243898   2.979   2.648  15.113
 7495TIP3   OH243899   2.706   2.299  14.530
 7495TIP3    H143900   2.613   2.300  14.560
 7495TIP3    H243901   2.755   2.282  14.612
 7496TIP3   OH243902   2.191   2.452  14.420
 7496TIP3    H143903   2.104   2.473  14.378
 7496TIP3    H243904   2.215   2.370  14.375
 7497TIP3   OH243905   2.552   2.458  14.179
 7497TIP3    H143906   2.647   2.470  14.195
 7497TIP3    H243907   2.527   2.527  14.115
 7498TIP3   OH243908   3.147   2.222  14.853
 7498TIP3    H143909   3.079   2.227  14.924
 7498TIP3    H243910   3.096   2.197  14.775
 7499TIP3   OH243911   2.424   2.576  13.937
 7499TIP3    H143912   2.369   2.539  13.867
 7499TIP3    H243913   2.506   2.597  13.889
 7500TIP3   OH243914   3.469   3.785  15.489
 7500TIP3    H143915   3.493   3.825  15.404
 7500TIP3    H243916   3.540   3.819  15.546
 7501TIP3   OH243917   2.236   3.033  15.445
 7501TIP3    H143918   2.306   3.058  15.507
 7501TIP3    H243919   2.158   3.041  15.503
 7502TIP3   OH243920   2.835   2.575  14.719
 7502TIP3    H143921   2.895   2.521  14.666
 7502TIP3    H243922   2.820   2.520  14.797
 7503TIP3   OH243923   2.336   2.189  14.363
 7503TIP3    H143924   2.305   2.097  14.362
 7503TIP3    H243925   2.415   2.182  14.308
 7504TIP3   OH243926   2.699   2.407  14.960
 7504TIP3    H143927   2.616   2.459  14.969
 7504TIP3    H243928   2.754   2.443  15.033
 7505TIP3   OH243929   2.758   3.030  14.130
 7505TIP3    H143930   2.678   2.983  14.097
 7505TIP3    H243931   2.735   3.042  14.225
 7506TIP3   OH243932   3.477   2.950  15.010
 7506TIP3    H143933   3.533   2.999  14.947
 7506TIP3    H243934   3.390   2.954  14.964
 7507TIP3   OH243935   3.140   2.308  13.946
 7507TIP3    H143936   3.045   2.327  13.935
 7507TIP3    H243937   3.175   2.394  13.982
 7508TIP3   OH243938   2.906   3.056  15.254
 7508TIP3    H143939   2.871   3.014  15.333
 7508TIP3    H243940   2.881   3.148  15.265
 7509TIP3   OH243941   3.215   2.500  14.107
 7509TIP3    H143942   3.302   2.491  14.152
 7509TIP3    H243943   3.224   2.584  14.059
 7510TIP3   OH243944   2.271   2.970  14.712
 7510TIP3    H143945   2.335   2.960  14.639
 7510TIP3    H243946   2.274   2.884  14.756
 7511TIP3   OH243947   2.967   3.176  14.033
 7511TIP3    H143948   2.933   3.261  14.069
 7511TIP3    H243949   2.894   3.115  14.055
 7512TIP3   OH243950   1.967   2.810  15.237
 7512TIP3    H143951   1.985   2.765  15.322
 7512TIP3    H243952   1.906   2.748  15.192
 7513TIP3   OH243953   2.668   2.765  15.455
 7513TIP3    H143954   2.636   2.734  15.369
 7513TIP3    H243955   2.761   2.734  15.454
 7514TIP3   OH243956   3.137   3.299  15.249
 7514TIP3    H143957   3.045   3.318  15.227
 7514TIP3    H243958   3.134   3.328  15.342
 7515TIP3   OH243959   3.704   2.517  14.088
 7515TIP3    H143960   3.648   2.487  14.013
 7515TIP3    H243961   3.712   2.611  14.063
 7516TIP3   OH243962   3.702   3.100  15.369
 7516TIP3    H143963   3.613   3.124  15.334
 7516TIP3    H243964   3.758   3.100  15.288
 7517TIP3   OH243965   3.530   3.400  14.127
 7517TIP3    H143966   3.496   3.316  14.162
 7517TIP3    H243967   3.565   3.378  14.040
 7518TIP3   OH243968   3.254   2.881  14.839
 7518TIP3    H143969   3.160   2.860  14.828
 7518TIP3    H243970   3.297   2.806  14.795
 7519TIP3   OH243971   2.506   3.315  14.449
 7519TIP3    H143972   2.556   3.396  14.428
 7519TIP3    H243973   2.418   3.338  14.416
 7520TIP3   OH243974   2.083   2.799  13.905
 7520TIP3    H143975   2.140   2.865  13.947
 7520TIP3    H243976   1.993   2.828  13.932
 7521TIP3   OH243977   2.647   3.082  14.400
 7521TIP3    H143978   2.615   3.173  14.410
 7521TIP3    H243979   2.576   3.032  14.445
 7522TIP3   OH243980   2.690   3.504  15.046
 7522TIP3    H143981   2.742   3.578  15.010
 7522TIP3    H243982   2.756   3.463  15.106
 7523TIP3   OH243983   2.515   3.580  14.353
 7523TIP3    H143984   2.419   3.594  14.366
 7523TIP3    H243985   2.552   3.664  14.387
 7524TIP3   OH243986   3.044   3.099  15.003
 7524TIP3    H143987   3.012   3.080  15.094
 7524TIP3    H243988   3.109   3.028  14.987
 7525TIP3   OH243989   3.279   3.207  13.912
 7525TIP3    H143990   3.308   3.160  13.993
 7525TIP3    H243991   3.183   3.189  13.920
 7526TIP3   OH243992   3.327   3.557  15.252
 7526TIP3    H143993   3.257   3.508  15.205
 7526TIP3    H243994   3.346   3.627  15.186
 7527TIP3   OH243995   3.725   3.642  13.938
 7527TIP3    H143996   3.794   3.709  13.917
 7527TIP3    H243997   3.653   3.703  13.966
 7528TIP3   OH243998   2.133   2.283  15.191
 7528TIP3    H143999   2.042   2.318  15.189
 7528TIP3    H244000   2.121   2.199  15.238
 7529TIP3   OH244001   3.356   3.070  14.136
 7529TIP3    H144002   3.332   2.992  14.190
 7529TIP3    H244003   3.451   3.075  14.154
 7530TIP3   OH244004   2.097   3.463  15.034
 7530TIP3    H144005   2.122   3.369  15.034
 7530TIP3    H244006   2.117   3.488  15.124
 7531TIP3   OH244007   2.691   3.314  13.762
 7531TIP3    H144008   2.701   3.238  13.702
 7531TIP3    H244009   2.647   3.271  13.838
 7532TIP3   OH244010   2.568   3.267  14.007
 7532TIP3    H144011   2.596   3.215  14.084
 7532TIP3    H244012   2.578   3.359  14.039
 7533TIP3   OH244013   2.223   2.991  14.056
 7533TIP3    H144014   2.151   3.031  14.110
 7533TIP3    H244015   2.273   3.069  14.026
 7534TIP3   OH244016   3.006   2.260  15.088
 7534TIP3    H144017   3.077   2.266  15.152
 7534TIP3    H244018   2.967   2.172  15.108
 7535TIP3   OH244019   3.087   2.211  14.192
 7535TIP3    H144020   3.102   2.267  14.114
 7535TIP3    H244021   3.134   2.262  14.260
 7536TIP3   OH244022   2.849   3.433  14.077
 7536TIP3    H144023   2.767   3.486  14.084
 7536TIP3    H244024   2.903   3.488  14.018
 7537TIP3   OH244025   2.804   2.392  14.278
 7537TIP3    H144026   2.881   2.451  14.283
 7537TIP3    H244027   2.776   2.379  14.371
 7538TIP3   OH244028   2.859   2.496  15.197
 7538TIP3    H144029   2.866   2.550  15.278
 7538TIP3    H244030   2.925   2.425  15.207
 7539TIP3   OH244031   2.887   2.098  14.366
 7539TIP3    H144032   2.855   2.162  14.432
 7539TIP3    H244033   2.957   2.153  14.323
 7540TIP3   OH244034   2.589   3.536  14.080
 7540TIP3    H144035   2.598   3.618  14.024
 7540TIP3    H244036   2.562   3.573  14.167
 7541TIP3   OH244037   2.454   2.209  14.037
 7541TIP3    H144038   2.449   2.298  14.076
 7541TIP3    H244039   2.545   2.184  14.064
 7542TIP3   OH244040   3.476   2.282  15.282
 7542TIP3    H144041   3.384   2.313  15.269
 7542TIP3    H244042   3.506   2.280  15.189
 7543TIP3   OH244043   3.338   2.660  14.682
 7543TIP3    H144044   3.255   2.616  14.655
 7543TIP3    H244045   3.386   2.592  14.734
 7544TIP3   OH244046   2.277   3.253  13.942
 7544TIP3    H144047   2.344   3.315  13.973
 7544TIP3    H244048   2.329   3.206  13.873
 7545TIP3   OH244049   2.112   2.520  13.856
 7545TIP3    H144050   2.113   2.616  13.877
 7545TIP3    H244051   2.022   2.503  13.826
 7546TIP3   OH244052   3.445   3.587  14.851
 7546TIP3    H144053   3.437   3.654  14.781
 7546TIP3    H244054   3.541   3.592  14.868
 7547TIP3   OH244055   2.194   1.998  14.731
 7547TIP3    H144056   2.174   2.000  14.635
 7547TIP3    H244057   2.151   1.913  14.755
 7548TIP3   OH244058   2.089   3.391  14.345
 7548TIP3    H144059   2.004   3.435  14.340
 7548TIP3    H244060   2.136   3.437  14.275
 7549TIP3   OH244061   2.012   3.659  15.472
 7549TIP3    H144062   2.068   3.636  15.549
 7549TIP3    H244063   1.967   3.573  15.457
 7550TIP3   OH244064   2.475   3.543  15.636
 7550TIP3    H144065   2.553   3.497  15.669
 7550TIP3    H244066   2.474   3.516  15.543
 7551TIP3   OH244067   2.891   3.499  13.774
 7551TIP3    H144068   2.822   3.433  13.797
 7551TIP3    H244069   2.963   3.439  13.749
 7552TIP3   OH244070   3.126   3.384  15.506
 7552TIP3    H144071   3.095   3.297  15.537
 7552TIP3    H244072   3.205   3.399  15.563
 7553TIP3   OH244073   3.347   3.473  13.793
 7553TIP3    H144074   3.376   3.396  13.843
 7553TIP3    H244075   3.423   3.496  13.738
 7554TIP3   OH244076   1.999   3.031  15.571
 7554TIP3    H144077   2.018   2.940  15.539
 7554TIP3    H244078   1.927   3.058  15.513
 7555TIP3   OH244079   2.435   3.068  13.775
 7555TIP3    H144080   2.449   2.991  13.833
 7555TIP3    H244081   2.510   3.056  13.713
 7556TIP3   OH244082   2.671   3.030  15.511
 7556TIP3    H144083   2.639   3.062  15.425
 7556TIP3    H244084   2.679   2.933  15.500
 7557TIP3   OH244085   2.978   3.178  13.752
 7557TIP3    H144086   2.951   3.187  13.845
 7557TIP3    H244087   2.959   3.083  13.738
 7558TIP3   OH244088   3.241   3.018  15.250
 7558TIP3    H144089   3.320   3.076  15.244
 7558TIP3    H244090   3.172   3.085  15.254
 7559TIP3   OH244091   2.090   2.756  15.510
 7559TIP3    H144092   2.134   2.671  15.501
 7559TIP3    H244093   2.070   2.757  15.606
 7560TIP3   OH244094   2.556   2.869  14.018
 7560TIP3    H144095   2.505   2.815  14.080
 7560TIP3    H244096   2.585   2.802  13.952
 7561TIP3   OH244097   2.482   2.650  15.246
 7561TIP3    H144098   2.423   2.722  15.272
 7561TIP3    H244099   2.522   2.687  15.165
 7562TIP3   OH244100   2.663   2.692  13.837
 7562TIP3    H144101   2.648   2.683  13.741
 7562TIP3    H244102   2.761   2.697  13.844
 7563TIP3   OH244103   2.989   2.908  15.586
 7563TIP3    H144104   3.084   2.904  15.566
 7563TIP3    H244105   2.973   2.829  15.639
 7564TIP3   OH244106   3.596   2.924  13.778
 7564TIP3    H144107   3.577   2.886  13.691
 7564TIP3    H244108   3.605   3.020  13.760
 7565TIP3   OH244109   2.524   2.389  15.350
 7565TIP3    H144110   2.535   2.317  15.285
 7565TIP3    H244111   2.519   2.470  15.295
 7566TIP3   OH244112   2.563   2.225  15.107
 7566TIP3    H144113   2.614   2.273  15.037
 7566TIP3    H244114   2.474   2.218  15.067
 7567TIP3   OH244115   2.717   2.775  15.132
 7567TIP3    H144116   2.792   2.758  15.075
 7567TIP3    H244117   2.681   2.858  15.098
 7568TIP3   OH244118   3.155   2.549  15.626
 7568TIP3    H144119   3.179   2.455  15.619
 7568TIP3    H244120   3.241   2.593  15.631
 7569TIP3   OH244121   3.292   2.831  15.445
 7569TIP3    H144122   3.266   2.901  15.382
 7569TIP3    H244123   3.388   2.826  15.425
 7570TIP3   OH244124   2.371   2.512  15.546
 7570TIP3    H144125   2.292   2.457  15.526
 7570TIP3    H244126   2.434   2.477  15.479
 7571TIP3   OH244127   2.641   1.968  15.148
 7571TIP3    H144128   2.624   2.065  15.137
 7571TIP3    H244129   2.567   1.933  15.096
 7572TIP3   OH244130   2.770   2.402  15.508
 7572TIP3    H144131   2.738   2.381  15.598
 7572TIP3    H244132   2.692   2.383  15.453
 7573TIP3   OH244133   3.041   2.316  15.416
 7573TIP3    H144134   2.945   2.322  15.430
 7573TIP3    H244135   3.067   2.252  15.485
 7574TIP3   OH244136   3.195   2.180  15.608
 7574TIP3    H144137   3.195   2.082  15.610
 7574TIP3    H244138   3.173   2.208  15.699
 7575TIP3   OH244139   2.179   2.307  15.520
 7575TIP3    H144140   2.203   2.233  15.461
 7575TIP3    H244141   2.168   2.262  15.606
 7576TIP3   OH244142   2.664   1.908  15.417
 7576TIP3    H144143   2.732   1.839  15.414
 7576TIP3    H244144   2.653   1.924  15.322
 7577TIP3   OH244145   2.697   2.068  15.627
 7577TIP3    H144146   2.682   2.019  15.542
 7577TIP3    H244147   2.641   2.147  15.616
 7578TIP3   OH244148   2.646   3.762  13.945
 7578TIP3    H144149   2.743   3.770  13.952
 7578TIP3    H244150   2.632   3.822  13.871
 7579TIP3   OH244151   2.002   3.219  13.892
 7579TIP3    H144152   2.098   3.228  13.910
 7579TIP3    H244153   2.007   3.155  13.817
 7580TIP3   OH244154   1.879   3.758  14.389
 7580TIP3    H144155   1.809   3.708  14.342
 7580TIP3    H244156   1.908   3.692  14.455
 7581TIP3   OH244157   1.962   3.571  14.576
 7581TIP3    H144158   1.927   3.483  14.596
 7581TIP3    H244159   1.985   3.604  14.665
 7582TIP3   OH244160   3.711   3.659  14.867
 7582TIP3    H144161   3.722   3.662  14.964
 7582TIP3    H244162   3.789   3.707  14.840
 7583TIP3   OH244163   3.669   3.611  15.168
 7583TIP3    H144164   3.629   3.532  15.124
 7583TIP3    H244165   3.725   3.564  15.233
 7584TIP3   OH244166   3.519   3.181  15.632
 7584TIP3    H144167   3.428   3.180  15.668
 7584TIP3    H244168   3.554   3.262  15.675
 7585TIP3   OH244169   3.649   3.016  14.174
 7585TIP3    H144170   3.736   3.054  14.192
 7585TIP3    H244171   3.648   2.944  14.241
 7586TIP3   OH244172   3.685   2.823  14.363
 7586TIP3    H144173   3.610   2.773  14.402
 7586TIP3    H244174   3.745   2.836  14.439
 7587TIP3   OH244175   3.662   3.094  14.863
 7587TIP3    H144176   3.742   3.054  14.823
 7587TIP3    H244177   3.678   3.189  14.845
 7588TIP3   OH244178   3.517   3.382  15.088
 7588TIP3    H144179   3.448   3.418  15.147
 7588TIP3    H244180   3.462   3.343  15.017
 7589TIP3   OH244181   3.715   2.805  14.002
 7589TIP3    H144182   3.659   2.839  13.930
 7589TIP3    H244183   3.705   2.877  14.068
 7590TIP3   OH244184   3.553   2.529  13.853
 7590TIP3    H144185   3.561   2.595  13.783
 7590TIP3    H244186   3.536   2.447  13.803
 7591TIP3   OH244187   3.467   2.670  14.420
 7591TIP3    H144188   3.453   2.575  14.416
 7591TIP3    H244189   3.435   2.692  14.509
 7592TIP3   OH244190   1.968   2.879  14.825
 7592TIP3    H144191   1.985   2.870  14.729
 7592TIP3    H244192   2.057   2.861  14.861
 7593TIP3   OH244193   3.553   2.867  15.391
 7593TIP3    H144194   3.615   2.791  15.401
 7593TIP3    H244195   3.614   2.944  15.388
 7594TIP3   OH244196   3.702   2.655  15.455
 7594TIP3    H144197   3.615   2.615  15.436
 7594TIP3    H244198   3.760   2.578  15.447
 7595TIP3   OH244199   3.478   2.274  13.766
 7595TIP3    H144200   3.539   2.232  13.830
 7595TIP3    H244201   3.391   2.237  13.783
 7596TIP3   OH244202   3.432   2.429  14.262
 7596TIP3    H144203   3.465   2.337  14.279
 7596TIP3    H244204   3.514   2.469  14.230
 7597TIP3   OH244205   3.498   2.483  14.810
 7597TIP3    H144206   3.594   2.506  14.808
 7597TIP3    H244207   3.479   2.497  14.904
 7598TIP3   OH244208   3.503   2.554  15.086
 7598TIP3    H144209   3.416   2.584  15.120
 7598TIP3    H244210   3.548   2.640  15.066
 7599TIP3   OH244211   1.930   2.408  15.439
 7599TIP3    H144212   2.024   2.388  15.460
 7599TIP3    H244213   1.884   2.326  15.469
 7600TIP3   OH244214   3.731   1.962  15.622
 7600TIP3    H144215   3.766   1.895  15.561
 7600TIP3    H244216   3.743   2.044  15.570
 7601TIP3   OH244217   3.501   2.156  14.269
 7601TIP3    H144218   3.524   2.115  14.356
 7601TIP3    H244219   3.441   2.092  14.228
 7602TIP3   OH244220   2.051   2.237  14.727
 7602TIP3    H144221   2.097   2.155  14.753
 7602TIP3    H244222   2.105   2.308  14.765
 7603TIP3   OH244223   1.880   2.537  14.833
 7603TIP3    H144224   1.932   2.513  14.752
 7603TIP3    H244225   1.925   2.619  14.855
 7604TIP3   OH244226   3.684   2.171  15.457
 7604TIP3    H144227   3.591   2.198  15.451
 7604TIP3    H244228   3.687   2.116  15.377
 7605TIP3   OH244229   3.682   2.161  13.925
 7605TIP3    H144230   3.727   2.090  13.873
 7605TIP3    H244231   3.754   2.226  13.931
 7606TIP3   OH244232   1.917   2.160  14.234
 7606TIP3    H144233   1.823   2.182  14.224
 7606TIP3    H244234   1.956   2.217  14.166
 7607TIP3   OH244235   3.388   3.659  14.432
 7607TIP3    H144236   3.457   3.629  14.370
 7607TIP3    H244237   3.440   3.709  14.497
 7608TIP3   OH244238   1.909   2.030  15.068
 7608TIP3    H144239   1.842   2.011  15.135
 7608TIP3    H244240   1.864   2.097  15.012
 7609TIP3   OH244241   2.135   3.354  15.482
 7609TIP3    H144242   2.049   3.371  15.440
 7609TIP3    H244243   2.108   3.344  15.573
 7610TIP3   OH244244   2.425   3.454  15.116
 7610TIP3    H144245   2.387   3.532  15.075
 7610TIP3    H244246   2.516   3.456  15.079
 7611TIP3   OH244247   2.854   3.591  15.400
 7611TIP3    H144248   2.869   3.560  15.493
 7611TIP3    H244249   2.945   3.624  15.380
 7612TIP3   OH244250   3.084   3.719  15.329
 7612TIP3    H144251   3.159   3.661  15.311
 7612TIP3    H244252   3.118   3.762  15.411
 7613TIP3   OH244253   3.586   1.980  15.243
 7613TIP3    H144254   3.503   2.010  15.202
 7613TIP3    H244255   3.603   1.898  15.191
 7614TIP3   OH244256   2.171   3.778  15.116
 7614TIP3    H144257   2.096   3.821  15.069
 7614TIP3    H244258   2.129   3.755  15.200
 7615TIP3   OH244259   2.407   3.732  15.011
 7615TIP3    H144260   2.313   3.746  15.040
 7615TIP3    H244261   2.406   3.790  14.932
 7616TIP3   OH244262   2.878   3.721  14.937
 7616TIP3    H144263   2.840   3.778  14.869
 7616TIP3    H244264   2.899   3.786  15.007
 7617TIP3   OH244265   3.112   3.603  15.037
 7617TIP3    H144266   3.026   3.631  15.001
 7617TIP3    H244267   3.161   3.687  15.028
 7618TIP3   OH244268   3.370   3.761  15.059
 7618TIP3    H144269   3.365   3.857  15.036
 7618TIP3    H244270   3.393   3.723  14.972
 7619TIP3   OH244271   2.114   3.641  14.806
 7619TIP3    H144272   2.103   3.590  14.889
 7619TIP3    H244273   2.193   3.600  14.764
 7620TIP3   OH244274   2.319   3.509  14.669
 7620TIP3    H144275   2.303   3.416  14.693
 7620TIP3    H244276   2.405   3.524  14.713
 7621TIP3   OH244277   2.579   3.558  14.759
 7621TIP3    H144278   2.595   3.466  14.730
 7621TIP3    H244279   2.586   3.549  14.854
 7622TIP3   OH244280   2.925   2.123  14.671
 7622TIP3    H144281   2.857   2.059  14.699
 7622TIP3    H244282   2.980   2.069  14.613
 7623TIP3   OH244283   3.439   1.928  14.677
 7623TIP3    H144284   3.500   1.987  14.627
 7623TIP3    H244285   3.350   1.964  14.654
 7624TIP3   OH244286   3.605   2.053  14.505
 7624TIP3    H144287   3.674   1.995  14.464
 7624TIP3    H244288   3.656   2.136  14.516
 7625TIP3   OH244289   2.163   1.986  14.456
 7625TIP3    H144290   2.084   1.965  14.403
 7625TIP3    H244291   2.208   1.899  14.450
 7626TIP3   OH244292   2.038   1.962  14.026
 7626TIP3    H144293   2.088   2.027  13.974
 7626TIP3    H244294   1.982   2.019  14.082
 7627TIP3   OH244295   2.609   1.977  14.435
 7627TIP3    H144296   2.698   2.014  14.427
 7627TIP3    H244297   2.606   1.956  14.528
 7628TIP3   OH244298   3.181   1.980  14.597
 7628TIP3    H144299   3.176   1.991  14.501
 7628TIP3    H244300   3.143   1.889  14.609
 7629TIP3   OH244301   3.302   1.981  14.155
 7629TIP3    H144302   3.229   2.045  14.159
 7629TIP3    H244303   3.263   1.898  14.193
 7630TIP3   OH244304   2.030   3.556  14.131
 7630TIP3    H144305   1.965   3.554  14.059
 7630TIP3    H244306   2.030   3.651  14.148
 7631TIP3   OH244307   2.222   2.155  13.879
 7631TIP3    H144308   2.275   2.094  13.826
 7631TIP3    H244309   2.288   2.187  13.943
 7632TIP3   OH244310   2.724   2.180  14.120
 7632TIP3    H144311   2.750   2.122  14.193
 7632TIP3    H244312   2.731   2.266  14.165
 7633TIP3   OH244313   2.918   3.687  13.964
 7633TIP3    H144314   3.009   3.710  13.942
 7633TIP3    H244315   2.896   3.635  13.884
 7634TIP3   OH244316   3.587   3.637  14.236
 7634TIP3    H144317   3.568   3.559  14.179
 7634TIP3    H244318   3.580   3.710  14.172
 7635TIP3   OH244319   2.150   2.039  15.399
 7635TIP3    H144320   2.111   1.960  15.442
 7635TIP3    H244321   2.240   2.035  15.437
 7636TIP3   OH244322   2.351   1.979  15.563
 7636TIP3    H144323   2.440   1.943  15.541
 7636TIP3    H244324   2.313   1.899  15.605
 7637TIP3   OH244325   2.210   3.655  13.825
 7637TIP3    H144326   2.184   3.680  13.915
 7637TIP3    H244327   2.288   3.598  13.841
 7638TIP3   OH244328   3.191   1.906  15.581
 7638TIP3    H144329   3.201   1.860  15.666
 7638TIP3    H244330   3.283   1.904  15.546
 7639TIP3   OH244331   3.510   3.512  15.448
 7639TIP3    H144332   3.432   3.498  15.389
 7639TIP3    H244333   3.499   3.607  15.467
 7640TIP3   OH244334   4.957   2.900  14.440
 7640TIP3    H144335   4.955   2.998  14.439
 7640TIP3    H244336   4.883   2.876  14.381
 7641TIP3   OH244337   4.842   2.832  14.794
 7641TIP3    H144338   4.841   2.763  14.862
 7641TIP3    H244339   4.811   2.776  14.720
 7642TIP3   OH244340   4.075   2.794  14.949
 7642TIP3    H144341   4.086   2.723  15.016
 7642TIP3    H244342   4.153   2.848  14.968
 7643TIP3   OH244343   5.211   3.120  14.620
 7643TIP3    H144344   5.169   3.048  14.669
 7643TIP3    H244345   5.213   3.191  14.687
 7644TIP3   OH244346   4.170   3.239  14.790
 7644TIP3    H144347   4.138   3.150  14.766
 7644TIP3    H244348   4.265   3.220  14.803
 7645TIP3   OH244349   3.833   2.593  14.346
 7645TIP3    H144350   3.790   2.680  14.340
 7645TIP3    H244351   3.777   2.539  14.289
 7646TIP3   OH244352   3.905   2.816  14.561
 7646TIP3    H144353   3.932   2.733  14.606
 7646TIP3    H244354   3.974   2.826  14.494
 7647TIP3   OH244355   4.922   3.636  14.644
 7647TIP3    H144356   4.987   3.567  14.615
 7647TIP3    H244357   4.901   3.602  14.731
 7648TIP3   OH244358   4.678   3.064  14.839
 7648TIP3    H144359   4.713   3.000  14.774
 7648TIP3    H244360   4.759   3.082  14.891
 7649TIP3   OH244361   5.539   2.231  14.911
 7649TIP3    H144362   5.557   2.290  14.988
 7649TIP3    H244363   5.596   2.273  14.845
 7650TIP3   OH244364   5.006   2.512  14.872
 7650TIP3    H144365   5.011   2.415  14.870
 7650TIP3    H244366   4.981   2.528  14.778
 7651TIP3   OH244367   4.299   2.317  14.590
 7651TIP3    H144368   4.322   2.402  14.547
 7651TIP3    H244369   4.266   2.262  14.517
 7652TIP3   OH244370   5.081   2.327  14.428
 7652TIP3    H144371   5.146   2.297  14.496
 7652TIP3    H244372   5.137   2.387  14.376
 7653TIP3   OH244373   3.968   2.562  14.666
 7653TIP3    H144374   4.038   2.510  14.711
 7653TIP3    H244375   3.982   2.531  14.575
 7654TIP3   OH244376   4.488   2.724  14.591
 7654TIP3    H144377   4.545   2.660  14.640
 7654TIP3    H244378   4.434   2.653  14.550
 7655TIP3   OH244379   5.583   2.372  15.139
 7655TIP3    H144380   5.523   2.448  15.128
 7655TIP3    H244381   5.587   2.364  15.235
 7656TIP3   OH244382   4.195   2.208  14.995
 7656TIP3    H144383   4.173   2.269  14.921
 7656TIP3    H244384   4.130   2.235  15.064
 7657TIP3   OH244385   4.927   3.159  14.350
 7657TIP3    H144386   4.901   3.132  14.261
 7657TIP3    H244387   4.897   3.252  14.356
 7658TIP3   OH244388   4.451   2.976  15.021
 7658TIP3    H144389   4.380   3.039  15.043
 7658TIP3    H244390   4.521   3.036  14.991
 7659TIP3   OH244391   5.265   2.262  14.627
 7659TIP3    H144392   5.241   2.187  14.682
 7659TIP3    H244393   5.330   2.307  14.684
 7660TIP3   OH244394   4.155   2.398  14.799
 7660TIP3    H144395   4.221   2.464  14.830
 7660TIP3    H244396   4.208   2.356  14.726
 7661TIP3   OH244397   4.296   3.176  15.101
 7661TIP3    H144398   4.288   3.267  15.070
 7661TIP3    H244399   4.207   3.170  15.146
 7662TIP3   OH244400   3.903   3.137  14.181
 7662TIP3    H144401   3.877   3.171  14.093
 7662TIP3    H244402   3.911   3.219  14.233
 7663TIP3   OH244403   5.264   3.304  14.857
 7663TIP3    H144404   5.167   3.315  14.869
 7663TIP3    H244405   5.290   3.396  14.836
 7664TIP3   OH244406   5.296   2.132  14.996
 7664TIP3    H144407   5.223   2.195  14.986
 7664TIP3    H244408   5.367   2.174  14.943
 7665TIP3   OH244409   4.593   1.941  14.741
 7665TIP3    H144410   4.576   1.846  14.735
 7665TIP3    H244411   4.507   1.977  14.772
 7666TIP3   OH244412   5.090   3.482  14.516
 7666TIP3    H144413   5.132   3.410  14.465
 7666TIP3    H244414   5.133   3.561  14.476
 7667TIP3   OH244415   5.211   3.275  14.368
 7667TIP3    H144416   5.181   3.205  14.307
 7667TIP3    H244417   5.214   3.226  14.452
 7668TIP3   OH244418   5.372   3.135  15.217
 7668TIP3    H144419   5.387   3.069  15.145
 7668TIP3    H244420   5.393   3.219  15.172
 7669TIP3   OH244421   4.822   2.823  14.194
 7669TIP3    H144422   4.752   2.881  14.156
 7669TIP3    H244423   4.893   2.833  14.128
 7670TIP3   OH244424   4.830   2.680  13.893
 7670TIP3    H144425   4.901   2.678  13.960
 7670TIP3    H244426   4.861   2.608  13.837
 7671TIP3   OH244427   5.561   2.766  15.021
 7671TIP3    H144428   5.495   2.838  15.025
 7671TIP3    H244429   5.610   2.789  14.941
 7672TIP3   OH244430   5.167   2.844  14.285
 7672TIP3    H144431   5.092   2.867  14.346
 7672TIP3    H244432   5.215   2.777  14.337
 7673TIP3   OH244433   5.160   2.661  15.198
 7673TIP3    H144434   5.160   2.743  15.249
 7673TIP3    H244435   5.097   2.690  15.128
 7674TIP3   OH244436   4.328   2.910  14.478
 7674TIP3    H144437   4.297   2.869  14.394
 7674TIP3    H244438   4.390   2.840  14.512
 7675TIP3   OH244439   4.460   3.248  14.744
 7675TIP3    H144440   4.460   3.196  14.663
 7675TIP3    H244441   4.538   3.213  14.791
 7676TIP3   OH244442   4.359   2.788  14.844
 7676TIP3    H144443   4.417   2.790  14.765
 7676TIP3    H244444   4.402   2.851  14.905
 7677TIP3   OH244445   5.003   3.342  14.914
 7677TIP3    H144446   4.973   3.406  14.979
 7677TIP3    H244447   4.977   3.257  14.956
 7678TIP3   OH244448   4.456   3.225  15.315
 7678TIP3    H144449   4.416   3.302  15.360
 7678TIP3    H244450   4.390   3.210  15.243
 7679TIP3   OH244451   5.055   2.765  14.052
 7679TIP3    H144452   5.110   2.782  14.132
 7679TIP3    H244453   5.100   2.814  13.980
 7680TIP3   OH244454   4.151   2.843  15.229
 7680TIP3    H144455   4.155   2.911  15.300
 7680TIP3    H244456   4.057   2.854  15.206
 7681TIP3   OH244457   4.826   3.437  14.399
 7681TIP3    H144458   4.869   3.467  14.480
 7681TIP3    H244459   4.770   3.512  14.375
 7682TIP3   OH244460   4.285   3.426  15.394
 7682TIP3    H144461   4.276   3.426  15.296
 7682TIP3    H244462   4.189   3.420  15.411
 7683TIP3   OH244463   5.427   1.938  14.042
 7683TIP3    H144464   5.332   1.949  14.066
 7683TIP3    H244465   5.447   2.022  13.998
 7684TIP3   OH244466   4.224   2.812  14.240
 7684TIP3    H144467   4.196   2.891  14.188
 7684TIP3    H244468   4.159   2.746  14.215
 7685TIP3   OH244469   5.538   3.373  13.877
 7685TIP3    H144470   5.555   3.467  13.894
 7685TIP3    H244471   5.631   3.342  13.877
 7686TIP3   OH244472   3.829   3.055  15.130
 7686TIP3    H144473   3.790   3.048  15.042
 7686TIP3    H244474   3.843   2.961  15.150
 7687TIP3   OH244475   3.810   3.330  14.795
 7687TIP3    H144476   3.905   3.316  14.805
 7687TIP3    H244477   3.801   3.405  14.858
 7688TIP3   OH244478   5.633   3.399  15.372
 7688TIP3    H144479   5.622   3.303  15.373
 7688TIP3    H244480   5.548   3.424  15.415
 7689TIP3   OH244481   4.729   3.353  15.263
 7689TIP3    H144482   4.735   3.437  15.314
 7689TIP3    H244483   4.641   3.319  15.285
 7690TIP3   OH244484   4.774   3.728  14.240
 7690TIP3    H144485   4.763   3.720  14.144
 7690TIP3    H244486   4.774   3.824  14.256
 7691TIP3   OH244487   4.137   3.616  14.423
 7691TIP3    H144488   4.152   3.574  14.510
 7691TIP3    H244489   4.053   3.575  14.399
 7692TIP3   OH244490   5.080   3.649  13.939
 7692TIP3    H144491   5.125   3.573  13.895
 7692TIP3    H244492   5.083   3.623  14.033
 7693TIP3   OH244493   5.049   3.643  14.216
 7693TIP3    H144494   4.953   3.650  14.233
 7693TIP3    H244495   5.072   3.568  14.274
 7694TIP3   OH244496   5.349   2.546  15.419
 7694TIP3    H144497   5.300   2.591  15.348
 7694TIP3    H244498   5.346   2.454  15.391
 7695TIP3   OH244499   4.066   3.164  15.222
 7695TIP3    H144500   4.081   3.149  15.316
 7695TIP3    H244501   3.972   3.148  15.204
 7696TIP3   OH244502   4.330   2.032  14.819
 7696TIP3    H144503   4.240   2.024  14.780
 7696TIP3    H244504   4.320   2.118  14.864
 7697TIP3   OH244505   4.795   2.001  15.153
 7697TIP3    H144506   4.834   1.959  15.232
 7697TIP3    H244507   4.698   1.989  15.167
 7698TIP3   OH244508   5.127   2.387  15.246
 7698TIP3    H144509   5.065   2.365  15.321
 7698TIP3    H244510   5.105   2.478  15.221
 7699TIP3   OH244511   5.199   2.867  13.833
 7699TIP3    H144512   5.197   2.848  13.737
 7699TIP3    H244513   5.285   2.912  13.838
 7700TIP3   OH244514   4.761   2.260  13.884
 7700TIP3    H144515   4.727   2.253  13.976
 7700TIP3    H244516   4.727   2.173  13.854
 7701TIP3   OH244517   4.331   2.534  14.952
 7701TIP3    H144518   4.256   2.536  15.013
 7701TIP3    H244519   4.334   2.620  14.906
 7702TIP3   OH244520   4.334   2.547  14.425
 7702TIP3    H144521   4.242   2.517  14.416
 7702TIP3    H244522   4.375   2.513  14.344
 7703TIP3   OH244523   4.889   2.594  14.304
 7703TIP3    H144524   4.850   2.676  14.269
 7703TIP3    H244525   4.959   2.577  14.239
 7704TIP3   OH244526   4.793   2.616  15.450
 7704TIP3    H144527   4.742   2.537  15.480
 7704TIP3    H244528   4.878   2.603  15.495
 7705TIP3   OH244529   5.009   2.542  14.585
 7705TIP3    H144530   4.962   2.598  14.520
 7705TIP3    H244531   5.002   2.456  14.541
 7706TIP3   OH244532   4.099   2.558  15.113
 7706TIP3    H144533   4.111   2.598  15.201
 7706TIP3    H244534   4.058   2.473  15.133
 7707TIP3   OH244535   4.440   2.301  13.799
 7707TIP3    H144536   4.395   2.253  13.872
 7707TIP3    H244537   4.367   2.336  13.747
 7708TIP3   OH244538   3.769   2.267  14.509
 7708TIP3    H144539   3.837   2.264  14.580
 7708TIP3    H244540   3.814   2.230  14.431
 7709TIP3   OH244541   3.893   2.341  14.046
 7709TIP3    H144542   3.947   2.398  13.988
 7709TIP3    H244543   3.826   2.405  14.076
 7710TIP3   OH244544   4.916   2.702  15.048
 7710TIP3    H144545   4.949   2.633  14.986
 7710TIP3    H244546   4.865   2.650  15.112
 7711TIP3   OH244547   4.593   2.281  14.525
 7711TIP3    H144548   4.504   2.304  14.559
 7711TIP3    H244549   4.638   2.289  14.611
 7712TIP3   OH244550   4.071   2.454  14.416
 7712TIP3    H144551   3.984   2.468  14.374
 7712TIP3    H244552   4.103   2.371  14.377
 7713TIP3   OH244553   4.437   2.460  14.179
 7713TIP3    H144554   4.532   2.470  14.197
 7713TIP3    H244555   4.414   2.528  14.113
 7714TIP3   OH244556   5.033   2.221  14.854
 7714TIP3    H144557   4.964   2.228  14.924
 7714TIP3    H244558   4.981   2.199  14.775
 7715TIP3   OH244559   4.308   2.577  13.938
 7715TIP3    H144560   4.255   2.538  13.867
 7715TIP3    H244561   4.390   2.597  13.891
 7716TIP3   OH244562   5.352   3.787  15.490
 7716TIP3    H144563   5.380   3.823  15.404
 7716TIP3    H244564   5.426   3.817  15.546
 7717TIP3   OH244565   4.123   3.026  15.448
 7717TIP3    H144566   4.192   3.061  15.505
 7717TIP3    H244567   4.043   3.044  15.502
 7718TIP3   OH244568   4.787   2.591  14.721
 7718TIP3    H144569   4.780   2.523  14.654
 7718TIP3    H244570   4.720   2.551  14.781
 7719TIP3   OH244571   4.220   2.188  14.362
 7719TIP3    H144572   4.190   2.095  14.359
 7719TIP3    H244573   4.300   2.182  14.307
 7720TIP3   OH244574   4.579   2.393  15.015
 7720TIP3    H144575   4.517   2.451  14.965
 7720TIP3    H244576   4.650   2.453  15.040
 7721TIP3   OH244577   4.643   3.030  14.130
 7721TIP3    H144578   4.563   2.983  14.097
 7721TIP3    H244579   4.620   3.042  14.225
 7722TIP3   OH244580   5.362   2.950  15.010
 7722TIP3    H144581   5.418   2.998  14.947
 7722TIP3    H244582   5.276   2.954  14.964
 7723TIP3   OH244583   5.025   2.310  13.952
 7723TIP3    H144584   4.931   2.327  13.932
 7723TIP3    H244585   5.060   2.396  13.982
 7724TIP3   OH244586   4.794   3.056  15.255
 7724TIP3    H144587   4.757   3.013  15.333
 7724TIP3    H244588   4.767   3.148  15.265
 7725TIP3   OH244589   5.100   2.504  14.110
 7725TIP3    H144590   5.188   2.490  14.151
 7725TIP3    H244591   5.110   2.585  14.059
 7726TIP3   OH244592   4.155   2.968  14.710
 7726TIP3    H144593   4.223   2.959  14.641
 7726TIP3    H244594   4.162   2.883  14.757
 7727TIP3   OH244595   4.853   3.176  14.033
 7727TIP3    H144596   4.818   3.261  14.069
 7727TIP3    H244597   4.779   3.115  14.055
 7728TIP3   OH244598   3.853   2.809  15.237
 7728TIP3    H144599   3.870   2.765  15.322
 7728TIP3    H244600   3.791   2.748  15.193
 7729TIP3   OH244601   4.554   2.767  15.457
 7729TIP3    H144602   4.522   2.736  15.370
 7729TIP3    H244603   4.646   2.734  15.455
 7730TIP3   OH244604   5.022   3.299  15.248
 7730TIP3    H144605   4.929   3.317  15.226
 7730TIP3    H244606   5.019   3.328  15.342
 7731TIP3   OH244607   5.590   2.516  14.088
 7731TIP3    H144608   5.533   2.488  14.014
 7731TIP3    H244609   5.597   2.611  14.063
 7732TIP3   OH244610   5.589   3.103  15.369
 7732TIP3    H144611   5.499   3.125  15.334
 7732TIP3    H244612   5.643   3.098  15.287
 7733TIP3   OH244613   5.415   3.400  14.127
 7733TIP3    H144614   5.382   3.316  14.162
 7733TIP3    H244615   5.451   3.378  14.040
 7734TIP3   OH244616   5.140   2.881  14.839
 7734TIP3    H144617   5.045   2.860  14.828
 7734TIP3    H244618   5.183   2.805  14.795
 7735TIP3   OH244619   4.392   3.315  14.448
 7735TIP3    H144620   4.441   3.396  14.428
 7735TIP3    H244621   4.304   3.338  14.416
 7736TIP3   OH244622   3.968   2.798  13.906
 7736TIP3    H144623   4.026   2.865  13.947
 7736TIP3    H244624   3.879   2.830  13.931
 7737TIP3   OH244625   4.532   3.081  14.399
 7737TIP3    H144626   4.501   3.173  14.410
 7737TIP3    H244627   4.460   3.033  14.444
 7738TIP3   OH244628   4.605   3.493  15.022
 7738TIP3    H144629   4.627   3.586  15.015
 7738TIP3    H244630   4.639   3.468  15.110
 7739TIP3   OH244631   4.401   3.580  14.353
 7739TIP3    H144632   4.304   3.594  14.367
 7739TIP3    H244633   4.437   3.664  14.387
 7740TIP3   OH244634   4.930   3.100  15.004
 7740TIP3    H144635   4.898   3.080  15.094
 7740TIP3    H244636   4.995   3.029  14.987
 7741TIP3   OH244637   5.164   3.207  13.912
 7741TIP3    H144638   5.194   3.160  13.993
 7741TIP3    H244639   5.069   3.189  13.920
 7742TIP3   OH244640   5.213   3.557  15.252
 7742TIP3    H144641   5.143   3.508  15.204
 7742TIP3    H244642   5.230   3.627  15.186
 7743TIP3   OH244643   5.610   3.642  13.938
 7743TIP3    H144644   5.679   3.709  13.917
 7743TIP3    H244645   5.539   3.703  13.966
 7744TIP3   OH244646   4.018   2.282  15.192
 7744TIP3    H144647   3.927   2.318  15.189
 7744TIP3    H244648   4.007   2.198  15.238
 7745TIP3   OH244649   5.242   3.070  14.136
 7745TIP3    H144650   5.218   2.992  14.190
 7745TIP3    H244651   5.337   3.075  14.154
 7746TIP3   OH244652   3.885   3.459  15.004
 7746TIP3    H144653   3.960   3.396  15.010
 7746TIP3    H244654   3.927   3.501  15.084
 7747TIP3   OH244655   4.577   3.314  13.762
 7747TIP3    H144656   4.587   3.238  13.703
 7747TIP3    H244657   4.533   3.271  13.838
 7748TIP3   OH244658   4.454   3.267  14.007
 7748TIP3    H144659   4.481   3.215  14.084
 7748TIP3    H244660   4.463   3.359  14.039
 7749TIP3   OH244661   4.108   2.991  14.055
 7749TIP3    H144662   4.037   3.031  14.109
 7749TIP3    H244663   4.159   3.069  14.026
 7750TIP3   OH244664   4.894   2.260  15.088
 7750TIP3    H144665   4.964   2.265  15.154
 7750TIP3    H244666   4.852   2.174  15.107
 7751TIP3   OH244667   4.965   2.217  14.197
 7751TIP3    H144668   4.988   2.263  14.113
 7751TIP3    H244669   5.023   2.261  14.260
 7752TIP3   OH244670   4.735   3.433  14.077
 7752TIP3    H144671   4.653   3.486  14.084
 7752TIP3    H244672   4.789   3.488  14.018
 7753TIP3   OH244673   4.689   2.392  14.277
 7753TIP3    H144674   4.767   2.451  14.284
 7753TIP3    H244675   4.661   2.379  14.370
 7754TIP3   OH244676   4.748   2.500  15.198
 7754TIP3    H144677   4.753   2.551  15.280
 7754TIP3    H244678   4.809   2.425  15.206
 7755TIP3   OH244679   4.774   2.099  14.367
 7755TIP3    H144680   4.740   2.164  14.431
 7755TIP3    H244681   4.843   2.153  14.322
 7756TIP3   OH244682   4.475   3.536  14.080
 7756TIP3    H144683   4.484   3.618  14.024
 7756TIP3    H244684   4.447   3.573  14.167
 7757TIP3   OH244685   4.340   2.215  14.039
 7757TIP3    H144686   4.336   2.303  14.078
 7757TIP3    H244687   4.429   2.184  14.063
 7758TIP3   OH244688   5.362   2.282  15.282
 7758TIP3    H144689   5.270   2.313  15.269
 7758TIP3    H244690   5.392   2.280  15.189
 7759TIP3   OH244691   5.224   2.661  14.683
 7759TIP3    H144692   5.141   2.616  14.655
 7759TIP3    H244693   5.271   2.592  14.734
 7760TIP3   OH244694   4.163   3.253  13.941
 7760TIP3    H144695   4.229   3.315  13.973
 7760TIP3    H244696   4.215   3.206  13.873
 7761TIP3   OH244697   3.997   2.520  13.856
 7761TIP3    H144698   3.999   2.616  13.877
 7761TIP3    H244699   3.908   2.502  13.825
 7762TIP3   OH244700   5.329   3.587  14.850
 7762TIP3    H144701   5.321   3.655  14.780
 7762TIP3    H244702   5.425   3.592  14.868
 7763TIP3   OH244703   4.079   1.999  14.730
 7763TIP3    H144704   4.059   2.000  14.634
 7763TIP3    H244705   4.038   1.913  14.755
 7764TIP3   OH244706   3.974   3.391  14.345
 7764TIP3    H144707   3.889   3.436  14.340
 7764TIP3    H244708   4.022   3.437  14.275
 7765TIP3   OH244709   3.893   3.658  15.475
 7765TIP3    H144710   3.955   3.636  15.547
 7765TIP3    H244711   3.855   3.570  15.454
 7766TIP3   OH244712   4.362   3.543  15.636
 7766TIP3    H144713   4.441   3.496  15.666
 7766TIP3    H244714   4.358   3.519  15.541
 7767TIP3   OH244715   4.776   3.499  13.774
 7767TIP3    H144716   4.707   3.433  13.797
 7767TIP3    H244717   4.848   3.439  13.749
 7768TIP3   OH244718   5.012   3.386  15.506
 7768TIP3    H144719   4.981   3.298  15.536
 7768TIP3    H244720   5.091   3.398  15.563
 7769TIP3   OH244721   5.232   3.473  13.793
 7769TIP3    H144722   5.262   3.396  13.843
 7769TIP3    H244723   5.308   3.496  13.738
 7770TIP3   OH244724   3.885   3.031  15.571
 7770TIP3    H144725   3.904   2.941  15.539
 7770TIP3    H244726   3.812   3.058  15.513
 7771TIP3   OH244727   4.321   3.068  13.775
 7771TIP3    H144728   4.335   2.991  13.833
 7771TIP3    H244729   4.396   3.056  13.713
 7772TIP3   OH244730   4.557   3.031  15.511
 7772TIP3    H144731   4.524   3.063  15.425
 7772TIP3    H244732   4.564   2.933  15.499
 7773TIP3   OH244733   4.864   3.178  13.752
 7773TIP3    H144734   4.837   3.187  13.845
 7773TIP3    H244735   4.845   3.083  13.738
 7774TIP3   OH244736   5.127   3.017  15.250
 7774TIP3    H144737   5.206   3.076  15.244
 7774TIP3    H244738   5.057   3.085  15.254
 7775TIP3   OH244739   3.975   2.755  15.511
 7775TIP3    H144740   4.019   2.670  15.501
 7775TIP3    H244741   3.956   2.757  15.606
 7776TIP3   OH244742   4.441   2.870  14.016
 7776TIP3    H144743   4.391   2.816  14.079
 7776TIP3    H244744   4.471   2.802  13.952
 7777TIP3   OH244745   4.368   2.652  15.249
 7777TIP3    H144746   4.307   2.724  15.272
 7777TIP3    H244747   4.406   2.685  15.166
 7778TIP3   OH244748   4.549   2.692  13.837
 7778TIP3    H144749   4.534   2.682  13.741
 7778TIP3    H244750   4.646   2.697  13.844
 7779TIP3   OH244751   4.874   2.908  15.584
 7779TIP3    H144752   4.969   2.904  15.566
 7779TIP3    H244753   4.858   2.830  15.639
 7780TIP3   OH244754   5.482   2.923  13.778
 7780TIP3    H144755   5.462   2.885  13.691
 7780TIP3    H244756   5.491   3.020  13.760
 7781TIP3   OH244757   4.409   2.389  15.348
 7781TIP3    H144758   4.421   2.317  15.283
 7781TIP3    H244759   4.406   2.470  15.292
 7782TIP3   OH244760   4.440   2.209  15.108
 7782TIP3    H144761   4.495   2.266  15.047
 7782TIP3    H244762   4.353   2.217  15.064
 7783TIP3   OH244763   4.605   2.778  15.135
 7783TIP3    H144764   4.676   2.757  15.073
 7783TIP3    H244765   4.565   2.858  15.097
 7784TIP3   OH244766   5.040   2.549  15.626
 7784TIP3    H144767   5.065   2.455  15.619
 7784TIP3    H244768   5.127   2.593  15.631
 7785TIP3   OH244769   5.179   2.832  15.447
 7785TIP3    H144770   5.152   2.901  15.382
 7785TIP3    H244771   5.274   2.826  15.425
 7786TIP3   OH244772   4.257   2.512  15.546
 7786TIP3    H144773   4.178   2.457  15.526
 7786TIP3    H244774   4.320   2.477  15.480
 7787TIP3   OH244775   4.527   1.968  15.148
 7787TIP3    H144776   4.509   2.066  15.135
 7787TIP3    H244777   4.453   1.933  15.096
 7788TIP3   OH244778   4.656   2.402  15.508
 7788TIP3    H144779   4.623   2.381  15.597
 7788TIP3    H244780   4.578   2.383  15.452
 7789TIP3   OH244781   4.926   2.316  15.416
 7789TIP3    H144782   4.830   2.323  15.429
 7789TIP3    H244783   4.953   2.252  15.486
 7790TIP3   OH244784   5.080   2.180  15.608
 7790TIP3    H144785   5.080   2.082  15.610
 7790TIP3    H244786   5.058   2.208  15.700
 7791TIP3   OH244787   4.064   2.307  15.520
 7791TIP3    H144788   4.088   2.233  15.461
 7791TIP3    H244789   4.054   2.262  15.606
 7792TIP3   OH244790   4.549   1.909  15.416
 7792TIP3    H144791   4.618   1.839  15.413
 7792TIP3    H244792   4.539   1.926  15.321
 7793TIP3   OH244793   4.583   2.068  15.627
 7793TIP3    H144794   4.568   2.019  15.543
 7793TIP3    H244795   4.527   2.147  15.616
 7794TIP3   OH244796   4.532   3.762  13.945
 7794TIP3    H144797   4.629   3.770  13.952
 7794TIP3    H244798   4.517   3.822  13.871
 7795TIP3   OH244799   3.887   3.219  13.892
 7795TIP3    H144800   3.984   3.228  13.910
 7795TIP3    H244801   3.892   3.155  13.817
 7796TIP3   OH244802   3.765   3.758  14.388
 7796TIP3    H144803   3.693   3.709  14.342
 7796TIP3    H244804   3.793   3.693  14.455
 7797TIP3   OH244805   3.849   3.572  14.578
 7797TIP3    H144806   3.813   3.483  14.596
 7797TIP3    H244807   3.872   3.603  14.667
 7798TIP3   OH244808   5.605   3.648  14.869
 7798TIP3    H144809   5.603   3.666  14.964
 7798TIP3    H244810   5.671   3.713  14.841
 7799TIP3   OH244811   5.559   3.610  15.163
 7799TIP3    H144812   5.512   3.533  15.126
 7799TIP3    H244813   5.608   3.566  15.235
 7800TIP3   OH244814   5.404   3.181  15.632
 7800TIP3    H144815   5.313   3.180  15.668
 7800TIP3    H244816   5.441   3.261  15.676
 7801TIP3   OH244817   5.535   3.016  14.174
 7801TIP3    H144818   5.622   3.054  14.193
 7801TIP3    H244819   5.533   2.944  14.241
 7802TIP3   OH244820   5.571   2.823  14.363
 7802TIP3    H144821   5.496   2.773  14.402
 7802TIP3    H244822   5.631   2.836  14.440
 7803TIP3   OH244823   5.547   3.093  14.861
 7803TIP3    H144824   5.628   3.053  14.823
 7803TIP3    H244825   5.560   3.188  14.844
 7804TIP3   OH244826   5.403   3.383  15.088
 7804TIP3    H144827   5.334   3.417  15.147
 7804TIP3    H244828   5.347   3.343  15.018
 7805TIP3   OH244829   5.601   2.805  14.002
 7805TIP3    H144830   5.544   2.839  13.929
 7805TIP3    H244831   5.591   2.877  14.068
 7806TIP3   OH244832   5.440   2.528  13.854
 7806TIP3    H144833   5.446   2.595  13.785
 7806TIP3    H244834   5.420   2.446  13.805
 7807TIP3   OH244835   5.353   2.670  14.420
 7807TIP3    H144836   5.338   2.575  14.416
 7807TIP3    H244837   5.318   2.691  14.509
 7808TIP3   OH244838   3.854   2.879  14.826
 7808TIP3    H144839   3.871   2.871  14.729
 7808TIP3    H244840   3.943   2.861  14.861
 7809TIP3   OH244841   5.439   2.867  15.391
 7809TIP3    H144842   5.501   2.791  15.401
 7809TIP3    H244843   5.500   2.944  15.388
 7810TIP3   OH244844   5.588   2.655  15.455
 7810TIP3    H144845   5.501   2.615  15.436
 7810TIP3    H244846   5.646   2.578  15.447
 7811TIP3   OH244847   5.364   2.276  13.767
 7811TIP3    H144848   5.422   2.232  13.831
 7811TIP3    H244849   5.277   2.234  13.782
 7812TIP3   OH244850   5.318   2.428  14.263
 7812TIP3    H144851   5.350   2.336  14.278
 7812TIP3    H244852   5.400   2.469  14.231
 7813TIP3   OH244853   5.384   2.483  14.810
 7813TIP3    H144854   5.480   2.506  14.808
 7813TIP3    H244855   5.365   2.497  14.904
 7814TIP3   OH244856   5.390   2.555  15.087
 7814TIP3    H144857   5.302   2.584  15.119
 7814TIP3    H244858   5.434   2.641  15.066
 7815TIP3   OH244859   3.816   2.408  15.439
 7815TIP3    H144860   3.909   2.388  15.460
 7815TIP3    H244861   3.770   2.326  15.469
 7816TIP3   OH244862   5.616   1.962  15.622
 7816TIP3    H144863   5.652   1.895  15.561
 7816TIP3    H244864   5.628   2.044  15.570
 7817TIP3   OH244865   5.387   2.157  14.270
 7817TIP3    H144866   5.408   2.114  14.355
 7817TIP3    H244867   5.327   2.093  14.226
 7818TIP3   OH244868   3.936   2.238  14.727
 7818TIP3    H144869   3.981   2.155  14.752
 7818TIP3    H244870   3.993   2.307  14.764
 7819TIP3   OH244871   3.763   2.538  14.830
 7819TIP3    H144872   3.820   2.513  14.754
 7819TIP3    H244873   3.810   2.618  14.857
 7820TIP3   OH244874   5.569   2.172  15.457
 7820TIP3    H144875   5.476   2.199  15.452
 7820TIP3    H244876   5.573   2.116  15.378
 7821TIP3   OH244877   5.569   2.161  13.925
 7821TIP3    H144878   5.610   2.090  13.872
 7821TIP3    H244879   5.639   2.227  13.931
 7822TIP3   OH244880   3.801   2.165  14.238
 7822TIP3    H144881   3.707   2.182  14.222
 7822TIP3    H244882   3.843   2.212  14.164
 7823TIP3   OH244883   5.274   3.659  14.432
 7823TIP3    H144884   5.342   3.629  14.370
 7823TIP3    H244885   5.326   3.709  14.497
 7824TIP3   OH244886   3.795   2.029  15.066
 7824TIP3    H144887   3.728   2.010  15.135
 7824TIP3    H244888   3.749   2.097  15.012
 7825TIP3   OH244889   4.017   3.346  15.488
 7825TIP3    H144890   3.938   3.372  15.438
 7825TIP3    H244891   3.987   3.344  15.578
 7826TIP3   OH244892   4.383   3.466  15.134
 7826TIP3    H144893   4.298   3.506  15.102
 7826TIP3    H244894   4.437   3.465  15.055
 7827TIP3   OH244895   4.740   3.592  15.401
 7827TIP3    H144896   4.753   3.557  15.492
 7827TIP3    H244897   4.830   3.622  15.377
 7828TIP3   OH244898   4.969   3.719  15.332
 7828TIP3    H144899   5.043   3.661  15.308
 7828TIP3    H244900   5.007   3.763  15.412
 7829TIP3   OH244901   5.471   1.980  15.243
 7829TIP3    H144902   5.389   2.010  15.202
 7829TIP3    H244903   5.488   1.898  15.191
 7830TIP3   OH244904   4.053   3.779  15.110
 7830TIP3    H144905   3.976   3.822  15.071
 7830TIP3    H244906   4.023   3.749  15.198
 7831TIP3   OH244907   4.302   3.737  15.017
 7831TIP3    H144908   4.212   3.742  15.057
 7831TIP3    H244909   4.290   3.792  14.938
 7832TIP3   OH244910   4.770   3.723  14.934
 7832TIP3    H144911   4.723   3.779  14.869
 7832TIP3    H244912   4.782   3.786  15.008
 7833TIP3   OH244913   4.996   3.603  15.038
 7833TIP3    H144914   4.910   3.630  15.001
 7833TIP3    H244915   5.045   3.686  15.028
 7834TIP3   OH244916   5.256   3.760  15.059
 7834TIP3    H144917   5.250   3.856  15.037
 7834TIP3    H244918   5.277   3.724  14.972
 7835TIP3   OH244919   3.997   3.640  14.803
 7835TIP3    H144920   3.986   3.594  14.888
 7835TIP3    H244921   4.080   3.600  14.767
 7836TIP3   OH244922   4.206   3.508  14.666
 7836TIP3    H144923   4.188   3.417  14.695
 7836TIP3    H244924   4.290   3.525  14.715
 7837TIP3   OH244925   4.466   3.558  14.757
 7837TIP3    H144926   4.481   3.466  14.732
 7837TIP3    H244927   4.469   3.552  14.854
 7838TIP3   OH244928   4.814   2.122  14.673
 7838TIP3    H144929   4.742   2.061  14.699
 7838TIP3    H244930   4.865   2.069  14.612
 7839TIP3   OH244931   5.324   1.928  14.677
 7839TIP3    H144932   5.385   1.987  14.627
 7839TIP3    H244933   5.236   1.964  14.654
 7840TIP3   OH244934   5.491   2.052  14.505
 7840TIP3    H144935   5.560   1.995  14.464
 7840TIP3    H244936   5.542   2.136  14.516
 7841TIP3   OH244937   4.047   1.985  14.457
 7841TIP3    H144938   3.969   1.966  14.401
 7841TIP3    H244939   4.094   1.900  14.449
 7842TIP3   OH244940   3.920   1.960  14.027
 7842TIP3    H144941   3.976   2.021  13.974
 7842TIP3    H244942   3.868   2.021  14.082
 7843TIP3   OH244943   4.497   1.974  14.436
 7843TIP3    H144944   4.584   2.017  14.429
 7843TIP3    H244945   4.491   1.959  14.530
 7844TIP3   OH244946   5.067   1.980  14.597
 7844TIP3    H144947   5.061   1.992  14.501
 7844TIP3    H244948   5.026   1.891  14.610
 7845TIP3   OH244949   5.193   1.983  14.165
 7845TIP3    H144950   5.118   2.042  14.150
 7845TIP3    H244951   5.149   1.898  14.189
 7846TIP3   OH244952   3.916   3.556  14.131
 7846TIP3    H144953   3.850   3.554  14.059
 7846TIP3    H244954   3.916   3.651  14.148
 7847TIP3   OH244955   4.100   2.183  13.873
 7847TIP3    H144956   4.144   2.103  13.836
 7847TIP3    H244957   4.168   2.190  13.944
 7848TIP3   OH244958   4.614   2.180  14.119
 7848TIP3    H144959   4.633   2.121  14.193
 7848TIP3    H244960   4.616   2.266  14.166
 7849TIP3   OH244961   4.803   3.687  13.964
 7849TIP3    H144962   4.895   3.710  13.942
 7849TIP3    H244963   4.781   3.635  13.884
 7850TIP3   OH244964   5.476   3.636  14.237
 7850TIP3    H144965   5.454   3.558  14.180
 7850TIP3    H244966   5.467   3.710  14.173
 7851TIP3   OH244967   4.035   2.039  15.399
 7851TIP3    H144968   3.997   1.960  15.442
 7851TIP3    H244969   4.126   2.035  15.437
 7852TIP3   OH244970   4.237   1.979  15.563
 7852TIP3    H144971   4.325   1.943  15.541
 7852TIP3    H244972   4.198   1.899  15.606
 7853TIP3   OH244973   4.095   3.655  13.825
 7853TIP3    H144974   4.069   3.680  13.915
 7853TIP3    H244975   4.174   3.598  13.841
 7854TIP3   OH244976   5.077   1.906  15.581
 7854TIP3    H144977   5.087   1.860  15.666
 7854TIP3    H244978   5.168   1.904  15.546
 7855TIP3   OH244979   5.397   3.512  15.446
 7855TIP3    H144980   5.318   3.498  15.390
 7855TIP3    H244981   5.386   3.607  15.467
 7856TIP3   OH244982   6.842   2.898  14.442
 7856TIP3    H144983   6.842   2.997  14.439
 7856TIP3    H244984   6.769   2.876  14.381
 7857TIP3   OH244985   6.728   2.825  14.792
 7857TIP3    H144986   6.726   2.760  14.864
 7857TIP3    H244987   6.695   2.774  14.716
 7858TIP3   OH244988   5.963   2.793  14.947
 7858TIP3    H144989   5.971   2.724  15.016
 7858TIP3    H244990   6.038   2.850  14.969
 7859TIP3   OH244991   7.098   3.118  14.621
 7859TIP3    H144992   7.056   3.047  14.670
 7859TIP3    H244993   7.099   3.190  14.687
 7860TIP3   OH244994   6.055   3.240  14.789
 7860TIP3    H144995   6.025   3.149  14.767
 7860TIP3    H244996   6.149   3.219  14.804
 7861TIP3   OH244997   5.719   2.593  14.346
 7861TIP3    H144998   5.676   2.680  14.340
 7861TIP3    H244999   5.663   2.539  14.289
 7862TIP3   OH245000   5.791   2.816  14.561
 7862TIP3    H145001   5.818   2.733  14.606
 7862TIP3    H245002   5.860   2.826  14.494
 7863TIP3   OH245003   6.809   3.636  14.643
 7863TIP3    H145004   6.873   3.566  14.615
 7863TIP3    H245005   6.785   3.602  14.730
 7864TIP3   OH245006   6.566   3.065  14.839
 7864TIP3    H145007   6.599   3.002  14.773
 7864TIP3    H245008   6.647   3.081  14.891
 7865TIP3   OH245009   6.883   2.513  14.870
 7865TIP3    H145010   6.899   2.417  14.869
 7865TIP3    H245011   6.873   2.527  14.774
 7866TIP3   OH245012   6.193   2.321  14.592
 7866TIP3    H145013   6.204   2.404  14.542
 7866TIP3    H245014   6.153   2.264  14.523
 7867TIP3   OH245015   6.970   2.333  14.430
 7867TIP3    H145016   7.034   2.297  14.496
 7867TIP3    H245017   7.029   2.385  14.376
 7868TIP3   OH245018   5.856   2.562  14.665
 7868TIP3    H145019   5.923   2.508  14.711
 7868TIP3    H245020   5.866   2.530  14.574
 7869TIP3   OH245021   6.371   2.718  14.597
 7869TIP3    H145022   6.439   2.659  14.637
 7869TIP3    H245023   6.320   2.652  14.547
 7870TIP3   OH245024   6.084   2.211  14.996
 7870TIP3    H145025   6.056   2.268  14.921
 7870TIP3    H245026   6.016   2.234  15.064
 7871TIP3   OH245027   6.811   3.157  14.350
 7871TIP3    H145028   6.786   3.131  14.260
 7871TIP3    H245029   6.782   3.251  14.356
 7872TIP3   OH245030   6.335   2.975  15.019
 7872TIP3    H145031   6.265   3.040  15.042
 7872TIP3    H245032   6.406   3.035  14.991
 7873TIP3   OH245033   7.118   2.261  14.640
 7873TIP3    H145034   7.121   2.179  14.690
 7873TIP3    H245035   7.195   2.307  14.680
 7874TIP3   OH245036   6.041   2.396  14.799
 7874TIP3    H145037   6.104   2.465  14.830
 7874TIP3    H245038   6.093   2.355  14.726
 7875TIP3   OH245039   6.180   3.175  15.102
 7875TIP3    H145040   6.176   3.267  15.070
 7875TIP3    H245041   6.092   3.167  15.146
 7876TIP3   OH245042   5.789   3.137  14.182
 7876TIP3    H145043   5.763   3.169  14.093
 7876TIP3    H245044   5.795   3.220  14.231
 7877TIP3   OH245045   7.129   3.296  14.866
 7877TIP3    H145046   7.033   3.318  14.871
 7877TIP3    H245047   7.167   3.381  14.836
 7878TIP3   OH245048   7.162   2.145  14.971
 7878TIP3    H145049   7.092   2.213  14.982
 7878TIP3    H245050   7.238   2.195  14.939
 7879TIP3   OH245051   6.478   1.944  14.742
 7879TIP3    H145052   6.464   1.848  14.735
 7879TIP3    H245053   6.390   1.975  14.773
 7880TIP3   OH245054   6.967   3.475  14.518
 7880TIP3    H145055   7.016   3.407  14.467
 7880TIP3    H245056   7.012   3.555  14.482
 7881TIP3   OH245057   7.095   3.274  14.368
 7881TIP3    H145058   7.070   3.203  14.307
 7881TIP3    H245059   7.101   3.223  14.451
 7882TIP3   OH245060   7.232   3.148  15.228
 7882TIP3    H145061   7.260   3.078  15.166
 7882TIP3    H245062   7.273   3.224  15.183
 7883TIP3   OH245063   6.707   2.823  14.193
 7883TIP3    H145064   6.638   2.881  14.156
 7883TIP3    H245065   6.778   2.832  14.127
 7884TIP3   OH245066   6.716   2.680  13.894
 7884TIP3    H145067   6.787   2.678  13.960
 7884TIP3    H245068   6.746   2.608  13.837
 7885TIP3   OH245069   7.049   2.845  14.282
 7885TIP3    H145070   6.977   2.870  14.344
 7885TIP3    H245071   7.097   2.781  14.339
 7886TIP3   OH245072   7.047   2.662  15.195
 7886TIP3    H145073   7.042   2.742  15.250
 7886TIP3    H245074   6.983   2.689  15.126
 7887TIP3   OH245075   6.213   2.910  14.477
 7887TIP3    H145076   6.182   2.871  14.392
 7887TIP3    H245077   6.275   2.841  14.510
 7888TIP3   OH245078   6.344   3.248  14.744
 7888TIP3    H145079   6.347   3.195  14.664
 7888TIP3    H245080   6.422   3.214  14.791
 7889TIP3   OH245081   6.246   2.785  14.843
 7889TIP3    H145082   6.301   2.795  14.763
 7889TIP3    H245083   6.285   2.851  14.904
 7890TIP3   OH245084   6.880   3.344  14.912
 7890TIP3    H145085   6.861   3.406  14.982
 7890TIP3    H245086   6.863   3.257  14.956
 7891TIP3   OH245087   6.342   3.228  15.313
 7891TIP3    H145088   6.301   3.302  15.363
 7891TIP3    H245089   6.275   3.208  15.243
 7892TIP3   OH245090   6.939   2.762  14.053
 7892TIP3    H145091   6.995   2.784  14.132
 7892TIP3    H245092   6.979   2.815  13.981
 7893TIP3   OH245093   6.036   2.844  15.228
 7893TIP3    H145094   6.041   2.910  15.300
 7893TIP3    H245095   5.942   2.853  15.207
 7894TIP3   OH245096   6.710   3.437  14.398
 7894TIP3    H145097   6.754   3.467  14.479
 7894TIP3    H245098   6.655   3.512  14.375
 7895TIP3   OH245099   6.167   3.432  15.387
 7895TIP3    H145100   6.160   3.421  15.291
 7895TIP3    H245101   6.074   3.418  15.414
 7896TIP3   OH245102   6.110   2.812  14.240
 7896TIP3    H145103   6.082   2.891  14.188
 7896TIP3    H245104   6.045   2.746  14.215
 7897TIP3   OH245105   5.719   3.055  15.129
 7897TIP3    H145106   5.675   3.047  15.042
 7897TIP3    H245107   5.727   2.961  15.150
 7898TIP3   OH245108   5.701   3.337  14.794
 7898TIP3    H145109   5.792   3.312  14.813
 7898TIP3    H245110   5.685   3.408  14.859
 7899TIP3   OH245111   6.615   3.354  15.262
 7899TIP3    H145112   6.621   3.437  15.314
 7899TIP3    H245113   6.528   3.317  15.287
 7900TIP3   OH245114   6.663   3.728  14.241
 7900TIP3    H145115   6.650   3.720  14.144
 7900TIP3    H245116   6.661   3.824  14.256
 7901TIP3   OH245117   6.022   3.619  14.423
 7901TIP3    H145118   6.049   3.580  14.508
 7901TIP3    H245119   5.940   3.576  14.393
 7902TIP3   OH245120   6.967   3.650  13.937
 7902TIP3    H145121   7.010   3.573  13.893
 7902TIP3    H245122   6.968   3.623  14.031
 7903TIP3   OH245123   6.932   3.641  14.217
 7903TIP3    H145124   6.836   3.650  14.234
 7903TIP3    H245125   6.956   3.567  14.275
 7904TIP3   OH245126   7.186   2.563  15.423
 7904TIP3    H145127   7.181   2.598  15.334
 7904TIP3    H245128   7.239   2.480  15.409
 7905TIP3   OH245129   5.948   3.187  15.223
 7905TIP3    H145130   5.970   3.150  15.311
 7905TIP3    H245131   5.861   3.147  15.201
 7906TIP3   OH245132   6.216   2.035  14.817
 7906TIP3    H145133   6.126   2.022  14.781
 7906TIP3    H245134   6.203   2.118  14.866
 7907TIP3   OH245135   6.681   2.001  15.153
 7907TIP3    H145136   6.720   1.959  15.232
 7907TIP3    H245137   6.583   1.989  15.167
 7908TIP3   OH245138   7.002   2.382  15.238
 7908TIP3    H145139   6.954   2.365  15.322
 7908TIP3    H245140   6.994   2.477  15.224
 7909TIP3   OH245141   7.090   2.858  13.834
 7909TIP3    H145142   7.082   2.843  13.737
 7909TIP3    H245143   7.166   2.915  13.836
 7910TIP3   OH245144   6.645   2.260  13.885
 7910TIP3    H145145   6.613   2.254  13.976
 7910TIP3    H245146   6.614   2.173  13.854
 7911TIP3   OH245147   6.227   2.532  14.944
 7911TIP3    H145148   6.153   2.531  15.007
 7911TIP3    H245149   6.222   2.623  14.906
 7912TIP3   OH245150   6.222   2.543  14.429
 7912TIP3    H145151   6.128   2.518  14.416
 7912TIP3    H245152   6.260   2.514  14.344
 7913TIP3   OH245153   6.776   2.595  14.307
 7913TIP3    H145154   6.735   2.676  14.270
 7913TIP3    H245155   6.844   2.577  14.241
 7914TIP3   OH245156   6.680   2.616  15.450
 7914TIP3    H145157   6.630   2.536  15.480
 7914TIP3    H245158   6.765   2.603  15.495
 7915TIP3   OH245159   6.875   2.545  14.593
 7915TIP3    H145160   6.851   2.599  14.516
 7915TIP3    H245161   6.887   2.459  14.547
 7916TIP3   OH245162   5.988   2.557  15.111
 7916TIP3    H145163   5.997   2.598  15.199
 7916TIP3    H245164   5.944   2.473  15.132
 7917TIP3   OH245165   6.326   2.296  13.796
 7917TIP3    H145166   6.280   2.254  13.872
 7917TIP3    H245167   6.255   2.340  13.747
 7918TIP3   OH245168   5.654   2.268  14.510
 7918TIP3    H145169   5.723   2.264  14.580
 7918TIP3    H245170   5.699   2.230  14.432
 7919TIP3   OH245171   5.781   2.340  14.044
 7919TIP3    H145172   5.832   2.401  13.988
 7919TIP3    H245173   5.712   2.402  14.076
 7920TIP3   OH245174   6.796   2.700  15.046
 7920TIP3    H145175   6.836   2.631  14.988
 7920TIP3    H245176   6.750   2.648  15.113
 7921TIP3   OH245177   6.477   2.300  14.530
 7921TIP3    H145178   6.383   2.299  14.560
 7921TIP3    H245179   6.527   2.282  14.612
 7922TIP3   OH245180   5.959   2.454  14.417
 7922TIP3    H145181   5.870   2.470  14.377
 7922TIP3    H245182   5.987   2.371  14.376
 7923TIP3   OH245183   6.323   2.459  14.179
 7923TIP3    H145184   6.419   2.470  14.195
 7923TIP3    H245185   6.299   2.527  14.114
 7924TIP3   OH245186   6.911   2.220  14.855
 7924TIP3    H145187   6.844   2.227  14.926
 7924TIP3    H245188   6.862   2.198  14.775
 7925TIP3   OH245189   6.194   2.576  13.938
 7925TIP3    H145190   6.140   2.538  13.866
 7925TIP3    H245191   6.276   2.597  13.891
 7926TIP3   OH245192   7.229   3.791  15.491
 7926TIP3    H145193   7.262   3.824  15.405
 7926TIP3    H245194   7.304   3.818  15.546
 7927TIP3   OH245195   6.007   3.032  15.445
 7927TIP3    H145196   6.078   3.058  15.507
 7927TIP3    H245197   5.929   3.041  15.503
 7928TIP3   OH245198   6.606   2.574  14.719
 7928TIP3    H145199   6.666   2.521  14.666
 7928TIP3    H245200   6.591   2.520  14.797
 7929TIP3   OH245201   6.107   2.189  14.363
 7929TIP3    H145202   6.076   2.097  14.362
 7929TIP3    H245203   6.186   2.182  14.308
 7930TIP3   OH245204   6.470   2.407  14.960
 7930TIP3    H145205   6.387   2.459  14.969
 7930TIP3    H245206   6.525   2.442  15.033
 7931TIP3   OH245207   6.529   3.030  14.130
 7931TIP3    H145208   6.449   2.983  14.097
 7931TIP3    H245209   6.506   3.042  14.225
 7932TIP3   OH245210   7.216   2.952  15.010
 7932TIP3    H145211   7.288   2.965  14.945
 7932TIP3    H245212   7.140   2.952  14.949
 7933TIP3   OH245213   6.915   2.312  13.947
 7933TIP3    H145214   6.819   2.324  13.933
 7933TIP3    H245215   6.943   2.398  13.984
 7934TIP3   OH245216   6.678   3.055  15.253
 7934TIP3    H145217   6.643   3.014  15.332
 7934TIP3    H245218   6.655   3.148  15.265
 7935TIP3   OH245219   6.985   2.505  14.107
 7935TIP3    H145220   7.072   2.491  14.151
 7935TIP3    H245221   6.995   2.589  14.059
 7936TIP3   OH245222   6.040   2.972  14.710
 7936TIP3    H145223   6.108   2.960  14.640
 7936TIP3    H245224   6.044   2.885  14.755
 7937TIP3   OH245225   6.737   3.176  14.033
 7937TIP3    H145226   6.705   3.261  14.069
 7937TIP3    H245227   6.664   3.115  14.056
 7938TIP3   OH245228   5.738   2.810  15.237
 7938TIP3    H145229   5.756   2.765  15.322
 7938TIP3    H245230   5.677   2.748  15.192
 7939TIP3   OH245231   6.439   2.765  15.455
 7939TIP3    H145232   6.408   2.735  15.369
 7939TIP3    H245233   6.532   2.734  15.454
 7940TIP3   OH245234   6.909   3.298  15.249
 7940TIP3    H145235   6.817   3.316  15.226
 7940TIP3    H245236   6.906   3.328  15.342
 7941TIP3   OH245237   7.019   2.879  14.839
 7941TIP3    H145238   6.926   2.857  14.825
 7941TIP3    H245239   7.067   2.805  14.797
 7942TIP3   OH245240   6.275   3.317  14.453
 7942TIP3    H145241   6.329   3.394  14.427
 7942TIP3    H245242   6.191   3.337  14.410
 7943TIP3   OH245243   5.854   2.798  13.906
 7943TIP3    H145244   5.912   2.865  13.947
 7943TIP3    H245245   5.765   2.830  13.931
 7944TIP3   OH245246   6.419   3.081  14.399
 7944TIP3    H145247   6.388   3.173  14.409
 7944TIP3    H245248   6.347   3.032  14.445
 7945TIP3   OH245249   6.464   3.500  15.042
 7945TIP3    H145250   6.510   3.580  15.013
 7945TIP3    H245251   6.526   3.465  15.109
 7946TIP3   OH245252   6.285   3.580  14.356
 7946TIP3    H145253   6.189   3.598  14.364
 7946TIP3    H245254   6.324   3.664  14.386
 7947TIP3   OH245255   6.818   3.099  15.004
 7947TIP3    H145256   6.784   3.080  15.094
 7947TIP3    H245257   6.880   3.027  14.986
 7948TIP3   OH245258   7.048   3.205  13.911
 7948TIP3    H145259   7.080   3.161  13.993
 7948TIP3    H245260   6.953   3.188  13.920
 7949TIP3   OH245261   7.099   3.555  15.250
 7949TIP3    H145262   7.025   3.509  15.205
 7949TIP3    H245263   7.119   3.627  15.186
 7950TIP3   OH245264   5.904   2.283  15.191
 7950TIP3    H145265   5.813   2.318  15.189
 7950TIP3    H245266   5.893   2.198  15.237
 7951TIP3   OH245267   7.128   3.065  14.134
 7951TIP3    H145268   7.105   2.989  14.191
 7951TIP3    H245269   7.221   3.078  14.157
 7952TIP3   OH245270   5.866   3.461  15.032
 7952TIP3    H145271   5.895   3.368  15.037
 7952TIP3    H245272   5.890   3.491  15.121
 7953TIP3   OH245273   6.463   3.314  13.762
 7953TIP3    H145274   6.472   3.238  13.703
 7953TIP3    H245275   6.418   3.271  13.838
 7954TIP3   OH245276   6.339   3.267  14.008
 7954TIP3    H145277   6.368   3.215  14.084
 7954TIP3    H245278   6.349   3.359  14.039
 7955TIP3   OH245279   5.994   2.991  14.056
 7955TIP3    H145280   5.923   3.031  14.109
 7955TIP3    H245281   6.045   3.069  14.026
 7956TIP3   OH245282   6.774   2.260  15.088
 7956TIP3    H145283   6.849   2.266  15.149
 7956TIP3    H245284   6.738   2.171  15.109
 7957TIP3   OH245285   6.857   2.215  14.197
 7957TIP3    H145286   6.875   2.264  14.114
 7957TIP3    H245287   6.912   2.262  14.260
 7958TIP3   OH245288   6.620   3.433  14.077
 7958TIP3    H145289   6.539   3.486  14.084
 7958TIP3    H245290   6.674   3.488  14.018
 7959TIP3   OH245291   6.575   2.392  14.278
 7959TIP3    H145292   6.653   2.451  14.283
 7959TIP3    H245293   6.548   2.380  14.371
 7960TIP3   OH245294   6.633   2.496  15.197
 7960TIP3    H145295   6.641   2.551  15.277
 7960TIP3    H245296   6.697   2.424  15.206
 7961TIP3   OH245297   6.655   2.099  14.364
 7961TIP3    H145298   6.628   2.163  14.431
 7961TIP3    H245299   6.727   2.152  14.322
 7962TIP3   OH245300   6.360   3.536  14.079
 7962TIP3    H145301   6.370   3.617  14.024
 7962TIP3    H245302   6.333   3.573  14.166
 7963TIP3   OH245303   6.225   2.209  14.037
 7963TIP3    H145304   6.220   2.298  14.076
 7963TIP3    H245305   6.316   2.184  14.064
 7964TIP3   OH245306   7.236   2.259  15.262
 7964TIP3    H145307   7.152   2.312  15.266
 7964TIP3    H245308   7.275   2.287  15.180
 7965TIP3   OH245309   7.108   2.660  14.687
 7965TIP3    H145310   7.026   2.617  14.656
 7965TIP3    H245311   7.152   2.589  14.735
 7966TIP3   OH245312   6.048   3.253  13.942
 7966TIP3    H145313   6.115   3.315  13.973
 7966TIP3    H245314   6.100   3.206  13.873
 7967TIP3   OH245315   5.883   2.520  13.856
 7967TIP3    H145316   5.885   2.616  13.877
 7967TIP3    H245317   5.794   2.503  13.825
 7968TIP3   OH245318   7.222   3.589  14.848
 7968TIP3    H145319   7.206   3.656  14.779
 7968TIP3    H245320   7.316   3.598  14.865
 7969TIP3   OH245321   5.964   1.999  14.730
 7969TIP3    H145322   5.945   2.000  14.634
 7969TIP3    H245323   5.923   1.913  14.756
 7970TIP3   OH245324   5.863   3.404  14.357
 7970TIP3    H145325   5.773   3.433  14.332
 7970TIP3    H245326   5.906   3.433  14.274
 7971TIP3   OH245327   5.780   3.657  15.474
 7971TIP3    H145328   5.840   3.637  15.548
 7971TIP3    H245329   5.739   3.570  15.456
 7972TIP3   OH245330   6.245   3.543  15.635
 7972TIP3    H145331   6.325   3.498  15.667
 7972TIP3    H245332   6.245   3.519  15.541
 7973TIP3   OH245333   6.663   3.499  13.774
 7973TIP3    H145334   6.593   3.433  13.797
 7973TIP3    H245335   6.735   3.439  13.750
 7974TIP3   OH245336   6.904   3.384  15.505
 7974TIP3    H145337   6.869   3.298  15.537
 7974TIP3    H245338   6.980   3.397  15.566
 7975TIP3   OH245339   7.115   3.475  13.798
 7975TIP3    H145340   7.146   3.395  13.843
 7975TIP3    H245341   7.190   3.493  13.738
 7976TIP3   OH245342   5.771   3.031  15.571
 7976TIP3    H145343   5.789   2.941  15.539
 7976TIP3    H245344   5.698   3.058  15.513
 7977TIP3   OH245345   6.206   3.067  13.774
 7977TIP3    H145346   6.220   2.991  13.833
 7977TIP3    H245347   6.281   3.056  13.713
 7978TIP3   OH245348   6.443   3.031  15.512
 7978TIP3    H145349   6.410   3.064  15.426
 7978TIP3    H245350   6.450   2.933  15.499
 7979TIP3   OH245351   6.749   3.178  13.752
 7979TIP3    H145352   6.722   3.187  13.845
 7979TIP3    H245353   6.730   3.083  13.738
 7980TIP3   OH245354   7.009   3.014  15.250
 7980TIP3    H145355   7.089   3.073  15.245
 7980TIP3    H245356   6.943   3.084  15.256
 7981TIP3   OH245357   5.861   2.756  15.510
 7981TIP3    H145358   5.905   2.670  15.501
 7981TIP3    H245359   5.841   2.757  15.606
 7982TIP3   OH245360   6.328   2.869  14.018
 7982TIP3    H145361   6.276   2.815  14.080
 7982TIP3    H245362   6.357   2.802  13.952
 7983TIP3   OH245363   6.253   2.650  15.246
 7983TIP3    H145364   6.194   2.722  15.272
 7983TIP3    H245365   6.293   2.687  15.165
 7984TIP3   OH245366   6.434   2.692  13.837
 7984TIP3    H145367   6.419   2.683  13.741
 7984TIP3    H245368   6.532   2.697  13.844
 7985TIP3   OH245369   6.760   2.908  15.583
 7985TIP3    H145370   6.854   2.905  15.566
 7985TIP3    H245371   6.745   2.830  15.638
 7986TIP3   OH245372   6.295   2.389  15.350
 7986TIP3    H145373   6.306   2.317  15.285
 7986TIP3    H245374   6.290   2.470  15.295
 7987TIP3   OH245375   6.335   2.226  15.107
 7987TIP3    H145376   6.385   2.273  15.037
 7987TIP3    H245377   6.245   2.218  15.067
 7988TIP3   OH245378   6.488   2.775  15.132
 7988TIP3    H145379   6.564   2.758  15.075
 7988TIP3    H245380   6.452   2.859  15.098
 7989TIP3   OH245381   6.932   2.551  15.631
 7989TIP3    H145382   6.955   2.458  15.618
 7989TIP3    H245383   7.019   2.594  15.625
 7990TIP3   OH245384   7.064   2.835  15.445
 7990TIP3    H145385   7.035   2.902  15.380
 7990TIP3    H245386   7.157   2.822  15.423
 7991TIP3   OH245387   6.142   2.512  15.546
 7991TIP3    H145388   6.064   2.457  15.526
 7991TIP3    H245389   6.205   2.477  15.480
 7992TIP3   OH245390   6.412   1.969  15.148
 7992TIP3    H145391   6.395   2.066  15.137
 7992TIP3    H245392   6.338   1.933  15.096
 7993TIP3   OH245393   6.541   2.402  15.508
 7993TIP3    H145394   6.509   2.381  15.598
 7993TIP3    H245395   6.463   2.383  15.453
 7994TIP3   OH245396   6.808   2.318  15.417
 7994TIP3    H145397   6.712   2.322  15.432
 7994TIP3    H245398   6.840   2.254  15.484
 7995TIP3   OH245399   6.973   2.178  15.610
 7995TIP3    H145400   6.965   2.080  15.610
 7995TIP3    H245401   6.944   2.208  15.699
 7996TIP3   OH245402   5.950   2.307  15.520
 7996TIP3    H145403   5.973   2.233  15.461
 7996TIP3    H245404   5.940   2.262  15.606
 7997TIP3   OH245405   6.435   1.908  15.417
 7997TIP3    H145406   6.504   1.839  15.414
 7997TIP3    H245407   6.424   1.924  15.321
 7998TIP3   OH245408   6.469   2.068  15.627
 7998TIP3    H145409   6.453   2.019  15.543
 7998TIP3    H245410   6.413   2.147  15.615
 7999TIP3   OH245411   6.418   3.762  13.945
 7999TIP3    H145412   6.515   3.770  13.952
 7999TIP3    H245413   6.403   3.822  13.871
 8000TIP3   OH245414   5.773   3.219  13.892
 8000TIP3    H145415   5.870   3.228  13.910
 8000TIP3    H245416   5.778   3.155  13.817
 8001TIP3   OH245417   5.653   3.758  14.387
 8001TIP3    H145418   5.579   3.712  14.342
 8001TIP3    H245419   5.676   3.693  14.456
 8002TIP3   OH245420   5.725   3.573  14.577
 8002TIP3    H145421   5.678   3.489  14.598
 8002TIP3    H245422   5.739   3.612  14.666
 8003TIP3   OH245423   7.280   3.377  15.094
 8003TIP3    H145424   7.214   3.420  15.150
 8003TIP3    H245425   7.227   3.340  15.021
 8004TIP3   OH245426   7.188   2.677  14.429
 8004TIP3    H145427   7.214   2.585  14.433
 8004TIP3    H245428   7.200   2.702  14.523
 8005TIP3   OH245429   5.739   2.879  14.826
 8005TIP3    H145430   5.757   2.871  14.729
 8005TIP3    H245431   5.829   2.861  14.861
 8006TIP3   OH245432   7.245   2.275  13.770
 8006TIP3    H145433   7.305   2.227  13.827
 8006TIP3    H245434   7.162   2.228  13.784
 8007TIP3   OH245435   7.202   2.422  14.249
 8007TIP3    H145436   7.231   2.338  14.290
 8007TIP3    H245437   7.287   2.457  14.220
 8008TIP3   OH245438  -0.053   2.399  14.810
 8008TIP3    H145439   0.035   2.435  14.796
 8008TIP3    H245440  -0.075   2.464  14.879
 8009TIP3   OH245441   7.279   2.561  15.115
 8009TIP3    H145442   7.185   2.587  15.122
 8009TIP3    H245443   7.314   2.629  15.054
 8010TIP3   OH245444   5.702   2.408  15.439
 8010TIP3    H145445   5.795   2.388  15.460
 8010TIP3    H245446   5.655   2.326  15.469
 8011TIP3   OH245447   7.182   2.127  14.335
 8011TIP3    H145448   7.275   2.109  14.358
 8011TIP3    H245449   7.185   2.083  14.246
 8012TIP3   OH245450   5.821   2.238  14.726
 8012TIP3    H145451   5.867   2.155  14.752
 8012TIP3    H245452   5.876   2.307  14.765
 8013TIP3   OH245453   5.649   2.538  14.830
 8013TIP3    H145454   5.706   2.513  14.754
 8013TIP3    H245455   5.696   2.619  14.857
 8014TIP3   OH245456   5.686   2.166  14.238
 8014TIP3    H145457   5.592   2.182  14.222
 8014TIP3    H245458   5.728   2.213  14.164
 8015TIP3   OH245459   7.141   3.641  14.442
 8015TIP3    H145460   7.208   3.608  14.380
 8015TIP3    H245461   7.193   3.699  14.499
 8016TIP3   OH245462   5.680   2.029  15.066
 8016TIP3    H145463   5.614   2.010  15.135
 8016TIP3    H245464   5.635   2.097  15.012
 8017TIP3   OH245465   5.905   3.352  15.483
 8017TIP3    H145466   5.820   3.372  15.440
 8017TIP3    H245467   5.877   3.343  15.575
 8018TIP3   OH245468   6.192   3.449  15.106
 8018TIP3    H145469   6.162   3.539  15.085
 8018TIP3    H245470   6.286   3.458  15.080
 8019TIP3   OH245471   6.627   3.591  15.403
 8019TIP3    H145472   6.642   3.558  15.495
 8019TIP3    H245473   6.717   3.622  15.378
 8020TIP3   OH245474   6.857   3.718  15.333
 8020TIP3    H145475   6.932   3.662  15.308
 8020TIP3    H245476   6.896   3.764  15.411
 8021TIP3   OH245477   5.936   3.773  15.109
 8021TIP3    H145478   5.863   3.825  15.071
 8021TIP3    H245479   5.906   3.755  15.199
 8022TIP3   OH245480   6.182   3.728  15.014
 8022TIP3    H145481   6.095   3.748  15.058
 8022TIP3    H245482   6.179   3.793  14.941
 8023TIP3   OH245483   6.651   3.721  14.935
 8023TIP3    H145484   6.608   3.778  14.869
 8023TIP3    H245485   6.667   3.785  15.007
 8024TIP3   OH245486   6.883   3.603  15.037
 8024TIP3    H145487   6.797   3.630  15.000
 8024TIP3    H245488   6.929   3.689  15.030
 8025TIP3   OH245489   7.128   3.760  15.058
 8025TIP3    H145490   7.127   3.855  15.037
 8025TIP3    H245491   7.162   3.723  14.975
 8026TIP3   OH245492   5.881   3.626  14.797
 8026TIP3    H145493   5.873   3.597  14.891
 8026TIP3    H245494   5.974   3.609  14.776
 8027TIP3   OH245495   6.099   3.507  14.674
 8027TIP3    H145496   6.092   3.414  14.702
 8027TIP3    H245497   6.186   3.528  14.718
 8028TIP3   OH245498   6.347   3.557  14.758
 8028TIP3    H145499   6.369   3.465  14.732
 8028TIP3    H245500   6.358   3.553  14.854
 8029TIP3   OH245501   6.694   2.123  14.671
 8029TIP3    H145502   6.628   2.058  14.699
 8029TIP3    H245503   6.751   2.071  14.613
 8030TIP3   OH245504   7.211   1.927  14.679
 8030TIP3    H145505   7.269   1.989  14.634
 8030TIP3    H245506   7.122   1.963  14.657
 8031TIP3   OH245507   5.934   1.986  14.456
 8031TIP3    H145508   5.854   1.966  14.403
 8031TIP3    H245509   5.979   1.899  14.450
 8032TIP3   OH245510   5.810   1.961  14.028
 8032TIP3    H145511   5.859   2.026  13.975
 8032TIP3    H245512   5.753   2.018  14.082
 8033TIP3   OH245513   6.380   1.978  14.434
 8033TIP3    H145514   6.470   2.014  14.427
 8033TIP3    H245515   6.377   1.956  14.527
 8034TIP3   OH245516   6.954   1.976  14.597
 8034TIP3    H145517   6.948   1.994  14.503
 8034TIP3    H245518   6.911   1.888  14.608
 8035TIP3   OH245519   7.074   1.976  14.155
 8035TIP3    H145520   7.004   2.041  14.148
 8035TIP3    H245521   7.029   1.894  14.184
 8036TIP3   OH245522   5.800   3.555  14.135
 8036TIP3    H145523   5.737   3.554  14.059
 8036TIP3    H245524   5.801   3.652  14.146
 8037TIP3   OH245525   5.993   2.155  13.879
 8037TIP3    H145526   6.046   2.094  13.826
 8037TIP3    H245527   6.059   2.188  13.943
 8038TIP3   OH245528   6.496   2.180  14.119
 8038TIP3    H145529   6.521   2.122  14.194
 8038TIP3    H245530   6.503   2.266  14.165
 8039TIP3   OH245531   6.688   3.687  13.964
 8039TIP3    H145532   6.780   3.710  13.942
 8039TIP3    H245533   6.667   3.635  13.884
 8040TIP3   OH245534   5.921   2.039  15.399
 8040TIP3    H145535   5.882   1.960  15.442
 8040TIP3    H245536   6.012   2.035  15.437
 8041TIP3   OH245537   6.123   1.979  15.563
 8041TIP3    H145538   6.211   1.943  15.541
 8041TIP3    H245539   6.084   1.899  15.606
 8042TIP3   OH245540   5.981   3.655  13.825
 8042TIP3    H145541   5.955   3.680  13.915
 8042TIP3    H245542   6.059   3.598  13.841
 8043TIP3   OH245543   6.964   1.908  15.580
 8043TIP3    H145544   6.972   1.861  15.665
 8043TIP3    H245545   7.055   1.906  15.544
 8044TIP3   OH245546   7.265   3.501  15.455
 8044TIP3    H145547   7.197   3.494  15.384
 8044TIP3    H245548   7.264   3.598  15.466
 8045TIP3   OH245549   1.186   4.785  14.440
 8045TIP3    H145550   1.184   4.883  14.439
 8045TIP3    H245551   1.112   4.762  14.381
 8046TIP3   OH245552   1.070   4.710  14.792
 8046TIP3    H145553   1.070   4.645  14.864
 8046TIP3    H245554   1.036   4.660  14.716
 8047TIP3   OH245555   0.311   4.677  14.943
 8047TIP3    H145556   0.317   4.610  15.015
 8047TIP3    H245557   0.381   4.738  14.971
 8048TIP3   OH245558   1.440   5.006  14.620
 8048TIP3    H145559   1.397   4.935  14.668
 8048TIP3    H245560   1.442   5.077  14.687
 8049TIP3   OH245561   0.398   5.121  14.799
 8049TIP3    H145562   0.367   5.036  14.764
 8049TIP3    H245563   0.494   5.105  14.801
 8050TIP3   OH245564   0.090   4.478  14.304
 8050TIP3    H145565   0.045   4.558  14.342
 8050TIP3    H245566   0.010   4.425  14.304
 8051TIP3   OH245567   0.130   4.694  14.556
 8051TIP3    H145568   0.160   4.619  14.608
 8051TIP3    H245569   0.204   4.712  14.496
 8052TIP3   OH245570   1.151   5.521  14.644
 8052TIP3    H145571   1.216   5.453  14.615
 8052TIP3    H245572   1.130   5.488  14.731
 8053TIP3   OH245573   0.908   4.951  14.839
 8053TIP3    H145574   0.942   4.888  14.773
 8053TIP3    H245575   0.989   4.966  14.890
 8054TIP3   OH245576   1.765   4.118  14.912
 8054TIP3    H145577   1.786   4.175  14.989
 8054TIP3    H245578   1.825   4.158  14.847
 8055TIP3   OH245579   1.225   4.396  14.872
 8055TIP3    H145580   1.241   4.301  14.865
 8055TIP3    H245581   1.214   4.415  14.776
 8056TIP3   OH245582   0.537   4.207  14.593
 8056TIP3    H145583   0.548   4.289  14.542
 8056TIP3    H245584   0.498   4.149  14.523
 8057TIP3   OH245585   1.310   4.214  14.429
 8057TIP3    H145586   1.375   4.183  14.495
 8057TIP3    H245587   1.366   4.272  14.375
 8058TIP3   OH245588   0.195   4.439  14.659
 8058TIP3    H145589   0.268   4.392  14.706
 8058TIP3    H245590   0.214   4.411  14.569
 8059TIP3   OH245591   0.714   4.603  14.597
 8059TIP3    H145592   0.782   4.545  14.637
 8059TIP3    H245593   0.663   4.537  14.546
 8060TIP3   OH245594   1.808   4.255  15.138
 8060TIP3    H145595   1.752   4.335  15.125
 8060TIP3    H245596   1.817   4.252  15.234
 8061TIP3   OH245597   0.431   4.097  14.995
 8061TIP3    H145598   0.400   4.153  14.922
 8061TIP3    H245599   0.363   4.119  15.063
 8062TIP3   OH245600   1.156   5.044  14.350
 8062TIP3    H145601   1.130   5.017  14.262
 8062TIP3    H245602   1.125   5.138  14.356
 8063TIP3   OH245603   0.681   4.861  15.020
 8063TIP3    H145604   0.609   4.924  15.042
 8063TIP3    H245605   0.750   4.921  14.990
 8064TIP3   OH245606   1.488   4.151  14.632
 8064TIP3    H145607   1.472   4.070  14.680
 8064TIP3    H245608   1.559   4.193  14.684
 8065TIP3   OH245609   0.382   4.280  14.799
 8065TIP3    H145610   0.444   4.350  14.832
 8065TIP3    H245611   0.436   4.241  14.726
 8066TIP3   OH245612   0.522   5.059  15.100
 8066TIP3    H145613   0.518   5.152  15.068
 8066TIP3    H245614   0.434   5.052  15.145
 8067TIP3   OH245615   0.128   5.026  14.176
 8067TIP3    H145616   0.108   5.059  14.087
 8067TIP3    H245617   0.139   5.107  14.230
 8068TIP3   OH245618   1.492   5.189  14.857
 8068TIP3    H145619   1.395   5.200  14.869
 8068TIP3    H245620   1.519   5.281  14.836
 8069TIP3   OH245621   1.523   4.023  14.994
 8069TIP3    H145622   1.464   4.092  14.966
 8069TIP3    H245623   1.603   4.053  14.944
 8070TIP3   OH245624   0.821   3.830  14.742
 8070TIP3    H145625   0.808   3.734  14.735
 8070TIP3    H245626   0.733   3.860  14.773
 8071TIP3   OH245627   1.318   5.368  14.516
 8071TIP3    H145628   1.361   5.296  14.465
 8071TIP3    H245629   1.362   5.447  14.476
 8072TIP3   OH245630   1.440   5.160  14.368
 8072TIP3    H145631   1.409   5.091  14.307
 8072TIP3    H245632   1.443   5.111  14.452
 8073TIP3   OH245633   1.601   5.020  15.217
 8073TIP3    H145634   1.616   4.955  15.145
 8073TIP3    H245635   1.622   5.104  15.172
 8074TIP3   OH245636   1.051   4.708  14.193
 8074TIP3    H145637   0.981   4.766  14.157
 8074TIP3    H245638   1.122   4.718  14.127
 8075TIP3   OH245639   1.059   4.566  13.894
 8075TIP3    H145640   1.129   4.564  13.961
 8075TIP3    H245641   1.090   4.494  13.837
 8076TIP3   OH245642   1.791   4.651  15.023
 8076TIP3    H145643   1.724   4.722  15.025
 8076TIP3    H245644   1.839   4.674  14.941
 8077TIP3   OH245645   1.397   4.730  14.285
 8077TIP3    H145646   1.322   4.754  14.345
 8077TIP3    H245647   1.443   4.662  14.337
 8078TIP3   OH245648   1.387   4.544  15.198
 8078TIP3    H145649   1.390   4.628  15.249
 8078TIP3    H245650   1.325   4.577  15.129
 8079TIP3   OH245651   0.559   4.797  14.477
 8079TIP3    H145652   0.523   4.757  14.394
 8079TIP3    H245653   0.619   4.727  14.510
 8080TIP3   OH245654   0.689   5.134  14.745
 8080TIP3    H145655   0.689   5.082  14.664
 8080TIP3    H245656   0.767   5.099  14.791
 8081TIP3   OH245657   0.593   4.670  14.843
 8081TIP3    H145658   0.646   4.681  14.762
 8081TIP3    H245659   0.629   4.738  14.904
 8082TIP3   OH245660   1.231   5.228  14.913
 8082TIP3    H145661   1.202   5.292  14.979
 8082TIP3    H245662   1.205   5.143  14.956
 8083TIP3   OH245663   0.685   5.113  15.313
 8083TIP3    H145664   0.644   5.187  15.362
 8083TIP3    H245665   0.618   5.094  15.243
 8084TIP3   OH245666   1.283   4.650  14.052
 8084TIP3    H145667   1.339   4.668  14.132
 8084TIP3    H245668   1.329   4.700  13.980
 8085TIP3   OH245669   0.379   4.731  15.231
 8085TIP3    H145670   0.384   4.799  15.300
 8085TIP3    H245671   0.285   4.739  15.208
 8086TIP3   OH245672   1.055   5.322  14.399
 8086TIP3    H145673   1.098   5.353  14.480
 8086TIP3    H245674   0.999   5.397  14.375
 8087TIP3   OH245675   0.510   5.316  15.387
 8087TIP3    H145676   0.502   5.308  15.290
 8087TIP3    H245677   0.416   5.303  15.414
 8088TIP3   OH245678   1.656   3.823  14.042
 8088TIP3    H145679   1.561   3.835  14.066
 8088TIP3    H245680   1.676   3.907  13.998
 8089TIP3   OH245681   0.455   4.697  14.240
 8089TIP3    H145682   0.426   4.775  14.188
 8089TIP3    H245683   0.390   4.631  14.216
 8090TIP3   OH245684   1.767   5.259  13.877
 8090TIP3    H145685   1.784   5.353  13.894
 8090TIP3    H245686   1.859   5.227  13.877
 8091TIP3   OH245687   0.122   4.928  15.103
 8091TIP3    H145688   0.045   4.941  15.044
 8091TIP3    H245689   0.085   4.849  15.149
 8092TIP3   OH245690   0.069   5.239  14.778
 8092TIP3    H145691   0.151   5.198  14.807
 8092TIP3    H245692   0.040   5.285  14.858
 8093TIP3   OH245693   1.861   5.285  15.372
 8093TIP3    H145694   1.850   5.189  15.373
 8093TIP3    H245695   1.776   5.310  15.415
 8094TIP3   OH245696   0.958   5.239  15.262
 8094TIP3    H145697   0.964   5.323  15.314
 8094TIP3    H245698   0.871   5.203  15.286
 8095TIP3   OH245699   1.003   5.613  14.240
 8095TIP3    H145700   0.992   5.605  14.144
 8095TIP3    H245701   1.003   5.709  14.256
 8096TIP3   OH245702   0.365   5.502  14.422
 8096TIP3    H145703   0.380   5.461  14.510
 8096TIP3    H245704   0.282   5.458  14.398
 8097TIP3   OH245705   1.308   5.535  13.939
 8097TIP3    H145706   1.354   5.459  13.895
 8097TIP3    H245707   1.312   5.508  14.033
 8098TIP3   OH245708   1.278   5.528  14.216
 8098TIP3    H145709   1.181   5.536  14.233
 8098TIP3    H245710   1.301   5.454  14.274
 8099TIP3   OH245711   1.583   4.432  15.417
 8099TIP3    H145712   1.530   4.479  15.350
 8099TIP3    H245713   1.574   4.340  15.390
 8100TIP3   OH245714   0.293   5.081  15.229
 8100TIP3    H145715   0.311   5.036  15.314
 8100TIP3    H245716   0.210   5.036  15.200
 8101TIP3   OH245717   0.560   3.921  14.817
 8101TIP3    H145718   0.470   3.909  14.780
 8101TIP3    H245719   0.546   4.004  14.866
 8102TIP3   OH245720   1.026   3.890  15.155
 8102TIP3    H145721   1.061   3.843  15.233
 8102TIP3    H245722   0.928   3.876  15.166
 8103TIP3   OH245723   1.345   4.267  15.235
 8103TIP3    H145724   1.298   4.252  15.321
 8103TIP3    H245725   1.337   4.364  15.222
 8104TIP3   OH245726   1.428   4.753  13.833
 8104TIP3    H145727   1.426   4.734  13.737
 8104TIP3    H245728   1.514   4.798  13.838
 8105TIP3   OH245729   0.988   4.146  13.884
 8105TIP3    H145730   0.956   4.139  13.976
 8105TIP3    H245731   0.957   4.058  13.854
 8106TIP3   OH245732   0.568   4.417  14.942
 8106TIP3    H145733   0.495   4.417  15.008
 8106TIP3    H245734   0.566   4.509  14.906
 8107TIP3   OH245735   0.568   4.430  14.429
 8107TIP3    H145736   0.474   4.405  14.415
 8107TIP3    H245737   0.605   4.400  14.344
 8108TIP3   OH245738   1.118   4.479  14.308
 8108TIP3    H145739   1.078   4.561  14.270
 8108TIP3    H245740   1.186   4.462  14.241
 8109TIP3   OH245741   1.022   4.501  15.450
 8109TIP3    H145742   0.971   4.422  15.480
 8109TIP3    H245743   1.107   4.489  15.495
 8110TIP3   OH245744   1.221   4.429  14.591
 8110TIP3    H145745   1.193   4.485  14.517
 8110TIP3    H245746   1.230   4.344  14.544
 8111TIP3   OH245747   0.333   4.441  15.111
 8111TIP3    H145748   0.335   4.483  15.198
 8111TIP3    H245749   0.284   4.360  15.131
 8112TIP3   OH245750   0.669   4.182  13.796
 8112TIP3    H145751   0.624   4.140  13.872
 8112TIP3    H245752   0.598   4.225  13.747
 8113TIP3   OH245753   0.036   4.186  14.490
 8113TIP3    H145754   0.068   4.151  14.576
 8113TIP3    H245755   0.049   4.110  14.433
 8114TIP3   OH245756   0.123   4.240  14.042
 8114TIP3    H145757   0.179   4.296  13.983
 8114TIP3    H245758   0.050   4.296  14.066
 8115TIP3   OH245759   1.142   4.586  15.047
 8115TIP3    H145760   1.178   4.518  14.987
 8115TIP3    H245761   1.093   4.535  15.113
 8116TIP3   OH245762   0.821   4.185  14.530
 8116TIP3    H145763   0.728   4.185  14.559
 8116TIP3    H245764   0.869   4.168  14.612
 8117TIP3   OH245765   0.303   4.339  14.416
 8117TIP3    H145766   0.216   4.357  14.376
 8117TIP3    H245767   0.327   4.254  14.374
 8118TIP3   OH245768   0.666   4.344  14.179
 8118TIP3    H145769   0.762   4.356  14.195
 8118TIP3    H245770   0.641   4.413  14.115
 8119TIP3   OH245771   1.261   4.102  14.859
 8119TIP3    H145772   1.183   4.116  14.916
 8119TIP3    H245773   1.216   4.084  14.774
 8120TIP3   OH245774   0.538   4.461  13.937
 8120TIP3    H145775   0.484   4.425  13.865
 8120TIP3    H245776   0.620   4.483  13.890
 8121TIP3   OH245777   1.581   5.672  15.490
 8121TIP3    H145778   1.608   5.709  15.404
 8121TIP3    H245779   1.654   5.703  15.546
 8122TIP3   OH245780   0.347   4.917  15.446
 8122TIP3    H145781   0.420   4.942  15.505
 8122TIP3    H245782   0.272   4.929  15.506
 8123TIP3   OH245783   0.948   4.460  14.718
 8123TIP3    H145784   1.009   4.407  14.666
 8123TIP3    H245785   0.933   4.406  14.797
 8124TIP3   OH245786   0.449   4.076  14.362
 8124TIP3    H145787   0.418   3.984  14.362
 8124TIP3    H245788   0.529   4.068  14.308
 8125TIP3   OH245789   0.814   4.293  14.960
 8125TIP3    H145790   0.731   4.344  14.968
 8125TIP3    H245791   0.867   4.330  15.033
 8126TIP3   OH245792   0.872   4.915  14.130
 8126TIP3    H145793   0.792   4.869  14.097
 8126TIP3    H245794   0.849   4.928  14.225
 8127TIP3   OH245795   1.591   4.835  15.010
 8127TIP3    H145796   1.647   4.884  14.947
 8127TIP3    H245797   1.505   4.840  14.964
 8128TIP3   OH245798   1.255   4.197  13.948
 8128TIP3    H145799   1.160   4.212  13.934
 8128TIP3    H245800   1.289   4.282  13.983
 8129TIP3   OH245801   1.021   4.942  15.254
 8129TIP3    H145802   0.986   4.899  15.333
 8129TIP3    H245803   0.996   5.034  15.265
 8130TIP3   OH245804   1.329   4.389  14.110
 8130TIP3    H145805   1.417   4.375  14.151
 8130TIP3    H245806   1.339   4.471  14.059
 8131TIP3   OH245807   0.382   4.855  14.709
 8131TIP3    H145808   0.450   4.847  14.640
 8131TIP3    H245809   0.392   4.771  14.757
 8132TIP3   OH245810   1.081   5.062  14.033
 8132TIP3    H145811   1.047   5.147  14.069
 8132TIP3    H245812   1.008   5.000  14.055
 8133TIP3   OH245813   0.079   4.693  15.236
 8133TIP3    H145814   0.105   4.649  15.320
 8133TIP3    H245815   0.020   4.629  15.194
 8134TIP3   OH245816   0.783   4.651  15.455
 8134TIP3    H145817   0.751   4.620  15.369
 8134TIP3    H245818   0.875   4.619  15.454
 8135TIP3   OH245819   1.252   5.184  15.249
 8135TIP3    H145820   1.159   5.202  15.226
 8135TIP3    H245821   1.249   5.214  15.342
 8136TIP3   OH245822   1.819   4.402  14.088
 8136TIP3    H145823   1.762   4.374  14.014
 8136TIP3    H245824   1.826   4.497  14.063
 8137TIP3   OH245825   1.817   4.986  15.368
 8137TIP3    H145826   1.729   5.012  15.332
 8137TIP3    H245827   1.872   4.986  15.286
 8138TIP3   OH245828   1.644   5.285  14.127
 8138TIP3    H145829   1.611   5.202  14.162
 8138TIP3    H245830   1.680   5.263  14.040
 8139TIP3   OH245831   1.368   4.767  14.839
 8139TIP3    H145832   1.274   4.746  14.828
 8139TIP3    H245833   1.411   4.691  14.795
 8140TIP3   OH245834   0.619   5.201  14.450
 8140TIP3    H145835   0.670   5.281  14.428
 8140TIP3    H245836   0.531   5.224  14.417
 8141TIP3   OH245837   0.192   4.684  13.909
 8141TIP3    H145838   0.256   4.750  13.945
 8141TIP3    H245839   0.106   4.720  13.936
 8142TIP3   OH245840   0.761   4.967  14.399
 8142TIP3    H145841   0.730   5.059  14.410
 8142TIP3    H245842   0.690   4.917  14.445
 8143TIP3   OH245843   0.808   5.385  15.041
 8143TIP3    H145844   0.853   5.466  15.013
 8143TIP3    H245845   0.870   5.351  15.108
 8144TIP3   OH245846   0.629   5.466  14.353
 8144TIP3    H145847   0.533   5.480  14.366
 8144TIP3    H245848   0.666   5.549  14.387
 8145TIP3   OH245849   1.158   4.984  15.003
 8145TIP3    H145850   1.127   4.965  15.094
 8145TIP3    H245851   1.223   4.914  14.987
 8146TIP3   OH245852   1.393   5.093  13.912
 8146TIP3    H145853   1.423   5.045  13.993
 8146TIP3    H245854   1.298   5.074  13.920
 8147TIP3   OH245855   1.441   5.443  15.252
 8147TIP3    H145856   1.372   5.394  15.204
 8147TIP3    H245857   1.459   5.513  15.186
 8148TIP3   OH245858   1.839   5.528  13.938
 8148TIP3    H145859   1.908   5.594  13.917
 8148TIP3    H245860   1.768   5.589  13.966
 8149TIP3   OH245861   0.247   4.169  15.186
 8149TIP3    H145862   0.158   4.206  15.196
 8149TIP3    H245863   0.236   4.085  15.235
 8150TIP3   OH245864   1.471   4.956  14.136
 8150TIP3    H145865   1.447   4.877  14.190
 8150TIP3    H245866   1.566   4.960  14.154
 8151TIP3   OH245867   0.225   5.352  15.029
 8151TIP3    H145868   0.237   5.256  15.035
 8151TIP3    H245869   0.234   5.375  15.122
 8152TIP3   OH245870   0.806   5.200  13.762
 8152TIP3    H145871   0.816   5.123  13.703
 8152TIP3    H245872   0.762   5.157  13.838
 8153TIP3   OH245873   0.683   5.152  14.007
 8153TIP3    H145874   0.710   5.101  14.084
 8153TIP3    H245875   0.692   5.245  14.039
 8154TIP3   OH245876   0.332   4.877  14.055
 8154TIP3    H145877   0.261   4.916  14.110
 8154TIP3    H245878   0.385   4.955  14.027
 8155TIP3   OH245879   1.123   4.142  15.085
 8155TIP3    H145880   1.171   4.163  15.165
 8155TIP3    H245881   1.072   4.061  15.109
 8156TIP3   OH245882   1.194   4.102  14.196
 8156TIP3    H145883   1.217   4.149  14.113
 8156TIP3    H245884   1.253   4.147  14.258
 8157TIP3   OH245885   0.964   5.319  14.077
 8157TIP3    H145886   0.882   5.372  14.084
 8157TIP3    H245887   1.017   5.374  14.018
 8158TIP3   OH245888   0.918   4.278  14.278
 8158TIP3    H145889   0.996   4.336  14.283
 8158TIP3    H245890   0.891   4.265  14.371
 8159TIP3   OH245891   0.976   4.381  15.196
 8159TIP3    H145892   0.979   4.436  15.277
 8159TIP3    H245893   1.039   4.311  15.210
 8160TIP3   OH245894   1.003   3.984  14.367
 8160TIP3    H145895   0.970   4.049  14.431
 8160TIP3    H245896   1.072   4.038  14.322
 8161TIP3   OH245897   0.704   5.421  14.080
 8161TIP3    H145898   0.713   5.503  14.024
 8161TIP3    H245899   0.676   5.459  14.167
 8162TIP3   OH245900   0.569   4.094  14.037
 8162TIP3    H145901   0.563   4.184  14.076
 8162TIP3    H245902   0.660   4.070  14.064
 8163TIP3   OH245903   1.589   4.165  15.281
 8163TIP3    H145904   1.499   4.203  15.271
 8163TIP3    H245905   1.623   4.169  15.190
 8164TIP3   OH245906   1.452   4.546  14.682
 8164TIP3    H145907   1.370   4.501  14.655
 8164TIP3    H245908   1.501   4.478  14.733
 8165TIP3   OH245909   0.390   5.139  13.941
 8165TIP3    H145910   0.457   5.202  13.972
 8165TIP3    H245911   0.443   5.092  13.874
 8166TIP3   OH245912   0.221   4.404  13.855
 8166TIP3    H145913   0.228   4.500  13.875
 8166TIP3    H245914   0.133   4.387  13.820
 8167TIP3   OH245915   1.558   5.472  14.850
 8167TIP3    H145916   1.550   5.540  14.780
 8167TIP3    H245917   1.655   5.477  14.867
 8168TIP3   OH245918   0.311   3.883  14.728
 8168TIP3    H145919   0.288   3.886  14.632
 8168TIP3    H245920   0.266   3.800  14.755
 8169TIP3   OH245921   0.205   5.277  14.347
 8169TIP3    H145922   0.119   5.319  14.341
 8169TIP3    H245923   0.252   5.323  14.276
 8170TIP3   OH245924   0.153   5.546  15.473
 8170TIP3    H145925   0.196   5.522  15.557
 8170TIP3    H245926   0.102   5.464  15.456
 8171TIP3   OH245927   0.589   5.429  15.637
 8171TIP3    H145928   0.668   5.383  15.667
 8171TIP3    H245929   0.588   5.405  15.542
 8172TIP3   OH245930   1.005   5.385  13.774
 8172TIP3    H145931   0.936   5.319  13.797
 8172TIP3    H245932   1.077   5.325  13.749
 8173TIP3   OH245933   1.241   5.272  15.506
 8173TIP3    H145934   1.209   5.184  15.536
 8173TIP3    H245935   1.319   5.284  15.563
 8174TIP3   OH245936   1.461   5.359  13.793
 8174TIP3    H145937   1.491   5.281  13.843
 8174TIP3    H245938   1.537   5.382  13.738
 8175TIP3   OH245939   0.107   4.915  15.572
 8175TIP3    H145940   0.134   4.829  15.535
 8175TIP3    H245941   0.041   4.946  15.509
 8176TIP3   OH245942   0.550   4.953  13.774
 8176TIP3    H145943   0.563   4.877  13.832
 8176TIP3    H245944   0.625   4.942  13.713
 8177TIP3   OH245945   0.786   4.916  15.511
 8177TIP3    H145946   0.753   4.949  15.425
 8177TIP3    H245947   0.793   4.819  15.499
 8178TIP3   OH245948   1.093   5.064  13.752
 8178TIP3    H145949   1.064   5.073  13.845
 8178TIP3    H245950   1.074   4.968  13.738
 8179TIP3   OH245951   1.356   4.903  15.251
 8179TIP3    H145952   1.435   4.962  15.244
 8179TIP3    H245953   1.286   4.971  15.255
 8180TIP3   OH245954   0.201   4.641  15.509
 8180TIP3    H145955   0.249   4.557  15.501
 8180TIP3    H245956   0.185   4.642  15.605
 8181TIP3   OH245957   0.670   4.755  14.018
 8181TIP3    H145958   0.620   4.701  14.080
 8181TIP3    H245959   0.700   4.688  13.952
 8182TIP3   OH245960   0.596   4.535  15.246
 8182TIP3    H145961   0.536   4.607  15.272
 8182TIP3    H245962   0.636   4.573  15.166
 8183TIP3   OH245963   0.777   4.577  13.838
 8183TIP3    H145964   0.762   4.568  13.741
 8183TIP3    H245965   0.875   4.582  13.844
 8184TIP3   OH245966   1.103   4.794  15.584
 8184TIP3    H145967   1.198   4.790  15.566
 8184TIP3    H245968   1.087   4.716  15.639
 8185TIP3   OH245969   1.711   4.809  13.778
 8185TIP3    H145970   1.691   4.771  13.691
 8185TIP3    H245971   1.719   4.905  13.760
 8186TIP3   OH245972   0.642   4.275  15.350
 8186TIP3    H145973   0.649   4.203  15.285
 8186TIP3    H245974   0.630   4.355  15.296
 8187TIP3   OH245975   0.678   4.112  15.107
 8187TIP3    H145976   0.729   4.158  15.037
 8187TIP3    H245977   0.588   4.104  15.067
 8188TIP3   OH245978   0.831   4.661  15.132
 8188TIP3    H145979   0.907   4.644  15.075
 8188TIP3    H245980   0.795   4.744  15.098
 8189TIP3   OH245981   1.269   4.435  15.625
 8189TIP3    H145982   1.295   4.342  15.620
 8189TIP3    H245983   1.355   4.479  15.631
 8190TIP3   OH245984   1.407   4.716  15.446
 8190TIP3    H145985   1.380   4.787  15.383
 8190TIP3    H245986   1.502   4.712  15.424
 8191TIP3   OH245987   0.483   4.399  15.546
 8191TIP3    H145988   0.405   4.341  15.527
 8191TIP3    H245989   0.546   4.363  15.481
 8192TIP3   OH245990   0.756   3.855  15.147
 8192TIP3    H145991   0.737   3.951  15.137
 8192TIP3    H245992   0.682   3.818  15.096
 8193TIP3   OH245993   0.885   4.288  15.508
 8193TIP3    H145994   0.852   4.267  15.598
 8193TIP3    H245995   0.807   4.269  15.453
 8194TIP3   OH245996   1.155   4.197  15.412
 8194TIP3    H145997   1.060   4.209  15.430
 8194TIP3    H245998   1.181   4.140  15.487
 8195TIP3   OH245999   1.308   4.065  15.605
 8195TIP3    H146000   1.309   3.967  15.611
 8195TIP3    H246001   1.287   4.094  15.698
 8196TIP3   OH246002   0.307   4.190  15.524
 8196TIP3    H146003   0.317   4.117  15.461
 8196TIP3    H246004   0.285   4.144  15.607
 8197TIP3   OH246005   0.779   3.794  15.417
 8197TIP3    H146006   0.846   3.723  15.415
 8197TIP3    H246007   0.768   3.809  15.321
 8198TIP3   OH246008   0.812   3.954  15.627
 8198TIP3    H146009   0.796   3.904  15.543
 8198TIP3    H246010   0.756   4.033  15.616
 8199TIP3   OH246011   0.761   5.647  13.945
 8199TIP3    H146012   0.858   5.656  13.952
 8199TIP3    H246013   0.746   5.707  13.871
 8200TIP3   OH246014   0.120   5.105  13.894
 8200TIP3    H146015   0.216   5.116  13.911
 8200TIP3    H246016   0.124   5.040  13.820
 8201TIP3   OH246017   7.338   5.659  14.372
 8201TIP3    H146018   7.247   5.638  14.341
 8201TIP3    H246019   7.347   5.596  14.447
 8202TIP3   OH246020   0.079   5.461  14.572
 8202TIP3    H146021   0.044   5.372  14.595
 8202TIP3    H246022   0.104   5.489  14.662
 8203TIP3   OH246023   1.830   5.536  14.869
 8203TIP3    H146024   1.834   5.552  14.965
 8203TIP3    H246025   1.901   5.595  14.839
 8204TIP3   OH246026   1.787   5.496  15.164
 8204TIP3    H146027   1.741   5.419  15.126
 8204TIP3    H246028   1.836   5.451  15.235
 8205TIP3   OH246029   1.634   5.064  15.633
 8205TIP3    H146030   1.542   5.065  15.668
 8205TIP3    H246031   1.668   5.147  15.674
 8206TIP3   OH246032   1.764   4.901  14.174
 8206TIP3    H146033   1.850   4.940  14.192
 8206TIP3    H246034   1.762   4.829  14.241
 8207TIP3   OH246035   1.800   4.709  14.363
 8207TIP3    H146036   1.725   4.659  14.402
 8207TIP3    H246037   1.860   4.722  14.439
 8208TIP3   OH246038   1.776   4.978  14.861
 8208TIP3    H146039   1.857   4.940  14.823
 8208TIP3    H246040   1.790   5.074  14.844
 8209TIP3   OH246041   1.631   5.268  15.088
 8209TIP3    H146042   1.562   5.303  15.147
 8209TIP3    H246043   1.577   5.228  15.017
 8210TIP3   OH246044   1.830   4.691  14.002
 8210TIP3    H146045   1.773   4.725  13.930
 8210TIP3    H246046   1.820   4.762  14.068
 8211TIP3   OH246047   1.667   4.414  13.853
 8211TIP3    H146048   1.675   4.480  13.784
 8211TIP3    H246049   1.649   4.331  13.804
 8212TIP3   OH246050   1.582   4.556  14.420
 8212TIP3    H146051   1.567   4.460  14.416
 8212TIP3    H246052   1.549   4.577  14.509
 8213TIP3   OH246053   0.084   4.763  14.818
 8213TIP3    H146054   0.104   4.759  14.722
 8213TIP3    H246055   0.172   4.752  14.860
 8214TIP3   OH246056   1.667   4.751  15.392
 8214TIP3    H146057   1.729   4.677  15.397
 8214TIP3    H246058   1.726   4.830  15.386
 8215TIP3   OH246059   1.818   4.539  15.472
 8215TIP3    H146060   1.731   4.507  15.437
 8215TIP3    H246061   1.871   4.466  15.435
 8216TIP3   OH246062   1.592   4.161  13.767
 8216TIP3    H146063   1.651   4.117  13.831
 8216TIP3    H246064   1.506   4.120  13.782
 8217TIP3   OH246065   1.546   4.314  14.261
 8217TIP3    H146066   1.578   4.222  14.277
 8217TIP3    H246067   1.629   4.355  14.231
 8218TIP3   OH246068   1.612   4.365  14.812
 8218TIP3    H146069   1.707   4.391  14.807
 8218TIP3    H246070   1.595   4.386  14.905
 8219TIP3   OH246071   1.618   4.441  15.086
 8219TIP3    H146072   1.531   4.472  15.120
 8219TIP3    H246073   1.663   4.526  15.065
 8220TIP3   OH246074   0.072   4.281  15.439
 8220TIP3    H146075   0.160   4.262  15.474
 8220TIP3    H246076   0.014   4.213  15.482
 8221TIP3   OH246077   1.848   3.849  15.622
 8221TIP3    H146078   1.879   3.779  15.562
 8221TIP3    H246079   1.856   3.928  15.566
 8222TIP3   OH246080   1.616   4.043  14.270
 8222TIP3    H146081   1.637   3.999  14.355
 8222TIP3    H246082   1.556   3.979  14.226
 8223TIP3   OH246083   0.168   4.119  14.722
 8223TIP3    H146084   0.214   4.040  14.754
 8223TIP3    H246085   0.218   4.190  14.766
 8224TIP3   OH246086   0.050   4.499  14.866
 8224TIP3    H146087   0.054   4.456  14.778
 8224TIP3    H246088   0.058   4.591  14.838
 8225TIP3   OH246089   1.805   4.063  15.457
 8225TIP3    H146090   1.708   4.082  15.455
 8225TIP3    H246091   1.804   4.001  15.382
 8226TIP3   OH246092   1.797   4.046  13.925
 8226TIP3    H146093   1.839   3.975  13.872
 8226TIP3    H246094   1.868   4.113  13.931
 8227TIP3   OH246095   0.076   4.045  14.194
 8227TIP3    H146096  -0.019   4.064  14.206
 8227TIP3    H246097   0.098   4.121  14.136
 8228TIP3   OH246098   1.503   5.545  14.432
 8228TIP3    H146099   1.571   5.515  14.370
 8228TIP3    H246100   1.554   5.595  14.497
 8229TIP3   OH246101   7.355   3.912  15.088
 8229TIP3    H146102   7.276   3.891  15.140
 8229TIP3    H246103   7.307   3.963  15.021
 8230TIP3   OH246104   0.244   5.239  15.484
 8230TIP3    H146105   0.159   5.256  15.442
 8230TIP3    H246106   0.219   5.229  15.576
 8231TIP3   OH246107   0.541   5.338  15.114
 8231TIP3    H146108   0.501   5.421  15.083
 8231TIP3    H246109   0.632   5.347  15.079
 8232TIP3   OH246110   0.969   5.477  15.401
 8232TIP3    H146111   0.983   5.443  15.493
 8232TIP3    H246112   1.060   5.508  15.378
 8233TIP3   OH246113   1.198   5.605  15.332
 8233TIP3    H146114   1.272   5.546  15.308
 8233TIP3    H246115   1.236   5.649  15.411
 8234TIP3   OH246116   1.701   3.867  15.243
 8234TIP3    H146117   1.618   3.894  15.202
 8234TIP3    H246118   1.721   3.785  15.193
 8235TIP3   OH246119   0.283   5.660  15.112
 8235TIP3    H146120   0.208   5.709  15.073
 8235TIP3    H246121   0.249   5.641  15.201
 8236TIP3   OH246122   0.528   5.618  15.016
 8236TIP3    H146123   0.439   5.631  15.056
 8236TIP3    H246124   0.523   5.677  14.939
 8237TIP3   OH246125   0.998   5.609  14.934
 8237TIP3    H146126   0.951   5.664  14.870
 8237TIP3    H246127   1.011   5.672  15.008
 8238TIP3   OH246128   1.226   5.489  15.037
 8238TIP3    H146129   1.141   5.517  15.000
 8238TIP3    H246130   1.275   5.573  15.028
 8239TIP3   OH246131   1.485   5.646  15.059
 8239TIP3    H146132   1.479   5.742  15.037
 8239TIP3    H246133   1.506   5.609  14.972
 8240TIP3   OH246134   0.221   5.524  14.803
 8240TIP3    H146135   0.220   5.479  14.890
 8240TIP3    H246136   0.302   5.487  14.765
 8241TIP3   OH246137   0.431   5.396  14.670
 8241TIP3    H146138   0.415   5.302  14.694
 8241TIP3    H246139   0.517   5.411  14.714
 8242TIP3   OH246140   0.692   5.443  14.758
 8242TIP3    H146141   0.710   5.351  14.731
 8242TIP3    H246142   0.699   5.438  14.854
 8243TIP3   OH246143   1.043   4.008  14.675
 8243TIP3    H146144   0.971   3.946  14.698
 8243TIP3    H246145   1.093   3.956  14.611
 8244TIP3   OH246146   1.553   3.817  14.681
 8244TIP3    H146147   1.615   3.872  14.626
 8244TIP3    H246148   1.465   3.849  14.652
 8245TIP3   OH246149   1.719   3.939  14.506
 8245TIP3    H146150   1.788   3.881  14.464
 8245TIP3    H246151   1.770   4.022  14.516
 8246TIP3   OH246152   0.277   3.870  14.459
 8246TIP3    H146153   0.200   3.850  14.402
 8246TIP3    H246154   0.326   3.786  14.449
 8247TIP3   OH246155   0.155   3.844  14.024
 8247TIP3    H146156   0.206   3.911  13.975
 8247TIP3    H246157   0.099   3.901  14.080
 8248TIP3   OH246158   0.723   3.864  14.435
 8248TIP3    H146159   0.814   3.900  14.427
 8248TIP3    H246160   0.720   3.842  14.528
 8249TIP3   OH246161   1.296   3.865  14.600
 8249TIP3    H146162   1.291   3.878  14.504
 8249TIP3    H246163   1.257   3.774  14.609
 8250TIP3   OH246164   1.422   3.869  14.165
 8250TIP3    H146165   1.347   3.928  14.150
 8250TIP3    H246166   1.378   3.783  14.189
 8251TIP3   OH246167   0.145   5.445  14.134
 8251TIP3    H146168   0.085   5.442  14.058
 8251TIP3    H246169   0.147   5.541  14.148
 8252TIP3   OH246170   0.335   4.041  13.882
 8252TIP3    H146171   0.388   3.981  13.827
 8252TIP3    H246172   0.405   4.072  13.943
 8253TIP3   OH246173   0.839   4.065  14.120
 8253TIP3    H146174   0.864   4.007  14.193
 8253TIP3    H246175   0.846   4.152  14.165
 8254TIP3   OH246176   1.032   5.573  13.964
 8254TIP3    H146177   1.124   5.595  13.942
 8254TIP3    H246178   1.010   5.521  13.884
 8255TIP3   OH246179   1.701   5.523  14.236
 8255TIP3    H146180   1.683   5.444  14.179
 8255TIP3    H246181   1.695   5.596  14.172
 8256TIP3   OH246182   0.259   3.926  15.403
 8256TIP3    H146183   0.225   3.842  15.440
 8256TIP3    H246184   0.352   3.921  15.437
 8257TIP3   OH246185   0.466   3.863  15.562
 8257TIP3    H146186   0.554   3.827  15.541
 8257TIP3    H246187   0.425   3.784  15.604
 8258TIP3   OH246188   0.322   5.534  13.825
 8258TIP3    H146189   0.299   5.565  13.913
 8258TIP3    H246190   0.405   5.485  13.840
 8259TIP3   OH246191   1.306   3.792  15.579
 8259TIP3    H146192   1.315   3.746  15.665
 8259TIP3    H246193   1.398   3.788  15.547
 8260TIP3   OH246194   1.626   5.397  15.446
 8260TIP3    H146195   1.547   5.384  15.390
 8260TIP3    H246196   1.615   5.492  15.466
 8261TIP3   OH246197   3.075   4.784  14.441
 8261TIP3    H146198   3.070   4.882  14.440
 8261TIP3    H246199   2.999   4.761  14.383
 8262TIP3   OH246200   2.959   4.709  14.791
 8262TIP3    H146201   2.954   4.646  14.864
 8262TIP3    H246202   2.921   4.660  14.717
 8263TIP3   OH246203   2.191   4.678  14.948
 8263TIP3    H146204   2.200   4.609  15.016
 8263TIP3    H246205   2.266   4.735  14.969
 8264TIP3   OH246206   3.328   5.004  14.621
 8264TIP3    H146207   3.281   4.937  14.671
 8264TIP3    H246208   3.327   5.078  14.685
 8265TIP3   OH246209   2.284   5.123  14.797
 8265TIP3    H146210   2.253   5.036  14.765
 8265TIP3    H246211   2.380   5.105  14.801
 8266TIP3   OH246212   1.948   4.479  14.346
 8266TIP3    H146213   1.904   4.566  14.340
 8266TIP3    H246214   1.892   4.425  14.289
 8267TIP3   OH246215   2.019   4.701  14.561
 8267TIP3    H146216   2.047   4.619  14.606
 8267TIP3    H246217   2.089   4.712  14.494
 8268TIP3   OH246218   3.037   5.521  14.644
 8268TIP3    H146219   3.102   5.453  14.615
 8268TIP3    H246220   3.015   5.488  14.731
 8269TIP3   OH246221   2.794   4.950  14.839
 8269TIP3    H146222   2.829   4.887  14.773
 8269TIP3    H246223   2.875   4.967  14.891
 8270TIP3   OH246224   3.649   4.122  14.909
 8270TIP3    H146225   3.673   4.172  14.990
 8270TIP3    H246226   3.713   4.157  14.846
 8271TIP3   OH246227   3.114   4.396  14.871
 8271TIP3    H146228   3.125   4.299  14.872
 8271TIP3    H246229   3.097   4.411  14.776
 8272TIP3   OH246230   2.422   4.206  14.592
 8272TIP3    H146231   2.433   4.290  14.542
 8272TIP3    H246232   2.382   4.149  14.523
 8273TIP3   OH246233   3.196   4.216  14.431
 8273TIP3    H146234   3.261   4.181  14.495
 8273TIP3    H246235   3.252   4.271  14.374
 8274TIP3   OH246236   2.084   4.447  14.666
 8274TIP3    H146237   2.152   4.393  14.711
 8274TIP3    H246238   2.095   4.416  14.575
 8275TIP3   OH246239   2.600   4.603  14.597
 8275TIP3    H146240   2.667   4.545  14.637
 8275TIP3    H246241   2.548   4.537  14.547
 8276TIP3   OH246242   3.696   4.258  15.137
 8276TIP3    H146243   3.636   4.334  15.130
 8276TIP3    H246244   3.702   4.248  15.234
 8277TIP3   OH246245   2.312   4.095  14.996
 8277TIP3    H146246   2.286   4.153  14.921
 8277TIP3    H246247   2.244   4.121  15.063
 8278TIP3   OH246248   3.041   5.044  14.350
 8278TIP3    H146249   3.015   5.017  14.261
 8278TIP3    H246250   3.011   5.138  14.355
 8279TIP3   OH246251   2.564   4.861  15.020
 8279TIP3    H146252   2.494   4.925  15.042
 8279TIP3    H246253   2.635   4.920  14.991
 8280TIP3   OH246254   3.377   4.153  14.629
 8280TIP3    H146255   3.354   4.072  14.678
 8280TIP3    H246256   3.447   4.188  14.686
 8281TIP3   OH246257   2.270   4.281  14.800
 8281TIP3    H146258   2.332   4.351  14.830
 8281TIP3    H246259   2.322   4.241  14.725
 8282TIP3   OH246260   2.409   5.061  15.102
 8282TIP3    H146261   2.405   5.152  15.068
 8282TIP3    H246262   2.321   5.054  15.145
 8283TIP3   OH246263   2.017   5.022  14.181
 8283TIP3    H146264   1.992   5.056  14.093
 8283TIP3    H246265   2.025   5.105  14.232
 8284TIP3   OH246266   3.378   5.190  14.857
 8284TIP3    H146267   3.281   5.200  14.869
 8284TIP3    H246268   3.405   5.281  14.837
 8285TIP3   OH246269   3.409   4.017  14.996
 8285TIP3    H146270   3.337   4.080  14.987
 8285TIP3    H246271   3.481   4.058  14.945
 8286TIP3   OH246272   2.707   3.830  14.744
 8286TIP3    H146273   2.693   3.734  14.733
 8286TIP3    H246274   2.618   3.861  14.771
 8287TIP3   OH246275   3.204   5.368  14.516
 8287TIP3    H146276   3.247   5.296  14.465
 8287TIP3    H246277   3.247   5.447  14.477
 8288TIP3   OH246278   3.326   5.160  14.368
 8288TIP3    H146279   3.295   5.090  14.307
 8288TIP3    H246280   3.329   5.111  14.452
 8289TIP3   OH246281   3.486   5.020  15.217
 8289TIP3    H146282   3.502   4.955  15.145
 8289TIP3    H246283   3.507   5.105  15.173
 8290TIP3   OH246284   2.938   4.708  14.194
 8290TIP3    H146285   2.868   4.766  14.158
 8290TIP3    H246286   3.008   4.718  14.127
 8291TIP3   OH246287   2.945   4.566  13.894
 8291TIP3    H146288   3.015   4.564  13.961
 8291TIP3    H246289   2.975   4.494  13.837
 8292TIP3   OH246290   3.672   4.648  15.016
 8292TIP3    H146291   3.611   4.725  15.026
 8292TIP3    H246292   3.728   4.678  14.942
 8293TIP3   OH246293   3.284   4.731  14.286
 8293TIP3    H146294   3.206   4.755  14.343
 8293TIP3    H246295   3.327   4.661  14.336
 8294TIP3   OH246296   3.276   4.547  15.195
 8294TIP3    H146297   3.275   4.628  15.249
 8294TIP3    H246298   3.209   4.576  15.129
 8295TIP3   OH246299   2.442   4.796  14.477
 8295TIP3    H146300   2.410   4.757  14.392
 8295TIP3    H246301   2.504   4.727  14.510
 8296TIP3   OH246302   2.574   5.134  14.745
 8296TIP3    H146303   2.574   5.082  14.664
 8296TIP3    H246304   2.653   5.099  14.791
 8297TIP3   OH246305   2.475   4.671  14.843
 8297TIP3    H146306   2.530   4.680  14.763
 8297TIP3    H246307   2.514   4.737  14.904
 8298TIP3   OH246308   3.118   5.228  14.914
 8298TIP3    H146309   3.087   5.292  14.979
 8298TIP3    H246310   3.092   5.143  14.956
 8299TIP3   OH246311   2.571   5.114  15.313
 8299TIP3    H146312   2.529   5.187  15.362
 8299TIP3    H246313   2.503   5.094  15.243
 8300TIP3   OH246314   3.169   4.651  14.052
 8300TIP3    H146315   3.225   4.668  14.132
 8300TIP3    H246316   3.214   4.700  13.980
 8301TIP3   OH246317   2.263   4.726  15.234
 8301TIP3    H146318   2.270   4.798  15.299
 8301TIP3    H246319   2.172   4.741  15.203
 8302TIP3   OH246320   2.940   5.322  14.399
 8302TIP3    H146321   2.983   5.353  14.480
 8302TIP3    H246322   2.884   5.397  14.375
 8303TIP3   OH246323   2.395   5.317  15.387
 8303TIP3    H146324   2.389   5.307  15.291
 8303TIP3    H246325   2.302   5.304  15.414
 8304TIP3   OH246326   3.541   3.823  14.042
 8304TIP3    H146327   3.447   3.835  14.066
 8304TIP3    H246328   3.562   3.907  13.998
 8305TIP3   OH246329   2.339   4.698  14.239
 8305TIP3    H146330   2.311   4.776  14.188
 8305TIP3    H246331   2.274   4.631  14.215
 8306TIP3   OH246332   3.653   5.259  13.877
 8306TIP3    H146333   3.669   5.353  13.894
 8306TIP3    H246334   3.745   5.227  13.877
 8307TIP3   OH246335   1.948   4.941  15.127
 8307TIP3    H146336   1.903   4.933  15.042
 8307TIP3    H246337   1.956   4.846  15.148
 8308TIP3   OH246338   1.924   5.215  14.806
 8308TIP3    H146339   2.020   5.203  14.804
 8308TIP3    H246340   1.916   5.296  14.857
 8309TIP3   OH246341   3.747   5.285  15.372
 8309TIP3    H146342   3.736   5.189  15.373
 8309TIP3    H246343   3.662   5.310  15.415
 8310TIP3   OH246344   2.844   5.239  15.262
 8310TIP3    H146345   2.850   5.323  15.314
 8310TIP3    H246346   2.757   5.203  15.286
 8311TIP3   OH246347   2.888   5.613  14.240
 8311TIP3    H146348   2.877   5.605  14.144
 8311TIP3    H246349   2.888   5.709  14.256
 8312TIP3   OH246350   2.252   5.501  14.423
 8312TIP3    H146351   2.266   5.460  14.510
 8312TIP3    H246352   2.167   5.460  14.399
 8313TIP3   OH246353   3.194   5.535  13.939
 8313TIP3    H146354   3.239   5.459  13.895
 8313TIP3    H246355   3.198   5.508  14.033
 8314TIP3   OH246356   3.163   5.528  14.216
 8314TIP3    H146357   3.067   5.536  14.233
 8314TIP3    H246358   3.187   5.454  14.274
 8315TIP3   OH246359   3.463   4.432  15.419
 8315TIP3    H146360   3.415   4.477  15.348
 8315TIP3    H246361   3.461   4.339  15.391
 8316TIP3   OH246362   2.177   5.072  15.222
 8316TIP3    H146363   2.199   5.036  15.311
 8316TIP3    H246364   2.090   5.033  15.201
 8317TIP3   OH246365   2.444   3.918  14.822
 8317TIP3    H146366   2.356   3.908  14.779
 8317TIP3    H246367   2.432   4.006  14.863
 8318TIP3   OH246368   2.909   3.886  15.153
 8318TIP3    H146369   2.951   3.847  15.233
 8318TIP3    H246370   2.814   3.875  15.171
 8319TIP3   OH246371   3.239   4.272  15.244
 8319TIP3    H146372   3.182   4.249  15.322
 8319TIP3    H246373   3.219   4.364  15.221
 8320TIP3   OH246374   3.314   4.753  13.834
 8320TIP3    H146375   3.312   4.734  13.737
 8320TIP3    H246376   3.400   4.798  13.838
 8321TIP3   OH246377   2.873   4.146  13.884
 8321TIP3    H146378   2.842   4.139  13.976
 8321TIP3    H246379   2.843   4.058  13.854
 8322TIP3   OH246380   2.456   4.418  14.943
 8322TIP3    H146381   2.382   4.417  15.007
 8322TIP3    H246382   2.451   4.508  14.905
 8323TIP3   OH246383   2.451   4.429  14.429
 8323TIP3    H146384   2.357   4.404  14.416
 8323TIP3    H246385   2.489   4.400  14.344
 8324TIP3   OH246386   3.003   4.479  14.307
 8324TIP3    H146387   2.964   4.562  14.270
 8324TIP3    H246388   3.071   4.462  14.239
 8325TIP3   OH246389   2.907   4.502  15.450
 8325TIP3    H146390   2.857   4.422  15.480
 8325TIP3    H246391   2.992   4.488  15.495
 8326TIP3   OH246392   3.105   4.425  14.586
 8326TIP3    H146393   3.074   4.482  14.515
 8326TIP3    H246394   3.112   4.339  14.539
 8327TIP3   OH246395   2.216   4.442  15.110
 8327TIP3    H146396   2.228   4.484  15.197
 8327TIP3    H246397   2.173   4.358  15.131
 8328TIP3   OH246398   2.554   4.182  13.796
 8328TIP3    H146399   2.509   4.140  13.872
 8328TIP3    H246400   2.483   4.225  13.747
 8329TIP3   OH246401   1.883   4.153  14.510
 8329TIP3    H146402   1.951   4.150  14.580
 8329TIP3    H246403   1.928   4.116  14.431
 8330TIP3   OH246404   2.009   4.225  14.044
 8330TIP3    H146405   2.061   4.286  13.988
 8330TIP3    H246406   1.941   4.288  14.076
 8331TIP3   OH246407   3.025   4.587  15.047
 8331TIP3    H146408   3.063   4.518  14.988
 8331TIP3    H246409   2.979   4.534  15.114
 8332TIP3   OH246410   2.706   4.185  14.530
 8332TIP3    H146411   2.613   4.185  14.559
 8332TIP3    H246412   2.754   4.167  14.612
 8333TIP3   OH246413   2.187   4.340  14.417
 8333TIP3    H146414   2.099   4.355  14.377
 8333TIP3    H246415   2.216   4.256  14.376
 8334TIP3   OH246416   2.552   4.344  14.179
 8334TIP3    H146417   2.647   4.355  14.195
 8334TIP3    H246418   2.528   4.413  14.114
 8335TIP3   OH246419   3.149   4.110  14.852
 8335TIP3    H146420   3.081   4.113  14.924
 8335TIP3    H246421   3.096   4.082  14.776
 8336TIP3   OH246422   2.422   4.462  13.938
 8336TIP3    H146423   2.369   4.424  13.866
 8336TIP3    H246424   2.505   4.483  13.891
 8337TIP3   OH246425   3.466   5.672  15.490
 8337TIP3    H146426   3.494   5.709  15.404
 8337TIP3    H246427   3.540   5.703  15.546
 8338TIP3   OH246428   2.235   4.916  15.446
 8338TIP3    H146429   2.307   4.946  15.505
 8338TIP3    H246430   2.158   4.931  15.504
 8339TIP3   OH246431   2.835   4.460  14.719
 8339TIP3    H146432   2.895   4.407  14.666
 8339TIP3    H246433   2.820   4.405  14.797
 8340TIP3   OH246434   2.336   4.075  14.363
 8340TIP3    H146435   2.305   3.982  14.362
 8340TIP3    H246436   2.415   4.068  14.308
 8341TIP3   OH246437   2.698   4.292  14.962
 8341TIP3    H146438   2.616   4.345  14.969
 8341TIP3    H246439   2.754   4.329  15.032
 8342TIP3   OH246440   2.758   4.915  14.130
 8342TIP3    H146441   2.678   4.869  14.097
 8342TIP3    H246442   2.735   4.928  14.225
 8343TIP3   OH246443   3.478   4.831  15.007
 8343TIP3    H146444   3.532   4.886  14.948
 8343TIP3    H246445   3.390   4.842  14.966
 8344TIP3   OH246446   3.140   4.196  13.948
 8344TIP3    H146447   3.045   4.212  13.934
 8344TIP3    H246448   3.174   4.282  13.982
 8345TIP3   OH246449   2.906   4.942  15.254
 8345TIP3    H146450   2.871   4.900  15.334
 8345TIP3    H246451   2.881   5.034  15.265
 8346TIP3   OH246452   3.214   4.389  14.110
 8346TIP3    H146453   3.302   4.375  14.149
 8346TIP3    H246454   3.224   4.471  14.059
 8347TIP3   OH246455   2.269   4.855  14.710
 8347TIP3    H146456   2.337   4.846  14.640
 8347TIP3    H246457   2.274   4.769  14.756
 8348TIP3   OH246458   2.967   5.062  14.033
 8348TIP3    H146459   2.933   5.147  14.069
 8348TIP3    H246460   2.894   5.000  14.055
 8349TIP3   OH246461   1.966   4.695  15.238
 8349TIP3    H146462   1.985   4.649  15.320
 8349TIP3    H246463   1.906   4.636  15.189
 8350TIP3   OH246464   2.668   4.651  15.455
 8350TIP3    H146465   2.637   4.620  15.368
 8350TIP3    H246466   2.760   4.619  15.454
 8351TIP3   OH246467   3.137   5.184  15.249
 8351TIP3    H146468   3.045   5.202  15.226
 8351TIP3    H246469   3.134   5.214  15.342
 8352TIP3   OH246470   3.705   4.402  14.088
 8352TIP3    H146471   3.648   4.374  14.014
 8352TIP3    H246472   3.712   4.497  14.063
 8353TIP3   OH246473   3.703   4.988  15.368
 8353TIP3    H146474   3.614   5.011  15.332
 8353TIP3    H246475   3.757   4.984  15.287
 8354TIP3   OH246476   3.529   5.285  14.127
 8354TIP3    H146477   3.496   5.202  14.162
 8354TIP3    H246478   3.565   5.263  14.040
 8355TIP3   OH246479   3.253   4.772  14.842
 8355TIP3    H146480   3.159   4.752  14.830
 8355TIP3    H246481   3.290   4.694  14.798
 8356TIP3   OH246482   2.506   5.200  14.449
 8356TIP3    H146483   2.556   5.281  14.428
 8356TIP3    H246484   2.418   5.223  14.416
 8357TIP3   OH246485   2.083   4.684  13.906
 8357TIP3    H146486   2.140   4.751  13.947
 8357TIP3    H246487   1.994   4.715  13.931
 8358TIP3   OH246488   2.647   4.967  14.400
 8358TIP3    H146489   2.616   5.059  14.410
 8358TIP3    H246490   2.576   4.917  14.445
 8359TIP3   OH246491   2.692   5.385  15.042
 8359TIP3    H146492   2.738   5.466  15.013
 8359TIP3    H246493   2.755   5.351  15.108
 8360TIP3   OH246494   2.515   5.466  14.353
 8360TIP3    H146495   2.419   5.480  14.366
 8360TIP3    H246496   2.552   5.549  14.387
 8361TIP3   OH246497   3.044   4.987  15.005
 8361TIP3    H146498   3.012   4.965  15.095
 8361TIP3    H246499   3.108   4.915  14.986
 8362TIP3   OH246500   3.279   5.093  13.912
 8362TIP3    H146501   3.308   5.045  13.992
 8362TIP3    H246502   3.183   5.074  13.920
 8363TIP3   OH246503   3.327   5.443  15.252
 8363TIP3    H146504   3.257   5.394  15.204
 8363TIP3    H246505   3.345   5.513  15.186
 8364TIP3   OH246506   3.725   5.528  13.938
 8364TIP3    H146507   3.794   5.594  13.917
 8364TIP3    H246508   3.653   5.589  13.966
 8365TIP3   OH246509   2.133   4.170  15.197
 8365TIP3    H146510   2.042   4.202  15.184
 8365TIP3    H246511   2.120   4.081  15.234
 8366TIP3   OH246512   3.356   4.957  14.136
 8366TIP3    H146513   3.332   4.878  14.189
 8366TIP3    H246514   3.451   4.960  14.154
 8367TIP3   OH246515   2.094   5.347  15.034
 8367TIP3    H146516   2.124   5.255  15.035
 8367TIP3    H246517   2.120   5.376  15.122
 8368TIP3   OH246518   2.691   5.200  13.762
 8368TIP3    H146519   2.701   5.123  13.703
 8368TIP3    H246520   2.647   5.157  13.838
 8369TIP3   OH246521   2.569   5.152  14.007
 8369TIP3    H146522   2.596   5.101  14.084
 8369TIP3    H246523   2.578   5.245  14.039
 8370TIP3   OH246524   2.223   4.877  14.056
 8370TIP3    H146525   2.151   4.916  14.109
 8370TIP3    H246526   2.273   4.955  14.026
 8371TIP3   OH246527   3.007   4.145  15.086
 8371TIP3    H146528   3.076   4.152  15.153
 8371TIP3    H246529   2.968   4.059  15.108
 8372TIP3   OH246530   3.080   4.102  14.196
 8372TIP3    H146531   3.103   4.149  14.113
 8372TIP3    H246532   3.138   4.147  14.259
 8373TIP3   OH246533   2.849   5.319  14.077
 8373TIP3    H146534   2.767   5.372  14.084
 8373TIP3    H246535   2.903   5.374  14.018
 8374TIP3   OH246536   2.803   4.277  14.278
 8374TIP3    H146537   2.881   4.336  14.283
 8374TIP3    H246538   2.775   4.264  14.370
 8375TIP3   OH246539   2.859   4.380  15.198
 8375TIP3    H146540   2.866   4.435  15.278
 8375TIP3    H246541   2.925   4.310  15.208
 8376TIP3   OH246542   2.888   3.984  14.366
 8376TIP3    H146543   2.855   4.049  14.430
 8376TIP3    H246544   2.958   4.038  14.322
 8377TIP3   OH246545   2.589   5.422  14.080
 8377TIP3    H146546   2.598   5.503  14.024
 8377TIP3    H246547   2.562   5.458  14.167
 8378TIP3   OH246548   2.454   4.094  14.037
 8378TIP3    H146549   2.449   4.184  14.076
 8378TIP3    H246550   2.545   4.070  14.064
 8379TIP3   OH246551   3.476   4.167  15.282
 8379TIP3    H146552   3.383   4.197  15.270
 8379TIP3    H246553   3.506   4.166  15.189
 8380TIP3   OH246554   3.298   4.553  14.698
 8380TIP3    H146555   3.231   4.501  14.648
 8380TIP3    H246556   3.334   4.485  14.757
 8381TIP3   OH246557   2.277   5.138  13.941
 8381TIP3    H146558   2.344   5.201  13.973
 8381TIP3    H246559   2.329   5.092  13.873
 8382TIP3   OH246560   2.112   4.406  13.856
 8382TIP3    H146561   2.113   4.501  13.877
 8382TIP3    H246562   2.022   4.388  13.825
 8383TIP3   OH246563   3.444   5.472  14.850
 8383TIP3    H146564   3.435   5.540  14.780
 8383TIP3    H246565   3.540   5.478  14.867
 8384TIP3   OH246566   2.194   3.883  14.731
 8384TIP3    H146567   2.175   3.887  14.635
 8384TIP3    H246568   2.151   3.798  14.754
 8385TIP3   OH246569   2.089   5.276  14.345
 8385TIP3    H146570   2.004   5.321  14.340
 8385TIP3    H246571   2.136   5.323  14.275
 8386TIP3   OH246572   2.008   5.541  15.473
 8386TIP3    H146573   2.069   5.522  15.548
 8386TIP3    H246574   1.967   5.454  15.456
 8387TIP3   OH246575   2.475   5.428  15.636
 8387TIP3    H146576   2.554   5.383  15.667
 8387TIP3    H246577   2.474   5.405  15.541
 8388TIP3   OH246578   2.891   5.385  13.774
 8388TIP3    H146579   2.822   5.319  13.797
 8388TIP3    H246580   2.963   5.325  13.749
 8389TIP3   OH246581   3.127   5.272  15.506
 8389TIP3    H146582   3.095   5.184  15.536
 8389TIP3    H246583   3.205   5.284  15.563
 8390TIP3   OH246584   3.347   5.359  13.793
 8390TIP3    H146585   3.376   5.281  13.843
 8390TIP3    H246586   3.423   5.382  13.738
 8391TIP3   OH246587   1.995   4.912  15.575
 8391TIP3    H146588   2.020   4.829  15.530
 8391TIP3    H246589   1.929   4.949  15.513
 8392TIP3   OH246590   2.435   4.953  13.775
 8392TIP3    H146591   2.449   4.877  13.833
 8392TIP3    H246592   2.510   4.941  13.713
 8393TIP3   OH246593   2.672   4.916  15.511
 8393TIP3    H146594   2.639   4.948  15.425
 8393TIP3    H246595   2.679   4.819  15.500
 8394TIP3   OH246596   2.978   5.064  13.752
 8394TIP3    H146597   2.951   5.072  13.845
 8394TIP3    H246598   2.959   4.968  13.738
 8395TIP3   OH246599   3.242   4.903  15.250
 8395TIP3    H146600   3.320   4.962  15.244
 8395TIP3    H246601   3.172   4.970  15.254
 8396TIP3   OH246602   2.079   4.633  15.513
 8396TIP3    H146603   2.142   4.561  15.495
 8396TIP3    H246604   2.097   4.654  15.604
 8397TIP3   OH246605   2.556   4.755  14.018
 8397TIP3    H146606   2.505   4.701  14.080
 8397TIP3    H246607   2.585   4.688  13.952
 8398TIP3   OH246608   2.482   4.536  15.246
 8398TIP3    H146609   2.423   4.607  15.272
 8398TIP3    H246610   2.522   4.573  15.165
 8399TIP3   OH246611   2.663   4.577  13.837
 8399TIP3    H146612   2.648   4.568  13.741
 8399TIP3    H246613   2.761   4.582  13.844
 8400TIP3   OH246614   2.989   4.794  15.585
 8400TIP3    H146615   3.084   4.790  15.566
 8400TIP3    H246616   2.972   4.715  15.639
 8401TIP3   OH246617   3.596   4.809  13.779
 8401TIP3    H146618   3.577   4.772  13.692
 8401TIP3    H246619   3.605   4.906  13.760
 8402TIP3   OH246620   2.516   4.271  15.350
 8402TIP3    H146621   2.535   4.203  15.284
 8402TIP3    H246622   2.517   4.354  15.298
 8403TIP3   OH246623   2.564   4.107  15.105
 8403TIP3    H146624   2.614   4.159  15.038
 8403TIP3    H246625   2.473   4.107  15.065
 8404TIP3   OH246626   2.718   4.661  15.132
 8404TIP3    H146627   2.793   4.644  15.074
 8404TIP3    H246628   2.681   4.744  15.098
 8405TIP3   OH246629   3.155   4.435  15.626
 8405TIP3    H146630   3.178   4.341  15.620
 8405TIP3    H246631   3.242   4.477  15.631
 8406TIP3   OH246632   3.292   4.716  15.445
 8406TIP3    H146633   3.266   4.787  15.382
 8406TIP3    H246634   3.388   4.711  15.425
 8407TIP3   OH246635   2.367   4.400  15.543
 8407TIP3    H146636   2.295   4.338  15.523
 8407TIP3    H246637   2.436   4.364  15.482
 8408TIP3   OH246638   2.633   3.855  15.150
 8408TIP3    H146639   2.631   3.953  15.136
 8408TIP3    H246640   2.579   3.826  15.075
 8409TIP3   OH246641   2.766   4.293  15.508
 8409TIP3    H146642   2.741   4.262  15.598
 8409TIP3    H246643   2.689   4.266  15.455
 8410TIP3   OH246644   3.043   4.205  15.418
 8410TIP3    H146645   2.946   4.206  15.430
 8410TIP3    H246646   3.062   4.135  15.483
 8411TIP3   OH246647   3.252   4.072  15.625
 8411TIP3    H146648   3.206   3.988  15.602
 8411TIP3    H246649   3.184   4.102  15.690
 8412TIP3   OH246650   2.196   4.188  15.521
 8412TIP3    H146651   2.211   4.117  15.456
 8412TIP3    H246652   2.193   4.137  15.605
 8413TIP3   OH246653   2.649   3.783  15.408
 8413TIP3    H146654   2.730   3.727  15.422
 8413TIP3    H246655   2.668   3.816  15.319
 8414TIP3   OH246656   2.671   3.944  15.633
 8414TIP3    H146657   2.687   3.907  15.543
 8414TIP3    H246658   2.643   4.036  15.616
 8415TIP3   OH246659   2.646   5.647  13.945
 8415TIP3    H146660   2.743   5.656  13.952
 8415TIP3    H246661   2.632   5.708  13.871
 8416TIP3   OH246662   2.002   5.105  13.892
 8416TIP3    H146663   2.098   5.114  13.910
 8416TIP3    H246664   2.007   5.040  13.817
 8417TIP3   OH246665   1.880   5.643  14.388
 8417TIP3    H146666   1.808   5.595  14.343
 8417TIP3    H246667   1.908   5.578  14.455
 8418TIP3   OH246668   1.962   5.457  14.576
 8418TIP3    H146669   1.927   5.369  14.596
 8418TIP3    H246670   1.985   5.490  14.665
 8419TIP3   OH246671   3.716   5.536  14.869
 8419TIP3    H146672   3.719   5.552  14.965
 8419TIP3    H246673   3.786   5.595  14.839
 8420TIP3   OH246674   3.674   5.495  15.163
 8420TIP3    H146675   3.626   5.418  15.125
 8420TIP3    H246676   3.722   5.451  15.235
 8421TIP3   OH246677   3.519   5.067  15.632
 8421TIP3    H146678   3.428   5.065  15.668
 8421TIP3    H246679   3.555   5.147  15.675
 8422TIP3   OH246680   3.649   4.902  14.173
 8422TIP3    H146681   3.736   4.941  14.192
 8422TIP3    H246682   3.648   4.830  14.239
 8423TIP3   OH246683   3.685   4.710  14.363
 8423TIP3    H146684   3.611   4.658  14.399
 8423TIP3    H246685   3.747   4.723  14.438
 8424TIP3   OH246686   3.661   4.977  14.860
 8424TIP3    H146687   3.744   4.943  14.824
 8424TIP3    H246688   3.674   5.073  14.844
 8425TIP3   OH246689   3.517   5.269  15.088
 8425TIP3    H146690   3.448   5.303  15.147
 8425TIP3    H246691   3.462   5.229  15.017
 8426TIP3   OH246692   3.715   4.691  14.002
 8426TIP3    H146693   3.659   4.725  13.930
 8426TIP3    H246694   3.706   4.762  14.068
 8427TIP3   OH246695   3.553   4.414  13.854
 8427TIP3    H146696   3.561   4.480  13.784
 8427TIP3    H246697   3.534   4.332  13.804
 8428TIP3   OH246698   3.478   4.551  14.429
 8428TIP3    H146699   3.448   4.460  14.407
 8428TIP3    H246700   3.416   4.587  14.492
 8429TIP3   OH246701   1.968   4.765  14.826
 8429TIP3    H146702   1.986   4.756  14.729
 8429TIP3    H246703   2.057   4.747  14.861
 8430TIP3   OH246704   3.554   4.753  15.391
 8430TIP3    H146705   3.615   4.677  15.401
 8430TIP3    H246706   3.614   4.830  15.388
 8431TIP3   OH246707   3.702   4.541  15.455
 8431TIP3    H146708   3.614   4.499  15.437
 8431TIP3    H246709   3.760   4.464  15.447
 8432TIP3   OH246710   3.478   4.161  13.767
 8432TIP3    H146711   3.537   4.117  13.831
 8432TIP3    H246712   3.391   4.119  13.782
 8433TIP3   OH246713   3.434   4.316  14.266
 8433TIP3    H146714   3.463   4.222  14.275
 8433TIP3    H246715   3.514   4.354  14.227
 8434TIP3   OH246716   3.498   4.371  14.814
 8434TIP3    H146717   3.597   4.381  14.819
 8434TIP3    H246718   3.479   4.377  14.910
 8435TIP3   OH246719   3.503   4.441  15.082
 8435TIP3    H146720   3.417   4.469  15.121
 8435TIP3    H246721   3.549   4.528  15.069
 8436TIP3   OH246722   1.916   4.302  15.415
 8436TIP3    H146723   2.011   4.286  15.408
 8436TIP3    H246724   1.871   4.218  15.441
 8437TIP3   OH246725   3.731   3.848  15.622
 8437TIP3    H146726   3.766   3.781  15.561
 8437TIP3    H246727   3.743   3.929  15.570
 8438TIP3   OH246728   3.501   4.043  14.270
 8438TIP3    H146729   3.523   3.999  14.355
 8438TIP3    H246730   3.442   3.979  14.226
 8439TIP3   OH246731   2.050   4.123  14.726
 8439TIP3    H146732   2.096   4.041  14.752
 8439TIP3    H246733   2.105   4.193  14.765
 8440TIP3   OH246734   1.877   4.425  14.828
 8440TIP3    H146735   1.935   4.399  14.753
 8440TIP3    H246736   1.925   4.504  14.857
 8441TIP3   OH246737   3.684   4.057  15.457
 8441TIP3    H146738   3.591   4.084  15.451
 8441TIP3    H246739   3.687   4.001  15.378
 8442TIP3   OH246740   3.683   4.046  13.926
 8442TIP3    H146741   3.724   3.975  13.872
 8442TIP3    H246742   3.754   4.113  13.930
 8443TIP3   OH246743   1.915   4.051  14.238
 8443TIP3    H146744   1.821   4.067  14.221
 8443TIP3    H246745   1.957   4.099  14.164
 8444TIP3   OH246746   3.388   5.545  14.432
 8444TIP3    H146747   3.457   5.515  14.370
 8444TIP3    H246748   3.440   5.595  14.497
 8445TIP3   OH246749   1.914   3.914  15.068
 8445TIP3    H146750   1.845   3.893  15.133
 8445TIP3    H246751   1.869   3.981  15.013
 8446TIP3   OH246752   2.132   5.230  15.483
 8446TIP3    H146753   2.049   5.256  15.441
 8446TIP3    H246754   2.106   5.229  15.576
 8447TIP3   OH246755   2.424   5.335  15.110
 8447TIP3    H146756   2.390   5.422  15.084
 8447TIP3    H246757   2.516   5.344  15.080
 8448TIP3   OH246758   2.855   5.477  15.401
 8448TIP3    H146759   2.869   5.443  15.493
 8448TIP3    H246760   2.945   5.508  15.378
 8449TIP3   OH246761   3.084   5.605  15.332
 8449TIP3    H146762   3.157   5.546  15.308
 8449TIP3    H246763   3.122   5.649  15.411
 8450TIP3   OH246764   3.584   3.868  15.244
 8450TIP3    H146765   3.502   3.897  15.202
 8450TIP3    H246766   3.602   3.785  15.193
 8451TIP3   OH246767   2.166   5.659  15.110
 8451TIP3    H146768   2.093   5.709  15.070
 8451TIP3    H246769   2.135   5.640  15.200
 8452TIP3   OH246770   2.413   5.617  15.017
 8452TIP3    H146771   2.323   5.632  15.057
 8452TIP3    H246772   2.407   5.676  14.940
 8453TIP3   OH246773   2.883   5.608  14.934
 8453TIP3    H146774   2.837   5.664  14.870
 8453TIP3    H246775   2.897   5.672  15.008
 8454TIP3   OH246776   3.112   5.489  15.037
 8454TIP3    H146777   3.027   5.517  15.000
 8454TIP3    H246778   3.161   5.572  15.028
 8455TIP3   OH246779   3.370   5.646  15.059
 8455TIP3    H146780   3.365   5.742  15.036
 8455TIP3    H246781   3.392   5.609  14.972
 8456TIP3   OH246782   2.112   5.524  14.804
 8456TIP3    H146783   2.104   5.478  14.890
 8456TIP3    H246784   2.193   5.486  14.765
 8457TIP3   OH246785   2.319   5.395  14.670
 8457TIP3    H146786   2.303   5.302  14.693
 8457TIP3    H246787   2.405   5.411  14.715
 8458TIP3   OH246788   2.580   5.444  14.757
 8458TIP3    H146789   2.595   5.351  14.731
 8458TIP3    H246790   2.584   5.438  14.854
 8459TIP3   OH246791   2.925   4.009  14.671
 8459TIP3    H146792   2.857   3.945  14.699
 8459TIP3    H246793   2.980   3.956  14.613
 8460TIP3   OH246794   3.439   3.813  14.678
 8460TIP3    H146795   3.500   3.872  14.627
 8460TIP3    H246796   3.351   3.849  14.655
 8461TIP3   OH246797   3.606   3.938  14.505
 8461TIP3    H146798   3.675   3.880  14.463
 8461TIP3    H246799   3.657   4.021  14.516
 8462TIP3   OH246800   2.163   3.871  14.456
 8462TIP3    H146801   2.083   3.852  14.403
 8462TIP3    H246802   2.208   3.785  14.452
 8463TIP3   OH246803   2.039   3.847  14.028
 8463TIP3    H146804   2.088   3.911  13.975
 8463TIP3    H246805   1.982   3.904  14.082
 8464TIP3   OH246806   2.609   3.864  14.435
 8464TIP3    H146807   2.699   3.900  14.427
 8464TIP3    H246808   2.606   3.842  14.528
 8465TIP3   OH246809   3.181   3.865  14.597
 8465TIP3    H146810   3.175   3.877  14.501
 8465TIP3    H246811   3.143   3.775  14.610
 8466TIP3   OH246812   3.307   3.869  14.165
 8466TIP3    H146813   3.232   3.928  14.149
 8466TIP3    H246814   3.263   3.783  14.189
 8467TIP3   OH246815   2.030   5.441  14.131
 8467TIP3    H146816   1.965   5.440  14.059
 8467TIP3    H246817   2.030   5.537  14.148
 8468TIP3   OH246818   2.222   4.041  13.879
 8468TIP3    H146819   2.275   3.979  13.826
 8468TIP3    H246820   2.288   4.073  13.943
 8469TIP3   OH246821   2.724   4.065  14.120
 8469TIP3    H146822   2.749   4.007  14.193
 8469TIP3    H246823   2.731   4.152  14.165
 8470TIP3   OH246824   2.918   5.573  13.964
 8470TIP3    H146825   3.009   5.595  13.942
 8470TIP3    H246826   2.896   5.521  13.884
 8471TIP3   OH246827   3.587   5.523  14.236
 8471TIP3    H146828   3.568   5.444  14.179
 8471TIP3    H246829   3.580   5.596  14.172
 8472TIP3   OH246830   2.150   3.925  15.400
 8472TIP3    H146831   2.111   3.845  15.440
 8472TIP3    H246832   2.240   3.920  15.440
 8473TIP3   OH246833   2.352   3.861  15.555
 8473TIP3    H146834   2.444   3.828  15.548
 8473TIP3    H246835   2.312   3.787  15.608
 8474TIP3   OH246836   2.210   5.540  13.825
 8474TIP3    H146837   2.184   5.566  13.915
 8474TIP3    H246838   2.288   5.484  13.841
 8475TIP3   OH246839   3.207   3.756  15.569
 8475TIP3    H146840   3.205   3.749  15.666
 8475TIP3    H246841   3.295   3.789  15.548
 8476TIP3   OH246842   3.511   5.397  15.446
 8476TIP3    H146843   3.432   5.384  15.390
 8476TIP3    H246844   3.501   5.492  15.466
 8477TIP3   OH246845   4.956   4.788  14.437
 8477TIP3    H146846   4.930   4.881  14.435
 8477TIP3    H246847   4.883   4.753  14.383
 8478TIP3   OH246848   4.842   4.710  14.791
 8478TIP3    H146849   4.840   4.647  14.864
 8478TIP3    H246850   4.805   4.658  14.718
 8479TIP3   OH246851   4.077   4.679  14.947
 8479TIP3    H146852   4.086   4.610  15.016
 8479TIP3    H246853   4.152   4.735  14.969
 8480TIP3   OH246854   5.209   5.005  14.627
 8480TIP3    H146855   5.178   4.933  14.684
 8480TIP3    H246856   5.219   5.078  14.692
 8481TIP3   OH246857   4.170   5.123  14.797
 8481TIP3    H146858   4.139   5.036  14.765
 8481TIP3    H246859   4.265   5.105  14.802
 8482TIP3   OH246860   3.831   4.478  14.350
 8482TIP3    H146861   3.795   4.567  14.336
 8482TIP3    H246862   3.778   4.425  14.288
 8483TIP3   OH246863   3.903   4.700  14.560
 8483TIP3    H146864   3.934   4.620  14.606
 8483TIP3    H246865   3.974   4.713  14.495
 8484TIP3   OH246866   4.922   5.522  14.644
 8484TIP3    H146867   4.986   5.452  14.615
 8484TIP3    H246868   4.901   5.488  14.731
 8485TIP3   OH246869   4.681   4.953  14.837
 8485TIP3    H146870   4.712   4.886  14.774
 8485TIP3    H246871   4.760   4.966  14.892
 8486TIP3   OH246872   5.541   4.115  14.910
 8486TIP3    H146873   5.557   4.175  14.987
 8486TIP3    H246874   5.596   4.161  14.844
 8487TIP3   OH246875   4.996   4.398  14.870
 8487TIP3    H146876   5.013   4.302  14.871
 8487TIP3    H246877   4.986   4.412  14.774
 8488TIP3   OH246878   4.307   4.207  14.592
 8488TIP3    H146879   4.318   4.290  14.542
 8488TIP3    H246880   4.268   4.149  14.523
 8489TIP3   OH246881   5.082   4.214  14.428
 8489TIP3    H146882   5.146   4.182  14.496
 8489TIP3    H246883   5.139   4.273  14.377
 8490TIP3   OH246884   3.969   4.446  14.665
 8490TIP3    H146885   4.038   4.394  14.711
 8490TIP3    H246886   3.983   4.416  14.574
 8491TIP3   OH246887   4.486   4.603  14.597
 8491TIP3    H146888   4.553   4.545  14.637
 8491TIP3    H246889   4.434   4.537  14.547
 8492TIP3   OH246890   5.583   4.257  15.139
 8492TIP3    H146891   5.523   4.334  15.128
 8492TIP3    H246892   5.587   4.249  15.235
 8493TIP3   OH246893   4.199   4.098  14.996
 8493TIP3    H146894   4.170   4.154  14.921
 8493TIP3    H246895   4.131   4.119  15.064
 8494TIP3   OH246896   4.917   5.047  14.346
 8494TIP3    H146897   4.892   5.020  14.255
 8494TIP3    H246898   4.889   5.143  14.348
 8495TIP3   OH246899   4.450   4.861  15.020
 8495TIP3    H146900   4.379   4.925  15.042
 8495TIP3    H246901   4.520   4.921  14.991
 8496TIP3   OH246902   5.261   4.149  14.629
 8496TIP3    H146903   5.240   4.072  14.682
 8496TIP3    H246904   5.330   4.192  14.683
 8497TIP3   OH246905   4.155   4.283  14.799
 8497TIP3    H146906   4.218   4.351  14.830
 8497TIP3    H246907   4.207   4.241  14.725
 8498TIP3   OH246908   4.293   5.060  15.101
 8498TIP3    H146909   4.290   5.152  15.068
 8498TIP3    H246910   4.206   5.053  15.146
 8499TIP3   OH246911   3.903   5.022  14.181
 8499TIP3    H146912   3.878   5.056  14.093
 8499TIP3    H246913   3.911   5.105  14.232
 8500TIP3   OH246914   5.261   5.189  14.850
 8500TIP3    H146915   5.166   5.201  14.872
 8500TIP3    H246916   5.289   5.282  14.839
 8501TIP3   OH246917   5.296   4.018  14.996
 8501TIP3    H146918   5.223   4.081  14.987
 8501TIP3    H246919   5.367   4.060  14.943
 8502TIP3   OH246920   4.593   3.831  14.740
 8502TIP3    H146921   4.579   3.735  14.735
 8502TIP3    H246922   4.505   3.861  14.773
 8503TIP3   OH246923   5.092   5.367  14.518
 8503TIP3    H146924   5.132   5.297  14.462
 8503TIP3    H246925   5.129   5.447  14.476
 8504TIP3   OH246926   5.203   5.161  14.369
 8504TIP3    H146927   5.192   5.094  14.298
 8504TIP3    H246928   5.228   5.117  14.451
 8505TIP3   OH246929   5.372   5.019  15.218
 8505TIP3    H146930   5.387   4.955  15.144
 8505TIP3    H246931   5.393   5.103  15.173
 8506TIP3   OH246932   4.824   4.713  14.196
 8506TIP3    H146933   4.751   4.765  14.156
 8506TIP3    H246934   4.891   4.716  14.125
 8507TIP3   OH246935   4.828   4.562  13.897
 8507TIP3    H146936   4.902   4.564  13.959
 8507TIP3    H246937   4.860   4.496  13.834
 8508TIP3   OH246938   5.559   4.651  15.023
 8508TIP3    H146939   5.495   4.725  15.024
 8508TIP3    H246940   5.611   4.675  14.944
 8509TIP3   OH246941   5.172   4.737  14.291
 8509TIP3    H146942   5.088   4.743  14.343
 8509TIP3    H246943   5.216   4.661  14.334
 8510TIP3   OH246944   5.160   4.547  15.196
 8510TIP3    H146945   5.155   4.628  15.248
 8510TIP3    H246946   5.096   4.573  15.126
 8511TIP3   OH246947   4.326   4.795  14.477
 8511TIP3    H146948   4.296   4.756  14.392
 8511TIP3    H246949   4.389   4.727  14.510
 8512TIP3   OH246950   4.460   5.134  14.745
 8512TIP3    H146951   4.459   5.082  14.664
 8512TIP3    H246952   4.538   5.099  14.791
 8513TIP3   OH246953   4.361   4.671  14.843
 8513TIP3    H146954   4.416   4.680  14.763
 8513TIP3    H246955   4.400   4.737  14.904
 8514TIP3   OH246956   5.003   5.226  14.912
 8514TIP3    H146957   4.974   5.291  14.977
 8514TIP3    H246958   4.977   5.142  14.957
 8515TIP3   OH246959   4.456   5.114  15.313
 8515TIP3    H146960   4.415   5.187  15.362
 8515TIP3    H246961   4.389   5.094  15.243
 8516TIP3   OH246962   5.052   4.654  14.052
 8516TIP3    H146963   5.111   4.666  14.129
 8516TIP3    H246964   5.099   4.698  13.977
 8517TIP3   OH246965   4.151   4.730  15.228
 8517TIP3    H146966   4.156   4.796  15.299
 8517TIP3    H246967   4.056   4.739  15.207
 8518TIP3   OH246968   4.828   5.321  14.399
 8518TIP3    H146969   4.867   5.355  14.481
 8518TIP3    H246970   4.770   5.395  14.375
 8519TIP3   OH246971   4.281   5.317  15.387
 8519TIP3    H146972   4.275   5.307  15.291
 8519TIP3    H246973   4.188   5.304  15.414
 8520TIP3   OH246974   5.427   3.823  14.043
 8520TIP3    H146975   5.333   3.834  14.066
 8520TIP3    H246976   5.447   3.907  13.998
 8521TIP3   OH246977   4.225   4.698  14.240
 8521TIP3    H146978   4.196   4.776  14.188
 8521TIP3    H246979   4.160   4.631  14.215
 8522TIP3   OH246980   5.538   5.257  13.880
 8522TIP3    H146981   5.555   5.352  13.894
 8522TIP3    H246982   5.630   5.227  13.877
 8523TIP3   OH246983   3.833   4.941  15.129
 8523TIP3    H146984   3.789   4.933  15.042
 8523TIP3    H246985   3.842   4.846  15.150
 8524TIP3   OH246986   3.810   5.215  14.806
 8524TIP3    H146987   3.906   5.203  14.804
 8524TIP3    H246988   3.802   5.296  14.856
 8525TIP3   OH246989   5.632   5.284  15.372
 8525TIP3    H146990   5.622   5.189  15.373
 8525TIP3    H246991   5.548   5.311  15.416
 8526TIP3   OH246992   4.729   5.239  15.261
 8526TIP3    H146993   4.735   5.323  15.314
 8526TIP3    H246994   4.642   5.203  15.286
 8527TIP3   OH246995   4.773   5.614  14.240
 8527TIP3    H146996   4.763   5.606  14.143
 8527TIP3    H246997   4.774   5.710  14.255
 8528TIP3   OH246998   4.137   5.501  14.423
 8528TIP3    H146999   4.152   5.460  14.510
 8528TIP3    H247000   4.053   5.460  14.399
 8529TIP3   OH247001   5.078   5.535  13.939
 8529TIP3    H147002   5.124   5.459  13.895
 8529TIP3    H247003   5.083   5.508  14.034
 8530TIP3   OH247004   5.049   5.529  14.215
 8530TIP3    H147005   4.953   5.537  14.234
 8530TIP3    H247006   5.071   5.455  14.272
 8531TIP3   OH247007   5.347   4.436  15.419
 8531TIP3    H147008   5.298   4.474  15.344
 8531TIP3    H247009   5.347   4.341  15.393
 8532TIP3   OH247010   4.062   5.073  15.223
 8532TIP3    H147011   4.085   5.036  15.311
 8532TIP3    H247012   3.976   5.033  15.201
 8533TIP3   OH247013   4.330   3.922  14.815
 8533TIP3    H147014   4.240   3.909  14.780
 8533TIP3    H247015   4.316   4.004  14.866
 8534TIP3   OH247016   4.796   3.888  15.154
 8534TIP3    H147017   4.834   3.845  15.232
 8534TIP3    H247018   4.699   3.875  15.167
 8535TIP3   OH247019   5.125   4.272  15.245
 8535TIP3    H147020   5.067   4.250  15.322
 8535TIP3    H247021   5.104   4.363  15.220
 8536TIP3   OH247022   5.202   4.751  13.838
 8536TIP3    H147023   5.195   4.736  13.739
 8536TIP3    H247024   5.286   4.798  13.840
 8537TIP3   OH247025   4.759   4.145  13.884
 8537TIP3    H147026   4.727   4.139  13.976
 8537TIP3    H247027   4.728   4.058  13.854
 8538TIP3   OH247028   4.342   4.418  14.944
 8538TIP3    H147029   4.267   4.417  15.007
 8538TIP3    H247030   4.336   4.508  14.906
 8539TIP3   OH247031   4.337   4.429  14.429
 8539TIP3    H147032   4.243   4.404  14.416
 8539TIP3    H247033   4.375   4.400  14.344
 8540TIP3   OH247034   4.891   4.483  14.309
 8540TIP3    H147035   4.848   4.561  14.268
 8540TIP3    H247036   4.956   4.460  14.240
 8541TIP3   OH247037   4.792   4.501  15.450
 8541TIP3    H147038   4.741   4.422  15.480
 8541TIP3    H247039   4.877   4.488  15.495
 8542TIP3   OH247040   4.994   4.431  14.590
 8542TIP3    H147041   4.963   4.484  14.515
 8542TIP3    H247042   5.001   4.344  14.545
 8543TIP3   OH247043   4.102   4.443  15.111
 8543TIP3    H147044   4.111   4.483  15.198
 8543TIP3    H247045   4.059   4.358  15.132
 8544TIP3   OH247046   4.440   4.182  13.796
 8544TIP3    H147047   4.395   4.140  13.872
 8544TIP3    H247048   4.369   4.225  13.747
 8545TIP3   OH247049   3.768   4.156  14.510
 8545TIP3    H147050   3.837   4.149  14.580
 8545TIP3    H247051   3.813   4.116  14.432
 8546TIP3   OH247052   3.895   4.225  14.044
 8546TIP3    H147053   3.946   4.286  13.988
 8546TIP3    H247054   3.826   4.287  14.076
 8547TIP3   OH247055   4.912   4.587  15.046
 8547TIP3    H147056   4.950   4.518  14.987
 8547TIP3    H247057   4.865   4.534  15.113
 8548TIP3   OH247058   4.592   4.185  14.530
 8548TIP3    H147059   4.498   4.185  14.559
 8548TIP3    H247060   4.640   4.167  14.612
 8549TIP3   OH247061   4.074   4.339  14.416
 8549TIP3    H147062   3.986   4.355  14.376
 8549TIP3    H247063   4.102   4.255  14.377
 8550TIP3   OH247064   4.437   4.344  14.180
 8550TIP3    H147065   4.533   4.355  14.195
 8550TIP3    H247066   4.414   4.413  14.114
 8551TIP3   OH247067   5.032   4.108  14.854
 8551TIP3    H147068   4.964   4.113  14.924
 8551TIP3    H247069   4.982   4.083  14.775
 8552TIP3   OH247070   4.308   4.462  13.938
 8552TIP3    H147071   4.255   4.424  13.866
 8552TIP3    H247072   4.390   4.483  13.890
 8553TIP3   OH247073   5.352   5.672  15.490
 8553TIP3    H147074   5.380   5.709  15.404
 8553TIP3    H247075   5.426   5.702  15.546
 8554TIP3   OH247076   4.122   4.918  15.445
 8554TIP3    H147077   4.192   4.944  15.507
 8554TIP3    H247078   4.043   4.927  15.503
 8555TIP3   OH247079   4.721   4.461  14.719
 8555TIP3    H147080   4.781   4.407  14.665
 8555TIP3    H247081   4.706   4.406  14.797
 8556TIP3   OH247082   4.221   4.075  14.363
 8556TIP3    H147083   4.190   3.982  14.362
 8556TIP3    H247084   4.300   4.068  14.308
 8557TIP3   OH247085   4.584   4.293  14.960
 8557TIP3    H147086   4.502   4.345  14.969
 8557TIP3    H247087   4.640   4.328  15.033
 8558TIP3   OH247088   4.644   4.915  14.131
 8558TIP3    H147089   4.564   4.869  14.096
 8558TIP3    H247090   4.619   4.928  14.224
 8559TIP3   OH247091   5.362   4.837  15.013
 8559TIP3    H147092   5.419   4.883  14.948
 8559TIP3    H247093   5.277   4.840  14.965
 8560TIP3   OH247094   5.026   4.196  13.948
 8560TIP3    H147095   4.931   4.212  13.934
 8560TIP3    H247096   5.060   4.282  13.982
 8561TIP3   OH247097   4.797   4.941  15.257
 8561TIP3    H147098   4.755   4.899  15.332
 8561TIP3    H247099   4.768   5.033  15.265
 8562TIP3   OH247100   5.100   4.390  14.110
 8562TIP3    H147101   5.188   4.376  14.151
 8562TIP3    H247102   5.111   4.472  14.059
 8563TIP3   OH247103   4.154   4.855  14.710
 8563TIP3    H147104   4.222   4.847  14.640
 8563TIP3    H247105   4.160   4.769  14.756
 8564TIP3   OH247106   4.855   5.061  14.039
 8564TIP3    H147107   4.817   5.147  14.067
 8564TIP3    H247108   4.779   5.001  14.054
 8565TIP3   OH247109   3.853   4.695  15.236
 8565TIP3    H147110   3.870   4.651  15.322
 8565TIP3    H247111   3.791   4.634  15.192
 8566TIP3   OH247112   4.554   4.651  15.455
 8566TIP3    H147113   4.522   4.620  15.369
 8566TIP3    H247114   4.646   4.619  15.454
 8567TIP3   OH247115   5.024   5.181  15.251
 8567TIP3    H147116   4.932   5.202  15.225
 8567TIP3    H247117   5.019   5.215  15.343
 8568TIP3   OH247118   5.593   4.402  14.085
 8568TIP3    H147119   5.531   4.374  14.015
 8568TIP3    H247120   5.595   4.498  14.062
 8569TIP3   OH247121   5.585   4.986  15.371
 8569TIP3    H147122   5.501   5.014  15.328
 8569TIP3    H247123   5.645   4.986  15.292
 8570TIP3   OH247124   5.416   5.285  14.131
 8570TIP3    H147125   5.383   5.201  14.161
 8570TIP3    H247126   5.451   5.266  14.042
 8571TIP3   OH247127   5.137   4.770  14.831
 8571TIP3    H147128   5.044   4.743  14.830
 8571TIP3    H247129   5.182   4.690  14.797
 8572TIP3   OH247130   4.391   5.200  14.448
 8572TIP3    H147131   4.441   5.281  14.428
 8572TIP3    H247132   4.303   5.223  14.416
 8573TIP3   OH247133   3.968   4.684  13.906
 8573TIP3    H147134   4.026   4.751  13.947
 8573TIP3    H247135   3.879   4.715  13.931
 8574TIP3   OH247136   4.535   4.967  14.401
 8574TIP3    H147137   4.500   5.058  14.409
 8574TIP3    H247138   4.463   4.917  14.444
 8575TIP3   OH247139   4.578   5.385  15.042
 8575TIP3    H147140   4.624   5.466  15.013
 8575TIP3    H247141   4.640   5.351  15.108
 8576TIP3   OH247142   4.400   5.466  14.352
 8576TIP3    H147143   4.304   5.480  14.366
 8576TIP3    H247144   4.437   5.549  14.387
 8577TIP3   OH247145   4.931   4.983  15.001
 8577TIP3    H147146   4.898   4.967  15.092
 8577TIP3    H247147   4.995   4.912  14.988
 8578TIP3   OH247148   5.165   5.093  13.913
 8578TIP3    H147149   5.194   5.044  13.992
 8578TIP3    H247150   5.069   5.074  13.919
 8579TIP3   OH247151   5.213   5.443  15.252
 8579TIP3    H147152   5.143   5.394  15.204
 8579TIP3    H247153   5.230   5.513  15.186
 8580TIP3   OH247154   5.611   5.528  13.938
 8580TIP3    H147155   5.679   5.594  13.917
 8580TIP3    H247156   5.539   5.588  13.966
 8581TIP3   OH247157   4.018   4.168  15.192
 8581TIP3    H147158   3.928   4.203  15.189
 8581TIP3    H247159   4.007   4.084  15.238
 8582TIP3   OH247160   5.242   4.960  14.146
 8582TIP3    H147161   5.221   4.873  14.186
 8582TIP3    H247162   5.339   4.959  14.151
 8583TIP3   OH247163   3.979   5.347  15.034
 8583TIP3    H147164   4.010   5.255  15.035
 8583TIP3    H247165   4.006   5.376  15.122
 8584TIP3   OH247166   4.577   5.200  13.762
 8584TIP3    H147167   4.587   5.123  13.703
 8584TIP3    H247168   4.533   5.157  13.838
 8585TIP3   OH247169   4.454   5.152  14.007
 8585TIP3    H147170   4.481   5.101  14.084
 8585TIP3    H247171   4.464   5.245  14.040
 8586TIP3   OH247172   4.109   4.877  14.056
 8586TIP3    H147173   4.037   4.916  14.109
 8586TIP3    H247174   4.159   4.955  14.026
 8587TIP3   OH247175   4.891   4.146  15.088
 8587TIP3    H147176   4.963   4.152  15.152
 8587TIP3    H247177   4.853   4.058  15.108
 8588TIP3   OH247178   4.966   4.102  14.196
 8588TIP3    H147179   4.989   4.149  14.113
 8588TIP3    H247180   5.024   4.147  14.259
 8589TIP3   OH247181   4.735   5.318  14.076
 8589TIP3    H147182   4.653   5.372  14.084
 8589TIP3    H247183   4.789   5.374  14.018
 8590TIP3   OH247184   4.689   4.278  14.278
 8590TIP3    H147185   4.767   4.336  14.283
 8590TIP3    H247186   4.662   4.264  14.371
 8591TIP3   OH247187   4.744   4.380  15.196
 8591TIP3    H147188   4.750   4.435  15.277
 8591TIP3    H247189   4.810   4.310  15.206
 8592TIP3   OH247190   4.774   3.983  14.366
 8592TIP3    H147191   4.741   4.048  14.431
 8592TIP3    H247192   4.843   4.038  14.322
 8593TIP3   OH247193   4.475   5.422  14.080
 8593TIP3    H147194   4.484   5.503  14.024
 8593TIP3    H247195   4.447   5.458  14.167
 8594TIP3   OH247196   4.339   4.094  14.037
 8594TIP3    H147197   4.334   4.184  14.076
 8594TIP3    H247198   4.430   4.070  14.064
 8595TIP3   OH247199   5.362   4.165  15.281
 8595TIP3    H147200   5.270   4.198  15.269
 8595TIP3    H247201   5.392   4.165  15.189
 8596TIP3   OH247202   5.221   4.547  14.684
 8596TIP3    H147203   5.141   4.501  14.655
 8596TIP3    H247204   5.270   4.478  14.733
 8597TIP3   OH247205   4.162   5.138  13.942
 8597TIP3    H147206   4.229   5.201  13.973
 8597TIP3    H247207   4.215   5.092  13.873
 8598TIP3   OH247208   3.997   4.406  13.856
 8598TIP3    H147209   3.999   4.501  13.877
 8598TIP3    H247210   3.908   4.388  13.825
 8599TIP3   OH247211   5.331   5.471  14.846
 8599TIP3    H147212   5.317   5.543  14.783
 8599TIP3    H247213   5.425   5.478  14.871
 8600TIP3   OH247214   4.079   3.884  14.731
 8600TIP3    H147215   4.059   3.885  14.634
 8600TIP3    H247216   4.037   3.798  14.756
 8601TIP3   OH247217   3.974   5.276  14.345
 8601TIP3    H147218   3.889   5.321  14.340
 8601TIP3    H247219   4.022   5.323  14.275
 8602TIP3   OH247220   3.894   5.542  15.474
 8602TIP3    H147221   3.954   5.522  15.548
 8602TIP3    H247222   3.854   5.456  15.456
 8603TIP3   OH247223   4.361   5.428  15.636
 8603TIP3    H147224   4.440   5.383  15.667
 8603TIP3    H247225   4.360   5.405  15.541
 8604TIP3   OH247226   4.776   5.386  13.775
 8604TIP3    H147227   4.707   5.319  13.797
 8604TIP3    H247228   4.848   5.326  13.749
 8605TIP3   OH247229   5.014   5.270  15.505
 8605TIP3    H147230   4.980   5.184  15.537
 8605TIP3    H247231   5.089   5.287  15.565
 8606TIP3   OH247232   5.232   5.359  13.793
 8606TIP3    H147233   5.262   5.281  13.843
 8606TIP3    H247234   5.308   5.382  13.737
 8607TIP3   OH247235   3.885   4.916  15.571
 8607TIP3    H147236   3.903   4.826  15.540
 8607TIP3    H247237   3.812   4.944  15.513
 8608TIP3   OH247238   4.322   4.954  13.775
 8608TIP3    H147239   4.335   4.877  13.833
 8608TIP3    H247240   4.396   4.941  13.713
 8609TIP3   OH247241   4.557   4.916  15.511
 8609TIP3    H147242   4.524   4.949  15.425
 8609TIP3    H247243   4.565   4.819  15.499
 8610TIP3   OH247244   4.862   5.066  13.751
 8610TIP3    H147245   4.837   5.071  13.844
 8610TIP3    H247246   4.847   4.969  13.736
 8611TIP3   OH247247   5.131   4.905  15.262
 8611TIP3    H147248   5.205   4.965  15.239
 8611TIP3    H247249   5.057   4.968  15.252
 8612TIP3   OH247250   3.976   4.641  15.510
 8612TIP3    H147251   4.020   4.556  15.502
 8612TIP3    H247252   3.956   4.643  15.606
 8613TIP3   OH247253   4.442   4.755  14.018
 8613TIP3    H147254   4.391   4.701  14.080
 8613TIP3    H247255   4.471   4.687  13.952
 8614TIP3   OH247256   4.368   4.536  15.246
 8614TIP3    H147257   4.308   4.608  15.272
 8614TIP3    H247258   4.408   4.572  15.165
 8615TIP3   OH247259   4.549   4.577  13.836
 8615TIP3    H147260   4.535   4.569  13.740
 8615TIP3    H247261   4.646   4.583  13.843
 8616TIP3   OH247262   4.875   4.793  15.585
 8616TIP3    H147263   4.970   4.788  15.569
 8616TIP3    H247264   4.856   4.714  15.639
 8617TIP3   OH247265   5.485   4.809  13.779
 8617TIP3    H147266   5.463   4.771  13.693
 8617TIP3    H247267   5.491   4.905  13.760
 8618TIP3   OH247268   4.409   4.275  15.350
 8618TIP3    H147269   4.420   4.203  15.285
 8618TIP3    H247270   4.404   4.355  15.295
 8619TIP3   OH247271   4.449   4.112  15.107
 8619TIP3    H147272   4.500   4.158  15.037
 8619TIP3    H247273   4.359   4.103  15.067
 8620TIP3   OH247274   4.604   4.661  15.133
 8620TIP3    H147275   4.679   4.644  15.076
 8620TIP3    H247276   4.566   4.744  15.098
 8621TIP3   OH247277   5.041   4.435  15.625
 8621TIP3    H147278   5.063   4.341  15.620
 8621TIP3    H247279   5.129   4.475  15.632
 8622TIP3   OH247280   5.158   4.706  15.435
 8622TIP3    H147281   5.133   4.778  15.371
 8622TIP3    H247282   5.245   4.678  15.401
 8623TIP3   OH247283   4.257   4.398  15.546
 8623TIP3    H147284   4.178   4.342  15.526
 8623TIP3    H247285   4.320   4.362  15.480
 8624TIP3   OH247286   4.529   3.856  15.147
 8624TIP3    H147287   4.509   3.952  15.136
 8624TIP3    H247288   4.453   3.818  15.098
 8625TIP3   OH247289   4.656   4.288  15.508
 8625TIP3    H147290   4.623   4.267  15.598
 8625TIP3    H247291   4.578   4.269  15.453
 8626TIP3   OH247292   4.928   4.204  15.417
 8626TIP3    H147293   4.832   4.210  15.430
 8626TIP3    H247294   4.954   4.139  15.486
 8627TIP3   OH247295   5.080   4.065  15.608
 8627TIP3    H147296   5.080   3.967  15.610
 8627TIP3    H247297   5.058   4.093  15.700
 8628TIP3   OH247298   4.066   4.193  15.520
 8628TIP3    H147299   4.088   4.118  15.461
 8628TIP3    H247300   4.054   4.148  15.606
 8629TIP3   OH247301   4.549   3.794  15.417
 8629TIP3    H147302   4.618   3.724  15.414
 8629TIP3    H247303   4.537   3.808  15.321
 8630TIP3   OH247304   4.583   3.954  15.627
 8630TIP3    H147305   4.568   3.904  15.543
 8630TIP3    H247306   4.527   4.033  15.615
 8631TIP3   OH247307   4.532   5.647  13.945
 8631TIP3    H147308   4.629   5.656  13.952
 8631TIP3    H247309   4.517   5.708  13.871
 8632TIP3   OH247310   3.887   5.105  13.892
 8632TIP3    H147311   3.984   5.114  13.910
 8632TIP3    H247312   3.892   5.040  13.817
 8633TIP3   OH247313   3.765   5.643  14.389
 8633TIP3    H147314   3.693   5.595  14.343
 8633TIP3    H247315   3.793   5.578  14.455
 8634TIP3   OH247316   3.848   5.457  14.576
 8634TIP3    H147317   3.812   5.369  14.597
 8634TIP3    H247318   3.870   5.490  14.665
 8635TIP3   OH247319   5.599   5.545  14.862
 8635TIP3    H147320   5.602   5.549  14.961
 8635TIP3    H247321   5.679   5.595  14.845
 8636TIP3   OH247322   5.559   5.496  15.161
 8636TIP3    H147323   5.511   5.418  15.127
 8636TIP3    H247324   5.607   5.453  15.234
 8637TIP3   OH247325   5.401   5.064  15.630
 8637TIP3    H147326   5.312   5.070  15.672
 8637TIP3    H247327   5.441   5.145  15.671
 8638TIP3   OH247328   5.533   4.903  14.173
 8638TIP3    H147329   5.622   4.940  14.192
 8638TIP3    H247330   5.533   4.830  14.241
 8639TIP3   OH247331   5.550   4.723  14.367
 8639TIP3    H147332   5.495   4.651  14.403
 8639TIP3    H247333   5.631   4.720  14.423
 8640TIP3   OH247334   5.546   4.976  14.860
 8640TIP3    H147335   5.628   4.938  14.823
 8640TIP3    H247336   5.562   5.071  14.845
 8641TIP3   OH247337   5.402   5.269  15.086
 8641TIP3    H147338   5.334   5.303  15.146
 8641TIP3    H247339   5.347   5.226  15.018
 8642TIP3   OH247340   5.603   4.691  14.004
 8642TIP3    H147341   5.544   4.725  13.932
 8642TIP3    H247342   5.590   4.761  14.071
 8643TIP3   OH247343   5.438   4.415  13.855
 8643TIP3    H147344   5.446   4.480  13.784
 8643TIP3    H247345   5.421   4.332  13.806
 8644TIP3   OH247346   5.346   4.557  14.420
 8644TIP3    H147347   5.342   4.460  14.416
 8644TIP3    H247348   5.322   4.575  14.513
 8645TIP3   OH247349   3.852   4.760  14.825
 8645TIP3    H147350   3.875   4.758  14.729
 8645TIP3    H247351   3.942   4.748  14.862
 8646TIP3   OH247352   5.448   4.752  15.380
 8646TIP3    H147353   5.508   4.674  15.395
 8646TIP3    H247354   5.513   4.827  15.376
 8647TIP3   OH247355   5.585   4.541  15.459
 8647TIP3    H147356   5.501   4.497  15.435
 8647TIP3    H247357   5.646   4.466  15.447
 8648TIP3   OH247358   5.363   4.161  13.767
 8648TIP3    H147359   5.421   4.116  13.830
 8648TIP3    H247360   5.277   4.120  13.782
 8649TIP3   OH247361   5.319   4.315  14.262
 8649TIP3    H147362   5.350   4.223  14.278
 8649TIP3    H247363   5.401   4.356  14.231
 8650TIP3   OH247364   5.383   4.369  14.810
 8650TIP3    H147365   5.479   4.392  14.809
 8650TIP3    H247366   5.365   4.382  14.904
 8651TIP3   OH247367   5.391   4.441  15.089
 8651TIP3    H147368   5.302   4.470  15.118
 8651TIP3    H247369   5.434   4.526  15.064
 8652TIP3   OH247370   3.816   4.293  15.439
 8652TIP3    H147371   3.909   4.273  15.460
 8652TIP3    H247372   3.768   4.212  15.470
 8653TIP3   OH247373   5.616   3.847  15.622
 8653TIP3    H147374   5.652   3.780  15.561
 8653TIP3    H247375   5.630   3.928  15.570
 8654TIP3   OH247376   5.388   4.044  14.270
 8654TIP3    H147377   5.408   4.000  14.355
 8654TIP3    H247378   5.328   3.980  14.226
 8655TIP3   OH247379   3.934   4.125  14.727
 8655TIP3    H147380   3.980   4.042  14.751
 8655TIP3    H247381   3.992   4.193  14.764
 8656TIP3   OH247382   3.757   4.430  14.821
 8656TIP3    H147383   3.822   4.397  14.755
 8656TIP3    H247384   3.811   4.503  14.858
 8657TIP3   OH247385   5.569   4.057  15.457
 8657TIP3    H147386   5.475   4.084  15.452
 8657TIP3    H247387   5.573   4.002  15.378
 8658TIP3   OH247388   5.568   4.045  13.925
 8658TIP3    H147389   5.610   3.974  13.871
 8658TIP3    H247390   5.638   4.112  13.930
 8659TIP3   OH247391   3.801   4.051  14.238
 8659TIP3    H147392   3.706   4.067  14.222
 8659TIP3    H247393   3.842   4.099  14.164
 8660TIP3   OH247394   5.275   5.542  14.434
 8660TIP3    H147395   5.340   5.515  14.367
 8660TIP3    H247396   5.320   5.600  14.494
 8661TIP3   OH247397   3.795   3.917  15.067
 8661TIP3    H147398   3.729   3.895  15.135
 8661TIP3    H247399   3.748   3.982  15.012
 8662TIP3   OH247400   4.019   5.237  15.483
 8662TIP3    H147401   3.935   5.257  15.440
 8662TIP3    H247402   3.992   5.229  15.575
 8663TIP3   OH247403   4.309   5.336  15.111
 8663TIP3    H147404   4.276   5.422  15.083
 8663TIP3    H247405   4.402   5.344  15.080
 8664TIP3   OH247406   4.741   5.477  15.401
 8664TIP3    H147407   4.754   5.443  15.493
 8664TIP3    H247408   4.831   5.508  15.378
 8665TIP3   OH247409   4.970   5.605  15.332
 8665TIP3    H147410   5.043   5.546  15.308
 8665TIP3    H247411   5.007   5.649  15.411
 8666TIP3   OH247412   5.472   3.866  15.243
 8666TIP3    H147413   5.389   3.896  15.202
 8666TIP3    H247414   5.488   3.784  15.191
 8667TIP3   OH247415   4.051   5.659  15.110
 8667TIP3    H147416   3.978   5.709  15.070
 8667TIP3    H247417   4.020   5.640  15.200
 8668TIP3   OH247418   4.298   5.617  15.017
 8668TIP3    H147419   4.209   5.632  15.057
 8668TIP3    H247420   4.293   5.676  14.940
 8669TIP3   OH247421   4.769   5.608  14.934
 8669TIP3    H147422   4.723   5.664  14.870
 8669TIP3    H247423   4.782   5.672  15.008
 8670TIP3   OH247424   4.998   5.488  15.038
 8670TIP3    H147425   4.912   5.517  15.000
 8670TIP3    H247426   5.046   5.572  15.028
 8671TIP3   OH247427   5.257   5.645  15.059
 8671TIP3    H147428   5.250   5.742  15.038
 8671TIP3    H247429   5.277   5.609  14.971
 8672TIP3   OH247430   3.997   5.524  14.804
 8672TIP3    H147431   3.989   5.478  14.890
 8672TIP3    H247432   4.079   5.486  14.765
 8673TIP3   OH247433   4.205   5.395  14.670
 8673TIP3    H147434   4.188   5.302  14.693
 8673TIP3    H247435   4.290   5.411  14.715
 8674TIP3   OH247436   4.466   5.444  14.758
 8674TIP3    H147437   4.481   5.351  14.731
 8674TIP3    H247438   4.470   5.438  14.854
 8675TIP3   OH247439   4.811   4.010  14.671
 8675TIP3    H147440   4.744   3.946  14.699
 8675TIP3    H247441   4.866   3.956  14.612
 8676TIP3   OH247442   5.324   3.814  14.677
 8676TIP3    H147443   5.386   3.873  14.627
 8676TIP3    H247444   5.236   3.850  14.654
 8677TIP3   OH247445   5.490   3.937  14.506
 8677TIP3    H147446   5.559   3.883  14.462
 8677TIP3    H247447   5.541   4.021  14.516
 8678TIP3   OH247448   4.048   3.871  14.456
 8678TIP3    H147449   3.968   3.852  14.403
 8678TIP3    H247450   4.094   3.785  14.450
 8679TIP3   OH247451   3.924   3.847  14.028
 8679TIP3    H147452   3.974   3.912  13.975
 8679TIP3    H247453   3.868   3.904  14.082
 8680TIP3   OH247454   4.495   3.864  14.435
 8680TIP3    H147455   4.585   3.900  14.427
 8680TIP3    H247456   4.491   3.842  14.528
 8681TIP3   OH247457   5.066   3.866  14.597
 8681TIP3    H147458   5.061   3.877  14.501
 8681TIP3    H247459   5.028   3.776  14.610
 8682TIP3   OH247460   5.193   3.869  14.165
 8682TIP3    H147461   5.118   3.928  14.150
 8682TIP3    H247462   5.149   3.783  14.189
 8683TIP3   OH247463   3.916   5.441  14.131
 8683TIP3    H147464   3.850   5.440  14.059
 8683TIP3    H247465   3.916   5.537  14.148
 8684TIP3   OH247466   4.107   4.041  13.879
 8684TIP3    H147467   4.160   3.979  13.826
 8684TIP3    H247468   4.174   4.073  13.943
 8685TIP3   OH247469   4.610   4.065  14.120
 8685TIP3    H147470   4.635   4.007  14.194
 8685TIP3    H247471   4.617   4.152  14.165
 8686TIP3   OH247472   4.803   5.573  13.964
 8686TIP3    H147473   4.895   5.595  13.942
 8686TIP3    H247474   4.781   5.521  13.884
 8687TIP3   OH247475   5.474   5.523  14.238
 8687TIP3    H147476   5.453   5.445  14.180
 8687TIP3    H247477   5.466   5.596  14.172
 8688TIP3   OH247478   4.034   3.925  15.400
 8688TIP3    H147479   3.997   3.844  15.439
 8688TIP3    H247480   4.126   3.919  15.436
 8689TIP3   OH247481   4.238   3.864  15.564
 8689TIP3    H147482   4.325   3.827  15.539
 8689TIP3    H247483   4.198   3.783  15.601
 8690TIP3   OH247484   4.095   5.540  13.825
 8690TIP3    H147485   4.069   5.566  13.915
 8690TIP3    H247486   4.174   5.484  13.841
 8691TIP3   OH247487   5.077   3.791  15.581
 8691TIP3    H147488   5.087   3.745  15.666
 8691TIP3    H247489   5.169   3.789  15.546
 8692TIP3   OH247490   5.397   5.396  15.446
 8692TIP3    H147491   5.317   5.385  15.389
 8692TIP3    H247492   5.387   5.491  15.467
 8693TIP3   OH247493   6.842   4.784  14.442
 8693TIP3    H147494   6.842   4.882  14.439
 8693TIP3    H247495   6.769   4.762  14.382
 8694TIP3   OH247496   6.728   4.711  14.791
 8694TIP3    H147497   6.726   4.646  14.864
 8694TIP3    H247498   6.694   4.659  14.716
 8695TIP3   OH247499   5.964   4.678  14.946
 8695TIP3    H147500   5.972   4.610  15.017
 8695TIP3    H247501   6.038   4.736  14.969
 8696TIP3   OH247502   7.098   5.003  14.621
 8696TIP3    H147503   7.056   4.932  14.670
 8696TIP3    H247504   7.099   5.075  14.687
 8697TIP3   OH247505   6.055   5.123  14.796
 8697TIP3    H147506   6.025   5.035  14.764
 8697TIP3    H247507   6.151   5.104  14.802
 8698TIP3   OH247508   5.690   4.439  14.347
 8698TIP3    H147509   5.687   4.537  14.342
 8698TIP3    H247510   5.643   4.415  14.266
 8699TIP3   OH247511   5.812   4.719  14.613
 8699TIP3    H147512   5.814   4.623  14.609
 8699TIP3    H247513   5.857   4.739  14.528
 8700TIP3   OH247514   6.808   5.521  14.643
 8700TIP3    H147515   6.872   5.452  14.615
 8700TIP3    H247516   6.785   5.487  14.730
 8701TIP3   OH247517   6.566   4.950  14.839
 8701TIP3    H147518   6.599   4.888  14.773
 8701TIP3    H247519   6.647   4.966  14.891
 8702TIP3   OH247520   6.883   4.398  14.870
 8702TIP3    H147521   6.899   4.302  14.869
 8702TIP3    H247522   6.873   4.413  14.774
 8703TIP3   OH247523   6.192   4.208  14.591
 8703TIP3    H147524   6.202   4.291  14.541
 8703TIP3    H247525   6.153   4.149  14.523
 8704TIP3   OH247526   6.970   4.218  14.430
 8704TIP3    H147527   7.034   4.182  14.496
 8704TIP3    H247528   7.029   4.271  14.376
 8705TIP3   OH247529   5.853   4.442  14.667
 8705TIP3    H147530   5.924   4.392  14.711
 8705TIP3    H247531   5.867   4.420  14.574
 8706TIP3   OH247532   6.373   4.603  14.598
 8706TIP3    H147533   6.439   4.544  14.637
 8706TIP3    H247534   6.319   4.539  14.547
 8707TIP3   OH247535   6.084   4.096  14.996
 8707TIP3    H147536   6.056   4.154  14.921
 8707TIP3    H247537   6.017   4.120  15.064
 8708TIP3   OH247538   6.811   5.043  14.350
 8708TIP3    H147539   6.786   5.017  14.261
 8708TIP3    H247540   6.781   5.137  14.356
 8709TIP3   OH247541   6.335   4.861  15.020
 8709TIP3    H147542   6.265   4.925  15.042
 8709TIP3    H247543   6.406   4.920  14.991
 8710TIP3   OH247544   7.118   4.147  14.640
 8710TIP3    H147545   7.121   4.064  14.690
 8710TIP3    H247546   7.195   4.193  14.680
 8711TIP3   OH247547   6.041   4.281  14.800
 8711TIP3    H147548   6.104   4.351  14.831
 8711TIP3    H247549   6.093   4.241  14.726
 8712TIP3   OH247550   6.181   5.061  15.102
 8712TIP3    H147551   6.176   5.153  15.068
 8712TIP3    H247552   6.092   5.053  15.146
 8713TIP3   OH247553   5.790   5.021  14.178
 8713TIP3    H147554   5.762   5.058  14.092
 8713TIP3    H247555   5.795   5.102  14.233
 8714TIP3   OH247556   7.129   5.182  14.866
 8714TIP3    H147557   7.033   5.203  14.871
 8714TIP3    H247558   7.167   5.266  14.836
 8715TIP3   OH247559   7.161   4.031  14.970
 8715TIP3    H147560   7.092   4.099  14.982
 8715TIP3    H247561   7.238   4.080  14.939
 8716TIP3   OH247562   6.478   3.830  14.742
 8716TIP3    H147563   6.465   3.733  14.735
 8716TIP3    H247564   6.390   3.860  14.773
 8717TIP3   OH247565   6.967   5.361  14.518
 8717TIP3    H147566   7.015   5.293  14.467
 8717TIP3    H247567   7.012   5.441  14.482
 8718TIP3   OH247568   7.095   5.159  14.368
 8718TIP3    H147569   7.070   5.088  14.307
 8718TIP3    H247570   7.101   5.109  14.451
 8719TIP3   OH247571   7.232   5.034  15.228
 8719TIP3    H147572   7.260   4.964  15.166
 8719TIP3    H247573   7.273   5.110  15.183
 8720TIP3   OH247574   6.707   4.709  14.193
 8720TIP3    H147575   6.638   4.767  14.156
 8720TIP3    H247576   6.779   4.718  14.127
 8721TIP3   OH247577   6.715   4.566  13.894
 8721TIP3    H147578   6.787   4.564  13.959
 8721TIP3    H247579   6.746   4.494  13.837
 8722TIP3   OH247580   7.050   4.730  14.282
 8722TIP3    H147581   6.977   4.756  14.344
 8722TIP3    H247582   7.098   4.666  14.339
 8723TIP3   OH247583   7.047   4.548  15.195
 8723TIP3    H147584   7.042   4.628  15.250
 8723TIP3    H247585   6.983   4.575  15.126
 8724TIP3   OH247586   6.214   4.796  14.477
 8724TIP3    H147587   6.179   4.756  14.396
 8724TIP3    H247588   6.274   4.726  14.512
 8725TIP3   OH247589   6.345   5.134  14.745
 8725TIP3    H147590   6.345   5.082  14.664
 8725TIP3    H247591   6.424   5.099  14.791
 8726TIP3   OH247592   6.247   4.669  14.843
 8726TIP3    H147593   6.302   4.681  14.764
 8726TIP3    H247594   6.283   4.737  14.904
 8727TIP3   OH247595   6.880   5.229  14.912
 8727TIP3    H147596   6.861   5.292  14.982
 8727TIP3    H247597   6.863   5.143  14.956
 8728TIP3   OH247598   6.341   5.114  15.312
 8728TIP3    H147599   6.300   5.188  15.362
 8728TIP3    H247600   6.274   5.094  15.243
 8729TIP3   OH247601   6.939   4.648  14.053
 8729TIP3    H147602   6.995   4.670  14.132
 8729TIP3    H247603   6.979   4.701  13.981
 8730TIP3   OH247604   6.036   4.730  15.228
 8730TIP3    H147605   6.040   4.796  15.299
 8730TIP3    H247606   5.942   4.739  15.206
 8731TIP3   OH247607   6.711   5.323  14.398
 8731TIP3    H147608   6.754   5.352  14.479
 8731TIP3    H247609   6.654   5.397  14.375
 8732TIP3   OH247610   6.167   5.317  15.387
 8732TIP3    H147611   6.160   5.307  15.291
 8732TIP3    H247612   6.074   5.304  15.414
 8733TIP3   OH247613   6.122   4.689  14.207
 8733TIP3    H147614   6.083   4.779  14.198
 8733TIP3    H247615   6.042   4.643  14.241
 8734TIP3   OH247616   5.717   4.943  15.133
 8734TIP3    H147617   5.676   4.935  15.045
 8734TIP3    H247618   5.730   4.847  15.148
 8735TIP3   OH247619   5.695   5.219  14.800
 8735TIP3    H147620   5.790   5.200  14.806
 8735TIP3    H247621   5.688   5.295  14.859
 8736TIP3   OH247622   6.615   5.239  15.262
 8736TIP3    H147623   6.621   5.323  15.313
 8736TIP3    H247624   6.528   5.203  15.286
 8737TIP3   OH247625   6.660   5.615  14.243
 8737TIP3    H147626   6.651   5.605  14.147
 8737TIP3    H247627   6.664   5.712  14.253
 8738TIP3   OH247628   6.021   5.505  14.424
 8738TIP3    H147629   6.039   5.459  14.510
 8738TIP3    H247630   5.941   5.459  14.397
 8739TIP3   OH247631   6.966   5.536  13.937
 8739TIP3    H147632   7.010   5.459  13.893
 8739TIP3    H247633   6.968   5.508  14.031
 8740TIP3   OH247634   6.932   5.526  14.217
 8740TIP3    H147635   6.836   5.535  14.234
 8740TIP3    H247636   6.956   5.452  14.275
 8741TIP3   OH247637   7.185   4.449  15.423
 8741TIP3    H147638   7.181   4.484  15.334
 8741TIP3    H247639   7.239   4.366  15.409
 8742TIP3   OH247640   5.948   5.072  15.222
 8742TIP3    H147641   5.968   5.034  15.310
 8742TIP3    H247642   5.861   5.033  15.200
 8743TIP3   OH247643   6.216   3.919  14.818
 8743TIP3    H147644   6.125   3.909  14.780
 8743TIP3    H247645   6.203   4.002  14.866
 8744TIP3   OH247646   6.681   3.886  15.154
 8744TIP3    H147647   6.720   3.844  15.233
 8744TIP3    H247648   6.584   3.875  15.168
 8745TIP3   OH247649   7.002   4.267  15.237
 8745TIP3    H147650   6.954   4.250  15.322
 8745TIP3    H247651   6.994   4.363  15.224
 8746TIP3   OH247652   7.090   4.744  13.834
 8746TIP3    H147653   7.082   4.729  13.737
 8746TIP3    H247654   7.166   4.801  13.836
 8747TIP3   OH247655   6.645   4.145  13.884
 8747TIP3    H147656   6.613   4.139  13.976
 8747TIP3    H247657   6.615   4.058  13.854
 8748TIP3   OH247658   6.227   4.418  14.944
 8748TIP3    H147659   6.153   4.417  15.007
 8748TIP3    H247660   6.221   4.509  14.906
 8749TIP3   OH247661   6.224   4.429  14.428
 8749TIP3    H147662   6.129   4.406  14.417
 8749TIP3    H247663   6.261   4.398  14.343
 8750TIP3   OH247664   6.775   4.480  14.307
 8750TIP3    H147665   6.735   4.562  14.270
 8750TIP3    H247666   6.844   4.463  14.241
 8751TIP3   OH247667   6.680   4.501  15.450
 8751TIP3    H147668   6.630   4.422  15.480
 8751TIP3    H247669   6.765   4.489  15.495
 8752TIP3   OH247670   6.875   4.430  14.593
 8752TIP3    H147671   6.851   4.485  14.516
 8752TIP3    H247672   6.887   4.344  14.547
 8753TIP3   OH247673   5.990   4.441  15.112
 8753TIP3    H147674   5.997   4.483  15.199
 8753TIP3    H247675   5.944   4.358  15.132
 8754TIP3   OH247676   6.326   4.186  13.798
 8754TIP3    H147677   6.281   4.139  13.871
 8754TIP3    H247678   6.255   4.223  13.745
 8755TIP3   OH247679   5.652   4.149  14.511
 8755TIP3    H147680   5.723   4.152  14.579
 8755TIP3    H247681   5.700   4.119  14.431
 8756TIP3   OH247682   5.780   4.224  14.043
 8756TIP3    H147683   5.831   4.286  13.988
 8756TIP3    H247684   5.712   4.286  14.078
 8757TIP3   OH247685   6.796   4.586  15.046
 8757TIP3    H147686   6.835   4.517  14.988
 8757TIP3    H247687   6.750   4.534  15.113
 8758TIP3   OH247688   6.477   4.185  14.530
 8758TIP3    H147689   6.383   4.185  14.560
 8758TIP3    H247690   6.527   4.168  14.612
 8759TIP3   OH247691   5.960   4.340  14.415
 8759TIP3    H147692   5.869   4.355  14.381
 8759TIP3    H247693   5.984   4.254  14.377
 8760TIP3   OH247694   6.323   4.344  14.178
 8760TIP3    H147695   6.419   4.354  14.196
 8760TIP3    H247696   6.302   4.414  14.115
 8761TIP3   OH247697   6.911   4.105  14.855
 8761TIP3    H147698   6.844   4.112  14.926
 8761TIP3    H247699   6.862   4.084  14.775
 8762TIP3   OH247700   6.184   4.473  13.932
 8762TIP3    H147701   6.144   4.418  13.862
 8762TIP3    H247702   6.275   4.481  13.893
 8763TIP3   OH247703   7.226   5.680  15.493
 8763TIP3    H147704   7.260   5.707  15.406
 8763TIP3    H247705   7.307   5.702  15.543
 8764TIP3   OH247706   6.007   4.919  15.445
 8764TIP3    H147707   6.078   4.944  15.506
 8764TIP3    H247708   5.929   4.927  15.504
 8765TIP3   OH247709   6.606   4.460  14.719
 8765TIP3    H147710   6.666   4.407  14.666
 8765TIP3    H247711   6.592   4.405  14.797
 8766TIP3   OH247712   6.107   4.076  14.363
 8766TIP3    H147713   6.075   3.985  14.361
 8766TIP3    H247714   6.186   4.068  14.308
 8767TIP3   OH247715   6.470   4.293  14.960
 8767TIP3    H147716   6.388   4.345  14.969
 8767TIP3    H247717   6.525   4.328  15.033
 8768TIP3   OH247718   6.529   4.916  14.131
 8768TIP3    H147719   6.450   4.869  14.097
 8768TIP3    H247720   6.506   4.927  14.225
 8769TIP3   OH247721   7.216   4.837  15.010
 8769TIP3    H147722   7.288   4.850  14.945
 8769TIP3    H247723   7.140   4.838  14.949
 8770TIP3   OH247724   6.915   4.198  13.947
 8770TIP3    H147725   6.819   4.210  13.933
 8770TIP3    H247726   6.943   4.284  13.984
 8771TIP3   OH247727   6.679   4.942  15.255
 8771TIP3    H147728   6.643   4.899  15.333
 8771TIP3    H247729   6.655   5.035  15.265
 8772TIP3   OH247730   6.985   4.390  14.107
 8772TIP3    H147731   7.072   4.376  14.151
 8772TIP3    H247732   6.995   4.474  14.059
 8773TIP3   OH247733   6.048   4.859  14.716
 8773TIP3    H147734   6.105   4.845  14.638
 8773TIP3    H247735   6.043   4.769  14.754
 8774TIP3   OH247736   6.736   5.062  14.033
 8774TIP3    H147737   6.704   5.147  14.070
 8774TIP3    H247738   6.664   5.000  14.056
 8775TIP3   OH247739   5.732   4.698  15.241
 8775TIP3    H147740   5.760   4.649  15.321
 8775TIP3    H247741   5.678   4.633  15.192
 8776TIP3   OH247742   6.439   4.651  15.455
 8776TIP3    H147743   6.408   4.620  15.369
 8776TIP3    H247744   6.532   4.619  15.454
 8777TIP3   OH247745   6.909   5.186  15.250
 8777TIP3    H147746   6.817   5.202  15.226
 8777TIP3    H247747   6.905   5.214  15.343
 8778TIP3   OH247748   7.019   4.765  14.839
 8778TIP3    H147749   6.926   4.743  14.825
 8778TIP3    H247750   7.067   4.691  14.797
 8779TIP3   OH247751   6.277   5.201  14.449
 8779TIP3    H147752   6.327   5.281  14.428
 8779TIP3    H247753   6.190   5.224  14.415
 8780TIP3   OH247754   5.840   4.701  13.886
 8780TIP3    H147755   5.891   4.770  13.931
 8780TIP3    H247756   5.751   4.719  13.928
 8781TIP3   OH247757   6.417   4.967  14.401
 8781TIP3    H147758   6.387   5.059  14.410
 8781TIP3    H247759   6.344   4.917  14.444
 8782TIP3   OH247760   6.463   5.385  15.042
 8782TIP3    H147761   6.510   5.465  15.013
 8782TIP3    H247762   6.525   5.351  15.108
 8783TIP3   OH247763   6.285   5.465  14.354
 8783TIP3    H147764   6.188   5.479  14.366
 8783TIP3    H247765   6.322   5.548  14.388
 8784TIP3   OH247766   6.818   4.985  15.004
 8784TIP3    H147767   6.784   4.965  15.094
 8784TIP3    H247768   6.880   4.913  14.986
 8785TIP3   OH247769   7.048   5.090  13.911
 8785TIP3    H147770   7.080   5.047  13.993
 8785TIP3    H247771   6.953   5.073  13.920
 8786TIP3   OH247772   7.098   5.441  15.251
 8786TIP3    H147773   7.026   5.394  15.204
 8786TIP3    H247774   7.119   5.512  15.187
 8787TIP3   OH247775   5.904   4.169  15.191
 8787TIP3    H147776   5.813   4.203  15.189
 8787TIP3    H247777   5.893   4.084  15.238
 8788TIP3   OH247778   7.128   4.951  14.134
 8788TIP3    H147779   7.105   4.874  14.191
 8788TIP3    H247780   7.222   4.963  14.157
 8789TIP3   OH247781   5.865   5.348  15.032
 8789TIP3    H147782   5.896   5.256  15.034
 8789TIP3    H247783   5.891   5.377  15.121
 8790TIP3   OH247784   6.463   5.200  13.762
 8790TIP3    H147785   6.472   5.123  13.703
 8790TIP3    H247786   6.418   5.157  13.838
 8791TIP3   OH247787   6.339   5.153  14.007
 8791TIP3    H147788   6.367   5.101  14.084
 8791TIP3    H247789   6.349   5.245  14.040
 8792TIP3   OH247790   5.990   4.872  14.052
 8792TIP3    H147791   5.923   4.913  14.112
 8792TIP3    H247792   6.042   4.951  14.028
 8793TIP3   OH247793   6.774   4.145  15.088
 8793TIP3    H147794   6.849   4.152  15.149
 8793TIP3    H247795   6.737   4.057  15.109
 8794TIP3   OH247796   6.857   4.101  14.196
 8794TIP3    H147797   6.875   4.149  14.114
 8794TIP3    H247798   6.912   4.148  14.260
 8795TIP3   OH247799   6.620   5.320  14.078
 8795TIP3    H147800   6.538   5.372  14.084
 8795TIP3    H247801   6.674   5.374  14.018
 8796TIP3   OH247802   6.575   4.278  14.278
 8796TIP3    H147803   6.653   4.336  14.283
 8796TIP3    H247804   6.549   4.266  14.372
 8797TIP3   OH247805   6.633   4.381  15.197
 8797TIP3    H147806   6.641   4.437  15.277
 8797TIP3    H247807   6.697   4.310  15.206
 8798TIP3   OH247808   6.655   3.984  14.364
 8798TIP3    H147809   6.628   4.049  14.431
 8798TIP3    H247810   6.727   4.037  14.322
 8799TIP3   OH247811   6.360   5.421  14.078
 8799TIP3    H147812   6.370   5.503  14.024
 8799TIP3    H247813   6.333   5.457  14.166
 8800TIP3   OH247814   6.225   4.095  14.036
 8800TIP3    H147815   6.221   4.183  14.077
 8800TIP3    H247816   6.315   4.069  14.063
 8801TIP3   OH247817   7.235   4.144  15.262
 8801TIP3    H147818   7.152   4.197  15.266
 8801TIP3    H247819   7.275   4.173  15.180
 8802TIP3   OH247820   7.108   4.546  14.687
 8802TIP3    H147821   7.026   4.503  14.656
 8802TIP3    H247822   7.151   4.475  14.735
 8803TIP3   OH247823   6.048   5.136  13.942
 8803TIP3    H147824   6.113   5.201  13.973
 8803TIP3    H247825   6.101   5.094  13.872
 8804TIP3   OH247826   5.883   4.409  13.857
 8804TIP3    H147827   5.875   4.503  13.867
 8804TIP3    H247828   5.796   4.383  13.824
 8805TIP3   OH247829   7.222   5.475  14.848
 8805TIP3    H147830   7.206   5.542  14.779
 8805TIP3    H247831   7.316   5.483  14.865
 8806TIP3   OH247832   5.966   3.881  14.730
 8806TIP3    H147833   5.945   3.888  14.634
 8806TIP3    H247834   5.920   3.800  14.756
 8807TIP3   OH247835   5.860   5.281  14.348
 8807TIP3    H147836   5.774   5.321  14.336
 8807TIP3    H247837   5.908   5.321  14.274
 8808TIP3   OH247838   5.780   5.540  15.472
 8808TIP3    H147839   5.840   5.522  15.548
 8808TIP3    H247840   5.739   5.454  15.456
 8809TIP3   OH247841   6.247   5.428  15.636
 8809TIP3    H147842   6.326   5.383  15.667
 8809TIP3    H247843   6.245   5.405  15.541
 8810TIP3   OH247844   6.663   5.385  13.774
 8810TIP3    H147845   6.593   5.319  13.797
 8810TIP3    H247846   6.735   5.324  13.750
 8811TIP3   OH247847   6.904   5.270  15.506
 8811TIP3    H147848   6.868   5.184  15.536
 8811TIP3    H247849   6.981   5.280  15.565
 8812TIP3   OH247850   7.115   5.361  13.798
 8812TIP3    H147851   7.146   5.281  13.843
 8812TIP3    H247852   7.190   5.379  13.738
 8813TIP3   OH247853   5.767   4.914  15.574
 8813TIP3    H147854   5.791   4.827  15.538
 8813TIP3    H247855   5.702   4.947  15.510
 8814TIP3   OH247856   6.205   4.951  13.775
 8814TIP3    H147857   6.224   4.877  13.833
 8814TIP3    H247858   6.281   4.943  13.714
 8815TIP3   OH247859   6.443   4.916  15.511
 8815TIP3    H147860   6.410   4.949  15.425
 8815TIP3    H247861   6.450   4.819  15.500
 8816TIP3   OH247862   6.749   5.064  13.752
 8816TIP3    H147863   6.722   5.072  13.845
 8816TIP3    H247864   6.730   4.968  13.738
 8817TIP3   OH247865   7.010   4.900  15.250
 8817TIP3    H147866   7.089   4.959  15.245
 8817TIP3    H247867   6.943   4.969  15.255
 8818TIP3   OH247868   5.859   4.641  15.511
 8818TIP3    H147869   5.904   4.557  15.501
 8818TIP3    H247870   5.842   4.642  15.607
 8819TIP3   OH247871   6.325   4.754  14.016
 8819TIP3    H147872   6.279   4.701  14.083
 8819TIP3    H247873   6.359   4.687  13.952
 8820TIP3   OH247874   6.253   4.536  15.246
 8820TIP3    H147875   6.194   4.608  15.272
 8820TIP3    H247876   6.293   4.572  15.165
 8821TIP3   OH247877   6.430   4.578  13.838
 8821TIP3    H147878   6.419   4.568  13.741
 8821TIP3    H247879   6.528   4.583  13.845
 8822TIP3   OH247880   6.759   4.795  15.584
 8822TIP3    H147881   6.854   4.791  15.566
 8822TIP3    H247882   6.745   4.716  15.639
 8823TIP3   OH247883   6.295   4.275  15.350
 8823TIP3    H147884   6.306   4.203  15.285
 8823TIP3    H247885   6.290   4.355  15.295
 8824TIP3   OH247886   6.334   4.111  15.107
 8824TIP3    H147887   6.385   4.158  15.037
 8824TIP3    H247888   6.245   4.104  15.067
 8825TIP3   OH247889   6.488   4.661  15.132
 8825TIP3    H147890   6.564   4.644  15.075
 8825TIP3    H247891   6.452   4.744  15.098
 8826TIP3   OH247892   6.932   4.437  15.631
 8826TIP3    H147893   6.955   4.344  15.618
 8826TIP3    H247894   7.019   4.479  15.625
 8827TIP3   OH247895   7.064   4.721  15.445
 8827TIP3    H147896   7.035   4.788  15.380
 8827TIP3    H247897   7.157   4.708  15.423
 8828TIP3   OH247898   6.142   4.398  15.546
 8828TIP3    H147899   6.064   4.343  15.527
 8828TIP3    H247900   6.205   4.362  15.480
 8829TIP3   OH247901   6.412   3.855  15.148
 8829TIP3    H147902   6.395   3.951  15.137
 8829TIP3    H247903   6.339   3.818  15.096
 8830TIP3   OH247904   6.541   4.288  15.508
 8830TIP3    H147905   6.509   4.267  15.598
 8830TIP3    H247906   6.463   4.269  15.453
 8831TIP3   OH247907   6.808   4.203  15.418
 8831TIP3    H147908   6.712   4.207  15.432
 8831TIP3    H247909   6.840   4.138  15.484
 8832TIP3   OH247910   6.972   4.063  15.611
 8832TIP3    H147911   6.965   3.965  15.611
 8832TIP3    H247912   6.943   4.093  15.700
 8833TIP3   OH247913   5.949   4.192  15.520
 8833TIP3    H147914   5.973   4.119  15.461
 8833TIP3    H247915   5.940   4.147  15.606
 8834TIP3   OH247916   6.435   3.794  15.417
 8834TIP3    H147917   6.504   3.724  15.414
 8834TIP3    H247918   6.424   3.810  15.321
 8835TIP3   OH247919   6.469   3.954  15.627
 8835TIP3    H147920   6.454   3.904  15.543
 8835TIP3    H247921   6.413   4.033  15.615
 8836TIP3   OH247922   6.418   5.647  13.945
 8836TIP3    H147923   6.515   5.656  13.952
 8836TIP3    H247924   6.403   5.708  13.871
 8837TIP3   OH247925   5.773   5.102  13.894
 8837TIP3    H147926   5.870   5.115  13.909
 8837TIP3    H247927   5.777   5.042  13.816
 8838TIP3   OH247928   5.644   5.643  14.396
 8838TIP3    H147929   5.583   5.594  14.335
 8838TIP3    H247930   5.691   5.572  14.444
 8839TIP3   OH247931   5.724   5.460  14.580
 8839TIP3    H147932   5.707   5.365  14.594
 8839TIP3    H247933   5.768   5.484  14.665
 8840TIP3   OH247934   7.280   5.262  15.094
 8840TIP3    H147935   7.214   5.306  15.150
 8840TIP3    H247936   7.227   5.226  15.021
 8841TIP3   OH247937   7.188   4.563  14.429
 8841TIP3    H147938   7.214   4.470  14.432
 8841TIP3    H247939   7.200   4.588  14.523
 8842TIP3   OH247940   5.734   4.768  14.848
 8842TIP3    H147941   5.746   4.758  14.749
 8842TIP3    H247942   5.828   4.748  14.868
 8843TIP3   OH247943   7.247   4.157  13.766
 8843TIP3    H147944   7.305   4.115  13.829
 8843TIP3    H247945   7.160   4.116  13.785
 8844TIP3   OH247946   7.202   4.308  14.249
 8844TIP3    H147947   7.231   4.224  14.290
 8844TIP3    H247948   7.287   4.343  14.220
 8845TIP3   OH247949  -0.053   4.285  14.810
 8845TIP3    H147950   0.035   4.320  14.796
 8845TIP3    H247951  -0.075   4.349  14.879
 8846TIP3   OH247952   7.278   4.446  15.113
 8846TIP3    H147953   7.184   4.473  15.122
 8846TIP3    H247954   7.314   4.515  15.054
 8847TIP3   OH247955   5.702   4.293  15.439
 8847TIP3    H147956   5.795   4.273  15.460
 8847TIP3    H247957   5.656   4.211  15.469
 8848TIP3   OH247958   7.183   4.012  14.335
 8848TIP3    H147959   7.276   3.995  14.357
 8848TIP3    H247960   7.184   3.970  14.247
 8849TIP3   OH247961   5.821   4.125  14.725
 8849TIP3    H147962   5.866   4.043  14.751
 8849TIP3    H247963   5.876   4.193  14.765
 8850TIP3   OH247964   5.650   4.424  14.831
 8850TIP3    H147965   5.705   4.399  14.753
 8850TIP3    H247966   5.697   4.505  14.855
 8851TIP3   OH247967   5.687   4.051  14.238
 8851TIP3    H147968   5.592   4.067  14.222
 8851TIP3    H247969   5.728   4.099  14.164
 8852TIP3   OH247970   7.139   5.528  14.441
 8852TIP3    H147971   7.207   5.494  14.381
 8852TIP3    H247972   7.193   5.585  14.499
 8853TIP3   OH247973   5.681   3.916  15.067
 8853TIP3    H147974   5.614   3.896  15.135
 8853TIP3    H247975   5.635   3.982  15.012
 8854TIP3   OH247976   5.904   5.237  15.483
 8854TIP3    H147977   5.820   5.258  15.440
 8854TIP3    H247978   5.877   5.229  15.575
 8855TIP3   OH247979   6.195   5.336  15.110
 8855TIP3    H147980   6.162   5.423  15.083
 8855TIP3    H247981   6.287   5.344  15.080
 8856TIP3   OH247982   6.626   5.477  15.401
 8856TIP3    H147983   6.640   5.443  15.493
 8856TIP3    H247984   6.716   5.508  15.378
 8857TIP3   OH247985   6.857   5.604  15.332
 8857TIP3    H147986   6.932   5.547  15.308
 8857TIP3    H247987   6.895   5.650  15.409
 8858TIP3   OH247988   5.937   5.659  15.110
 8858TIP3    H147989   5.865   5.710  15.072
 8858TIP3    H247990   5.906   5.640  15.200
 8859TIP3   OH247991   6.184   5.617  15.017
 8859TIP3    H147992   6.095   5.632  15.057
 8859TIP3    H247993   6.178   5.676  14.940
 8860TIP3   OH247994   6.651   5.606  14.936
 8860TIP3    H147995   6.609   5.663  14.871
 8860TIP3    H247996   6.668   5.670  15.008
 8861TIP3   OH247997   6.883   5.489  15.038
 8861TIP3    H147998   6.798   5.516  15.001
 8861TIP3    H247999   6.929   5.574  15.030
 8862TIP3   OH248000   7.128   5.646  15.058
 8862TIP3    H148001   7.128   5.741  15.037
 8862TIP3    H248002   7.162   5.609  14.975
 8863TIP3   OH248003   5.879   5.521  14.801
 8863TIP3    H148004   5.876   5.479  14.890
 8863TIP3    H248005   5.964   5.487  14.766
 8864TIP3   OH248006   6.088   5.397  14.670
 8864TIP3    H148007   6.074   5.303  14.692
 8864TIP3    H248008   6.174   5.412  14.714
 8865TIP3   OH248009   6.349   5.446  14.756
 8865TIP3    H148010   6.366   5.353  14.730
 8865TIP3    H248011   6.355   5.439  14.852
 8866TIP3   OH248012   6.694   4.009  14.671
 8866TIP3    H148013   6.628   3.944  14.699
 8866TIP3    H248014   6.751   3.956  14.613
 8867TIP3   OH248015   7.211   3.813  14.679
 8867TIP3    H148016   7.269   3.875  14.634
 8867TIP3    H248017   7.122   3.848  14.657
 8868TIP3   OH248018   5.931   3.870  14.459
 8868TIP3    H148019   5.854   3.854  14.402
 8868TIP3    H248020   5.981   3.787  14.447
 8869TIP3   OH248021   5.810   3.846  14.028
 8869TIP3    H148022   5.859   3.912  13.975
 8869TIP3    H248023   5.753   3.904  14.082
 8870TIP3   OH248024   6.380   3.863  14.435
 8870TIP3    H148025   6.470   3.900  14.427
 8870TIP3    H248026   6.377   3.842  14.528
 8871TIP3   OH248027   6.954   3.861  14.597
 8871TIP3    H148028   6.948   3.880  14.503
 8871TIP3    H248029   6.911   3.773  14.608
 8872TIP3   OH248030   7.075   3.860  14.154
 8872TIP3    H148031   7.005   3.927  14.149
 8872TIP3    H248032   7.028   3.780  14.186
 8873TIP3   OH248033   5.798   5.442  14.135
 8873TIP3    H148034   5.737   5.439  14.059
 8873TIP3    H248035   5.804   5.538  14.145
 8874TIP3   OH248036   5.994   4.044  13.879
 8874TIP3    H148037   6.045   3.980  13.827
 8874TIP3    H248038   6.061   4.071  13.944
 8875TIP3   OH248039   6.495   4.065  14.120
 8875TIP3    H148040   6.520   4.008  14.194
 8875TIP3    H248041   6.503   4.152  14.165
 8876TIP3   OH248042   6.689   5.572  13.964
 8876TIP3    H148043   6.780   5.595  13.941
 8876TIP3    H248044   6.667   5.520  13.883
 8877TIP3   OH248045   5.921   3.924  15.399
 8877TIP3    H148046   5.882   3.845  15.442
 8877TIP3    H248047   6.012   3.921  15.437
 8878TIP3   OH248048   6.123   3.864  15.563
 8878TIP3    H148049   6.211   3.828  15.541
 8878TIP3    H248050   6.084   3.785  15.606
 8879TIP3   OH248051   5.981   5.540  13.826
 8879TIP3    H148052   5.955   5.566  13.915
 8879TIP3    H248053   6.059   5.484  13.841
 8880TIP3   OH248054   6.962   3.802  15.567
 8880TIP3    H148055   6.967   3.752  15.654
 8880TIP3    H248056   7.056   3.793  15.542
 8881TIP3   OH248057   7.263   5.385  15.456
 8881TIP3    H148058   7.197   5.380  15.384
 8881TIP3    H248059   7.265   5.483  15.465
 8882TIP3   OH248060   1.185   6.668  14.440
 8882TIP3    H148061   1.183   6.767  14.440
 8882TIP3    H248062   1.112   6.647  14.381
 8883TIP3   OH248063   1.070   6.596  14.792
 8883TIP3    H148064   1.069   6.531  14.864
 8883TIP3    H248065   1.036   6.545  14.716
 8884TIP3   OH248066   0.311   6.563  14.943
 8884TIP3    H148067   0.317   6.496  15.015
 8884TIP3    H248068   0.381   6.623  14.971
 8885TIP3   OH248069   1.439   6.890  14.621
 8885TIP3    H148070   1.397   6.819  14.670
 8885TIP3    H248071   1.443   6.962  14.687
 8886TIP3   OH248072   0.399   7.008  14.802
 8886TIP3    H148073   0.366   6.924  14.765
 8886TIP3    H248074   0.495   6.990  14.800
 8887TIP3   OH248075   0.090   6.364  14.304
 8887TIP3    H148076   0.045   6.444  14.342
 8887TIP3    H248077   0.010   6.311  14.304
 8888TIP3   OH248078   0.131   6.579  14.556
 8888TIP3    H148079   0.161   6.504  14.609
 8888TIP3    H248080   0.204   6.597  14.496
 8889TIP3   OH248081   0.907   6.834  14.840
 8889TIP3    H148082   0.942   6.773  14.773
 8889TIP3    H248083   0.988   6.854  14.889
 8890TIP3   OH248084   1.768   6.003  14.911
 8890TIP3    H148085   1.786   6.061  14.988
 8890TIP3    H248086   1.825   6.044  14.845
 8891TIP3   OH248087   1.225   6.283  14.870
 8891TIP3    H148088   1.242   6.187  14.871
 8891TIP3    H248089   1.215   6.297  14.774
 8892TIP3   OH248090   0.537   6.092  14.593
 8892TIP3    H148091   0.548   6.175  14.542
 8892TIP3    H248092   0.498   6.035  14.523
 8893TIP3   OH248093   1.310   6.100  14.429
 8893TIP3    H148094   1.375   6.068  14.496
 8893TIP3    H248095   1.366   6.158  14.376
 8894TIP3   OH248096   0.195   6.325  14.659
 8894TIP3    H148097   0.268   6.278  14.706
 8894TIP3    H248098   0.214   6.297  14.569
 8895TIP3   OH248099   0.714   6.489  14.597
 8895TIP3    H148100   0.782   6.431  14.637
 8895TIP3    H248101   0.663   6.423  14.546
 8896TIP3   OH248102   1.812   6.143  15.139
 8896TIP3    H148103   1.752   6.219  15.128
 8896TIP3    H248104   1.815   6.135  15.235
 8897TIP3   OH248105   0.431   5.982  14.995
 8897TIP3    H148106   0.400   6.039  14.922
 8897TIP3    H248107   0.363   6.004  15.063
 8898TIP3   OH248108   1.154   6.927  14.350
 8898TIP3    H148109   1.131   6.904  14.260
 8898TIP3    H248110   1.126   7.021  14.357
 8899TIP3   OH248111   0.681   6.744  15.021
 8899TIP3    H148112   0.609   6.808  15.042
 8899TIP3    H248113   0.751   6.804  14.991
 8900TIP3   OH248114   1.491   6.035  14.628
 8900TIP3    H148115   1.469   5.958  14.681
 8900TIP3    H248116   1.558   6.078  14.684
 8901TIP3   OH248117   0.382   6.166  14.799
 8901TIP3    H148118   0.444   6.235  14.832
 8901TIP3    H248119   0.436   6.127  14.726
 8902TIP3   OH248120   0.524   6.945  15.099
 8902TIP3    H148121   0.518   7.036  15.066
 8902TIP3    H248122   0.436   6.937  15.142
 8903TIP3   OH248123   0.129   6.914  14.178
 8903TIP3    H148124   0.106   6.947  14.090
 8903TIP3    H248125   0.140   6.995  14.231
 8904TIP3   OH248126   1.492   7.076  14.857
 8904TIP3    H148127   1.396   7.085  14.873
 8904TIP3    H248128   1.522   7.167  14.838
 8905TIP3   OH248129   1.524   5.903  14.996
 8905TIP3    H148130   1.452   5.967  14.986
 8905TIP3    H248131   1.596   5.945  14.944
 8906TIP3   OH248132   0.821   5.716  14.742
 8906TIP3    H148133   0.808   5.619  14.735
 8906TIP3    H248134   0.733   5.746  14.773
 8907TIP3   OH248135   1.321   7.223  14.498
 8907TIP3    H148136   1.378   7.161  14.447
 8907TIP3    H248137   1.361   7.306  14.473
 8908TIP3   OH248138   1.443   7.036  14.367
 8908TIP3    H148139   1.408   6.970  14.307
 8908TIP3    H248140   1.443   6.991  14.453
 8909TIP3   OH248141   1.623   6.887  15.206
 8909TIP3    H148142   1.617   6.834  15.126
 8909TIP3    H248143   1.617   6.981  15.179
 8910TIP3   OH248144   1.051   6.594  14.193
 8910TIP3    H148145   0.981   6.652  14.157
 8910TIP3    H248146   1.122   6.604  14.127
 8911TIP3   OH248147   1.059   6.451  13.894
 8911TIP3    H148148   1.129   6.450  13.961
 8911TIP3    H248149   1.090   6.380  13.837
 8912TIP3   OH248150   1.791   6.536  15.021
 8912TIP3    H148151   1.724   6.608  15.025
 8912TIP3    H248152   1.839   6.560  14.941
 8913TIP3   OH248153   1.396   6.615  14.285
 8913TIP3    H148154   1.321   6.639  14.345
 8913TIP3    H248155   1.443   6.548  14.338
 8914TIP3   OH248156   1.389   6.434  15.198
 8914TIP3    H148157   1.389   6.516  15.250
 8914TIP3    H248158   1.326   6.461  15.129
 8915TIP3   OH248159   0.559   6.682  14.477
 8915TIP3    H148160   0.524   6.642  14.394
 8915TIP3    H248161   0.619   6.612  14.510
 8916TIP3   OH248162   0.689   7.022  14.744
 8916TIP3    H148163   0.689   6.967  14.664
 8916TIP3    H248164   0.766   6.985  14.792
 8917TIP3   OH248165   0.593   6.556  14.843
 8917TIP3    H148166   0.646   6.567  14.762
 8917TIP3    H248167   0.629   6.624  14.904
 8918TIP3   OH248168   1.231   7.113  14.913
 8918TIP3    H148169   1.200   7.175  14.978
 8918TIP3    H248170   1.206   7.027  14.956
 8919TIP3   OH248171   0.683   6.998  15.313
 8919TIP3    H148172   0.641   7.074  15.360
 8919TIP3    H248173   0.618   6.977  15.242
 8920TIP3   OH248174   1.283   6.536  14.052
 8920TIP3    H148175   1.339   6.552  14.132
 8920TIP3    H248176   1.328   6.585  13.979
 8921TIP3   OH248177   0.379   6.616  15.231
 8921TIP3    H148178   0.384   6.685  15.300
 8921TIP3    H248179   0.285   6.625  15.208
 8922TIP3   OH248180   1.050   7.205  14.400
 8922TIP3    H148181   1.100   7.237  14.476
 8922TIP3    H248182   0.999   7.282  14.373
 8923TIP3   OH248183   0.507   7.195  15.385
 8923TIP3    H148184   0.499   7.192  15.288
 8923TIP3    H248185   0.413   7.187  15.412
 8924TIP3   OH248186   1.656   5.709  14.042
 8924TIP3    H148187   1.561   5.720  14.066
 8924TIP3    H248188   1.676   5.793  13.998
 8925TIP3   OH248189   0.455   6.583  14.240
 8925TIP3    H148190   0.426   6.661  14.188
 8925TIP3    H248191   0.390   6.517  14.216
 8926TIP3   OH248192   1.772   7.141  13.876
 8926TIP3    H148193   1.780   7.237  13.892
 8926TIP3    H248194   1.865   7.113  13.878
 8927TIP3   OH248195   0.123   6.813  15.104
 8927TIP3    H148196   0.046   6.825  15.044
 8927TIP3    H248197   0.085   6.734  15.149
 8928TIP3   OH248198   0.068   7.120  14.783
 8928TIP3    H148199   0.153   7.087  14.810
 8928TIP3    H248200   0.045   7.177  14.857
 8929TIP3   OH248201   1.861   7.169  15.381
 8929TIP3    H148202   1.847   7.074  15.370
 8929TIP3    H248203   1.772   7.196  15.413
 8930TIP3   OH248204   0.953   7.128  15.259
 8930TIP3    H148205   0.969   7.205  15.314
 8930TIP3    H248206   0.870   7.087  15.290
 8931TIP3   OH248207   1.578   6.318  15.419
 8931TIP3    H148208   1.529   6.363  15.348
 8931TIP3    H248209   1.575   6.225  15.390
 8932TIP3   OH248210   0.296   6.965  15.229
 8932TIP3    H148211   0.311   6.921  15.315
 8932TIP3    H248212   0.212   6.923  15.199
 8933TIP3   OH248213   0.560   5.807  14.817
 8933TIP3    H148214   0.470   5.794  14.780
 8933TIP3    H248215   0.546   5.889  14.867
 8934TIP3   OH248216   1.024   5.772  15.153
 8934TIP3    H148217   1.063   5.730  15.232
 8934TIP3    H248218   0.927   5.760  15.168
 8935TIP3   OH248219   1.353   6.158  15.244
 8935TIP3    H148220   1.296   6.136  15.322
 8935TIP3    H248221   1.334   6.250  15.221
 8936TIP3   OH248222   1.429   6.638  13.834
 8936TIP3    H148223   1.426   6.619  13.737
 8936TIP3    H248224   1.514   6.683  13.839
 8937TIP3   OH248225   0.988   6.031  13.884
 8937TIP3    H148226   0.956   6.025  13.976
 8937TIP3    H248227   0.957   5.943  13.854
 8938TIP3   OH248228   0.568   6.303  14.942
 8938TIP3    H148229   0.495   6.303  15.008
 8938TIP3    H248230   0.566   6.394  14.906
 8939TIP3   OH248231   0.568   6.315  14.429
 8939TIP3    H148232   0.474   6.291  14.415
 8939TIP3    H248233   0.605   6.285  14.344
 8940TIP3   OH248234   1.117   6.365  14.307
 8940TIP3    H148235   1.078   6.447  14.270
 8940TIP3    H248236   1.186   6.348  14.240
 8941TIP3   OH248237   1.022   6.387  15.450
 8941TIP3    H148238   0.971   6.308  15.480
 8941TIP3    H248239   1.107   6.375  15.495
 8942TIP3   OH248240   1.221   6.314  14.591
 8942TIP3    H148241   1.193   6.370  14.517
 8942TIP3    H248242   1.230   6.229  14.544
 8943TIP3   OH248243   0.333   6.326  15.111
 8943TIP3    H148244   0.335   6.369  15.198
 8943TIP3    H248245   0.284   6.245  15.131
 8944TIP3   OH248246   0.669   6.070  13.797
 8944TIP3    H148247   0.624   6.026  13.872
 8944TIP3    H248248   0.597   6.108  13.745
 8945TIP3   OH248249   0.035   6.071  14.490
 8945TIP3    H148250   0.068   6.037  14.576
 8945TIP3    H248251   0.049   5.996  14.433
 8946TIP3   OH248252   0.123   6.125  14.042
 8946TIP3    H148253   0.179   6.179  13.982
 8946TIP3    H248254   0.050   6.182  14.066
 8947TIP3   OH248255   1.141   6.472  15.046
 8947TIP3    H148256   1.179   6.404  14.988
 8947TIP3    H248257   1.094   6.420  15.113
 8948TIP3   OH248258   0.821   6.071  14.530
 8948TIP3    H148259   0.728   6.071  14.559
 8948TIP3    H248260   0.869   6.053  14.612
 8949TIP3   OH248261   0.303   6.224  14.416
 8949TIP3    H148262   0.216   6.242  14.376
 8949TIP3    H248263   0.327   6.140  14.374
 8950TIP3   OH248264   0.666   6.230  14.179
 8950TIP3    H148265   0.762   6.241  14.195
 8950TIP3    H248266   0.641   6.298  14.115
 8951TIP3   OH248267   1.261   5.994  14.854
 8951TIP3    H148268   1.193   5.999  14.924
 8951TIP3    H248269   1.211   5.968  14.775
 8952TIP3   OH248270   0.538   6.347  13.937
 8952TIP3    H148271   0.484   6.310  13.865
 8952TIP3    H248272   0.620   6.369  13.890
 8953TIP3   OH248273   0.347   6.806  15.445
 8953TIP3    H148274   0.421   6.828  15.506
 8953TIP3    H248275   0.272   6.814  15.506
 8954TIP3   OH248276   0.948   6.345  14.719
 8954TIP3    H148277   1.009   6.293  14.666
 8954TIP3    H248278   0.935   6.291  14.797
 8955TIP3   OH248279   0.449   5.961  14.362
 8955TIP3    H148280   0.418   5.869  14.362
 8955TIP3    H248281   0.529   5.953  14.309
 8956TIP3   OH248282   0.813   6.179  14.960
 8956TIP3    H148283   0.731   6.230  14.969
 8956TIP3    H248284   0.869   6.214  15.033
 8957TIP3   OH248285   0.871   6.799  14.131
 8957TIP3    H148286   0.791   6.753  14.097
 8957TIP3    H248287   0.849   6.812  14.225
 8958TIP3   OH248288   1.592   6.714  15.005
 8958TIP3    H148289   1.647   6.772  14.948
 8958TIP3    H248290   1.504   6.727  14.965
 8959TIP3   OH248291   1.255   6.082  13.948
 8959TIP3    H148292   1.160   6.098  13.934
 8959TIP3    H248293   1.289   6.167  13.983
 8960TIP3   OH248294   1.017   6.829  15.252
 8960TIP3    H148295   0.987   6.787  15.333
 8960TIP3    H248296   1.000   6.923  15.266
 8961TIP3   OH248297   1.329   6.274  14.110
 8961TIP3    H148298   1.417   6.261  14.151
 8961TIP3    H248299   1.339   6.356  14.059
 8962TIP3   OH248300   0.381   6.740  14.709
 8962TIP3    H148301   0.450   6.733  14.641
 8962TIP3    H248302   0.392   6.656  14.757
 8963TIP3   OH248303   1.081   6.946  14.033
 8963TIP3    H148304   1.048   7.032  14.066
 8963TIP3    H248305   1.007   6.886  14.057
 8964TIP3   OH248306   0.079   6.579  15.236
 8964TIP3    H148307   0.105   6.535  15.320
 8964TIP3    H248308   0.020   6.514  15.194
 8965TIP3   OH248309   0.782   6.537  15.455
 8965TIP3    H148310   0.751   6.506  15.369
 8965TIP3    H248311   0.875   6.505  15.454
 8966TIP3   OH248312   1.239   7.074  15.236
 8966TIP3    H148313   1.146   7.088  15.228
 8966TIP3    H248314   1.253   7.094  15.333
 8967TIP3   OH248315   1.819   6.287  14.088
 8967TIP3    H148316   1.762   6.259  14.014
 8967TIP3    H248317   1.826   6.382  14.063
 8968TIP3   OH248318   1.822   6.871  15.370
 8968TIP3    H148319   1.731   6.898  15.337
 8968TIP3    H248320   1.870   6.870  15.285
 8969TIP3   OH248321   1.661   7.146  14.149
 8969TIP3    H148322   1.605   7.072  14.162
 8969TIP3    H248323   1.672   7.155  14.053
 8970TIP3   OH248324   1.368   6.652  14.839
 8970TIP3    H148325   1.274   6.631  14.827
 8970TIP3    H248326   1.412   6.577  14.795
 8971TIP3   OH248327   0.623   7.082  14.441
 8971TIP3    H148328   0.670   7.166  14.432
 8971TIP3    H248329   0.532   7.106  14.421
 8972TIP3   OH248330   0.192   6.570  13.909
 8972TIP3    H148331   0.256   6.634  13.946
 8972TIP3    H248332   0.106   6.606  13.936
 8973TIP3   OH248333   0.764   6.851  14.400
 8973TIP3    H148334   0.732   6.943  14.409
 8973TIP3    H248335   0.691   6.803  14.444
 8974TIP3   OH248336   0.837   7.239  15.010
 8974TIP3    H148337   0.852   7.334  15.003
 8974TIP3    H248338   0.868   7.223  15.100
 8975TIP3   OH248339   1.156   6.868  15.000
 8975TIP3    H148340   1.127   6.851  15.092
 8975TIP3    H248341   1.225   6.801  14.987
 8976TIP3   OH248342   1.393   6.976  13.911
 8976TIP3    H148343   1.423   6.932  13.993
 8976TIP3    H248344   1.298   6.961  13.920
 8977TIP3   OH248345   0.247   6.054  15.186
 8977TIP3    H148346   0.158   6.092  15.196
 8977TIP3    H248347   0.236   5.971  15.235
 8978TIP3   OH248348   1.470   6.835  14.134
 8978TIP3    H148349   1.447   6.760  14.193
 8978TIP3    H248350   1.564   6.847  14.155
 8979TIP3   OH248351   0.233   7.233  15.026
 8979TIP3    H148352   0.236   7.138  15.036
 8979TIP3    H248353   0.226   7.264  15.118
 8980TIP3   OH248354   0.807   7.083  13.760
 8980TIP3    H148355   0.815   7.006  13.702
 8980TIP3    H248356   0.763   7.042  13.838
 8981TIP3   OH248357   0.681   7.033  14.006
 8981TIP3    H148358   0.709   6.985  14.084
 8981TIP3    H248359   0.693   7.127  14.033
 8982TIP3   OH248360   0.332   6.763  14.054
 8982TIP3    H148361   0.261   6.802  14.109
 8982TIP3    H248362   0.384   6.841  14.027
 8983TIP3   OH248363   1.120   6.031  15.087
 8983TIP3    H148364   1.191   6.038  15.152
 8983TIP3    H248365   1.082   5.944  15.108
 8984TIP3   OH248366   1.194   5.988  14.196
 8984TIP3    H148367   1.218   6.034  14.113
 8984TIP3    H248368   1.252   6.032  14.259
 8985TIP3   OH248369   0.968   7.207  14.079
 8985TIP3    H148370   0.883   7.255  14.083
 8985TIP3    H248371   1.015   7.258  14.011
 8986TIP3   OH248372   0.918   6.163  14.278
 8986TIP3    H148373   0.996   6.222  14.283
 8986TIP3    H248374   0.891   6.151  14.371
 8987TIP3   OH248375   0.973   6.266  15.197
 8987TIP3    H148376   0.981   6.321  15.278
 8987TIP3    H248377   1.039   6.196  15.207
 8988TIP3   OH248378   1.002   5.869  14.366
 8988TIP3    H148379   0.970   5.934  14.431
 8988TIP3    H248380   1.072   5.924  14.322
 8989TIP3   OH248381   0.708   0.005  14.082
 8989TIP3    H148382   0.711   0.084  14.025
 8989TIP3    H248383   0.679   0.042  14.167
 8990TIP3   OH248384   0.569   5.980  14.037
 8990TIP3    H148385   0.563   6.069  14.076
 8990TIP3    H248386   0.660   5.955  14.063
 8991TIP3   OH248387   1.590   6.052  15.282
 8991TIP3    H148388   1.498   6.084  15.269
 8991TIP3    H248389   1.621   6.051  15.189
 8992TIP3   OH248390   1.452   6.431  14.682
 8992TIP3    H148391   1.370   6.387  14.656
 8992TIP3    H248392   1.500   6.363  14.734
 8993TIP3   OH248393   0.391   7.026  13.939
 8993TIP3    H148394   0.459   7.088  13.969
 8993TIP3    H248395   0.443   6.977  13.873
 8994TIP3   OH248396   0.221   6.290  13.857
 8994TIP3    H148397   0.228   6.386  13.875
 8994TIP3    H248398   0.133   6.273  13.821
 8995TIP3   OH248399   0.310   5.768  14.728
 8995TIP3    H148400   0.288   5.772  14.632
 8995TIP3    H248401   0.266   5.685  14.755
 8996TIP3   OH248402   0.207   7.162  14.339
 8996TIP3    H148403   0.120   7.203  14.342
 8996TIP3    H248404   0.255   7.213  14.274
 8997TIP3   OH248405   0.622   7.290  15.658
 8997TIP3    H148406   0.705   7.245  15.672
 8997TIP3    H248407   0.612   7.274  15.562
 8998TIP3   OH248408   1.007   7.263  13.785
 8998TIP3    H148409   0.933   7.201  13.793
 8998TIP3    H248410   1.078   7.210  13.747
 8999TIP3   OH248411   1.226   7.135  15.504
 8999TIP3    H148412   1.205   7.049  15.543
 8999TIP3    H248413   1.312   7.154  15.548
 9000TIP3   OH248414   1.476   7.239  13.806
 9000TIP3    H148415   1.503   7.156  13.846
 9000TIP3    H248416   1.548   7.261  13.744
 9001TIP3   OH248417   0.107   6.798  15.573
 9001TIP3    H148418   0.135   6.713  15.534
 9001TIP3    H248419   0.042   6.832  15.510
 9002TIP3   OH248420   0.549   6.836  13.774
 9002TIP3    H148421   0.564   6.761  13.833
 9002TIP3    H248422   0.625   6.826  13.713
 9003TIP3   OH248423   0.787   6.801  15.510
 9003TIP3    H148424   0.752   6.832  15.425
 9003TIP3    H248425   0.793   6.703  15.499
 9004TIP3   OH248426   1.094   6.951  13.752
 9004TIP3    H148427   1.064   6.960  13.844
 9004TIP3    H248428   1.074   6.856  13.738
 9005TIP3   OH248429   1.357   6.790  15.247
 9005TIP3    H148430   1.436   6.850  15.249
 9005TIP3    H248431   1.288   6.857  15.256
 9006TIP3   OH248432   0.202   6.528  15.509
 9006TIP3    H148433   0.248   6.443  15.500
 9006TIP3    H248434   0.185   6.528  15.605
 9007TIP3   OH248435   0.670   6.641  14.018
 9007TIP3    H148436   0.620   6.587  14.080
 9007TIP3    H248437   0.700   6.574  13.952
 9008TIP3   OH248438   0.596   6.421  15.246
 9008TIP3    H148439   0.536   6.492  15.272
 9008TIP3    H248440   0.636   6.458  15.166
 9009TIP3   OH248441   0.777   6.463  13.838
 9009TIP3    H148442   0.762   6.454  13.742
 9009TIP3    H248443   0.875   6.468  13.844
 9010TIP3   OH248444   1.104   6.679  15.584
 9010TIP3    H148445   1.199   6.677  15.567
 9010TIP3    H248446   1.087   6.601  15.639
 9011TIP3   OH248447   1.711   6.694  13.778
 9011TIP3    H148448   1.691   6.656  13.691
 9011TIP3    H248449   1.718   6.791  13.760
 9012TIP3   OH248450   0.641   6.160  15.350
 9012TIP3    H148451   0.649   6.088  15.285
 9012TIP3    H248452   0.631   6.241  15.296
 9013TIP3   OH248453   0.678   5.997  15.107
 9013TIP3    H148454   0.729   6.044  15.037
 9013TIP3    H248455   0.589   5.989  15.067
 9014TIP3   OH248456   0.831   6.546  15.132
 9014TIP3    H148457   0.907   6.530  15.075
 9014TIP3    H248458   0.795   6.629  15.098
 9015TIP3   OH248459   1.269   6.320  15.626
 9015TIP3    H148460   1.295   6.227  15.618
 9015TIP3    H248461   1.356   6.365  15.631
 9016TIP3   OH248462   1.405   6.601  15.445
 9016TIP3    H148463   1.381   6.675  15.384
 9016TIP3    H248464   1.501   6.600  15.425
 9017TIP3   OH248465   0.482   6.284  15.546
 9017TIP3    H148466   0.405   6.227  15.527
 9017TIP3    H248467   0.546   6.248  15.481
 9018TIP3   OH248468   0.756   5.740  15.148
 9018TIP3    H148469   0.738   5.837  15.137
 9018TIP3    H248470   0.682   5.704  15.096
 9019TIP3   OH248471   0.885   6.174  15.508
 9019TIP3    H148472   0.852   6.152  15.598
 9019TIP3    H248473   0.806   6.154  15.453
 9020TIP3   OH248474   1.155   6.087  15.416
 9020TIP3    H148475   1.059   6.094  15.430
 9020TIP3    H248476   1.182   6.024  15.486
 9021TIP3   OH248477   1.309   5.951  15.608
 9021TIP3    H148478   1.309   5.853  15.610
 9021TIP3    H248479   1.287   5.979  15.700
 9022TIP3   OH248480   0.307   6.076  15.524
 9022TIP3    H148481   0.317   6.003  15.461
 9022TIP3    H248482   0.285   6.030  15.607
 9023TIP3   OH248483   0.778   5.679  15.417
 9023TIP3    H148484   0.847   5.610  15.414
 9023TIP3    H248485   0.768   5.695  15.321
 9024TIP3   OH248486   0.812   5.839  15.627
 9024TIP3    H148487   0.797   5.790  15.543
 9024TIP3    H248488   0.756   5.919  15.615
 9025TIP3   OH248489   0.120   6.992  13.892
 9025TIP3    H148490   0.215   7.003  13.912
 9025TIP3    H248491   0.125   6.926  13.820
 9026TIP3   OH248492   1.638   6.945  15.644
 9026TIP3    H148493   1.542   6.952  15.664
 9026TIP3    H248494   1.671   7.032  15.677
 9027TIP3   OH248495   1.764   6.783  14.173
 9027TIP3    H148496   1.849   6.827  14.194
 9027TIP3    H248497   1.762   6.714  14.242
 9028TIP3   OH248498   1.800   6.594  14.363
 9028TIP3    H148499   1.725   6.544  14.402
 9028TIP3    H248500   1.860   6.607  14.440
 9029TIP3   OH248501   1.775   6.864  14.864
 9029TIP3    H148502   1.856   6.826  14.824
 9029TIP3    H248503   1.790   6.959  14.846
 9030TIP3   OH248504   1.627   7.157  15.087
 9030TIP3    H148505   1.559   7.182  15.153
 9030TIP3    H248506   1.574   7.115  15.017
 9031TIP3   OH248507   1.831   6.576  14.002
 9031TIP3    H148508   1.774   6.612  13.931
 9031TIP3    H248509   1.820   6.647  14.068
 9032TIP3   OH248510   1.667   6.299  13.853
 9032TIP3    H148511   1.675   6.366  13.784
 9032TIP3    H248512   1.649   6.217  13.804
 9033TIP3   OH248513   1.582   6.441  14.420
 9033TIP3    H148514   1.567   6.346  14.416
 9033TIP3    H248515   1.549   6.463  14.509
 9034TIP3   OH248516   0.084   6.649  14.818
 9034TIP3    H148517   0.104   6.644  14.722
 9034TIP3    H248518   0.172   6.637  14.860
 9035TIP3   OH248519   1.667   6.637  15.391
 9035TIP3    H148520   1.730   6.564  15.401
 9035TIP3    H248521   1.725   6.717  15.387
 9036TIP3   OH248522   1.817   6.426  15.455
 9036TIP3    H148523   1.730   6.386  15.436
 9036TIP3    H248524   1.875   6.349  15.447
 9037TIP3   OH248525   1.592   6.047  13.767
 9037TIP3    H148526   1.651   6.003  13.831
 9037TIP3    H248527   1.506   6.005  13.782
 9038TIP3   OH248528   1.546   6.200  14.261
 9038TIP3    H148529   1.578   6.108  14.277
 9038TIP3    H248530   1.628   6.241  14.230
 9039TIP3   OH248531   1.613   6.254  14.810
 9039TIP3    H148532   1.709   6.277  14.808
 9039TIP3    H248533   1.594   6.268  14.904
 9040TIP3   OH248534   1.619   6.326  15.087
 9040TIP3    H148535   1.531   6.355  15.119
 9040TIP3    H248536   1.663   6.412  15.066
 9041TIP3   OH248537   0.072   6.167  15.439
 9041TIP3    H148538   0.160   6.148  15.474
 9041TIP3    H248539   0.014   6.099  15.481
 9042TIP3   OH248540   1.846   5.734  15.622
 9042TIP3    H148541   1.881   5.666  15.561
 9042TIP3    H248542   1.857   5.815  15.569
 9043TIP3   OH248543   1.616   5.929  14.270
 9043TIP3    H148544   1.637   5.885  14.355
 9043TIP3    H248545   1.556   5.865  14.226
 9044TIP3   OH248546   0.168   6.005  14.722
 9044TIP3    H148547   0.214   5.925  14.755
 9044TIP3    H248548   0.218   6.075  14.766
 9045TIP3   OH248549   0.050   6.385  14.866
 9045TIP3    H148550   0.054   6.342  14.778
 9045TIP3    H248551   0.058   6.476  14.838
 9046TIP3   OH248552   1.798   5.943  15.457
 9046TIP3    H148553   1.704   5.970  15.452
 9046TIP3    H248554   1.802   5.888  15.378
 9047TIP3   OH248555   1.797   5.932  13.926
 9047TIP3    H148556   1.839   5.861  13.872
 9047TIP3    H248557   1.868   5.998  13.931
 9048TIP3   OH248558   0.076   5.931  14.194
 9048TIP3    H148559  -0.019   5.949  14.206
 9048TIP3    H248560   0.098   6.007  14.136
 9049TIP3   OH248561   7.355   5.797  15.088
 9049TIP3    H148562   7.276   5.776  15.140
 9049TIP3    H248563   7.307   5.849  15.021
 9050TIP3   OH248564   0.242   7.130  15.482
 9050TIP3    H148565   0.155   7.142  15.444
 9050TIP3    H248566   0.221   7.111  15.574
 9051TIP3   OH248567   0.547   7.223  15.120
 9051TIP3    H148568   0.496   7.296  15.080
 9051TIP3    H248569   0.630   7.219  15.072
 9052TIP3   OH248570   1.700   5.751  15.243
 9052TIP3    H148571   1.618   5.782  15.202
 9052TIP3    H248572   1.717   5.669  15.191
 9053TIP3   OH248573   0.460   7.253  14.647
 9053TIP3    H148574   0.417   7.180  14.694
 9053TIP3    H248575   0.516   7.291  14.717
 9054TIP3   OH248576   1.039   5.894  14.671
 9054TIP3    H148577   0.972   5.830  14.699
 9054TIP3    H248578   1.095   5.841  14.613
 9055TIP3   OH248579   1.553   5.699  14.678
 9055TIP3    H148580   1.614   5.758  14.627
 9055TIP3    H248581   1.465   5.735  14.655
 9056TIP3   OH248582   1.720   5.824  14.505
 9056TIP3    H148583   1.789   5.767  14.464
 9056TIP3    H248584   1.771   5.908  14.516
 9057TIP3   OH248585   0.277   5.756  14.459
 9057TIP3    H148586   0.199   5.736  14.402
 9057TIP3    H248587   0.326   5.672  14.449
 9058TIP3   OH248588   0.155   5.730  14.024
 9058TIP3    H148589   0.206   5.797  13.975
 9058TIP3    H248590   0.099   5.787  14.080
 9059TIP3   OH248591   0.723   5.749  14.435
 9059TIP3    H148592   0.814   5.785  14.427
 9059TIP3    H248593   0.720   5.728  14.528
 9060TIP3   OH248594   1.295   5.751  14.597
 9060TIP3    H148595   1.290   5.763  14.501
 9060TIP3    H248596   1.257   5.661  14.610
 9061TIP3   OH248597   1.422   5.754  14.165
 9061TIP3    H148598   1.347   5.814  14.150
 9061TIP3    H248599   1.378   5.669  14.189
 9062TIP3   OH248600   0.336   5.927  13.882
 9062TIP3    H148601   0.388   5.867  13.824
 9062TIP3    H248602   0.406   5.957  13.942
 9063TIP3   OH248603   0.839   5.951  14.119
 9063TIP3    H148604   0.864   5.893  14.193
 9063TIP3    H248605   0.846   6.037  14.165
 9064TIP3   OH248606   0.259   5.811  15.403
 9064TIP3    H148607   0.225   5.728  15.441
 9064TIP3    H248608   0.352   5.806  15.437
 9065TIP3   OH248609   0.466   5.749  15.562
 9065TIP3    H148610   0.554   5.713  15.541
 9065TIP3    H248611   0.425   5.670  15.604
 9066TIP3   OH248612   1.306   5.677  15.581
 9066TIP3    H148613   1.316   5.631  15.666
 9066TIP3    H248614   1.397   5.675  15.546
 9067TIP3   OH248615   1.631   0.001  15.469
 9067TIP3    H148616   1.566  -0.042  15.406
 9067TIP3    H248617   1.616   0.094  15.460
 9068TIP3   OH248618   3.070   6.668  14.440
 9068TIP3    H148619   3.069   6.767  14.439
 9068TIP3    H248620   2.997   6.647  14.381
 9069TIP3   OH248621   2.956   6.596  14.792
 9069TIP3    H148622   2.955   6.531  14.863
 9069TIP3    H248623   2.922   6.545  14.717
 9070TIP3   OH248624   2.192   6.564  14.947
 9070TIP3    H148625   2.200   6.495  15.017
 9070TIP3    H248626   2.266   6.621  14.969
 9071TIP3   OH248627   3.325   6.890  14.621
 9071TIP3    H148628   3.283   6.818  14.670
 9071TIP3    H248629   3.329   6.962  14.686
 9072TIP3   OH248630   2.286   7.009  14.800
 9072TIP3    H148631   2.253   6.924  14.766
 9072TIP3    H248632   2.381   6.990  14.800
 9073TIP3   OH248633   1.948   6.364  14.346
 9073TIP3    H148634   1.904   6.451  14.340
 9073TIP3    H248635   1.892   6.310  14.289
 9074TIP3   OH248636   2.019   6.587  14.561
 9074TIP3    H148637   2.047   6.505  14.606
 9074TIP3    H248638   2.089   6.598  14.494
 9075TIP3   OH248639   2.792   6.834  14.840
 9075TIP3    H148640   2.827   6.773  14.773
 9075TIP3    H248641   2.874   6.854  14.889
 9076TIP3   OH248642   3.653   6.003  14.911
 9076TIP3    H148643   3.671   6.061  14.988
 9076TIP3    H248644   3.710   6.044  14.845
 9077TIP3   OH248645   3.111   6.283  14.870
 9077TIP3    H148646   3.127   6.187  14.871
 9077TIP3    H248647   3.100   6.297  14.774
 9078TIP3   OH248648   2.422   6.092  14.592
 9078TIP3    H148649   2.433   6.176  14.542
 9078TIP3    H248650   2.382   6.035  14.523
 9079TIP3   OH248651   3.196   6.100  14.429
 9079TIP3    H148652   3.261   6.068  14.496
 9079TIP3    H248653   3.252   6.158  14.376
 9080TIP3   OH248654   2.084   6.333  14.665
 9080TIP3    H148655   2.151   6.279  14.711
 9080TIP3    H248656   2.095   6.302  14.574
 9081TIP3   OH248657   2.600   6.489  14.597
 9081TIP3    H148658   2.667   6.431  14.637
 9081TIP3    H248659   2.549   6.423  14.546
 9082TIP3   OH248660   3.698   6.143  15.139
 9082TIP3    H148661   3.637   6.219  15.128
 9082TIP3    H248662   3.701   6.135  15.235
 9083TIP3   OH248663   2.313   5.982  14.996
 9083TIP3    H148664   2.285   6.039  14.921
 9083TIP3    H248665   2.245   6.005  15.064
 9084TIP3   OH248666   3.040   6.927  14.351
 9084TIP3    H148667   3.017   6.904  14.260
 9084TIP3    H248668   3.011   7.021  14.357
 9085TIP3   OH248669   2.564   6.744  15.021
 9085TIP3    H148670   2.494   6.809  15.042
 9085TIP3    H248671   2.635   6.804  14.991
 9086TIP3   OH248672   3.377   6.035  14.628
 9086TIP3    H148673   3.355   5.958  14.681
 9086TIP3    H248674   3.444   6.078  14.684
 9087TIP3   OH248675   2.270   6.168  14.799
 9087TIP3    H148676   2.333   6.237  14.830
 9087TIP3    H248677   2.321   6.127  14.725
 9088TIP3   OH248678   2.410   6.947  15.101
 9088TIP3    H148679   2.404   7.037  15.066
 9088TIP3    H248680   2.322   6.938  15.144
 9089TIP3   OH248681   2.016   6.913  14.181
 9089TIP3    H148682   1.990   6.945  14.093
 9089TIP3    H248683   2.025   6.996  14.232
 9090TIP3   OH248684   3.379   7.077  14.862
 9090TIP3    H148685   3.280   7.085  14.871
 9090TIP3    H248686   3.407   7.166  14.835
 9091TIP3   OH248687   3.410   5.903  14.996
 9091TIP3    H148688   3.338   5.967  14.986
 9091TIP3    H248689   3.481   5.945  14.943
 9092TIP3   OH248690   2.707   5.715  14.742
 9092TIP3    H148691   2.692   5.619  14.735
 9092TIP3    H248692   2.619   5.746  14.773
 9093TIP3   OH248693   3.207   7.223  14.498
 9093TIP3    H148694   3.264   7.161  14.447
 9093TIP3    H248695   3.247   7.306  14.474
 9094TIP3   OH248696   3.329   7.036  14.367
 9094TIP3    H148697   3.293   6.970  14.307
 9094TIP3    H248698   3.328   6.991  14.453
 9095TIP3   OH248699   3.488   6.909  15.216
 9095TIP3    H148700   3.501   6.841  15.146
 9095TIP3    H248701   3.510   6.992  15.170
 9096TIP3   OH248702   2.936   6.594  14.193
 9096TIP3    H148703   2.867   6.652  14.157
 9096TIP3    H248704   3.007   6.604  14.127
 9097TIP3   OH248705   2.944   6.451  13.894
 9097TIP3    H148706   3.015   6.449  13.961
 9097TIP3    H248707   2.975   6.380  13.837
 9098TIP3   OH248708   3.675   6.537  15.021
 9098TIP3    H148709   3.610   6.609  15.025
 9098TIP3    H248710   3.725   6.560  14.941
 9099TIP3   OH248711   3.282   6.615  14.285
 9099TIP3    H148712   3.207   6.639  14.345
 9099TIP3    H248713   3.329   6.548  14.338
 9100TIP3   OH248714   3.274   6.432  15.198
 9100TIP3    H148715   3.275   6.514  15.250
 9100TIP3    H248716   3.211   6.461  15.129
 9101TIP3   OH248717   2.442   6.681  14.477
 9101TIP3    H148718   2.410   6.642  14.392
 9101TIP3    H248719   2.504   6.612  14.510
 9102TIP3   OH248720   2.575   7.022  14.744
 9102TIP3    H148721   2.575   6.967  14.664
 9102TIP3    H248722   2.652   6.985  14.792
 9103TIP3   OH248723   2.475   6.556  14.843
 9103TIP3    H148724   2.530   6.566  14.763
 9103TIP3    H248725   2.514   6.622  14.904
 9104TIP3   OH248726   3.120   7.113  14.916
 9104TIP3    H148727   3.083   7.176  14.977
 9104TIP3    H248728   3.091   7.027  14.955
 9105TIP3   OH248729   2.570   7.000  15.313
 9105TIP3    H148730   2.527   7.074  15.361
 9105TIP3    H248731   2.504   6.976  15.243
 9106TIP3   OH248732   3.169   6.536  14.052
 9106TIP3    H148733   3.224   6.552  14.132
 9106TIP3    H248734   3.214   6.585  13.979
 9107TIP3   OH248735   2.265   6.616  15.228
 9107TIP3    H148736   2.270   6.682  15.299
 9107TIP3    H248737   2.171   6.624  15.207
 9108TIP3   OH248738   2.936   7.205  14.400
 9108TIP3    H148739   2.985   7.237  14.476
 9108TIP3    H248740   2.885   7.282  14.373
 9109TIP3   OH248741   2.393   7.194  15.386
 9109TIP3    H148742   2.386   7.191  15.289
 9109TIP3    H248743   2.299   7.188  15.413
 9110TIP3   OH248744   3.541   5.709  14.042
 9110TIP3    H148745   3.447   5.720  14.066
 9110TIP3    H248746   3.562   5.793  13.998
 9111TIP3   OH248747   2.338   6.583  14.240
 9111TIP3    H148748   2.311   6.662  14.188
 9111TIP3    H248749   2.274   6.517  14.215
 9112TIP3   OH248750   3.657   7.141  13.876
 9112TIP3    H148751   3.666   7.237  13.892
 9112TIP3    H248752   3.750   7.113  13.878
 9113TIP3   OH248753   1.952   6.826  15.127
 9113TIP3    H148754   1.902   6.819  15.043
 9113TIP3    H248755   1.957   6.731  15.150
 9114TIP3   OH248756   1.927   7.096  14.810
 9114TIP3    H148757   2.023   7.091  14.801
 9114TIP3    H248758   1.918   7.179  14.859
 9115TIP3   OH248759   3.744   7.169  15.379
 9115TIP3    H148760   3.735   7.073  15.371
 9115TIP3    H248761   3.657   7.195  15.416
 9116TIP3   OH248762   2.842   7.127  15.260
 9116TIP3    H148763   2.852   7.207  15.313
 9116TIP3    H248764   2.758   7.086  15.289
 9117TIP3   OH248765   3.464   6.318  15.419
 9117TIP3    H148766   3.414   6.362  15.348
 9117TIP3    H248767   3.461   6.225  15.390
 9118TIP3   OH248768   2.177   6.960  15.223
 9118TIP3    H148769   2.197   6.921  15.311
 9118TIP3    H248770   2.091   6.920  15.199
 9119TIP3   OH248771   2.445   5.806  14.817
 9119TIP3    H148772   2.355   5.793  14.781
 9119TIP3    H248773   2.432   5.889  14.866
 9120TIP3   OH248774   2.909   5.772  15.153
 9120TIP3    H148775   2.948   5.730  15.232
 9120TIP3    H248776   2.812   5.760  15.167
 9121TIP3   OH248777   3.238   6.158  15.244
 9121TIP3    H148778   3.181   6.136  15.322
 9121TIP3    H248779   3.219   6.250  15.221
 9122TIP3   OH248780   3.314   6.638  13.834
 9122TIP3    H148781   3.312   6.620  13.737
 9122TIP3    H248782   3.400   6.683  13.839
 9123TIP3   OH248783   2.873   6.031  13.884
 9123TIP3    H148784   2.842   6.025  13.976
 9123TIP3    H248785   2.843   5.943  13.854
 9124TIP3   OH248786   2.456   6.304  14.944
 9124TIP3    H148787   2.381   6.302  15.007
 9124TIP3    H248788   2.450   6.394  14.906
 9125TIP3   OH248789   2.451   6.315  14.429
 9125TIP3    H148790   2.357   6.290  14.416
 9125TIP3    H248791   2.489   6.286  14.344
 9126TIP3   OH248792   3.003   6.365  14.307
 9126TIP3    H148793   2.964   6.447  14.270
 9126TIP3    H248794   3.072   6.348  14.240
 9127TIP3   OH248795   2.907   6.387  15.450
 9127TIP3    H148796   2.857   6.308  15.480
 9127TIP3    H248797   2.992   6.375  15.495
 9128TIP3   OH248798   3.107   6.314  14.591
 9128TIP3    H148799   3.078   6.370  14.517
 9128TIP3    H248800   3.116   6.229  14.544
 9129TIP3   OH248801   2.217   6.328  15.111
 9129TIP3    H148802   2.226   6.369  15.199
 9129TIP3    H248803   2.173   6.244  15.132
 9130TIP3   OH248804   2.554   6.068  13.796
 9130TIP3    H148805   2.509   6.026  13.872
 9130TIP3    H248806   2.483   6.111  13.747
 9131TIP3   OH248807   1.883   6.039  14.510
 9131TIP3    H148808   1.952   6.035  14.580
 9131TIP3    H248809   1.928   6.002  14.432
 9132TIP3   OH248810   2.009   6.111  14.044
 9132TIP3    H148811   2.061   6.172  13.988
 9132TIP3    H248812   1.941   6.173  14.076
 9133TIP3   OH248813   3.026   6.472  15.046
 9133TIP3    H148814   3.064   6.404  14.988
 9133TIP3    H248815   2.980   6.420  15.113
 9134TIP3   OH248816   2.707   6.071  14.530
 9134TIP3    H148817   2.613   6.071  14.559
 9134TIP3    H248818   2.755   6.053  14.612
 9135TIP3   OH248819   2.187   6.225  14.417
 9135TIP3    H148820   2.099   6.241  14.377
 9135TIP3    H248821   2.216   6.142  14.376
 9136TIP3   OH248822   2.552   6.230  14.179
 9136TIP3    H148823   2.647   6.241  14.195
 9136TIP3    H248824   2.528   6.298  14.114
 9137TIP3   OH248825   3.147   5.994  14.853
 9137TIP3    H148826   3.079   5.999  14.924
 9137TIP3    H248827   3.096   5.968  14.775
 9138TIP3   OH248828   2.422   6.348  13.938
 9138TIP3    H148829   2.369   6.309  13.866
 9138TIP3    H248830   2.504   6.368  13.891
 9139TIP3   OH248831   2.235   6.807  15.444
 9139TIP3    H148832   2.306   6.829  15.507
 9139TIP3    H248833   2.157   6.811  15.503
 9140TIP3   OH248834   2.835   6.346  14.719
 9140TIP3    H148835   2.895   6.293  14.666
 9140TIP3    H248836   2.820   6.291  14.797
 9141TIP3   OH248837   2.336   5.960  14.363
 9141TIP3    H148838   2.305   5.868  14.362
 9141TIP3    H248839   2.415   5.954  14.308
 9142TIP3   OH248840   2.699   6.178  14.960
 9142TIP3    H148841   2.616   6.230  14.969
 9142TIP3    H248842   2.754   6.214  15.033
 9143TIP3   OH248843   2.757   6.799  14.131
 9143TIP3    H148844   2.677   6.753  14.097
 9143TIP3    H248845   2.735   6.812  14.225
 9144TIP3   OH248846   3.477   6.721  15.010
 9144TIP3    H148847   3.533   6.771  14.948
 9144TIP3    H248848   3.391   6.726  14.964
 9145TIP3   OH248849   3.140   6.082  13.948
 9145TIP3    H148850   3.045   6.098  13.934
 9145TIP3    H248851   3.174   6.167  13.983
 9146TIP3   OH248852   2.903   6.829  15.253
 9146TIP3    H148853   2.872   6.786  15.334
 9146TIP3    H248854   2.882   6.922  15.266
 9147TIP3   OH248855   3.214   6.274  14.110
 9147TIP3    H148856   3.302   6.261  14.151
 9147TIP3    H248857   3.225   6.356  14.059
 9148TIP3   OH248858   2.268   6.740  14.710
 9148TIP3    H148859   2.337   6.733  14.641
 9148TIP3    H248860   2.275   6.654  14.756
 9149TIP3   OH248861   2.966   6.946  14.033
 9149TIP3    H148862   2.934   7.032  14.066
 9149TIP3    H248863   2.893   6.886  14.057
 9150TIP3   OH248864   1.967   6.581  15.237
 9150TIP3    H148865   1.985   6.536  15.322
 9150TIP3    H248866   1.906   6.520  15.192
 9151TIP3   OH248867   2.668   6.536  15.455
 9151TIP3    H148868   2.636   6.506  15.369
 9151TIP3    H248869   2.761   6.505  15.454
 9152TIP3   OH248870   3.135   7.076  15.243
 9152TIP3    H148871   3.041   7.084  15.224
 9152TIP3    H248872   3.133   7.094  15.340
 9153TIP3   OH248873   3.705   6.287  14.088
 9153TIP3    H148874   3.647   6.259  14.014
 9153TIP3    H248875   3.712   6.382  14.063
 9154TIP3   OH248876   3.706   6.872  15.367
 9154TIP3    H148877   3.616   6.896  15.333
 9154TIP3    H248878   3.758   6.868  15.284
 9155TIP3   OH248879   3.547   7.146  14.149
 9155TIP3    H148880   3.490   7.072  14.162
 9155TIP3    H248881   3.558   7.155  14.053
 9156TIP3   OH248882   3.254   6.652  14.839
 9156TIP3    H148883   3.160   6.632  14.828
 9156TIP3    H248884   3.297   6.577  14.795
 9157TIP3   OH248885   2.510   7.082  14.440
 9157TIP3    H148886   2.556   7.166  14.432
 9157TIP3    H248887   2.418   7.106  14.420
 9158TIP3   OH248888   2.083   6.569  13.906
 9158TIP3    H148889   2.141   6.635  13.948
 9158TIP3    H248890   1.994   6.601  13.931
 9159TIP3   OH248891   2.650   6.851  14.400
 9159TIP3    H148892   2.618   6.943  14.409
 9159TIP3    H248893   2.576   6.803  14.444
 9160TIP3   OH248894   2.723   7.239  15.010
 9160TIP3    H148895   2.738   7.334  15.003
 9160TIP3    H248896   2.754   7.223  15.100
 9161TIP3   OH248897   3.045   6.871  15.004
 9161TIP3    H148898   3.011   6.849  15.093
 9161TIP3    H248899   3.108   6.799  14.986
 9162TIP3   OH248900   3.279   6.976  13.911
 9162TIP3    H148901   3.308   6.932  13.993
 9162TIP3    H248902   3.183   6.961  13.920
 9163TIP3   OH248903   2.133   6.054  15.191
 9163TIP3    H148904   2.042   6.089  15.189
 9163TIP3    H248905   2.121   5.970  15.237
 9164TIP3   OH248906   3.356   6.835  14.134
 9164TIP3    H148907   3.333   6.760  14.193
 9164TIP3    H248908   3.450   6.847  14.155
 9165TIP3   OH248909   2.094   7.229  15.033
 9165TIP3    H148910   2.123   7.138  15.038
 9165TIP3    H248911   2.113   7.263  15.122
 9166TIP3   OH248912   2.692   7.083  13.760
 9166TIP3    H148913   2.700   7.006  13.702
 9166TIP3    H248914   2.649   7.042  13.838
 9167TIP3   OH248915   2.567   7.034  14.006
 9167TIP3    H148916   2.595   6.985  14.084
 9167TIP3    H248917   2.579   7.127  14.033
 9168TIP3   OH248918   2.223   6.763  14.055
 9168TIP3    H148919   2.151   6.803  14.109
 9168TIP3    H248920   2.273   6.841  14.026
 9169TIP3   OH248921   3.006   6.031  15.088
 9169TIP3    H148922   3.077   6.037  15.152
 9169TIP3    H248923   2.967   5.944  15.108
 9170TIP3   OH248924   3.080   5.988  14.196
 9170TIP3    H148925   3.103   6.034  14.113
 9170TIP3    H248926   3.138   6.032  14.259
 9171TIP3   OH248927   2.853   7.207  14.079
 9171TIP3    H148928   2.768   7.255  14.083
 9171TIP3    H248929   2.901   7.258  14.011
 9172TIP3   OH248930   2.803   6.163  14.278
 9172TIP3    H148931   2.881   6.222  14.283
 9172TIP3    H248932   2.777   6.151  14.371
 9173TIP3   OH248933   2.859   6.267  15.197
 9173TIP3    H148934   2.866   6.321  15.278
 9173TIP3    H248935   2.925   6.196  15.207
 9174TIP3   OH248936   2.888   5.869  14.366
 9174TIP3    H148937   2.856   5.934  14.431
 9174TIP3    H248938   2.957   5.924  14.322
 9175TIP3   OH248939   2.594   0.005  14.082
 9175TIP3    H148940   2.597   0.084  14.025
 9175TIP3    H248941   2.565   0.042  14.167
 9176TIP3   OH248942   2.454   5.980  14.037
 9176TIP3    H148943   2.449   6.070  14.076
 9176TIP3    H248944   2.545   5.955  14.064
 9177TIP3   OH248945   3.476   6.053  15.282
 9177TIP3    H148946   3.383   6.084  15.269
 9177TIP3    H248947   3.506   6.051  15.189
 9178TIP3   OH248948   3.338   6.431  14.682
 9178TIP3    H148949   3.255   6.387  14.656
 9178TIP3    H248950   3.386   6.363  14.734
 9179TIP3   OH248951   2.279   7.024  13.941
 9179TIP3    H148952   2.346   7.088  13.969
 9179TIP3    H248953   2.330   6.977  13.873
 9180TIP3   OH248954   2.112   6.291  13.856
 9180TIP3    H148955   2.113   6.387  13.877
 9180TIP3    H248956   2.022   6.274  13.825
 9181TIP3   OH248957   2.193   5.770  14.730
 9181TIP3    H148958   2.174   5.772  14.634
 9181TIP3    H248959   2.152   5.684  14.755
 9182TIP3   OH248960   2.090   7.162  14.342
 9182TIP3    H148961   2.003   7.205  14.341
 9182TIP3    H248962   2.139   7.211  14.275
 9183TIP3   OH248963   2.507   7.291  15.657
 9183TIP3    H148964   2.590   7.245  15.672
 9183TIP3    H248965   2.498   7.274  15.561
 9184TIP3   OH248966   2.893   7.263  13.785
 9184TIP3    H148967   2.819   7.201  13.793
 9184TIP3    H248968   2.964   7.210  13.747
 9185TIP3   OH248969   3.137   7.120  15.494
 9185TIP3    H148970   3.087   7.054  15.546
 9185TIP3    H248971   3.194   7.159  15.561
 9186TIP3   OH248972   3.361   7.239  13.806
 9186TIP3    H148973   3.388   7.156  13.846
 9186TIP3    H248974   3.433   7.261  13.744
 9187TIP3   OH248975   1.999   6.801  15.571
 9187TIP3    H148976   2.017   6.711  15.538
 9187TIP3    H248977   1.926   6.832  15.513
 9188TIP3   OH248978   2.435   6.837  13.775
 9188TIP3    H148979   2.450   6.761  13.834
 9188TIP3    H248980   2.511   6.826  13.713
 9189TIP3   OH248981   2.674   6.801  15.511
 9189TIP3    H148982   2.639   6.833  15.426
 9189TIP3    H248983   2.679   6.703  15.499
 9190TIP3   OH248984   2.980   6.951  13.752
 9190TIP3    H148985   2.949   6.960  13.844
 9190TIP3    H248986   2.960   6.856  13.738
 9191TIP3   OH248987   3.242   6.789  15.250
 9191TIP3    H148988   3.321   6.847  15.242
 9191TIP3    H248989   3.172   6.856  15.255
 9192TIP3   OH248990   2.093   6.529  15.510
 9192TIP3    H148991   2.134   6.442  15.501
 9192TIP3    H248992   2.070   6.528  15.605
 9193TIP3   OH248993   2.555   6.640  14.018
 9193TIP3    H148994   2.505   6.587  14.080
 9193TIP3    H248995   2.585   6.573  13.952
 9194TIP3   OH248996   2.482   6.421  15.246
 9194TIP3    H148997   2.423   6.493  15.272
 9194TIP3    H248998   2.522   6.458  15.165
 9195TIP3   OH248999   2.663   6.463  13.837
 9195TIP3    H149000   2.648   6.454  13.741
 9195TIP3    H249001   2.761   6.468  13.844
 9196TIP3   OH249002   2.989   6.677  15.581
 9196TIP3    H149003   3.085   6.678  15.568
 9196TIP3    H249004   2.973   6.602  15.641
 9197TIP3   OH249005   3.597   6.694  13.778
 9197TIP3    H149006   3.577   6.656  13.691
 9197TIP3    H249007   3.604   6.791  13.760
 9198TIP3   OH249008   2.524   6.160  15.350
 9198TIP3    H149009   2.535   6.088  15.285
 9198TIP3    H249010   2.519   6.241  15.295
 9199TIP3   OH249011   2.563   5.997  15.107
 9199TIP3    H149012   2.614   6.044  15.037
 9199TIP3    H249013   2.474   5.989  15.067
 9200TIP3   OH249014   2.717   6.546  15.132
 9200TIP3    H149015   2.792   6.529  15.075
 9200TIP3    H249016   2.680   6.629  15.098
 9201TIP3   OH249017   3.155   6.320  15.626
 9201TIP3    H149018   3.180   6.227  15.620
 9201TIP3    H249019   3.241   6.366  15.631
 9202TIP3   OH249020   3.291   6.602  15.445
 9202TIP3    H149021   3.266   6.673  15.382
 9202TIP3    H249022   3.386   6.599  15.425
 9203TIP3   OH249023   2.371   6.283  15.546
 9203TIP3    H149024   2.293   6.228  15.527
 9203TIP3    H249025   2.434   6.248  15.480
 9204TIP3   OH249026   2.641   5.740  15.148
 9204TIP3    H149027   2.624   5.837  15.137
 9204TIP3    H249028   2.567   5.704  15.096
 9205TIP3   OH249029   2.770   6.173  15.508
 9205TIP3    H149030   2.738   6.152  15.598
 9205TIP3    H249031   2.692   6.154  15.453
 9206TIP3   OH249032   3.041   6.087  15.416
 9206TIP3    H149033   2.945   6.094  15.430
 9206TIP3    H249034   3.067   6.024  15.486
 9207TIP3   OH249035   3.195   5.951  15.608
 9207TIP3    H149036   3.195   5.853  15.610
 9207TIP3    H249037   3.173   5.979  15.700
 9208TIP3   OH249038   2.179   6.078  15.520
 9208TIP3    H149039   2.202   6.004  15.461
 9208TIP3    H249040   2.168   6.033  15.606
 9209TIP3   OH249041   2.664   5.680  15.417
 9209TIP3    H149042   2.732   5.610  15.414
 9209TIP3    H249043   2.653   5.695  15.321
 9210TIP3   OH249044   2.697   5.839  15.627
 9210TIP3    H149045   2.682   5.790  15.543
 9210TIP3    H249046   2.641   5.919  15.615
 9211TIP3   OH249047   2.005   6.990  13.889
 9211TIP3    H149048   2.100   7.001  13.912
 9211TIP3    H249049   2.010   6.923  13.818
 9212TIP3   OH249050   3.524   6.953  15.627
 9212TIP3    H149051   3.433   6.946  15.667
 9212TIP3    H249052   3.558   7.031  15.677
 9213TIP3   OH249053   3.650   6.783  14.173
 9213TIP3    H149054   3.734   6.827  14.194
 9213TIP3    H249055   3.648   6.714  14.242
 9214TIP3   OH249056   3.685   6.594  14.363
 9214TIP3    H149057   3.610   6.544  14.402
 9214TIP3    H249058   3.746   6.607  14.440
 9215TIP3   OH249059   3.662   6.863  14.864
 9215TIP3    H149060   3.742   6.826  14.824
 9215TIP3    H249061   3.676   6.958  14.846
 9216TIP3   OH249062   3.511   7.152  15.093
 9216TIP3    H149063   3.441   7.190  15.147
 9216TIP3    H249064   3.461   7.116  15.016
 9217TIP3   OH249065   3.716   6.576  14.002
 9217TIP3    H149066   3.659   6.612  13.931
 9217TIP3    H249067   3.706   6.647  14.068
 9218TIP3   OH249068   3.553   6.299  13.853
 9218TIP3    H149069   3.561   6.366  13.784
 9218TIP3    H249070   3.534   6.217  13.804
 9219TIP3   OH249071   3.467   6.441  14.420
 9219TIP3    H149072   3.453   6.346  14.416
 9219TIP3    H249073   3.434   6.463  14.509
 9220TIP3   OH249074   1.968   6.650  14.826
 9220TIP3    H149075   1.986   6.642  14.729
 9220TIP3    H249076   2.057   6.632  14.861
 9221TIP3   OH249077   3.554   6.638  15.390
 9221TIP3    H149078   3.615   6.562  15.401
 9221TIP3    H249079   3.614   6.716  15.388
 9222TIP3   OH249080   3.702   6.427  15.455
 9222TIP3    H149081   3.615   6.386  15.436
 9222TIP3    H249082   3.760   6.349  15.447
 9223TIP3   OH249083   3.478   6.047  13.767
 9223TIP3    H149084   3.537   6.003  13.831
 9223TIP3    H249085   3.391   6.005  13.782
 9224TIP3   OH249086   3.432   6.200  14.261
 9224TIP3    H149087   3.464   6.108  14.277
 9224TIP3    H249088   3.514   6.241  14.230
 9225TIP3   OH249089   3.498   6.254  14.810
 9225TIP3    H149090   3.594   6.277  14.808
 9225TIP3    H249091   3.479   6.268  14.904
 9226TIP3   OH249092   3.505   6.326  15.087
 9226TIP3    H149093   3.417   6.355  15.119
 9226TIP3    H249094   3.548   6.412  15.066
 9227TIP3   OH249095   1.931   6.178  15.439
 9227TIP3    H149096   2.024   6.159  15.460
 9227TIP3    H249097   1.884   6.097  15.470
 9228TIP3   OH249098   3.731   5.733  15.622
 9228TIP3    H149099   3.766   5.666  15.561
 9228TIP3    H249100   3.743   5.815  15.570
 9229TIP3   OH249101   3.502   5.929  14.270
 9229TIP3    H149102   3.523   5.885  14.355
 9229TIP3    H249103   3.442   5.865  14.226
 9230TIP3   OH249104   2.050   6.009  14.726
 9230TIP3    H149105   2.096   5.927  14.752
 9230TIP3    H249106   2.105   6.078  14.765
 9231TIP3   OH249107   1.878   6.309  14.830
 9231TIP3    H149108   1.934   6.284  14.754
 9231TIP3    H249109   1.925   6.390  14.857
 9232TIP3   OH249110   3.684   5.943  15.457
 9232TIP3    H149111   3.590   5.970  15.452
 9232TIP3    H249112   3.687   5.888  15.378
 9233TIP3   OH249113   3.683   5.932  13.926
 9233TIP3    H149114   3.724   5.861  13.872
 9233TIP3    H249115   3.754   5.998  13.931
 9234TIP3   OH249116   1.915   5.937  14.238
 9234TIP3    H149117   1.821   5.953  14.222
 9234TIP3    H249118   1.957   5.985  14.164
 9235TIP3   OH249119   1.909   5.800  15.066
 9235TIP3    H149120   1.843   5.781  15.135
 9235TIP3    H249121   1.864   5.868  15.012
 9236TIP3   OH249122   2.130   7.127  15.483
 9236TIP3    H149123   2.044   7.138  15.439
 9236TIP3    H249124   2.105   7.113  15.575
 9237TIP3   OH249125   2.427   7.221  15.118
 9237TIP3    H149126   2.383   7.298  15.081
 9237TIP3    H249127   2.513   7.218  15.073
 9238TIP3   OH249128   3.586   5.751  15.243
 9238TIP3    H149129   3.503   5.782  15.202
 9238TIP3    H249130   3.603   5.669  15.191
 9239TIP3   OH249131   2.343   7.255  14.647
 9239TIP3    H149132   2.305   7.179  14.694
 9239TIP3    H249133   2.401   7.292  14.716
 9240TIP3   OH249134   2.925   5.894  14.671
 9240TIP3    H149135   2.857   5.830  14.699
 9240TIP3    H249136   2.980   5.841  14.613
 9241TIP3   OH249137   3.439   5.699  14.677
 9241TIP3    H149138   3.500   5.758  14.627
 9241TIP3    H249139   3.350   5.735  14.654
 9242TIP3   OH249140   3.605   5.824  14.505
 9242TIP3    H149141   3.674   5.767  14.464
 9242TIP3    H249142   3.656   5.908  14.516
 9243TIP3   OH249143   2.162   5.757  14.456
 9243TIP3    H149144   2.083   5.737  14.403
 9243TIP3    H249145   2.208   5.671  14.450
 9244TIP3   OH249146   2.039   5.732  14.028
 9244TIP3    H149147   2.088   5.797  13.975
 9244TIP3    H249148   1.982   5.790  14.082
 9245TIP3   OH249149   2.609   5.749  14.435
 9245TIP3    H149150   2.699   5.785  14.427
 9245TIP3    H249151   2.606   5.728  14.528
 9246TIP3   OH249152   3.181   5.751  14.597
 9246TIP3    H149153   3.175   5.763  14.501
 9246TIP3    H249154   3.143   5.661  14.610
 9247TIP3   OH249155   3.307   5.754  14.165
 9247TIP3    H149156   3.232   5.814  14.150
 9247TIP3    H249157   3.263   5.669  14.189
 9248TIP3   OH249158   2.222   5.927  13.879
 9248TIP3    H149159   2.275   5.865  13.826
 9248TIP3    H249160   2.288   5.959  13.943
 9249TIP3   OH249161   2.724   5.951  14.120
 9249TIP3    H149162   2.749   5.893  14.193
 9249TIP3    H249163   2.731   6.037  14.165
 9250TIP3   OH249164   2.150   5.810  15.399
 9250TIP3    H149165   2.111   5.731  15.442
 9250TIP3    H249166   2.241   5.807  15.437
 9251TIP3   OH249167   2.351   5.750  15.563
 9251TIP3    H149168   2.440   5.714  15.541
 9251TIP3    H249169   2.313   5.670  15.605
 9252TIP3   OH249170   3.191   5.677  15.581
 9252TIP3    H149171   3.201   5.631  15.666
 9252TIP3    H249172   3.283   5.675  15.546
 9253TIP3   OH249173   3.494  -0.024  15.461
 9253TIP3    H149174   3.433  -0.037  15.388
 9253TIP3    H249175   3.509   0.072  15.460
 9254TIP3   OH249176   4.956   6.668  14.440
 9254TIP3    H149177   4.954   6.767  14.439
 9254TIP3    H249178   4.883   6.647  14.381
 9255TIP3   OH249179   4.842   6.596  14.792
 9255TIP3    H149180   4.841   6.531  14.864
 9255TIP3    H249181   4.807   6.545  14.717
 9256TIP3   OH249182   4.077   6.564  14.947
 9256TIP3    H149183   4.086   6.495  15.016
 9256TIP3    H249184   4.152   6.621  14.969
 9257TIP3   OH249185   5.211   6.892  14.620
 9257TIP3    H149186   5.169   6.819  14.668
 9257TIP3    H249187   5.214   6.961  14.689
 9258TIP3   OH249188   4.172   7.009  14.800
 9258TIP3    H149189   4.138   6.924  14.766
 9258TIP3    H249190   4.267   6.990  14.800
 9259TIP3   OH249191   3.834   6.364  14.346
 9259TIP3    H149192   3.790   6.451  14.340
 9259TIP3    H249193   3.777   6.310  14.289
 9260TIP3   OH249194   3.905   6.587  14.561
 9260TIP3    H149195   3.932   6.505  14.606
 9260TIP3    H249196   3.974   6.598  14.494
 9261TIP3   OH249197   4.678   6.834  14.840
 9261TIP3    H149198   4.713   6.773  14.773
 9261TIP3    H249199   4.759   6.854  14.889
 9262TIP3   OH249200   5.540   6.001  14.910
 9262TIP3    H149201   5.556   6.059  14.987
 9262TIP3    H249202   5.596   6.046  14.845
 9263TIP3   OH249203   4.996   6.283  14.870
 9263TIP3    H149204   5.013   6.187  14.871
 9263TIP3    H249205   4.986   6.297  14.774
 9264TIP3   OH249206   4.307   6.092  14.592
 9264TIP3    H149207   4.318   6.176  14.542
 9264TIP3    H249208   4.268   6.035  14.523
 9265TIP3   OH249209   5.081   6.100  14.429
 9265TIP3    H149210   5.147   6.068  14.496
 9265TIP3    H249211   5.137   6.158  14.376
 9266TIP3   OH249212   3.970   6.333  14.665
 9266TIP3    H149213   4.037   6.279  14.711
 9266TIP3    H249214   3.981   6.302  14.574
 9267TIP3   OH249215   4.486   6.489  14.597
 9267TIP3    H149216   4.553   6.431  14.637
 9267TIP3    H249217   4.434   6.423  14.546
 9268TIP3   OH249218   5.583   6.143  15.139
 9268TIP3    H149219   5.523   6.219  15.128
 9268TIP3    H249220   5.587   6.135  15.235
 9269TIP3   OH249221   4.199   5.982  14.996
 9269TIP3    H149222   4.170   6.039  14.921
 9269TIP3    H249223   4.131   6.005  15.064
 9270TIP3   OH249224   4.926   6.928  14.351
 9270TIP3    H149225   4.902   6.904  14.260
 9270TIP3    H249226   4.896   7.021  14.357
 9271TIP3   OH249227   4.449   6.744  15.021
 9271TIP3    H149228   4.379   6.809  15.042
 9271TIP3    H249229   4.520   6.804  14.991
 9272TIP3   OH249230   5.265   6.033  14.627
 9272TIP3    H149231   5.238   5.960  14.683
 9272TIP3    H249232   5.328   6.080  14.684
 9273TIP3   OH249233   4.155   6.168  14.799
 9273TIP3    H149234   4.218   6.237  14.830
 9273TIP3    H249235   4.207   6.127  14.725
 9274TIP3   OH249236   4.296   6.947  15.101
 9274TIP3    H149237   4.290   7.037  15.065
 9274TIP3    H249238   4.207   6.938  15.143
 9275TIP3   OH249239   3.902   6.913  14.181
 9275TIP3    H149240   3.876   6.945  14.093
 9275TIP3    H249241   3.910   6.996  14.232
 9276TIP3   OH249242   5.265   7.078  14.860
 9276TIP3    H149243   5.167   7.085  14.870
 9276TIP3    H249244   5.292   7.168  14.837
 9277TIP3   OH249245   5.295   5.901  14.992
 9277TIP3    H149246   5.223   5.966  14.987
 9277TIP3    H249247   5.367   5.947  14.945
 9278TIP3   OH249248   4.592   5.716  14.742
 9278TIP3    H149249   4.578   5.619  14.735
 9278TIP3    H249250   4.504   5.746  14.773
 9279TIP3   OH249251   5.094   7.222  14.499
 9279TIP3    H149252   5.147   7.159  14.447
 9279TIP3    H249253   5.128   7.306  14.474
 9280TIP3   OH249254   5.219   7.038  14.367
 9280TIP3    H149255   5.179   6.972  14.307
 9280TIP3    H249256   5.213   6.991  14.453
 9281TIP3   OH249257   5.373   6.909  15.218
 9281TIP3    H149258   5.385   6.841  15.148
 9281TIP3    H249259   5.395   6.992  15.171
 9282TIP3   OH249260   4.822   6.594  14.193
 9282TIP3    H149261   4.753   6.652  14.157
 9282TIP3    H249262   4.893   6.604  14.127
 9283TIP3   OH249263   4.830   6.451  13.894
 9283TIP3    H149264   4.901   6.449  13.961
 9283TIP3    H249265   4.861   6.380  13.837
 9284TIP3   OH249266   5.561   6.537  15.021
 9284TIP3    H149267   5.495   6.609  15.025
 9284TIP3    H249268   5.610   6.561  14.941
 9285TIP3   OH249269   5.168   6.615  14.285
 9285TIP3    H149270   5.093   6.639  14.345
 9285TIP3    H249271   5.214   6.548  14.338
 9286TIP3   OH249272   5.160   6.432  15.198
 9286TIP3    H149273   5.160   6.514  15.250
 9286TIP3    H249274   5.097   6.461  15.129
 9287TIP3   OH249275   4.328   6.681  14.477
 9287TIP3    H149276   4.296   6.642  14.392
 9287TIP3    H249277   4.389   6.612  14.510
 9288TIP3   OH249278   4.460   7.022  14.744
 9288TIP3    H149279   4.460   6.967  14.664
 9288TIP3    H249280   4.537   6.985  14.792
 9289TIP3   OH249281   4.361   6.556  14.843
 9289TIP3    H149282   4.416   6.566  14.763
 9289TIP3    H249283   4.400   6.622  14.904
 9290TIP3   OH249284   5.006   7.113  14.916
 9290TIP3    H149285   4.969   7.176  14.977
 9290TIP3    H249286   4.976   7.027  14.955
 9291TIP3   OH249287   4.456   7.000  15.313
 9291TIP3    H149288   4.412   7.074  15.361
 9291TIP3    H249289   4.389   6.976  15.243
 9292TIP3   OH249290   5.054   6.536  14.052
 9292TIP3    H149291   5.110   6.552  14.132
 9292TIP3    H249292   5.100   6.585  13.979
 9293TIP3   OH249293   4.151   6.616  15.228
 9293TIP3    H149294   4.156   6.682  15.299
 9293TIP3    H249295   4.056   6.624  15.207
 9294TIP3   OH249296   4.820   7.204  14.400
 9294TIP3    H149297   4.868   7.236  14.477
 9294TIP3    H249298   4.770   7.281  14.372
 9295TIP3   OH249299   4.279   7.194  15.386
 9295TIP3    H149300   4.272   7.191  15.289
 9295TIP3    H249301   4.185   7.187  15.413
 9296TIP3   OH249302   5.428   5.708  14.046
 9296TIP3    H149303   5.332   5.720  14.065
 9296TIP3    H249304   5.448   5.791  13.999
 9297TIP3   OH249305   4.224   6.583  14.240
 9297TIP3    H149306   4.196   6.662  14.188
 9297TIP3    H249307   4.159   6.517  14.215
 9298TIP3   OH249308   5.542   7.141  13.881
 9298TIP3    H149309   5.553   7.238  13.890
 9298TIP3    H249310   5.635   7.113  13.876
 9299TIP3   OH249311   3.833   6.827  15.129
 9299TIP3    H149312   3.790   6.818  15.042
 9299TIP3    H249313   3.842   6.732  15.150
 9300TIP3   OH249314   3.813   7.096  14.810
 9300TIP3    H149315   3.909   7.091  14.801
 9300TIP3    H249316   3.804   7.179  14.859
 9301TIP3   OH249317   5.630   7.170  15.381
 9301TIP3    H149318   5.622   7.074  15.369
 9301TIP3    H249319   5.542   7.194  15.415
 9302TIP3   OH249320   4.728   7.126  15.260
 9302TIP3    H149321   4.739   7.204  15.314
 9302TIP3    H249322   4.643   7.086  15.289
 9303TIP3   OH249323   5.349   6.318  15.419
 9303TIP3    H149324   5.300   6.362  15.348
 9303TIP3    H249325   5.346   6.225  15.391
 9304TIP3   OH249326   4.063   6.959  15.223
 9304TIP3    H149327   4.084   6.921  15.311
 9304TIP3    H249328   3.976   6.920  15.200
 9305TIP3   OH249329   4.331   5.806  14.817
 9305TIP3    H149330   4.240   5.793  14.781
 9305TIP3    H249331   4.317   5.889  14.866
 9306TIP3   OH249332   4.795   5.772  15.153
 9306TIP3    H149333   4.834   5.730  15.232
 9306TIP3    H249334   4.698   5.760  15.167
 9307TIP3   OH249335   5.124   6.158  15.244
 9307TIP3    H149336   5.067   6.136  15.322
 9307TIP3    H249337   5.105   6.250  15.221
 9308TIP3   OH249338   5.200   6.638  13.834
 9308TIP3    H149339   5.197   6.620  13.737
 9308TIP3    H249340   5.285   6.683  13.839
 9309TIP3   OH249341   4.759   6.031  13.884
 9309TIP3    H149342   4.727   6.025  13.976
 9309TIP3    H249343   4.728   5.943  13.854
 9310TIP3   OH249344   4.341   6.304  14.944
 9310TIP3    H149345   4.267   6.302  15.007
 9310TIP3    H249346   4.336   6.394  14.906
 9311TIP3   OH249347   4.337   6.315  14.429
 9311TIP3    H149348   4.243   6.290  14.416
 9311TIP3    H249349   4.374   6.286  14.344
 9312TIP3   OH249350   4.889   6.365  14.307
 9312TIP3    H149351   4.849   6.447  14.270
 9312TIP3    H249352   4.957   6.348  14.240
 9313TIP3   OH249353   4.793   6.387  15.450
 9313TIP3    H149354   4.742   6.308  15.480
 9313TIP3    H249355   4.878   6.375  15.495
 9314TIP3   OH249356   4.992   6.314  14.591
 9314TIP3    H149357   4.964   6.370  14.517
 9314TIP3    H249358   5.002   6.229  14.544
 9315TIP3   OH249359   4.103   6.328  15.111
 9315TIP3    H149360   4.111   6.369  15.199
 9315TIP3    H249361   4.059   6.244  15.132
 9316TIP3   OH249362   4.440   6.068  13.796
 9316TIP3    H149363   4.395   6.026  13.872
 9316TIP3    H249364   4.369   6.111  13.747
 9317TIP3   OH249365   3.769   6.039  14.510
 9317TIP3    H149366   3.837   6.035  14.580
 9317TIP3    H249367   3.814   6.002  14.432
 9318TIP3   OH249368   3.895   6.111  14.044
 9318TIP3    H149369   3.947   6.172  13.988
 9318TIP3    H249370   3.826   6.173  14.076
 9319TIP3   OH249371   4.912   6.472  15.046
 9319TIP3    H149372   4.950   6.404  14.988
 9319TIP3    H249373   4.865   6.420  15.113
 9320TIP3   OH249374   4.592   6.071  14.530
 9320TIP3    H149375   4.499   6.071  14.559
 9320TIP3    H249376   4.640   6.053  14.612
 9321TIP3   OH249377   4.073   6.225  14.417
 9321TIP3    H149378   3.985   6.241  14.377
 9321TIP3    H249379   4.101   6.142  14.376
 9322TIP3   OH249380   4.437   6.230  14.179
 9322TIP3    H149381   4.533   6.241  14.195
 9322TIP3    H249382   4.414   6.298  14.114
 9323TIP3   OH249383   5.033   5.992  14.853
 9323TIP3    H149384   4.965   5.998  14.923
 9323TIP3    H249385   4.982   5.968  14.775
 9324TIP3   OH249386   4.308   6.348  13.938
 9324TIP3    H149387   4.255   6.309  13.866
 9324TIP3    H249388   4.390   6.368  13.891
 9325TIP3   OH249389   4.121   6.808  15.444
 9325TIP3    H149390   4.192   6.829  15.507
 9325TIP3    H249391   4.043   6.812  15.503
 9326TIP3   OH249392   4.720   6.346  14.719
 9326TIP3    H149393   4.780   6.293  14.666
 9326TIP3    H249394   4.706   6.291  14.797
 9327TIP3   OH249395   4.221   5.960  14.363
 9327TIP3    H149396   4.190   5.868  14.362
 9327TIP3    H249397   4.300   5.954  14.308
 9328TIP3   OH249398   4.584   6.178  14.960
 9328TIP3    H149399   4.502   6.230  14.969
 9328TIP3    H249400   4.640   6.214  15.033
 9329TIP3   OH249401   4.643   6.799  14.131
 9329TIP3    H149402   4.563   6.753  14.097
 9329TIP3    H249403   4.621   6.812  14.225
 9330TIP3   OH249404   5.362   6.721  15.011
 9330TIP3    H149405   5.418   6.771  14.948
 9330TIP3    H249406   5.276   6.726  14.964
 9331TIP3   OH249407   5.026   6.082  13.948
 9331TIP3    H149408   4.931   6.098  13.934
 9331TIP3    H249409   5.060   6.167  13.983
 9332TIP3   OH249410   4.790   6.830  15.253
 9332TIP3    H149411   4.757   6.786  15.332
 9332TIP3    H249412   4.767   6.923  15.266
 9333TIP3   OH249413   5.100   6.274  14.110
 9333TIP3    H149414   5.188   6.261  14.151
 9333TIP3    H249415   5.110   6.356  14.059
 9334TIP3   OH249416   4.154   6.740  14.710
 9334TIP3    H149417   4.222   6.733  14.641
 9334TIP3    H249418   4.160   6.654  14.756
 9335TIP3   OH249419   4.852   6.946  14.033
 9335TIP3    H149420   4.819   7.032  14.066
 9335TIP3    H249421   4.779   6.886  14.057
 9336TIP3   OH249422   3.853   6.581  15.237
 9336TIP3    H149423   3.870   6.536  15.322
 9336TIP3    H249424   3.791   6.520  15.192
 9337TIP3   OH249425   4.554   6.536  15.455
 9337TIP3    H149426   4.522   6.506  15.369
 9337TIP3    H249427   4.646   6.505  15.454
 9338TIP3   OH249428   5.021   7.076  15.242
 9338TIP3    H149429   4.927   7.083  15.224
 9338TIP3    H249430   5.019   7.094  15.339
 9339TIP3   OH249431   5.590   6.287  14.088
 9339TIP3    H149432   5.533   6.259  14.014
 9339TIP3    H249433   5.598   6.382  14.063
 9340TIP3   OH249434   5.591   6.872  15.368
 9340TIP3    H149435   5.501   6.896  15.333
 9340TIP3    H249436   5.644   6.868  15.285
 9341TIP3   OH249437   5.428   7.150  14.154
 9341TIP3    H149438   5.378   7.070  14.160
 9341TIP3    H249439   5.445   7.155  14.057
 9342TIP3   OH249440   5.140   6.652  14.839
 9342TIP3    H149441   5.046   6.632  14.828
 9342TIP3    H249442   5.183   6.577  14.795
 9343TIP3   OH249443   4.395   7.082  14.440
 9343TIP3    H149444   4.442   7.166  14.432
 9343TIP3    H249445   4.304   7.106  14.420
 9344TIP3   OH249446   3.968   6.569  13.906
 9344TIP3    H149447   4.026   6.635  13.948
 9344TIP3    H249448   3.879   6.601  13.931
 9345TIP3   OH249449   4.535   6.851  14.400
 9345TIP3    H149450   4.503   6.943  14.409
 9345TIP3    H249451   4.462   6.803  14.444
 9346TIP3   OH249452   4.607   7.239  15.011
 9346TIP3    H149453   4.624   7.333  15.002
 9346TIP3    H249454   4.640   7.222  15.100
 9347TIP3   OH249455   4.931   6.871  15.004
 9347TIP3    H149456   4.897   6.848  15.093
 9347TIP3    H249457   4.994   6.799  14.986
 9348TIP3   OH249458   5.164   6.976  13.910
 9348TIP3    H149459   5.193   6.931  13.993
 9348TIP3    H249460   5.069   6.961  13.920
 9349TIP3   OH249461   4.018   6.054  15.191
 9349TIP3    H149462   3.927   6.089  15.189
 9349TIP3    H249463   4.007   5.970  15.237
 9350TIP3   OH249464   5.241   6.838  14.137
 9350TIP3    H149465   5.218   6.761  14.193
 9350TIP3    H249466   5.336   6.845  14.154
 9351TIP3   OH249467   3.980   7.229  15.033
 9351TIP3    H149468   4.009   7.138  15.038
 9351TIP3    H249469   4.000   7.263  15.121
 9352TIP3   OH249470   4.578   7.083  13.760
 9352TIP3    H149471   4.586   7.006  13.702
 9352TIP3    H249472   4.534   7.042  13.838
 9353TIP3   OH249473   4.452   7.034  14.006
 9353TIP3    H149474   4.480   6.985  14.084
 9353TIP3    H249475   4.465   7.127  14.033
 9354TIP3   OH249476   4.108   6.763  14.055
 9354TIP3    H149477   4.037   6.803  14.109
 9354TIP3    H249478   4.159   6.841  14.026
 9355TIP3   OH249479   4.891   6.031  15.087
 9355TIP3    H149480   4.963   6.037  15.152
 9355TIP3    H249481   4.853   5.944  15.108
 9356TIP3   OH249482   4.965   5.988  14.196
 9356TIP3    H149483   4.989   6.034  14.113
 9356TIP3    H249484   5.023   6.032  14.259
 9357TIP3   OH249485   4.739   7.207  14.079
 9357TIP3    H149486   4.654   7.255  14.083
 9357TIP3    H249487   4.786   7.258  14.011
 9358TIP3   OH249488   4.689   6.163  14.278
 9358TIP3    H149489   4.767   6.222  14.283
 9358TIP3    H249490   4.662   6.152  14.371
 9359TIP3   OH249491   4.745   6.267  15.197
 9359TIP3    H149492   4.752   6.321  15.278
 9359TIP3    H249493   4.810   6.196  15.207
 9360TIP3   OH249494   4.776   5.868  14.367
 9360TIP3    H149495   4.742   5.934  14.431
 9360TIP3    H249496   4.844   5.924  14.322
 9361TIP3   OH249497   4.480   0.005  14.082
 9361TIP3    H149498   4.482   0.084  14.025
 9361TIP3    H249499   4.450   0.042  14.167
 9362TIP3   OH249500   4.339   5.980  14.037
 9362TIP3    H149501   4.334   6.070  14.076
 9362TIP3    H249502   4.430   5.955  14.064
 9363TIP3   OH249503   5.362   6.053  15.282
 9363TIP3    H149504   5.269   6.085  15.269
 9363TIP3    H249505   5.392   6.052  15.189
 9364TIP3   OH249506   5.224   6.431  14.682
 9364TIP3    H149507   5.141   6.387  14.655
 9364TIP3    H249508   5.271   6.363  14.734
 9365TIP3   OH249509   4.165   7.024  13.941
 9365TIP3    H149510   4.232   7.088  13.969
 9365TIP3    H249511   4.215   6.977  13.873
 9366TIP3   OH249512   3.997   6.291  13.856
 9366TIP3    H149513   3.999   6.387  13.877
 9366TIP3    H249514   3.908   6.274  13.825
 9367TIP3   OH249515   4.079   5.770  14.730
 9367TIP3    H149516   4.059   5.772  14.634
 9367TIP3    H249517   4.037   5.684  14.756
 9368TIP3   OH249518   3.975   7.162  14.342
 9368TIP3    H149519   3.888   7.205  14.341
 9368TIP3    H249520   4.025   7.211  14.275
 9369TIP3   OH249521   4.394   7.290  15.658
 9369TIP3    H149522   4.477   7.244  15.672
 9369TIP3    H249523   4.383   7.273  15.562
 9370TIP3   OH249524   4.779   7.263  13.785
 9370TIP3    H149525   4.704   7.201  13.793
 9370TIP3    H249526   4.848   7.210  13.746
 9371TIP3   OH249527   5.020   7.121  15.494
 9371TIP3    H149528   4.973   7.053  15.545
 9371TIP3    H249529   5.081   7.158  15.559
 9372TIP3   OH249530   5.250   7.243  13.812
 9372TIP3    H149531   5.273   7.155  13.843
 9372TIP3    H249532   5.318   7.261  13.744
 9373TIP3   OH249533   3.885   6.802  15.572
 9373TIP3    H149534   3.902   6.712  15.538
 9373TIP3    H249535   3.812   6.832  15.515
 9374TIP3   OH249536   4.321   6.837  13.775
 9374TIP3    H149537   4.336   6.761  13.834
 9374TIP3    H249538   4.396   6.826  13.713
 9375TIP3   OH249539   4.559   6.801  15.510
 9375TIP3    H149540   4.524   6.832  15.424
 9375TIP3    H249541   4.564   6.703  15.500
 9376TIP3   OH249542   4.865   6.951  13.752
 9376TIP3    H149543   4.835   6.960  13.844
 9376TIP3    H249544   4.845   6.856  13.738
 9377TIP3   OH249545   5.128   6.789  15.250
 9377TIP3    H149546   5.206   6.847  15.243
 9377TIP3    H249547   5.057   6.855  15.255
 9378TIP3   OH249548   3.978   6.529  15.510
 9378TIP3    H149549   4.019   6.442  15.501
 9378TIP3    H249550   3.955   6.529  15.605
 9379TIP3   OH249551   4.441   6.640  14.018
 9379TIP3    H149552   4.391   6.587  14.080
 9379TIP3    H249553   4.471   6.573  13.952
 9380TIP3   OH249554   4.368   6.421  15.246
 9380TIP3    H149555   4.308   6.493  15.272
 9380TIP3    H249556   4.408   6.458  15.165
 9381TIP3   OH249557   4.549   6.463  13.837
 9381TIP3    H149558   4.534   6.454  13.741
 9381TIP3    H249559   4.646   6.468  13.844
 9382TIP3   OH249560   4.875   6.679  15.585
 9382TIP3    H149561   4.970   6.676  15.566
 9382TIP3    H249562   4.858   6.600  15.639
 9383TIP3   OH249563   5.483   6.694  13.779
 9383TIP3    H149564   5.463   6.656  13.691
 9383TIP3    H249565   5.489   6.791  13.760
 9384TIP3   OH249566   4.410   6.160  15.350
 9384TIP3    H149567   4.420   6.088  15.285
 9384TIP3    H249568   4.404   6.241  15.295
 9385TIP3   OH249569   4.449   5.997  15.107
 9385TIP3    H149570   4.500   6.044  15.037
 9385TIP3    H249571   4.360   5.989  15.067
 9386TIP3   OH249572   4.603   6.546  15.132
 9386TIP3    H149573   4.678   6.529  15.074
 9386TIP3    H249574   4.566   6.629  15.098
 9387TIP3   OH249575   5.040   6.320  15.626
 9387TIP3    H149576   5.065   6.226  15.619
 9387TIP3    H249577   5.127   6.364  15.631
 9388TIP3   OH249578   5.176   6.602  15.445
 9388TIP3    H149579   5.151   6.673  15.382
 9388TIP3    H249580   5.272   6.599  15.425
 9389TIP3   OH249581   4.257   6.283  15.546
 9389TIP3    H149582   4.178   6.228  15.526
 9389TIP3    H249583   4.320   6.248  15.480
 9390TIP3   OH249584   4.527   5.740  15.148
 9390TIP3    H149585   4.510   5.837  15.137
 9390TIP3    H249586   4.453   5.704  15.096
 9391TIP3   OH249587   4.656   6.174  15.508
 9391TIP3    H149588   4.623   6.152  15.598
 9391TIP3    H249589   4.578   6.154  15.453
 9392TIP3   OH249590   4.926   6.087  15.416
 9392TIP3    H149591   4.830   6.094  15.430
 9392TIP3    H249592   4.953   6.024  15.486
 9393TIP3   OH249593   5.080   5.951  15.608
 9393TIP3    H149594   5.080   5.853  15.610
 9393TIP3    H249595   5.058   5.979  15.700
 9394TIP3   OH249596   4.064   6.078  15.520
 9394TIP3    H149597   4.088   6.004  15.461
 9394TIP3    H249598   4.054   6.033  15.606
 9395TIP3   OH249599   4.549   5.680  15.417
 9395TIP3    H149600   4.618   5.610  15.414
 9395TIP3    H249601   4.539   5.695  15.321
 9396TIP3   OH249602   4.583   5.839  15.627
 9396TIP3    H149603   4.568   5.790  15.543
 9396TIP3    H249604   4.527   5.919  15.615
 9397TIP3   OH249605   3.890   6.990  13.889
 9397TIP3    H149606   3.985   7.001  13.912
 9397TIP3    H249607   3.896   6.923  13.818
 9398TIP3   OH249608   5.404   6.953  15.632
 9398TIP3    H149609   5.314   6.950  15.669
 9398TIP3    H249610   5.443   7.032  15.677
 9399TIP3   OH249611   5.535   6.785  14.174
 9399TIP3    H149612   5.621   6.825  14.193
 9399TIP3    H249613   5.533   6.714  14.242
 9400TIP3   OH249614   5.571   6.594  14.363
 9400TIP3    H149615   5.496   6.544  14.402
 9400TIP3    H249616   5.631   6.607  14.440
 9401TIP3   OH249617   5.548   6.863  14.864
 9401TIP3    H149618   5.628   6.826  14.823
 9401TIP3    H249619   5.561   6.959  14.846
 9402TIP3   OH249620   5.396   7.152  15.093
 9402TIP3    H149621   5.326   7.190  15.147
 9402TIP3    H249622   5.347   7.116  15.016
 9403TIP3   OH249623   5.602   6.576  14.002
 9403TIP3    H149624   5.545   6.612  13.931
 9403TIP3    H249625   5.592   6.647  14.068
 9404TIP3   OH249626   5.439   6.299  13.853
 9404TIP3    H149627   5.446   6.366  13.784
 9404TIP3    H249628   5.420   6.217  13.804
 9405TIP3   OH249629   5.353   6.441  14.420
 9405TIP3    H149630   5.338   6.346  14.416
 9405TIP3    H249631   5.320   6.463  14.509
 9406TIP3   OH249632   3.854   6.650  14.826
 9406TIP3    H149633   3.871   6.642  14.729
 9406TIP3    H249634   3.943   6.632  14.861
 9407TIP3   OH249635   5.439   6.638  15.391
 9407TIP3    H149636   5.500   6.562  15.401
 9407TIP3    H249637   5.500   6.715  15.388
 9408TIP3   OH249638   5.588   6.427  15.455
 9408TIP3    H149639   5.501   6.386  15.436
 9408TIP3    H249640   5.646   6.349  15.447
 9409TIP3   OH249641   5.364   6.047  13.767
 9409TIP3    H149642   5.422   6.003  13.831
 9409TIP3    H249643   5.277   6.005  13.782
 9410TIP3   OH249644   5.318   6.199  14.261
 9410TIP3    H149645   5.350   6.108  14.277
 9410TIP3    H249646   5.399   6.241  14.230
 9411TIP3   OH249647   5.384   6.254  14.810
 9411TIP3    H149648   5.480   6.277  14.808
 9411TIP3    H249649   5.365   6.268  14.904
 9412TIP3   OH249650   5.390   6.326  15.087
 9412TIP3    H149651   5.302   6.355  15.119
 9412TIP3    H249652   5.434   6.412  15.066
 9413TIP3   OH249653   3.816   6.178  15.439
 9413TIP3    H149654   3.910   6.159  15.460
 9413TIP3    H249655   3.770   6.097  15.469
 9414TIP3   OH249656   5.617   5.733  15.622
 9414TIP3    H149657   5.652   5.666  15.561
 9414TIP3    H249658   5.628   5.815  15.570
 9415TIP3   OH249659   5.389   5.928  14.270
 9415TIP3    H149660   5.407   5.885  14.356
 9415TIP3    H249661   5.326   5.866  14.225
 9416TIP3   OH249662   3.935   6.009  14.726
 9416TIP3    H149663   3.981   5.927  14.752
 9416TIP3    H249664   3.991   6.078  14.765
 9417TIP3   OH249665   3.764   6.310  14.830
 9417TIP3    H149666   3.820   6.284  14.754
 9417TIP3    H249667   3.810   6.390  14.857
 9418TIP3   OH249668   5.569   5.943  15.457
 9418TIP3    H149669   5.476   5.970  15.452
 9418TIP3    H249670   5.573   5.887  15.378
 9419TIP3   OH249671   5.568   5.931  13.927
 9419TIP3    H149672   5.609   5.861  13.871
 9419TIP3    H249673   5.638   5.998  13.931
 9420TIP3   OH249674   3.801   5.937  14.238
 9420TIP3    H149675   3.706   5.953  14.222
 9420TIP3    H249676   3.842   5.985  14.164
 9421TIP3   OH249677   3.795   5.800  15.066
 9421TIP3    H149678   3.728   5.781  15.135
 9421TIP3    H249679   3.749   5.868  15.012
 9422TIP3   OH249680   4.018   7.127  15.483
 9422TIP3    H149681   3.932   7.139  15.439
 9422TIP3    H249682   3.991   7.111  15.574
 9423TIP3   OH249683   4.313   7.220  15.118
 9423TIP3    H149684   4.267   7.296  15.079
 9423TIP3    H249685   4.398   7.217  15.072
 9424TIP3   OH249686   5.471   5.752  15.244
 9424TIP3    H149687   5.389   5.782  15.201
 9424TIP3    H249688   5.488   5.670  15.193
 9425TIP3   OH249689   4.229   7.255  14.647
 9425TIP3    H149690   4.191   7.179  14.693
 9425TIP3    H249691   4.287   7.292  14.716
 9426TIP3   OH249692   4.811   5.894  14.672
 9426TIP3    H149693   4.742   5.831  14.699
 9426TIP3    H249694   4.865   5.841  14.613
 9427TIP3   OH249695   5.329   5.694  14.669
 9427TIP3    H149696   5.381   5.767  14.627
 9427TIP3    H249697   5.238   5.732  14.658
 9428TIP3   OH249698   5.495   5.819  14.512
 9428TIP3    H149699   5.562   5.773  14.455
 9428TIP3    H249700   5.538   5.908  14.516
 9429TIP3   OH249701   4.048   5.757  14.456
 9429TIP3    H149702   3.968   5.737  14.403
 9429TIP3    H249703   4.094   5.671  14.450
 9430TIP3   OH249704   3.924   5.732  14.028
 9430TIP3    H149705   3.974   5.797  13.975
 9430TIP3    H249706   3.868   5.790  14.082
 9431TIP3   OH249707   4.495   5.749  14.435
 9431TIP3    H149708   4.585   5.785  14.427
 9431TIP3    H249709   4.491   5.728  14.528
 9432TIP3   OH249710   5.072   5.749  14.596
 9432TIP3    H149711   5.059   5.763  14.502
 9432TIP3    H249712   5.026   5.662  14.610
 9433TIP3   OH249713   5.194   5.754  14.169
 9433TIP3    H149714   5.120   5.813  14.150
 9433TIP3    H249715   5.148   5.669  14.187
 9434TIP3   OH249716   4.107   5.927  13.879
 9434TIP3    H149717   4.160   5.865  13.826
 9434TIP3    H249718   4.174   5.959  13.943
 9435TIP3   OH249719   4.610   5.951  14.120
 9435TIP3    H149720   4.635   5.893  14.193
 9435TIP3    H249721   4.617   6.037  14.165
 9436TIP3   OH249722   4.035   5.810  15.399
 9436TIP3    H149723   3.997   5.731  15.442
 9436TIP3    H249724   4.126   5.807  15.437
 9437TIP3   OH249725   4.237   5.750  15.563
 9437TIP3    H149726   4.325   5.714  15.541
 9437TIP3    H249727   4.198   5.670  15.606
 9438TIP3   OH249728   5.077   5.677  15.581
 9438TIP3    H149729   5.087   5.630  15.666
 9438TIP3    H249730   5.168   5.675  15.546
 9439TIP3   OH249731   5.383  -0.023  15.460
 9439TIP3    H149732   5.319  -0.039  15.390
 9439TIP3    H249733   5.390   0.073  15.459
 9440TIP3   OH249734   6.842   6.669  14.442
 9440TIP3    H149735   6.842   6.767  14.439
 9440TIP3    H249736   6.769   6.647  14.381
 9441TIP3   OH249737   6.728   6.596  14.792
 9441TIP3    H149738   6.725   6.530  14.863
 9441TIP3    H249739   6.695   6.546  14.716
 9442TIP3   OH249740   5.963   6.564  14.947
 9442TIP3    H149741   5.971   6.495  15.017
 9442TIP3    H249742   6.038   6.621  14.969
 9443TIP3   OH249743   7.098   6.889  14.620
 9443TIP3    H149744   7.056   6.818  14.670
 9443TIP3    H249745   7.100   6.961  14.686
 9444TIP3   OH249746   6.057   7.009  14.800
 9444TIP3    H149747   6.024   6.924  14.766
 9444TIP3    H249748   6.152   6.990  14.801
 9445TIP3   OH249749   5.720   6.364  14.347
 9445TIP3    H149750   5.676   6.451  14.340
 9445TIP3    H249751   5.663   6.310  14.289
 9446TIP3   OH249752   5.790   6.587  14.561
 9446TIP3    H149753   5.818   6.505  14.606
 9446TIP3    H249754   5.860   6.598  14.494
 9447TIP3   OH249755   6.564   6.834  14.840
 9447TIP3    H149756   6.599   6.773  14.773
 9447TIP3    H249757   6.645   6.854  14.889
 9448TIP3   OH249758   6.882   6.284  14.870
 9448TIP3    H149759   6.900   6.188  14.869
 9448TIP3    H249760   6.873   6.298  14.774
 9449TIP3   OH249761   6.206   6.087  14.584
 9449TIP3    H149762   6.200   6.177  14.546
 9449TIP3    H249763   6.144   6.039  14.524
 9450TIP3   OH249764   6.969   6.104  14.430
 9450TIP3    H149765   7.033   6.068  14.497
 9450TIP3    H249766   7.029   6.157  14.376
 9451TIP3   OH249767   5.854   6.333  14.665
 9451TIP3    H149768   5.921   6.280  14.711
 9451TIP3    H249769   5.866   6.302  14.574
 9452TIP3   OH249770   6.371   6.488  14.597
 9452TIP3    H149771   6.439   6.432  14.637
 9452TIP3    H249772   6.320   6.423  14.546
 9453TIP3   OH249773   6.085   5.982  14.994
 9453TIP3    H149774   6.055   6.040  14.921
 9453TIP3    H249775   6.018   6.004  15.063
 9454TIP3   OH249776   6.813   6.928  14.350
 9454TIP3    H149777   6.787   6.903  14.260
 9454TIP3    H249778   6.782   7.021  14.357
 9455TIP3   OH249779   6.336   6.744  15.021
 9455TIP3    H149780   6.265   6.809  15.042
 9455TIP3    H249781   6.406   6.804  14.991
 9456TIP3   OH249782   7.118   6.032  14.640
 9456TIP3    H149783   7.121   5.950  14.690
 9456TIP3    H249784   7.194   6.079  14.680
 9457TIP3   OH249785   6.042   6.166  14.797
 9457TIP3    H149786   6.103   6.236  14.831
 9457TIP3    H249787   6.094   6.126  14.725
 9458TIP3   OH249788   6.182   6.946  15.101
 9458TIP3    H149789   6.176   7.036  15.064
 9458TIP3    H249790   6.093   6.937  15.143
 9459TIP3   OH249791   5.786   6.913  14.181
 9459TIP3    H149792   5.763   6.944  14.092
 9459TIP3    H249793   5.798   6.995  14.232
 9460TIP3   OH249794   7.130   7.069  14.869
 9460TIP3    H149795   7.033   7.087  14.873
 9460TIP3    H249796   7.169   7.151  14.836
 9461TIP3   OH249797   7.161   5.916  14.970
 9461TIP3    H149798   7.092   5.984  14.982
 9461TIP3    H249799   7.238   5.966  14.939
 9462TIP3   OH249800   6.474   5.718  14.734
 9462TIP3    H149801   6.467   5.620  14.736
 9462TIP3    H249802   6.390   5.744  14.778
 9463TIP3   OH249803   6.981   7.224  14.498
 9463TIP3    H149804   7.036   7.161  14.447
 9463TIP3    H249805   7.019   7.308  14.474
 9464TIP3   OH249806   7.102   7.039  14.366
 9464TIP3    H149807   7.068   6.971  14.307
 9464TIP3    H249808   7.101   6.991  14.452
 9465TIP3   OH249809   7.232   6.920  15.228
 9465TIP3    H149810   7.260   6.849  15.167
 9465TIP3    H249811   7.277   6.994  15.183
 9466TIP3   OH249812   6.707   6.594  14.193
 9466TIP3    H149813   6.639   6.653  14.156
 9466TIP3    H249814   6.779   6.603  14.127
 9467TIP3   OH249815   6.716   6.451  13.894
 9467TIP3    H149816   6.787   6.450  13.959
 9467TIP3    H249817   6.746   6.380  13.837
 9468TIP3   OH249818   7.049   6.617  14.282
 9468TIP3    H149819   6.977   6.641  14.344
 9468TIP3    H249820   7.098   6.552  14.339
 9469TIP3   OH249821   7.047   6.434  15.195
 9469TIP3    H149822   7.042   6.513  15.250
 9469TIP3    H249823   6.983   6.460  15.126
 9470TIP3   OH249824   6.214   6.682  14.477
 9470TIP3    H149825   6.182   6.642  14.392
 9470TIP3    H249826   6.275   6.612  14.510
 9471TIP3   OH249827   6.346   7.022  14.744
 9471TIP3    H149828   6.346   6.967  14.664
 9471TIP3    H249829   6.423   6.985  14.791
 9472TIP3   OH249830   6.245   6.558  14.844
 9472TIP3    H149831   6.301   6.566  14.764
 9472TIP3    H249832   6.285   6.623  14.905
 9473TIP3   OH249833   6.882   7.114  14.914
 9473TIP3    H149834   6.857   7.176  14.981
 9473TIP3    H249835   6.860   7.027  14.955
 9474TIP3   OH249836   6.341   7.000  15.313
 9474TIP3    H149837   6.298   7.074  15.361
 9474TIP3    H249838   6.275   6.976  15.243
 9475TIP3   OH249839   6.939   6.534  14.053
 9475TIP3    H149840   6.995   6.556  14.132
 9475TIP3    H249841   6.979   6.586  13.981
 9476TIP3   OH249842   6.036   6.616  15.228
 9476TIP3    H149843   6.042   6.682  15.299
 9476TIP3    H249844   5.942   6.624  15.207
 9477TIP3   OH249845   6.706   7.206  14.401
 9477TIP3    H149846   6.760   7.239  14.475
 9477TIP3    H249847   6.657   7.283  14.373
 9478TIP3   OH249848   6.164   7.197  15.386
 9478TIP3    H149849   6.158   7.190  15.289
 9478TIP3    H249850   6.070   7.185  15.413
 9479TIP3   OH249851   6.109   6.583  14.240
 9479TIP3    H149852   6.082   6.662  14.188
 9479TIP3    H249853   6.045   6.517  14.215
 9480TIP3   OH249854   5.718   6.827  15.129
 9480TIP3    H149855   5.675   6.818  15.042
 9480TIP3    H249856   5.727   6.732  15.150
 9481TIP3   OH249857   5.698   7.099  14.806
 9481TIP3    H149858   5.794   7.091  14.800
 9481TIP3    H249859   5.690   7.179  14.860
 9482TIP3   OH249860   6.613   7.126  15.261
 9482TIP3    H149861   6.623   7.206  15.313
 9482TIP3    H249862   6.529   7.086  15.289
 9483TIP3   OH249863   7.185   6.335  15.423
 9483TIP3    H149864   7.181   6.370  15.334
 9483TIP3    H249865   7.239   6.252  15.409
 9484TIP3   OH249866   5.949   6.959  15.224
 9484TIP3    H149867   5.970   6.921  15.311
 9484TIP3    H249868   5.862   6.920  15.200
 9485TIP3   OH249869   6.217   5.811  14.810
 9485TIP3    H149870   6.124   5.792  14.783
 9485TIP3    H249871   6.201   5.887  14.869
 9486TIP3   OH249872   6.681   5.772  15.153
 9486TIP3    H149873   6.720   5.730  15.232
 9486TIP3    H249874   6.583   5.760  15.168
 9487TIP3   OH249875   7.002   6.153  15.237
 9487TIP3    H149876   6.954   6.136  15.322
 9487TIP3    H249877   6.994   6.249  15.224
 9488TIP3   OH249878   7.090   6.629  13.834
 9488TIP3    H149879   7.082   6.615  13.737
 9488TIP3    H249880   7.166   6.686  13.837
 9489TIP3   OH249881   6.646   6.031  13.883
 9489TIP3    H149882   6.614   6.026  13.975
 9489TIP3    H249883   6.614   5.944  13.853
 9490TIP3   OH249884   6.227   6.302  14.941
 9490TIP3    H149885   6.154   6.301  15.006
 9490TIP3    H249886   6.222   6.393  14.905
 9491TIP3   OH249887   6.223   6.308  14.430
 9491TIP3    H149888   6.127   6.293  14.415
 9491TIP3    H249889   6.259   6.288  14.342
 9492TIP3   OH249890   6.776   6.366  14.307
 9492TIP3    H149891   6.735   6.447  14.270
 9492TIP3    H249892   6.844   6.349  14.240
 9493TIP3   OH249893   6.680   6.387  15.450
 9493TIP3    H149894   6.630   6.307  15.480
 9493TIP3    H249895   6.765   6.375  15.495
 9494TIP3   OH249896   6.875   6.316  14.593
 9494TIP3    H149897   6.851   6.370  14.516
 9494TIP3    H249898   6.889   6.231  14.547
 9495TIP3   OH249899   5.988   6.328  15.111
 9495TIP3    H149900   5.997   6.369  15.198
 9495TIP3    H249901   5.944   6.244  15.132
 9496TIP3   OH249902   6.326   6.068  13.797
 9496TIP3    H149903   6.280   6.025  13.872
 9496TIP3    H249904   6.255   6.111  13.747
 9497TIP3   OH249905   5.653   6.033  14.511
 9497TIP3    H149906   5.723   6.037  14.579
 9497TIP3    H249907   5.700   6.004  14.431
 9498TIP3   OH249908   5.781   6.110  14.045
 9498TIP3    H149909   5.832   6.171  13.989
 9498TIP3    H249910   5.712   6.174  14.075
 9499TIP3   OH249911   6.796   6.471  15.046
 9499TIP3    H149912   6.836   6.402  14.988
 9499TIP3    H249913   6.750   6.419  15.113
 9500TIP3   OH249914   6.497   6.106  14.543
 9500TIP3    H149915   6.404   6.111  14.571
 9500TIP3    H249916   6.542   6.067  14.620
 9501TIP3   OH249917   5.961   6.223  14.418
 9501TIP3    H149918   5.872   6.242  14.378
 9501TIP3    H249919   5.988   6.140  14.375
 9502TIP3   OH249920   6.325   6.229  14.182
 9502TIP3    H149921   6.420   6.243  14.194
 9502TIP3    H249922   6.299   6.296  14.115
 9503TIP3   OH249923   6.912   5.990  14.856
 9503TIP3    H149924   6.844   5.998  14.926
 9503TIP3    H249925   6.864   5.970  14.775
 9504TIP3   OH249926   6.194   6.347  13.938
 9504TIP3    H149927   6.141   6.309  13.867
 9504TIP3    H249928   6.276   6.368  13.891
 9505TIP3   OH249929   6.007   6.808  15.444
 9505TIP3    H149930   6.078   6.829  15.507
 9505TIP3    H249931   5.929   6.811  15.503
 9506TIP3   OH249932   6.604   6.344  14.718
 9506TIP3    H149933   6.667   6.293  14.666
 9506TIP3    H249934   6.593   6.292  14.799
 9507TIP3   OH249935   6.118   5.955  14.371
 9507TIP3    H149936   6.072   5.869  14.360
 9507TIP3    H249937   6.180   5.954  14.297
 9508TIP3   OH249938   6.469   6.177  14.959
 9508TIP3    H149939   6.388   6.231  14.970
 9508TIP3    H249940   6.526   6.212  15.031
 9509TIP3   OH249941   6.529   6.799  14.131
 9509TIP3    H149942   6.449   6.753  14.097
 9509TIP3    H249943   6.506   6.812  14.225
 9510TIP3   OH249944   7.216   6.723  15.010
 9510TIP3    H149945   7.288   6.736  14.945
 9510TIP3    H249946   7.140   6.724  14.949
 9511TIP3   OH249947   6.915   6.083  13.948
 9511TIP3    H149948   6.819   6.095  13.933
 9511TIP3    H249949   6.943   6.169  13.984
 9512TIP3   OH249950   6.677   6.830  15.253
 9512TIP3    H149951   6.642   6.786  15.332
 9512TIP3    H249952   6.656   6.922  15.266
 9513TIP3   OH249953   6.985   6.276  14.107
 9513TIP3    H149954   7.072   6.262  14.151
 9513TIP3    H249955   6.995   6.360  14.059
 9514TIP3   OH249956   6.039   6.740  14.710
 9514TIP3    H149957   6.108   6.733  14.641
 9514TIP3    H249958   6.046   6.654  14.756
 9515TIP3   OH249959   6.736   6.946  14.033
 9515TIP3    H149960   6.705   7.032  14.067
 9515TIP3    H249961   6.663   6.886  14.058
 9516TIP3   OH249962   5.738   6.582  15.237
 9516TIP3    H149963   5.756   6.536  15.322
 9516TIP3    H249964   5.677   6.520  15.192
 9517TIP3   OH249965   6.439   6.536  15.455
 9517TIP3    H149966   6.408   6.506  15.369
 9517TIP3    H249967   6.532   6.505  15.454
 9518TIP3   OH249968   6.908   7.076  15.243
 9518TIP3    H149969   6.814   7.082  15.224
 9518TIP3    H249970   6.905   7.094  15.340
 9519TIP3   OH249971   7.019   6.650  14.839
 9519TIP3    H149972   6.926   6.628  14.825
 9519TIP3    H249973   7.067   6.576  14.797
 9520TIP3   OH249974   6.281   7.082  14.440
 9520TIP3    H149975   6.327   7.166  14.432
 9520TIP3    H249976   6.190   7.106  14.420
 9521TIP3   OH249977   5.854   6.569  13.906
 9521TIP3    H149978   5.912   6.635  13.948
 9521TIP3    H249979   5.765   6.601  13.931
 9522TIP3   OH249980   6.421   6.851  14.400
 9522TIP3    H149981   6.389   6.943  14.409
 9522TIP3    H249982   6.348   6.803  14.444
 9523TIP3   OH249983   6.494   7.238  15.010
 9523TIP3    H149984   6.508   7.333  15.003
 9523TIP3    H249985   6.525   7.223  15.101
 9524TIP3   OH249986   6.819   6.871  15.005
 9524TIP3    H149987   6.782   6.848  15.092
 9524TIP3    H249988   6.880   6.798  14.986
 9525TIP3   OH249989   7.048   6.971  13.911
 9525TIP3    H149990   7.080   6.934  13.995
 9525TIP3    H249991   6.953   6.959  13.921
 9526TIP3   OH249992   5.904   6.054  15.191
 9526TIP3    H149993   5.813   6.089  15.189
 9526TIP3    H249994   5.893   5.970  15.237
 9527TIP3   OH249995   7.128   6.833  14.133
 9527TIP3    H149996   7.106   6.759  14.194
 9527TIP3    H249997   7.220   6.852  14.157
 9528TIP3   OH249998   5.865   7.228  15.032
 9528TIP3    H149999   5.894   7.137  15.037
 9528TIP3    H250000   5.886   7.262  15.119
 9529TIP3   OH250001   6.463   7.083  13.760
 9529TIP3    H150002   6.470   7.005  13.702
 9529TIP3    H250003   6.420   7.042  13.838
 9530TIP3   OH250004   6.338   7.034  14.006
 9530TIP3    H150005   6.366   6.985  14.084
 9530TIP3    H250006   6.351   7.128  14.034
 9531TIP3   OH250007   5.994   6.763  14.055
 9531TIP3    H150008   5.922   6.803  14.109
 9531TIP3    H250009   6.044   6.841  14.026
 9532TIP3   OH250010   6.774   6.031  15.088
 9532TIP3    H150011   6.849   6.037  15.149
 9532TIP3    H250012   6.737   5.943  15.109
 9533TIP3   OH250013   6.853   5.987  14.198
 9533TIP3    H150014   6.873   6.034  14.115
 9533TIP3    H250015   6.913   6.032  14.259
 9534TIP3   OH250016   6.625   7.207  14.079
 9534TIP3    H150017   6.539   7.254  14.083
 9534TIP3    H250018   6.673   7.258  14.012
 9535TIP3   OH250019   6.575   6.160  14.280
 9535TIP3    H150020   6.652   6.222  14.279
 9535TIP3    H250021   6.551   6.159  14.374
 9536TIP3   OH250022   6.633   6.267  15.197
 9536TIP3    H150023   6.641   6.322  15.277
 9536TIP3    H250024   6.698   6.195  15.206
 9537TIP3   OH250025   6.650   5.874  14.365
 9537TIP3    H150026   6.639   5.939  14.436
 9537TIP3    H250027   6.727   5.919  14.320
 9538TIP3   OH250028   6.366   0.006  14.083
 9538TIP3    H150029   6.368   0.084  14.025
 9538TIP3    H250030   6.335   0.042  14.167
 9539TIP3   OH250031   6.224   5.979  14.042
 9539TIP3    H150032   6.220   6.071  14.073
 9539TIP3    H250033   6.317   5.956  14.062
 9540TIP3   OH250034   7.235   6.030  15.262
 9540TIP3    H150035   7.152   6.083  15.266
 9540TIP3    H250036   7.275   6.059  15.180
 9541TIP3   OH250037   7.109   6.432  14.687
 9541TIP3    H150038   7.027   6.389  14.656
 9541TIP3    H250039   7.152   6.360  14.735
 9542TIP3   OH250040   6.050   7.024  13.941
 9542TIP3    H150041   6.118   7.088  13.969
 9542TIP3    H250042   6.101   6.977  13.873
 9543TIP3   OH250043   5.883   6.291  13.856
 9543TIP3    H150044   5.884   6.387  13.876
 9543TIP3    H250045   5.793   6.274  13.825
 9544TIP3   OH250046   5.965   5.769  14.730
 9544TIP3    H150047   5.945   5.771  14.634
 9544TIP3    H250048   5.924   5.684  14.756
 9545TIP3   OH250049   5.860   7.162  14.342
 9545TIP3    H150050   5.775   7.206  14.340
 9545TIP3    H250051   5.912   7.210  14.275
 9546TIP3   OH250052   6.277   7.290  15.657
 9546TIP3    H150053   6.361   7.246  15.673
 9546TIP3    H250054   6.271   7.273  15.560
 9547TIP3   OH250055   6.665   7.263  13.785
 9547TIP3    H150056   6.590   7.201  13.793
 9547TIP3    H250057   6.735   7.210  13.748
 9548TIP3   OH250058   6.909   7.121  15.495
 9548TIP3    H150059   6.860   7.054  15.546
 9548TIP3    H250060   6.971   7.155  15.561
 9549TIP3   OH250061   7.140   7.244  13.814
 9549TIP3    H150062   7.156   7.154  13.846
 9549TIP3    H250063   7.204   7.258  13.742
 9550TIP3   OH250064   5.771   6.802  15.571
 9550TIP3    H150065   5.788   6.711  15.539
 9550TIP3    H250066   5.699   6.831  15.513
 9551TIP3   OH250067   6.206   6.836  13.774
 9551TIP3    H150068   6.221   6.761  13.834
 9551TIP3    H250069   6.282   6.826  13.713
 9552TIP3   OH250070   6.445   6.801  15.510
 9552TIP3    H150071   6.409   6.832  15.424
 9552TIP3    H250072   6.450   6.703  15.500
 9553TIP3   OH250073   6.750   6.951  13.752
 9553TIP3    H150074   6.720   6.960  13.844
 9553TIP3    H250075   6.730   6.856  13.738
 9554TIP3   OH250076   7.011   6.786  15.251
 9554TIP3    H150077   7.090   6.845  15.243
 9554TIP3    H250078   6.943   6.854  15.255
 9555TIP3   OH250079   5.864   6.529  15.511
 9555TIP3    H150080   5.905   6.443  15.501
 9555TIP3    H250081   5.841   6.529  15.606
 9556TIP3   OH250082   6.327   6.640  14.018
 9556TIP3    H150083   6.276   6.586  14.080
 9556TIP3    H250084   6.357   6.573  13.952
 9557TIP3   OH250085   6.253   6.421  15.246
 9557TIP3    H150086   6.194   6.494  15.272
 9557TIP3    H250087   6.293   6.458  15.166
 9558TIP3   OH250088   6.434   6.463  13.837
 9558TIP3    H150089   6.419   6.454  13.741
 9558TIP3    H250090   6.532   6.468  13.844
 9559TIP3   OH250091   6.760   6.680  15.584
 9559TIP3    H150092   6.854   6.676  15.566
 9559TIP3    H250093   6.745   6.602  15.639
 9560TIP3   OH250094   6.295   6.160  15.350
 9560TIP3    H150095   6.306   6.088  15.285
 9560TIP3    H250096   6.290   6.241  15.295
 9561TIP3   OH250097   6.335   5.997  15.109
 9561TIP3    H150098   6.385   6.044  15.038
 9561TIP3    H250099   6.245   5.990  15.069
 9562TIP3   OH250100   6.488   6.546  15.132
 9562TIP3    H150101   6.564   6.529  15.074
 9562TIP3    H250102   6.452   6.629  15.098
 9563TIP3   OH250103   6.932   6.323  15.630
 9563TIP3    H150104   6.955   6.230  15.616
 9563TIP3    H250105   7.019   6.365  15.625
 9564TIP3   OH250106   7.064   6.606  15.445
 9564TIP3    H150107   7.035   6.674  15.380
 9564TIP3    H250108   7.157   6.595  15.423
 9565TIP3   OH250109   6.142   6.283  15.546
 9565TIP3    H150110   6.064   6.228  15.527
 9565TIP3    H250111   6.205   6.248  15.480
 9566TIP3   OH250112   6.413   5.740  15.148
 9566TIP3    H150113   6.395   5.837  15.137
 9566TIP3    H250114   6.338   5.704  15.096
 9567TIP3   OH250115   6.542   6.173  15.509
 9567TIP3    H150116   6.509   6.152  15.598
 9567TIP3    H250117   6.463   6.154  15.453
 9568TIP3   OH250118   6.807   6.090  15.417
 9568TIP3    H150119   6.712   6.093  15.431
 9568TIP3    H250120   6.839   6.026  15.482
 9569TIP3   OH250121   6.978   5.948  15.613
 9569TIP3    H150122   6.961   5.851  15.606
 9569TIP3    H250123   6.939   5.982  15.697
 9570TIP3   OH250124   5.950   6.078  15.520
 9570TIP3    H150125   5.973   6.004  15.461
 9570TIP3    H250126   5.940   6.033  15.606
 9571TIP3   OH250127   6.435   5.680  15.417
 9571TIP3    H150128   6.503   5.610  15.414
 9571TIP3    H250129   6.424   5.695  15.321
 9572TIP3   OH250130   6.469   5.840  15.627
 9572TIP3    H150131   6.454   5.790  15.543
 9572TIP3    H250132   6.412   5.918  15.615
 9573TIP3   OH250133   5.776   6.991  13.889
 9573TIP3    H150134   5.871   7.000  13.912
 9573TIP3    H250135   5.781   6.923  13.818
 9574TIP3   OH250136   7.276   7.147  15.097
 9574TIP3    H150137   7.208   7.191  15.147
 9574TIP3    H250138   7.228   7.110  15.020
 9575TIP3   OH250139   7.188   6.448  14.429
 9575TIP3    H150140   7.214   6.356  14.433
 9575TIP3    H250141   7.200   6.474  14.523
 9576TIP3   OH250142   5.739   6.650  14.826
 9576TIP3    H150143   5.757   6.642  14.729
 9576TIP3    H250144   5.829   6.632  14.861
 9577TIP3   OH250145   7.247   6.043  13.766
 9577TIP3    H150146   7.305   6.001  13.829
 9577TIP3    H250147   7.160   6.002  13.785
 9578TIP3   OH250148   7.202   6.193  14.249
 9578TIP3    H150149   7.231   6.109  14.290
 9578TIP3    H250150   7.287   6.228  14.220
 9579TIP3   OH250151  -0.053   6.171  14.810
 9579TIP3    H150152   0.035   6.206  14.796
 9579TIP3    H250153  -0.075   6.235  14.879
 9580TIP3   OH250154   7.278   6.332  15.114
 9580TIP3    H150155   7.184   6.359  15.122
 9580TIP3    H250156   7.314   6.401  15.054
 9581TIP3   OH250157   5.702   6.179  15.439
 9581TIP3    H150158   5.795   6.159  15.461
 9581TIP3    H250159   5.655   6.098  15.469
 9582TIP3   OH250160   7.182   5.898  14.335
 9582TIP3    H150161   7.275   5.880  14.358
 9582TIP3    H250162   7.185   5.856  14.247
 9583TIP3   OH250163   5.820   6.008  14.725
 9583TIP3    H150164   5.866   5.927  14.753
 9583TIP3    H250165   5.873   6.078  14.765
 9584TIP3   OH250166   5.649   6.309  14.830
 9584TIP3    H150167   5.705   6.284  14.754
 9584TIP3    H250168   5.696   6.390  14.857
 9585TIP3   OH250169   5.685   5.935  14.239
 9585TIP3    H150170   5.591   5.954  14.221
 9585TIP3    H250171   5.728   5.983  14.166
 9586TIP3   OH250172   5.680   5.800  15.065
 9586TIP3    H150173   5.615   5.783  15.136
 9586TIP3    H250174   5.635   5.870  15.013
 9587TIP3   OH250175   5.903   7.131  15.484
 9587TIP3    H150176   5.817   7.134  15.438
 9587TIP3    H250177   5.877   7.107  15.574
 9588TIP3   OH250178   6.197   7.220  15.117
 9588TIP3    H150179   6.154   7.298  15.080
 9588TIP3    H250180   6.284   7.218  15.074
 9589TIP3   OH250181   6.113   7.256  14.647
 9589TIP3    H150182   6.077   7.179  14.694
 9589TIP3    H250183   6.172   7.292  14.716
 9590TIP3   OH250184   6.684   5.894  14.660
 9590TIP3    H150185   6.632   5.825  14.704
 9590TIP3    H250186   6.754   5.842  14.617
 9591TIP3   OH250187   7.211   5.698  14.679
 9591TIP3    H150188   7.269   5.761  14.634
 9591TIP3    H250189   7.122   5.734  14.657
 9592TIP3   OH250190   5.933   5.757  14.457
 9592TIP3    H150191   5.855   5.739  14.401
 9592TIP3    H250192   5.980   5.671  14.449
 9593TIP3   OH250193   5.810   5.732  14.028
 9593TIP3    H150194   5.859   5.797  13.975
 9593TIP3    H250195   5.753   5.790  14.081
 9594TIP3   OH250196   6.383   5.739  14.435
 9594TIP3    H150197   6.477   5.763  14.423
 9594TIP3    H250198   6.379   5.711  14.528
 9595TIP3   OH250199   6.951   5.748  14.598
 9595TIP3    H150200   6.950   5.765  14.502
 9595TIP3    H250201   6.910   5.659  14.608
 9596TIP3   OH250202   7.075   5.745  14.154
 9596TIP3    H150203   7.005   5.812  14.149
 9596TIP3    H250204   7.028   5.666  14.186
 9597TIP3   OH250205   5.993   5.927  13.879
 9597TIP3    H150206   6.046   5.865  13.826
 9597TIP3    H250207   6.059   5.959  13.943
 9598TIP3   OH250208   6.489   5.951  14.122
 9598TIP3    H150209   6.524   5.893  14.192
 9598TIP3    H250210   6.505   6.039  14.163
 9599TIP3   OH250211   5.921   5.810  15.399
 9599TIP3    H150212   5.882   5.731  15.442
 9599TIP3    H250213   6.012   5.806  15.437
 9600TIP3   OH250214   6.123   5.750  15.563
 9600TIP3    H150215   6.211   5.714  15.541
 9600TIP3    H250216   6.084   5.670  15.606
 9601TIP3   OH250217   6.965   5.683  15.583
 9601TIP3    H150218   6.972   5.624  15.660
 9601TIP3    H250219   7.054   5.676  15.541
 9602TIP3   OH250220   7.274  -0.023  15.457
 9602TIP3    H150221   7.208  -0.039  15.389
 9602TIP3    H250222   7.277   0.074  15.461
 9603TIP3   OH250223   1.051   0.788  15.781
 9603TIP3    H150224   1.127   0.796  15.843
 9603TIP3    H250225   1.089   0.723  15.720
 9604TIP3   OH250226   1.272   0.859  15.926
 9604TIP3    H150227   1.317   0.886  16.009
 9604TIP3    H250228   1.312   0.920  15.861
 9605TIP3   OH250229   1.651   0.058  15.918
 9605TIP3    H150230   1.564   0.080  15.954
 9605TIP3    H250231   1.683   0.143  15.884
 9606TIP3   OH250232   1.769   1.489  15.756
 9606TIP3    H150233   1.782   1.581  15.784
 9606TIP3    H250234   1.861   1.459  15.763
 9607TIP3   OH250235   1.310   1.764  15.830
 9607TIP3    H150236   1.353   1.690  15.782
 9607TIP3    H250237   1.320   1.735  15.922
 9608TIP3   OH250238   1.432   0.981  15.716
 9608TIP3    H150239   1.425   0.960  15.620
 9608TIP3    H250240   1.517   1.027  15.717
 9609TIP3   OH250241   0.986   0.370  15.767
 9609TIP3    H150242   0.960   0.371  15.859
 9609TIP3    H250243   0.956   0.281  15.739
 9610TIP3   OH250244   0.669   0.416  15.682
 9610TIP3    H150245   0.622   0.371  15.755
 9610TIP3    H250246   0.598   0.452  15.629
 9611TIP3   OH250247   0.116   0.456  15.923
 9611TIP3    H150248   0.178   0.515  15.874
 9611TIP3    H250249   0.049   0.513  15.958
 9612TIP3   OH250250   0.537   0.685  15.823
 9612TIP3    H150251   0.483   0.651  15.750
 9612TIP3    H250252   0.619   0.710  15.778
 9613TIP3   OH250253   1.258   0.434  15.836
 9613TIP3    H150254   1.162   0.444  15.822
 9613TIP3    H250255   1.291   0.517  15.871
 9614TIP3   OH250256   1.082   1.287  15.919
 9614TIP3    H150257   1.046   1.372  15.949
 9614TIP3    H250258   1.011   1.226  15.940
 9615TIP3   OH250259   1.832   0.667  15.993
 9615TIP3    H150260   1.787   0.612  15.925
 9615TIP3    H250261   1.843   0.745  15.935
 9616TIP3   OH250262   0.193   0.914  15.787
 9616TIP3    H150263   0.257   0.973  15.836
 9616TIP3    H250264   0.109   0.947  15.819
 9617TIP3   OH250265   1.395   1.311  15.794
 9617TIP3    H150266   1.423   1.281  15.882
 9617TIP3    H250267   1.299   1.304  15.807
 9618TIP3   OH250268   1.835   1.755  15.819
 9618TIP3    H150269   1.911   1.816  15.813
 9618TIP3    H250270   1.768   1.816  15.855
 9619TIP3   OH250271   0.803   1.427  15.644
 9619TIP3    H150272   0.816   1.349  15.588
 9619TIP3    H250273   0.764   1.386  15.724
 9620TIP3   OH250274   0.684   1.378  15.886
 9620TIP3    H150275   0.701   1.332  15.970
 9620TIP3    H250276   0.696   1.470  15.919
 9621TIP3   OH250277   0.318   1.106  15.923
 9621TIP3    H150278   0.267   1.137  15.998
 9621TIP3    H250279   0.389   1.175  15.916
 9622TIP3   OH250280   0.916   1.515  15.890
 9622TIP3    H150281   0.859   1.576  15.942
 9622TIP3    H250282   0.993   1.574  15.879
 9623TIP3   OH250283   0.702   1.649  15.970
 9623TIP3    H150284   0.708   1.726  15.908
 9623TIP3    H250285   0.677   1.692  16.052
 9624TIP3   OH250286   0.554   0.301  15.899
 9624TIP3    H150287   0.530   0.385  15.943
 9624TIP3    H250288   0.645   0.295  15.931
 9625TIP3   OH250289   0.388   1.372  15.825
 9625TIP3    H150290   0.455   1.435  15.857
 9625TIP3    H250291   0.445   1.323  15.763
 9626TIP3   OH250292   0.223   0.636  15.738
 9626TIP3    H150293   0.221   0.728  15.768
 9626TIP3    H250294   0.133   0.612  15.713
 9627TIP3   OH250295   1.006   1.614  15.657
 9627TIP3    H150296   0.937   1.549  15.683
 9627TIP3    H250297   1.077   1.554  15.630
 9628TIP3   OH250298   1.461   1.589  15.673
 9628TIP3    H150299   1.490   1.513  15.727
 9628TIP3    H250300   1.540   1.608  15.619
 9629TIP3   OH250301   0.546   1.176  15.657
 9629TIP3    H150302   0.568   1.107  15.721
 9629TIP3    H250303   0.627   1.173  15.601
 9630TIP3   OH250304   1.095   1.291  15.639
 9630TIP3    H150305   1.067   1.299  15.732
 9630TIP3    H250306   1.073   1.196  15.621
 9631TIP3   OH250307   0.666   0.981  15.889
 9631TIP3    H150308   0.624   0.929  15.960
 9631TIP3    H250309   0.704   0.912  15.831
 9632TIP3   OH250310   0.777   0.801  15.722
 9632TIP3    H150311   0.766   0.794  15.626
 9632TIP3    H250312   0.875   0.810  15.732
 9633TIP3   OH250313   1.713   1.044  15.669
 9633TIP3    H150314   1.693   1.001  15.583
 9633TIP3    H250315   1.721   1.139  15.644
 9634TIP3   OH250316   0.763   1.878  15.835
 9634TIP3    H150317   0.861   1.881  15.840
 9634TIP3    H250318   0.750   1.931  15.755
 9635TIP3   OH250319   0.120   1.338  15.776
 9635TIP3    H150320   0.215   1.347  15.797
 9635TIP3    H250321   0.124   1.269  15.708
 9636TIP3   OH250322   1.839   0.914  15.873
 9636TIP3    H150323   1.784   0.952  15.801
 9636TIP3    H250324   1.831   0.977  15.948
 9637TIP3   OH250325   1.611   0.666  15.726
 9637TIP3    H150326   1.676   0.711  15.671
 9637TIP3    H250327   1.649   0.576  15.707
 9638TIP3   OH250328   1.588   0.383  15.649
 9638TIP3    H150329   1.653   0.352  15.714
 9638TIP3    H250330   1.504   0.345  15.676
 9639TIP3   OH250331   1.801   0.254  15.822
 9639TIP3    H150332   1.842   0.195  15.755
 9639TIP3    H250333   1.853   0.337  15.810
 9640TIP3   OH250334   0.152   0.079  15.909
 9640TIP3    H150335   0.203   0.146  15.863
 9640TIP3    H250336   0.097   0.134  15.965
 9641TIP3   OH250337   0.334   0.269  15.758
 9641TIP3    H150338   0.389   0.206  15.708
 9641TIP3    H250339   0.397   0.299  15.826
 9642TIP3   OH250340   1.029   1.808  15.840
 9642TIP3    H150341   1.123   1.826  15.826
 9642TIP3    H250342   1.012   1.748  15.765
 9643TIP3   OH250343   0.328   1.776  15.711
 9643TIP3    H150344   0.296   1.789  15.802
 9643TIP3    H250345   0.404   1.715  15.726
 9644TIP3   OH250346   2.938   0.790  15.780
 9644TIP3    H150347   3.013   0.794  15.844
 9644TIP3    H250348   2.974   0.723  15.720
 9645TIP3   OH250349   3.162   0.856  15.925
 9645TIP3    H150350   3.203   0.886  16.009
 9645TIP3    H250351   3.196   0.921  15.862
 9646TIP3   OH250352   3.543   0.062  15.917
 9646TIP3    H150353   3.454   0.076  15.955
 9646TIP3    H250354   3.565   0.148  15.882
 9647TIP3   OH250355   3.654   1.489  15.756
 9647TIP3    H150356   3.667   1.581  15.784
 9647TIP3    H250357   3.747   1.459  15.763
 9648TIP3   OH250358   3.196   1.763  15.830
 9648TIP3    H150359   3.239   1.690  15.781
 9648TIP3    H250360   3.207   1.733  15.921
 9649TIP3   OH250361   3.318   0.980  15.716
 9649TIP3    H150362   3.311   0.960  15.619
 9649TIP3    H250363   3.403   1.028  15.717
 9650TIP3   OH250364   2.872   0.369  15.767
 9650TIP3    H150365   2.846   0.371  15.859
 9650TIP3    H250366   2.842   0.280  15.739
 9651TIP3   OH250367   2.557   0.414  15.682
 9651TIP3    H150368   2.508   0.369  15.754
 9651TIP3    H250369   2.486   0.454  15.630
 9652TIP3   OH250370   2.038   0.449  15.955
 9652TIP3    H150371   2.066   0.501  15.878
 9652TIP3    H250372   1.951   0.488  15.964
 9653TIP3   OH250373   2.425   0.687  15.826
 9653TIP3    H150374   2.366   0.652  15.755
 9653TIP3    H250375   2.504   0.709  15.774
 9654TIP3   OH250376   3.143   0.434  15.835
 9654TIP3    H150377   3.047   0.444  15.822
 9654TIP3    H250378   3.175   0.517  15.872
 9655TIP3   OH250379   2.966   1.288  15.916
 9655TIP3    H150380   2.933   1.373  15.950
 9655TIP3    H250381   2.900   1.226  15.945
 9656TIP3   OH250382   3.723   0.636  15.960
 9656TIP3    H150383   3.659   0.602  15.892
 9656TIP3    H250384   3.720   0.731  15.936
 9657TIP3   OH250385   2.086   0.920  15.782
 9657TIP3    H150386   2.143   0.975  15.840
 9657TIP3    H250387   1.996   0.941  15.814
 9658TIP3   OH250388   3.281   1.311  15.794
 9658TIP3    H150389   3.308   1.281  15.882
 9658TIP3    H250390   3.185   1.305  15.807
 9659TIP3   OH250391   3.720   1.756  15.819
 9659TIP3    H150392   3.797   1.816  15.813
 9659TIP3    H250393   3.653   1.817  15.855
 9660TIP3   OH250394   2.689   1.426  15.643
 9660TIP3    H150395   2.702   1.350  15.586
 9660TIP3    H250396   2.650   1.390  15.724
 9661TIP3   OH250397   2.569   1.386  15.894
 9661TIP3    H150398   2.588   1.349  15.982
 9661TIP3    H250399   2.580   1.481  15.920
 9662TIP3   OH250400   2.207   1.109  15.925
 9662TIP3    H150401   2.151   1.136  15.999
 9662TIP3    H250402   2.272   1.181  15.917
 9663TIP3   OH250403   2.802   1.515  15.891
 9663TIP3    H150404   2.746   1.577  15.942
 9663TIP3    H250405   2.879   1.574  15.878
 9664TIP3   OH250406   2.587   1.650  15.969
 9664TIP3    H150407   2.593   1.728  15.908
 9664TIP3    H250408   2.562   1.693  16.052
 9665TIP3   OH250409   2.439   0.302  15.898
 9665TIP3    H150410   2.416   0.385  15.942
 9665TIP3    H250411   2.530   0.295  15.931
 9666TIP3   OH250412   2.280   1.366  15.828
 9666TIP3    H150413   2.341   1.437  15.855
 9666TIP3    H250414   2.330   1.325  15.756
 9667TIP3   OH250415   2.125   0.642  15.736
 9667TIP3    H150416   2.111   0.733  15.766
 9667TIP3    H250417   2.033   0.610  15.721
 9668TIP3   OH250418   2.892   1.614  15.658
 9668TIP3    H150419   2.823   1.548  15.682
 9668TIP3    H250420   2.963   1.555  15.630
 9669TIP3   OH250421   3.347   1.589  15.673
 9669TIP3    H150422   3.376   1.514  15.727
 9669TIP3    H250423   3.425   1.609  15.619
 9670TIP3   OH250424   2.447   1.184  15.673
 9670TIP3    H150425   2.438   1.094  15.707
 9670TIP3    H250426   2.504   1.170  15.593
 9671TIP3   OH250427   2.976   1.292  15.638
 9671TIP3    H150428   2.958   1.299  15.733
 9671TIP3    H250429   2.961   1.195  15.621
 9672TIP3   OH250430   2.550   0.978  15.892
 9672TIP3    H150431   2.509   0.924  15.962
 9672TIP3    H250432   2.582   0.906  15.831
 9673TIP3   OH250433   2.664   0.807  15.723
 9673TIP3    H150434   2.649   0.793  15.627
 9673TIP3    H250435   2.762   0.808  15.730
 9674TIP3   OH250436   3.598   1.042  15.669
 9674TIP3    H150437   3.579   1.002  15.582
 9674TIP3    H250438   3.606   1.138  15.645
 9675TIP3   OH250439   2.649   1.876  15.834
 9675TIP3    H150440   2.746   1.881  15.836
 9675TIP3    H250441   2.633   1.933  15.757
 9676TIP3   OH250442   2.000   1.333  15.775
 9676TIP3    H150443   2.095   1.344  15.796
 9676TIP3    H250444   2.008   1.268  15.703
 9677TIP3   OH250445   3.721   0.909  15.875
 9677TIP3    H150446   3.671   0.952  15.802
 9677TIP3    H250447   3.718   0.976  15.947
 9678TIP3   OH250448   3.555   0.645  15.739
 9678TIP3    H150449   3.560   0.709  15.667
 9678TIP3    H250450   3.534   0.562  15.691
 9679TIP3   OH250451   3.476   0.391  15.655
 9679TIP3    H150452   3.538   0.346  15.715
 9679TIP3    H250453   3.392   0.346  15.674
 9680TIP3   OH250454   3.683   0.276  15.808
 9680TIP3    H150455   3.725   0.201  15.760
 9680TIP3    H250456   3.756   0.339  15.818
 9681TIP3   OH250457   2.040   0.075  15.914
 9681TIP3    H150458   2.084   0.143  15.860
 9681TIP3    H250459   1.982   0.132  15.964
 9682TIP3   OH250460   2.218   0.267  15.758
 9682TIP3    H150461   2.276   0.207  15.707
 9682TIP3    H250462   2.280   0.300  15.826
 9683TIP3   OH250463   2.915   1.810  15.841
 9683TIP3    H150464   3.010   1.825  15.825
 9683TIP3    H250465   2.897   1.749  15.767
 9684TIP3   OH250466   2.214   1.773  15.709
 9684TIP3    H150467   2.185   1.793  15.800
 9684TIP3    H250468   2.290   1.713  15.725
 9685TIP3   OH250469   4.824   0.788  15.780
 9685TIP3    H150470   4.899   0.795  15.843
 9685TIP3    H250471   4.861   0.722  15.720
 9686TIP3   OH250472   5.047   0.856  15.925
 9686TIP3    H150473   5.089   0.886  16.009
 9686TIP3    H250474   5.082   0.921  15.862
 9687TIP3   OH250475   5.427   0.061  15.918
 9687TIP3    H150476   5.338   0.078  15.954
 9687TIP3    H250477   5.449   0.147  15.882
 9688TIP3   OH250478   5.540   1.489  15.756
 9688TIP3    H150479   5.553   1.581  15.784
 9688TIP3    H250480   5.632   1.459  15.763
 9689TIP3   OH250481   5.081   1.764  15.830
 9689TIP3    H150482   5.124   1.690  15.782
 9689TIP3    H250483   5.091   1.735  15.922
 9690TIP3   OH250484   5.204   0.980  15.716
 9690TIP3    H150485   5.196   0.961  15.620
 9690TIP3    H250486   5.288   1.028  15.717
 9691TIP3   OH250487   4.755   0.371  15.764
 9691TIP3    H150488   4.732   0.372  15.857
 9691TIP3    H250489   4.728   0.280  15.739
 9692TIP3   OH250490   4.440   0.414  15.682
 9692TIP3    H150491   4.393   0.371  15.756
 9692TIP3    H250492   4.368   0.455  15.633
 9693TIP3   OH250493   3.890   0.446  15.918
 9693TIP3    H150494   3.949   0.511  15.874
 9693TIP3    H250495   3.827   0.508  15.957
 9694TIP3   OH250496   4.310   0.681  15.825
 9694TIP3    H150497   4.254   0.653  15.751
 9694TIP3    H250498   4.388   0.711  15.776
 9695TIP3   OH250499   5.029   0.435  15.834
 9695TIP3    H150500   4.933   0.444  15.822
 9695TIP3    H250501   5.060   0.517  15.872
 9696TIP3   OH250502   4.853   1.288  15.919
 9696TIP3    H150503   4.817   1.372  15.949
 9696TIP3    H250504   4.782   1.226  15.940
 9697TIP3   OH250505   5.609   0.635  15.959
 9697TIP3    H150506   5.543   0.603  15.893
 9697TIP3    H250507   5.606   0.730  15.936
 9698TIP3   OH250508   3.969   0.914  15.786
 9698TIP3    H150509   4.028   0.974  15.836
 9698TIP3    H250510   3.881   0.943  15.815
 9699TIP3   OH250511   5.166   1.311  15.794
 9699TIP3    H150512   5.194   1.281  15.882
 9699TIP3    H250513   5.070   1.304  15.807
 9700TIP3   OH250514   5.606   1.756  15.819
 9700TIP3    H150515   5.682   1.816  15.813
 9700TIP3    H250516   5.539   1.817  15.855
 9701TIP3   OH250517   4.574   1.427  15.644
 9701TIP3    H150518   4.587   1.349  15.588
 9701TIP3    H250519   4.535   1.386  15.724
 9702TIP3   OH250520   4.456   1.378  15.886
 9702TIP3    H150521   4.474   1.332  15.970
 9702TIP3    H250522   4.467   1.470  15.919
 9703TIP3   OH250523   4.089   1.109  15.925
 9703TIP3    H150524   4.038   1.138  16.001
 9703TIP3    H250525   4.161   1.175  15.916
 9704TIP3   OH250526   4.688   1.515  15.891
 9704TIP3    H150527   4.630   1.576  15.942
 9704TIP3    H250528   4.764   1.574  15.879
 9705TIP3   OH250529   4.474   1.650  15.970
 9705TIP3    H150530   4.479   1.727  15.908
 9705TIP3    H250531   4.448   1.693  16.052
 9706TIP3   OH250532   4.325   0.301  15.899
 9706TIP3    H150533   4.302   0.385  15.942
 9706TIP3    H250534   4.416   0.295  15.931
 9707TIP3   OH250535   4.164   1.369  15.826
 9707TIP3    H150536   4.230   1.432  15.857
 9707TIP3    H250537   4.218   1.320  15.761
 9708TIP3   OH250538   3.997   0.637  15.742
 9708TIP3    H150539   3.995   0.731  15.766
 9708TIP3    H250540   3.908   0.615  15.715
 9709TIP3   OH250541   4.777   1.614  15.657
 9709TIP3    H150542   4.708   1.549  15.683
 9709TIP3    H250543   4.848   1.554  15.630
 9710TIP3   OH250544   5.232   1.589  15.673
 9710TIP3    H150545   5.261   1.514  15.727
 9710TIP3    H250546   5.311   1.609  15.619
 9711TIP3   OH250547   4.320   1.180  15.661
 9711TIP3    H150548   4.337   1.105  15.720
 9711TIP3    H250549   4.396   1.171  15.599
 9712TIP3   OH250550   4.866   1.291  15.639
 9712TIP3    H150551   4.838   1.299  15.732
 9712TIP3    H250552   4.844   1.196  15.621
 9713TIP3   OH250553   4.440   0.980  15.891
 9713TIP3    H150554   4.395   0.928  15.960
 9713TIP3    H250555   4.470   0.911  15.829
 9714TIP3   OH250556   4.550   0.798  15.722
 9714TIP3    H150557   4.535   0.798  15.626
 9714TIP3    H250558   4.647   0.810  15.730
 9715TIP3   OH250559   5.484   1.042  15.669
 9715TIP3    H150560   5.465   1.003  15.582
 9715TIP3    H250561   5.492   1.138  15.645
 9716TIP3   OH250562   4.535   1.876  15.835
 9716TIP3    H150563   4.633   1.883  15.838
 9716TIP3    H250564   4.518   1.933  15.757
 9717TIP3   OH250565   3.887   1.332  15.776
 9717TIP3    H150566   3.983   1.344  15.795
 9717TIP3    H250567   3.893   1.267  15.703
 9718TIP3   OH250568   5.606   0.909  15.875
 9718TIP3    H150569   5.556   0.952  15.802
 9718TIP3    H250570   5.603   0.976  15.947
 9719TIP3   OH250571   5.442   0.644  15.739
 9719TIP3    H150572   5.445   0.709  15.668
 9719TIP3    H250573   5.417   0.563  15.690
 9720TIP3   OH250574   5.362   0.388  15.654
 9720TIP3    H150575   5.421   0.346  15.720
 9720TIP3    H250576   5.276   0.348  15.673
 9721TIP3   OH250577   5.569   0.279  15.801
 9721TIP3    H150578   5.612   0.197  15.768
 9721TIP3    H250579   5.642   0.340  15.823
 9722TIP3   OH250580   3.925   0.074  15.910
 9722TIP3    H150581   3.971   0.143  15.862
 9722TIP3    H250582   3.870   0.129  15.965
 9723TIP3   OH250583   4.105   0.268  15.757
 9723TIP3    H150584   4.163   0.208  15.707
 9723TIP3    H250585   4.166   0.299  15.827
 9724TIP3   OH250586   4.800   1.808  15.840
 9724TIP3    H150587   4.895   1.826  15.826
 9724TIP3    H250588   4.783   1.748  15.765
 9725TIP3   OH250589   4.100   1.773  15.709
 9725TIP3    H150590   4.071   1.793  15.800
 9725TIP3    H250591   4.175   1.713  15.725
 9726TIP3   OH250592   6.709   0.788  15.780
 9726TIP3    H150593   6.785   0.796  15.843
 9726TIP3    H250594   6.746   0.722  15.720
 9727TIP3   OH250595   6.929   0.856  15.929
 9727TIP3    H150596   6.974   0.887  16.010
 9727TIP3    H250597   6.964   0.919  15.864
 9728TIP3   OH250598   6.965   1.764  15.827
 9728TIP3    H150599   7.010   1.690  15.781
 9728TIP3    H250600   6.974   1.737  15.919
 9729TIP3   OH250601   7.090   0.978  15.717
 9729TIP3    H150602   7.083   0.958  15.621
 9729TIP3    H250603   7.170   1.030  15.718
 9730TIP3   OH250604   6.644   0.369  15.767
 9730TIP3    H150605   6.616   0.372  15.859
 9730TIP3    H250606   6.613   0.282  15.739
 9731TIP3   OH250607   6.328   0.414  15.682
 9731TIP3    H150608   6.280   0.372  15.756
 9731TIP3    H250609   6.258   0.456  15.630
 9732TIP3   OH250610   5.775   0.444  15.913
 9732TIP3    H150611   5.836   0.511  15.875
 9732TIP3    H250612   5.714   0.507  15.957
 9733TIP3   OH250613   6.196   0.682  15.826
 9733TIP3    H150614   6.140   0.654  15.752
 9733TIP3    H250615   6.274   0.711  15.777
 9734TIP3   OH250616   6.917   0.434  15.834
 9734TIP3    H150617   6.820   0.440  15.820
 9734TIP3    H250618   6.941   0.518  15.872
 9735TIP3   OH250619   6.738   1.288  15.920
 9735TIP3    H150620   6.703   1.373  15.949
 9735TIP3    H250621   6.667   1.226  15.941
 9736TIP3   OH250622   5.854   0.914  15.786
 9736TIP3    H150623   5.914   0.974  15.836
 9736TIP3    H250624   5.766   0.944  15.814
 9737TIP3   OH250625   7.048   1.312  15.795
 9737TIP3    H150626   7.078   1.282  15.881
 9737TIP3    H250627   6.953   1.303  15.807
 9738TIP3   OH250628   6.460   1.427  15.644
 9738TIP3    H150629   6.472   1.349  15.588
 9738TIP3    H250630   6.421   1.386  15.724
 9739TIP3   OH250631   6.342   1.378  15.886
 9739TIP3    H150632   6.360   1.332  15.970
 9739TIP3    H250633   6.353   1.470  15.919
 9740TIP3   OH250634   5.975   1.109  15.925
 9740TIP3    H150635   5.924   1.138  16.001
 9740TIP3    H250636   6.047   1.175  15.916
 9741TIP3   OH250637   6.573   1.515  15.890
 9741TIP3    H150638   6.516   1.576  15.942
 9741TIP3    H250639   6.649   1.574  15.879
 9742TIP3   OH250640   6.359   1.650  15.969
 9742TIP3    H150641   6.365   1.727  15.908
 9742TIP3    H250642   6.334   1.693  16.052
 9743TIP3   OH250643   6.208   0.302  15.898
 9743TIP3    H150644   6.187   0.386  15.942
 9743TIP3    H250645   6.300   0.295  15.930
 9744TIP3   OH250646   6.049   1.369  15.826
 9744TIP3    H150647   6.116   1.432  15.857
 9744TIP3    H250648   6.103   1.320  15.760
 9745TIP3   OH250649   5.882   0.636  15.743
 9745TIP3    H150650   5.882   0.731  15.767
 9745TIP3    H250651   5.792   0.619  15.715
 9746TIP3   OH250652   6.664   1.614  15.657
 9746TIP3    H150653   6.594   1.549  15.683
 9746TIP3    H250654   6.735   1.553  15.631
 9747TIP3   OH250655   7.116   1.590  15.678
 9747TIP3    H150656   7.146   1.513  15.729
 9747TIP3    H250657   7.192   1.607  15.619
 9748TIP3   OH250658   6.206   1.180  15.661
 9748TIP3    H150659   6.223   1.105  15.720
 9748TIP3    H250660   6.281   1.171  15.599
 9749TIP3   OH250661   6.751   1.291  15.639
 9749TIP3    H150662   6.723   1.299  15.732
 9749TIP3    H250663   6.729   1.196  15.621
 9750TIP3   OH250664   6.325   0.980  15.892
 9750TIP3    H150665   6.281   0.928  15.960
 9750TIP3    H250666   6.356   0.912  15.829
 9751TIP3   OH250667   6.435   0.801  15.723
 9751TIP3    H150668   6.422   0.795  15.626
 9751TIP3    H250669   6.533   0.810  15.730
 9752TIP3   OH250670   6.421   1.876  15.834
 9752TIP3    H150671   6.519   1.883  15.838
 9752TIP3    H250672   6.404   1.933  15.757
 9753TIP3   OH250673   5.772   1.332  15.776
 9753TIP3    H150674   5.868   1.344  15.795
 9753TIP3    H250675   5.779   1.267  15.703
 9754TIP3   OH250676   7.245   0.386  15.653
 9754TIP3    H150677   7.306   0.352  15.719
 9754TIP3    H250678   7.159   0.344  15.674
 9755TIP3   OH250679   5.808   0.076  15.906
 9755TIP3    H150680   5.861   0.145  15.866
 9755TIP3    H250681   5.756   0.130  15.967
 9756TIP3   OH250682   5.989   0.268  15.753
 9756TIP3    H150683   6.051   0.206  15.709
 9756TIP3    H250684   6.048   0.299  15.825
 9757TIP3   OH250685   6.685   1.808  15.840
 9757TIP3    H150686   6.779   1.825  15.825
 9757TIP3    H250687   6.668   1.747  15.764
 9758TIP3   OH250688   5.985   1.773  15.709
 9758TIP3    H150689   5.956   1.793  15.800
 9758TIP3    H250690   6.061   1.713  15.725
 9759TIP3   OH250691   1.052   2.674  15.780
 9759TIP3    H150692   1.127   2.681  15.844
 9759TIP3    H250693   1.090   2.607  15.720
 9760TIP3   OH250694   1.276   2.742  15.925
 9760TIP3    H150695   1.317   2.772  16.009
 9760TIP3    H250696   1.311   2.807  15.861
 9761TIP3   OH250697   1.655   1.939  15.930
 9761TIP3    H150698   1.562   1.948  15.953
 9761TIP3    H250699   1.676   2.022  15.884
 9762TIP3   OH250700   1.769   3.374  15.756
 9762TIP3    H150701   1.782   3.466  15.784
 9762TIP3    H250702   1.861   3.344  15.763
 9763TIP3   OH250703   1.310   3.650  15.830
 9763TIP3    H150704   1.353   3.576  15.782
 9763TIP3    H250705   1.320   3.621  15.922
 9764TIP3   OH250706   1.433   2.866  15.716
 9764TIP3    H150707   1.425   2.846  15.619
 9764TIP3    H250708   1.517   2.913  15.717
 9765TIP3   OH250709   0.982   2.255  15.766
 9765TIP3    H150710   0.963   2.257  15.860
 9765TIP3    H250711   0.960   2.164  15.741
 9766TIP3   OH250712   0.681   2.303  15.684
 9766TIP3    H150713   0.640   2.269  15.767
 9766TIP3    H250714   0.617   2.360  15.638
 9767TIP3   OH250715   0.122   2.339  15.921
 9767TIP3    H150716   0.177   2.403  15.870
 9767TIP3    H250717   0.050   2.393  15.955
 9768TIP3   OH250718   0.541   2.562  15.825
 9768TIP3    H150719   0.482   2.544  15.750
 9768TIP3    H250720   0.617   2.600  15.778
 9769TIP3   OH250721   1.260   2.317  15.835
 9769TIP3    H150722   1.164   2.327  15.823
 9769TIP3    H250723   1.290   2.401  15.871
 9770TIP3   OH250724   1.082   3.173  15.919
 9770TIP3    H150725   1.046   3.258  15.949
 9770TIP3    H250726   1.011   3.112  15.940
 9771TIP3   OH250727   1.837   2.521  15.959
 9771TIP3    H150728   1.774   2.487  15.892
 9771TIP3    H250729   1.835   2.616  15.936
 9772TIP3   OH250730   0.193   2.798  15.790
 9772TIP3    H150731   0.257   2.858  15.835
 9772TIP3    H250732   0.108   2.834  15.818
 9773TIP3   OH250733   1.395   3.197  15.794
 9773TIP3    H150734   1.423   3.167  15.882
 9773TIP3    H250735   1.299   3.190  15.807
 9774TIP3   OH250736   1.834   3.641  15.818
 9774TIP3    H150737   1.911   3.700  15.814
 9774TIP3    H250738   1.768   3.702  15.855
 9775TIP3   OH250739   0.803   3.313  15.644
 9775TIP3    H150740   0.815   3.235  15.588
 9775TIP3    H250741   0.764   3.272  15.724
 9776TIP3   OH250742   0.684   3.264  15.886
 9776TIP3    H150743   0.701   3.218  15.970
 9776TIP3    H250744   0.696   3.355  15.919
 9777TIP3   OH250745   0.318   2.992  15.925
 9777TIP3    H150746   0.267   3.024  16.000
 9777TIP3    H250747   0.388   3.060  15.916
 9778TIP3   OH250748   0.916   3.401  15.891
 9778TIP3    H150749   0.859   3.461  15.942
 9778TIP3    H250750   0.992   3.460  15.879
 9779TIP3   OH250751   0.702   3.535  15.970
 9779TIP3    H150752   0.708   3.612  15.908
 9779TIP3    H250753   0.677   3.578  16.052
 9780TIP3   OH250754   0.555   2.193  15.894
 9780TIP3    H150755   0.533   2.272  15.946
 9780TIP3    H250756   0.643   2.177  15.933
 9781TIP3   OH250757   0.388   3.257  15.825
 9781TIP3    H150758   0.456   3.320  15.856
 9781TIP3    H250759   0.445   3.207  15.762
 9782TIP3   OH250760   0.224   2.519  15.739
 9782TIP3    H150761   0.223   2.614  15.763
 9782TIP3    H250762   0.133   2.500  15.711
 9783TIP3   OH250763   1.006   3.500  15.657
 9783TIP3    H150764   0.937   3.434  15.683
 9783TIP3    H250765   1.077   3.439  15.631
 9784TIP3   OH250766   1.461   3.474  15.673
 9784TIP3    H150767   1.490   3.399  15.727
 9784TIP3    H250768   1.540   3.494  15.619
 9785TIP3   OH250769   0.549   3.066  15.661
 9785TIP3    H150770   0.566   2.991  15.719
 9785TIP3    H250771   0.624   3.057  15.599
 9786TIP3   OH250772   1.095   3.176  15.639
 9786TIP3    H150773   1.067   3.185  15.732
 9786TIP3    H250774   1.073   3.082  15.621
 9787TIP3   OH250775   0.669   2.866  15.891
 9787TIP3    H150776   0.624   2.815  15.960
 9787TIP3    H250777   0.700   2.798  15.829
 9788TIP3   OH250778   0.777   2.682  15.723
 9788TIP3    H150779   0.764   2.681  15.626
 9788TIP3    H250780   0.874   2.695  15.731
 9789TIP3   OH250781   1.712   2.928  15.669
 9789TIP3    H150782   1.694   2.888  15.582
 9789TIP3    H250783   1.721   3.023  15.645
 9790TIP3   OH250784   0.764   3.762  15.835
 9790TIP3    H150785   0.861   3.768  15.838
 9790TIP3    H250786   0.747   3.818  15.757
 9791TIP3   OH250787   0.119   3.221  15.776
 9791TIP3    H150788   0.214   3.233  15.797
 9791TIP3    H250789   0.125   3.153  15.708
 9792TIP3   OH250790   1.835   2.795  15.875
 9792TIP3    H150791   1.785   2.838  15.802
 9792TIP3    H250792   1.832   2.862  15.947
 9793TIP3   OH250793   1.669   2.530  15.739
 9793TIP3    H150794   1.674   2.594  15.667
 9793TIP3    H250795   1.648   2.447  15.691
 9794TIP3   OH250796   1.591   2.275  15.655
 9794TIP3    H150797   1.652   2.230  15.716
 9794TIP3    H250798   1.506   2.233  15.674
 9795TIP3   OH250799   1.796   2.161  15.809
 9795TIP3    H150800   1.840   2.087  15.761
 9795TIP3    H250801   1.868   2.225  15.819
 9796TIP3   OH250802   0.154   1.968  15.911
 9796TIP3    H150803   0.204   2.034  15.862
 9796TIP3    H250804   0.093   2.020  15.963
 9797TIP3   OH250805   0.328   2.155  15.767
 9797TIP3    H150806   0.370   2.078  15.725
 9797TIP3    H250807   0.391   2.179  15.838
 9798TIP3   OH250808   1.029   3.694  15.840
 9798TIP3    H150809   1.123   3.711  15.826
 9798TIP3    H250810   1.012   3.634  15.765
 9799TIP3   OH250811   0.324   3.656  15.711
 9799TIP3    H150812   0.297   3.678  15.802
 9799TIP3    H250813   0.405   3.602  15.726
 9800TIP3   OH250814   2.938   2.672  15.781
 9800TIP3    H150815   3.014   2.681  15.844
 9800TIP3    H250816   2.975   2.607  15.720
 9801TIP3   OH250817   3.162   2.742  15.926
 9801TIP3    H150818   3.203   2.772  16.009
 9801TIP3    H250819   3.196   2.807  15.862
 9802TIP3   OH250820   3.541   1.940  15.930
 9802TIP3    H150821   3.447   1.947  15.952
 9802TIP3    H250822   3.560   2.023  15.883
 9803TIP3   OH250823   3.654   3.374  15.756
 9803TIP3    H150824   3.666   3.467  15.783
 9803TIP3    H250825   3.746   3.345  15.763
 9804TIP3   OH250826   3.196   3.651  15.831
 9804TIP3    H150827   3.238   3.578  15.780
 9804TIP3    H250828   3.205   3.621  15.923
 9805TIP3   OH250829   3.319   2.866  15.716
 9805TIP3    H150830   3.311   2.848  15.619
 9805TIP3    H250831   3.403   2.913  15.717
 9806TIP3   OH250832   2.874   2.254  15.766
 9806TIP3    H150833   2.844   2.258  15.858
 9806TIP3    H250834   2.841   2.166  15.738
 9807TIP3   OH250835   2.557   2.297  15.684
 9807TIP3    H150836   2.508   2.255  15.758
 9807TIP3    H250837   2.486   2.340  15.633
 9808TIP3   OH250838   2.005   2.328  15.917
 9808TIP3    H150839   2.063   2.395  15.875
 9808TIP3    H250840   1.942   2.391  15.957
 9809TIP3   OH250841   2.424   2.568  15.825
 9809TIP3    H150842   2.368   2.538  15.751
 9809TIP3    H250843   2.503   2.595  15.778
 9810TIP3   OH250844   3.141   2.315  15.842
 9810TIP3    H150845   3.048   2.328  15.818
 9810TIP3    H250846   3.176   2.401  15.866
 9811TIP3   OH250847   2.968   3.173  15.919
 9811TIP3    H150848   2.932   3.258  15.949
 9811TIP3    H250849   2.897   3.112  15.940
 9812TIP3   OH250850   3.723   2.521  15.959
 9812TIP3    H150851   3.659   2.487  15.893
 9812TIP3    H250852   3.720   2.617  15.936
 9813TIP3   OH250853   2.083   2.800  15.786
 9813TIP3    H150854   2.143   2.860  15.837
 9813TIP3    H250855   1.995   2.829  15.815
 9814TIP3   OH250856   3.281   3.197  15.794
 9814TIP3    H150857   3.308   3.167  15.882
 9814TIP3    H250858   3.184   3.190  15.807
 9815TIP3   OH250859   3.721   3.641  15.820
 9815TIP3    H150860   3.797   3.702  15.813
 9815TIP3    H250861   3.653   3.703  15.854
 9816TIP3   OH250862   2.688   3.313  15.643
 9816TIP3    H150863   2.701   3.235  15.588
 9816TIP3    H250864   2.650   3.272  15.724
 9817TIP3   OH250865   2.571   3.264  15.886
 9817TIP3    H150866   2.589   3.218  15.970
 9817TIP3    H250867   2.582   3.356  15.919
 9818TIP3   OH250868   2.204   2.995  15.925
 9818TIP3    H150869   2.153   3.023  16.001
 9818TIP3    H250870   2.276   3.061  15.916
 9819TIP3   OH250871   2.803   3.402  15.891
 9819TIP3    H150872   2.745   3.461  15.942
 9819TIP3    H250873   2.878   3.462  15.877
 9820TIP3   OH250874   2.588   3.536  15.969
 9820TIP3    H150875   2.594   3.613  15.907
 9820TIP3    H250876   2.563   3.578  16.052
 9821TIP3   OH250877   2.440   2.189  15.900
 9821TIP3    H150878   2.418   2.272  15.944
 9821TIP3    H250879   2.530   2.177  15.934
 9822TIP3   OH250880   2.278   3.255  15.826
 9822TIP3    H150881   2.345   3.317  15.857
 9822TIP3    H250882   2.332   3.206  15.761
 9823TIP3   OH250883   2.111   2.521  15.742
 9823TIP3    H150884   2.109   2.615  15.766
 9823TIP3    H250885   2.022   2.500  15.715
 9824TIP3   OH250886   2.891   3.499  15.657
 9824TIP3    H150887   2.822   3.434  15.683
 9824TIP3    H250888   2.963   3.441  15.630
 9825TIP3   OH250889   3.347   3.474  15.673
 9825TIP3    H150890   3.376   3.399  15.727
 9825TIP3    H250891   3.425   3.494  15.619
 9826TIP3   OH250892   2.435   3.066  15.661
 9826TIP3    H150893   2.451   2.991  15.720
 9826TIP3    H250894   2.510   3.057  15.599
 9827TIP3   OH250895   2.981   3.176  15.639
 9827TIP3    H150896   2.952   3.185  15.732
 9827TIP3    H250897   2.959   3.082  15.621
 9828TIP3   OH250898   2.554   2.866  15.891
 9828TIP3    H150899   2.509   2.814  15.960
 9828TIP3    H250900   2.585   2.797  15.828
 9829TIP3   OH250901   2.664   2.686  15.723
 9829TIP3    H150902   2.650   2.681  15.626
 9829TIP3    H250903   2.761   2.695  15.731
 9830TIP3   OH250904   3.598   2.928  15.669
 9830TIP3    H150905   3.579   2.888  15.582
 9830TIP3    H250906   3.607   3.023  15.645
 9831TIP3   OH250907   2.650   3.760  15.836
 9831TIP3    H150908   2.748   3.768  15.838
 9831TIP3    H250909   2.635   3.820  15.759
 9832TIP3   OH250910   2.001   3.218  15.776
 9832TIP3    H150911   2.097   3.229  15.795
 9832TIP3    H250912   2.007   3.153  15.703
 9833TIP3   OH250913   3.721   2.795  15.875
 9833TIP3    H150914   3.671   2.838  15.802
 9833TIP3    H250915   3.718   2.862  15.947
 9834TIP3   OH250916   3.554   2.530  15.739
 9834TIP3    H150917   3.560   2.594  15.667
 9834TIP3    H250918   3.534   2.447  15.691
 9835TIP3   OH250919   3.477   2.275  15.655
 9835TIP3    H150920   3.538   2.230  15.716
 9835TIP3    H250921   3.392   2.232  15.673
 9836TIP3   OH250922   3.681   2.161  15.809
 9836TIP3    H150923   3.725   2.087  15.761
 9836TIP3    H250924   3.754   2.225  15.819
 9837TIP3   OH250925   2.038   1.966  15.909
 9837TIP3    H150926   2.089   2.030  15.858
 9837TIP3    H250927   1.986   2.024  15.964
 9838TIP3   OH250928   2.223   2.158  15.757
 9838TIP3    H150929   2.275   2.093  15.708
 9838TIP3    H250930   2.285   2.184  15.828
 9839TIP3   OH250931   2.916   3.687  15.845
 9839TIP3    H150932   3.006   3.716  15.823
 9839TIP3    H250933   2.897   3.636  15.763
 9840TIP3   OH250934   2.217   3.660  15.707
 9840TIP3    H150935   2.186   3.680  15.797
 9840TIP3    H250936   2.290   3.598  15.726
 9841TIP3   OH250937   4.824   2.674  15.780
 9841TIP3    H150938   4.899   2.681  15.844
 9841TIP3    H250939   4.861   2.607  15.720
 9842TIP3   OH250940   5.047   2.742  15.925
 9842TIP3    H150941   5.089   2.772  16.009
 9842TIP3    H250942   5.082   2.807  15.861
 9843TIP3   OH250943   5.427   1.939  15.930
 9843TIP3    H150944   5.333   1.948  15.953
 9843TIP3    H250945   5.447   2.022  15.884
 9844TIP3   OH250946   5.540   3.374  15.756
 9844TIP3    H150947   5.553   3.466  15.784
 9844TIP3    H250948   5.632   3.344  15.764
 9845TIP3   OH250949   5.081   3.650  15.830
 9845TIP3    H150950   5.124   3.576  15.782
 9845TIP3    H250951   5.091   3.621  15.922
 9846TIP3   OH250952   5.204   2.866  15.716
 9846TIP3    H150953   5.196   2.846  15.619
 9846TIP3    H250954   5.288   2.913  15.717
 9847TIP3   OH250955   4.756   2.255  15.766
 9847TIP3    H150956   4.731   2.258  15.859
 9847TIP3    H250957   4.728   2.166  15.740
 9848TIP3   OH250958   4.442   2.297  15.683
 9848TIP3    H150959   4.393   2.255  15.757
 9848TIP3    H250960   4.371   2.340  15.633
 9849TIP3   OH250961   3.890   2.328  15.917
 9849TIP3    H150962   3.949   2.395  15.875
 9849TIP3    H250963   3.828   2.392  15.957
 9850TIP3   OH250964   4.310   2.568  15.826
 9850TIP3    H150965   4.253   2.538  15.751
 9850TIP3    H250966   4.388   2.596  15.777
 9851TIP3   OH250967   5.029   2.317  15.834
 9851TIP3    H150968   4.933   2.327  15.823
 9851TIP3    H250969   5.061   2.400  15.871
 9852TIP3   OH250970   4.853   3.173  15.919
 9852TIP3    H150971   4.817   3.258  15.949
 9852TIP3    H250972   4.782   3.112  15.940
 9853TIP3   OH250973   5.609   2.521  15.959
 9853TIP3    H150974   5.545   2.487  15.892
 9853TIP3    H250975   5.606   2.616  15.936
 9854TIP3   OH250976   3.969   2.801  15.785
 9854TIP3    H150977   4.028   2.861  15.836
 9854TIP3    H250978   3.881   2.829  15.815
 9855TIP3   OH250979   5.166   3.197  15.794
 9855TIP3    H150980   5.194   3.167  15.882
 9855TIP3    H250981   5.070   3.190  15.807
 9856TIP3   OH250982   5.606   3.641  15.819
 9856TIP3    H150983   5.682   3.702  15.813
 9856TIP3    H250984   5.539   3.703  15.854
 9857TIP3   OH250985   4.577   3.312  15.646
 9857TIP3    H150986   4.586   3.236  15.588
 9857TIP3    H250987   4.535   3.271  15.725
 9858TIP3   OH250988   4.457   3.264  15.887
 9858TIP3    H150989   4.474   3.218  15.970
 9858TIP3    H250990   4.467   3.355  15.919
 9859TIP3   OH250991   4.089   2.995  15.925
 9859TIP3    H150992   4.038   3.023  16.001
 9859TIP3    H250993   4.161   3.060  15.916
 9860TIP3   OH250994   4.688   3.401  15.891
 9860TIP3    H150995   4.630   3.461  15.942
 9860TIP3    H250996   4.764   3.460  15.879
 9861TIP3   OH250997   4.474   3.535  15.970
 9861TIP3    H150998   4.479   3.612  15.908
 9861TIP3    H250999   4.448   3.578  16.052
 9862TIP3   OH251000   4.326   2.188  15.901
 9862TIP3    H151001   4.303   2.271  15.944
 9862TIP3    H251002   4.417   2.178  15.936
 9863TIP3   OH251003   4.164   3.255  15.826
 9863TIP3    H151004   4.230   3.317  15.857
 9863TIP3    H251005   4.218   3.206  15.761
 9864TIP3   OH251006   3.996   2.520  15.743
 9864TIP3    H151007   3.995   2.615  15.766
 9864TIP3    H251008   3.907   2.500  15.714
 9865TIP3   OH251009   4.777   3.500  15.657
 9865TIP3    H151010   4.708   3.434  15.683
 9865TIP3    H251011   4.848   3.439  15.630
 9866TIP3   OH251012   5.232   3.474  15.673
 9866TIP3    H151013   5.261   3.399  15.727
 9866TIP3    H251014   5.311   3.494  15.619
 9867TIP3   OH251015   4.321   3.067  15.661
 9867TIP3    H151016   4.336   2.991  15.719
 9867TIP3    H251017   4.396   3.057  15.599
 9868TIP3   OH251018   4.866   3.176  15.639
 9868TIP3    H151019   4.838   3.185  15.732
 9868TIP3    H251020   4.844   3.082  15.621
 9869TIP3   OH251021   4.440   2.866  15.891
 9869TIP3    H151022   4.395   2.814  15.960
 9869TIP3    H251023   4.471   2.797  15.829
 9870TIP3   OH251024   4.550   2.686  15.724
 9870TIP3    H151025   4.535   2.681  15.627
 9870TIP3    H251026   4.647   2.696  15.731
 9871TIP3   OH251027   5.484   2.928  15.669
 9871TIP3    H151028   5.465   2.888  15.582
 9871TIP3    H251029   5.492   3.023  15.645
 9872TIP3   OH251030   4.535   3.762  15.835
 9872TIP3    H151031   4.633   3.768  15.838
 9872TIP3    H251032   4.518   3.818  15.757
 9873TIP3   OH251033   3.887   3.218  15.776
 9873TIP3    H151034   3.983   3.229  15.796
 9873TIP3    H251035   3.893   3.153  15.703
 9874TIP3   OH251036   5.606   2.795  15.875
 9874TIP3    H151037   5.556   2.838  15.802
 9874TIP3    H251038   5.603   2.862  15.947
 9875TIP3   OH251039   5.440   2.530  15.739
 9875TIP3    H151040   5.445   2.594  15.667
 9875TIP3    H251041   5.419   2.447  15.691
 9876TIP3   OH251042   5.362   2.275  15.655
 9876TIP3    H151043   5.423   2.230  15.716
 9876TIP3    H251044   5.277   2.233  15.673
 9877TIP3   OH251045   5.567   2.161  15.809
 9877TIP3    H151046   5.611   2.087  15.761
 9877TIP3    H251047   5.639   2.225  15.819
 9878TIP3   OH251048   3.924   1.966  15.909
 9878TIP3    H151049   3.975   2.030  15.858
 9878TIP3    H251050   3.872   2.023  15.963
 9879TIP3   OH251051   4.109   2.159  15.757
 9879TIP3    H151052   4.161   2.093  15.708
 9879TIP3    H251053   4.171   2.184  15.828
 9880TIP3   OH251054   4.800   3.694  15.840
 9880TIP3    H151055   4.895   3.711  15.826
 9880TIP3    H251056   4.783   3.634  15.765
 9881TIP3   OH251057   4.100   3.659  15.710
 9881TIP3    H151058   4.071   3.679  15.801
 9881TIP3    H251059   4.175   3.598  15.724
 9882TIP3   OH251060   6.710   2.674  15.779
 9882TIP3    H151061   6.785   2.681  15.843
 9882TIP3    H251062   6.746   2.607  15.720
 9883TIP3   OH251063   6.928   2.742  15.929
 9883TIP3    H151064   6.974   2.771  16.011
 9883TIP3    H251065   6.964   2.805  15.864
 9884TIP3   OH251066   7.005   3.667  15.776
 9884TIP3    H151067   7.013   3.571  15.758
 9884TIP3    H251068   6.985   3.651  15.872
 9885TIP3   OH251069   7.090   2.863  15.717
 9885TIP3    H151070   7.083   2.843  15.621
 9885TIP3    H251071   7.170   2.915  15.719
 9886TIP3   OH251072   6.642   2.255  15.766
 9886TIP3    H151073   6.617   2.258  15.859
 9886TIP3    H251074   6.614   2.166  15.740
 9887TIP3   OH251075   6.327   2.297  15.683
 9887TIP3    H151076   6.279   2.255  15.757
 9887TIP3    H251077   6.257   2.340  15.633
 9888TIP3   OH251078   5.776   2.328  15.917
 9888TIP3    H151079   5.834   2.395  15.875
 9888TIP3    H251080   5.713   2.391  15.957
 9889TIP3   OH251081   6.195   2.568  15.826
 9889TIP3    H151082   6.139   2.538  15.752
 9889TIP3    H251083   6.274   2.596  15.776
 9890TIP3   OH251084   6.917   2.318  15.833
 9890TIP3    H151085   6.821   2.324  15.821
 9890TIP3    H251086   6.942   2.402  15.871
 9891TIP3   OH251087   6.739   3.173  15.921
 9891TIP3    H151088   6.706   3.260  15.948
 9891TIP3    H251089   6.666   3.114  15.942
 9892TIP3   OH251090   5.854   2.800  15.786
 9892TIP3    H151091   5.914   2.860  15.836
 9892TIP3    H251092   5.766   2.829  15.815
 9893TIP3   OH251093   7.048   3.195  15.794
 9893TIP3    H151094   7.077   3.168  15.881
 9893TIP3    H251095   6.952   3.191  15.807
 9894TIP3   OH251096   6.458   3.312  15.642
 9894TIP3    H151097   6.473   3.234  15.588
 9894TIP3    H251098   6.421   3.272  15.724
 9895TIP3   OH251099   6.342   3.264  15.887
 9895TIP3    H151100   6.359   3.218  15.970
 9895TIP3    H251101   6.354   3.356  15.919
 9896TIP3   OH251102   5.975   2.995  15.925
 9896TIP3    H151103   5.924   3.023  16.001
 9896TIP3    H251104   6.047   3.061  15.916
 9897TIP3   OH251105   6.574   3.397  15.874
 9897TIP3    H151106   6.522   3.455  15.934
 9897TIP3    H251107   6.654   3.453  15.877
 9898TIP3   OH251108   6.352   3.534  15.967
 9898TIP3    H151109   6.368   3.612  15.908
 9898TIP3    H251110   6.338   3.578  16.052
 9899TIP3   OH251111   6.212   2.188  15.901
 9899TIP3    H151112   6.189   2.271  15.944
 9899TIP3    H251113   6.302   2.178  15.935
 9900TIP3   OH251114   6.050   3.255  15.826
 9900TIP3    H151115   6.117   3.317  15.857
 9900TIP3    H251116   6.103   3.206  15.760
 9901TIP3   OH251117   5.882   2.521  15.742
 9901TIP3    H151118   5.880   2.615  15.766
 9901TIP3    H251119   5.793   2.500  15.715
 9902TIP3   OH251120   6.664   3.501  15.652
 9902TIP3    H151121   6.596   3.436  15.685
 9902TIP3    H251122   6.737   3.440  15.635
 9903TIP3   OH251123   7.114   3.460  15.668
 9903TIP3    H151124   7.149   3.397  15.731
 9903TIP3    H251125   7.193   3.492  15.621
 9904TIP3   OH251126   6.206   3.066  15.661
 9904TIP3    H151127   6.223   2.991  15.720
 9904TIP3    H251128   6.281   3.057  15.599
 9905TIP3   OH251129   6.750   3.175  15.638
 9905TIP3    H151130   6.724   3.186  15.731
 9905TIP3    H251131   6.728   3.080  15.621
 9906TIP3   OH251132   6.326   2.865  15.891
 9906TIP3    H151133   6.281   2.814  15.960
 9906TIP3    H251134   6.356   2.797  15.829
 9907TIP3   OH251135   6.435   2.686  15.723
 9907TIP3    H151136   6.422   2.681  15.626
 9907TIP3    H251137   6.533   2.696  15.730
 9908TIP3   OH251138   6.418   3.763  15.834
 9908TIP3    H151139   6.517   3.767  15.837
 9908TIP3    H251140   6.403   3.819  15.756
 9909TIP3   OH251141   5.772   3.218  15.776
 9909TIP3    H151142   5.869   3.230  15.796
 9909TIP3    H251143   5.779   3.153  15.703
 9910TIP3   OH251144   7.249   2.267  15.652
 9910TIP3    H151145   7.304   2.232  15.721
 9910TIP3    H251146   7.161   2.231  15.672
 9911TIP3   OH251147   5.810   1.966  15.909
 9911TIP3    H151148   5.861   2.030  15.858
 9911TIP3    H251149   5.757   2.023  15.963
 9912TIP3   OH251150   5.994   2.159  15.757
 9912TIP3    H151151   6.047   2.093  15.708
 9912TIP3    H251152   6.057   2.184  15.828
 9913TIP3   OH251153   6.677   3.705  15.827
 9913TIP3    H151154   6.774   3.708  15.833
 9913TIP3    H251155   6.668   3.631  15.763
 9914TIP3   OH251156   5.985   3.658  15.709
 9914TIP3    H151157   5.956   3.679  15.800
 9914TIP3    H251158   6.061   3.599  15.725
 9915TIP3   OH251159   1.053   4.560  15.780
 9915TIP3    H151160   1.128   4.567  15.844
 9915TIP3    H251161   1.089   4.493  15.720
 9916TIP3   OH251162   1.276   4.628  15.925
 9916TIP3    H151163   1.317   4.657  16.009
 9916TIP3    H251164   1.311   4.693  15.862
 9917TIP3   OH251165   1.655   3.824  15.930
 9917TIP3    H151166   1.562   3.833  15.953
 9917TIP3    H251167   1.674   3.907  15.884
 9918TIP3   OH251168   1.769   5.260  15.756
 9918TIP3    H151169   1.782   5.352  15.784
 9918TIP3    H251170   1.861   5.230  15.764
 9919TIP3   OH251171   1.310   5.535  15.830
 9919TIP3    H151172   1.353   5.461  15.782
 9919TIP3    H251173   1.320   5.506  15.922
 9920TIP3   OH251174   1.435   4.749  15.716
 9920TIP3    H151175   1.423   4.733  15.619
 9920TIP3    H251176   1.515   4.801  15.717
 9921TIP3   OH251177   0.985   4.140  15.766
 9921TIP3    H151178   0.960   4.143  15.859
 9921TIP3    H251179   0.957   4.051  15.739
 9922TIP3   OH251180   0.670   4.183  15.683
 9922TIP3    H151181   0.622   4.140  15.757
 9922TIP3    H251182   0.600   4.225  15.633
 9923TIP3   OH251183   0.117   4.226  15.921
 9923TIP3    H151184   0.178   4.288  15.875
 9923TIP3    H251185   0.049   4.282  15.958
 9924TIP3   OH251186   0.538   4.453  15.825
 9924TIP3    H151187   0.483   4.424  15.750
 9924TIP3    H251188   0.618   4.482  15.777
 9925TIP3   OH251189   1.258   4.203  15.834
 9925TIP3    H151190   1.162   4.213  15.823
 9925TIP3    H251191   1.289   4.286  15.871
 9926TIP3   OH251192   1.082   5.059  15.920
 9926TIP3    H151193   1.045   5.144  15.949
 9926TIP3    H251194   1.011   4.998  15.940
 9927TIP3   OH251195   1.842   4.409  15.951
 9927TIP3    H151196   1.767   4.374  15.898
 9927TIP3    H251197   1.828   4.505  15.942
 9928TIP3   OH251198   0.193   4.685  15.789
 9928TIP3    H151199   0.257   4.745  15.835
 9928TIP3    H251200   0.108   4.720  15.818
 9929TIP3   OH251201   1.394   5.083  15.794
 9929TIP3    H151202   1.422   5.053  15.881
 9929TIP3    H251203   1.298   5.076  15.807
 9930TIP3   OH251204   1.834   5.527  15.819
 9930TIP3    H151205   1.911   5.587  15.813
 9930TIP3    H251206   1.767   5.588  15.855
 9931TIP3   OH251207   0.803   5.198  15.644
 9931TIP3    H151208   0.815   5.121  15.588
 9931TIP3    H251209   0.764   5.157  15.724
 9932TIP3   OH251210   0.684   5.149  15.886
 9932TIP3    H151211   0.701   5.103  15.970
 9932TIP3    H251212   0.696   5.241  15.919
 9933TIP3   OH251213   0.319   4.878  15.926
 9933TIP3    H151214   0.267   4.910  16.000
 9933TIP3    H251215   0.388   4.946  15.916
 9934TIP3   OH251216   0.916   5.286  15.891
 9934TIP3    H151217   0.859   5.347  15.942
 9934TIP3    H251218   0.992   5.346  15.879
 9935TIP3   OH251219   0.702   5.421  15.970
 9935TIP3    H151220   0.708   5.498  15.908
 9935TIP3    H251221   0.677   5.464  16.052
 9936TIP3   OH251222   0.555   4.073  15.901
 9936TIP3    H151223   0.531   4.156  15.945
 9936TIP3    H251224   0.646   4.063  15.935
 9937TIP3   OH251225   0.388   5.143  15.825
 9937TIP3    H151226   0.455   5.206  15.856
 9937TIP3    H251227   0.445   5.092  15.762
 9938TIP3   OH251228   0.223   4.405  15.739
 9938TIP3    H151229   0.223   4.500  15.762
 9938TIP3    H251230   0.134   4.384  15.710
 9939TIP3   OH251231   1.006   5.386  15.657
 9939TIP3    H151232   0.937   5.320  15.683
 9939TIP3    H251233   1.077   5.325  15.630
 9940TIP3   OH251234   1.461   5.360  15.672
 9940TIP3    H151235   1.490   5.285  15.727
 9940TIP3    H251236   1.540   5.381  15.619
 9941TIP3   OH251237   0.549   4.952  15.661
 9941TIP3    H151238   0.566   4.877  15.719
 9941TIP3    H251239   0.624   4.943  15.599
 9942TIP3   OH251240   1.095   5.062  15.639
 9942TIP3    H151241   1.067   5.070  15.732
 9942TIP3    H251242   1.073   4.967  15.621
 9943TIP3   OH251243   0.669   4.751  15.891
 9943TIP3    H151244   0.624   4.699  15.960
 9943TIP3    H251245   0.700   4.683  15.828
 9944TIP3   OH251246   0.778   4.572  15.723
 9944TIP3    H151247   0.764   4.566  15.626
 9944TIP3    H251248   0.876   4.581  15.730
 9945TIP3   OH251249   1.719   4.811  15.665
 9945TIP3    H151250   1.688   4.776  15.579
 9945TIP3    H251251   1.720   4.908  15.647
 9946TIP3   OH251252   0.764   5.647  15.835
 9946TIP3    H151253   0.861   5.654  15.838
 9946TIP3    H251254   0.747   5.704  15.757
 9947TIP3   OH251255   0.119   5.107  15.776
 9947TIP3    H151256   0.214   5.118  15.797
 9947TIP3    H251257   0.124   5.039  15.708
 9948TIP3   OH251258   1.825   4.675  15.874
 9948TIP3    H151259   1.776   4.730  15.807
 9948TIP3    H251260   1.830   4.741  15.948
 9949TIP3   OH251261   1.683   4.414  15.733
 9949TIP3    H151262   1.663   4.480  15.666
 9949TIP3    H251263   1.642   4.333  15.693
 9950TIP3   OH251264   1.593   4.164  15.656
 9950TIP3    H151265   1.650   4.113  15.717
 9950TIP3    H251266   1.507   4.121  15.671
 9951TIP3   OH251267   1.797   4.050  15.805
 9951TIP3    H151268   1.839   3.971  15.763
 9951TIP3    H251269   1.871   4.107  15.828
 9952TIP3   OH251270   0.149   3.851  15.904
 9952TIP3    H151271   0.205   3.918  15.862
 9952TIP3    H251272   0.097   3.906  15.965
 9953TIP3   OH251273   0.338   4.045  15.757
 9953TIP3    H151274   0.390   3.979  15.708
 9953TIP3    H251275   0.401   4.068  15.827
 9954TIP3   OH251276   1.029   5.579  15.840
 9954TIP3    H151277   1.123   5.597  15.826
 9954TIP3    H251278   1.012   5.519  15.765
 9955TIP3   OH251279   0.325   5.541  15.711
 9955TIP3    H151280   0.298   5.562  15.802
 9955TIP3    H251281   0.405   5.487  15.726
 9956TIP3   OH251282   2.939   4.558  15.779
 9956TIP3    H151283   3.014   4.566  15.842
 9956TIP3    H251284   2.975   4.490  15.720
 9957TIP3   OH251285   3.161   4.628  15.925
 9957TIP3    H151286   3.203   4.657  16.009
 9957TIP3    H251287   3.197   4.692  15.861
 9958TIP3   OH251288   3.540   3.825  15.931
 9958TIP3    H151289   3.446   3.834  15.950
 9958TIP3    H251290   3.561   3.907  15.883
 9959TIP3   OH251291   3.654   5.260  15.756
 9959TIP3    H151292   3.667   5.352  15.784
 9959TIP3    H251293   3.747   5.230  15.763
 9960TIP3   OH251294   3.196   5.535  15.830
 9960TIP3    H151295   3.239   5.462  15.782
 9960TIP3    H251296   3.206   5.506  15.922
 9961TIP3   OH251297   3.319   4.751  15.716
 9961TIP3    H151298   3.310   4.731  15.620
 9961TIP3    H251299   3.403   4.799  15.717
 9962TIP3   OH251300   2.851   4.155  15.774
 9962TIP3    H151301   2.846   4.141  15.869
 9962TIP3    H251302   2.856   4.062  15.739
 9963TIP3   OH251303   2.557   4.186  15.684
 9963TIP3    H151304   2.510   4.139  15.756
 9963TIP3    H251305   2.487   4.226  15.632
 9964TIP3   OH251306   2.000   4.215  15.905
 9964TIP3    H151307   2.068   4.282  15.885
 9964TIP3    H251308   1.943   4.273  15.960
 9965TIP3   OH251309   2.422   4.457  15.823
 9965TIP3    H151310   2.373   4.421  15.748
 9965TIP3    H251311   2.505   4.482  15.779
 9966TIP3   OH251312   3.143   4.205  15.838
 9966TIP3    H151313   3.048   4.211  15.820
 9966TIP3    H251314   3.173   4.289  15.870
 9967TIP3   OH251315   2.968   5.059  15.920
 9967TIP3    H151316   2.932   5.144  15.949
 9967TIP3    H251317   2.897   4.998  15.939
 9968TIP3   OH251318   3.721   4.408  15.960
 9968TIP3    H151319   3.659   4.372  15.893
 9968TIP3    H251320   3.721   4.502  15.933
 9969TIP3   OH251321   2.079   4.708  15.820
 9969TIP3    H151322   2.163   4.756  15.840
 9969TIP3    H251323   2.030   4.759  15.888
 9970TIP3   OH251324   3.281   5.082  15.794
 9970TIP3    H151325   3.308   5.053  15.882
 9970TIP3    H251326   3.185   5.075  15.807
 9971TIP3   OH251327   3.720   5.527  15.819
 9971TIP3    H151328   3.797   5.587  15.813
 9971TIP3    H251329   3.653   5.589  15.853
 9972TIP3   OH251330   2.689   5.198  15.644
 9972TIP3    H151331   2.701   5.121  15.588
 9972TIP3    H251332   2.650   5.157  15.724
 9973TIP3   OH251333   2.571   5.149  15.886
 9973TIP3    H151334   2.589   5.103  15.970
 9973TIP3    H251335   2.581   5.241  15.918
 9974TIP3   OH251336   2.211   4.885  15.932
 9974TIP3    H151337   2.155   4.915  16.004
 9974TIP3    H251338   2.279   4.954  15.920
 9975TIP3   OH251339   2.802   5.287  15.889
 9975TIP3    H151340   2.745   5.347  15.942
 9975TIP3    H251341   2.878   5.346  15.879
 9976TIP3   OH251342   2.588   5.421  15.970
 9976TIP3    H151343   2.593   5.498  15.908
 9976TIP3    H251344   2.563   5.464  16.052
 9977TIP3   OH251345   2.439   4.075  15.900
 9977TIP3    H151346   2.419   4.157  15.946
 9977TIP3    H251347   2.530   4.063  15.932
 9978TIP3   OH251348   2.279   5.141  15.826
 9978TIP3    H151349   2.345   5.204  15.857
 9978TIP3    H251350   2.332   5.092  15.760
 9979TIP3   OH251351   2.105   4.409  15.724
 9979TIP3    H151352   2.121   4.491  15.776
 9979TIP3    H251353   2.013   4.390  15.734
 9980TIP3   OH251354   2.892   5.386  15.657
 9980TIP3    H151355   2.822   5.320  15.683
 9980TIP3    H251356   2.963   5.325  15.630
 9981TIP3   OH251357   3.347   5.360  15.673
 9981TIP3    H151358   3.376   5.285  15.727
 9981TIP3    H251359   3.425   5.380  15.619
 9982TIP3   OH251360   2.434   4.950  15.661
 9982TIP3    H151361   2.454   4.877  15.721
 9982TIP3    H251362   2.510   4.943  15.599
 9983TIP3   OH251363   2.981   5.062  15.639
 9983TIP3    H151364   2.952   5.070  15.732
 9983TIP3    H251365   2.959   4.967  15.621
 9984TIP3   OH251366   2.554   4.752  15.893
 9984TIP3    H151367   2.509   4.700  15.961
 9984TIP3    H251368   2.585   4.683  15.831
 9985TIP3   OH251369   2.661   4.573  15.723
 9985TIP3    H151370   2.648   4.565  15.626
 9985TIP3    H251371   2.759   4.581  15.730
 9986TIP3   OH251372   3.598   4.813  15.669
 9986TIP3    H151373   3.579   4.773  15.582
 9986TIP3    H251374   3.606   4.909  15.645
 9987TIP3   OH251375   2.649   5.647  15.835
 9987TIP3    H151376   2.747   5.654  15.838
 9987TIP3    H251377   2.633   5.704  15.757
 9988TIP3   OH251378   2.001   5.101  15.777
 9988TIP3    H151379   2.096   5.117  15.795
 9988TIP3    H251380   2.008   5.040  15.702
 9989TIP3   OH251381   3.719   4.680  15.877
 9989TIP3    H151382   3.672   4.723  15.801
 9989TIP3    H251383   3.718   4.750  15.946
 9990TIP3   OH251384   3.555   4.416  15.740
 9990TIP3    H151385   3.559   4.480  15.667
 9990TIP3    H251386   3.534   4.332  15.693
 9991TIP3   OH251387   3.486   4.168  15.658
 9991TIP3    H151388   3.539   4.113  15.718
 9991TIP3    H251389   3.397   4.124  15.666
 9992TIP3   OH251390   3.681   4.045  15.809
 9992TIP3    H151391   3.725   3.972  15.760
 9992TIP3    H251392   3.753   4.110  15.819
 9993TIP3   OH251393   2.038   3.851  15.908
 9993TIP3    H151394   2.092   3.914  15.861
 9993TIP3    H251395   1.986   3.908  15.965
 9994TIP3   OH251396   2.223   4.050  15.753
 9994TIP3    H151397   2.274   3.978  15.712
 9994TIP3    H251398   2.285   4.068  15.829
 9995TIP3   OH251399   2.915   5.580  15.840
 9995TIP3    H151400   3.009   5.597  15.826
 9995TIP3    H251401   2.897   5.519  15.765
 9996TIP3   OH251402   2.214   5.544  15.709
 9996TIP3    H151403   2.185   5.565  15.800
 9996TIP3    H251404   2.290   5.484  15.725
 9997TIP3   OH251405   4.823   4.559  15.779
 9997TIP3    H151406   4.897   4.565  15.845
 9997TIP3    H251407   4.860   4.492  15.721
 9998TIP3   OH251408   5.049   4.626  15.925
 9998TIP3    H151409   5.088   4.657  16.010
 9998TIP3    H251410   5.080   4.694  15.863
 9999TIP3   OH251411   5.427   3.825  15.930
 9999TIP3    H151412   5.333   3.834  15.952
 9999TIP3    H251413   5.447   3.908  15.884
10000TIP3   OH251414   5.539   5.258  15.754
10000TIP3    H151415   5.551   5.350  15.784
10000TIP3    H251416   5.632   5.231  15.764
10001TIP3   OH251417   5.080   5.534  15.830
10001TIP3    H151418   5.125   5.462  15.782
10001TIP3    H251419   5.091   5.507  15.922
10002TIP3   OH251420   5.201   4.757  15.714
10002TIP3    H151421   5.191   4.718  15.625
10002TIP3    H251422   5.290   4.794  15.725
10003TIP3   OH251423   4.756   4.140  15.766
10003TIP3    H151424   4.731   4.143  15.859
10003TIP3    H251425   4.728   4.051  15.740
10004TIP3   OH251426   4.442   4.183  15.683
10004TIP3    H151427   4.393   4.140  15.757
10004TIP3    H251428   4.371   4.226  15.633
10005TIP3   OH251429   3.890   4.214  15.917
10005TIP3    H151430   3.949   4.280  15.874
10005TIP3    H251431   3.828   4.277  15.957
10006TIP3   OH251432   4.309   4.455  15.823
10006TIP3    H151433   4.253   4.424  15.750
10006TIP3    H251434   4.388   4.482  15.775
10007TIP3   OH251435   5.030   4.203  15.834
10007TIP3    H151436   4.933   4.213  15.823
10007TIP3    H251437   5.061   4.286  15.871
10008TIP3   OH251438   4.853   5.059  15.920
10008TIP3    H151439   4.817   5.144  15.949
10008TIP3    H251440   4.782   4.997  15.941
10009TIP3   OH251441   5.608   4.407  15.958
10009TIP3    H151442   5.545   4.373  15.892
10009TIP3    H251443   5.605   4.502  15.936
10010TIP3   OH251444   3.968   4.685  15.786
10010TIP3    H151445   4.028   4.746  15.836
10010TIP3    H251446   3.880   4.715  15.815
10011TIP3   OH251447   5.167   5.076  15.791
10011TIP3    H151448   5.193   5.055  15.882
10011TIP3    H251449   5.070   5.077  15.807
10012TIP3   OH251450   5.606   5.527  15.819
10012TIP3    H151451   5.682   5.587  15.813
10012TIP3    H251452   5.540   5.588  15.858
10013TIP3   OH251453   4.575   5.198  15.644
10013TIP3    H151454   4.586   5.120  15.588
10013TIP3    H251455   4.535   5.158  15.724
10014TIP3   OH251456   4.456   5.149  15.886
10014TIP3    H151457   4.474   5.103  15.970
10014TIP3    H251458   4.467   5.241  15.919
10015TIP3   OH251459   4.089   4.880  15.925
10015TIP3    H151460   4.039   4.910  16.000
10015TIP3    H251461   4.162   4.946  15.916
10016TIP3   OH251462   4.688   5.286  15.891
10016TIP3    H151463   4.630   5.347  15.942
10016TIP3    H251464   4.764   5.346  15.879
10017TIP3   OH251465   4.474   5.421  15.970
10017TIP3    H151466   4.479   5.498  15.908
10017TIP3    H251467   4.448   5.464  16.052
10018TIP3   OH251468   4.327   4.074  15.902
10018TIP3    H151469   4.303   4.157  15.944
10018TIP3    H251470   4.417   4.063  15.936
10019TIP3   OH251471   4.164   5.140  15.826
10019TIP3    H151472   4.230   5.203  15.856
10019TIP3    H251473   4.218   5.092  15.761
10020TIP3   OH251474   3.997   4.406  15.742
10020TIP3    H151475   3.995   4.501  15.766
10020TIP3    H251476   3.908   4.386  15.715
10021TIP3   OH251477   4.778   5.386  15.658
10021TIP3    H151478   4.708   5.320  15.683
10021TIP3    H251479   4.848   5.325  15.631
10022TIP3   OH251480   5.231   5.359  15.672
10022TIP3    H151481   5.263   5.288  15.729
10022TIP3    H251482   5.311   5.381  15.620
10023TIP3   OH251483   4.321   4.952  15.662
10023TIP3    H151484   4.337   4.876  15.720
10023TIP3    H251485   4.395   4.942  15.600
10024TIP3   OH251486   4.870   5.060  15.640
10024TIP3    H151487   4.837   5.071  15.731
10024TIP3    H251488   4.842   4.967  15.621
10025TIP3   OH251489   4.440   4.751  15.892
10025TIP3    H151490   4.395   4.699  15.960
10025TIP3    H251491   4.471   4.683  15.828
10026TIP3   OH251492   4.550   4.572  15.723
10026TIP3    H151493   4.536   4.566  15.626
10026TIP3    H251494   4.647   4.581  15.730
10027TIP3   OH251495   5.473   4.813  15.667
10027TIP3    H151496   5.487   4.766  15.583
10027TIP3    H251497   5.500   4.908  15.650
10028TIP3   OH251498   4.535   5.647  15.835
10028TIP3    H151499   4.633   5.654  15.838
10028TIP3    H251500   4.518   5.704  15.757
10029TIP3   OH251501   3.887   5.104  15.775
10029TIP3    H151502   3.982   5.115  15.795
10029TIP3    H251503   3.893   5.039  15.703
10030TIP3   OH251504   5.606   4.680  15.874
10030TIP3    H151505   5.556   4.725  15.803
10030TIP3    H251506   5.605   4.746  15.948
10031TIP3   OH251507   5.438   4.417  15.739
10031TIP3    H151508   5.448   4.478  15.665
10031TIP3    H251509   5.420   4.332  15.693
10032TIP3   OH251510   5.362   4.162  15.655
10032TIP3    H151511   5.423   4.116  15.715
10032TIP3    H251512   5.277   4.119  15.673
10033TIP3   OH251513   5.567   4.046  15.809
10033TIP3    H151514   5.611   3.973  15.761
10033TIP3    H251515   5.639   4.111  15.819
10034TIP3   OH251516   3.925   3.851  15.909
10034TIP3    H151517   3.975   3.916  15.858
10034TIP3    H251518   3.872   3.908  15.963
10035TIP3   OH251519   4.109   4.044  15.757
10035TIP3    H151520   4.161   3.979  15.708
10035TIP3    H251521   4.171   4.069  15.828
10036TIP3   OH251522   4.800   5.579  15.840
10036TIP3    H151523   4.895   5.597  15.826
10036TIP3    H251524   4.783   5.519  15.765
10037TIP3   OH251525   4.100   5.544  15.709
10037TIP3    H151526   4.071   5.565  15.800
10037TIP3    H251527   4.175   5.484  15.725
10038TIP3   OH251528   6.710   4.560  15.779
10038TIP3    H151529   6.785   4.567  15.843
10038TIP3    H251530   6.746   4.493  15.720
10039TIP3   OH251531   6.929   4.627  15.929
10039TIP3    H151532   6.974   4.659  16.010
10039TIP3    H251533   6.964   4.691  15.864
10040TIP3   OH251534   6.975   5.542  15.830
10040TIP3    H151535   7.009   5.462  15.780
10040TIP3    H251536   6.970   5.502  15.919
10041TIP3   OH251537   7.090   4.749  15.717
10041TIP3    H151538   7.083   4.729  15.621
10041TIP3    H251539   7.170   4.801  15.718
10042TIP3   OH251540   6.642   4.140  15.766
10042TIP3    H151541   6.617   4.143  15.859
10042TIP3    H251542   6.614   4.051  15.740
10043TIP3   OH251543   6.327   4.182  15.683
10043TIP3    H151544   6.279   4.139  15.757
10043TIP3    H251545   6.257   4.226  15.633
10044TIP3   OH251546   5.776   4.214  15.917
10044TIP3    H151547   5.834   4.281  15.875
10044TIP3    H251548   5.713   4.277  15.957
10045TIP3   OH251549   6.195   4.453  15.826
10045TIP3    H151550   6.139   4.424  15.752
10045TIP3    H251551   6.274   4.482  15.777
10046TIP3   OH251552   6.917   4.203  15.834
10046TIP3    H151553   6.821   4.210  15.821
10046TIP3    H251554   6.942   4.287  15.871
10047TIP3   OH251555   6.738   5.059  15.920
10047TIP3    H151556   6.703   5.144  15.949
10047TIP3    H251557   6.667   4.997  15.941
10048TIP3   OH251558   5.855   4.685  15.786
10048TIP3    H151559   5.915   4.746  15.837
10048TIP3    H251560   5.768   4.714  15.816
10049TIP3   OH251561   7.048   5.083  15.794
10049TIP3    H151562   7.078   5.053  15.881
10049TIP3    H251563   6.953   5.074  15.807
10050TIP3   OH251564   6.460   5.199  15.644
10050TIP3    H151565   6.472   5.121  15.588
10050TIP3    H251566   6.421   5.158  15.724
10051TIP3   OH251567   6.342   5.149  15.886
10051TIP3    H151568   6.360   5.103  15.970
10051TIP3    H251569   6.353   5.241  15.919
10052TIP3   OH251570   5.975   4.880  15.925
10052TIP3    H151571   5.924   4.909  16.001
10052TIP3    H251572   6.047   4.946  15.916
10053TIP3   OH251573   6.573   5.286  15.891
10053TIP3    H151574   6.516   5.347  15.942
10053TIP3    H251575   6.649   5.344  15.879
10054TIP3   OH251576   6.359   5.421  15.970
10054TIP3    H151577   6.364   5.498  15.908
10054TIP3    H251578   6.333   5.464  16.052
10055TIP3   OH251579   6.211   4.074  15.901
10055TIP3    H151580   6.189   4.157  15.944
10055TIP3    H251581   6.302   4.063  15.935
10056TIP3   OH251582   6.049   5.140  15.826
10056TIP3    H151583   6.116   5.203  15.857
10056TIP3    H251584   6.103   5.092  15.760
10057TIP3   OH251585   5.882   4.406  15.742
10057TIP3    H151586   5.880   4.501  15.766
10057TIP3    H251587   5.793   4.386  15.715
10058TIP3   OH251588   6.666   5.386  15.658
10058TIP3    H151589   6.595   5.321  15.682
10058TIP3    H251590   6.735   5.324  15.630
10059TIP3   OH251591   7.118   5.365  15.681
10059TIP3    H151592   7.145   5.284  15.727
10059TIP3    H251593   7.191   5.376  15.617
10060TIP3   OH251594   6.206   4.951  15.661
10060TIP3    H151595   6.223   4.876  15.720
10060TIP3    H251596   6.281   4.943  15.599
10061TIP3   OH251597   6.751   5.062  15.639
10061TIP3    H151598   6.723   5.070  15.732
10061TIP3    H251599   6.729   4.967  15.621
10062TIP3   OH251600   6.326   4.751  15.891
10062TIP3    H151601   6.281   4.700  15.960
10062TIP3    H251602   6.356   4.683  15.829
10063TIP3   OH251603   6.435   4.572  15.723
10063TIP3    H151604   6.421   4.566  15.626
10063TIP3    H251605   6.533   4.581  15.730
10064TIP3   OH251606   6.420   5.647  15.834
10064TIP3    H151607   6.517   5.654  15.838
10064TIP3    H251608   6.404   5.704  15.757
10065TIP3   OH251609   5.772   5.102  15.775
10065TIP3    H151610   5.868   5.115  15.796
10065TIP3    H251611   5.781   5.037  15.702
10066TIP3   OH251612   7.247   4.156  15.652
10066TIP3    H151613   7.307   4.119  15.718
10066TIP3    H251614   7.161   4.117  15.673
10067TIP3   OH251615   5.809   3.851  15.909
10067TIP3    H151616   5.861   3.916  15.858
10067TIP3    H251617   5.757   3.909  15.963
10068TIP3   OH251618   5.994   4.044  15.757
10068TIP3    H151619   6.047   3.979  15.708
10068TIP3    H251620   6.057   4.069  15.828
10069TIP3   OH251621   6.686   5.580  15.840
10069TIP3    H151622   6.779   5.596  15.823
10069TIP3    H251623   6.666   5.519  15.766
10070TIP3   OH251624   5.986   5.543  15.708
10070TIP3    H151625   5.957   5.564  15.798
10070TIP3    H251626   6.062   5.484  15.725
10071TIP3   OH251627   1.053   6.445  15.780
10071TIP3    H151628   1.128   6.452  15.844
10071TIP3    H251629   1.090   6.379  15.720
10072TIP3   OH251630   1.276   6.513  15.925
10072TIP3    H151631   1.317   6.543  16.009
10072TIP3    H251632   1.311   6.578  15.862
10073TIP3   OH251633   1.655   5.710  15.929
10073TIP3    H151634   1.561   5.719  15.953
10073TIP3    H251635   1.675   5.793  15.883
10074TIP3   OH251636   1.774   7.141  15.756
10074TIP3    H151637   1.778   7.234  15.779
10074TIP3    H251638   1.867   7.114  15.763
10075TIP3   OH251639   1.434   6.634  15.716
10075TIP3    H151640   1.425   6.619  15.619
10075TIP3    H251641   1.516   6.686  15.716
10076TIP3   OH251642   0.985   6.026  15.766
10076TIP3    H151643   0.960   6.029  15.859
10076TIP3    H251644   0.957   5.937  15.740
10077TIP3   OH251645   0.670   6.068  15.683
10077TIP3    H151646   0.622   6.026  15.757
10077TIP3    H251647   0.600   6.111  15.633
10078TIP3   OH251648   0.113   6.111  15.919
10078TIP3    H151649   0.178   6.172  15.876
10078TIP3    H251650   0.051   6.170  15.959
10079TIP3   OH251651   0.539   6.339  15.825
10079TIP3    H151652   0.483   6.311  15.751
10079TIP3    H251653   0.618   6.368  15.777
10080TIP3   OH251654   1.258   6.089  15.834
10080TIP3    H151655   1.162   6.098  15.823
10080TIP3    H251656   1.289   6.172  15.871
10081TIP3   OH251657   1.083   6.942  15.921
10081TIP3    H151658   1.047   7.029  15.946
10081TIP3    H251659   1.010   6.883  15.942
10082TIP3   OH251660   1.838   6.293  15.959
10082TIP3    H151661   1.774   6.258  15.892
10082TIP3    H251662   1.835   6.388  15.936
10083TIP3   OH251663   0.193   6.569  15.790
10083TIP3    H151664   0.257   6.629  15.835
10083TIP3    H251665   0.109   6.605  15.818
10084TIP3   OH251666   1.396   6.965  15.795
10084TIP3    H151667   1.423   6.937  15.883
10084TIP3    H251668   1.299   6.962  15.806
10085TIP3   OH251669   0.803   7.082  15.644
10085TIP3    H151670   0.813   7.004  15.588
10085TIP3    H251671   0.765   7.042  15.725
10086TIP3   OH251672   0.680   7.035  15.888
10086TIP3    H151673   0.701   6.987  15.970
10086TIP3    H251674   0.693   7.126  15.919
10087TIP3   OH251675   0.318   6.765  15.925
10087TIP3    H151676   0.267   6.796  16.000
10087TIP3    H251677   0.387   6.834  15.916
10088TIP3   OH251678   0.922   7.168  15.900
10088TIP3    H151679   0.864   7.232  15.945
10088TIP3    H251680   0.994   7.228  15.876
10089TIP3   OH251681   0.708   0.007  15.971
10089TIP3    H151682   0.705   0.080  15.908
10089TIP3    H251683   0.671   0.042  16.052
10090TIP3   OH251684   0.555   5.959  15.901
10090TIP3    H151685   0.531   6.042  15.944
10090TIP3    H251686   0.646   5.949  15.935
10091TIP3   OH251687   0.388   7.033  15.823
10091TIP3    H151688   0.455   7.094  15.857
10091TIP3    H251689   0.444   6.980  15.763
10092TIP3   OH251690   0.223   6.291  15.740
10092TIP3    H151691   0.223   6.386  15.762
10092TIP3    H251692   0.134   6.270  15.710
10093TIP3   OH251693   1.007   7.265  15.669
10093TIP3    H151694   0.934   7.201  15.680
10093TIP3    H251695   1.079   7.213  15.630
10094TIP3   OH251696   1.481   7.242  15.694
10094TIP3    H151697   1.504   7.156  15.728
10094TIP3    H251698   1.547   7.259  15.624
10095TIP3   OH251699   0.549   6.836  15.662
10095TIP3    H151700   0.566   6.760  15.720
10095TIP3    H251701   0.624   6.828  15.600
10096TIP3   OH251702   1.093   6.948  15.640
10096TIP3    H151703   1.065   6.958  15.732
10096TIP3    H251704   1.073   6.854  15.622
10097TIP3   OH251705   0.669   6.637  15.891
10097TIP3    H151706   0.624   6.585  15.960
10097TIP3    H251707   0.700   6.568  15.828
10098TIP3   OH251708   0.778   6.457  15.723
10098TIP3    H151709   0.764   6.452  15.626
10098TIP3    H251710   0.876   6.467  15.730
10099TIP3   OH251711   1.717   6.696  15.668
10099TIP3    H151712   1.693   6.660  15.581
10099TIP3    H251713   1.719   6.793  15.646
10100TIP3   OH251714   0.119   6.995  15.775
10100TIP3    H151715   0.214   7.004  15.798
10100TIP3    H251716   0.124   6.924  15.709
10101TIP3   OH251717   1.835   6.565  15.876
10101TIP3    H151718   1.785   6.609  15.802
10101TIP3    H251719   1.832   6.633  15.947
10102TIP3   OH251720   1.669   6.301  15.739
10102TIP3    H151721   1.674   6.366  15.667
10102TIP3    H251722   1.648   6.218  15.691
10103TIP3   OH251723   1.591   6.046  15.655
10103TIP3    H151724   1.652   6.001  15.716
10103TIP3    H251725   1.506   6.004  15.673
10104TIP3   OH251726   1.796   5.931  15.810
10104TIP3    H151727   1.839   5.858  15.759
10104TIP3    H251728   1.868   5.996  15.819
10105TIP3   OH251729   0.145   5.738  15.903
10105TIP3    H151730   0.207   5.801  15.863
10105TIP3    H251731   0.103   5.794  15.968
10106TIP3   OH251732   0.338   5.930  15.757
10106TIP3    H151733   0.390   5.865  15.708
10106TIP3    H251734   0.402   5.954  15.827
10107TIP3   OH251735   2.939   6.447  15.781
10107TIP3    H151736   3.014   6.452  15.844
10107TIP3    H251737   2.975   6.381  15.720
10108TIP3   OH251738   3.163   6.511  15.925
10108TIP3    H151739   3.203   6.544  16.009
10108TIP3    H251740   3.195   6.579  15.862
10109TIP3   OH251741   3.541   5.710  15.929
10109TIP3    H151742   3.447   5.719  15.953
10109TIP3    H251743   3.561   5.793  15.884
10110TIP3   OH251744   3.662   7.141  15.750
10110TIP3    H151745   3.663   7.234  15.780
10110TIP3    H251746   3.754   7.114  15.765
10111TIP3   OH251747   3.321   6.629  15.716
10111TIP3    H151748   3.310   6.619  15.619
10111TIP3    H251749   3.398   6.688  15.718
10112TIP3   OH251750   2.871   6.026  15.766
10112TIP3    H151751   2.846   6.029  15.859
10112TIP3    H251752   2.842   5.937  15.740
10113TIP3   OH251753   2.556   6.068  15.683
10113TIP3    H151754   2.507   6.026  15.757
10113TIP3    H251755   2.486   6.111  15.633
10114TIP3   OH251756   2.004   6.099  15.917
10114TIP3    H151757   2.063   6.166  15.875
10114TIP3    H251758   1.942   6.163  15.957
10115TIP3   OH251759   2.424   6.339  15.826
10115TIP3    H151760   2.368   6.311  15.752
10115TIP3    H251761   2.503   6.368  15.777
10116TIP3   OH251762   3.144   6.089  15.834
10116TIP3    H151763   3.048   6.098  15.823
10116TIP3    H251764   3.175   6.172  15.871
10117TIP3   OH251765   2.905   6.923  15.894
10117TIP3    H151766   2.937   7.007  15.938
10117TIP3    H251767   2.881   6.867  15.966
10118TIP3   OH251768   3.723   6.292  15.959
10118TIP3    H151769   3.660   6.258  15.892
10118TIP3    H251770   3.720   6.388  15.936
10119TIP3   OH251771   2.084   6.570  15.787
10119TIP3    H151772   2.143   6.631  15.837
10119TIP3    H251773   1.995   6.600  15.814
10120TIP3   OH251774   3.306   6.921  15.773
10120TIP3    H151775   3.316   6.941  15.867
10120TIP3    H251776   3.213   6.952  15.774
10121TIP3   OH251777   2.685   7.083  15.641
10121TIP3    H151778   2.703   7.003  15.589
10121TIP3    H251779   2.654   7.043  15.726
10122TIP3   OH251780   2.561   7.037  15.890
10122TIP3    H151781   2.593   6.988  15.968
10122TIP3    H251782   2.582   7.127  15.918
10123TIP3   OH251783   2.204   6.767  15.925
10123TIP3    H151784   2.152   6.797  16.000
10123TIP3    H251785   2.275   6.834  15.917
10124TIP3   OH251786   2.799   7.176  15.894
10124TIP3    H151787   2.749   7.238  15.949
10124TIP3    H251788   2.883   7.224  15.879
10125TIP3   OH251789   2.592   0.008  15.973
10125TIP3    H151790   2.591   0.081  15.908
10125TIP3    H251791   2.555   0.043  16.053
10126TIP3   OH251792   2.440   5.959  15.901
10126TIP3    H151793   2.418   6.043  15.944
10126TIP3    H251794   2.531   5.949  15.935
10127TIP3   OH251795   2.278   7.030  15.824
10127TIP3    H151796   2.345   7.092  15.857
10127TIP3    H251797   2.333   6.979  15.762
10128TIP3   OH251798   2.111   6.292  15.742
10128TIP3    H151799   2.109   6.387  15.766
10128TIP3    H251800   2.022   6.272  15.714
10129TIP3   OH251801   2.891   7.267  15.662
10129TIP3    H151802   2.822   7.202  15.684
10129TIP3    H251803   2.965   7.211  15.636
10130TIP3   OH251804   3.366   7.243  15.694
10130TIP3    H151805   3.387   7.158  15.732
10130TIP3    H251806   3.436   7.259  15.628
10131TIP3   OH251807   2.432   6.834  15.660
10131TIP3    H151808   2.452   6.761  15.720
10131TIP3    H251809   2.510   6.828  15.600
10132TIP3   OH251810   2.981   6.949  15.637
10132TIP3    H151811   2.953   6.960  15.731
10132TIP3    H251812   2.958   6.855  15.624
10133TIP3   OH251813   2.555   6.636  15.891
10133TIP3    H151814   2.509   6.585  15.960
10133TIP3    H251815   2.585   6.568  15.828
10134TIP3   OH251816   2.663   6.454  15.722
10134TIP3    H151817   2.650   6.452  15.626
10134TIP3    H251818   2.760   6.467  15.730
10135TIP3   OH251819   3.601   6.698  15.668
10135TIP3    H151820   3.579   6.658  15.582
10135TIP3    H251821   3.605   6.794  15.645
10136TIP3   OH251822   2.004   6.991  15.774
10136TIP3    H151823   2.099   7.000  15.797
10136TIP3    H251824   2.010   6.922  15.705
10137TIP3   OH251825   3.722   6.565  15.875
10137TIP3    H151826   3.672   6.608  15.802
10137TIP3    H251827   3.718   6.632  15.947
10138TIP3   OH251828   3.554   6.301  15.739
10138TIP3    H151829   3.560   6.365  15.667
10138TIP3    H251830   3.533   6.218  15.691
10139TIP3   OH251831   3.477   6.046  15.655
10139TIP3    H151832   3.538   6.001  15.716
10139TIP3    H251833   3.392   6.004  15.673
10140TIP3   OH251834   3.681   5.932  15.809
10140TIP3    H151835   3.725   5.859  15.761
10140TIP3    H251836   3.754   5.996  15.819
10141TIP3   OH251837   2.039   5.736  15.910
10141TIP3    H151838   2.090   5.800  15.858
10141TIP3    H251839   1.985   5.796  15.961
10142TIP3   OH251840   2.222   5.929  15.758
10142TIP3    H151841   2.275   5.865  15.707
10142TIP3    H251842   2.286   5.955  15.828
10143TIP3   OH251843   4.824   6.445  15.779
10143TIP3    H151844   4.900   6.452  15.842
10143TIP3    H251845   4.861   6.379  15.720
10144TIP3   OH251846   5.047   6.513  15.925
10144TIP3    H151847   5.089   6.543  16.009
10144TIP3    H251848   5.082   6.578  15.862
10145TIP3   OH251849   5.424   5.709  15.924
10145TIP3    H151850   5.333   5.720  15.958
10145TIP3    H251851   5.447   5.795  15.886
10146TIP3   OH251852   5.546   7.143  15.750
10146TIP3    H151853   5.550   7.233  15.784
10146TIP3    H251854   5.638   7.112  15.766
10147TIP3   OH251855   5.204   6.637  15.716
10147TIP3    H151856   5.196   6.617  15.619
10147TIP3    H251857   5.288   6.685  15.717
10148TIP3   OH251858   4.756   6.026  15.766
10148TIP3    H151859   4.731   6.029  15.859
10148TIP3    H251860   4.728   5.937  15.740
10149TIP3   OH251861   4.442   6.068  15.683
10149TIP3    H151862   4.393   6.026  15.757
10149TIP3    H251863   4.371   6.111  15.633
10150TIP3   OH251864   3.890   6.099  15.917
10150TIP3    H151865   3.949   6.166  15.875
10150TIP3    H251866   3.828   6.163  15.957
10151TIP3   OH251867   4.310   6.339  15.826
10151TIP3    H151868   4.254   6.310  15.752
10151TIP3    H251869   4.388   6.368  15.777
10152TIP3   OH251870   5.029   6.089  15.834
10152TIP3    H151871   4.933   6.098  15.823
10152TIP3    H251872   5.061   6.172  15.871
10153TIP3   OH251873   4.854   6.942  15.922
10153TIP3    H151874   4.818   7.029  15.946
10153TIP3    H251875   4.782   6.883  15.942
10154TIP3   OH251876   5.609   6.292  15.959
10154TIP3    H151877   5.545   6.258  15.892
10154TIP3    H251878   5.606   6.387  15.936
10155TIP3   OH251879   3.969   6.571  15.786
10155TIP3    H151880   4.029   6.631  15.836
10155TIP3    H251881   3.881   6.600  15.815
10156TIP3   OH251882   5.167   6.966  15.794
10156TIP3    H151883   5.195   6.939  15.883
10156TIP3    H251884   5.071   6.962  15.806
10157TIP3   OH251885   4.576   7.082  15.644
10157TIP3    H151886   4.585   7.004  15.588
10157TIP3    H251887   4.536   7.042  15.725
10158TIP3   OH251888   4.453   7.036  15.888
10158TIP3    H151889   4.472   6.988  15.970
10158TIP3    H251890   4.465   7.127  15.919
10159TIP3   OH251891   4.089   6.766  15.926
10159TIP3    H151892   4.038   6.797  16.000
10159TIP3    H251893   4.159   6.834  15.916
10160TIP3   OH251894   4.693   7.168  15.901
10160TIP3    H151895   4.634   7.232  15.946
10160TIP3    H251896   4.765   7.228  15.877
10161TIP3   OH251897   4.482   0.007  15.972
10161TIP3    H151898   4.477   0.080  15.908
10161TIP3    H251899   4.442   0.042  16.052
10162TIP3   OH251900   4.327   5.959  15.901
10162TIP3    H151901   4.303   6.042  15.944
10162TIP3    H251902   4.417   5.949  15.935
10163TIP3   OH251903   4.164   7.030  15.825
10163TIP3    H151904   4.230   7.093  15.857
10163TIP3    H251905   4.218   6.979  15.762
10164TIP3   OH251906   3.997   6.292  15.742
10164TIP3    H151907   3.995   6.387  15.766
10164TIP3    H251908   3.908   6.271  15.715
10165TIP3   OH251909   4.779   7.265  15.669
10165TIP3    H151910   4.705   7.202  15.680
10165TIP3    H251911   4.849   7.212  15.631
10166TIP3   OH251912   5.249   7.240  15.692
10166TIP3    H151913   5.276   7.157  15.731
10166TIP3    H251914   5.319   7.260  15.627
10167TIP3   OH251915   4.321   6.836  15.663
10167TIP3    H151916   4.338   6.761  15.721
10167TIP3    H251917   4.396   6.828  15.600
10168TIP3   OH251918   4.868   6.950  15.640
10168TIP3    H151919   4.836   6.959  15.731
10168TIP3    H251920   4.845   6.856  15.621
10169TIP3   OH251921   4.440   6.637  15.891
10169TIP3    H151922   4.395   6.585  15.960
10169TIP3    H251923   4.471   6.568  15.828
10170TIP3   OH251924   4.549   6.457  15.723
10170TIP3    H151925   4.534   6.451  15.627
10170TIP3    H251926   4.647   6.467  15.730
10171TIP3   OH251927   5.486   6.698  15.668
10171TIP3    H151928   5.465   6.658  15.581
10171TIP3    H251929   5.491   6.794  15.645
10172TIP3   OH251930   3.891   6.992  15.774
10172TIP3    H151931   3.986   6.999  15.797
10172TIP3    H251932   3.894   6.922  15.705
10173TIP3   OH251933   5.606   6.566  15.875
10173TIP3    H151934   5.557   6.609  15.802
10173TIP3    H251935   5.603   6.633  15.947
10174TIP3   OH251936   5.440   6.301  15.739
10174TIP3    H151937   5.445   6.365  15.667
10174TIP3    H251938   5.419   6.218  15.691
10175TIP3   OH251939   5.362   6.047  15.655
10175TIP3    H151940   5.423   6.001  15.716
10175TIP3    H251941   5.277   6.004  15.674
10176TIP3   OH251942   5.567   5.932  15.809
10176TIP3    H151943   5.610   5.858  15.759
10176TIP3    H251944   5.639   5.996  15.819
10177TIP3   OH251945   3.924   5.737  15.908
10177TIP3    H151946   3.975   5.802  15.858
10177TIP3    H251947   3.872   5.795  15.963
10178TIP3   OH251948   4.109   5.930  15.757
10178TIP3    H151949   4.161   5.865  15.708
10178TIP3    H251950   4.171   5.955  15.828
10179TIP3   OH251951   6.710   6.445  15.780
10179TIP3    H151952   6.785   6.452  15.843
10179TIP3    H251953   6.746   6.379  15.720
10180TIP3   OH251954   6.929   6.513  15.929
10180TIP3    H151955   6.974   6.544  16.010
10180TIP3    H251956   6.964   6.576  15.864
10181TIP3   OH251957   7.090   6.634  15.717
10181TIP3    H151958   7.083   6.615  15.621
10181TIP3    H251959   7.170   6.687  15.719
10182TIP3   OH251960   6.648   6.022  15.768
10182TIP3    H151961   6.615   6.029  15.859
10182TIP3    H251962   6.610   5.937  15.739
10183TIP3   OH251963   6.328   6.068  15.684
10183TIP3    H151964   6.279   6.026  15.757
10183TIP3    H251965   6.257   6.111  15.633
10184TIP3   OH251966   5.776   6.099  15.917
10184TIP3    H151967   5.835   6.166  15.875
10184TIP3    H251968   5.714   6.163  15.957
10185TIP3   OH251969   6.196   6.339  15.826
10185TIP3    H151970   6.139   6.310  15.752
10185TIP3    H251971   6.274   6.368  15.777
10186TIP3   OH251972   6.917   6.085  15.837
10186TIP3    H151973   6.821   6.096  15.820
10186TIP3    H251974   6.942   6.172  15.869
10187TIP3   OH251975   6.739   6.942  15.922
10187TIP3    H151976   6.703   7.029  15.946
10187TIP3    H251977   6.666   6.883  15.943
10188TIP3   OH251978   5.854   6.571  15.786
10188TIP3    H151979   5.914   6.631  15.837
10188TIP3    H251980   5.766   6.600  15.815
10189TIP3   OH251981   7.047   6.964  15.793
10189TIP3    H151982   7.079   6.940  15.881
10189TIP3    H251983   6.952   6.959  15.807
10190TIP3   OH251984   6.461   7.082  15.643
10190TIP3    H151985   6.470   7.003  15.588
10190TIP3    H251986   6.422   7.043  15.725
10191TIP3   OH251987   6.338   7.035  15.889
10191TIP3    H151988   6.360   6.987  15.970
10191TIP3    H251989   6.350   7.127  15.919
10192TIP3   OH251990   5.975   6.766  15.925
10192TIP3    H151991   5.924   6.795  16.001
10192TIP3    H251992   6.046   6.834  15.917
10193TIP3   OH251993   6.579   7.168  15.900
10193TIP3    H151994   6.520   7.231  15.946
10193TIP3    H251995   6.652   7.229  15.877
10194TIP3   OH251996   6.366   0.008  15.971
10194TIP3    H151997   6.362   0.081  15.908
10194TIP3    H251998   6.327   0.042  16.052
10195TIP3   OH251999   6.212   5.959  15.901
10195TIP3    H152000   6.188   6.042  15.944
10195TIP3    H252001   6.302   5.948  15.936
10196TIP3   OH252002   6.049   7.030  15.825
10196TIP3    H152003   6.115   7.093  15.857
10196TIP3    H252004   6.104   6.979  15.762
10197TIP3   OH252005   5.882   6.292  15.742
10197TIP3    H152006   5.880   6.387  15.766
10197TIP3    H252007   5.793   6.271  15.715
10198TIP3   OH252008   6.665   7.265  15.668
10198TIP3    H152009   6.591   7.202  15.680
10198TIP3    H252010   6.735   7.211  15.632
10199TIP3   OH252011   7.141   7.243  15.697
10199TIP3    H152012   7.159   7.155  15.731
10199TIP3    H252013   7.206   7.258  15.626
10200TIP3   OH252014   6.206   6.836  15.662
10200TIP3    H152015   6.223   6.760  15.721
10200TIP3    H252016   6.281   6.827  15.600
10201TIP3   OH252017   6.752   6.950  15.640
10201TIP3    H152018   6.721   6.959  15.731
10201TIP3    H252019   6.729   6.855  15.621
10202TIP3   OH252020   6.326   6.637  15.891
10202TIP3    H152021   6.281   6.585  15.960
10202TIP3    H252022   6.356   6.568  15.828
10203TIP3   OH252023   6.435   6.457  15.723
10203TIP3    H152024   6.421   6.452  15.626
10203TIP3    H252025   6.533   6.467  15.730
10204TIP3   OH252026   5.775   6.991  15.774
10204TIP3    H152027   5.870   7.000  15.797
10204TIP3    H252028   5.781   6.922  15.704
10205TIP3   OH252029   7.248   6.040  15.651
10205TIP3    H152030   7.309   6.008  15.719
10205TIP3    H252031   7.161   6.004  15.672
10206TIP3   OH252032   5.810   5.737  15.906
10206TIP3    H152033   5.861   5.803  15.857
10206TIP3    H252034   5.758   5.792  15.965
10207TIP3   OH252035   5.994   5.930  15.757
10207TIP3    H152036   6.046   5.864  15.709
10207TIP3    H252037   6.056   5.955  15.828
10208TIP3   OH252038   1.185   1.014   0.670
10208TIP3    H152039   1.185   1.112   0.669
10208TIP3    H252040   1.112   0.991   0.610
10209TIP3   OH252041   1.067   0.939   1.019
10209TIP3    H152042   1.071   0.876   1.093
10209TIP3    H252043   1.036   0.887   0.944
10210TIP3   OH252044   0.311   0.906   1.172
10210TIP3    H152045   0.317   0.839   1.243
10210TIP3    H252046   0.381   0.967   1.200
10211TIP3   OH252047   1.437   1.235   0.846
10211TIP3    H152048   1.399   1.164   0.900
10211TIP3    H252049   1.443   1.304   0.916
10212TIP3   OH252050   0.398   1.350   1.027
10212TIP3    H152051   0.367   1.265   0.993
10212TIP3    H252052   0.494   1.333   1.030
10213TIP3   OH252053   0.090   0.707   0.533
10213TIP3    H152054   0.045   0.787   0.569
10213TIP3    H252055   0.011   0.653   0.534
10214TIP3   OH252056   0.130   0.925   0.785
10214TIP3    H152057   0.160   0.848   0.837
10214TIP3    H252058   0.204   0.941   0.724
10215TIP3   OH252059   1.150   1.750   0.873
10215TIP3    H152060   1.216   1.682   0.844
10215TIP3    H252061   1.130   1.716   0.959
10216TIP3   OH252062   0.906   1.180   1.066
10216TIP3    H152063   0.945   1.117   1.003
10216TIP3    H252064   0.987   1.195   1.121
10217TIP3   OH252065   1.767   0.345   1.140
10217TIP3    H152066   1.786   0.402   1.218
10217TIP3    H252067   1.823   0.387   1.074
10218TIP3   OH252068   1.225   0.626   1.100
10218TIP3    H152069   1.241   0.530   1.100
10218TIP3    H252070   1.214   0.641   1.004
10219TIP3   OH252071   0.538   0.435   0.823
10219TIP3    H152072   0.549   0.518   0.774
10219TIP3    H252073   0.498   0.380   0.752
10220TIP3   OH252074   1.311   0.441   0.658
10220TIP3    H152075   1.376   0.414   0.726
10220TIP3    H252076   1.366   0.499   0.603
10221TIP3   OH252077   0.195   0.667   0.888
10221TIP3    H152078   0.268   0.621   0.934
10221TIP3    H252079   0.213   0.641   0.797
10222TIP3   OH252080   0.714   0.832   0.826
10222TIP3    H152081   0.782   0.774   0.865
10222TIP3    H252082   0.663   0.766   0.774
10223TIP3   OH252083   1.813   0.486   1.368
10223TIP3    H152084   1.751   0.561   1.358
10223TIP3    H252085   1.815   0.475   1.463
10224TIP3   OH252086   0.430   0.328   1.222
10224TIP3    H152087   0.397   0.387   1.151
10224TIP3    H252088   0.361   0.348   1.291
10225TIP3   OH252089   1.155   1.273   0.579
10225TIP3    H152090   1.128   1.246   0.489
10225TIP3    H252091   1.125   1.366   0.584
10226TIP3   OH252092   0.680   1.090   1.248
10226TIP3    H152093   0.609   1.154   1.270
10226TIP3    H252094   0.751   1.150   1.219
10227TIP3   OH252095   1.492   0.376   0.856
10227TIP3    H152096   1.467   0.302   0.912
10227TIP3    H252097   1.558   0.421   0.910
10228TIP3   OH252098   0.381   0.513   1.027
10228TIP3    H152099   0.445   0.580   1.062
10228TIP3    H252100   0.435   0.473   0.954
10229TIP3   OH252101   0.522   1.289   1.329
10229TIP3    H152102   0.518   1.381   1.297
10229TIP3    H252103   0.434   1.281   1.373
10230TIP3   OH252104   0.127   1.255   0.407
10230TIP3    H152105   0.110   1.288   0.317
10230TIP3    H252106   0.140   1.336   0.461
10231TIP3   OH252107   1.503   1.438   1.062
10231TIP3    H152108   1.411   1.424   1.097
10231TIP3    H252109   1.517   1.532   1.065
10232TIP3   OH252110   1.528   0.246   1.231
10232TIP3    H152111   1.453   0.305   1.215
10232TIP3    H252112   1.597   0.287   1.174
10233TIP3   OH252113   0.817   0.058   0.952
10233TIP3    H152114   0.823  -0.038   0.968
10233TIP3    H252115   0.744   0.094   1.003
10234TIP3   OH252116   1.317   1.597   0.743
10234TIP3    H152117   1.361   1.524   0.696
10234TIP3    H252118   1.363   1.676   0.705
10235TIP3   OH252119   1.440   1.389   0.597
10235TIP3    H152120   1.410   1.320   0.534
10235TIP3    H252121   1.442   1.339   0.681
10236TIP3   OH252122   1.610   1.248   1.448
10236TIP3    H152123   1.611   1.184   1.373
10236TIP3    H252124   1.618   1.331   1.399
10237TIP3   OH252125   1.050   0.937   0.419
10237TIP3    H152126   0.981   0.996   0.382
10237TIP3    H252127   1.121   0.947   0.353
10238TIP3   OH252128   1.051   0.787   0.133
10238TIP3    H152129   1.129   0.794   0.190
10238TIP3    H252130   1.086   0.728   0.067
10239TIP3   OH252131   1.798   0.876   1.252
10239TIP3    H152132   1.728   0.946   1.255
10239TIP3    H252133   1.840   0.903   1.168
10240TIP3   OH252134   1.395   0.958   0.516
10240TIP3    H152135   1.320   0.983   0.577
10240TIP3    H252136   1.443   0.891   0.568
10241TIP3   OH252137   1.387   0.774   1.428
10241TIP3    H152138   1.390   0.858   1.477
10241TIP3    H252139   1.327   0.805   1.357
10242TIP3   OH252140   0.559   1.026   0.706
10242TIP3    H152141   0.523   0.985   0.623
10242TIP3    H252142   0.619   0.955   0.739
10243TIP3   OH252143   0.688   1.363   0.974
10243TIP3    H152144   0.689   1.310   0.893
10243TIP3    H252145   0.767   1.327   1.020
10244TIP3   OH252146   0.593   0.899   1.072
10244TIP3    H152147   0.646   0.910   0.991
10244TIP3    H252148   0.629   0.968   1.133
10245TIP3   OH252149   1.221   1.463   1.140
10245TIP3    H152150   1.202   1.520   1.214
10245TIP3    H252151   1.215   1.373   1.181
10246TIP3   OH252152   0.685   1.343   1.542
10246TIP3    H152153   0.644   1.418   1.589
10246TIP3    H252154   0.620   1.323   1.471
10247TIP3   OH252155   1.284   0.877   0.283
10247TIP3    H152156   1.338   0.898   0.363
10247TIP3    H252157   1.325   0.932   0.213
10248TIP3   OH252158   0.379   0.959   1.460
10248TIP3    H152159   0.383   1.028   1.529
10248TIP3    H252160   0.285   0.968   1.436
10249TIP3   OH252161   1.053   1.551   0.627
10249TIP3    H152162   1.097   1.582   0.708
10249TIP3    H252163   0.999   1.626   0.602
10250TIP3   OH252164   0.509   1.549   1.615
10250TIP3    H152165   0.502   1.534   1.519
10250TIP3    H252166   0.417   1.533   1.643
10251TIP3   OH252167   1.655   0.068   0.251
10251TIP3    H152168   1.566   0.071   0.290
10251TIP3    H252169   1.674   0.157   0.220
10252TIP3   OH252170   0.456   0.927   0.467
10252TIP3    H152171   0.427   1.004   0.414
10252TIP3    H252172   0.389   0.862   0.445
10253TIP3   OH252173   1.763   1.486   0.109
10253TIP3    H152174   1.778   1.582   0.119
10253TIP3    H252175   1.856   1.457   0.101
10254TIP3   OH252176   0.122   1.157   1.332
10254TIP3    H152177   0.045   1.169   1.272
10254TIP3    H252178   0.085   1.078   1.378
10255TIP3   OH252179   0.070   1.468   1.007
10255TIP3    H152180   0.151   1.426   1.036
10255TIP3    H252181   0.040   1.513   1.087
10256TIP3   OH252182   1.863   1.514   1.604
10256TIP3    H152183   1.851   1.418   1.601
10256TIP3    H252184   1.775   1.538   1.642
10257TIP3   OH252185   0.956   1.469   1.491
10257TIP3    H152186   0.963   1.553   1.542
10257TIP3    H252187   0.869   1.432   1.516
10258TIP3   OH252188   1.000   1.841   0.468
10258TIP3    H152189   0.994   1.837   0.371
10258TIP3    H252190   1.006   1.938   0.486
10259TIP3   OH252191   0.364   1.732   0.651
10259TIP3    H152192   0.380   1.690   0.739
10259TIP3    H252193   0.283   1.686   0.627
10260TIP3   OH252194   1.302   1.762   0.166
10260TIP3    H152195   1.353   1.689   0.123
10260TIP3    H252196   1.313   1.738   0.260
10261TIP3   OH252197   1.277   1.757   0.446
10261TIP3    H152198   1.181   1.764   0.464
10261TIP3    H252199   1.301   1.683   0.504
10262TIP3   OH252200   1.577   0.659   1.651
10262TIP3    H152201   1.530   0.705   1.580
10262TIP3    H252202   1.576   0.567   1.620
10263TIP3   OH252203   0.293   1.310   1.458
10263TIP3    H152204   0.311   1.265   1.543
10263TIP3    H252205   0.210   1.265   1.429
10264TIP3   OH252206   0.552   0.158   1.045
10264TIP3    H152207   0.460   0.157   1.008
10264TIP3    H252208   0.541   0.242   1.096
10265TIP3   OH252209   1.020   0.115   1.384
10265TIP3    H152210   1.064   0.077   1.460
10265TIP3    H252211   0.926   0.108   1.406
10266TIP3   OH252212   1.352   0.496   1.473
10266TIP3    H152213   1.294   0.481   1.551
10266TIP3    H252214   1.336   0.589   1.449
10267TIP3   OH252215   1.437   0.990   0.068
10267TIP3    H152216   1.436   0.969  -0.027
10267TIP3    H252217   1.526   1.030   0.076
10268TIP3   OH252218   0.987   0.373   0.117
10268TIP3    H152219   0.958   0.367   0.210
10268TIP3    H252220   0.965   0.284   0.087
10269TIP3   OH252221   0.567   0.646   1.171
10269TIP3    H152222   0.496   0.647   1.237
10269TIP3    H252223   0.566   0.737   1.135
10270TIP3   OH252224   0.568   0.659   0.658
10270TIP3    H152225   0.474   0.635   0.644
10270TIP3    H252226   0.605   0.629   0.573
10271TIP3   OH252227   1.120   0.708   0.531
10271TIP3    H152228   1.078   0.791   0.499
10271TIP3    H252229   1.189   0.692   0.464
10272TIP3   OH252230   1.023   0.730   1.678
10272TIP3    H152231   0.970   0.652   1.709
10272TIP3    H252232   1.107   0.717   1.726
10273TIP3   OH252233   1.221   0.657   0.820
10273TIP3    H152234   1.193   0.713   0.746
10273TIP3    H252235   1.230   0.573   0.773
10274TIP3   OH252236   0.334   0.670   1.340
10274TIP3    H152237   0.335   0.712   1.427
10274TIP3    H252238   0.285   0.589   1.359
10275TIP3   OH252239   0.690   0.438   0.061
10275TIP3    H152240   0.632   0.375   0.108
10275TIP3    H252241   0.635   0.474  -0.009
10276TIP3   OH252242   0.034   0.413   0.718
10276TIP3    H152243   0.069   0.382   0.805
10276TIP3    H252244   0.050   0.338   0.662
10277TIP3   OH252245   0.125   0.470   0.276
10277TIP3    H152246   0.178   0.521   0.212
10277TIP3    H252247   0.052   0.526   0.297
10278TIP3   OH252248   1.137   0.815   1.274
10278TIP3    H152249   1.179   0.748   1.216
10278TIP3    H252250   1.094   0.762   1.343
10279TIP3   OH252251   0.820   0.410   0.756
10279TIP3    H152252   0.728   0.414   0.788
10279TIP3    H252253   0.871   0.399   0.838
10280TIP3   OH252254   0.304   0.568   0.645
10280TIP3    H152255   0.216   0.584   0.605
10280TIP3    H252256   0.331   0.484   0.605
10281TIP3   OH252257   0.665   0.575   0.410
10281TIP3    H152258   0.761   0.584   0.425
10281TIP3    H252259   0.641   0.641   0.341
10282TIP3   OH252260   1.262   0.337   1.082
10282TIP3    H152261   1.193   0.343   1.151
10282TIP3    H252262   1.212   0.308   1.004
10283TIP3   OH252263   0.538   0.690   0.167
10283TIP3    H152264   0.481   0.656   0.097
10283TIP3    H252265   0.620   0.711   0.119
10284TIP3   OH252266   1.582   1.901   1.715
10284TIP3    H152267   1.608   1.939   1.630
10284TIP3    H252268   1.654   1.933   1.771
10285TIP3   OH252269   0.347   1.146   1.673
10285TIP3    H152270   0.421   1.171   1.732
10285TIP3    H252271   0.272   1.158   1.734
10286TIP3   OH252272   0.948   0.687   0.946
10286TIP3    H152273   1.010   0.634   0.895
10286TIP3    H252274   0.935   0.634   1.026
10287TIP3   OH252275   0.447   0.308   0.594
10287TIP3    H152276   0.416   0.216   0.591
10287TIP3    H252277   0.526   0.300   0.538
10288TIP3   OH252278   0.814   0.527   1.188
10288TIP3    H152279   0.730   0.575   1.199
10288TIP3    H252280   0.869   0.558   1.262
10289TIP3   OH252281   0.873   1.142   0.362
10289TIP3    H152282   0.792   1.097   0.327
10289TIP3    H252283   0.850   1.155   0.456
10290TIP3   OH252284   1.609   1.042   1.234
10290TIP3    H152285   1.648   1.112   1.179
10290TIP3    H252286   1.516   1.066   1.207
10291TIP3   OH252287   1.258   0.428   0.176
10291TIP3    H152288   1.163   0.440   0.158
10291TIP3    H252289   1.289   0.512   0.213
10292TIP3   OH252290   1.018   1.169   1.487
10292TIP3    H152291   0.985   1.128   1.567
10292TIP3    H252292   0.997   1.263   1.494
10293TIP3   OH252293   1.330   0.617   0.341
10293TIP3    H152294   1.419   0.601   0.377
10293TIP3    H252295   1.340   0.698   0.290
10294TIP3   OH252296   0.382   1.084   0.938
10294TIP3    H152297   0.450   1.075   0.868
10294TIP3    H252298   0.392   1.000   0.986
10295TIP3   OH252299   1.082   1.290   0.265
10295TIP3    H152300   1.045   1.374   0.298
10295TIP3    H252301   1.008   1.227   0.283
10296TIP3   OH252302   0.079   0.922   1.465
10296TIP3    H152303   0.105   0.878   1.549
10296TIP3    H252304   0.020   0.858   1.423
10297TIP3   OH252305   0.783   0.880   1.683
10297TIP3    H152306   0.751   0.849   1.597
10297TIP3    H252307   0.875   0.847   1.683
10298TIP3   OH252308   1.252   1.414   1.478
10298TIP3    H152309   1.160   1.430   1.453
10298TIP3    H252310   1.248   1.442   1.571
10299TIP3   OH252311   1.817   0.633   0.321
10299TIP3    H152312   1.762   0.600   0.248
10299TIP3    H252313   1.828   0.725   0.290
10300TIP3   OH252314   1.819   1.218   1.599
10300TIP3    H152315   1.729   1.239   1.561
10300TIP3    H252316   1.871   1.212   1.516
10301TIP3   OH252317   1.646   1.515   0.353
10301TIP3    H152318   1.611   1.432   0.388
10301TIP3    H252319   1.678   1.493   0.263
10302TIP3   OH252320   1.367   0.978   1.045
10302TIP3    H152321   1.272   0.966   1.055
10302TIP3    H252322   1.407   0.895   1.017
10303TIP3   OH252323   0.619   1.429   0.679
10303TIP3    H152324   0.670   1.509   0.657
10303TIP3    H252325   0.531   1.452   0.645
10304TIP3   OH252326   0.190   0.911   0.136
10304TIP3    H152327   0.256   0.974   0.172
10304TIP3    H252328   0.106   0.947   0.168
10305TIP3   OH252329   0.762   1.196   0.631
10305TIP3    H152330   0.730   1.288   0.638
10305TIP3    H252331   0.690   1.146   0.674
10306TIP3   OH252332   0.806   1.617   1.272
10306TIP3    H152333   0.856   1.693   1.240
10306TIP3    H252334   0.870   1.577   1.335
10307TIP3   OH252335   0.629   1.696   0.579
10307TIP3    H152336   0.533   1.707   0.597
10307TIP3    H252337   0.666   1.777   0.619
10308TIP3   OH252338   1.112   1.204   1.234
10308TIP3    H152339   1.118   1.196   1.331
10308TIP3    H252340   1.203   1.168   1.212
10309TIP3   OH252341   1.390   1.319   0.146
10309TIP3    H152342   1.420   1.271   0.226
10309TIP3    H252343   1.294   1.302   0.151
10310TIP3   OH252344   1.439   1.672   1.481
10310TIP3    H152345   1.372   1.620   1.432
10310TIP3    H252346   1.459   1.740   1.414
10311TIP3   OH252347   1.839   1.759   0.171
10311TIP3    H152348   1.908   1.822   0.143
10311TIP3    H252349   1.766   1.821   0.194
10312TIP3   OH252350   0.247   0.396   1.418
10312TIP3    H152351   0.159   0.434   1.426
10312TIP3    H252352   0.233   0.309   1.462
10313TIP3   OH252353   1.471   1.183   0.367
10313TIP3    H152354   1.447   1.103   0.418
10313TIP3    H252355   1.566   1.190   0.387
10314TIP3   OH252356   0.226   1.581   1.259
10314TIP3    H152357   0.237   1.485   1.263
10314TIP3    H252358   0.231   1.602   1.353
10315TIP3   OH252359   0.682   1.384   0.233
10315TIP3    H152360   0.708   1.328   0.308
10315TIP3    H252361   0.692   1.476   0.268
10316TIP3   OH252362   0.331   1.106   0.288
10316TIP3    H152363   0.261   1.147   0.343
10316TIP3    H252364   0.384   1.182   0.260
10317TIP3   OH252365   1.122   0.374   1.315
10317TIP3    H152366   1.193   0.380   1.379
10317TIP3    H252367   1.084   0.285   1.333
10318TIP3   OH252368   1.198   0.331   0.425
10318TIP3    H152369   1.220   0.379   0.342
10318TIP3    H252370   1.252   0.380   0.488
10319TIP3   OH252371   0.962   1.549   0.305
10319TIP3    H152372   0.881   1.601   0.315
10319TIP3    H252373   1.017   1.601   0.245
10320TIP3   OH252374   0.917   0.504   0.506
10320TIP3    H152375   0.995   0.564   0.508
10320TIP3    H252376   0.892   0.496   0.600
10321TIP3   OH252377   0.973   0.609   1.426
10321TIP3    H152378   0.981   0.664   1.506
10321TIP3    H252379   1.040   0.540   1.436
10322TIP3   OH252380   1.006   0.214   0.601
10322TIP3    H152381   0.970   0.281   0.661
10322TIP3    H252382   1.070   0.267   0.549
10323TIP3   OH252383   0.696   1.653   0.310
10323TIP3    H152384   0.717   1.735   0.260
10323TIP3    H252385   0.675   1.686   0.399
10324TIP3   OH252386   0.571   0.319   0.266
10324TIP3    H152387   0.560   0.409   0.303
10324TIP3    H252388   0.662   0.303   0.297
10325TIP3   OH252389   1.591   0.396   1.512
10325TIP3    H152390   1.498   0.428   1.498
10325TIP3    H252391   1.621   0.393   1.419
10326TIP3   OH252392   1.455   0.770   0.905
10326TIP3    H152393   1.369   0.730   0.885
10326TIP3    H252394   1.500   0.705   0.964
10327TIP3   OH252395   0.391   1.370   0.169
10327TIP3    H152396   0.457   1.431   0.203
10327TIP3    H252397   0.444   1.322   0.102
10328TIP3   OH252398   0.231   0.636   0.091
10328TIP3    H152399   0.231   0.733   0.104
10328TIP3    H252400   0.145   0.614   0.055
10329TIP3   OH252401   1.558   1.706   1.080
10329TIP3    H152402   1.551   1.771   1.008
10329TIP3    H252403   1.655   1.705   1.095
10330TIP3   OH252404   0.293   0.125   0.966
10330TIP3    H152405   0.286   0.122   0.868
10330TIP3    H252406   0.260   0.037   0.987
10331TIP3   OH252407   0.205   1.506   0.575
10331TIP3    H152408   0.119   1.548   0.571
10331TIP3    H252409   0.252   1.550   0.503
10332TIP3   OH252410   0.154   1.773   1.701
10332TIP3    H152411   0.195   1.750   1.786
10332TIP3    H252412   0.102   1.692   1.685
10333TIP3   OH252413   0.591   1.660   1.864
10333TIP3    H152414   0.668   1.611   1.896
10333TIP3    H252415   0.589   1.634   1.769
10334TIP3   OH252416   1.051   1.623   0.062
10334TIP3    H152417   0.965   1.576   0.060
10334TIP3    H252418   1.096   1.575  -0.007
10335TIP3   OH252419   1.243   1.500   1.738
10335TIP3    H152420   1.211   1.412   1.765
10335TIP3    H252421   1.319   1.513   1.798
10336TIP3   OH252422   1.464   1.592   0.023
10336TIP3    H152423   1.488   1.511   0.071
10336TIP3    H252424   1.542   1.610  -0.031
10337TIP3   OH252425   0.111   1.148   1.800
10337TIP3    H152426   0.133   1.058   1.768
10337TIP3    H252427   0.040   1.175   1.742
10338TIP3   OH252428   0.560   1.189   0.016
10338TIP3    H152429   0.566   1.106   0.064
10338TIP3    H252430   0.616   1.164  -0.060
10339TIP3   OH252431   0.787   1.147   1.740
10339TIP3    H152432   0.753   1.178   1.653
10339TIP3    H252433   0.794   1.049   1.729
10340TIP3   OH252434   1.357   1.134   1.500
10340TIP3    H152435   1.432   1.188   1.467
10340TIP3    H252436   1.287   1.197   1.478
10341TIP3   OH252437   0.200   0.869   1.739
10341TIP3    H152438   0.249   0.785   1.730
10341TIP3    H252439   0.183   0.870   1.834
10342TIP3   OH252440   0.672   0.986   0.245
10342TIP3    H152441   0.621   0.932   0.308
10342TIP3    H252442   0.703   0.918   0.181
10343TIP3   OH252443   0.597   0.763   1.475
10343TIP3    H152444   0.537   0.835   1.501
10343TIP3    H252445   0.636   0.801   1.394
10344TIP3   OH252446   0.778   0.804   0.066
10344TIP3    H152447   0.767   0.792  -0.030
10344TIP3    H252448   0.877   0.811   0.075
10345TIP3   OH252449   1.104   1.021   1.809
10345TIP3    H152450   1.200   1.020   1.797
10345TIP3    H252451   1.087   0.944   1.866
10346TIP3   OH252452   1.691   1.056  16.018
10346TIP3    H152453   1.686   1.003  15.937
10346TIP3    H252454   1.718   1.144  15.988
10347TIP3   OH252455   0.639   0.502   1.581
10347TIP3    H152456   0.649   0.431   1.516
10347TIP3    H252457   0.631   0.583   1.526
10348TIP3   OH252458   0.678   0.339   1.329
10348TIP3    H152459   0.729   0.392   1.264
10348TIP3    H252460   0.586   0.335   1.293
10349TIP3   OH252461   0.831   0.889   1.360
10349TIP3    H152462   0.907   0.874   1.303
10349TIP3    H252463   0.795   0.973   1.327
10350TIP3   OH252464   1.271   0.664   1.857
10350TIP3    H152465   1.296   0.571   1.846
10350TIP3    H252466   1.357   0.709   1.860
10351TIP3   OH252467   1.405   0.943   1.675
10351TIP3    H152468   1.380   1.015   1.612
10351TIP3    H252469   1.501   0.941   1.653
10352TIP3   OH252470   0.480   0.629   1.772
10352TIP3    H152471   0.404   0.568   1.756
10352TIP3    H252472   0.547   0.592   1.711
10353TIP3   OH252473   0.742   0.103   1.403
10353TIP3    H152474   0.736   0.198   1.375
10353TIP3    H252475   0.682   0.064   1.340
10354TIP3   OH252476   0.882   0.520   1.737
10354TIP3    H152477   0.853   0.491   1.825
10354TIP3    H252478   0.804   0.495   1.684
10355TIP3   OH252479   1.156   0.433   1.648
10355TIP3    H152480   1.059   0.435   1.659
10355TIP3    H252481   1.184   0.369   1.716
10356TIP3   OH252482   1.315   0.304   1.839
10356TIP3    H152483   1.306   0.206   1.837
10356TIP3    H252484   1.286   0.324   1.930
10357TIP3   OH252485   0.306   0.419   1.751
10357TIP3    H152486   0.320   0.346   1.688
10357TIP3    H252487   0.286   0.372   1.834
10358TIP3   OH252488   0.776   7.324   1.650
10358TIP3    H152489   0.845   7.257   1.653
10358TIP3    H252490   0.767   7.346   1.555
10359TIP3   OH252491   0.818   0.192   1.853
10359TIP3    H152492   0.799   0.135   1.775
10359TIP3    H252493   0.753   0.264   1.846
10360TIP3   OH252494   0.758   1.876   0.171
10360TIP3    H152495   0.856   1.884   0.180
10360TIP3    H252496   0.744   1.939   0.101
10361TIP3   OH252497   0.124   1.332   0.123
10361TIP3    H152498   0.219   1.346   0.142
10361TIP3    H252499   0.125   1.277   0.044
10362TIP3   OH252500   7.339   1.887   0.599
10362TIP3    H152501   7.247   1.868   0.571
10362TIP3    H252502   7.346   1.825   0.676
10363TIP3   OH252503   0.080   1.690   0.800
10363TIP3    H152504   0.044   1.601   0.824
10363TIP3    H252505   0.104   1.718   0.890
10364TIP3   OH252506   1.831   1.765   1.098
10364TIP3    H152507   1.833   1.781   1.194
10364TIP3    H252508   1.901   1.824   1.068
10365TIP3   OH252509   1.787   1.725   1.393
10365TIP3    H152510   1.740   1.647   1.354
10365TIP3    H252511   1.836   1.680   1.464
10366TIP3   OH252512   1.632   1.297   1.860
10366TIP3    H152513   1.542   1.294   1.896
10366TIP3    H252514   1.669   1.377   1.901
10367TIP3   OH252515   1.765   1.128   0.401
10367TIP3    H152516   1.850   1.171   0.424
10367TIP3    H252517   1.761   1.059   0.471
10368TIP3   OH252518   1.799   0.937   0.591
10368TIP3    H152519   1.724   0.887   0.630
10368TIP3    H252520   1.859   0.950   0.667
10369TIP3   OH252521   1.777   1.207   1.091
10369TIP3    H152522   1.858   1.170   1.052
10369TIP3    H252523   1.788   1.302   1.073
10370TIP3   OH252524   1.631   1.497   1.317
10370TIP3    H152525   1.561   1.529   1.375
10370TIP3    H252526   1.577   1.454   1.247
10371TIP3   OH252527   1.830   0.921   0.230
10371TIP3    H152528   1.770   0.954   0.162
10371TIP3    H252529   1.822   0.991   0.297
10372TIP3   OH252530   1.603   0.638   0.094
10372TIP3    H152531   1.659   0.701   0.045
10372TIP3    H252532   1.640   0.560   0.052
10373TIP3   OH252533   1.583   0.785   0.649
10373TIP3    H152534   1.567   0.689   0.644
10373TIP3    H252535   1.549   0.806   0.738
10374TIP3   OH252536   0.084   0.992   1.047
10374TIP3    H152537   0.104   0.988   0.951
10374TIP3    H252538   0.172   0.981   1.088
10375TIP3   OH252539   1.668   0.981   1.621
10375TIP3    H152540   1.730   0.905   1.631
10375TIP3    H252541   1.727   1.059   1.616
10376TIP3   OH252542   1.818   0.769   1.683
10376TIP3    H152543   1.730   0.730   1.667
10376TIP3    H252544   1.875   0.691   1.675
10377TIP3   OH252545   1.547   0.545   0.498
10377TIP3    H152546   1.578   0.452   0.505
10377TIP3    H252547   1.625   0.584   0.457
10378TIP3   OH252548   1.612   0.599   1.039
10378TIP3    H152549   1.709   0.621   1.037
10378TIP3    H252550   1.594   0.611   1.133
10379TIP3   OH252551   1.618   0.673   1.316
10379TIP3    H152552   1.529   0.702   1.347
10379TIP3    H252553   1.661   0.759   1.294
10380TIP3   OH252554   0.072   0.513   1.670
10380TIP3    H152555   0.161   0.490   1.700
10380TIP3    H252556   0.014   0.442   1.707
10381TIP3   OH252557   1.852   0.077   1.853
10381TIP3    H152558   1.876   0.010   1.787
10381TIP3    H252559   1.853   0.159   1.801
10382TIP3   OH252560   1.616   0.275   0.499
10382TIP3    H152561   1.636   0.227   0.582
10382TIP3    H252562   1.556   0.210   0.453
10383TIP3   OH252563   0.166   0.353   0.948
10383TIP3    H152564   0.208   0.270   0.982
10383TIP3    H252565   0.219   0.420   0.995
10384TIP3   OH252566   0.051   0.728   1.095
10384TIP3    H152567   0.054   0.685   1.007
10384TIP3    H252568   0.058   0.819   1.066
10385TIP3   OH252569   1.799   0.281   1.685
10385TIP3    H152570   1.707   0.312   1.680
10385TIP3    H252571   1.803   0.229   1.603
10386TIP3   OH252572   1.802   0.278   0.158
10386TIP3    H152573   1.837   0.206   0.103
10386TIP3    H252574   1.871   0.344   0.152
10387TIP3   OH252575   0.076   0.273   0.428
10387TIP3    H152576  -0.018   0.293   0.433
10387TIP3    H252577   0.099   0.343   0.364
10388TIP3   OH252578   1.502   1.773   0.661
10388TIP3    H152579   1.571   1.743   0.599
10388TIP3    H252580   1.554   1.823   0.726
10389TIP3   OH252581   7.346   0.146   1.323
10389TIP3    H152582   7.266   0.120   1.367
10389TIP3    H252583   7.304   0.190   1.247
10390TIP3   OH252584   0.244   1.466   1.713
10390TIP3    H152585   0.160   1.484   1.670
10390TIP3    H252586   0.219   1.456   1.804
10391TIP3   OH252587   0.542   1.567   1.344
10391TIP3    H152588   0.500   1.648   1.311
10391TIP3    H252589   0.632   1.574   1.308
10392TIP3   OH252590   0.969   1.707   1.630
10392TIP3    H152591   0.983   1.671   1.720
10392TIP3    H252592   1.060   1.737   1.605
10393TIP3   OH252593   1.198   1.834   1.561
10393TIP3    H152594   1.272   1.775   1.537
10393TIP3    H252595   1.236   1.877   1.640
10394TIP3   OH252596   1.701   0.097   1.462
10394TIP3    H152597   1.616   0.128   1.425
10394TIP3    H252598   1.716   0.012   1.416
10395TIP3   OH252599   0.287   1.894   1.344
10395TIP3    H152600   0.208   1.936   1.301
10395TIP3    H252601   0.247   1.868   1.429
10396TIP3   OH252602   0.529   1.852   1.248
10396TIP3    H152603   0.434   1.849   1.280
10396TIP3    H252604   0.519   1.896   1.161
10397TIP3   OH252605   0.993   1.835   1.166
10397TIP3    H152606   0.955   1.892   1.097
10397TIP3    H252607   1.015   1.900   1.236
10398TIP3   OH252608   1.225   1.721   1.268
10398TIP3    H152609   1.141   1.746   1.228
10398TIP3    H252610   1.276   1.803   1.257
10399TIP3   OH252611   1.485   1.875   1.288
10399TIP3    H152612   1.479   1.971   1.265
10399TIP3    H252613   1.507   1.837   1.200
10400TIP3   OH252614   0.224   1.756   1.035
10400TIP3    H152615   0.220   1.706   1.119
10400TIP3    H252616   0.301   1.714   0.992
10401TIP3   OH252617   0.430   1.624   0.898
10401TIP3    H152618   0.415   1.530   0.922
10401TIP3    H252619   0.517   1.638   0.940
10402TIP3   OH252620   0.689   1.672   0.989
10402TIP3    H152621   0.709   1.582   0.959
10402TIP3    H252622   0.699   1.662   1.084
10403TIP3   OH252623   1.027   0.244   0.898
10403TIP3    H152624   0.970   0.171   0.926
10403TIP3    H252625   1.097   0.196   0.848
10404TIP3   OH252626   1.554   0.045   0.910
10404TIP3    H152627   1.616   0.100   0.857
10404TIP3    H252628   1.467   0.079   0.885
10405TIP3   OH252629   1.723   0.170   0.735
10405TIP3    H152630   1.786   0.111   0.693
10405TIP3    H252631   1.773   0.254   0.742
10406TIP3   OH252632   0.276   0.102   0.688
10406TIP3    H152633   0.201   0.079   0.632
10406TIP3    H252634   0.322   0.017   0.688
10407TIP3   OH252635   0.165   0.072   0.263
10407TIP3    H152636   0.202   0.137   0.200
10407TIP3    H252637   0.098   0.128   0.305
10408TIP3   OH252638   0.730   0.085   0.663
10408TIP3    H152639   0.815   0.133   0.656
10408TIP3    H252640   0.722   0.072   0.757
10409TIP3   OH252641   1.269   0.132   0.841
10409TIP3    H152642   1.283   0.127   0.746
10409TIP3    H252643   1.260   0.034   0.855
10410TIP3   OH252644   1.421   0.103   0.403
10410TIP3    H152645   1.347   0.158   0.373
10410TIP3    H252646   1.384   0.014   0.407
10411TIP3   OH252647   0.148   1.673   0.358
10411TIP3    H152648   0.082   1.668   0.287
10411TIP3    H252649   0.146   1.768   0.373
10412TIP3   OH252650   0.333   0.261   0.113
10412TIP3    H152651   0.387   0.208   0.053
10412TIP3    H252652   0.402   0.300   0.170
10413TIP3   OH252653   0.831   0.291   0.354
10413TIP3    H152654   0.869   0.238   0.426
10413TIP3    H252655   0.846   0.380   0.395
10414TIP3   OH252656   1.028   1.834   0.196
10414TIP3    H152657   1.125   1.831   0.180
10414TIP3    H252658   1.012   1.760   0.133
10415TIP3   OH252659   1.701   1.752   0.464
10415TIP3    H152660   1.682   1.674   0.407
10415TIP3    H252661   1.693   1.826   0.400
10416TIP3   OH252662   0.254   0.154   1.619
10416TIP3    H152663   0.221   0.078   1.670
10416TIP3    H252664   0.345   0.154   1.658
10417TIP3   OH252665   0.438   0.113   1.783
10417TIP3    H152666   0.532   0.094   1.770
10417TIP3    H252667   0.422   0.027   1.829
10418TIP3   OH252668   0.339   1.772   0.053
10418TIP3    H152669   0.299   1.792   0.139
10418TIP3    H252670   0.407   1.709   0.073
10419TIP3   OH252671   1.296   7.359   1.801
10419TIP3    H152672   1.302   7.303   1.881
10419TIP3    H252673   1.386   7.337   1.770
10420TIP3   OH252674   1.626   1.626   1.672
10420TIP3    H152675   1.546   1.612   1.617
10420TIP3    H252676   1.615   1.721   1.694
10421TIP3   OH252677   3.071   1.014   0.671
10421TIP3    H152678   3.070   1.112   0.666
10421TIP3    H252679   2.998   0.991   0.610
10422TIP3   OH252680   2.956   0.940   1.020
10422TIP3    H152681   2.955   0.875   1.092
10422TIP3    H252682   2.921   0.888   0.945
10423TIP3   OH252683   2.192   0.907   1.176
10423TIP3    H152684   2.200   0.838   1.245
10423TIP3    H252685   2.266   0.964   1.198
10424TIP3   OH252686   3.325   1.235   0.849
10424TIP3    H152687   3.284   1.163   0.898
10424TIP3    H252688   3.327   1.305   0.916
10425TIP3   OH252689   2.284   1.352   1.026
10425TIP3    H152690   2.253   1.265   0.994
10425TIP3    H252691   2.380   1.334   1.030
10426TIP3   OH252692   1.949   0.708   0.576
10426TIP3    H152693   1.905   0.794   0.568
10426TIP3    H252694   1.892   0.654   0.520
10427TIP3   OH252695   2.021   0.932   0.790
10427TIP3    H152696   2.046   0.849   0.834
10427TIP3    H252697   2.089   0.941   0.722
10428TIP3   OH252698   3.037   1.750   0.872
10428TIP3    H152699   3.102   1.681   0.844
10428TIP3    H252700   3.015   1.716   0.959
10429TIP3   OH252701   2.794   1.179   1.068
10429TIP3    H152702   2.828   1.117   1.002
10429TIP3    H252703   2.875   1.195   1.119
10430TIP3   OH252704   3.652   0.345   1.140
10430TIP3    H152705   3.672   0.402   1.218
10430TIP3    H252706   3.709   0.387   1.074
10431TIP3   OH252707   3.111   0.626   1.100
10431TIP3    H152708   3.126   0.530   1.100
10431TIP3    H252709   3.100   0.641   1.004
10432TIP3   OH252710   2.423   0.437   0.821
10432TIP3    H152711   2.433   0.520   0.771
10432TIP3    H252712   2.382   0.380   0.753
10433TIP3   OH252713   3.197   0.440   0.657
10433TIP3    H152714   3.262   0.414   0.726
10433TIP3    H252715   3.251   0.499   0.603
10434TIP3   OH252716   2.084   0.677   0.894
10434TIP3    H152717   2.151   0.622   0.940
10434TIP3    H252718   2.095   0.645   0.803
10435TIP3   OH252719   2.600   0.832   0.826
10435TIP3    H152720   2.667   0.774   0.865
10435TIP3    H252721   2.548   0.766   0.775
10436TIP3   OH252722   3.699   0.486   1.369
10436TIP3    H152723   3.636   0.561   1.358
10436TIP3    H252724   3.702   0.476   1.465
10437TIP3   OH252725   2.314   0.331   1.223
10437TIP3    H152726   2.282   0.384   1.148
10437TIP3    H252727   2.244   0.348   1.291
10438TIP3   OH252728   3.041   1.273   0.579
10438TIP3    H152729   3.014   1.246   0.490
10438TIP3    H252730   3.011   1.366   0.584
10439TIP3   OH252731   2.564   1.089   1.248
10439TIP3    H152732   2.494   1.154   1.271
10439TIP3    H252733   2.635   1.149   1.219
10440TIP3   OH252734   3.378   0.376   0.856
10440TIP3    H152735   3.353   0.302   0.912
10440TIP3    H252736   3.444   0.421   0.910
10441TIP3   OH252737   2.269   0.516   1.026
10441TIP3    H152738   2.334   0.580   1.060
10441TIP3    H252739   2.321   0.471   0.954
10442TIP3   OH252740   2.409   1.290   1.331
10442TIP3    H152741   2.404   1.381   1.297
10442TIP3    H252742   2.321   1.282   1.375
10443TIP3   OH252743   2.015   1.251   0.409
10443TIP3    H152744   1.994   1.285   0.320
10443TIP3    H252745   2.023   1.334   0.461
10444TIP3   OH252746   3.378   1.418   1.086
10444TIP3    H152747   3.281   1.429   1.098
10444TIP3    H252748   3.405   1.510   1.065
10445TIP3   OH252749   3.414   0.246   1.231
10445TIP3    H152750   3.339   0.305   1.215
10445TIP3    H252751   3.482   0.287   1.174
10446TIP3   OH252752   2.704   0.059   0.954
10446TIP3    H152753   2.703  -0.036   0.970
10446TIP3    H252754   2.625   0.086   1.004
10447TIP3   OH252755   3.204   1.597   0.744
10447TIP3    H152756   3.247   1.525   0.694
10447TIP3    H252757   3.248   1.675   0.706
10448TIP3   OH252758   3.325   1.389   0.596
10448TIP3    H152759   3.296   1.320   0.534
10448TIP3    H252760   3.328   1.340   0.680
10449TIP3   OH252761   3.486   1.249   1.446
10449TIP3    H152762   3.501   1.184   1.374
10449TIP3    H252763   3.507   1.333   1.401
10450TIP3   OH252764   2.935   0.939   0.419
10450TIP3    H152765   2.867   0.997   0.382
10450TIP3    H252766   3.006   0.946   0.353
10451TIP3   OH252767   2.936   0.788   0.133
10451TIP3    H152768   3.014   0.794   0.190
10451TIP3    H252769   2.971   0.729   0.066
10452TIP3   OH252770   3.675   0.880   1.250
10452TIP3    H152771   3.610   0.952   1.254
10452TIP3    H252772   3.725   0.903   1.169
10453TIP3   OH252773   3.281   0.959   0.516
10453TIP3    H152774   3.206   0.983   0.576
10453TIP3    H252775   3.328   0.891   0.568
10454TIP3   OH252776   3.274   0.775   1.427
10454TIP3    H152777   3.275   0.857   1.480
10454TIP3    H252778   3.211   0.805   1.358
10455TIP3   OH252779   2.442   1.025   0.706
10455TIP3    H152780   2.410   0.986   0.621
10455TIP3    H252781   2.504   0.956   0.739
10456TIP3   OH252782   2.574   1.363   0.974
10456TIP3    H152783   2.574   1.311   0.893
10456TIP3    H252784   2.653   1.327   1.020
10457TIP3   OH252785   2.475   0.899   1.072
10457TIP3    H152786   2.530   0.909   0.992
10457TIP3    H252787   2.514   0.966   1.133
10458TIP3   OH252788   3.117   1.457   1.143
10458TIP3    H152789   3.088   1.520   1.209
10458TIP3    H252790   3.092   1.371   1.185
10459TIP3   OH252791   2.571   1.343   1.540
10459TIP3    H152792   2.530   1.416   1.590
10459TIP3    H252793   2.503   1.322   1.472
10460TIP3   OH252794   3.170   0.877   0.282
10460TIP3    H152795   3.224   0.897   0.363
10460TIP3    H252796   3.211   0.932   0.213
10461TIP3   OH252797   2.265   0.958   1.457
10461TIP3    H152798   2.270   1.025   1.528
10461TIP3    H252799   2.171   0.967   1.436
10462TIP3   OH252800   2.939   1.551   0.629
10462TIP3    H152801   2.983   1.582   0.709
10462TIP3    H252802   2.885   1.626   0.603
10463TIP3   OH252803   2.395   1.546   1.616
10463TIP3    H152804   2.389   1.536   1.520
10463TIP3    H252805   2.302   1.532   1.643
10464TIP3   OH252806   3.544   0.070   0.254
10464TIP3    H152807   3.451   0.069   0.287
10464TIP3    H252808   3.559   0.158   0.219
10465TIP3   OH252809   2.339   0.928   0.467
10465TIP3    H152810   2.312   1.005   0.414
10465TIP3    H252811   2.273   0.862   0.444
10466TIP3   OH252812   3.649   1.486   0.109
10466TIP3    H152813   3.663   1.582   0.119
10466TIP3    H252814   3.741   1.457   0.101
10467TIP3   OH252815   1.951   1.170   1.357
10467TIP3    H152816   1.904   1.163   1.273
10467TIP3    H252817   1.957   1.075   1.379
10468TIP3   OH252818   1.924   1.444   1.035
10468TIP3    H152819   2.020   1.432   1.033
10468TIP3    H252820   1.916   1.525   1.085
10469TIP3   OH252821   3.748   1.514   1.604
10469TIP3    H152822   3.737   1.418   1.601
10469TIP3    H252823   3.661   1.539   1.642
10470TIP3   OH252824   2.844   1.468   1.490
10470TIP3    H152825   2.850   1.552   1.541
10470TIP3    H252826   2.757   1.432   1.515
10471TIP3   OH252827   2.887   1.842   0.467
10471TIP3    H152828   2.877   1.835   0.371
10471TIP3    H252829   2.889   1.937   0.488
10472TIP3   OH252830   2.252   1.730   0.651
10472TIP3    H152831   2.266   1.689   0.739
10472TIP3    H252832   2.167   1.689   0.628
10473TIP3   OH252833   3.186   1.764   0.167
10473TIP3    H152834   3.237   1.691   0.123
10473TIP3    H252835   3.199   1.738   0.260
10474TIP3   OH252836   3.161   1.759   0.446
10474TIP3    H152837   3.065   1.763   0.465
10474TIP3    H252838   3.188   1.684   0.502
10475TIP3   OH252839   3.461   0.659   1.651
10475TIP3    H152840   3.415   0.705   1.579
10475TIP3    H252841   3.461   0.567   1.620
10476TIP3   OH252842   2.177   1.302   1.451
10476TIP3    H152843   2.197   1.265   1.539
10476TIP3    H252844   2.090   1.262   1.429
10477TIP3   OH252845   2.442   0.145   1.049
10477TIP3    H152846   2.353   0.139   1.010
10477TIP3    H252847   2.432   0.231   1.094
10478TIP3   OH252848   2.907   0.118   1.388
10478TIP3    H152849   2.950   0.076   1.462
10478TIP3    H252850   2.812   0.107   1.403
10479TIP3   OH252851   3.238   0.496   1.473
10479TIP3    H152852   3.180   0.481   1.551
10479TIP3    H252853   3.222   0.589   1.448
10480TIP3   OH252854   3.322   0.991   0.069
10480TIP3    H152855   3.321   0.969  -0.026
10480TIP3    H252856   3.412   1.030   0.076
10481TIP3   OH252857   2.872   0.373   0.117
10481TIP3    H152858   2.844   0.367   0.210
10481TIP3    H252859   2.851   0.284   0.087
10482TIP3   OH252860   2.455   0.647   1.173
10482TIP3    H152861   2.381   0.645   1.235
10482TIP3    H252862   2.450   0.737   1.134
10483TIP3   OH252863   2.451   0.657   0.658
10483TIP3    H152864   2.357   0.634   0.643
10483TIP3    H252865   2.489   0.629   0.572
10484TIP3   OH252866   3.004   0.708   0.530
10484TIP3    H152867   2.963   0.792   0.498
10484TIP3    H252868   3.074   0.693   0.464
10485TIP3   OH252869   2.909   0.730   1.678
10485TIP3    H152870   2.856   0.652   1.709
10485TIP3    H252871   2.993   0.717   1.726
10486TIP3   OH252872   3.107   0.657   0.820
10486TIP3    H152873   3.078   0.713   0.746
10486TIP3    H252874   3.116   0.573   0.773
10487TIP3   OH252875   2.217   0.672   1.339
10487TIP3    H152876   2.226   0.712   1.427
10487TIP3    H252877   2.172   0.588   1.360
10488TIP3   OH252878   2.576   0.438   0.062
10488TIP3    H152879   2.518   0.375   0.108
10488TIP3    H252880   2.520   0.474  -0.008
10489TIP3   OH252881   1.884   0.386   0.737
10489TIP3    H152882   1.952   0.382   0.808
10489TIP3    H252883   1.928   0.346   0.660
10490TIP3   OH252884   2.014   0.460   0.283
10490TIP3    H152885   2.060   0.514   0.215
10490TIP3    H252886   1.940   0.520   0.304
10491TIP3   OH252887   3.026   0.816   1.275
10491TIP3    H152888   3.064   0.747   1.216
10491TIP3    H252889   2.980   0.763   1.342
10492TIP3   OH252890   2.706   0.413   0.757
10492TIP3    H152891   2.613   0.413   0.788
10492TIP3    H252892   2.756   0.398   0.839
10493TIP3   OH252893   2.188   0.568   0.645
10493TIP3    H152894   2.099   0.584   0.606
10493TIP3    H252895   2.217   0.486   0.604
10494TIP3   OH252896   2.551   0.575   0.409
10494TIP3    H152897   2.647   0.584   0.425
10494TIP3    H252898   2.529   0.641   0.340
10495TIP3   OH252899   3.147   0.335   1.082
10495TIP3    H152900   3.078   0.343   1.151
10495TIP3    H252901   3.097   0.308   1.004
10496TIP3   OH252902   2.422   0.690   0.167
10496TIP3    H152903   2.364   0.656   0.097
10496TIP3    H252904   2.504   0.709   0.119
10497TIP3   OH252905   3.467   1.901   1.715
10497TIP3    H152906   3.494   1.939   1.630
10497TIP3    H252907   3.540   1.933   1.771
10498TIP3   OH252908   2.235   1.149   1.672
10498TIP3    H152909   2.307   1.173   1.733
10498TIP3    H252910   2.158   1.156   1.733
10499TIP3   OH252911   2.835   0.689   0.947
10499TIP3    H152912   2.895   0.634   0.895
10499TIP3    H252913   2.820   0.634   1.026
10500TIP3   OH252914   2.334   0.306   0.594
10500TIP3    H152915   2.303   0.214   0.594
10500TIP3    H252916   2.412   0.298   0.538
10501TIP3   OH252917   2.700   0.527   1.188
10501TIP3    H152918   2.615   0.575   1.199
10501TIP3    H252919   2.754   0.558   1.262
10502TIP3   OH252920   2.758   1.142   0.360
10502TIP3    H152921   2.677   1.096   0.329
10502TIP3    H252922   2.736   1.156   0.454
10503TIP3   OH252923   3.476   1.064   1.239
10503TIP3    H152924   3.533   1.113   1.176
10503TIP3    H252925   3.390   1.069   1.193
10504TIP3   OH252926   3.144   0.428   0.175
10504TIP3    H152927   3.049   0.439   0.158
10504TIP3    H252928   3.173   0.512   0.214
10505TIP3   OH252929   2.907   1.171   1.483
10505TIP3    H152930   2.872   1.128   1.562
10505TIP3    H252931   2.881   1.263   1.494
10506TIP3   OH252932   3.215   0.617   0.343
10506TIP3    H152933   3.305   0.601   0.377
10506TIP3    H252934   3.223   0.699   0.291
10507TIP3   OH252935   2.269   1.084   0.939
10507TIP3    H152936   2.336   1.075   0.869
10507TIP3    H252937   2.274   0.998   0.985
10508TIP3   OH252938   2.966   1.289   0.262
10508TIP3    H152939   2.931   1.373   0.298
10508TIP3    H252940   2.894   1.226   0.285
10509TIP3   OH252941   1.967   0.924   1.466
10509TIP3    H152942   1.984   0.879   1.551
10509TIP3    H252943   1.906   0.863   1.421
10510TIP3   OH252944   2.669   0.880   1.683
10510TIP3    H152945   2.637   0.849   1.597
10510TIP3    H252946   2.761   0.847   1.683
10511TIP3   OH252947   3.137   1.413   1.478
10511TIP3    H152948   3.045   1.431   1.455
10511TIP3    H252949   3.134   1.443   1.571
10512TIP3   OH252950   3.705   0.633   0.320
10512TIP3    H152951   3.647   0.601   0.249
10512TIP3    H252952   3.713   0.726   0.291
10513TIP3   OH252953   3.703   1.218   1.597
10513TIP3    H152954   3.614   1.240   1.561
10513TIP3    H252955   3.757   1.212   1.516
10514TIP3   OH252956   3.531   1.515   0.353
10514TIP3    H152957   3.497   1.432   0.389
10514TIP3    H252958   3.563   1.493   0.263
10515TIP3   OH252959   3.254   0.996   1.067
10515TIP3    H152960   3.160   0.975   1.056
10515TIP3    H252961   3.297   0.920   1.024
10516TIP3   OH252962   2.506   1.429   0.678
10516TIP3    H152963   2.556   1.510   0.657
10516TIP3    H252964   2.418   1.452   0.644
10517TIP3   OH252965   2.080   0.918   0.129
10517TIP3    H152966   2.141   0.977   0.177
10517TIP3    H252967   1.992   0.941   0.164
10518TIP3   OH252968   2.647   1.195   0.629
10518TIP3    H152969   2.616   1.287   0.638
10518TIP3    H252970   2.575   1.146   0.674
10519TIP3   OH252971   2.692   1.614   1.271
10519TIP3    H152972   2.738   1.694   1.242
10519TIP3    H252973   2.754   1.580   1.338
10520TIP3   OH252974   2.515   1.695   0.581
10520TIP3    H152975   2.419   1.708   0.596
10520TIP3    H252976   2.551   1.778   0.617
10521TIP3   OH252977   3.044   1.213   1.232
10521TIP3    H152978   3.012   1.194   1.323
10521TIP3    H252979   3.109   1.143   1.215
10522TIP3   OH252980   3.275   1.319   0.146
10522TIP3    H152981   3.305   1.271   0.225
10522TIP3    H252982   3.180   1.302   0.151
10523TIP3   OH252983   3.327   1.672   1.481
10523TIP3    H152984   3.257   1.622   1.433
10523TIP3    H252985   3.345   1.742   1.415
10524TIP3   OH252986   3.724   1.759   0.171
10524TIP3    H152987   3.793   1.822   0.143
10524TIP3    H252988   3.651   1.821   0.194
10525TIP3   OH252989   2.132   0.395   1.422
10525TIP3    H152990   2.041   0.431   1.418
10525TIP3    H252991   2.119   0.308   1.464
10526TIP3   OH252992   3.356   1.183   0.367
10526TIP3    H152993   3.333   1.103   0.418
10526TIP3    H252994   3.451   1.190   0.386
10527TIP3   OH252995   2.094   1.575   1.263
10527TIP3    H152996   2.123   1.483   1.264
10527TIP3    H252997   2.120   1.605   1.351
10528TIP3   OH252998   2.570   1.384   0.232
10528TIP3    H152999   2.593   1.329   0.309
10528TIP3    H253000   2.577   1.475   0.268
10529TIP3   OH253001   2.221   1.106   0.285
10529TIP3    H153002   2.152   1.146   0.343
10529TIP3    H253003   2.274   1.184   0.261
10530TIP3   OH253004   3.007   0.374   1.315
10530TIP3    H153005   3.079   0.380   1.379
10530TIP3    H253006   2.970   0.285   1.334
10531TIP3   OH253007   3.083   0.331   0.424
10531TIP3    H153008   3.106   0.379   0.342
10531TIP3    H253009   3.137   0.377   0.490
10532TIP3   OH253010   2.847   1.549   0.306
10532TIP3    H153011   2.766   1.600   0.314
10532TIP3    H253012   2.903   1.599   0.244
10533TIP3   OH253013   2.803   0.504   0.506
10533TIP3    H153014   2.880   0.564   0.508
10533TIP3    H253015   2.778   0.496   0.600
10534TIP3   OH253016   2.859   0.609   1.426
10534TIP3    H153017   2.866   0.665   1.506
10534TIP3    H253018   2.925   0.540   1.436
10535TIP3   OH253019   2.891   0.214   0.601
10535TIP3    H153020   2.856   0.281   0.661
10535TIP3    H253021   2.956   0.267   0.549
10536TIP3   OH253022   2.585   1.651   0.310
10536TIP3    H153023   2.602   1.733   0.260
10536TIP3    H253024   2.561   1.686   0.399
10537TIP3   OH253025   2.456   0.319   0.266
10537TIP3    H153026   2.446   0.410   0.303
10537TIP3    H253027   2.547   0.303   0.297
10538TIP3   OH253028   3.476   0.396   1.512
10538TIP3    H153029   3.384   0.428   1.498
10538TIP3    H253030   3.506   0.393   1.419
10539TIP3   OH253031   3.338   0.775   0.911
10539TIP3    H153032   3.255   0.731   0.884
10539TIP3    H253033   3.386   0.706   0.962
10540TIP3   OH253034   2.278   1.369   0.168
10540TIP3    H153035   2.343   1.430   0.203
10540TIP3    H253036   2.331   1.322   0.102
10541TIP3   OH253037   2.120   0.644   0.101
10541TIP3    H153038   2.112   0.739   0.102
10541TIP3    H253039   2.039   0.616   0.056
10542TIP3   OH253040   3.444   1.701   1.078
10542TIP3    H153041   3.435   1.769   1.009
10542TIP3    H253042   3.540   1.706   1.096
10543TIP3   OH253043   2.169   0.129   0.965
10543TIP3    H153044   2.175   0.119   0.867
10543TIP3    H253045   2.155   0.037   0.987
10544TIP3   OH253046   2.089   1.505   0.573
10544TIP3    H153047   2.003   1.549   0.569
10544TIP3    H253048   2.136   1.552   0.503
10545TIP3   OH253049   2.009   1.771   1.701
10545TIP3    H153050   2.069   1.751   1.775
10545TIP3    H253051   1.969   1.684   1.684
10546TIP3   OH253052   2.478   1.664   1.861
10546TIP3    H153053   2.551   1.611   1.898
10546TIP3    H253054   2.475   1.634   1.768
10547TIP3   OH253055   2.935   1.626   0.062
10547TIP3    H153056   2.851   1.578   0.061
10547TIP3    H253057   2.983   1.577  -0.006
10548TIP3   OH253058   3.128   1.500   1.738
10548TIP3    H153059   3.096   1.412   1.765
10548TIP3    H253060   3.204   1.512   1.797
10549TIP3   OH253061   3.349   1.592   0.023
10549TIP3    H153062   3.373   1.511   0.071
10549TIP3    H253063   3.428   1.610  -0.031
10550TIP3   OH253064   2.000   1.147   1.802
10550TIP3    H153065   2.017   1.056   1.771
10550TIP3    H253066   1.926   1.173   1.744
10551TIP3   OH253067   2.443   1.188   0.030
10551TIP3    H153068   2.442   1.106   0.081
10551TIP3    H253069   2.483   1.154  -0.048
10552TIP3   OH253070   2.672   1.146   1.740
10552TIP3    H153071   2.639   1.178   1.654
10552TIP3    H253072   2.679   1.049   1.729
10553TIP3   OH253073   3.242   1.132   1.479
10553TIP3    H153074   3.320   1.191   1.473
10553TIP3    H253075   3.172   1.199   1.483
10554TIP3   OH253076   2.093   0.870   1.740
10554TIP3    H153077   2.134   0.784   1.731
10554TIP3    H253078   2.069   0.871   1.834
10555TIP3   OH253079   2.557   0.986   0.243
10555TIP3    H153080   2.508   0.933   0.309
10555TIP3    H253081   2.589   0.916   0.182
10556TIP3   OH253082   2.482   0.764   1.475
10556TIP3    H153083   2.423   0.836   1.501
10556TIP3    H253084   2.522   0.801   1.394
10557TIP3   OH253085   2.666   0.808   0.064
10557TIP3    H153086   2.653   0.786  -0.029
10557TIP3    H253087   2.764   0.809   0.075
10558TIP3   OH253088   2.990   1.021   1.809
10558TIP3    H153089   3.085   1.020   1.796
10558TIP3    H253090   2.973   0.944   1.865
10559TIP3   OH253091   3.577   1.056  16.018
10559TIP3    H153092   3.572   1.004  15.936
10559TIP3    H253093   3.604   1.144  15.989
10560TIP3   OH253094   2.522   0.502   1.581
10560TIP3    H153095   2.535   0.431   1.516
10560TIP3    H253096   2.518   0.583   1.525
10561TIP3   OH253097   2.563   0.343   1.333
10561TIP3    H153098   2.614   0.390   1.264
10561TIP3    H253099   2.474   0.332   1.292
10562TIP3   OH253100   2.717   0.889   1.360
10562TIP3    H153101   2.792   0.873   1.303
10562TIP3    H253102   2.681   0.973   1.327
10563TIP3   OH253103   3.156   0.664   1.856
10563TIP3    H153104   3.180   0.571   1.847
10563TIP3    H253105   3.243   0.709   1.860
10564TIP3   OH253106   3.291   0.944   1.673
10564TIP3    H153107   3.266   1.016   1.611
10564TIP3    H253108   3.388   0.941   1.655
10565TIP3   OH253109   2.369   0.627   1.773
10565TIP3    H153110   2.292   0.570   1.756
10565TIP3    H253111   2.434   0.592   1.710
10566TIP3   OH253112   2.627   0.104   1.403
10566TIP3    H153113   2.622   0.198   1.373
10566TIP3    H253114   2.569   0.062   1.337
10567TIP3   OH253115   2.767   0.520   1.736
10567TIP3    H153116   2.739   0.489   1.825
10567TIP3    H253117   2.689   0.495   1.683
10568TIP3   OH253118   3.042   0.433   1.648
10568TIP3    H153119   2.945   0.435   1.659
10568TIP3    H253120   3.069   0.369   1.716
10569TIP3   OH253121   3.203   0.304   1.842
10569TIP3    H153122   3.191   0.206   1.836
10569TIP3    H253123   3.170   0.323   1.931
10570TIP3   OH253124   2.175   0.420   1.748
10570TIP3    H153125   2.202   0.347   1.690
10570TIP3    H253126   2.169   0.375   1.834
10571TIP3   OH253127   2.662   7.324   1.648
10571TIP3    H153128   2.730   7.257   1.653
10571TIP3    H253129   2.651   7.344   1.553
10572TIP3   OH253130   2.703   0.192   1.852
10572TIP3    H153131   2.685   0.135   1.775
10572TIP3    H253132   2.639   0.264   1.846
10573TIP3   OH253133   2.645   1.876   0.171
10573TIP3    H153134   2.742   1.885   0.179
10573TIP3    H253135   2.626   1.937   0.100
10574TIP3   OH253136   2.003   1.336   0.120
10574TIP3    H153137   2.099   1.347   0.141
10574TIP3    H253138   2.009   1.277   0.044
10575TIP3   OH253139   1.880   1.872   0.618
10575TIP3    H153140   1.808   1.823   0.571
10575TIP3    H253141   1.908   1.807   0.684
10576TIP3   OH253142   1.965   1.686   0.805
10576TIP3    H153143   1.927   1.599   0.823
10576TIP3    H253144   1.983   1.718   0.894
10577TIP3   OH253145   3.716   1.765   1.098
10577TIP3    H153146   3.719   1.781   1.194
10577TIP3    H253147   3.786   1.824   1.068
10578TIP3   OH253148   3.673   1.725   1.393
10578TIP3    H153149   3.626   1.648   1.354
10578TIP3    H253150   3.722   1.680   1.464
10579TIP3   OH253151   3.518   1.297   1.860
10579TIP3    H153152   3.427   1.294   1.896
10579TIP3    H253153   3.555   1.377   1.901
10580TIP3   OH253154   3.651   1.129   0.402
10580TIP3    H153155   3.736   1.170   0.424
10580TIP3    H253156   3.647   1.059   0.470
10581TIP3   OH253157   3.685   0.938   0.591
10581TIP3    H153158   3.610   0.887   0.629
10581TIP3    H253159   3.745   0.951   0.668
10582TIP3   OH253160   3.661   1.207   1.090
10582TIP3    H153161   3.742   1.169   1.052
10582TIP3    H253162   3.676   1.302   1.073
10583TIP3   OH253163   3.517   1.498   1.317
10583TIP3    H153164   3.448   1.532   1.376
10583TIP3    H253165   3.462   1.457   1.246
10584TIP3   OH253166   3.716   0.921   0.231
10584TIP3    H153167   3.656   0.956   0.163
10584TIP3    H253168   3.707   0.992   0.298
10585TIP3   OH253169   3.509   0.644   0.094
10585TIP3    H153170   3.554   0.705   0.033
10585TIP3    H253171   3.533   0.562   0.049
10586TIP3   OH253172   3.468   0.785   0.649
10586TIP3    H153173   3.452   0.689   0.644
10586TIP3    H253174   3.435   0.806   0.738
10587TIP3   OH253175   1.967   0.993   1.054
10587TIP3    H153176   1.986   0.985   0.958
10587TIP3    H253177   2.057   0.976   1.090
10588TIP3   OH253178   3.554   0.982   1.618
10588TIP3    H153179   3.615   0.906   1.631
10588TIP3    H253180   3.614   1.059   1.618
10589TIP3   OH253181   3.703   0.771   1.679
10589TIP3    H153182   3.615   0.729   1.667
10589TIP3    H253183   3.761   0.692   1.675
10590TIP3   OH253184   3.433   0.545   0.495
10590TIP3    H153185   3.463   0.452   0.505
10590TIP3    H253186   3.512   0.584   0.457
10591TIP3   OH253187   3.498   0.600   1.038
10591TIP3    H153188   3.594   0.621   1.037
10591TIP3    H253189   3.479   0.611   1.133
10592TIP3   OH253190   3.503   0.672   1.316
10592TIP3    H153191   3.416   0.699   1.349
10592TIP3    H253192   3.548   0.757   1.294
10593TIP3   OH253193   1.929   0.525   1.671
10593TIP3    H153194   2.023   0.503   1.688
10593TIP3    H253195   1.885   0.441   1.696
10594TIP3   OH253196   3.739   0.077   1.853
10594TIP3    H153197   3.762   0.010   1.787
10594TIP3    H253198   3.739   0.159   1.800
10595TIP3   OH253199   3.501   0.275   0.499
10595TIP3    H153200   3.521   0.227   0.582
10595TIP3    H253201   3.441   0.210   0.453
10596TIP3   OH253202   2.047   0.358   0.951
10596TIP3    H153203   2.090   0.273   0.978
10596TIP3    H253204   2.104   0.422   0.993
10597TIP3   OH253205   1.878   0.653   1.058
10597TIP3    H153206   1.935   0.628   0.983
10597TIP3    H253207   1.924   0.733   1.086
10598TIP3   OH253208   3.684   0.281   1.685
10598TIP3    H153209   3.592   0.312   1.679
10598TIP3    H253210   3.688   0.229   1.603
10599TIP3   OH253211   3.687   0.279   0.156
10599TIP3    H153212   3.722   0.206   0.103
10599TIP3    H253213   3.758   0.343   0.154
10600TIP3   OH253214   1.912   0.276   0.467
10600TIP3    H153215   1.819   0.297   0.450
10600TIP3    H253216   1.957   0.325   0.395
10601TIP3   OH253217   3.387   1.774   0.661
10601TIP3    H153218   3.456   1.743   0.599
10601TIP3    H253219   3.439   1.823   0.726
10602TIP3   OH253220   1.910   0.152   1.297
10602TIP3    H153221   1.842   0.128   1.362
10602TIP3    H253222   1.862   0.212   1.237
10603TIP3   OH253223   2.133   1.463   1.711
10603TIP3    H153224   2.049   1.486   1.668
10603TIP3    H253225   2.107   1.456   1.803
10604TIP3   OH253226   2.423   1.565   1.339
10604TIP3    H153227   2.390   1.651   1.312
10604TIP3    H253228   2.516   1.573   1.309
10605TIP3   OH253229   2.855   1.707   1.630
10605TIP3    H153230   2.869   1.671   1.721
10605TIP3    H253231   2.946   1.737   1.606
10606TIP3   OH253232   3.084   1.833   1.561
10606TIP3    H153233   3.157   1.775   1.537
10606TIP3    H253234   3.122   1.877   1.640
10607TIP3   OH253235   3.586   0.097   1.462
10607TIP3    H153236   3.502   0.128   1.425
10607TIP3    H253237   3.602   0.012   1.416
10608TIP3   OH253238   2.166   1.888   1.339
10608TIP3    H153239   2.093   1.938   1.299
10608TIP3    H253240   2.135   1.869   1.428
10609TIP3   OH253241   2.413   1.846   1.246
10609TIP3    H153242   2.323   1.861   1.285
10609TIP3    H253243   2.407   1.905   1.169
10610TIP3   OH253244   2.883   1.837   1.163
10610TIP3    H153245   2.837   1.893   1.098
10610TIP3    H253246   2.896   1.900   1.237
10611TIP3   OH253247   3.112   1.718   1.266
10611TIP3    H153248   3.027   1.746   1.229
10611TIP3    H253249   3.161   1.802   1.257
10612TIP3   OH253250   3.370   1.875   1.288
10612TIP3    H153251   3.365   1.971   1.265
10612TIP3    H253252   3.392   1.837   1.200
10613TIP3   OH253253   2.112   1.753   1.033
10613TIP3    H153254   2.104   1.707   1.119
10613TIP3    H253255   2.193   1.715   0.994
10614TIP3   OH253256   2.319   1.624   0.898
10614TIP3    H153257   2.303   1.531   0.922
10614TIP3    H253258   2.405   1.640   0.944
10615TIP3   OH253259   2.580   1.673   0.986
10615TIP3    H153260   2.595   1.580   0.960
10615TIP3    H253261   2.584   1.667   1.083
10616TIP3   OH253262   2.913   0.244   0.898
10616TIP3    H153263   2.855   0.172   0.926
10616TIP3    H253264   2.981   0.195   0.849
10617TIP3   OH253265   3.439   0.045   0.910
10617TIP3    H153266   3.501   0.100   0.857
10617TIP3    H253267   3.353   0.079   0.885
10618TIP3   OH253268   3.608   0.170   0.735
10618TIP3    H153269   3.671   0.111   0.693
10618TIP3    H253270   3.659   0.254   0.742
10619TIP3   OH253271   2.158   0.102   0.690
10619TIP3    H153272   2.082   0.080   0.634
10619TIP3    H253273   2.207   0.018   0.690
10620TIP3   OH253274   2.042   0.075   0.260
10620TIP3    H153275   2.087   0.140   0.202
10620TIP3    H253276   1.979   0.129   0.308
10621TIP3   OH253277   2.616   0.086   0.662
10621TIP3    H153278   2.701   0.132   0.659
10621TIP3    H253279   2.605   0.070   0.757
10622TIP3   OH253280   3.154   0.132   0.842
10622TIP3    H153281   3.168   0.127   0.747
10622TIP3    H253282   3.145   0.034   0.855
10623TIP3   OH253283   3.306   0.104   0.405
10623TIP3    H153284   3.233   0.157   0.371
10623TIP3    H253285   3.270   0.014   0.404
10624TIP3   OH253286   2.032   1.671   0.357
10624TIP3    H153287   1.963   1.671   0.287
10624TIP3    H253288   2.033   1.766   0.375
10625TIP3   OH253289   2.222   0.250   0.116
10625TIP3    H153290   2.276   0.208   0.050
10625TIP3    H253291   2.286   0.299   0.170
10626TIP3   OH253292   2.716   0.291   0.354
10626TIP3    H153293   2.755   0.238   0.426
10626TIP3    H253294   2.732   0.380   0.395
10627TIP3   OH253295   2.917   1.839   0.193
10627TIP3    H153296   3.014   1.825   0.179
10627TIP3    H253297   2.897   1.762   0.134
10628TIP3   OH253298   3.587   1.752   0.464
10628TIP3    H153299   3.567   1.674   0.407
10628TIP3    H253300   3.579   1.826   0.400
10629TIP3   OH253301   2.141   0.151   1.619
10629TIP3    H153302   2.107   0.078   1.671
10629TIP3    H253303   2.231   0.154   1.660
10630TIP3   OH253304   2.325   0.114   1.784
10630TIP3    H153305   2.419   0.094   1.771
10630TIP3    H253306   2.308   0.029   1.828
10631TIP3   OH253307   2.217   1.769   0.053
10631TIP3    H153308   2.184   1.796   0.140
10631TIP3    H253309   2.290   1.711   0.074
10632TIP3   OH253310   3.182   7.358   1.800
10632TIP3    H153311   3.188   7.301   1.880
10632TIP3    H253312   3.272   7.337   1.770
10633TIP3   OH253313   3.512   1.626   1.672
10633TIP3    H153314   3.432   1.613   1.618
10633TIP3    H253315   3.500   1.721   1.694
10634TIP3   OH253316   4.956   1.014   0.671
10634TIP3    H153317   4.955   1.112   0.666
10634TIP3    H253318   4.884   0.991   0.610
10635TIP3   OH253319   4.842   0.940   1.020
10635TIP3    H153320   4.841   0.875   1.092
10635TIP3    H253321   4.806   0.889   0.945
10636TIP3   OH253322   4.077   0.907   1.176
10636TIP3    H153323   4.086   0.838   1.245
10636TIP3    H253324   4.152   0.964   1.198
10637TIP3   OH253325   5.210   1.235   0.849
10637TIP3    H153326   5.169   1.163   0.898
10637TIP3    H253327   5.213   1.305   0.916
10638TIP3   OH253328   4.170   1.352   1.025
10638TIP3    H153329   4.139   1.265   0.994
10638TIP3    H253330   4.265   1.334   1.030
10639TIP3   OH253331   3.834   0.707   0.575
10639TIP3    H153332   3.790   0.794   0.570
10639TIP3    H253333   3.777   0.654   0.518
10640TIP3   OH253334   3.905   0.932   0.790
10640TIP3    H153335   3.932   0.849   0.835
10640TIP3    H253336   3.974   0.941   0.723
10641TIP3   OH253337   4.922   1.750   0.873
10641TIP3    H153338   4.987   1.681   0.844
10641TIP3    H253339   4.901   1.717   0.960
10642TIP3   OH253340   4.679   1.179   1.068
10642TIP3    H153341   4.713   1.117   1.002
10642TIP3    H253342   4.761   1.195   1.119
10643TIP3   OH253343   5.538   0.345   1.140
10643TIP3    H153344   5.557   0.403   1.218
10643TIP3    H253345   5.594   0.387   1.074
10644TIP3   OH253346   4.996   0.626   1.100
10644TIP3    H153347   5.012   0.530   1.100
10644TIP3    H253348   4.986   0.641   1.004
10645TIP3   OH253349   4.308   0.437   0.821
10645TIP3    H153350   4.319   0.520   0.770
10645TIP3    H253351   4.267   0.380   0.753
10646TIP3   OH253352   5.085   0.437   0.654
10646TIP3    H153353   5.147   0.415   0.727
10646TIP3    H253354   5.136   0.501   0.603
10647TIP3   OH253355   3.970   0.677   0.894
10647TIP3    H153356   4.037   0.622   0.940
10647TIP3    H253357   3.980   0.645   0.803
10648TIP3   OH253358   4.486   0.832   0.826
10648TIP3    H153359   4.553   0.774   0.865
10648TIP3    H253360   4.434   0.767   0.775
10649TIP3   OH253361   5.584   0.486   1.368
10649TIP3    H153362   5.522   0.561   1.358
10649TIP3    H253363   5.586   0.475   1.463
10650TIP3   OH253364   4.200   0.331   1.223
10650TIP3    H153365   4.167   0.384   1.148
10650TIP3    H253366   4.129   0.348   1.290
10651TIP3   OH253367   4.927   1.273   0.579
10651TIP3    H153368   4.900   1.246   0.490
10651TIP3    H253369   4.897   1.366   0.584
10652TIP3   OH253370   4.450   1.089   1.248
10652TIP3    H153371   4.379   1.154   1.271
10652TIP3    H253372   4.520   1.149   1.219
10653TIP3   OH253373   5.266   0.373   0.853
10653TIP3    H153374   5.238   0.302   0.911
10653TIP3    H253375   5.329   0.421   0.909
10654TIP3   OH253376   4.154   0.516   1.026
10654TIP3    H153377   4.220   0.580   1.060
10654TIP3    H253378   4.206   0.471   0.954
10655TIP3   OH253379   4.295   1.290   1.330
10655TIP3    H153380   4.290   1.382   1.297
10655TIP3    H253381   4.206   1.282   1.375
10656TIP3   OH253382   3.900   1.251   0.409
10656TIP3    H153383   3.880   1.285   0.320
10656TIP3    H253384   3.909   1.334   0.461
10657TIP3   OH253385   5.263   1.418   1.086
10657TIP3    H153386   5.167   1.429   1.098
10657TIP3    H253387   5.290   1.510   1.065
10658TIP3   OH253388   5.299   0.246   1.230
10658TIP3    H153389   5.224   0.305   1.215
10658TIP3    H253390   5.368   0.287   1.174
10659TIP3   OH253391   4.590   0.059   0.954
10659TIP3    H153392   4.589  -0.036   0.970
10659TIP3    H253393   4.511   0.086   1.004
10660TIP3   OH253394   5.089   1.597   0.744
10660TIP3    H153395   5.132   1.525   0.694
10660TIP3    H253396   5.133   1.675   0.706
10661TIP3   OH253397   5.211   1.389   0.596
10661TIP3    H153398   5.181   1.320   0.534
10661TIP3    H253399   5.214   1.340   0.680
10662TIP3   OH253400   5.372   1.249   1.446
10662TIP3    H153401   5.387   1.183   1.374
10662TIP3    H253402   5.393   1.333   1.401
10663TIP3   OH253403   4.821   0.937   0.419
10663TIP3    H153404   4.753   0.996   0.382
10663TIP3    H253405   4.892   0.946   0.353
10664TIP3   OH253406   4.823   0.787   0.134
10664TIP3    H153407   4.901   0.794   0.190
10664TIP3    H253408   4.857   0.728   0.067
10665TIP3   OH253409   5.561   0.880   1.250
10665TIP3    H153410   5.495   0.952   1.254
10665TIP3    H253411   5.611   0.903   1.169
10666TIP3   OH253412   5.166   0.958   0.516
10666TIP3    H153413   5.092   0.983   0.576
10666TIP3    H253414   5.214   0.891   0.568
10667TIP3   OH253415   5.159   0.775   1.427
10667TIP3    H153416   5.160   0.857   1.479
10667TIP3    H253417   5.097   0.804   1.357
10668TIP3   OH253418   4.328   1.025   0.706
10668TIP3    H153419   4.296   0.986   0.621
10668TIP3    H253420   4.389   0.956   0.739
10669TIP3   OH253421   4.460   1.363   0.974
10669TIP3    H153422   4.460   1.311   0.893
10669TIP3    H253423   4.538   1.327   1.020
10670TIP3   OH253424   4.361   0.899   1.072
10670TIP3    H153425   4.416   0.909   0.992
10670TIP3    H253426   4.400   0.966   1.133
10671TIP3   OH253427   5.003   1.457   1.143
10671TIP3    H153428   4.974   1.520   1.209
10671TIP3    H253429   4.977   1.371   1.185
10672TIP3   OH253430   4.456   1.342   1.542
10672TIP3    H153431   4.415   1.416   1.591
10672TIP3    H253432   4.389   1.322   1.472
10673TIP3   OH253433   5.055   0.877   0.282
10673TIP3    H153434   5.109   0.897   0.363
10673TIP3    H253435   5.096   0.933   0.213
10674TIP3   OH253436   4.151   0.962   1.453
10674TIP3    H153437   4.155   1.023   1.529
10674TIP3    H253438   4.056   0.966   1.436
10675TIP3   OH253439   4.825   1.551   0.629
10675TIP3    H153440   4.869   1.582   0.709
10675TIP3    H253441   4.770   1.626   0.603
10676TIP3   OH253442   4.281   1.546   1.616
10676TIP3    H153443   4.275   1.536   1.520
10676TIP3    H253444   4.188   1.532   1.643
10677TIP3   OH253445   5.400   0.063   0.214
10677TIP3    H153446   5.321   0.066   0.272
10677TIP3    H253447   5.441   0.151   0.209
10678TIP3   OH253448   4.224   0.927   0.469
10678TIP3    H153449   4.197   1.005   0.415
10678TIP3    H253450   4.159   0.861   0.444
10679TIP3   OH253451   5.534   1.486   0.109
10679TIP3    H153452   5.549   1.582   0.119
10679TIP3    H253453   5.627   1.457   0.101
10680TIP3   OH253454   3.834   1.170   1.358
10680TIP3    H153455   3.790   1.162   1.271
10680TIP3    H253456   3.842   1.076   1.379
10681TIP3   OH253457   3.810   1.443   1.035
10681TIP3    H153458   3.906   1.432   1.033
10681TIP3    H253459   3.802   1.525   1.085
10682TIP3   OH253460   5.634   1.514   1.604
10682TIP3    H153461   5.622   1.418   1.601
10682TIP3    H253462   5.547   1.539   1.642
10683TIP3   OH253463   4.730   1.468   1.490
10683TIP3    H153464   4.735   1.552   1.541
10683TIP3    H253465   4.642   1.432   1.515
10684TIP3   OH253466   4.772   1.842   0.468
10684TIP3    H153467   4.765   1.837   0.371
10684TIP3    H253468   4.777   1.938   0.486
10685TIP3   OH253469   4.138   1.730   0.651
10685TIP3    H153470   4.152   1.689   0.739
10685TIP3    H253471   4.053   1.689   0.628
10686TIP3   OH253472   5.074   1.762   0.166
10686TIP3    H153473   5.124   1.689   0.123
10686TIP3    H253474   5.084   1.738   0.260
10687TIP3   OH253475   5.048   1.757   0.446
10687TIP3    H153476   4.952   1.764   0.464
10687TIP3    H253477   5.073   1.683   0.504
10688TIP3   OH253478   5.348   0.659   1.651
10688TIP3    H153479   5.301   0.705   1.579
10688TIP3    H253480   5.347   0.567   1.620
10689TIP3   OH253481   4.062   1.302   1.451
10689TIP3    H153482   4.084   1.265   1.540
10689TIP3    H253483   3.976   1.262   1.430
10690TIP3   OH253484   4.328   0.145   1.049
10690TIP3    H153485   4.239   0.139   1.010
10690TIP3    H253486   4.317   0.231   1.094
10691TIP3   OH253487   4.793   0.118   1.388
10691TIP3    H153488   4.835   0.076   1.462
10691TIP3    H253489   4.697   0.107   1.403
10692TIP3   OH253490   5.124   0.496   1.473
10692TIP3    H153491   5.065   0.480   1.551
10692TIP3    H253492   5.107   0.589   1.448
10693TIP3   OH253493   5.208   0.991   0.069
10693TIP3    H153494   5.207   0.969  -0.026
10693TIP3    H253495   5.297   1.030   0.076
10694TIP3   OH253496   4.758   0.373   0.117
10694TIP3    H153497   4.729   0.367   0.210
10694TIP3    H253498   4.736   0.285   0.087
10695TIP3   OH253499   4.341   0.647   1.173
10695TIP3    H153500   4.267   0.645   1.235
10695TIP3    H253501   4.336   0.737   1.134
10696TIP3   OH253502   4.337   0.658   0.658
10696TIP3    H153503   4.243   0.634   0.644
10696TIP3    H253504   4.374   0.629   0.572
10697TIP3   OH253505   4.890   0.708   0.531
10697TIP3    H153506   4.849   0.791   0.499
10697TIP3    H253507   4.959   0.694   0.463
10698TIP3   OH253508   4.794   0.730   1.679
10698TIP3    H153509   4.741   0.652   1.709
10698TIP3    H253510   4.879   0.716   1.725
10699TIP3   OH253511   4.993   0.657   0.820
10699TIP3    H153512   4.964   0.713   0.746
10699TIP3    H253513   5.001   0.573   0.773
10700TIP3   OH253514   4.103   0.671   1.339
10700TIP3    H153515   4.111   0.712   1.426
10700TIP3    H253516   4.058   0.589   1.362
10701TIP3   OH253517   4.462   0.438   0.062
10701TIP3    H153518   4.403   0.375   0.108
10701TIP3    H253519   4.406   0.474  -0.008
10702TIP3   OH253520   3.770   0.386   0.737
10702TIP3    H153521   3.838   0.382   0.808
10702TIP3    H253522   3.814   0.346   0.660
10703TIP3   OH253523   3.898   0.459   0.279
10703TIP3    H153524   3.948   0.515   0.217
10703TIP3    H253525   3.827   0.520   0.306
10704TIP3   OH253526   4.912   0.816   1.275
10704TIP3    H153527   4.950   0.747   1.216
10704TIP3    H253528   4.865   0.763   1.342
10705TIP3   OH253529   4.591   0.413   0.757
10705TIP3    H153530   4.498   0.413   0.788
10705TIP3    H253531   4.641   0.398   0.839
10706TIP3   OH253532   4.073   0.568   0.645
10706TIP3    H153533   3.985   0.583   0.606
10706TIP3    H253534   4.103   0.486   0.604
10707TIP3   OH253535   4.437   0.576   0.409
10707TIP3    H153536   4.533   0.584   0.425
10707TIP3    H253537   4.414   0.640   0.340
10708TIP3   OH253538   5.033   0.335   1.082
10708TIP3    H153539   4.964   0.343   1.151
10708TIP3    H253540   4.982   0.308   1.004
10709TIP3   OH253541   4.308   0.691   0.167
10709TIP3    H153542   4.251   0.656   0.097
10709TIP3    H253543   4.390   0.711   0.119
10710TIP3   OH253544   5.353   1.901   1.715
10710TIP3    H153545   5.379   1.939   1.630
10710TIP3    H253546   5.425   1.933   1.771
10711TIP3   OH253547   4.120   1.153   1.671
10711TIP3    H153548   4.192   1.172   1.733
10711TIP3    H253549   4.043   1.156   1.732
10712TIP3   OH253550   4.721   0.689   0.947
10712TIP3    H153551   4.781   0.634   0.895
10712TIP3    H253552   4.705   0.634   1.026
10713TIP3   OH253553   4.220   0.306   0.594
10713TIP3    H153554   4.188   0.214   0.594
10713TIP3    H253555   4.298   0.298   0.538
10714TIP3   OH253556   4.585   0.527   1.188
10714TIP3    H153557   4.501   0.575   1.199
10714TIP3    H253558   4.640   0.558   1.262
10715TIP3   OH253559   4.644   1.142   0.362
10715TIP3    H153560   4.564   1.097   0.328
10715TIP3    H253561   4.621   1.156   0.456
10716TIP3   OH253562   5.362   1.064   1.239
10716TIP3    H153563   5.418   1.113   1.176
10716TIP3    H253564   5.276   1.069   1.193
10717TIP3   OH253565   5.030   0.428   0.176
10717TIP3    H153566   4.935   0.439   0.158
10717TIP3    H253567   5.059   0.513   0.213
10718TIP3   OH253568   4.792   1.171   1.484
10718TIP3    H153569   4.757   1.128   1.562
10718TIP3    H253570   4.767   1.263   1.494
10719TIP3   OH253571   5.099   0.619   0.344
10719TIP3    H153572   5.190   0.603   0.378
10719TIP3    H253573   5.108   0.699   0.291
10720TIP3   OH253574   4.154   1.084   0.939
10720TIP3    H153575   4.222   1.075   0.869
10720TIP3    H253576   4.160   0.998   0.985
10721TIP3   OH253577   4.853   1.290   0.265
10721TIP3    H153578   4.816   1.374   0.298
10721TIP3    H253579   4.779   1.227   0.283
10722TIP3   OH253580   3.854   0.924   1.465
10722TIP3    H153581   3.870   0.880   1.551
10722TIP3    H253582   3.791   0.862   1.422
10723TIP3   OH253583   4.554   0.880   1.683
10723TIP3    H153584   4.522   0.849   1.597
10723TIP3    H253585   4.647   0.847   1.683
10724TIP3   OH253586   5.023   1.413   1.478
10724TIP3    H153587   4.930   1.431   1.455
10724TIP3    H253588   5.020   1.443   1.571
10725TIP3   OH253589   5.588   0.629   0.321
10725TIP3    H153590   5.531   0.601   0.248
10725TIP3    H253591   5.599   0.723   0.293
10726TIP3   OH253592   5.588   1.218   1.597
10726TIP3    H153593   5.499   1.240   1.561
10726TIP3    H253594   5.643   1.212   1.516
10727TIP3   OH253595   5.417   1.515   0.353
10727TIP3    H153596   5.382   1.432   0.389
10727TIP3    H253597   5.449   1.493   0.264
10728TIP3   OH253598   5.140   0.996   1.067
10728TIP3    H153599   5.045   0.975   1.057
10728TIP3    H253600   5.183   0.920   1.024
10729TIP3   OH253601   4.391   1.429   0.678
10729TIP3    H153602   4.441   1.509   0.657
10729TIP3    H253603   4.303   1.452   0.644
10730TIP3   OH253604   3.966   0.916   0.129
10730TIP3    H153605   4.027   0.976   0.175
10730TIP3    H253606   3.878   0.942   0.164
10731TIP3   OH253607   4.533   1.195   0.630
10731TIP3    H153608   4.501   1.287   0.638
10731TIP3    H253609   4.461   1.146   0.674
10732TIP3   OH253610   4.578   1.614   1.271
10732TIP3    H153611   4.624   1.694   1.242
10732TIP3    H253612   4.640   1.580   1.338
10733TIP3   OH253613   4.401   1.695   0.581
10733TIP3    H153614   4.305   1.708   0.596
10733TIP3    H253615   4.437   1.778   0.617
10734TIP3   OH253616   4.930   1.213   1.232
10734TIP3    H153617   4.898   1.194   1.323
10734TIP3    H253618   4.994   1.143   1.215
10735TIP3   OH253619   5.161   1.319   0.146
10735TIP3    H153620   5.191   1.271   0.225
10735TIP3    H253621   5.065   1.302   0.151
10736TIP3   OH253622   5.212   1.672   1.481
10736TIP3    H153623   5.143   1.622   1.433
10736TIP3    H253624   5.230   1.742   1.415
10737TIP3   OH253625   5.610   1.759   0.171
10737TIP3    H153626   5.679   1.822   0.143
10737TIP3    H253627   5.537   1.821   0.194
10738TIP3   OH253628   4.018   0.395   1.422
10738TIP3    H153629   3.927   0.431   1.418
10738TIP3    H253630   4.004   0.309   1.465
10739TIP3   OH253631   5.242   1.183   0.367
10739TIP3    H153632   5.218   1.103   0.418
10739TIP3    H253633   5.337   1.190   0.387
10740TIP3   OH253634   3.979   1.575   1.263
10740TIP3    H153635   4.010   1.483   1.263
10740TIP3    H253636   4.006   1.605   1.351
10741TIP3   OH253637   4.454   1.385   0.233
10741TIP3    H153638   4.480   1.328   0.308
10741TIP3    H253639   4.463   1.476   0.268
10742TIP3   OH253640   4.105   1.106   0.287
10742TIP3    H153641   4.037   1.148   0.343
10742TIP3    H253642   4.159   1.182   0.259
10743TIP3   OH253643   4.892   0.373   1.315
10743TIP3    H153644   4.964   0.380   1.379
10743TIP3    H253645   4.855   0.285   1.334
10744TIP3   OH253646   4.974   0.328   0.424
10744TIP3    H153647   4.990   0.380   0.342
10744TIP3    H253648   5.020   0.382   0.490
10745TIP3   OH253649   4.733   1.549   0.305
10745TIP3    H153650   4.652   1.601   0.315
10745TIP3    H253651   4.789   1.601   0.244
10746TIP3   OH253652   4.689   0.503   0.506
10746TIP3    H153653   4.766   0.564   0.508
10746TIP3    H253654   4.663   0.496   0.600
10747TIP3   OH253655   4.746   0.610   1.426
10747TIP3    H153656   4.752   0.664   1.507
10747TIP3    H253657   4.811   0.540   1.436
10748TIP3   OH253658   4.777   0.214   0.601
10748TIP3    H153659   4.742   0.281   0.661
10748TIP3    H253660   4.841   0.267   0.549
10749TIP3   OH253661   4.470   1.652   0.310
10749TIP3    H153662   4.488   1.735   0.260
10749TIP3    H253663   4.447   1.686   0.398
10750TIP3   OH253664   4.341   0.319   0.266
10750TIP3    H153665   4.331   0.410   0.303
10750TIP3    H253666   4.433   0.303   0.297
10751TIP3   OH253667   5.362   0.396   1.512
10751TIP3    H153668   5.269   0.428   1.498
10751TIP3    H253669   5.392   0.393   1.419
10752TIP3   OH253670   5.223   0.775   0.911
10752TIP3    H153671   5.141   0.731   0.884
10752TIP3    H253672   5.272   0.706   0.962
10753TIP3   OH253673   4.164   1.368   0.169
10753TIP3    H153674   4.230   1.429   0.204
10753TIP3    H253675   4.217   1.322   0.101
10754TIP3   OH253676   4.003   0.637   0.092
10754TIP3    H153677   4.000   0.733   0.102
10754TIP3    H253678   3.916   0.616   0.056
10755TIP3   OH253679   5.330   1.701   1.078
10755TIP3    H153680   5.321   1.769   1.009
10755TIP3    H253681   5.426   1.706   1.096
10756TIP3   OH253682   4.055   0.129   0.965
10756TIP3    H153683   4.061   0.119   0.867
10756TIP3    H253684   4.040   0.037   0.987
10757TIP3   OH253685   3.975   1.505   0.573
10757TIP3    H153686   3.889   1.549   0.569
10757TIP3    H253687   4.022   1.552   0.503
10758TIP3   OH253688   3.894   1.770   1.702
10758TIP3    H153689   3.955   1.750   1.776
10758TIP3    H253690   3.855   1.683   1.684
10759TIP3   OH253691   4.364   1.662   1.863
10759TIP3    H153692   4.439   1.612   1.896
10759TIP3    H253693   4.360   1.634   1.769
10760TIP3   OH253694   4.822   1.623   0.062
10760TIP3    H153695   4.736   1.577   0.060
10760TIP3    H253696   4.868   1.574  -0.007
10761TIP3   OH253697   5.013   1.501   1.737
10761TIP3    H153698   4.982   1.412   1.764
10761TIP3    H253699   5.090   1.512   1.797
10762TIP3   OH253700   5.235   1.592   0.023
10762TIP3    H153701   5.259   1.511   0.072
10762TIP3    H253702   5.313   1.610  -0.031
10763TIP3   OH253703   3.886   1.147   1.801
10763TIP3    H153704   3.903   1.056   1.772
10763TIP3    H253705   3.812   1.171   1.745
10764TIP3   OH253706   4.331   1.189   0.016
10764TIP3    H153707   4.337   1.106   0.064
10764TIP3    H253708   4.387   1.166  -0.061
10765TIP3   OH253709   4.557   1.147   1.740
10765TIP3    H153710   4.524   1.178   1.653
10765TIP3    H253711   4.565   1.049   1.729
10766TIP3   OH253712   5.127   1.132   1.479
10766TIP3    H153713   5.206   1.190   1.473
10766TIP3    H253714   5.057   1.199   1.483
10767TIP3   OH253715   3.976   0.870   1.738
10767TIP3    H153716   4.018   0.783   1.734
10767TIP3    H253717   3.955   0.869   1.834
10768TIP3   OH253718   4.443   0.986   0.245
10768TIP3    H153719   4.393   0.932   0.308
10768TIP3    H253720   4.474   0.918   0.181
10769TIP3   OH253721   4.369   0.764   1.474
10769TIP3    H153722   4.309   0.836   1.500
10769TIP3    H253723   4.408   0.801   1.393
10770TIP3   OH253724   4.551   0.803   0.066
10770TIP3    H153725   4.539   0.792  -0.030
10770TIP3    H253726   4.649   0.811   0.075
10771TIP3   OH253727   4.876   1.025   1.817
10771TIP3    H153728   4.970   1.019   1.792
10771TIP3    H253729   4.858   0.941   1.862
10772TIP3   OH253730   5.463   1.056  16.018
10772TIP3    H153731   5.457   1.004  15.936
10772TIP3    H253732   5.489   1.144  15.989
10773TIP3   OH253733   4.408   0.501   1.581
10773TIP3    H153734   4.421   0.431   1.516
10773TIP3    H253735   4.402   0.583   1.527
10774TIP3   OH253736   4.449   0.342   1.333
10774TIP3    H153737   4.500   0.390   1.264
10774TIP3    H253738   4.359   0.332   1.292
10775TIP3   OH253739   4.603   0.890   1.360
10775TIP3    H153740   4.679   0.873   1.303
10775TIP3    H253741   4.566   0.973   1.326
10776TIP3   OH253742   5.042   0.667   1.858
10776TIP3    H153743   5.065   0.573   1.847
10776TIP3    H253744   5.130   0.708   1.857
10777TIP3   OH253745   5.176   0.945   1.676
10777TIP3    H153746   5.151   1.016   1.613
10777TIP3    H253747   5.272   0.941   1.655
10778TIP3   OH253748   4.256   0.628   1.772
10778TIP3    H153749   4.177   0.572   1.759
10778TIP3    H253750   4.320   0.589   1.710
10779TIP3   OH253751   4.513   0.103   1.402
10779TIP3    H153752   4.508   0.197   1.373
10779TIP3    H253753   4.455   0.062   1.337
10780TIP3   OH253754   4.652   0.520   1.736
10780TIP3    H153755   4.625   0.489   1.825
10780TIP3    H253756   4.575   0.495   1.683
10781TIP3   OH253757   4.927   0.433   1.648
10781TIP3    H153758   4.830   0.435   1.659
10781TIP3    H253759   4.955   0.368   1.716
10782TIP3   OH253760   5.086   0.305   1.840
10782TIP3    H153761   5.077   0.206   1.837
10782TIP3    H253762   5.058   0.325   1.930
10783TIP3   OH253763   4.061   0.419   1.746
10783TIP3    H153764   4.088   0.345   1.689
10783TIP3    H253765   4.055   0.377   1.834
10784TIP3   OH253766   4.548   7.324   1.649
10784TIP3    H153767   4.616   7.257   1.653
10784TIP3    H253768   4.537   7.345   1.553
10785TIP3   OH253769   4.589   0.192   1.852
10785TIP3    H153770   4.570   0.135   1.775
10785TIP3    H253771   4.525   0.264   1.846
10786TIP3   OH253772   4.530   1.874   0.169
10786TIP3    H153773   4.628   1.886   0.180
10786TIP3    H253774   4.514   1.941   0.103
10787TIP3   OH253775   3.889   1.336   0.120
10787TIP3    H153776   3.984   1.347   0.141
10787TIP3    H253777   3.894   1.277   0.044
10788TIP3   OH253778   3.765   1.872   0.618
10788TIP3    H153779   3.694   1.823   0.571
10788TIP3    H253780   3.793   1.807   0.684
10789TIP3   OH253781   3.848   1.686   0.805
10789TIP3    H153782   3.813   1.598   0.825
10789TIP3    H253783   3.870   1.719   0.894
10790TIP3   OH253784   5.602   1.765   1.098
10790TIP3    H153785   5.605   1.781   1.194
10790TIP3    H253786   5.672   1.824   1.068
10791TIP3   OH253787   5.559   1.725   1.393
10791TIP3    H153788   5.512   1.648   1.354
10791TIP3    H253789   5.608   1.680   1.464
10792TIP3   OH253790   5.404   1.297   1.859
10792TIP3    H153791   5.314   1.295   1.895
10792TIP3    H253792   5.441   1.378   1.901
10793TIP3   OH253793   5.537   1.129   0.402
10793TIP3    H153794   5.622   1.170   0.424
10793TIP3    H253795   5.533   1.059   0.470
10794TIP3   OH253796   5.571   0.938   0.591
10794TIP3    H153797   5.496   0.887   0.629
10794TIP3    H253798   5.630   0.951   0.668
10795TIP3   OH253799   5.547   1.207   1.090
10795TIP3    H153800   5.628   1.169   1.052
10795TIP3    H253801   5.561   1.302   1.073
10796TIP3   OH253802   5.403   1.498   1.317
10796TIP3    H153803   5.334   1.532   1.376
10796TIP3    H253804   5.348   1.457   1.246
10797TIP3   OH253805   5.602   0.921   0.231
10797TIP3    H153806   5.542   0.956   0.163
10797TIP3    H253807   5.593   0.992   0.298
10798TIP3   OH253808   5.395   0.645   0.093
10798TIP3    H153809   5.440   0.706   0.032
10798TIP3    H253810   5.418   0.563   0.049
10799TIP3   OH253811   5.353   0.785   0.649
10799TIP3    H153812   5.338   0.689   0.644
10799TIP3    H253813   5.320   0.806   0.738
10800TIP3   OH253814   3.854   0.993   1.055
10800TIP3    H153815   3.871   0.985   0.958
10800TIP3    H253816   3.943   0.976   1.090
10801TIP3   OH253817   5.439   0.981   1.618
10801TIP3    H153818   5.500   0.906   1.631
10801TIP3    H253819   5.499   1.058   1.618
10802TIP3   OH253820   5.589   0.769   1.683
10802TIP3    H153821   5.501   0.730   1.667
10802TIP3    H253822   5.647   0.691   1.675
10803TIP3   OH253823   5.318   0.544   0.494
10803TIP3    H153824   5.351   0.453   0.506
10803TIP3    H253825   5.397   0.586   0.457
10804TIP3   OH253826   5.383   0.600   1.038
10804TIP3    H153827   5.480   0.621   1.037
10804TIP3    H253828   5.365   0.611   1.133
10805TIP3   OH253829   5.389   0.672   1.316
10805TIP3    H153830   5.301   0.699   1.349
10805TIP3    H253831   5.433   0.757   1.294
10806TIP3   OH253832   3.814   0.525   1.669
10806TIP3    H153833   3.908   0.505   1.691
10806TIP3    H253834   3.771   0.441   1.696
10807TIP3   OH253835   5.624   0.077   1.853
10807TIP3    H153836   5.647   0.010   1.787
10807TIP3    H253837   5.624   0.159   1.801
10808TIP3   OH253838   5.395   0.264   0.492
10808TIP3    H153839   5.402   0.234   0.586
10808TIP3    H253840   5.315   0.218   0.458
10809TIP3   OH253841   3.932   0.358   0.951
10809TIP3    H153842   3.976   0.273   0.978
10809TIP3    H253843   3.990   0.422   0.993
10810TIP3   OH253844   3.764   0.653   1.058
10810TIP3    H153845   3.820   0.627   0.982
10810TIP3    H253846   3.810   0.733   1.085
10811TIP3   OH253847   5.570   0.282   1.684
10811TIP3    H153848   5.478   0.312   1.680
10811TIP3    H253849   5.574   0.229   1.603
10812TIP3   OH253850   5.577   0.270   0.169
10812TIP3    H153851   5.607   0.207   0.102
10812TIP3    H253852   5.639   0.343   0.153
10813TIP3   OH253853   3.799   0.275   0.467
10813TIP3    H153854   3.705   0.297   0.450
10813TIP3    H253855   3.842   0.324   0.395
10814TIP3   OH253856   5.274   1.773   0.662
10814TIP3    H153857   5.342   1.743   0.599
10814TIP3    H253858   5.325   1.823   0.726
10815TIP3   OH253859   3.796   0.152   1.297
10815TIP3    H153860   3.728   0.128   1.362
10815TIP3    H253861   3.747   0.211   1.237
10816TIP3   OH253862   4.019   1.464   1.711
10816TIP3    H153863   3.935   1.486   1.667
10816TIP3    H253864   3.992   1.456   1.803
10817TIP3   OH253865   4.309   1.565   1.339
10817TIP3    H153866   4.276   1.651   1.312
10817TIP3    H253867   4.402   1.573   1.309
10818TIP3   OH253868   4.741   1.707   1.630
10818TIP3    H153869   4.755   1.671   1.720
10818TIP3    H253870   4.831   1.737   1.605
10819TIP3   OH253871   4.970   1.833   1.561
10819TIP3    H153872   5.043   1.775   1.537
10819TIP3    H253873   5.007   1.877   1.640
10820TIP3   OH253874   5.472   0.097   1.462
10820TIP3    H153875   5.388   0.128   1.425
10820TIP3    H253876   5.487   0.012   1.416
10821TIP3   OH253877   4.051   1.888   1.339
10821TIP3    H153878   3.978   1.938   1.299
10821TIP3    H253879   4.020   1.869   1.428
10822TIP3   OH253880   4.298   1.846   1.246
10822TIP3    H153881   4.209   1.861   1.285
10822TIP3    H253882   4.293   1.905   1.169
10823TIP3   OH253883   4.769   1.837   1.163
10823TIP3    H153884   4.723   1.893   1.099
10823TIP3    H253885   4.782   1.900   1.237
10824TIP3   OH253886   4.998   1.718   1.266
10824TIP3    H153887   4.912   1.746   1.229
10824TIP3    H253888   5.046   1.801   1.257
10825TIP3   OH253889   5.256   1.875   1.288
10825TIP3    H153890   5.251   1.971   1.265
10825TIP3    H253891   5.278   1.837   1.200
10826TIP3   OH253892   3.997   1.753   1.033
10826TIP3    H153893   3.989   1.707   1.119
10826TIP3    H253894   4.079   1.715   0.994
10827TIP3   OH253895   4.205   1.624   0.898
10827TIP3    H153896   4.188   1.531   0.922
10827TIP3    H253897   4.290   1.640   0.944
10828TIP3   OH253898   4.466   1.673   0.986
10828TIP3    H153899   4.481   1.580   0.960
10828TIP3    H253900   4.470   1.667   1.083
10829TIP3   OH253901   4.798   0.244   0.899
10829TIP3    H153902   4.740   0.172   0.927
10829TIP3    H253903   4.866   0.194   0.849
10830TIP3   OH253904   5.325   0.043   0.905
10830TIP3    H153905   5.386   0.103   0.859
10830TIP3    H253906   5.238   0.080   0.888
10831TIP3   OH253907   5.493   0.171   0.726
10831TIP3    H153908   5.563   0.110   0.700
10831TIP3    H253909   5.543   0.253   0.746
10832TIP3   OH253910   4.044   0.103   0.689
10832TIP3    H153911   3.968   0.080   0.633
10832TIP3    H253912   4.092   0.018   0.690
10833TIP3   OH253913   3.928   0.075   0.260
10833TIP3    H153914   3.972   0.140   0.202
10833TIP3    H253915   3.864   0.129   0.309
10834TIP3   OH253916   4.501   0.086   0.662
10834TIP3    H153917   4.586   0.132   0.659
10834TIP3    H253918   4.491   0.070   0.757
10835TIP3   OH253919   5.040   0.131   0.843
10835TIP3    H153920   5.052   0.127   0.747
10835TIP3    H253921   5.031   0.033   0.855
10836TIP3   OH253922   5.198   0.101   0.402
10836TIP3    H153923   5.123   0.157   0.374
10836TIP3    H253924   5.154   0.015   0.407
10837TIP3   OH253925   3.917   1.671   0.357
10837TIP3    H153926   3.849   1.671   0.287
10837TIP3    H253927   3.918   1.766   0.375
10838TIP3   OH253928   4.106   0.255   0.113
10838TIP3    H153929   4.162   0.208   0.051
10838TIP3    H253930   4.171   0.300   0.170
10839TIP3   OH253931   4.602   0.291   0.354
10839TIP3    H153932   4.640   0.238   0.426
10839TIP3    H253933   4.617   0.380   0.395
10840TIP3   OH253934   4.800   1.833   0.196
10840TIP3    H153935   4.897   1.830   0.180
10840TIP3    H253936   4.783   1.760   0.133
10841TIP3   OH253937   5.473   1.752   0.464
10841TIP3    H153938   5.453   1.674   0.407
10841TIP3    H253939   5.464   1.826   0.400
10842TIP3   OH253940   4.026   0.151   1.619
10842TIP3    H153941   3.993   0.078   1.671
10842TIP3    H253942   4.116   0.154   1.660
10843TIP3   OH253943   4.211   0.114   1.783
10843TIP3    H153944   4.305   0.094   1.771
10843TIP3    H253945   4.194   0.028   1.828
10844TIP3   OH253946   4.103   1.769   0.053
10844TIP3    H153947   4.070   1.796   0.140
10844TIP3    H253948   4.176   1.711   0.074
10845TIP3   OH253949   5.067   7.359   1.801
10845TIP3    H153950   5.074   7.303   1.881
10845TIP3    H253951   5.157   7.337   1.770
10846TIP3   OH253952   5.398   1.626   1.672
10846TIP3    H153953   5.317   1.613   1.618
10846TIP3    H253954   5.386   1.721   1.694
10847TIP3   OH253955   6.842   1.013   0.671
10847TIP3    H153956   6.842   1.111   0.667
10847TIP3    H253957   6.769   0.990   0.611
10848TIP3   OH253958   6.728   0.939   1.019
10848TIP3    H153959   6.726   0.875   1.092
10848TIP3    H253960   6.694   0.888   0.944
10849TIP3   OH253961   5.963   0.907   1.176
10849TIP3    H153962   5.971   0.838   1.245
10849TIP3    H253963   6.038   0.964   1.198
10850TIP3   OH253964   7.098   1.232   0.850
10850TIP3    H153965   7.056   1.161   0.899
10850TIP3    H253966   7.099   1.304   0.915
10851TIP3   OH253967   6.055   1.352   1.026
10851TIP3    H153968   6.024   1.265   0.994
10851TIP3    H253969   6.151   1.334   1.030
10852TIP3   OH253970   5.719   0.707   0.575
10852TIP3    H153971   5.676   0.794   0.570
10852TIP3    H253972   5.663   0.654   0.518
10853TIP3   OH253973   5.791   0.932   0.790
10853TIP3    H153974   5.818   0.849   0.835
10853TIP3    H253975   5.860   0.941   0.723
10854TIP3   OH253976   6.809   1.751   0.871
10854TIP3    H153977   6.873   1.680   0.844
10854TIP3    H253978   6.785   1.717   0.958
10855TIP3   OH253979   6.566   1.179   1.068
10855TIP3    H153980   6.599   1.117   1.002
10855TIP3    H253981   6.647   1.195   1.119
10856TIP3   OH253982   6.885   0.629   1.099
10856TIP3    H153983   6.899   0.532   1.098
10856TIP3    H253984   6.873   0.643   1.003
10857TIP3   OH253985   6.194   0.437   0.821
10857TIP3    H153986   6.204   0.520   0.771
10857TIP3    H253987   6.153   0.379   0.753
10858TIP3   OH253988   6.968   0.446   0.660
10858TIP3    H153989   7.034   0.413   0.726
10858TIP3    H253990   7.027   0.498   0.604
10859TIP3   OH253991   5.855   0.677   0.894
10859TIP3    H153992   5.922   0.622   0.940
10859TIP3    H253993   5.866   0.645   0.803
10860TIP3   OH253994   6.371   0.832   0.826
10860TIP3    H153995   6.438   0.774   0.865
10860TIP3    H253996   6.320   0.766   0.775
10861TIP3   OH253997   6.085   0.331   1.223
10861TIP3    H153998   6.053   0.384   1.148
10861TIP3    H253999   6.015   0.348   1.291
10862TIP3   OH254000   6.811   1.271   0.578
10862TIP3    H154001   6.786   1.246   0.488
10862TIP3    H254002   6.782   1.365   0.584
10863TIP3   OH254003   6.335   1.089   1.248
10863TIP3    H154004   6.265   1.154   1.270
10863TIP3    H254005   6.406   1.149   1.219
10864TIP3   OH254006   7.119   0.370   0.867
10864TIP3    H154007   7.119   0.292   0.923
10864TIP3    H254008   7.193   0.420   0.907
10865TIP3   OH254009   6.040   0.516   1.026
10865TIP3    H154010   6.105   0.580   1.060
10865TIP3    H254011   6.092   0.471   0.954
10866TIP3   OH254012   6.180   1.290   1.330
10866TIP3    H154013   6.175   1.381   1.297
10866TIP3    H254014   6.092   1.282   1.375
10867TIP3   OH254015   5.786   1.251   0.409
10867TIP3    H154016   5.765   1.285   0.320
10867TIP3    H254017   5.795   1.334   0.461
10868TIP3   OH254018   7.129   1.411   1.095
10868TIP3    H154019   7.033   1.432   1.099
10868TIP3    H254020   7.167   1.495   1.065
10869TIP3   OH254021   7.161   0.263   1.197
10869TIP3    H154022   7.091   0.328   1.210
10869TIP3    H254023   7.239   0.311   1.168
10870TIP3   OH254024   6.475   0.059   0.953
10870TIP3    H154025   6.474  -0.036   0.970
10870TIP3    H254026   6.397   0.086   1.004
10871TIP3   OH254027   6.967   1.589   0.746
10871TIP3    H154028   7.016   1.522   0.696
10871TIP3    H254029   7.012   1.670   0.712
10872TIP3   OH254030   7.095   1.388   0.596
10872TIP3    H154031   7.069   1.317   0.535
10872TIP3    H254032   7.101   1.337   0.680
10873TIP3   OH254033   7.232   1.262   1.458
10873TIP3    H154034   7.260   1.193   1.395
10873TIP3    H254035   7.273   1.338   1.412
10874TIP3   OH254036   6.706   0.937   0.419
10874TIP3    H154037   6.638   0.997   0.382
10874TIP3    H254038   6.778   0.947   0.353
10875TIP3   OH254039   6.710   0.787   0.133
10875TIP3    H154040   6.788   0.794   0.190
10875TIP3    H254041   6.744   0.728   0.066
10876TIP3   OH254042   7.048   0.959   0.511
10876TIP3    H154043   6.977   0.985   0.574
10876TIP3    H254044   7.098   0.896   0.568
10877TIP3   OH254045   7.047   0.777   1.424
10877TIP3    H154046   7.042   0.856   1.479
10877TIP3    H254047   6.983   0.804   1.355
10878TIP3   OH254048   6.214   1.025   0.706
10878TIP3    H154049   6.182   0.986   0.621
10878TIP3    H254050   6.275   0.956   0.739
10879TIP3   OH254051   6.345   1.363   0.974
10879TIP3    H154052   6.345   1.311   0.893
10879TIP3    H254053   6.424   1.327   1.020
10880TIP3   OH254054   6.246   0.899   1.072
10880TIP3    H154055   6.301   0.909   0.992
10880TIP3    H254056   6.285   0.966   1.133
10881TIP3   OH254057   6.880   1.458   1.141
10881TIP3    H154058   6.861   1.521   1.211
10881TIP3    H254059   6.863   1.371   1.184
10882TIP3   OH254060   6.342   1.342   1.542
10882TIP3    H154061   6.300   1.416   1.591
10882TIP3    H254062   6.275   1.322   1.472
10883TIP3   OH254063   6.941   0.875   0.282
10883TIP3    H154064   6.993   0.899   0.363
10883TIP3    H254065   6.979   0.934   0.214
10884TIP3   OH254066   6.036   0.958   1.457
10884TIP3    H154067   6.041   1.025   1.528
10884TIP3    H254068   5.942   0.967   1.436
10885TIP3   OH254069   6.710   1.551   0.628
10885TIP3    H154070   6.753   1.581   0.708
10885TIP3    H254071   6.655   1.626   0.602
10886TIP3   OH254072   6.167   1.546   1.616
10886TIP3    H154073   6.160   1.536   1.520
10886TIP3    H254074   6.074   1.532   1.643
10887TIP3   OH254075   6.110   0.927   0.469
10887TIP3    H154076   6.083   1.005   0.415
10887TIP3    H254077   6.044   0.861   0.444
10888TIP3   OH254078   5.720   1.170   1.358
10888TIP3    H154079   5.675   1.162   1.271
10888TIP3    H254080   5.728   1.076   1.379
10889TIP3   OH254081   5.695   1.443   1.035
10889TIP3    H154082   5.791   1.432   1.033
10889TIP3    H254083   5.687   1.525   1.085
10890TIP3   OH254084   6.615   1.468   1.490
10890TIP3    H154085   6.621   1.552   1.541
10890TIP3    H254086   6.528   1.432   1.515
10891TIP3   OH254087   6.658   1.841   0.468
10891TIP3    H154088   6.651   1.837   0.370
10891TIP3    H254089   6.663   1.937   0.485
10892TIP3   OH254090   6.023   1.730   0.651
10892TIP3    H154091   6.038   1.689   0.739
10892TIP3    H254092   5.938   1.689   0.628
10893TIP3   OH254093   6.957   1.759   0.166
10893TIP3    H154094   7.009   1.688   0.123
10893TIP3    H254095   6.966   1.738   0.261
10894TIP3   OH254096   6.932   1.754   0.445
10894TIP3    H154097   6.837   1.765   0.465
10894TIP3    H254098   6.956   1.681   0.505
10895TIP3   OH254099   7.184   0.679   1.654
10895TIP3    H154100   7.181   0.713   1.564
10895TIP3    H254101   7.238   0.596   1.639
10896TIP3   OH254102   5.948   1.301   1.451
10896TIP3    H154103   5.970   1.265   1.540
10896TIP3    H254104   5.861   1.262   1.430
10897TIP3   OH254105   6.213   0.145   1.049
10897TIP3    H154106   6.124   0.139   1.009
10897TIP3    H254107   6.203   0.231   1.094
10898TIP3   OH254108   6.646   0.146   1.360
10898TIP3    H154109   6.709   0.109   1.429
10898TIP3    H254110   6.568   0.107   1.399
10899TIP3   OH254111   7.004   0.494   1.468
10899TIP3    H154112   6.951   0.480   1.550
10899TIP3    H254113   6.996   0.589   1.452
10900TIP3   OH254114   7.102   0.979   0.067
10900TIP3    H154115   7.094   0.969  -0.030
10900TIP3    H254116   7.178   1.038   0.073
10901TIP3   OH254117   6.644   0.373   0.117
10901TIP3    H154118   6.615   0.367   0.210
10901TIP3    H254119   6.622   0.284   0.087
10902TIP3   OH254120   6.227   0.647   1.173
10902TIP3    H154121   6.152   0.645   1.235
10902TIP3    H254122   6.222   0.737   1.134
10903TIP3   OH254123   6.223   0.658   0.658
10903TIP3    H154124   6.129   0.635   0.645
10903TIP3    H254125   6.260   0.629   0.572
10904TIP3   OH254126   6.777   0.709   0.532
10904TIP3    H154127   6.734   0.791   0.499
10904TIP3    H254128   6.845   0.693   0.464
10905TIP3   OH254129   6.681   0.730   1.679
10905TIP3    H154130   6.629   0.652   1.709
10905TIP3    H254131   6.765   0.717   1.726
10906TIP3   OH254132   6.875   0.659   0.822
10906TIP3    H154133   6.852   0.713   0.745
10906TIP3    H254134   6.887   0.573   0.776
10907TIP3   OH254135   5.988   0.672   1.339
10907TIP3    H154136   5.997   0.712   1.427
10907TIP3    H254137   5.944   0.588   1.360
10908TIP3   OH254138   6.346   0.437   0.061
10908TIP3    H154139   6.288   0.375   0.108
10908TIP3    H254140   6.291   0.474  -0.009
10909TIP3   OH254141   5.654   0.383   0.737
10909TIP3    H154142   5.722   0.384   0.809
10909TIP3    H254143   5.704   0.348   0.662
10910TIP3   OH254144   5.781   0.457   0.279
10910TIP3    H154145   5.833   0.513   0.217
10910TIP3    H254146   5.713   0.522   0.306
10911TIP3   OH254147   6.796   0.815   1.274
10911TIP3    H154148   6.836   0.745   1.217
10911TIP3    H254149   6.750   0.762   1.342
10912TIP3   OH254150   6.478   0.413   0.757
10912TIP3    H154151   6.385   0.413   0.788
10912TIP3    H254152   6.528   0.397   0.839
10913TIP3   OH254153   5.959   0.568   0.645
10913TIP3    H154154   5.870   0.583   0.606
10913TIP3    H254155   5.989   0.486   0.604
10914TIP3   OH254156   6.322   0.575   0.409
10914TIP3    H154157   6.418   0.584   0.425
10914TIP3    H254158   6.300   0.640   0.340
10915TIP3   OH254159   6.910   0.339   1.082
10915TIP3    H154160   6.843   0.341   1.154
10915TIP3    H254161   6.862   0.310   1.003
10916TIP3   OH254162   6.194   0.691   0.167
10916TIP3    H154163   6.137   0.656   0.097
10916TIP3    H254164   6.276   0.711   0.119
10917TIP3   OH254165   7.228   1.906   1.719
10917TIP3    H154166   7.262   1.938   1.634
10917TIP3    H254167   7.303   1.931   1.775
10918TIP3   OH254168   6.006   1.148   1.672
10918TIP3    H154169   6.078   1.172   1.733
10918TIP3    H254170   5.929   1.156   1.732
10919TIP3   OH254171   6.606   0.688   0.948
10919TIP3    H154172   6.667   0.634   0.895
10919TIP3    H254173   6.591   0.633   1.026
10920TIP3   OH254174   6.105   0.306   0.594
10920TIP3    H154175   6.074   0.214   0.594
10920TIP3    H254176   6.183   0.298   0.538
10921TIP3   OH254177   6.471   0.527   1.188
10921TIP3    H154178   6.387   0.575   1.199
10921TIP3    H254179   6.526   0.558   1.262
10922TIP3   OH254180   6.530   1.142   0.362
10922TIP3    H154181   6.449   1.097   0.328
10922TIP3    H254182   6.507   1.156   0.456
10923TIP3   OH254183   7.216   1.066   1.239
10923TIP3    H154184   7.288   1.079   1.174
10923TIP3    H254185   7.140   1.067   1.178
10924TIP3   OH254186   6.917   0.426   0.178
10924TIP3    H154187   6.822   0.435   0.158
10924TIP3    H254188   6.943   0.513   0.212
10925TIP3   OH254189   6.679   1.171   1.483
10925TIP3    H154190   6.643   1.128   1.562
10925TIP3    H254191   6.655   1.263   1.494
10926TIP3   OH254192   6.987   0.619   0.337
10926TIP3    H154193   7.075   0.604   0.378
10926TIP3    H254194   6.994   0.704   0.292
10927TIP3   OH254195   6.040   1.084   0.939
10927TIP3    H154196   6.108   1.075   0.869
10927TIP3    H254197   6.046   0.998   0.985
10928TIP3   OH254198   6.737   1.290   0.265
10928TIP3    H154199   6.702   1.375   0.299
10928TIP3    H254200   6.664   1.227   0.284
10929TIP3   OH254201   5.738   0.924   1.466
10929TIP3    H154202   5.756   0.879   1.551
10929TIP3    H254203   5.677   0.863   1.421
10930TIP3   OH254204   6.440   0.880   1.683
10930TIP3    H154205   6.408   0.849   1.597
10930TIP3    H254206   6.532   0.847   1.683
10931TIP3   OH254207   6.909   1.413   1.478
10931TIP3    H154208   6.817   1.430   1.454
10931TIP3    H254209   6.906   1.442   1.571
10932TIP3   OH254210   7.019   0.993   1.068
10932TIP3    H154211   6.926   0.971   1.054
10932TIP3    H254212   7.067   0.920   1.026
10933TIP3   OH254213   6.277   1.429   0.678
10933TIP3    H154214   6.327   1.509   0.657
10933TIP3    H254215   6.189   1.452   0.644
10934TIP3   OH254216   5.851   0.916   0.129
10934TIP3    H154217   5.913   0.976   0.175
10934TIP3    H254218   5.764   0.942   0.164
10935TIP3   OH254219   6.419   1.195   0.630
10935TIP3    H154220   6.387   1.287   0.638
10935TIP3    H254221   6.347   1.146   0.674
10936TIP3   OH254222   6.463   1.614   1.270
10936TIP3    H154223   6.510   1.694   1.242
10936TIP3    H254224   6.525   1.580   1.338
10937TIP3   OH254225   6.287   1.695   0.581
10937TIP3    H154226   6.190   1.708   0.596
10937TIP3    H254227   6.322   1.778   0.617
10938TIP3   OH254228   6.818   1.214   1.232
10938TIP3    H154229   6.784   1.194   1.322
10938TIP3    H254230   6.880   1.142   1.215
10939TIP3   OH254231   7.048   1.313   0.142
10939TIP3    H154232   7.079   1.272   0.225
10939TIP3    H254233   6.951   1.302   0.150
10940TIP3   OH254234   7.098   1.669   1.479
10940TIP3    H154235   7.026   1.623   1.433
10940TIP3    H254236   7.119   1.741   1.416
10941TIP3   OH254237   5.903   0.395   1.422
10941TIP3    H154238   5.813   0.431   1.418
10941TIP3    H254239   5.890   0.308   1.464
10942TIP3   OH254240   7.129   1.179   0.364
10942TIP3    H154241   7.104   1.102   0.420
10942TIP3    H254242   7.221   1.193   0.390
10943TIP3   OH254243   5.865   1.575   1.263
10943TIP3    H154244   5.896   1.483   1.263
10943TIP3    H254245   5.891   1.605   1.351
10944TIP3   OH254246   6.340   1.385   0.233
10944TIP3    H154247   6.365   1.328   0.308
10944TIP3    H254248   6.349   1.476   0.268
10945TIP3   OH254249   5.991   1.106   0.287
10945TIP3    H154250   5.923   1.148   0.343
10945TIP3    H254251   6.045   1.182   0.259
10946TIP3   OH254252   6.776   0.375   1.316
10946TIP3    H154253   6.851   0.377   1.378
10946TIP3    H254254   6.738   0.286   1.334
10947TIP3   OH254255   6.858   0.331   0.425
10947TIP3    H154256   6.878   0.379   0.342
10947TIP3    H254257   6.910   0.380   0.490
10948TIP3   OH254258   6.619   1.549   0.305
10948TIP3    H154259   6.537   1.601   0.315
10948TIP3    H254260   6.674   1.601   0.244
10949TIP3   OH254261   6.574   0.504   0.506
10949TIP3    H154262   6.651   0.564   0.507
10949TIP3    H254263   6.549   0.496   0.600
10950TIP3   OH254264   6.633   0.609   1.426
10950TIP3    H154265   6.641   0.665   1.505
10950TIP3    H254266   6.697   0.537   1.435
10951TIP3   OH254267   6.659   0.214   0.600
10951TIP3    H154268   6.628   0.282   0.662
10951TIP3    H254269   6.726   0.266   0.550
10952TIP3   OH254270   6.356   1.652   0.310
10952TIP3    H154271   6.374   1.735   0.260
10952TIP3    H254272   6.332   1.686   0.399
10953TIP3   OH254273   6.226   0.319   0.266
10953TIP3    H154274   6.216   0.410   0.303
10953TIP3    H254275   6.318   0.303   0.297
10954TIP3   OH254276   7.239   0.379   1.495
10954TIP3    H154277   7.151   0.425   1.493
10954TIP3    H254278   7.275   0.397   1.408
10955TIP3   OH254279   7.109   0.775   0.916
10955TIP3    H154280   7.027   0.731   0.885
10955TIP3    H254281   7.152   0.704   0.964
10956TIP3   OH254282   6.049   1.368   0.169
10956TIP3    H154283   6.116   1.429   0.204
10956TIP3    H254284   6.103   1.322   0.101
10957TIP3   OH254285   5.888   0.636   0.091
10957TIP3    H154286   5.885   0.732   0.102
10957TIP3    H254287   5.801   0.616   0.056
10958TIP3   OH254288   7.222   1.703   1.077
10958TIP3    H154289   7.206   1.771   1.008
10958TIP3    H254290   7.316   1.712   1.094
10959TIP3   OH254291   5.940   0.129   0.965
10959TIP3    H154292   5.946   0.119   0.867
10959TIP3    H254293   5.926   0.037   0.987
10960TIP3   OH254294   5.860   1.505   0.573
10960TIP3    H154295   5.774   1.550   0.569
10960TIP3    H254296   5.907   1.552   0.503
10961TIP3   OH254297   5.780   1.770   1.702
10961TIP3    H154298   5.841   1.750   1.776
10961TIP3    H254299   5.740   1.683   1.684
10962TIP3   OH254300   6.249   1.662   1.863
10962TIP3    H154301   6.324   1.612   1.896
10962TIP3    H254302   6.246   1.634   1.769
10963TIP3   OH254303   6.708   1.623   0.061
10963TIP3    H154304   6.622   1.577   0.060
10963TIP3    H254305   6.753   1.574  -0.008
10964TIP3   OH254306   6.905   1.499   1.737
10964TIP3    H154307   6.870   1.412   1.766
10964TIP3    H254308   6.980   1.510   1.798
10965TIP3   OH254309   7.117   1.590   0.024
10965TIP3    H154310   7.145   1.510   0.072
10965TIP3    H254311   7.195   1.613  -0.028
10966TIP3   OH254312   5.771   1.147   1.802
10966TIP3    H154313   5.788   1.056   1.771
10966TIP3    H254314   5.697   1.173   1.744
10967TIP3   OH254315   6.217   1.189   0.016
10967TIP3    H154316   6.223   1.106   0.064
10967TIP3    H254317   6.273   1.166  -0.061
10968TIP3   OH254318   6.443   1.146   1.740
10968TIP3    H154319   6.410   1.178   1.654
10968TIP3    H254320   6.451   1.049   1.729
10969TIP3   OH254321   7.010   1.128   1.479
10969TIP3    H154322   7.089   1.188   1.474
10969TIP3    H254323   6.943   1.197   1.484
10970TIP3   OH254324   5.864   0.870   1.740
10970TIP3    H154325   5.905   0.784   1.731
10970TIP3    H254326   5.840   0.871   1.834
10971TIP3   OH254327   6.329   0.986   0.245
10971TIP3    H154328   6.278   0.932   0.308
10971TIP3    H254329   6.360   0.918   0.181
10972TIP3   OH254330   6.253   0.764   1.475
10972TIP3    H154331   6.194   0.836   1.501
10972TIP3    H254332   6.293   0.801   1.394
10973TIP3   OH254333   6.437   0.803   0.066
10973TIP3    H154334   6.424   0.793  -0.030
10973TIP3    H254335   6.535   0.811   0.075
10974TIP3   OH254336   6.761   1.022   1.809
10974TIP3    H154337   6.856   1.021   1.796
10974TIP3    H254338   6.745   0.944   1.865
10975TIP3   OH254339   6.294   0.501   1.581
10975TIP3    H154340   6.306   0.430   1.515
10975TIP3    H254341   6.291   0.582   1.525
10976TIP3   OH254342   6.334   0.344   1.333
10976TIP3    H154343   6.386   0.390   1.264
10976TIP3    H254344   6.245   0.332   1.292
10977TIP3   OH254345   6.488   0.889   1.360
10977TIP3    H154346   6.564   0.873   1.303
10977TIP3    H254347   6.452   0.973   1.327
10978TIP3   OH254348   6.933   0.667   1.858
10978TIP3    H154349   6.955   0.574   1.846
10978TIP3    H254350   7.021   0.709   1.853
10979TIP3   OH254351   7.064   0.949   1.674
10979TIP3    H154352   7.035   1.017   1.609
10979TIP3    H254353   7.157   0.937   1.652
10980TIP3   OH254354   6.140   0.627   1.773
10980TIP3    H154355   6.063   0.570   1.756
10980TIP3    H254356   6.206   0.591   1.710
10981TIP3   OH254357   6.391   0.103   1.405
10981TIP3    H154358   6.396   0.196   1.372
10981TIP3    H254359   6.341   0.061   1.334
10982TIP3   OH254360   6.538   0.519   1.736
10982TIP3    H154361   6.510   0.490   1.825
10982TIP3    H254362   6.460   0.496   1.683
10983TIP3   OH254363   6.810   0.438   1.652
10983TIP3    H154364   6.713   0.431   1.659
10983TIP3    H254365   6.842   0.367   1.711
10984TIP3   OH254366   6.982   0.303   1.844
10984TIP3    H154367   6.962   0.206   1.835
10984TIP3    H254368   6.941   0.322   1.929
10985TIP3   OH254369   5.947   0.420   1.748
10985TIP3    H154370   5.973   0.347   1.690
10985TIP3    H254371   5.940   0.374   1.834
10986TIP3   OH254372   6.430   7.321   1.649
10986TIP3    H154373   6.507   7.263   1.651
10986TIP3    H254374   6.425   7.346   1.554
10987TIP3   OH254375   6.472   0.190   1.854
10987TIP3    H154376   6.459   0.135   1.774
10987TIP3    H254377   6.411   0.265   1.844
10988TIP3   OH254378   6.416   1.874   0.169
10988TIP3    H154379   6.513   1.886   0.180
10988TIP3    H254380   6.399   1.941   0.103
10989TIP3   OH254381   5.774   1.336   0.120
10989TIP3    H154382   5.870   1.347   0.141
10989TIP3    H254383   5.780   1.277   0.044
10990TIP3   OH254384   5.651   1.872   0.617
10990TIP3    H154385   5.579   1.823   0.571
10990TIP3    H254386   5.679   1.806   0.684
10991TIP3   OH254387   5.734   1.686   0.805
10991TIP3    H154388   5.698   1.598   0.825
10991TIP3    H254389   5.758   1.718   0.894
10992TIP3   OH254390   7.280   1.491   1.323
10992TIP3    H154391   7.214   1.534   1.379
10992TIP3    H254392   7.227   1.455   1.250
10993TIP3   OH254393   7.188   0.793   0.657
10993TIP3    H154394   7.214   0.700   0.661
10993TIP3    H254395   7.200   0.817   0.751
10994TIP3   OH254396   5.739   0.993   1.055
10994TIP3    H154397   5.757   0.985   0.958
10994TIP3    H254398   5.829   0.976   1.090
10995TIP3   OH254399   7.203   0.537   0.478
10995TIP3    H154400   7.231   0.453   0.518
10995TIP3    H254401   7.286   0.572   0.445
10996TIP3   OH254402  -0.055   0.515   1.036
10996TIP3    H154403   0.035   0.548   1.024
10996TIP3    H254404  -0.075   0.576   1.109
10997TIP3   OH254405   7.278   0.675   1.342
10997TIP3    H154406   7.184   0.702   1.351
10997TIP3    H254407   7.314   0.744   1.283
10998TIP3   OH254408   5.700   0.525   1.671
10998TIP3    H154409   5.794   0.503   1.688
10998TIP3    H254410   5.656   0.441   1.695
10999TIP3   OH254411   7.181   0.238   0.566
10999TIP3    H154412   7.276   0.226   0.585
10999TIP3    H254413   7.182   0.198   0.476
11000TIP3   OH254414   5.818   0.358   0.951
11000TIP3    H154415   5.861   0.273   0.978
11000TIP3    H254416   5.875   0.423   0.993
11001TIP3   OH254417   5.649   0.653   1.058
11001TIP3    H154418   5.706   0.627   0.982
11001TIP3    H254419   5.696   0.733   1.085
11002TIP3   OH254420   5.678   0.265   0.460
11002TIP3    H154421   5.591   0.307   0.452
11002TIP3    H254422   5.728   0.323   0.398
11003TIP3   OH254423   7.141   1.755   0.670
11003TIP3    H154424   7.209   1.722   0.608
11003TIP3    H254425   7.193   1.812   0.728
11004TIP3   OH254426   5.681   0.152   1.296
11004TIP3    H154427   5.614   0.128   1.362
11004TIP3    H254428   5.633   0.212   1.237
11005TIP3   OH254429   5.905   1.463   1.711
11005TIP3    H154430   5.821   1.486   1.668
11005TIP3    H254431   5.878   1.456   1.803
11006TIP3   OH254432   6.195   1.564   1.339
11006TIP3    H154433   6.162   1.651   1.312
11006TIP3    H254434   6.287   1.573   1.309
11007TIP3   OH254435   6.627   1.707   1.629
11007TIP3    H154436   6.640   1.671   1.720
11007TIP3    H254437   6.717   1.737   1.605
11008TIP3   OH254438   6.858   1.833   1.562
11008TIP3    H154439   6.932   1.776   1.537
11008TIP3    H254440   6.896   1.879   1.640
11009TIP3   OH254441   5.937   1.888   1.339
11009TIP3    H154442   5.864   1.938   1.299
11009TIP3    H254443   5.906   1.869   1.428
11010TIP3   OH254444   6.184   1.846   1.246
11010TIP3    H154445   6.095   1.861   1.285
11010TIP3    H254446   6.178   1.905   1.169
11011TIP3   OH254447   6.651   1.836   1.163
11011TIP3    H154448   6.608   1.893   1.098
11011TIP3    H254449   6.667   1.899   1.236
11012TIP3   OH254450   6.883   1.717   1.266
11012TIP3    H154451   6.797   1.745   1.229
11012TIP3    H254452   6.929   1.803   1.259
11013TIP3   OH254453   7.128   1.874   1.287
11013TIP3    H154454   7.127   1.970   1.266
11013TIP3    H254455   7.162   1.838   1.204
11014TIP3   OH254456   5.883   1.753   1.033
11014TIP3    H154457   5.875   1.707   1.119
11014TIP3    H254458   5.965   1.715   0.994
11015TIP3   OH254459   6.090   1.624   0.898
11015TIP3    H154460   6.074   1.531   0.922
11015TIP3    H254461   6.176   1.640   0.944
11016TIP3   OH254462   6.348   1.673   0.986
11016TIP3    H154463   6.366   1.581   0.960
11016TIP3    H254464   6.355   1.667   1.083
11017TIP3   OH254465   6.682   0.244   0.899
11017TIP3    H154466   6.624   0.171   0.927
11017TIP3    H254467   6.751   0.196   0.849
11018TIP3   OH254468   7.210   0.047   0.914
11018TIP3    H154469   7.270   0.101   0.863
11018TIP3    H254470   7.123   0.079   0.890
11019TIP3   OH254471   5.930   0.102   0.689
11019TIP3    H154472   5.855   0.078   0.634
11019TIP3    H254473   5.980   0.019   0.692
11020TIP3   OH254474   5.808   0.075   0.259
11020TIP3    H154475   5.859   0.137   0.203
11020TIP3    H254476   5.754   0.136   0.309
11021TIP3   OH254477   6.387   0.086   0.662
11021TIP3    H154478   6.472   0.132   0.659
11021TIP3    H254479   6.376   0.070   0.757
11022TIP3   OH254480   6.921   0.131   0.840
11022TIP3    H154481   6.941   0.129   0.746
11022TIP3    H254482   6.915   0.033   0.853
11023TIP3   OH254483   7.076   0.093   0.383
11023TIP3    H154484   7.003   0.156   0.374
11023TIP3    H254485   7.033   0.010   0.408
11024TIP3   OH254486   5.803   1.671   0.357
11024TIP3    H154487   5.735   1.671   0.287
11024TIP3    H254488   5.804   1.766   0.375
11025TIP3   OH254489   5.992   0.255   0.113
11025TIP3    H154490   6.049   0.207   0.053
11025TIP3    H254491   6.056   0.300   0.170
11026TIP3   OH254492   6.487   0.291   0.354
11026TIP3    H154493   6.526   0.238   0.426
11026TIP3    H254494   6.503   0.380   0.395
11027TIP3   OH254495   6.685   1.833   0.196
11027TIP3    H154496   6.782   1.831   0.181
11027TIP3    H254497   6.669   1.760   0.132
11028TIP3   OH254498   5.912   0.151   1.619
11028TIP3    H154499   5.878   0.078   1.671
11028TIP3    H254500   6.002   0.154   1.660
11029TIP3   OH254501   6.097   0.114   1.784
11029TIP3    H154502   6.191   0.094   1.771
11029TIP3    H254503   6.079   0.028   1.828
11030TIP3   OH254504   5.988   1.769   0.053
11030TIP3    H154505   5.955   1.796   0.140
11030TIP3    H254506   6.062   1.711   0.074
11031TIP3   OH254507   6.961   7.360   1.810
11031TIP3    H154508   6.963   7.298   1.884
11031TIP3    H254509   7.042   7.335   1.764
11032TIP3   OH254510   7.262   1.614   1.686
11032TIP3    H154511   7.197   1.608   1.613
11032TIP3    H254512   7.264   1.712   1.694
11033TIP3   OH254513   1.185   2.900   0.670
11033TIP3    H154514   1.184   2.998   0.666
11033TIP3    H254515   1.113   2.876   0.611
11034TIP3   OH254516   1.070   2.825   1.020
11034TIP3    H154517   1.069   2.760   1.092
11034TIP3    H254518   1.036   2.774   0.945
11035TIP3   OH254519   0.311   2.791   1.172
11035TIP3    H154520   0.317   2.724   1.243
11035TIP3    H254521   0.381   2.852   1.200
11036TIP3   OH254522   1.439   3.120   0.849
11036TIP3    H154523   1.398   3.048   0.898
11036TIP3    H254524   1.442   3.191   0.916
11037TIP3   OH254525   0.398   3.236   1.027
11037TIP3    H154526   0.367   3.150   0.993
11037TIP3    H254527   0.494   3.219   1.030
11038TIP3   OH254528   0.098   2.601   0.527
11038TIP3    H154529   0.046   2.674   0.570
11038TIP3    H254530   0.021   2.540   0.535
11039TIP3   OH254531   0.142   2.818   0.795
11039TIP3    H154532   0.157   2.731   0.834
11039TIP3    H254533   0.202   2.823   0.721
11040TIP3   OH254534   1.151   3.636   0.873
11040TIP3    H154535   1.216   3.567   0.844
11040TIP3    H254536   1.130   3.602   0.960
11041TIP3   OH254537   0.908   3.065   1.068
11041TIP3    H154538   0.942   3.002   1.002
11041TIP3    H254539   0.989   3.081   1.119
11042TIP3   OH254540   1.768   2.232   1.140
11042TIP3    H154541   1.785   2.290   1.217
11042TIP3    H254542   1.825   2.273   1.074
11043TIP3   OH254543   1.225   2.512   1.099
11043TIP3    H154544   1.242   2.416   1.100
11043TIP3    H254545   1.215   2.526   1.003
11044TIP3   OH254546   0.537   2.318   0.823
11044TIP3    H154547   0.550   2.403   0.776
11044TIP3    H254548   0.498   2.263   0.753
11045TIP3   OH254549   1.310   2.329   0.657
11045TIP3    H154550   1.375   2.298   0.724
11045TIP3    H254551   1.367   2.386   0.603
11046TIP3   OH254552   0.200   2.555   0.890
11046TIP3    H154553   0.271   2.505   0.935
11046TIP3    H254554   0.212   2.527   0.798
11047TIP3   OH254555   0.714   2.717   0.826
11047TIP3    H154556   0.781   2.660   0.865
11047TIP3    H254557   0.663   2.652   0.775
11048TIP3   OH254558   1.812   2.371   1.368
11048TIP3    H154559   1.751   2.448   1.357
11048TIP3    H254560   1.815   2.364   1.464
11049TIP3   OH254561   0.433   2.209   1.227
11049TIP3    H154562   0.402   2.266   1.152
11049TIP3    H254563   0.361   2.234   1.291
11050TIP3   OH254564   1.155   3.158   0.579
11050TIP3    H154565   1.129   3.132   0.490
11050TIP3    H254566   1.125   3.252   0.584
11051TIP3   OH254567   0.681   2.975   1.248
11051TIP3    H154568   0.609   3.039   1.270
11051TIP3    H254569   0.750   3.036   1.218
11052TIP3   OH254570   1.491   2.264   0.857
11052TIP3    H154571   1.469   2.187   0.910
11052TIP3    H254572   1.558   2.307   0.912
11053TIP3   OH254573   0.383   2.394   1.029
11053TIP3    H154574   0.443   2.466   1.060
11053TIP3    H254575   0.436   2.357   0.954
11054TIP3   OH254576   0.523   3.174   1.329
11054TIP3    H154577   0.518   3.266   1.297
11054TIP3    H254578   0.434   3.167   1.372
11055TIP3   OH254579   0.128   3.141   0.407
11055TIP3    H154580   0.110   3.173   0.317
11055TIP3    H254581   0.139   3.222   0.460
11056TIP3   OH254582   1.492   3.304   1.086
11056TIP3    H154583   1.395   3.315   1.098
11056TIP3    H254584   1.519   3.395   1.065
11057TIP3   OH254585   1.524   2.132   1.224
11057TIP3    H154586   1.452   2.195   1.215
11057TIP3    H254587   1.596   2.174   1.172
11058TIP3   OH254588   0.822   1.945   0.972
11058TIP3    H154589   0.810   1.849   0.962
11058TIP3    H254590   0.732   1.974   0.998
11059TIP3   OH254591   1.318   3.482   0.744
11059TIP3    H154592   1.361   3.410   0.694
11059TIP3    H254593   1.362   3.561   0.706
11060TIP3   OH254594   1.439   3.275   0.596
11060TIP3    H154595   1.410   3.206   0.534
11060TIP3    H254596   1.442   3.225   0.680
11061TIP3   OH254597   1.601   3.135   1.446
11061TIP3    H154598   1.616   3.069   1.374
11061TIP3    H254599   1.622   3.219   1.401
11062TIP3   OH254600   1.050   2.824   0.420
11062TIP3    H154601   0.981   2.883   0.382
11062TIP3    H254602   1.121   2.831   0.353
11063TIP3   OH254603   1.051   2.673   0.134
11063TIP3    H154604   1.130   2.680   0.190
11063TIP3    H254605   1.086   2.614   0.067
11064TIP3   OH254606   1.790   2.766   1.250
11064TIP3    H154607   1.724   2.838   1.254
11064TIP3    H254608   1.839   2.789   1.169
11065TIP3   OH254609   1.395   2.845   0.516
11065TIP3    H154610   1.321   2.869   0.576
11065TIP3    H254611   1.443   2.777   0.568
11066TIP3   OH254612   1.389   2.661   1.427
11066TIP3    H154613   1.389   2.743   1.479
11066TIP3    H254614   1.326   2.690   1.357
11067TIP3   OH254615   0.558   2.911   0.707
11067TIP3    H154616   0.523   2.871   0.623
11067TIP3    H254617   0.619   2.841   0.739
11068TIP3   OH254618   0.689   3.248   0.973
11068TIP3    H154619   0.689   3.196   0.893
11068TIP3    H254620   0.767   3.213   1.020
11069TIP3   OH254621   0.594   2.783   1.073
11069TIP3    H154622   0.646   2.795   0.991
11069TIP3    H254623   0.627   2.853   1.132
11070TIP3   OH254624   1.231   3.342   1.142
11070TIP3    H154625   1.203   3.406   1.209
11070TIP3    H254626   1.205   3.257   1.185
11071TIP3   OH254627   0.687   3.230   1.539
11071TIP3    H154628   0.643   3.300   1.592
11071TIP3    H254629   0.617   3.208   1.473
11072TIP3   OH254630   1.284   2.762   0.282
11072TIP3    H154631   1.338   2.783   0.363
11072TIP3    H254632   1.325   2.818   0.213
11073TIP3   OH254633   0.378   2.845   1.460
11073TIP3    H154634   0.383   2.913   1.530
11073TIP3    H254635   0.284   2.855   1.436
11074TIP3   OH254636   1.054   3.436   0.629
11074TIP3    H154637   1.098   3.468   0.709
11074TIP3    H254638   0.999   3.511   0.603
11075TIP3   OH254639   0.509   3.434   1.615
11075TIP3    H154640   0.502   3.423   1.518
11075TIP3    H254641   0.417   3.416   1.643
11076TIP3   OH254642   1.656   1.939   0.272
11076TIP3    H154643   1.560   1.948   0.292
11076TIP3    H254644   1.675   2.023   0.227
11077TIP3   OH254645   0.460   2.813   0.465
11077TIP3    H154646   0.426   2.890   0.415
11077TIP3    H254647   0.391   2.747   0.446
11078TIP3   OH254648   1.763   3.372   0.109
11078TIP3    H154649   1.778   3.468   0.119
11078TIP3    H254650   1.856   3.343   0.101
11079TIP3   OH254651   0.122   3.042   1.332
11079TIP3    H154652   0.045   3.055   1.272
11079TIP3    H254653   0.085   2.964   1.378
11080TIP3   OH254654   0.069   3.353   1.007
11080TIP3    H154655   0.151   3.312   1.036
11080TIP3    H254656   0.040   3.399   1.087
11081TIP3   OH254657   1.863   3.399   1.604
11081TIP3    H154658   1.851   3.303   1.601
11081TIP3    H254659   1.775   3.424   1.642
11082TIP3   OH254660   0.959   3.355   1.488
11082TIP3    H154661   0.964   3.437   1.542
11082TIP3    H254662   0.873   3.317   1.514
11083TIP3   OH254663   1.000   3.727   0.468
11083TIP3    H154664   0.993   3.723   0.371
11083TIP3    H254665   1.006   3.823   0.486
11084TIP3   OH254666   0.365   3.616   0.651
11084TIP3    H154667   0.379   3.575   0.739
11084TIP3    H254668   0.282   3.573   0.626
11085TIP3   OH254669   1.302   3.647   0.166
11085TIP3    H154670   1.353   3.574   0.123
11085TIP3    H254671   1.313   3.624   0.260
11086TIP3   OH254672   1.277   3.643   0.446
11086TIP3    H154673   1.181   3.649   0.464
11086TIP3    H254674   1.301   3.569   0.504
11087TIP3   OH254675   1.577   2.546   1.651
11087TIP3    H154676   1.530   2.591   1.579
11087TIP3    H254677   1.576   2.454   1.620
11088TIP3   OH254678   0.294   3.196   1.457
11088TIP3    H154679   0.312   3.151   1.543
11088TIP3    H254680   0.211   3.151   1.430
11089TIP3   OH254681   0.559   2.036   1.055
11089TIP3    H154682   0.473   2.023   1.007
11089TIP3    H254683   0.545   2.126   1.086
11090TIP3   OH254684   1.027   2.003   1.383
11090TIP3    H154685   1.067   1.958   1.460
11090TIP3    H254686   0.931   1.987   1.398
11091TIP3   OH254687   1.352   2.386   1.472
11091TIP3    H154688   1.296   2.364   1.551
11091TIP3    H254689   1.334   2.479   1.450
11092TIP3   OH254690   1.437   2.876   0.069
11092TIP3    H154691   1.436   2.855  -0.026
11092TIP3    H254692   1.526   2.915   0.076
11093TIP3   OH254693   0.986   2.260   0.116
11093TIP3    H154694   0.955   2.254   0.208
11093TIP3    H254695   0.964   2.170   0.087
11094TIP3   OH254696   0.568   2.530   1.172
11094TIP3    H154697   0.494   2.534   1.236
11094TIP3    H254698   0.567   2.621   1.134
11095TIP3   OH254699   0.567   2.541   0.659
11095TIP3    H154700   0.472   2.521   0.644
11095TIP3    H254701   0.605   2.516   0.573
11096TIP3   OH254702   1.118   2.593   0.531
11096TIP3    H154703   1.077   2.677   0.499
11096TIP3    H254704   1.188   2.578   0.464
11097TIP3   OH254705   1.022   2.616   1.679
11097TIP3    H154706   0.970   2.537   1.710
11097TIP3    H254707   1.106   2.603   1.726
11098TIP3   OH254708   1.221   2.543   0.820
11098TIP3    H154709   1.193   2.599   0.746
11098TIP3    H254710   1.231   2.458   0.773
11099TIP3   OH254711   0.337   2.553   1.340
11099TIP3    H154712   0.335   2.598   1.426
11099TIP3    H254713   0.282   2.475   1.359
11100TIP3   OH254714   0.691   2.322   0.061
11100TIP3    H154715   0.635   2.260   0.110
11100TIP3    H254716   0.635   2.363  -0.006
11101TIP3   OH254717   0.038   2.297   0.725
11101TIP3    H154718   0.070   2.261   0.810
11101TIP3    H254719   0.046   2.226   0.663
11102TIP3   OH254720   0.130   2.353   0.272
11102TIP3    H154721   0.176   2.412   0.210
11102TIP3    H254722   0.052   2.403   0.296
11103TIP3   OH254723   1.140   2.701   1.275
11103TIP3    H154724   1.179   2.633   1.216
11103TIP3    H254725   1.094   2.648   1.342
11104TIP3   OH254726   0.822   2.299   0.759
11104TIP3    H154727   0.728   2.300   0.788
11104TIP3    H254728   0.870   2.282   0.841
11105TIP3   OH254729   0.308   2.454   0.643
11105TIP3    H154730   0.218   2.472   0.609
11105TIP3    H254731   0.328   2.367   0.604
11106TIP3   OH254732   0.666   2.458   0.406
11106TIP3    H154733   0.761   2.471   0.426
11106TIP3    H254734   0.642   2.527   0.342
11107TIP3   OH254735   1.261   2.223   1.083
11107TIP3    H154736   1.193   2.227   1.153
11107TIP3    H254737   1.211   2.197   1.004
11108TIP3   OH254738   0.539   2.570   0.167
11108TIP3    H154739   0.480   2.545   0.095
11108TIP3    H254740   0.619   2.598   0.119
11109TIP3   OH254741   1.582   3.787   1.715
11109TIP3    H154742   1.608   3.825   1.630
11109TIP3    H254743   1.654   3.819   1.771
11110TIP3   OH254744   0.344   3.041   1.665
11110TIP3    H154745   0.417   3.052   1.731
11110TIP3    H254746   0.274   3.041   1.734
11111TIP3   OH254747   0.948   2.574   0.948
11111TIP3    H154748   1.009   2.521   0.895
11111TIP3    H254749   0.935   2.519   1.026
11112TIP3   OH254750   0.443   2.186   0.576
11112TIP3    H154751   0.422   2.094   0.601
11112TIP3    H254752   0.535   2.181   0.545
11113TIP3   OH254753   0.811   2.406   1.191
11113TIP3    H154754   0.731   2.462   1.197
11113TIP3    H254755   0.870   2.444   1.260
11114TIP3   OH254756   0.873   3.028   0.362
11114TIP3    H154757   0.792   2.983   0.327
11114TIP3    H254758   0.850   3.041   0.456
11115TIP3   OH254759   1.591   2.950   1.239
11115TIP3    H154760   1.647   2.998   1.176
11115TIP3    H254761   1.505   2.954   1.193
11116TIP3   OH254762   1.258   2.314   0.178
11116TIP3    H154763   1.163   2.326   0.159
11116TIP3    H254764   1.288   2.399   0.213
11117TIP3   OH254765   1.023   3.057   1.483
11117TIP3    H154766   0.986   3.014   1.561
11117TIP3    H254767   0.994   3.148   1.495
11118TIP3   OH254768   1.328   2.504   0.344
11118TIP3    H154769   1.419   2.489   0.378
11118TIP3    H254770   1.337   2.585   0.291
11119TIP3   OH254771   0.385   2.971   0.939
11119TIP3    H154772   0.450   2.961   0.868
11119TIP3    H254773   0.390   2.885   0.984
11120TIP3   OH254774   1.082   3.175   0.265
11120TIP3    H154775   1.045   3.260   0.298
11120TIP3    H254776   1.008   3.113   0.283
11121TIP3   OH254777   0.079   2.806   1.466
11121TIP3    H154778   0.106   2.764   1.551
11121TIP3    H254779   0.020   2.742   1.424
11122TIP3   OH254780   0.782   2.764   1.683
11122TIP3    H154781   0.751   2.735   1.596
11122TIP3    H254782   0.875   2.734   1.683
11123TIP3   OH254783   1.252   3.299   1.478
11123TIP3    H154784   1.159   3.317   1.455
11123TIP3    H254785   1.248   3.328   1.571
11124TIP3   OH254786   1.818   2.516   0.320
11124TIP3    H154787   1.761   2.486   0.249
11124TIP3    H254788   1.827   2.610   0.292
11125TIP3   OH254789   1.817   3.103   1.597
11125TIP3    H154790   1.728   3.125   1.561
11125TIP3    H254791   1.872   3.098   1.516
11126TIP3   OH254792   1.646   3.400   0.353
11126TIP3    H154793   1.611   3.317   0.389
11126TIP3    H254794   1.678   3.378   0.264
11127TIP3   OH254795   1.368   2.881   1.067
11127TIP3    H154796   1.274   2.861   1.056
11127TIP3    H254797   1.411   2.805   1.024
11128TIP3   OH254798   0.619   3.315   0.679
11128TIP3    H154799   0.670   3.395   0.657
11128TIP3    H254800   0.531   3.338   0.645
11129TIP3   OH254801   0.192   2.796   0.136
11129TIP3    H154802   0.257   2.860   0.172
11129TIP3    H254803   0.108   2.832   0.167
11130TIP3   OH254804   0.762   3.081   0.630
11130TIP3    H154805   0.730   3.173   0.637
11130TIP3    H254806   0.690   3.032   0.674
11131TIP3   OH254807   0.808   3.499   1.270
11131TIP3    H154808   0.853   3.580   1.242
11131TIP3    H254809   0.869   3.465   1.338
11132TIP3   OH254810   0.630   3.581   0.581
11132TIP3    H154811   0.533   3.594   0.596
11132TIP3    H254812   0.666   3.664   0.617
11133TIP3   OH254813   1.159   3.099   1.232
11133TIP3    H154814   1.127   3.080   1.323
11133TIP3    H254815   1.223   3.028   1.215
11134TIP3   OH254816   1.390   3.204   0.146
11134TIP3    H154817   1.420   3.156   0.226
11134TIP3    H254818   1.294   3.188   0.151
11135TIP3   OH254819   1.441   3.557   1.481
11135TIP3    H154820   1.372   3.508   1.433
11135TIP3    H254821   1.459   3.627   1.415
11136TIP3   OH254822   1.839   3.645   0.171
11136TIP3    H154823   1.908   3.707   0.143
11136TIP3    H254824   1.766   3.706   0.194
11137TIP3   OH254825   0.250   2.279   1.416
11137TIP3    H154826   0.162   2.321   1.425
11137TIP3    H254827   0.232   2.197   1.465
11138TIP3   OH254828   1.471   3.068   0.367
11138TIP3    H154829   1.447   2.989   0.418
11138TIP3    H254830   1.566   3.075   0.387
11139TIP3   OH254831   0.225   3.466   1.258
11139TIP3    H154832   0.237   3.371   1.264
11139TIP3    H254833   0.234   3.490   1.351
11140TIP3   OH254834   0.682   3.270   0.233
11140TIP3    H154835   0.709   3.214   0.308
11140TIP3    H254836   0.692   3.362   0.268
11141TIP3   OH254837   0.331   2.991   0.288
11141TIP3    H154838   0.260   3.031   0.344
11141TIP3    H254839   0.384   3.068   0.260
11142TIP3   OH254840   1.119   2.260   1.317
11142TIP3    H154841   1.191   2.267   1.380
11142TIP3    H254842   1.084   2.171   1.337
11143TIP3   OH254843   1.193   2.220   0.425
11143TIP3    H154844   1.220   2.265   0.343
11143TIP3    H254845   1.253   2.261   0.489
11144TIP3   OH254846   0.962   3.435   0.305
11144TIP3    H154847   0.881   3.487   0.315
11144TIP3    H254848   1.017   3.487   0.244
11145TIP3   OH254849   0.917   2.391   0.506
11145TIP3    H154850   0.995   2.450   0.509
11145TIP3    H254851   0.890   2.379   0.599
11146TIP3   OH254852   0.972   2.494   1.427
11146TIP3    H154853   0.980   2.551   1.506
11146TIP3    H254854   1.040   2.425   1.436
11147TIP3   OH254855   1.003   2.098   0.594
11147TIP3    H154856   0.970   2.163   0.658
11147TIP3    H254857   1.072   2.153   0.550
11148TIP3   OH254858   0.699   3.538   0.310
11148TIP3    H154859   0.717   3.620   0.260
11148TIP3    H254860   0.676   3.572   0.398
11149TIP3   OH254861   0.565   2.208   0.276
11149TIP3    H154862   0.568   2.303   0.304
11149TIP3    H254863   0.660   2.187   0.296
11150TIP3   OH254864   1.591   2.282   1.510
11150TIP3    H154865   1.498   2.313   1.498
11150TIP3    H254866   1.621   2.280   1.418
11151TIP3   OH254867   1.452   2.660   0.911
11151TIP3    H154868   1.370   2.616   0.884
11151TIP3    H254869   1.500   2.592   0.962
11152TIP3   OH254870   0.391   3.256   0.169
11152TIP3    H154871   0.457   3.316   0.203
11152TIP3    H254872   0.444   3.208   0.102
11153TIP3   OH254873   0.232   2.520   0.094
11153TIP3    H154874   0.231   2.617   0.103
11153TIP3    H254875   0.147   2.500   0.054
11154TIP3   OH254876   1.558   3.587   1.078
11154TIP3    H154877   1.550   3.655   1.009
11154TIP3    H254878   1.655   3.592   1.096
11155TIP3   OH254879   0.312   1.996   0.959
11155TIP3    H154880   0.288   2.001   0.864
11155TIP3    H254881   0.265   1.914   0.983
11156TIP3   OH254882   0.204   3.391   0.575
11156TIP3    H154883   0.118   3.434   0.569
11156TIP3    H254884   0.252   3.437   0.504
11157TIP3   OH254885   0.154   3.659   1.700
11157TIP3    H154886   0.195   3.636   1.785
11157TIP3    H254887   0.102   3.577   1.685
11158TIP3   OH254888   0.594   3.548   1.862
11158TIP3    H154889   0.667   3.495   1.896
11158TIP3    H254890   0.589   3.519   1.769
11159TIP3   OH254891   1.051   3.509   0.062
11159TIP3    H154892   0.965   3.462   0.060
11159TIP3    H254893   1.096   3.460  -0.007
11160TIP3   OH254894   1.242   3.386   1.738
11160TIP3    H154895   1.211   3.297   1.765
11160TIP3    H254896   1.319   3.398   1.797
11161TIP3   OH254897   1.464   3.478   0.023
11161TIP3    H154898   1.488   3.396   0.072
11161TIP3    H254899   1.542   3.495  -0.031
11162TIP3   OH254900   0.106   3.035   1.800
11162TIP3    H154901   0.135   2.946   1.771
11162TIP3    H254902   0.037   3.060   1.739
11163TIP3   OH254903   0.559   3.074   0.016
11163TIP3    H154904   0.566   2.991   0.064
11163TIP3    H254905   0.616   3.050  -0.060
11164TIP3   OH254906   0.816   3.027   1.717
11164TIP3    H154907   0.752   3.062   1.653
11164TIP3    H254908   0.793   2.932   1.728
11165TIP3   OH254909   1.357   3.018   1.479
11165TIP3    H154910   1.435   3.076   1.473
11165TIP3    H254911   1.286   3.084   1.483
11166TIP3   OH254912   0.195   2.753   1.736
11166TIP3    H154913   0.251   2.673   1.732
11166TIP3    H254914   0.186   2.761   1.832
11167TIP3   OH254915   0.671   2.872   0.245
11167TIP3    H154916   0.622   2.818   0.308
11167TIP3    H254917   0.703   2.804   0.181
11168TIP3   OH254918   0.597   2.652   1.477
11168TIP3    H154919   0.536   2.724   1.502
11168TIP3    H254920   0.636   2.687   1.395
11169TIP3   OH254921   0.779   2.689   0.066
11169TIP3    H154922   0.767   2.677  -0.029
11169TIP3    H254923   0.877   2.697   0.075
11170TIP3   OH254924   1.105   2.907   1.809
11170TIP3    H154925   1.200   2.906   1.797
11170TIP3    H254926   1.087   2.830   1.866
11171TIP3   OH254927   1.691   2.942  16.018
11171TIP3    H154928   1.686   2.889  15.936
11171TIP3    H254929   1.718   3.029  15.989
11172TIP3   OH254930   0.637   2.387   1.580
11172TIP3    H154931   0.652   2.319   1.514
11172TIP3    H254932   0.631   2.470   1.528
11173TIP3   OH254933   0.679   2.230   1.332
11173TIP3    H154934   0.735   2.279   1.266
11173TIP3    H254935   0.592   2.245   1.290
11174TIP3   OH254936   0.830   2.774   1.361
11174TIP3    H154937   0.907   2.758   1.304
11174TIP3    H254938   0.795   2.858   1.327
11175TIP3   OH254939   1.271   2.550   1.857
11175TIP3    H154940   1.295   2.457   1.847
11175TIP3    H254941   1.357   2.594   1.860
11176TIP3   OH254942   1.405   2.829   1.673
11176TIP3    H154943   1.379   2.902   1.612
11176TIP3    H254944   1.501   2.827   1.654
11177TIP3   OH254945   0.481   2.514   1.776
11177TIP3    H154946   0.405   2.456   1.755
11177TIP3    H254947   0.547   2.480   1.714
11178TIP3   OH254948   0.765   1.963   1.382
11178TIP3    H154949   0.765   2.059   1.365
11178TIP3    H254950   0.703   1.917   1.323
11179TIP3   OH254951   0.885   2.402   1.738
11179TIP3    H154952   0.852   2.380   1.828
11179TIP3    H254953   0.806   2.384   1.685
11180TIP3   OH254954   1.156   2.317   1.647
11180TIP3    H154955   1.059   2.322   1.658
11180TIP3    H254956   1.182   2.253   1.716
11181TIP3   OH254957   1.314   2.179   1.837
11181TIP3    H154958   1.309   2.081   1.840
11181TIP3    H254959   1.289   2.208   1.927
11182TIP3   OH254960   0.308   2.303   1.752
11182TIP3    H154961   0.314   2.231   1.687
11182TIP3    H254962   0.284   2.257   1.833
11183TIP3   OH254963   0.776   1.908   1.645
11183TIP3    H154964   0.845   1.838   1.647
11183TIP3    H254965   0.772   1.921   1.549
11184TIP3   OH254966   0.814   2.071   1.856
11184TIP3    H154967   0.797   2.019   1.774
11184TIP3    H254968   0.754   2.147   1.848
11185TIP3   OH254969   0.759   3.760   0.170
11185TIP3    H154970   0.856   3.772   0.180
11185TIP3    H254971   0.743   3.827   0.103
11186TIP3   OH254972   0.124   3.217   0.123
11186TIP3    H154973   0.219   3.232   0.142
11186TIP3    H254974   0.125   3.163   0.044
11187TIP3   OH254975   7.337   3.773   0.599
11187TIP3    H154976   7.246   3.753   0.569
11187TIP3    H254977   7.346   3.710   0.674
11188TIP3   OH254978   0.080   3.575   0.800
11188TIP3    H154979   0.043   3.487   0.823
11188TIP3    H254980   0.104   3.603   0.890
11189TIP3   OH254981   1.830   3.651   1.098
11189TIP3    H154982   1.834   3.667   1.194
11189TIP3    H254983   1.901   3.709   1.068
11190TIP3   OH254984   1.788   3.610   1.393
11190TIP3    H154985   1.741   3.533   1.354
11190TIP3    H254986   1.836   3.566   1.464
11191TIP3   OH254987   1.632   3.182   1.860
11191TIP3    H154988   1.542   3.180   1.896
11191TIP3    H254989   1.669   3.263   1.901
11192TIP3   OH254990   1.765   3.015   0.402
11192TIP3    H154991   1.850   3.056   0.424
11192TIP3    H254992   1.762   2.944   0.470
11193TIP3   OH254993   1.800   2.823   0.591
11193TIP3    H154994   1.724   2.772   0.629
11193TIP3    H254995   1.859   2.836   0.668
11194TIP3   OH254996   1.775   3.093   1.090
11194TIP3    H154997   1.857   3.055   1.052
11194TIP3    H254998   1.790   3.188   1.073
11195TIP3   OH254999   1.631   3.383   1.317
11195TIP3    H155000   1.562   3.417   1.376
11195TIP3    H255001   1.577   3.343   1.246
11196TIP3   OH255002   1.831   2.807   0.231
11196TIP3    H155003   1.771   2.841   0.163
11196TIP3    H255004   1.822   2.877   0.298
11197TIP3   OH255005   1.623   2.530   0.094
11197TIP3    H155006   1.668   2.591   0.033
11197TIP3    H255007   1.647   2.448   0.050
11198TIP3   OH255008   1.582   2.670   0.649
11198TIP3    H155009   1.567   2.575   0.644
11198TIP3    H255010   1.549   2.692   0.738
11199TIP3   OH255011   0.083   2.877   1.047
11199TIP3    H155012   0.104   2.873   0.951
11199TIP3    H255013   0.172   2.866   1.088
11200TIP3   OH255014   1.668   2.867   1.618
11200TIP3    H155015   1.729   2.791   1.631
11200TIP3    H255016   1.728   2.944   1.618
11201TIP3   OH255017   1.818   2.655   1.683
11201TIP3    H155018   1.730   2.615   1.667
11201TIP3    H255019   1.875   2.577   1.675
11202TIP3   OH255020   1.548   2.429   0.495
11202TIP3    H155021   1.578   2.336   0.506
11202TIP3    H255022   1.627   2.469   0.457
11203TIP3   OH255023   1.613   2.483   1.039
11203TIP3    H155024   1.709   2.506   1.037
11203TIP3    H255025   1.594   2.497   1.133
11204TIP3   OH255026   1.619   2.555   1.317
11204TIP3    H155027   1.531   2.584   1.348
11204TIP3    H255028   1.663   2.641   1.295
11205TIP3   OH255029   0.072   2.396   1.668
11205TIP3    H155030   0.161   2.377   1.699
11205TIP3    H255031   0.014   2.328   1.710
11206TIP3   OH255032   1.846   1.962   1.851
11206TIP3    H155033   1.882   1.896   1.789
11206TIP3    H255034   1.857   2.043   1.797
11207TIP3   OH255035   1.616   2.156   0.497
11207TIP3    H155036   1.637   2.113   0.583
11207TIP3    H255037   1.555   2.093   0.454
11208TIP3   OH255038   0.169   2.233   0.951
11208TIP3    H155039   0.215   2.154   0.984
11208TIP3    H255040   0.217   2.307   0.992
11209TIP3   OH255041   0.049   2.614   1.093
11209TIP3    H155042   0.052   2.571   1.004
11209TIP3    H255043   0.058   2.705   1.066
11210TIP3   OH255044   1.798   2.171   1.686
11210TIP3    H155045   1.705   2.199   1.681
11210TIP3    H255046   1.802   2.116   1.607
11211TIP3   OH255047   1.799   2.163   0.155
11211TIP3    H155048   1.838   2.092   0.103
11211TIP3    H255049   1.870   2.229   0.154
11212TIP3   OH255050   0.081   2.161   0.426
11212TIP3    H155051  -0.015   2.174   0.437
11212TIP3    H255052   0.094   2.238   0.367
11213TIP3   OH255053   1.502   3.659   0.662
11213TIP3    H155054   1.571   3.629   0.599
11213TIP3    H255055   1.554   3.709   0.726
11214TIP3   OH255056   7.356   2.025   1.316
11214TIP3    H155057   7.277   2.005   1.369
11214TIP3    H255058   7.307   2.077   1.250
11215TIP3   OH255059   0.244   3.351   1.713
11215TIP3    H155060   0.160   3.368   1.671
11215TIP3    H255061   0.220   3.340   1.805
11216TIP3   OH255062   0.541   3.452   1.342
11216TIP3    H155063   0.501   3.536   1.312
11216TIP3    H255064   0.632   3.461   1.308
11217TIP3   OH255065   0.970   3.593   1.630
11217TIP3    H155066   0.983   3.557   1.720
11217TIP3    H255067   1.060   3.623   1.605
11218TIP3   OH255068   1.198   3.719   1.561
11218TIP3    H155069   1.272   3.661   1.537
11218TIP3    H255070   1.236   3.763   1.640
11219TIP3   OH255071   1.701   1.980   1.471
11219TIP3    H155072   1.618   2.010   1.430
11219TIP3    H255073   1.717   1.898   1.420
11220TIP3   OH255074   0.283   3.774   1.341
11220TIP3    H155075   0.208   3.823   1.302
11220TIP3    H255076   0.249   3.755   1.429
11221TIP3   OH255077   0.528   3.732   1.245
11221TIP3    H155078   0.439   3.745   1.284
11221TIP3    H255079   0.523   3.792   1.168
11222TIP3   OH255080   0.998   3.723   1.163
11222TIP3    H155081   0.951   3.778   1.098
11222TIP3    H255082   1.011   3.786   1.237
11223TIP3   OH255083   1.226   3.603   1.266
11223TIP3    H155084   1.141   3.631   1.229
11223TIP3    H255085   1.275   3.687   1.257
11224TIP3   OH255086   1.485   3.760   1.288
11224TIP3    H155087   1.479   3.856   1.265
11224TIP3    H255088   1.506   3.723   1.200
11225TIP3   OH255089   0.221   3.639   1.032
11225TIP3    H155090   0.220   3.594   1.119
11225TIP3    H255091   0.302   3.601   0.993
11226TIP3   OH255092   0.431   3.510   0.899
11226TIP3    H155093   0.415   3.416   0.922
11226TIP3    H255094   0.517   3.525   0.943
11227TIP3   OH255095   0.692   3.558   0.987
11227TIP3    H155096   0.710   3.465   0.960
11227TIP3    H255097   0.699   3.552   1.083
11228TIP3   OH255098   1.041   2.124   0.899
11228TIP3    H155099   0.974   2.059   0.927
11228TIP3    H255100   1.096   2.070   0.841
11229TIP3   OH255101   1.553   1.928   0.906
11229TIP3    H155102   1.614   1.987   0.855
11229TIP3    H255103   1.465   1.964   0.883
11230TIP3   OH255104   1.719   2.053   0.734
11230TIP3    H155105   1.788   1.995   0.693
11230TIP3    H255106   1.770   2.136   0.745
11231TIP3   OH255107   0.281   1.985   0.684
11231TIP3    H155108   0.199   1.963   0.634
11231TIP3    H255109   0.326   1.898   0.680
11232TIP3   OH255110   0.173   1.964   0.269
11232TIP3    H155111   0.193   2.021   0.192
11232TIP3    H255112   0.095   2.010   0.308
11233TIP3   OH255113   0.722   1.981   0.663
11233TIP3    H155114   0.813   2.013   0.656
11233TIP3    H255115   0.721   1.956   0.756
11234TIP3   OH255116   1.295   1.980   0.826
11234TIP3    H155117   1.290   1.992   0.730
11234TIP3    H255118   1.257   1.889   0.838
11235TIP3   OH255119   1.421   1.983   0.391
11235TIP3    H155120   1.347   2.043   0.376
11235TIP3    H255121   1.377   1.897   0.414
11236TIP3   OH255122   0.146   3.558   0.358
11236TIP3    H155123   0.080   3.557   0.286
11236TIP3    H255124   0.148   3.654   0.372
11237TIP3   OH255125   0.339   2.146   0.117
11237TIP3    H155126   0.386   2.093   0.051
11237TIP3    H255127   0.411   2.197   0.157
11238TIP3   OH255128   0.832   2.178   0.351
11238TIP3    H155129   0.867   2.123   0.423
11238TIP3    H255130   0.847   2.266   0.394
11239TIP3   OH255131   1.029   3.719   0.196
11239TIP3    H155132   1.126   3.716   0.180
11239TIP3    H255133   1.012   3.645   0.133
11240TIP3   OH255134   1.701   3.638   0.464
11240TIP3    H155135   1.682   3.560   0.407
11240TIP3    H255136   1.693   3.711   0.400
11241TIP3   OH255137   0.263   2.040   1.630
11241TIP3    H155138   0.225   1.959   1.669
11241TIP3    H255139   0.353   2.035   1.671
11242TIP3   OH255140   0.465   1.976   1.789
11242TIP3    H155141   0.556   1.942   1.776
11242TIP3    H255142   0.426   1.899   1.834
11243TIP3   OH255143   0.335   3.655   0.053
11243TIP3    H155144   0.299   3.682   0.139
11243TIP3    H255145   0.406   3.596   0.075
11244TIP3   OH255146   1.305   1.907   1.809
11244TIP3    H155147   1.315   1.860   1.894
11244TIP3    H255148   1.397   1.903   1.775
11245TIP3   OH255149   1.626   3.512   1.672
11245TIP3    H155150   1.546   3.498   1.618
11245TIP3    H255151   1.615   3.607   1.694
11246TIP3   OH255152   3.071   2.900   0.670
11246TIP3    H155153   3.070   2.998   0.667
11246TIP3    H255154   2.998   2.877   0.610
11247TIP3   OH255155   2.956   2.825   1.020
11247TIP3    H155156   2.955   2.760   1.092
11247TIP3    H255157   2.921   2.775   0.945
11248TIP3   OH255158   2.192   2.793   1.176
11248TIP3    H155159   2.200   2.724   1.245
11248TIP3    H255160   2.267   2.850   1.198
11249TIP3   OH255161   3.325   3.120   0.849
11249TIP3    H155162   3.284   3.048   0.898
11249TIP3    H255163   3.327   3.191   0.916
11250TIP3   OH255164   2.284   3.238   1.026
11250TIP3    H155165   2.253   3.151   0.994
11250TIP3    H255166   2.380   3.219   1.030
11251TIP3   OH255167   1.948   2.593   0.575
11251TIP3    H155168   1.905   2.680   0.569
11251TIP3    H255169   1.892   2.539   0.518
11252TIP3   OH255170   2.019   2.816   0.790
11252TIP3    H155171   2.047   2.734   0.835
11252TIP3    H255172   2.089   2.826   0.723
11253TIP3   OH255173   3.037   3.636   0.873
11253TIP3    H155174   3.102   3.567   0.844
11253TIP3    H255175   3.015   3.602   0.960
11254TIP3   OH255176   2.794   3.065   1.068
11254TIP3    H155177   2.828   3.002   1.002
11254TIP3    H255178   2.875   3.081   1.119
11255TIP3   OH255179   3.653   2.232   1.140
11255TIP3    H155180   3.671   2.290   1.217
11255TIP3    H255181   3.710   2.273   1.074
11256TIP3   OH255182   3.111   2.512   1.099
11256TIP3    H155183   3.127   2.416   1.100
11256TIP3    H255184   3.100   2.526   1.003
11257TIP3   OH255185   2.422   2.321   0.821
11257TIP3    H155186   2.433   2.404   0.771
11257TIP3    H255187   2.382   2.264   0.752
11258TIP3   OH255188   3.198   2.326   0.654
11258TIP3    H155189   3.260   2.298   0.725
11258TIP3    H255190   3.254   2.388   0.604
11259TIP3   OH255191   2.084   2.562   0.894
11259TIP3    H155192   2.151   2.508   0.939
11259TIP3    H255193   2.095   2.530   0.803
11260TIP3   OH255194   2.600   2.718   0.826
11260TIP3    H155195   2.667   2.659   0.865
11260TIP3    H255196   2.549   2.652   0.775
11261TIP3   OH255197   3.697   2.371   1.368
11261TIP3    H155198   3.637   2.448   1.357
11261TIP3    H255199   3.701   2.364   1.464
11262TIP3   OH255200   2.313   2.211   1.225
11262TIP3    H155201   2.285   2.268   1.150
11262TIP3    H255202   2.245   2.234   1.293
11263TIP3   OH255203   3.041   3.158   0.579
11263TIP3    H155204   3.014   3.132   0.489
11263TIP3    H255205   3.011   3.252   0.584
11264TIP3   OH255206   2.564   2.975   1.248
11264TIP3    H155207   2.494   3.040   1.271
11264TIP3    H255208   2.635   3.035   1.219
11265TIP3   OH255209   3.377   2.264   0.857
11265TIP3    H155210   3.355   2.187   0.910
11265TIP3    H255211   3.444   2.307   0.912
11266TIP3   OH255212   2.270   2.396   1.028
11266TIP3    H155213   2.333   2.465   1.059
11266TIP3    H255214   2.321   2.355   0.954
11267TIP3   OH255215   2.409   3.176   1.330
11267TIP3    H155216   2.404   3.267   1.297
11267TIP3    H255217   2.321   3.168   1.375
11268TIP3   OH255218   2.015   3.137   0.409
11268TIP3    H155219   1.994   3.171   0.320
11268TIP3    H255220   2.023   3.219   0.461
11269TIP3   OH255221   3.378   3.304   1.086
11269TIP3    H155222   3.281   3.315   1.098
11269TIP3    H255223   3.405   3.395   1.065
11270TIP3   OH255224   3.410   2.132   1.225
11270TIP3    H155225   3.338   2.195   1.215
11270TIP3    H255226   3.482   2.174   1.172
11271TIP3   OH255227   2.707   1.944   0.971
11271TIP3    H155228   2.692   1.848   0.964
11271TIP3    H255229   2.619   1.975   1.002
11272TIP3   OH255230   3.204   3.482   0.744
11272TIP3    H155231   3.247   3.410   0.694
11272TIP3    H255232   3.248   3.561   0.706
11273TIP3   OH255233   3.325   3.275   0.596
11273TIP3    H155234   3.296   3.206   0.534
11273TIP3    H255235   3.328   3.225   0.680
11274TIP3   OH255236   3.486   3.135   1.446
11274TIP3    H155237   3.501   3.069   1.374
11274TIP3    H255238   3.507   3.219   1.401
11275TIP3   OH255239   2.936   2.824   0.420
11275TIP3    H155240   2.867   2.882   0.382
11275TIP3    H255241   3.006   2.831   0.353
11276TIP3   OH255242   2.937   2.669   0.134
11276TIP3    H155243   3.015   2.682   0.189
11276TIP3    H255244   2.973   2.617   0.064
11277TIP3   OH255245   3.675   2.766   1.250
11277TIP3    H155246   3.610   2.838   1.254
11277TIP3    H255247   3.725   2.789   1.169
11278TIP3   OH255248   3.281   2.845   0.516
11278TIP3    H155249   3.206   2.869   0.576
11278TIP3    H255250   3.329   2.777   0.568
11279TIP3   OH255251   3.274   2.661   1.427
11279TIP3    H155252   3.275   2.743   1.479
11279TIP3    H255253   3.211   2.690   1.357
11280TIP3   OH255254   2.442   2.910   0.706
11280TIP3    H155255   2.410   2.871   0.621
11280TIP3    H255256   2.504   2.841   0.739
11281TIP3   OH255257   2.574   3.248   0.974
11281TIP3    H155258   2.574   3.196   0.893
11281TIP3    H255259   2.653   3.213   1.020
11282TIP3   OH255260   2.475   2.785   1.072
11282TIP3    H155261   2.530   2.795   0.992
11282TIP3    H255262   2.514   2.851   1.133
11283TIP3   OH255263   3.117   3.342   1.143
11283TIP3    H155264   3.088   3.406   1.209
11283TIP3    H255265   3.092   3.257   1.185
11284TIP3   OH255266   2.571   3.228   1.542
11284TIP3    H155267   2.529   3.302   1.591
11284TIP3    H255268   2.503   3.208   1.472
11285TIP3   OH255269   3.170   2.762   0.282
11285TIP3    H155270   3.224   2.783   0.363
11285TIP3    H255271   3.210   2.818   0.213
11286TIP3   OH255272   2.265   2.844   1.457
11286TIP3    H155273   2.270   2.911   1.528
11286TIP3    H255274   2.171   2.853   1.436
11287TIP3   OH255275   2.939   3.436   0.629
11287TIP3    H155276   2.983   3.468   0.709
11287TIP3    H255277   2.885   3.511   0.603
11288TIP3   OH255278   2.395   3.431   1.616
11288TIP3    H155279   2.389   3.422   1.520
11288TIP3    H255280   2.302   3.418   1.643
11289TIP3   OH255281   3.542   1.939   0.272
11289TIP3    H155282   3.447   1.948   0.292
11289TIP3    H255283   3.562   2.023   0.227
11290TIP3   OH255284   2.338   2.812   0.469
11290TIP3    H155285   2.311   2.890   0.415
11290TIP3    H255286   2.274   2.746   0.444
11291TIP3   OH255287   3.649   3.372   0.109
11291TIP3    H155288   3.663   3.468   0.119
11291TIP3    H255289   3.742   3.343   0.101
11292TIP3   OH255290   1.948   3.055   1.358
11292TIP3    H155291   1.904   3.047   1.271
11292TIP3    H255292   1.956   2.961   1.379
11293TIP3   OH255293   1.924   3.329   1.035
11293TIP3    H155294   2.020   3.317   1.033
11293TIP3    H255295   1.916   3.411   1.085
11294TIP3   OH255296   3.748   3.399   1.604
11294TIP3    H155297   3.736   3.304   1.601
11294TIP3    H255298   3.661   3.424   1.642
11295TIP3   OH255299   2.844   3.353   1.490
11295TIP3    H155300   2.850   3.438   1.541
11295TIP3    H255301   2.757   3.317   1.515
11296TIP3   OH255302   2.886   3.727   0.468
11296TIP3    H155303   2.879   3.723   0.371
11296TIP3    H255304   2.891   3.823   0.486
11297TIP3   OH255305   2.252   3.616   0.651
11297TIP3    H155306   2.267   3.574   0.739
11297TIP3    H255307   2.167   3.575   0.628
11298TIP3   OH255308   3.188   3.647   0.166
11298TIP3    H155309   3.238   3.574   0.123
11298TIP3    H255310   3.198   3.624   0.260
11299TIP3   OH255311   3.162   3.643   0.446
11299TIP3    H155312   3.067   3.649   0.464
11299TIP3    H255313   3.187   3.569   0.504
11300TIP3   OH255314   3.463   2.546   1.651
11300TIP3    H155315   3.415   2.591   1.579
11300TIP3    H255316   3.461   2.454   1.620
11301TIP3   OH255317   2.177   3.187   1.451
11301TIP3    H155318   2.199   3.151   1.539
11301TIP3    H255319   2.090   3.147   1.430
11302TIP3   OH255320   2.445   2.034   1.046
11302TIP3    H155321   2.355   2.022   1.009
11302TIP3    H255322   2.432   2.118   1.095
11303TIP3   OH255323   2.909   2.001   1.382
11303TIP3    H155324   2.949   1.959   1.461
11303TIP3    H255325   2.812   1.990   1.397
11304TIP3   OH255326   3.238   2.386   1.473
11304TIP3    H155327   3.182   2.364   1.551
11304TIP3    H255328   3.220   2.479   1.450
11305TIP3   OH255329   3.322   2.878   0.068
11305TIP3    H155330   3.322   2.855  -0.026
11305TIP3    H255331   3.412   2.916   0.075
11306TIP3   OH255332   2.859   2.261   0.103
11306TIP3    H155333   2.818   2.266   0.192
11306TIP3    H255334   2.836   2.171   0.075
11307TIP3   OH255335   2.455   2.532   1.173
11307TIP3    H155336   2.381   2.531   1.235
11307TIP3    H255337   2.450   2.623   1.134
11308TIP3   OH255338   2.451   2.543   0.658
11308TIP3    H155339   2.357   2.519   0.645
11308TIP3    H255340   2.489   2.514   0.572
11309TIP3   OH255341   3.002   2.590   0.529
11309TIP3    H155342   2.963   2.676   0.501
11309TIP3    H255343   3.075   2.581   0.465
11310TIP3   OH255344   2.909   2.615   1.679
11310TIP3    H155345   2.856   2.537   1.710
11310TIP3    H255346   2.992   2.603   1.726
11311TIP3   OH255347   3.107   2.543   0.820
11311TIP3    H155348   3.078   2.599   0.746
11311TIP3    H255349   3.116   2.458   0.773
11312TIP3   OH255350   2.217   2.557   1.339
11312TIP3    H155351   2.226   2.598   1.427
11312TIP3    H255352   2.173   2.473   1.361
11313TIP3   OH255353   2.577   2.324   0.064
11313TIP3    H155354   2.518   2.261   0.109
11313TIP3    H255355   2.521   2.360  -0.007
11314TIP3   OH255356   1.883   2.268   0.739
11314TIP3    H155357   1.952   2.264   0.808
11314TIP3    H255358   1.928   2.230   0.660
11315TIP3   OH255359   2.011   2.342   0.275
11315TIP3    H155360   2.063   2.400   0.216
11315TIP3    H255361   1.942   2.404   0.304
11316TIP3   OH255362   3.026   2.701   1.275
11316TIP3    H155363   3.064   2.633   1.216
11316TIP3    H255364   2.980   2.648   1.342
11317TIP3   OH255365   2.706   2.300   0.758
11317TIP3    H155366   2.612   2.299   0.788
11317TIP3    H255367   2.755   2.282   0.840
11318TIP3   OH255368   2.187   2.454   0.645
11318TIP3    H155369   2.099   2.470   0.606
11318TIP3    H255370   2.216   2.371   0.604
11319TIP3   OH255371   2.553   2.458   0.407
11319TIP3    H155372   2.647   2.473   0.427
11319TIP3    H255373   2.528   2.526   0.341
11320TIP3   OH255374   3.147   2.223   1.082
11320TIP3    H155375   3.079   2.227   1.153
11320TIP3    H255376   3.096   2.197   1.004
11321TIP3   OH255377   2.422   2.577   0.167
11321TIP3    H155378   2.365   2.542   0.097
11321TIP3    H255379   2.504   2.597   0.119
11322TIP3   OH255380   3.467   3.787   1.715
11322TIP3    H155381   3.494   3.825   1.630
11322TIP3    H255382   3.539   3.819   1.771
11323TIP3   OH255383   2.235   3.034   1.672
11323TIP3    H155384   2.307   3.058   1.733
11323TIP3    H255385   2.158   3.042   1.732
11324TIP3   OH255386   2.835   2.575   0.948
11324TIP3    H155387   2.895   2.521   0.894
11324TIP3    H255388   2.820   2.520   1.026
11325TIP3   OH255389   2.336   2.189   0.593
11325TIP3    H155390   2.304   2.096   0.591
11325TIP3    H255391   2.414   2.182   0.537
11326TIP3   OH255392   2.699   2.407   1.189
11326TIP3    H155393   2.616   2.459   1.198
11326TIP3    H255394   2.754   2.443   1.261
11327TIP3   OH255395   2.758   3.028   0.362
11327TIP3    H155396   2.678   2.983   0.327
11327TIP3    H255397   2.736   3.041   0.456
11328TIP3   OH255398   3.476   2.950   1.239
11328TIP3    H155399   3.533   2.998   1.176
11328TIP3    H255400   3.390   2.954   1.193
11329TIP3   OH255401   3.141   2.315   0.179
11329TIP3    H155402   3.056   2.348   0.146
11329TIP3    H255403   3.182   2.399   0.212
11330TIP3   OH255404   2.907   3.057   1.483
11330TIP3    H155405   2.872   3.014   1.562
11330TIP3    H255406   2.881   3.149   1.494
11331TIP3   OH255407   3.214   2.502   0.341
11331TIP3    H155408   3.304   2.490   0.379
11331TIP3    H255409   3.222   2.586   0.292
11332TIP3   OH255410   2.269   2.969   0.939
11332TIP3    H155411   2.336   2.961   0.869
11332TIP3    H255412   2.274   2.883   0.984
11333TIP3   OH255413   2.967   3.175   0.265
11333TIP3    H155414   2.931   3.260   0.298
11333TIP3    H255415   2.894   3.113   0.283
11334TIP3   OH255416   1.967   2.809   1.465
11334TIP3    H155417   1.984   2.765   1.550
11334TIP3    H255418   1.905   2.748   1.421
11335TIP3   OH255419   2.669   2.765   1.683
11335TIP3    H155420   2.637   2.734   1.597
11335TIP3    H255421   2.761   2.733   1.683
11336TIP3   OH255422   3.137   3.299   1.478
11336TIP3    H155423   3.045   3.317   1.455
11336TIP3    H255424   3.134   3.328   1.571
11337TIP3   OH255425   3.704   2.516   0.320
11337TIP3    H155426   3.646   2.486   0.249
11337TIP3    H255427   3.713   2.610   0.291
11338TIP3   OH255428   3.703   3.103   1.598
11338TIP3    H155429   3.614   3.125   1.561
11338TIP3    H255430   3.757   3.098   1.516
11339TIP3   OH255431   3.531   3.400   0.353
11339TIP3    H155432   3.496   3.317   0.389
11339TIP3    H255433   3.563   3.378   0.264
11340TIP3   OH255434   3.254   2.881   1.067
11340TIP3    H155435   3.160   2.861   1.056
11340TIP3    H255436   3.297   2.806   1.024
11341TIP3   OH255437   2.505   3.314   0.678
11341TIP3    H155438   2.556   3.395   0.657
11341TIP3    H255439   2.418   3.338   0.644
11342TIP3   OH255440   2.080   2.802   0.129
11342TIP3    H155441   2.141   2.862   0.175
11342TIP3    H255442   1.993   2.827   0.164
11343TIP3   OH255443   2.648   3.081   0.630
11343TIP3    H155444   2.616   3.173   0.638
11343TIP3    H255445   2.575   3.032   0.674
11344TIP3   OH255446   2.692   3.500   1.271
11344TIP3    H155447   2.738   3.580   1.242
11344TIP3    H255448   2.754   3.465   1.338
11345TIP3   OH255449   2.515   3.581   0.581
11345TIP3    H155450   2.419   3.594   0.596
11345TIP3    H255451   2.551   3.664   0.617
11346TIP3   OH255452   3.044   3.099   1.232
11346TIP3    H155453   3.012   3.080   1.323
11346TIP3    H255454   3.109   3.028   1.215
11347TIP3   OH255455   3.275   3.204   0.146
11347TIP3    H155456   3.305   3.156   0.225
11347TIP3    H255457   3.180   3.188   0.151
11348TIP3   OH255458   3.327   3.557   1.481
11348TIP3    H155459   3.257   3.508   1.433
11348TIP3    H255460   3.345   3.627   1.415
11349TIP3   OH255461   3.724   3.645   0.171
11349TIP3    H155462   3.793   3.708   0.143
11349TIP3    H255463   3.651   3.706   0.194
11350TIP3   OH255464   2.133   2.283   1.420
11350TIP3    H155465   2.042   2.318   1.418
11350TIP3    H255466   2.121   2.198   1.466
11351TIP3   OH255467   3.357   3.068   0.367
11351TIP3    H155468   3.332   2.989   0.418
11351TIP3    H255469   3.451   3.075   0.387
11352TIP3   OH255470   2.094   3.461   1.263
11352TIP3    H155471   2.124   3.369   1.263
11352TIP3    H255472   2.120   3.490   1.351
11353TIP3   OH255473   2.568   3.270   0.233
11353TIP3    H155474   2.594   3.214   0.308
11353TIP3    H255475   2.578   3.362   0.268
11354TIP3   OH255476   2.220   2.991   0.287
11354TIP3    H155477   2.152   3.033   0.343
11354TIP3    H255478   2.274   3.068   0.259
11355TIP3   OH255479   3.006   2.260   1.316
11355TIP3    H155480   3.077   2.266   1.381
11355TIP3    H255481   2.967   2.172   1.337
11356TIP3   OH255482   3.084   2.223   0.427
11356TIP3    H155483   3.119   2.277   0.354
11356TIP3    H255484   3.139   2.260   0.499
11357TIP3   OH255485   2.847   3.435   0.305
11357TIP3    H155486   2.766   3.487   0.315
11357TIP3    H255487   2.903   3.487   0.244
11358TIP3   OH255488   2.805   2.389   0.505
11358TIP3    H155489   2.879   2.453   0.511
11358TIP3    H255490   2.775   2.380   0.597
11359TIP3   OH255491   2.858   2.495   1.426
11359TIP3    H155492   2.866   2.551   1.506
11359TIP3    H255493   2.925   2.425   1.436
11360TIP3   OH255494   2.888   2.099   0.590
11360TIP3    H155495   2.856   2.159   0.660
11360TIP3    H255496   2.960   2.155   0.554
11361TIP3   OH255497   2.585   3.537   0.310
11361TIP3    H155498   2.603   3.620   0.260
11361TIP3    H255499   2.561   3.572   0.399
11362TIP3   OH255500   2.454   2.208   0.270
11362TIP3    H155501   2.446   2.299   0.305
11362TIP3    H255502   2.544   2.186   0.299
11363TIP3   OH255503   3.476   2.282   1.510
11363TIP3    H155504   3.384   2.313   1.498
11363TIP3    H255505   3.506   2.280   1.418
11364TIP3   OH255506   3.338   2.660   0.911
11364TIP3    H155507   3.255   2.616   0.884
11364TIP3    H255508   3.386   2.592   0.963
11365TIP3   OH255509   2.278   3.254   0.169
11365TIP3    H155510   2.344   3.315   0.204
11365TIP3    H255511   2.332   3.208   0.101
11366TIP3   OH255512   2.118   2.522   0.090
11366TIP3    H155513   2.114   2.618   0.102
11366TIP3    H255514   2.030   2.501   0.056
11367TIP3   OH255515   3.444   3.587   1.078
11367TIP3    H155516   3.435   3.655   1.009
11367TIP3    H255517   3.540   3.592   1.096
11368TIP3   OH255518   2.193   1.999   0.959
11368TIP3    H155519   2.174   2.000   0.863
11368TIP3    H255520   2.152   1.913   0.984
11369TIP3   OH255521   2.089   3.391   0.573
11369TIP3    H155522   2.003   3.435   0.569
11369TIP3    H255523   2.136   3.437   0.503
11370TIP3   OH255524   2.009   3.656   1.702
11370TIP3    H155525   2.070   3.636   1.776
11370TIP3    H255526   1.969   3.569   1.684
11371TIP3   OH255527   2.478   3.548   1.863
11371TIP3    H155528   2.553   3.497   1.896
11371TIP3    H255529   2.475   3.520   1.769
11372TIP3   OH255530   2.937   3.508   0.063
11372TIP3    H155531   2.851   3.462   0.059
11372TIP3    H255532   2.982   3.460  -0.007
11373TIP3   OH255533   3.128   3.386   1.738
11373TIP3    H155534   3.096   3.297   1.765
11373TIP3    H255535   3.204   3.398   1.797
11374TIP3   OH255536   3.350   3.478   0.025
11374TIP3    H155537   3.373   3.396   0.072
11374TIP3    H255538   3.427   3.495  -0.031
11375TIP3   OH255539   2.000   3.033   1.802
11375TIP3    H155540   2.017   2.942   1.771
11375TIP3    H255541   1.926   3.059   1.744
11376TIP3   OH255542   2.446   3.075   0.016
11376TIP3    H155543   2.452   2.991   0.064
11376TIP3    H255544   2.501   3.051  -0.061
11377TIP3   OH255545   2.672   3.032   1.740
11377TIP3    H155546   2.638   3.063   1.654
11377TIP3    H255547   2.679   2.934   1.729
11378TIP3   OH255548   3.242   3.018   1.479
11378TIP3    H155549   3.320   3.076   1.473
11378TIP3    H255550   3.172   3.085   1.483
11379TIP3   OH255551   2.093   2.756   1.740
11379TIP3    H155552   2.134   2.669   1.730
11379TIP3    H255553   2.069   2.756   1.834
11380TIP3   OH255554   2.558   2.872   0.245
11380TIP3    H155555   2.507   2.818   0.308
11380TIP3    H255556   2.588   2.805   0.181
11381TIP3   OH255557   2.482   2.650   1.475
11381TIP3    H155558   2.423   2.722   1.501
11381TIP3    H255559   2.522   2.687   1.394
11382TIP3   OH255560   2.665   2.688   0.066
11382TIP3    H155561   2.653   2.677  -0.030
11382TIP3    H255562   2.763   2.697   0.075
11383TIP3   OH255563   2.990   2.907   1.809
11383TIP3    H155564   3.085   2.906   1.796
11383TIP3    H255565   2.973   2.830   1.866
11384TIP3   OH255566   3.577   2.941  16.018
11384TIP3    H155567   3.572   2.889  15.936
11384TIP3    H255568   3.604   3.029  15.989
11385TIP3   OH255569   2.523   2.388   1.581
11385TIP3    H155570   2.535   2.317   1.515
11385TIP3    H255571   2.518   2.469   1.526
11386TIP3   OH255572   2.563   2.226   1.336
11386TIP3    H155573   2.614   2.273   1.265
11386TIP3    H255574   2.474   2.218   1.296
11387TIP3   OH255575   2.717   2.775   1.360
11387TIP3    H155576   2.793   2.759   1.303
11387TIP3    H255577   2.681   2.858   1.327
11388TIP3   OH255578   3.157   2.550   1.856
11388TIP3    H155579   3.180   2.457   1.847
11388TIP3    H255580   3.243   2.594   1.860
11389TIP3   OH255581   3.291   2.830   1.673
11389TIP3    H155582   3.266   2.902   1.611
11389TIP3    H255583   3.387   2.826   1.654
11390TIP3   OH255584   2.369   2.513   1.773
11390TIP3    H155585   2.292   2.455   1.756
11390TIP3    H255586   2.434   2.476   1.711
11391TIP3   OH255587   2.643   1.970   1.374
11391TIP3    H155588   2.624   2.066   1.365
11391TIP3    H255589   2.567   1.933   1.325
11392TIP3   OH255590   2.769   2.402   1.737
11392TIP3    H155591   2.738   2.379   1.827
11392TIP3    H255592   2.691   2.382   1.683
11393TIP3   OH255593   3.041   2.317   1.647
11393TIP3    H155594   2.945   2.322   1.658
11393TIP3    H255595   3.068   2.253   1.716
11394TIP3   OH255596   3.199   2.179   1.837
11394TIP3    H155597   3.195   2.081   1.840
11394TIP3    H255598   3.175   2.208   1.927
11395TIP3   OH255599   2.177   2.307   1.748
11395TIP3    H155600   2.202   2.233   1.690
11395TIP3    H255601   2.168   2.262   1.835
11396TIP3   OH255602   2.664   1.909   1.645
11396TIP3    H155603   2.731   1.839   1.643
11396TIP3    H255604   2.652   1.923   1.549
11397TIP3   OH255605   2.700   2.070   1.856
11397TIP3    H155606   2.682   2.019   1.773
11397TIP3    H255607   2.640   2.147   1.847
11398TIP3   OH255608   2.645   3.760   0.170
11398TIP3    H155609   2.742   3.772   0.180
11398TIP3    H255610   2.628   3.826   0.103
11399TIP3   OH255611   2.003   3.221   0.120
11399TIP3    H155612   2.099   3.232   0.141
11399TIP3    H255613   2.009   3.163   0.044
11400TIP3   OH255614   1.880   3.758   0.617
11400TIP3    H155615   1.808   3.709   0.571
11400TIP3    H255616   1.908   3.692   0.684
11401TIP3   OH255617   1.962   3.571   0.805
11401TIP3    H155618   1.927   3.483   0.825
11401TIP3    H255619   1.985   3.604   0.894
11402TIP3   OH255620   3.716   3.651   1.098
11402TIP3    H155621   3.719   3.667   1.194
11402TIP3    H255622   3.786   3.709   1.068
11403TIP3   OH255623   3.673   3.610   1.393
11403TIP3    H155624   3.626   3.533   1.355
11403TIP3    H255625   3.722   3.566   1.464
11404TIP3   OH255626   3.518   3.182   1.860
11404TIP3    H155627   3.427   3.180   1.896
11404TIP3    H255628   3.555   3.263   1.901
11405TIP3   OH255629   3.651   3.015   0.402
11405TIP3    H155630   3.736   3.056   0.424
11405TIP3    H255631   3.647   2.944   0.470
11406TIP3   OH255632   3.685   2.823   0.591
11406TIP3    H155633   3.610   2.772   0.629
11406TIP3    H255634   3.745   2.836   0.668
11407TIP3   OH255635   3.661   3.093   1.090
11407TIP3    H155636   3.742   3.055   1.052
11407TIP3    H255637   3.676   3.188   1.073
11408TIP3   OH255638   3.517   3.383   1.317
11408TIP3    H155639   3.448   3.417   1.376
11408TIP3    H255640   3.462   3.343   1.246
11409TIP3   OH255641   3.716   2.807   0.231
11409TIP3    H155642   3.656   2.841   0.163
11409TIP3    H255643   3.708   2.877   0.298
11410TIP3   OH255644   3.509   2.530   0.094
11410TIP3    H155645   3.554   2.591   0.033
11410TIP3    H255646   3.532   2.448   0.050
11411TIP3   OH255647   3.468   2.670   0.649
11411TIP3    H155648   3.452   2.575   0.644
11411TIP3    H255649   3.435   2.692   0.738
11412TIP3   OH255650   1.968   2.879   1.055
11412TIP3    H155651   1.986   2.871   0.958
11412TIP3    H255652   2.057   2.861   1.090
11413TIP3   OH255653   3.554   2.867   1.618
11413TIP3    H155654   3.615   2.791   1.631
11413TIP3    H255655   3.614   2.944   1.618
11414TIP3   OH255656   3.704   2.655   1.683
11414TIP3    H155657   3.615   2.615   1.667
11414TIP3    H255658   3.761   2.577   1.675
11415TIP3   OH255659   3.431   2.427   0.492
11415TIP3    H155660   3.465   2.336   0.507
11415TIP3    H255661   3.511   2.469   0.457
11416TIP3   OH255662   3.498   2.483   1.039
11416TIP3    H155663   3.594   2.506   1.037
11416TIP3    H255664   3.479   2.497   1.133
11417TIP3   OH255665   3.505   2.555   1.318
11417TIP3    H155666   3.416   2.584   1.348
11417TIP3    H255667   3.548   2.641   1.295
11418TIP3   OH255668   1.930   2.409   1.671
11418TIP3    H155669   2.024   2.388   1.689
11418TIP3    H255670   1.884   2.327   1.697
11419TIP3   OH255671   3.732   1.962   1.851
11419TIP3    H155672   3.767   1.895   1.789
11419TIP3    H255673   3.742   2.043   1.797
11420TIP3   OH255674   3.498   2.157   0.497
11420TIP3    H155675   3.523   2.114   0.582
11420TIP3    H255676   3.442   2.091   0.454
11421TIP3   OH255677   2.050   2.238   0.955
11421TIP3    H155678   2.096   2.155   0.980
11421TIP3    H255679   2.105   2.307   0.994
11422TIP3   OH255680   1.878   2.538   1.058
11422TIP3    H155681   1.934   2.513   0.982
11422TIP3    H255682   1.925   2.619   1.085
11423TIP3   OH255683   3.684   2.171   1.686
11423TIP3    H155684   3.590   2.199   1.681
11423TIP3    H255685   3.687   2.116   1.607
11424TIP3   OH255686   3.685   2.163   0.155
11424TIP3    H155687   3.724   2.092   0.103
11424TIP3    H255688   3.756   2.229   0.154
11425TIP3   OH255689   1.913   2.165   0.465
11425TIP3    H155690   1.819   2.184   0.449
11425TIP3    H255691   1.956   2.213   0.393
11426TIP3   OH255692   3.388   3.659   0.662
11426TIP3    H155693   3.456   3.629   0.599
11426TIP3    H255694   3.440   3.709   0.726
11427TIP3   OH255695   1.909   2.029   1.295
11427TIP3    H155696   1.843   2.010   1.363
11427TIP3    H255697   1.864   2.097   1.241
11428TIP3   OH255698   2.133   3.349   1.711
11428TIP3    H155699   2.050   3.371   1.668
11428TIP3    H255700   2.106   3.342   1.803
11429TIP3   OH255701   2.423   3.450   1.340
11429TIP3    H155702   2.390   3.537   1.312
11429TIP3    H255703   2.516   3.458   1.309
11430TIP3   OH255704   2.855   3.592   1.630
11430TIP3    H155705   2.869   3.557   1.720
11430TIP3    H255706   2.946   3.623   1.605
11431TIP3   OH255707   3.084   3.719   1.561
11431TIP3    H155708   3.157   3.661   1.537
11431TIP3    H255709   3.122   3.763   1.640
11432TIP3   OH255710   3.586   1.980   1.472
11432TIP3    H155711   3.503   2.010   1.430
11432TIP3    H255712   3.603   1.898   1.420
11433TIP3   OH255713   2.166   3.773   1.339
11433TIP3    H155714   2.093   3.824   1.299
11433TIP3    H255715   2.135   3.755   1.428
11434TIP3   OH255716   2.413   3.731   1.246
11434TIP3    H155717   2.323   3.746   1.285
11434TIP3    H255718   2.407   3.790   1.169
11435TIP3   OH255719   2.883   3.723   1.163
11435TIP3    H155720   2.837   3.778   1.098
11435TIP3    H255721   2.896   3.786   1.237
11436TIP3   OH255722   3.112   3.603   1.266
11436TIP3    H155723   3.027   3.631   1.229
11436TIP3    H255724   3.161   3.687   1.257
11437TIP3   OH255725   3.370   3.760   1.288
11437TIP3    H155726   3.365   3.856   1.265
11437TIP3    H255727   3.392   3.723   1.200
11438TIP3   OH255728   2.112   3.638   1.033
11438TIP3    H155729   2.104   3.592   1.119
11438TIP3    H255730   2.193   3.601   0.994
11439TIP3   OH255731   2.319   3.510   0.898
11439TIP3    H155732   2.303   3.416   0.922
11439TIP3    H255733   2.405   3.525   0.944
11440TIP3   OH255734   2.580   3.558   0.986
11440TIP3    H155735   2.595   3.466   0.960
11440TIP3    H255736   2.584   3.553   1.083
11441TIP3   OH255737   2.925   2.123   0.899
11441TIP3    H155738   2.858   2.059   0.928
11441TIP3    H255739   2.981   2.070   0.842
11442TIP3   OH255740   3.439   1.928   0.906
11442TIP3    H155741   3.500   1.987   0.856
11442TIP3    H255742   3.350   1.964   0.883
11443TIP3   OH255743   3.605   2.053   0.734
11443TIP3    H155744   3.674   1.995   0.693
11443TIP3    H255745   3.656   2.136   0.745
11444TIP3   OH255746   2.162   1.985   0.687
11444TIP3    H155747   2.083   1.966   0.632
11444TIP3    H255748   2.208   1.899   0.679
11445TIP3   OH255749   2.037   1.961   0.258
11445TIP3    H155750   2.088   2.025   0.204
11445TIP3    H255751   1.982   2.018   0.315
11446TIP3   OH255752   2.609   1.978   0.663
11446TIP3    H155753   2.699   2.014   0.657
11446TIP3    H255754   2.605   1.956   0.756
11447TIP3   OH255755   3.180   1.980   0.827
11447TIP3    H155756   3.177   1.991   0.731
11447TIP3    H255757   3.143   1.889   0.838
11448TIP3   OH255758   3.305   1.982   0.388
11448TIP3    H155759   3.232   2.044   0.380
11448TIP3    H255760   3.263   1.898   0.414
11449TIP3   OH255761   2.032   3.557   0.357
11449TIP3    H155762   1.963   3.556   0.287
11449TIP3    H255763   2.033   3.652   0.375
11450TIP3   OH255764   2.222   2.146   0.112
11450TIP3    H155765   2.277   2.093   0.053
11450TIP3    H255766   2.287   2.189   0.170
11451TIP3   OH255767   2.740   2.178   0.347
11451TIP3    H155768   2.746   2.122   0.426
11451TIP3    H255769   2.728   2.265   0.395
11452TIP3   OH255770   2.915   3.719   0.196
11452TIP3    H155771   3.012   3.716   0.180
11452TIP3    H255772   2.897   3.645   0.133
11453TIP3   OH255773   3.587   3.638   0.464
11453TIP3    H155774   3.567   3.560   0.407
11453TIP3    H255775   3.578   3.711   0.400
11454TIP3   OH255776   2.151   2.040   1.630
11454TIP3    H155777   2.112   1.960   1.670
11454TIP3    H255778   2.241   2.036   1.668
11455TIP3   OH255779   2.351   1.978   1.794
11455TIP3    H155780   2.440   1.944   1.773
11455TIP3    H255781   2.313   1.897   1.835
11456TIP3   OH255782   2.217   3.654   0.053
11456TIP3    H155783   2.184   3.681   0.140
11456TIP3    H255784   2.290   3.597   0.074
11457TIP3   OH255785   3.191   1.907   1.809
11457TIP3    H155786   3.200   1.860   1.894
11457TIP3    H255787   3.283   1.903   1.775
11458TIP3   OH255788   3.512   3.512   1.672
11458TIP3    H155789   3.432   3.498   1.618
11458TIP3    H255790   3.500   3.607   1.694
11459TIP3   OH255791   4.959   2.901   0.669
11459TIP3    H155792   4.953   2.999   0.666
11459TIP3    H255793   4.884   2.876   0.612
11460TIP3   OH255794   4.841   2.825   1.020
11460TIP3    H155795   4.840   2.760   1.092
11460TIP3    H255796   4.807   2.774   0.945
11461TIP3   OH255797   4.077   2.793   1.176
11461TIP3    H155798   4.086   2.724   1.245
11461TIP3    H255799   4.152   2.850   1.198
11462TIP3   OH255800   5.218   3.115   0.855
11462TIP3    H155801   5.159   3.053   0.899
11462TIP3    H255802   5.209   3.192   0.915
11463TIP3   OH255803   4.170   3.238   1.026
11463TIP3    H155804   4.139   3.151   0.994
11463TIP3    H255805   4.265   3.219   1.030
11464TIP3   OH255806   3.834   2.593   0.575
11464TIP3    H155807   3.790   2.680   0.569
11464TIP3    H255808   3.777   2.539   0.518
11465TIP3   OH255809   3.905   2.816   0.790
11465TIP3    H155810   3.932   2.734   0.835
11465TIP3    H255811   3.974   2.826   0.723
11466TIP3   OH255812   4.923   3.636   0.873
11466TIP3    H155813   4.988   3.567   0.844
11466TIP3    H255814   4.901   3.602   0.960
11467TIP3   OH255815   4.679   3.065   1.068
11467TIP3    H155816   4.713   3.002   1.002
11467TIP3    H255817   4.761   3.081   1.119
11468TIP3   OH255818   5.539   2.232   1.140
11468TIP3    H155819   5.557   2.290   1.217
11468TIP3    H255820   5.596   2.273   1.074
11469TIP3   OH255821   4.996   2.512   1.099
11469TIP3    H155822   5.013   2.416   1.100
11469TIP3    H255823   4.986   2.526   1.003
11470TIP3   OH255824   4.308   2.321   0.821
11470TIP3    H155825   4.318   2.404   0.771
11470TIP3    H255826   4.268   2.264   0.752
11471TIP3   OH255827   5.082   2.329   0.657
11471TIP3    H155828   5.147   2.298   0.724
11471TIP3    H255829   5.138   2.386   0.603
11472TIP3   OH255830   3.970   2.562   0.894
11472TIP3    H155831   4.037   2.508   0.939
11472TIP3    H255832   3.981   2.530   0.803
11473TIP3   OH255833   4.486   2.718   0.826
11473TIP3    H155834   4.553   2.659   0.865
11473TIP3    H255835   4.434   2.652   0.775
11474TIP3   OH255836   5.583   2.372   1.368
11474TIP3    H155837   5.523   2.448   1.357
11474TIP3    H255838   5.586   2.364   1.464
11475TIP3   OH255839   4.199   2.211   1.225
11475TIP3    H155840   4.170   2.268   1.150
11475TIP3    H255841   4.131   2.234   1.293
11476TIP3   OH255842   4.930   3.159   0.578
11476TIP3    H155843   4.899   3.131   0.490
11476TIP3    H255844   4.896   3.251   0.584
11477TIP3   OH255845   4.450   2.975   1.248
11477TIP3    H155846   4.379   3.040   1.271
11477TIP3    H255847   4.520   3.035   1.219
11478TIP3   OH255848   5.262   2.264   0.857
11478TIP3    H155849   5.240   2.187   0.910
11478TIP3    H255850   5.330   2.307   0.912
11479TIP3   OH255851   4.155   2.396   1.028
11479TIP3    H155852   4.218   2.465   1.059
11479TIP3    H255853   4.207   2.355   0.954
11480TIP3   OH255854   4.295   3.176   1.331
11480TIP3    H155855   4.290   3.267   1.296
11480TIP3    H255856   4.206   3.168   1.375
11481TIP3   OH255857   3.900   3.137   0.409
11481TIP3    H155858   3.880   3.171   0.320
11481TIP3    H255859   3.909   3.219   0.461
11482TIP3   OH255860   5.263   3.303   1.080
11482TIP3    H155861   5.167   3.316   1.099
11482TIP3    H255862   5.290   3.396   1.067
11483TIP3   OH255863   5.296   2.132   1.225
11483TIP3    H155864   5.223   2.195   1.215
11483TIP3    H255865   5.367   2.174   1.172
11484TIP3   OH255866   4.592   1.944   0.971
11484TIP3    H155867   4.578   1.848   0.964
11484TIP3    H255868   4.504   1.975   1.002
11485TIP3   OH255869   5.092   3.481   0.746
11485TIP3    H155870   5.132   3.411   0.691
11485TIP3    H255871   5.133   3.561   0.707
11486TIP3   OH255872   5.217   3.271   0.595
11486TIP3    H155873   5.179   3.207   0.532
11486TIP3    H255874   5.208   3.226   0.680
11487TIP3   OH255875   5.372   3.135   1.446
11487TIP3    H155876   5.387   3.069   1.376
11487TIP3    H255877   5.393   3.218   1.401
11488TIP3   OH255878   4.822   2.824   0.420
11488TIP3    H155879   4.753   2.882   0.382
11488TIP3    H255880   4.892   2.832   0.353
11489TIP3   OH255881   4.823   2.673   0.134
11489TIP3    H155882   4.901   2.679   0.190
11489TIP3    H255883   4.857   2.614   0.067
11490TIP3   OH255884   5.560   2.765   1.249
11490TIP3    H155885   5.495   2.838   1.255
11490TIP3    H255886   5.612   2.789   1.170
11491TIP3   OH255887   5.171   2.850   0.520
11491TIP3    H155888   5.090   2.867   0.574
11491TIP3    H255889   5.212   2.774   0.566
11492TIP3   OH255890   5.160   2.661   1.427
11492TIP3    H155891   5.161   2.743   1.479
11492TIP3    H255892   5.097   2.690   1.358
11493TIP3   OH255893   4.328   2.910   0.706
11493TIP3    H155894   4.296   2.871   0.621
11493TIP3    H255895   4.389   2.841   0.739
11494TIP3   OH255896   4.460   3.249   0.974
11494TIP3    H155897   4.459   3.196   0.893
11494TIP3    H255898   4.538   3.213   1.020
11495TIP3   OH255899   4.361   2.785   1.072
11495TIP3    H155900   4.416   2.795   0.992
11495TIP3    H255901   4.400   2.851   1.133
11496TIP3   OH255902   5.003   3.343   1.143
11496TIP3    H155903   4.973   3.406   1.209
11496TIP3    H255904   4.978   3.257   1.185
11497TIP3   OH255905   4.456   3.228   1.542
11497TIP3    H155906   4.415   3.302   1.591
11497TIP3    H255907   4.389   3.208   1.472
11498TIP3   OH255908   5.055   2.763   0.282
11498TIP3    H155909   5.109   2.782   0.362
11498TIP3    H255910   5.096   2.818   0.213
11499TIP3   OH255911   4.150   2.844   1.457
11499TIP3    H155912   4.156   2.911   1.528
11499TIP3    H255913   4.056   2.853   1.436
11500TIP3   OH255914   4.825   3.436   0.629
11500TIP3    H155915   4.869   3.468   0.709
11500TIP3    H255916   4.770   3.511   0.603
11501TIP3   OH255917   4.281   3.431   1.616
11501TIP3    H155918   4.275   3.422   1.520
11501TIP3    H255919   4.188   3.418   1.643
11502TIP3   OH255920   5.428   1.939   0.272
11502TIP3    H155921   5.332   1.948   0.292
11502TIP3    H255922   5.447   2.023   0.227
11503TIP3   OH255923   4.224   2.812   0.469
11503TIP3    H155924   4.197   2.890   0.415
11503TIP3    H255925   4.159   2.746   0.444
11504TIP3   OH255926   5.534   3.372   0.109
11504TIP3    H155927   5.549   3.468   0.119
11504TIP3    H255928   5.627   3.343   0.101
11505TIP3   OH255929   3.833   3.055   1.358
11505TIP3    H155930   3.790   3.047   1.271
11505TIP3    H255931   3.842   2.961   1.379
11506TIP3   OH255932   3.810   3.329   1.035
11506TIP3    H155933   3.906   3.317   1.033
11506TIP3    H255934   3.802   3.411   1.085
11507TIP3   OH255935   5.634   3.400   1.604
11507TIP3    H155936   5.622   3.304   1.602
11507TIP3    H255937   5.547   3.424   1.642
11508TIP3   OH255938   4.730   3.353   1.490
11508TIP3    H155939   4.735   3.438   1.541
11508TIP3    H255940   4.642   3.318   1.515
11509TIP3   OH255941   4.772   3.727   0.468
11509TIP3    H155942   4.765   3.723   0.371
11509TIP3    H255943   4.777   3.823   0.486
11510TIP3   OH255944   4.138   3.616   0.651
11510TIP3    H155945   4.152   3.574   0.739
11510TIP3    H255946   4.053   3.575   0.628
11511TIP3   OH255947   5.074   3.647   0.166
11511TIP3    H155948   5.124   3.574   0.123
11511TIP3    H255949   5.084   3.624   0.261
11512TIP3   OH255950   5.048   3.643   0.446
11512TIP3    H155951   4.952   3.649   0.464
11512TIP3    H255952   5.073   3.569   0.504
11513TIP3   OH255953   5.347   2.546   1.651
11513TIP3    H155954   5.301   2.591   1.579
11513TIP3    H255955   5.347   2.455   1.621
11514TIP3   OH255956   4.063   3.187   1.451
11514TIP3    H155957   4.085   3.150   1.540
11514TIP3    H255958   3.976   3.147   1.430
11515TIP3   OH255959   4.331   2.034   1.046
11515TIP3    H155960   4.240   2.022   1.009
11515TIP3    H255961   4.317   2.118   1.095
11516TIP3   OH255962   4.795   2.001   1.382
11516TIP3    H155963   4.834   1.959   1.461
11516TIP3    H255964   4.698   1.989   1.397
11517TIP3   OH255965   5.123   2.386   1.473
11517TIP3    H155966   5.067   2.366   1.552
11517TIP3    H255967   5.105   2.478   1.449
11518TIP3   OH255968   5.208   2.876   0.069
11518TIP3    H155969   5.207   2.855  -0.027
11518TIP3    H255970   5.297   2.915   0.076
11519TIP3   OH255971   4.758   2.260   0.116
11519TIP3    H155972   4.728   2.254   0.209
11519TIP3    H255973   4.735   2.171   0.087
11520TIP3   OH255974   4.341   2.532   1.172
11520TIP3    H155975   4.267   2.531   1.236
11520TIP3    H255976   4.336   2.623   1.134
11521TIP3   OH255977   4.337   2.543   0.658
11521TIP3    H155978   4.243   2.518   0.645
11521TIP3    H255979   4.374   2.515   0.572
11522TIP3   OH255980   4.890   2.593   0.531
11522TIP3    H155981   4.849   2.676   0.499
11522TIP3    H255982   4.959   2.578   0.464
11523TIP3   OH255983   4.793   2.619   1.685
11523TIP3    H155984   4.742   2.537   1.708
11523TIP3    H255985   4.880   2.599   1.724
11524TIP3   OH255986   4.993   2.542   0.820
11524TIP3    H155987   4.964   2.599   0.746
11524TIP3    H255988   5.002   2.458   0.773
11525TIP3   OH255989   4.103   2.557   1.340
11525TIP3    H155990   4.111   2.598   1.427
11525TIP3    H255991   4.059   2.473   1.361
11526TIP3   OH255992   4.462   2.326   0.063
11526TIP3    H155993   4.406   2.260   0.109
11526TIP3    H255994   4.406   2.359  -0.008
11527TIP3   OH255995   3.769   2.268   0.739
11527TIP3    H155996   3.837   2.264   0.808
11527TIP3    H255997   3.813   2.230   0.660
11528TIP3   OH255998   3.897   2.342   0.275
11528TIP3    H155999   3.948   2.400   0.216
11528TIP3    H256000   3.827   2.404   0.304
11529TIP3   OH256001   4.912   2.701   1.276
11529TIP3    H156002   4.950   2.633   1.217
11529TIP3    H256003   4.865   2.648   1.342
11530TIP3   OH256004   4.593   2.299   0.758
11530TIP3    H156005   4.499   2.299   0.787
11530TIP3    H256006   4.640   2.282   0.841
11531TIP3   OH256007   4.073   2.454   0.645
11531TIP3    H156008   3.985   2.470   0.606
11531TIP3    H256009   4.102   2.371   0.604
11532TIP3   OH256010   4.437   2.462   0.410
11532TIP3    H156011   4.533   2.470   0.425
11532TIP3    H256012   4.414   2.525   0.340
11533TIP3   OH256013   5.033   2.223   1.082
11533TIP3    H156014   4.964   2.227   1.153
11533TIP3    H256015   4.982   2.197   1.004
11534TIP3   OH256016   4.308   2.577   0.167
11534TIP3    H156017   4.251   2.541   0.097
11534TIP3    H256018   4.390   2.597   0.119
11535TIP3   OH256019   5.353   3.787   1.715
11535TIP3    H156020   5.379   3.825   1.630
11535TIP3    H256021   5.425   3.819   1.771
11536TIP3   OH256022   4.121   3.033   1.672
11536TIP3    H156023   4.192   3.058   1.733
11536TIP3    H256024   4.043   3.042   1.732
11537TIP3   OH256025   4.720   2.575   0.948
11537TIP3    H156026   4.780   2.521   0.895
11537TIP3    H256027   4.706   2.520   1.026
11538TIP3   OH256028   4.221   2.189   0.593
11538TIP3    H156029   4.190   2.096   0.591
11538TIP3    H256030   4.300   2.182   0.537
11539TIP3   OH256031   4.584   2.407   1.189
11539TIP3    H156032   4.502   2.459   1.198
11539TIP3    H256033   4.640   2.443   1.261
11540TIP3   OH256034   4.644   3.027   0.362
11540TIP3    H156035   4.563   2.983   0.327
11540TIP3    H256036   4.621   3.041   0.456
11541TIP3   OH256037   5.363   2.948   1.237
11541TIP3    H156038   5.418   2.999   1.177
11541TIP3    H256039   5.275   2.955   1.195
11542TIP3   OH256040   5.029   2.314   0.178
11542TIP3    H156041   4.934   2.326   0.159
11542TIP3    H256042   5.060   2.399   0.214
11543TIP3   OH256043   4.794   3.056   1.486
11543TIP3    H156044   4.755   3.014   1.562
11543TIP3    H256045   4.767   3.148   1.494
11544TIP3   OH256046   5.099   2.505   0.344
11544TIP3    H156047   5.190   2.489   0.377
11544TIP3    H256048   5.108   2.585   0.291
11545TIP3   OH256049   4.155   2.969   0.939
11545TIP3    H156050   4.222   2.961   0.869
11545TIP3    H256051   4.160   2.883   0.984
11546TIP3   OH256052   4.853   3.175   0.265
11546TIP3    H156053   4.816   3.260   0.298
11546TIP3    H256054   4.779   3.113   0.283
11547TIP3   OH256055   3.853   2.809   1.465
11547TIP3    H156056   3.870   2.765   1.550
11547TIP3    H256057   3.791   2.748   1.421
11548TIP3   OH256058   4.556   2.766   1.683
11548TIP3    H156059   4.521   2.735   1.598
11548TIP3    H256060   4.647   2.731   1.680
11549TIP3   OH256061   5.023   3.299   1.478
11549TIP3    H156062   4.931   3.317   1.455
11549TIP3    H256063   5.020   3.328   1.571
11550TIP3   OH256064   5.590   2.516   0.320
11550TIP3    H156065   5.532   2.486   0.249
11550TIP3    H256066   5.599   2.610   0.291
11551TIP3   OH256067   5.589   3.103   1.598
11551TIP3    H156068   5.499   3.125   1.561
11551TIP3    H256069   5.643   3.098   1.516
11552TIP3   OH256070   5.419   3.399   0.355
11552TIP3    H156071   5.380   3.316   0.387
11552TIP3    H256072   5.449   3.379   0.264
11553TIP3   OH256073   5.141   2.884   1.061
11553TIP3    H156074   5.046   2.861   1.059
11553TIP3    H256075   5.181   2.802   1.027
11554TIP3   OH256076   4.391   3.314   0.678
11554TIP3    H156077   4.441   3.395   0.657
11554TIP3    H256078   4.303   3.338   0.644
11555TIP3   OH256079   3.966   2.802   0.129
11555TIP3    H156080   4.027   2.862   0.175
11555TIP3    H256081   3.878   2.827   0.164
11556TIP3   OH256082   4.533   3.081   0.630
11556TIP3    H156083   4.501   3.173   0.638
11556TIP3    H256084   4.461   3.032   0.674
11557TIP3   OH256085   4.578   3.500   1.271
11557TIP3    H156086   4.624   3.580   1.242
11557TIP3    H256087   4.640   3.465   1.338
11558TIP3   OH256088   4.401   3.581   0.581
11558TIP3    H156089   4.305   3.594   0.596
11558TIP3    H256090   4.437   3.664   0.617
11559TIP3   OH256091   4.929   3.099   1.232
11559TIP3    H156092   4.897   3.081   1.323
11559TIP3    H256093   4.993   3.028   1.217
11560TIP3   OH256094   5.161   3.204   0.146
11560TIP3    H156095   5.191   3.156   0.226
11560TIP3    H256096   5.065   3.188   0.151
11561TIP3   OH256097   5.212   3.557   1.481
11561TIP3    H156098   5.143   3.508   1.433
11561TIP3    H256099   5.230   3.628   1.415
11562TIP3   OH256100   5.610   3.645   0.171
11562TIP3    H156101   5.679   3.708   0.143
11562TIP3    H256102   5.537   3.707   0.194
11563TIP3   OH256103   4.018   2.283   1.420
11563TIP3    H156104   3.927   2.318   1.418
11563TIP3    H256105   4.007   2.198   1.466
11564TIP3   OH256106   5.242   3.070   0.370
11564TIP3    H156107   5.218   2.988   0.417
11564TIP3    H256108   5.338   3.075   0.384
11565TIP3   OH256109   3.979   3.461   1.263
11565TIP3    H156110   4.010   3.369   1.263
11565TIP3    H256111   4.006   3.490   1.351
11566TIP3   OH256112   4.454   3.270   0.233
11566TIP3    H156113   4.480   3.214   0.308
11566TIP3    H256114   4.463   3.362   0.268
11567TIP3   OH256115   4.106   2.991   0.287
11567TIP3    H156116   4.037   3.033   0.343
11567TIP3    H256117   4.159   3.068   0.259
11568TIP3   OH256118   4.891   2.260   1.317
11568TIP3    H156119   4.963   2.266   1.381
11568TIP3    H256120   4.853   2.172   1.337
11569TIP3   OH256121   4.964   2.220   0.425
11569TIP3    H156122   4.991   2.264   0.343
11569TIP3    H256123   5.024   2.261   0.489
11570TIP3   OH256124   4.733   3.435   0.305
11570TIP3    H156125   4.652   3.487   0.315
11570TIP3    H256126   4.789   3.487   0.244
11571TIP3   OH256127   4.688   2.391   0.506
11571TIP3    H156128   4.766   2.450   0.509
11571TIP3    H256129   4.661   2.379   0.599
11572TIP3   OH256130   4.744   2.495   1.426
11572TIP3    H156131   4.752   2.551   1.506
11572TIP3    H256132   4.810   2.425   1.436
11573TIP3   OH256133   4.774   2.098   0.594
11573TIP3    H156134   4.741   2.163   0.659
11573TIP3    H256135   4.843   2.153   0.550
11574TIP3   OH256136   4.470   3.538   0.310
11574TIP3    H156137   4.488   3.621   0.260
11574TIP3    H256138   4.446   3.572   0.399
11575TIP3   OH256139   4.339   2.208   0.271
11575TIP3    H156140   4.333   2.299   0.305
11575TIP3    H256141   4.430   2.185   0.298
11576TIP3   OH256142   5.362   2.281   1.510
11576TIP3    H156143   5.269   2.313   1.498
11576TIP3    H256144   5.392   2.280   1.418
11577TIP3   OH256145   5.223   2.661   0.910
11577TIP3    H156146   5.141   2.616   0.884
11577TIP3    H256147   5.271   2.592   0.962
11578TIP3   OH256148   4.164   3.254   0.169
11578TIP3    H156149   4.230   3.315   0.204
11578TIP3    H256150   4.217   3.207   0.101
11579TIP3   OH256151   4.003   2.522   0.090
11579TIP3    H156152   4.000   2.618   0.102
11579TIP3    H256153   3.916   2.501   0.056
11580TIP3   OH256154   5.330   3.587   1.079
11580TIP3    H156155   5.321   3.654   1.009
11580TIP3    H256156   5.426   3.592   1.096
11581TIP3   OH256157   4.079   1.999   0.959
11581TIP3    H156158   4.059   2.000   0.863
11581TIP3    H256159   4.037   1.913   0.984
11582TIP3   OH256160   3.975   3.391   0.573
11582TIP3    H156161   3.889   3.435   0.569
11582TIP3    H256162   4.022   3.437   0.503
11583TIP3   OH256163   3.895   3.656   1.702
11583TIP3    H156164   3.955   3.636   1.776
11583TIP3    H256165   3.855   3.569   1.684
11584TIP3   OH256166   4.364   3.547   1.863
11584TIP3    H156167   4.439   3.498   1.896
11584TIP3    H256168   4.361   3.520   1.769
11585TIP3   OH256169   4.822   3.509   0.062
11585TIP3    H156170   4.736   3.462   0.060
11585TIP3    H256171   4.868   3.460  -0.007
11586TIP3   OH256172   5.014   3.387   1.737
11586TIP3    H156173   4.983   3.298   1.764
11586TIP3    H256174   5.091   3.398   1.797
11587TIP3   OH256175   5.235   3.478   0.023
11587TIP3    H156176   5.259   3.396   0.071
11587TIP3    H256177   5.313   3.495  -0.031
11588TIP3   OH256178   3.886   3.033   1.802
11588TIP3    H156179   3.902   2.942   1.771
11588TIP3    H256180   3.812   3.059   1.744
11589TIP3   OH256181   4.331   3.074   0.016
11589TIP3    H156182   4.337   2.991   0.064
11589TIP3    H256183   4.387   3.051  -0.061
11590TIP3   OH256184   4.560   3.031   1.741
11590TIP3    H156185   4.524   3.065   1.656
11590TIP3    H256186   4.563   2.933   1.726
11591TIP3   OH256187   5.127   3.018   1.479
11591TIP3    H156188   5.206   3.076   1.473
11591TIP3    H256189   5.057   3.085   1.483
11592TIP3   OH256190   3.978   2.756   1.740
11592TIP3    H156191   4.020   2.669   1.730
11592TIP3    H256192   3.955   2.756   1.834
11593TIP3   OH256193   4.443   2.872   0.245
11593TIP3    H156194   4.393   2.818   0.308
11593TIP3    H256195   4.475   2.804   0.181
11594TIP3   OH256196   4.368   2.650   1.475
11594TIP3    H156197   4.308   2.722   1.501
11594TIP3    H256198   4.408   2.687   1.394
11595TIP3   OH256199   4.551   2.688   0.065
11595TIP3    H156200   4.539   2.678  -0.030
11595TIP3    H256201   4.649   2.697   0.075
11596TIP3   OH256202   4.877   2.910   1.828
11596TIP3    H156203   4.968   2.908   1.791
11596TIP3    H256204   4.864   2.817   1.850
11597TIP3   OH256205   5.463   2.941  16.018
11597TIP3    H156206   5.457   2.889  15.936
11597TIP3    H256207   5.489   3.029  15.989
11598TIP3   OH256208   4.409   2.388   1.581
11598TIP3    H156209   4.420   2.317   1.515
11598TIP3    H256210   4.404   2.469   1.526
11599TIP3   OH256211   4.449   2.226   1.336
11599TIP3    H156212   4.500   2.273   1.265
11599TIP3    H256213   4.360   2.218   1.296
11600TIP3   OH256214   4.603   2.775   1.360
11600TIP3    H156215   4.678   2.759   1.303
11600TIP3    H256216   4.566   2.858   1.327
11601TIP3   OH256217   5.042   2.551   1.857
11601TIP3    H156218   5.066   2.458   1.846
11601TIP3    H256219   5.130   2.594   1.859
11602TIP3   OH256220   5.175   2.831   1.675
11602TIP3    H156221   5.152   2.902   1.610
11602TIP3    H256222   5.271   2.826   1.656
11603TIP3   OH256223   4.255   2.513   1.773
11603TIP3    H156224   4.178   2.455   1.756
11603TIP3    H256225   4.320   2.476   1.710
11604TIP3   OH256226   4.528   1.970   1.375
11604TIP3    H156227   4.509   2.066   1.365
11604TIP3    H256228   4.453   1.933   1.325
11605TIP3   OH256229   4.654   2.405   1.739
11605TIP3    H156230   4.623   2.377   1.827
11605TIP3    H256231   4.577   2.383   1.684
11606TIP3   OH256232   4.927   2.317   1.647
11606TIP3    H156233   4.830   2.322   1.658
11606TIP3    H256234   4.953   2.252   1.715
11607TIP3   OH256235   5.085   2.179   1.837
11607TIP3    H156236   5.080   2.081   1.840
11607TIP3    H256237   5.060   2.208   1.927
11608TIP3   OH256238   4.062   2.307   1.748
11608TIP3    H156239   4.087   2.233   1.690
11608TIP3    H256240   4.054   2.262   1.835
11609TIP3   OH256241   4.549   1.909   1.645
11609TIP3    H156242   4.617   1.839   1.643
11609TIP3    H256243   4.538   1.923   1.549
11610TIP3   OH256244   4.585   2.070   1.857
11610TIP3    H156245   4.568   2.020   1.773
11610TIP3    H256246   4.525   2.147   1.847
11611TIP3   OH256247   4.530   3.760   0.170
11611TIP3    H156248   4.628   3.772   0.180
11611TIP3    H256249   4.513   3.828   0.104
11612TIP3   OH256250   3.889   3.221   0.120
11612TIP3    H156251   3.984   3.232   0.141
11612TIP3    H256252   3.894   3.163   0.044
11613TIP3   OH256253   3.766   3.758   0.617
11613TIP3    H156254   3.694   3.709   0.571
11613TIP3    H256255   3.794   3.692   0.684
11614TIP3   OH256256   3.848   3.571   0.805
11614TIP3    H156257   3.813   3.483   0.825
11614TIP3    H256258   3.870   3.604   0.894
11615TIP3   OH256259   5.602   3.651   1.098
11615TIP3    H156260   5.605   3.667   1.194
11615TIP3    H256261   5.672   3.709   1.068
11616TIP3   OH256262   5.560   3.609   1.391
11616TIP3    H156263   5.512   3.532   1.354
11616TIP3    H256264   5.608   3.565   1.464
11617TIP3   OH256265   5.404   3.182   1.860
11617TIP3    H156266   5.313   3.180   1.896
11617TIP3    H256267   5.440   3.263   1.901
11618TIP3   OH256268   5.534   3.018   0.407
11618TIP3    H156269   5.622   3.056   0.421
11618TIP3    H256270   5.536   2.942   0.469
11619TIP3   OH256271   5.564   2.833   0.598
11619TIP3    H156272   5.498   2.766   0.628
11619TIP3    H256273   5.635   2.831   0.666
11620TIP3   OH256274   5.542   3.092   1.078
11620TIP3    H156275   5.630   3.055   1.056
11620TIP3    H256276   5.563   3.188   1.076
11621TIP3   OH256277   5.403   3.383   1.317
11621TIP3    H156278   5.334   3.418   1.376
11621TIP3    H256279   5.347   3.344   1.247
11622TIP3   OH256280   5.602   2.807   0.231
11622TIP3    H156281   5.542   2.841   0.162
11622TIP3    H256282   5.594   2.878   0.297
11623TIP3   OH256283   5.395   2.530   0.095
11623TIP3    H156284   5.440   2.591   0.033
11623TIP3    H256285   5.418   2.448   0.050
11624TIP3   OH256286   5.354   2.672   0.651
11624TIP3    H156287   5.339   2.576   0.642
11624TIP3    H256288   5.317   2.687   0.740
11625TIP3   OH256289   3.854   2.879   1.055
11625TIP3    H156290   3.871   2.871   0.958
11625TIP3    H256291   3.943   2.861   1.090
11626TIP3   OH256292   5.438   2.867   1.619
11626TIP3    H156293   5.500   2.791   1.631
11626TIP3    H256294   5.499   2.944   1.618
11627TIP3   OH256295   5.589   2.655   1.683
11627TIP3    H156296   5.501   2.615   1.667
11627TIP3    H256297   5.647   2.577   1.675
11628TIP3   OH256298   5.319   2.429   0.495
11628TIP3    H156299   5.349   2.336   0.506
11628TIP3    H256300   5.398   2.469   0.457
11629TIP3   OH256301   5.384   2.485   1.038
11629TIP3    H156302   5.481   2.504   1.038
11629TIP3    H256303   5.365   2.497   1.132
11630TIP3   OH256304   5.390   2.555   1.317
11630TIP3    H156305   5.302   2.584   1.348
11630TIP3    H256306   5.434   2.641   1.294
11631TIP3   OH256307   3.816   2.409   1.671
11631TIP3    H156308   3.909   2.388   1.689
11631TIP3    H256309   3.770   2.327   1.697
11632TIP3   OH256310   5.617   1.962   1.851
11632TIP3    H156311   5.653   1.896   1.789
11632TIP3    H256312   5.628   2.043   1.797
11633TIP3   OH256313   5.387   2.156   0.497
11633TIP3    H156314   5.408   2.113   0.583
11633TIP3    H256315   5.326   2.093   0.454
11634TIP3   OH256316   3.935   2.238   0.955
11634TIP3    H156317   3.981   2.155   0.980
11634TIP3    H256318   3.991   2.307   0.994
11635TIP3   OH256319   3.764   2.538   1.058
11635TIP3    H156320   3.820   2.513   0.982
11635TIP3    H256321   3.810   2.619   1.085
11636TIP3   OH256322   5.570   2.171   1.686
11636TIP3    H156323   5.476   2.199   1.681
11636TIP3    H256324   5.573   2.116   1.607
11637TIP3   OH256325   5.570   2.163   0.155
11637TIP3    H156326   5.609   2.092   0.103
11637TIP3    H256327   5.641   2.229   0.154
11638TIP3   OH256328   3.798   2.165   0.465
11638TIP3    H156329   3.705   2.184   0.449
11638TIP3    H256330   3.842   2.213   0.394
11639TIP3   OH256331   5.272   3.660   0.661
11639TIP3    H156332   5.341   3.629   0.599
11639TIP3    H256333   5.325   3.709   0.726
11640TIP3   OH256334   3.795   2.029   1.295
11640TIP3    H156335   3.728   2.010   1.363
11640TIP3    H256336   3.749   2.097   1.241
11641TIP3   OH256337   4.019   3.348   1.712
11641TIP3    H156338   3.935   3.371   1.668
11641TIP3    H256339   3.992   3.342   1.803
11642TIP3   OH256340   4.309   3.450   1.340
11642TIP3    H156341   4.276   3.537   1.312
11642TIP3    H256342   4.402   3.458   1.309
11643TIP3   OH256343   4.741   3.592   1.630
11643TIP3    H156344   4.755   3.557   1.721
11643TIP3    H256345   4.831   3.623   1.605
11644TIP3   OH256346   4.969   3.719   1.561
11644TIP3    H156347   5.043   3.661   1.537
11644TIP3    H256348   5.007   3.763   1.640
11645TIP3   OH256349   5.472   1.980   1.472
11645TIP3    H156350   5.389   2.010   1.430
11645TIP3    H256351   5.488   1.898   1.420
11646TIP3   OH256352   4.051   3.773   1.339
11646TIP3    H156353   3.978   3.824   1.299
11646TIP3    H256354   4.020   3.755   1.428
11647TIP3   OH256355   4.298   3.731   1.246
11647TIP3    H156356   4.209   3.747   1.285
11647TIP3    H256357   4.293   3.790   1.169
11648TIP3   OH256358   4.769   3.723   1.163
11648TIP3    H156359   4.723   3.778   1.098
11648TIP3    H256360   4.782   3.786   1.237
11649TIP3   OH256361   4.998   3.603   1.266
11649TIP3    H156362   4.912   3.631   1.229
11649TIP3    H256363   5.046   3.687   1.257
11650TIP3   OH256364   5.256   3.760   1.288
11650TIP3    H156365   5.251   3.856   1.265
11650TIP3    H256366   5.277   3.723   1.200
11651TIP3   OH256367   3.997   3.638   1.033
11651TIP3    H156368   3.989   3.592   1.119
11651TIP3    H256369   4.079   3.601   0.994
11652TIP3   OH256370   4.205   3.510   0.898
11652TIP3    H156371   4.188   3.416   0.922
11652TIP3    H256372   4.290   3.525   0.944
11653TIP3   OH256373   4.465   3.558   0.986
11653TIP3    H156374   4.481   3.466   0.960
11653TIP3    H256375   4.470   3.553   1.083
11654TIP3   OH256376   4.810   2.123   0.900
11654TIP3    H156377   4.743   2.059   0.928
11654TIP3    H256378   4.866   2.070   0.842
11655TIP3   OH256379   5.324   1.928   0.906
11655TIP3    H156380   5.385   1.987   0.856
11655TIP3    H256381   5.236   1.964   0.883
11656TIP3   OH256382   5.491   2.053   0.734
11656TIP3    H156383   5.560   1.995   0.693
11656TIP3    H256384   5.542   2.136   0.745
11657TIP3   OH256385   4.047   1.985   0.686
11657TIP3    H156386   3.968   1.966   0.632
11657TIP3    H256387   4.093   1.899   0.679
11658TIP3   OH256388   3.923   1.961   0.258
11658TIP3    H156389   3.973   2.025   0.204
11658TIP3    H256390   3.868   2.018   0.315
11659TIP3   OH256391   4.495   1.978   0.664
11659TIP3    H156392   4.584   2.014   0.656
11659TIP3    H256393   4.491   1.956   0.757
11660TIP3   OH256394   5.066   1.980   0.826
11660TIP3    H156395   5.061   1.992   0.730
11660TIP3    H256396   5.028   1.890   0.838
11661TIP3   OH256397   5.193   1.983   0.391
11661TIP3    H156398   5.119   2.043   0.376
11661TIP3    H256399   5.149   1.897   0.414
11662TIP3   OH256400   3.917   3.557   0.357
11662TIP3    H156401   3.849   3.556   0.287
11662TIP3    H256402   3.918   3.652   0.375
11663TIP3   OH256403   4.108   2.146   0.112
11663TIP3    H156404   4.163   2.093   0.054
11663TIP3    H256405   4.173   2.189   0.170
11664TIP3   OH256406   4.610   2.178   0.348
11664TIP3    H156407   4.637   2.122   0.423
11664TIP3    H256408   4.617   2.266   0.394
11665TIP3   OH256409   4.800   3.719   0.196
11665TIP3    H156410   4.897   3.716   0.180
11665TIP3    H256411   4.783   3.645   0.133
11666TIP3   OH256412   5.473   3.638   0.464
11666TIP3    H156413   5.453   3.560   0.407
11666TIP3    H256414   5.464   3.712   0.400
11667TIP3   OH256415   4.036   2.040   1.630
11667TIP3    H156416   3.997   1.960   1.670
11667TIP3    H256417   4.127   2.036   1.668
11668TIP3   OH256418   4.237   1.979   1.794
11668TIP3    H156419   4.326   1.944   1.772
11668TIP3    H256420   4.199   1.898   1.834
11669TIP3   OH256421   4.102   3.654   0.053
11669TIP3    H156422   4.069   3.681   0.140
11669TIP3    H256423   4.176   3.597   0.074
11670TIP3   OH256424   5.076   1.907   1.809
11670TIP3    H156425   5.086   1.860   1.894
11670TIP3    H256426   5.168   1.903   1.775
11671TIP3   OH256427   5.398   3.512   1.672
11671TIP3    H156428   5.317   3.498   1.618
11671TIP3    H256429   5.386   3.607   1.694
11672TIP3   OH256430   6.840   2.898   0.673
11672TIP3    H156431   6.844   2.995   0.666
11672TIP3    H256432   6.770   2.876   0.609
11673TIP3   OH256433   6.728   2.825   1.020
11673TIP3    H156434   6.726   2.760   1.092
11673TIP3    H256435   6.694   2.774   0.944
11674TIP3   OH256436   5.962   2.793   1.176
11674TIP3    H156437   5.971   2.724   1.245
11674TIP3    H256438   6.038   2.850   1.198
11675TIP3   OH256439   7.098   3.118   0.850
11675TIP3    H156440   7.056   3.046   0.899
11675TIP3    H256441   7.099   3.190   0.915
11676TIP3   OH256442   6.055   3.238   1.026
11676TIP3    H156443   6.024   3.151   0.994
11676TIP3    H256444   6.151   3.219   1.030
11677TIP3   OH256445   5.718   2.594   0.577
11677TIP3    H156446   5.676   2.681   0.567
11677TIP3    H256447   5.664   2.539   0.518
11678TIP3   OH256448   5.789   2.817   0.789
11678TIP3    H156449   5.818   2.735   0.835
11678TIP3    H256450   5.860   2.827   0.724
11679TIP3   OH256451   6.808   3.636   0.872
11679TIP3    H156452   6.873   3.566   0.844
11679TIP3    H256453   6.785   3.602   0.959
11680TIP3   OH256454   6.566   3.065   1.068
11680TIP3    H156455   6.599   3.002   1.002
11680TIP3    H256456   6.647   3.081   1.119
11681TIP3   OH256457   6.882   2.512   1.100
11681TIP3    H156458   6.899   2.416   1.097
11681TIP3    H256459   6.874   2.527   1.003
11682TIP3   OH256460   6.193   2.321   0.821
11682TIP3    H156461   6.204   2.404   0.771
11682TIP3    H256462   6.153   2.264   0.751
11683TIP3   OH256463   6.956   2.300   0.671
11683TIP3    H156464   7.030   2.288   0.736
11683TIP3    H256465   7.001   2.369   0.617
11684TIP3   OH256466   5.856   2.562   0.894
11684TIP3    H156467   5.923   2.507   0.939
11684TIP3    H256468   5.866   2.530   0.803
11685TIP3   OH256469   6.372   2.718   0.825
11685TIP3    H156470   6.439   2.659   0.865
11685TIP3    H256471   6.320   2.652   0.775
11686TIP3   OH256472   6.084   2.211   1.225
11686TIP3    H156473   6.056   2.268   1.150
11686TIP3    H256474   6.016   2.234   1.293
11687TIP3   OH256475   6.811   3.158   0.578
11687TIP3    H156476   6.785   3.132   0.488
11687TIP3    H256477   6.782   3.252   0.583
11688TIP3   OH256478   6.335   2.975   1.248
11688TIP3    H156479   6.265   3.039   1.270
11688TIP3    H256480   6.406   3.035   1.219
11689TIP3   OH256481   7.117   2.262   0.871
11689TIP3    H156482   7.122   2.179   0.918
11689TIP3    H256483   7.196   2.308   0.907
11690TIP3   OH256484   6.041   2.397   1.028
11690TIP3    H156485   6.104   2.465   1.060
11690TIP3    H256486   6.093   2.356   0.954
11691TIP3   OH256487   6.180   3.176   1.330
11691TIP3    H156488   6.175   3.267   1.297
11691TIP3    H256489   6.092   3.168   1.375
11692TIP3   OH256490   5.782   3.136   0.411
11692TIP3    H156491   5.765   3.170   0.321
11692TIP3    H256492   5.795   3.220   0.460
11693TIP3   OH256493   7.129   3.296   1.095
11693TIP3    H156494   7.033   3.318   1.099
11693TIP3    H256495   7.167   3.381   1.065
11694TIP3   OH256496   7.162   2.145   1.202
11694TIP3    H156497   7.092   2.212   1.211
11694TIP3    H256498   7.237   2.194   1.167
11695TIP3   OH256499   6.478   1.944   0.971
11695TIP3    H156500   6.464   1.848   0.964
11695TIP3    H256501   6.390   1.975   1.002
11696TIP3   OH256502   6.968   3.474   0.750
11696TIP3    H156503   7.015   3.407   0.696
11696TIP3    H256504   7.011   3.555   0.712
11697TIP3   OH256505   7.093   3.275   0.597
11697TIP3    H156506   7.070   3.204   0.535
11697TIP3    H256507   7.101   3.223   0.680
11698TIP3   OH256508   7.232   3.148   1.458
11698TIP3    H156509   7.260   3.078   1.395
11698TIP3    H256510   7.273   3.224   1.412
11699TIP3   OH256511   6.706   2.827   0.420
11699TIP3    H156512   6.638   2.883   0.379
11699TIP3    H256513   6.779   2.830   0.354
11700TIP3   OH256514   6.709   2.674   0.132
11700TIP3    H156515   6.785   2.679   0.191
11700TIP3    H256516   6.745   2.613   0.068
11701TIP3   OH256517   7.054   2.854   0.514
11701TIP3    H156518   6.978   2.866   0.574
11701TIP3    H256519   7.096   2.779   0.563
11702TIP3   OH256520   7.047   2.662   1.424
11702TIP3    H156521   7.042   2.742   1.479
11702TIP3    H256522   6.983   2.689   1.355
11703TIP3   OH256523   6.213   2.910   0.706
11703TIP3    H156524   6.181   2.871   0.621
11703TIP3    H256525   6.275   2.841   0.739
11704TIP3   OH256526   6.345   3.248   0.974
11704TIP3    H156527   6.345   3.196   0.893
11704TIP3    H256528   6.424   3.213   1.020
11705TIP3   OH256529   6.246   2.785   1.072
11705TIP3    H156530   6.301   2.795   0.992
11705TIP3    H256531   6.285   2.851   1.133
11706TIP3   OH256532   6.880   3.344   1.141
11706TIP3    H156533   6.861   3.406   1.212
11706TIP3    H256534   6.863   3.257   1.184
11707TIP3   OH256535   6.342   3.228   1.542
11707TIP3    H156536   6.300   3.302   1.591
11707TIP3    H256537   6.275   3.208   1.472
11708TIP3   OH256538   6.938   2.764   0.285
11708TIP3    H156539   6.994   2.781   0.365
11708TIP3    H256540   6.980   2.818   0.216
11709TIP3   OH256541   6.036   2.844   1.457
11709TIP3    H156542   6.041   2.911   1.528
11709TIP3    H256543   5.942   2.853   1.436
11710TIP3   OH256544   6.711   3.437   0.626
11710TIP3    H156545   6.755   3.467   0.706
11710TIP3    H256546   6.654   3.511   0.603
11711TIP3   OH256547   6.166   3.431   1.616
11711TIP3    H156548   6.160   3.422   1.520
11711TIP3    H256549   6.073   3.418   1.643
11712TIP3   OH256550   6.109   2.812   0.469
11712TIP3    H156551   6.083   2.890   0.415
11712TIP3    H256552   6.045   2.746   0.444
11713TIP3   OH256553   5.719   3.056   1.358
11713TIP3    H156554   5.676   3.048   1.272
11713TIP3    H256555   5.728   2.961   1.379
11714TIP3   OH256556   5.695   3.328   1.034
11714TIP3    H156557   5.791   3.318   1.033
11714TIP3    H256558   5.687   3.410   1.085
11715TIP3   OH256559   6.615   3.353   1.490
11715TIP3    H156560   6.621   3.438   1.541
11715TIP3    H256561   6.528   3.317   1.515
11716TIP3   OH256562   6.657   3.728   0.469
11716TIP3    H156563   6.653   3.722   0.371
11716TIP3    H256564   6.664   3.824   0.484
11717TIP3   OH256565   6.023   3.616   0.651
11717TIP3    H156566   6.038   3.575   0.739
11717TIP3    H256567   5.938   3.575   0.628
11718TIP3   OH256568   7.029   3.656   0.229
11718TIP3    H156569   7.016   3.602   0.148
11718TIP3    H256570   6.962   3.618   0.286
11719TIP3   OH256571   6.928   3.649   0.467
11719TIP3    H156572   6.831   3.647   0.467
11719TIP3    H256573   6.954   3.564   0.505
11720TIP3   OH256574   7.184   2.564   1.654
11720TIP3    H156575   7.181   2.599   1.565
11720TIP3    H256576   7.238   2.481   1.639
11721TIP3   OH256577   5.948   3.187   1.451
11721TIP3    H156578   5.971   3.151   1.540
11721TIP3    H256579   5.861   3.147   1.430
11722TIP3   OH256580   6.216   2.035   1.046
11722TIP3    H156581   6.126   2.022   1.009
11722TIP3    H256582   6.203   2.118   1.095
11723TIP3   OH256583   6.681   2.001   1.382
11723TIP3    H156584   6.720   1.959   1.461
11723TIP3    H256585   6.583   1.989   1.397
11724TIP3   OH256586   7.002   2.382   1.464
11724TIP3    H156587   6.955   2.364   1.549
11724TIP3    H256588   6.994   2.478   1.452
11725TIP3   OH256589   7.102   2.864   0.067
11725TIP3    H156590   7.093   2.854  -0.030
11725TIP3    H256591   7.177   2.923   0.073
11726TIP3   OH256592   6.642   2.260   0.116
11726TIP3    H156593   6.613   2.254   0.209
11726TIP3    H256594   6.621   2.171   0.087
11727TIP3   OH256595   6.227   2.533   1.173
11727TIP3    H156596   6.153   2.531   1.235
11727TIP3    H256597   6.222   2.623   1.134
11728TIP3   OH256598   6.222   2.543   0.658
11728TIP3    H156599   6.129   2.518   0.644
11728TIP3    H256600   6.261   2.514   0.572
11729TIP3   OH256601   6.748   2.589   0.520
11729TIP3    H156602   6.733   2.682   0.497
11729TIP3    H256603   6.840   2.578   0.485
11730TIP3   OH256604   6.681   2.615   1.679
11730TIP3    H156605   6.629   2.537   1.710
11730TIP3    H256606   6.765   2.603   1.726
11731TIP3   OH256607   6.868   2.542   0.825
11731TIP3    H156608   6.858   2.598   0.745
11731TIP3    H256609   6.890   2.461   0.776
11732TIP3   OH256610   5.988   2.557   1.339
11732TIP3    H156611   5.997   2.598   1.427
11732TIP3    H256612   5.944   2.473   1.360
11733TIP3   OH256613   6.348   2.326   0.063
11733TIP3    H156614   6.292   2.260   0.109
11733TIP3    H256615   6.292   2.359  -0.008
11734TIP3   OH256616   5.654   2.268   0.739
11734TIP3    H156617   5.723   2.264   0.808
11734TIP3    H256618   5.699   2.230   0.660
11735TIP3   OH256619   5.783   2.342   0.275
11735TIP3    H156620   5.834   2.400   0.216
11735TIP3    H256621   5.713   2.404   0.304
11736TIP3   OH256622   6.796   2.700   1.274
11736TIP3    H156623   6.835   2.631   1.217
11736TIP3    H256624   6.750   2.648   1.342
11737TIP3   OH256625   6.478   2.300   0.759
11737TIP3    H156626   6.385   2.300   0.789
11737TIP3    H256627   6.527   2.282   0.840
11738TIP3   OH256628   5.959   2.454   0.645
11738TIP3    H156629   5.870   2.469   0.606
11738TIP3    H256630   5.987   2.371   0.604
11739TIP3   OH256631   6.322   2.462   0.410
11739TIP3    H156632   6.418   2.470   0.426
11739TIP3    H256633   6.300   2.525   0.340
11740TIP3   OH256634   6.911   2.220   1.084
11740TIP3    H156635   6.844   2.226   1.154
11740TIP3    H256636   6.863   2.200   1.002
11741TIP3   OH256637   6.194   2.577   0.167
11741TIP3    H156638   6.137   2.541   0.097
11741TIP3    H256639   6.275   2.597   0.119
11742TIP3   OH256640   7.228   3.791   1.718
11742TIP3    H156641   7.263   3.824   1.634
11742TIP3    H256642   7.303   3.817   1.775
11743TIP3   OH256643   6.006   3.034   1.672
11743TIP3    H156644   6.078   3.058   1.733
11743TIP3    H256645   5.929   3.042   1.732
11744TIP3   OH256646   6.603   2.574   0.949
11744TIP3    H156647   6.666   2.523   0.895
11744TIP3    H256648   6.591   2.519   1.027
11745TIP3   OH256649   6.107   2.189   0.593
11745TIP3    H156650   6.076   2.096   0.591
11745TIP3    H256651   6.185   2.182   0.537
11746TIP3   OH256652   6.469   2.407   1.189
11746TIP3    H156653   6.387   2.459   1.198
11746TIP3    H256654   6.525   2.442   1.261
11747TIP3   OH256655   6.529   3.028   0.361
11747TIP3    H156656   6.449   2.983   0.327
11747TIP3    H256657   6.507   3.041   0.455
11748TIP3   OH256658   7.216   2.952   1.238
11748TIP3    H156659   7.288   2.964   1.173
11748TIP3    H256660   7.140   2.952   1.177
11749TIP3   OH256661   6.912   2.301   0.170
11749TIP3    H156662   6.818   2.320   0.158
11749TIP3    H256663   6.944   2.388   0.203
11750TIP3   OH256664   6.679   3.056   1.483
11750TIP3    H156665   6.643   3.014   1.562
11750TIP3    H256666   6.655   3.149   1.494
11751TIP3   OH256667   6.999   2.505   0.284
11751TIP3    H156668   7.047   2.492   0.369
11751TIP3    H256669   6.987   2.601   0.289
11752TIP3   OH256670   6.040   2.969   0.939
11752TIP3    H156671   6.108   2.961   0.869
11752TIP3    H256672   6.046   2.883   0.984
11753TIP3   OH256673   6.738   3.175   0.266
11753TIP3    H156674   6.704   3.262   0.297
11753TIP3    H256675   6.663   3.114   0.284
11754TIP3   OH256676   5.737   2.810   1.466
11754TIP3    H156677   5.756   2.765   1.550
11754TIP3    H256678   5.676   2.748   1.421
11755TIP3   OH256679   6.440   2.765   1.683
11755TIP3    H156680   6.408   2.734   1.597
11755TIP3    H256681   6.532   2.733   1.683
11756TIP3   OH256682   6.908   3.298   1.478
11756TIP3    H156683   6.816   3.316   1.454
11756TIP3    H256684   6.906   3.328   1.571
11757TIP3   OH256685   7.019   2.878   1.068
11757TIP3    H156686   6.926   2.856   1.052
11757TIP3    H256687   7.067   2.805   1.023
11758TIP3   OH256688   6.276   3.314   0.678
11758TIP3    H156689   6.326   3.395   0.657
11758TIP3    H256690   6.189   3.338   0.644
11759TIP3   OH256691   5.851   2.802   0.129
11759TIP3    H156692   5.913   2.862   0.175
11759TIP3    H256693   5.764   2.827   0.164
11760TIP3   OH256694   6.418   3.081   0.630
11760TIP3    H156695   6.387   3.173   0.638
11760TIP3    H256696   6.346   3.032   0.674
11761TIP3   OH256697   6.463   3.500   1.270
11761TIP3    H156698   6.510   3.580   1.242
11761TIP3    H256699   6.525   3.465   1.338
11762TIP3   OH256700   6.287   3.581   0.581
11762TIP3    H156701   6.190   3.594   0.596
11762TIP3    H256702   6.322   3.664   0.617
11763TIP3   OH256703   6.818   3.099   1.232
11763TIP3    H156704   6.784   3.080   1.322
11763TIP3    H256705   6.880   3.027   1.215
11764TIP3   OH256706   7.048   3.194   0.141
11764TIP3    H156707   7.078   3.160   0.226
11764TIP3    H256708   6.951   3.190   0.151
11765TIP3   OH256709   7.098   3.555   1.479
11765TIP3    H156710   7.026   3.508   1.433
11765TIP3    H256711   7.119   3.627   1.416
11766TIP3   OH256712   5.904   2.283   1.420
11766TIP3    H156713   5.813   2.318   1.418
11766TIP3    H256714   5.893   2.198   1.467
11767TIP3   OH256715   7.129   3.067   0.365
11767TIP3    H156716   7.104   2.989   0.420
11767TIP3    H256717   7.222   3.077   0.391
11768TIP3   OH256718   5.865   3.461   1.263
11768TIP3    H156719   5.896   3.369   1.263
11768TIP3    H256720   5.891   3.490   1.351
11769TIP3   OH256721   6.340   3.270   0.233
11769TIP3    H156722   6.365   3.214   0.308
11769TIP3    H256723   6.349   3.362   0.268
11770TIP3   OH256724   5.991   2.991   0.287
11770TIP3    H156725   5.923   3.033   0.344
11770TIP3    H256726   6.045   3.068   0.259
11771TIP3   OH256727   6.774   2.259   1.318
11771TIP3    H156728   6.849   2.266   1.378
11771TIP3    H256729   6.738   2.171   1.338
11772TIP3   OH256730   6.857   2.216   0.423
11772TIP3    H156731   6.878   2.266   0.343
11772TIP3    H256732   6.911   2.261   0.490
11773TIP3   OH256733   6.620   3.436   0.317
11773TIP3    H156734   6.538   3.486   0.314
11773TIP3    H256735   6.670   3.481   0.245
11774TIP3   OH256736   6.571   2.390   0.506
11774TIP3    H156737   6.649   2.450   0.507
11774TIP3    H256738   6.549   2.381   0.600
11775TIP3   OH256739   6.633   2.495   1.426
11775TIP3    H156740   6.641   2.551   1.506
11775TIP3    H256741   6.698   2.424   1.435
11776TIP3   OH256742   6.657   2.099   0.592
11776TIP3    H156743   6.629   2.162   0.660
11776TIP3    H256744   6.728   2.153   0.550
11777TIP3   OH256745   6.356   3.538   0.310
11777TIP3    H156746   6.375   3.620   0.260
11777TIP3    H256747   6.332   3.572   0.398
11778TIP3   OH256748   6.225   2.208   0.271
11778TIP3    H156749   6.219   2.299   0.305
11778TIP3    H256750   6.316   2.185   0.298
11779TIP3   OH256751   7.235   2.259   1.491
11779TIP3    H156752   7.152   2.312   1.494
11779TIP3    H256753   7.275   2.287   1.409
11780TIP3   OH256754   7.106   2.662   0.920
11780TIP3    H156755   7.028   2.617   0.882
11780TIP3    H256756   7.152   2.588   0.961
11781TIP3   OH256757   6.051   3.255   0.169
11781TIP3    H156758   6.118   3.315   0.203
11781TIP3    H256759   6.103   3.207   0.101
11782TIP3   OH256760   5.889   2.522   0.090
11782TIP3    H156761   5.885   2.618   0.102
11782TIP3    H256762   5.801   2.501   0.056
11783TIP3   OH256763   7.222   3.589   1.077
11783TIP3    H156764   7.206   3.656   1.008
11783TIP3    H256765   7.316   3.598   1.093
11784TIP3   OH256766   5.964   1.999   0.959
11784TIP3    H156767   5.945   2.000   0.863
11784TIP3    H256768   5.923   1.913   0.984
11785TIP3   OH256769   5.860   3.391   0.573
11785TIP3    H156770   5.775   3.435   0.569
11785TIP3    H256771   5.907   3.437   0.503
11786TIP3   OH256772   5.780   3.656   1.702
11786TIP3    H156773   5.841   3.636   1.776
11786TIP3    H256774   5.740   3.569   1.684
11787TIP3   OH256775   6.249   3.548   1.863
11787TIP3    H156776   6.324   3.498   1.896
11787TIP3    H256777   6.246   3.520   1.769
11788TIP3   OH256778   6.632   3.508   0.077
11788TIP3    H156779   6.587   3.427   0.059
11788TIP3    H256780   6.718   3.491   0.024
11789TIP3   OH256781   6.905   3.385   1.737
11789TIP3    H156782   6.870   3.298   1.766
11789TIP3    H256783   6.980   3.395   1.798
11790TIP3   OH256784   7.150   3.473   0.036
11790TIP3    H156785   7.160   3.384   0.071
11790TIP3    H256786   7.210   3.492  -0.035
11791TIP3   OH256787   5.771   3.033   1.802
11791TIP3    H156788   5.788   2.942   1.772
11791TIP3    H256789   5.697   3.059   1.744
11792TIP3   OH256790   6.217   3.074   0.016
11792TIP3    H156791   6.222   2.991   0.064
11792TIP3    H256792   6.273   3.052  -0.061
11793TIP3   OH256793   6.443   3.032   1.740
11793TIP3    H156794   6.410   3.063   1.654
11793TIP3    H256795   6.451   2.934   1.729
11794TIP3   OH256796   7.010   3.014   1.479
11794TIP3    H156797   7.089   3.073   1.474
11794TIP3    H256798   6.943   3.083   1.484
11795TIP3   OH256799   5.864   2.756   1.739
11795TIP3    H156800   5.905   2.669   1.731
11795TIP3    H256801   5.840   2.756   1.834
11796TIP3   OH256802   6.328   2.872   0.244
11796TIP3    H156803   6.278   2.818   0.308
11796TIP3    H256804   6.360   2.804   0.181
11797TIP3   OH256805   6.253   2.650   1.475
11797TIP3    H156806   6.194   2.722   1.501
11797TIP3    H256807   6.293   2.687   1.394
11798TIP3   OH256808   6.437   2.688   0.066
11798TIP3    H156809   6.424   2.678  -0.030
11798TIP3    H256810   6.535   2.697   0.075
11799TIP3   OH256811   6.761   2.908   1.809
11799TIP3    H156812   6.856   2.906   1.797
11799TIP3    H256813   6.745   2.830   1.865
11800TIP3   OH256814   6.294   2.388   1.581
11800TIP3    H156815   6.306   2.317   1.515
11800TIP3    H256816   6.290   2.469   1.526
11801TIP3   OH256817   6.334   2.226   1.336
11801TIP3    H156818   6.385   2.273   1.265
11801TIP3    H256819   6.245   2.218   1.296
11802TIP3   OH256820   6.488   2.775   1.360
11802TIP3    H156821   6.564   2.758   1.303
11802TIP3    H256822   6.452   2.859   1.327
11803TIP3   OH256823   6.933   2.553   1.856
11803TIP3    H156824   6.955   2.459   1.848
11803TIP3    H256825   7.021   2.594   1.856
11804TIP3   OH256826   7.064   2.834   1.674
11804TIP3    H156827   7.035   2.902   1.609
11804TIP3    H256828   7.157   2.823   1.652
11805TIP3   OH256829   6.140   2.513   1.773
11805TIP3    H156830   6.063   2.455   1.756
11805TIP3    H256831   6.206   2.476   1.711
11806TIP3   OH256832   6.414   1.970   1.375
11806TIP3    H156833   6.395   2.066   1.365
11806TIP3    H256834   6.338   1.933   1.325
11807TIP3   OH256835   6.540   2.403   1.738
11807TIP3    H156836   6.511   2.379   1.828
11807TIP3    H256837   6.462   2.382   1.684
11808TIP3   OH256838   6.808   2.319   1.648
11808TIP3    H156839   6.712   2.321   1.660
11808TIP3    H256840   6.840   2.255   1.715
11809TIP3   OH256841   6.979   2.175   1.837
11809TIP3    H156842   6.965   2.079   1.841
11809TIP3    H256843   6.945   2.209   1.923
11810TIP3   OH256844   5.948   2.307   1.748
11810TIP3    H156845   5.973   2.233   1.690
11810TIP3    H256846   5.939   2.262   1.835
11811TIP3   OH256847   6.435   1.909   1.645
11811TIP3    H156848   6.503   1.839   1.643
11811TIP3    H256849   6.424   1.924   1.549
11812TIP3   OH256850   6.470   2.069   1.856
11812TIP3    H156851   6.452   2.020   1.772
11812TIP3    H256852   6.411   2.147   1.847
11813TIP3   OH256853   6.416   3.761   0.171
11813TIP3    H156854   6.514   3.770   0.180
11813TIP3    H256855   6.400   3.825   0.102
11814TIP3   OH256856   5.774   3.221   0.121
11814TIP3    H156857   5.870   3.233   0.141
11814TIP3    H256858   5.780   3.163   0.044
11815TIP3   OH256859   5.651   3.757   0.618
11815TIP3    H156860   5.579   3.709   0.571
11815TIP3    H256861   5.679   3.692   0.684
11816TIP3   OH256862   5.734   3.572   0.806
11816TIP3    H156863   5.699   3.485   0.826
11816TIP3    H256864   5.758   3.605   0.894
11817TIP3   OH256865   7.280   3.377   1.323
11817TIP3    H156866   7.214   3.420   1.379
11817TIP3    H256867   7.227   3.340   1.249
11818TIP3   OH256868   7.232   2.700   0.677
11818TIP3    H156869   7.205   2.608   0.654
11818TIP3    H256870   7.196   2.703   0.767
11819TIP3   OH256871   5.739   2.881   1.053
11819TIP3    H156872   5.760   2.870   0.958
11819TIP3    H256873   5.827   2.861   1.091
11820TIP3   OH256874   7.253   2.406   0.493
11820TIP3    H156875   7.246   2.312   0.489
11820TIP3    H256876   7.303   2.447   0.423
11821TIP3   OH256877  -0.052   2.396   1.044
11821TIP3    H156878   0.034   2.435   1.023
11821TIP3    H256879  -0.076   2.465   1.109
11822TIP3   OH256880   7.277   2.561   1.340
11822TIP3    H156881   7.184   2.587   1.351
11822TIP3    H256882   7.312   2.631   1.283
11823TIP3   OH256883   5.701   2.409   1.671
11823TIP3    H156884   5.795   2.388   1.689
11823TIP3    H256885   5.655   2.327   1.697
11824TIP3   OH256886   7.184   2.123   0.563
11824TIP3    H156887   7.277   2.110   0.585
11824TIP3    H256888   7.183   2.084   0.474
11825TIP3   OH256889   5.821   2.238   0.955
11825TIP3    H156890   5.867   2.155   0.980
11825TIP3    H256891   5.876   2.307   0.993
11826TIP3   OH256892   5.647   2.541   1.056
11826TIP3    H156893   5.705   2.514   0.982
11826TIP3    H256894   5.697   2.618   1.086
11827TIP3   OH256895   5.684   2.165   0.465
11827TIP3    H156896   5.590   2.184   0.449
11827TIP3    H256897   5.728   2.213   0.393
11828TIP3   OH256898   7.141   3.640   0.671
11828TIP3    H156899   7.207   3.608   0.607
11828TIP3    H256900   7.193   3.700   0.726
11829TIP3   OH256901   5.680   2.030   1.294
11829TIP3    H156902   5.614   2.010   1.363
11829TIP3    H256903   5.634   2.097   1.241
11830TIP3   OH256904   5.905   3.349   1.711
11830TIP3    H156905   5.821   3.371   1.668
11830TIP3    H256906   5.878   3.342   1.803
11831TIP3   OH256907   6.195   3.450   1.339
11831TIP3    H156908   6.162   3.537   1.312
11831TIP3    H256909   6.287   3.458   1.309
11832TIP3   OH256910   6.627   3.592   1.629
11832TIP3    H156911   6.640   3.557   1.720
11832TIP3    H256912   6.717   3.623   1.605
11833TIP3   OH256913   6.857   3.719   1.562
11833TIP3    H156914   6.932   3.662   1.537
11833TIP3    H256915   6.896   3.764   1.640
11834TIP3   OH256916   5.937   3.773   1.339
11834TIP3    H156917   5.864   3.824   1.299
11834TIP3    H256918   5.906   3.755   1.428
11835TIP3   OH256919   6.184   3.731   1.246
11835TIP3    H156920   6.095   3.747   1.285
11835TIP3    H256921   6.178   3.790   1.169
11836TIP3   OH256922   6.651   3.721   1.164
11836TIP3    H156923   6.608   3.778   1.098
11836TIP3    H256924   6.667   3.785   1.236
11837TIP3   OH256925   6.883   3.603   1.266
11837TIP3    H156926   6.797   3.630   1.229
11837TIP3    H256927   6.929   3.688   1.259
11838TIP3   OH256928   7.128   3.760   1.287
11838TIP3    H156929   7.127   3.855   1.266
11838TIP3    H256930   7.162   3.723   1.204
11839TIP3   OH256931   5.883   3.639   1.033
11839TIP3    H156932   5.875   3.594   1.120
11839TIP3    H256933   5.965   3.601   0.994
11840TIP3   OH256934   6.090   3.510   0.898
11840TIP3    H156935   6.074   3.416   0.922
11840TIP3    H256936   6.176   3.525   0.944
11841TIP3   OH256937   6.348   3.558   0.986
11841TIP3    H156938   6.366   3.466   0.960
11841TIP3    H256939   6.355   3.553   1.083
11842TIP3   OH256940   6.694   2.123   0.900
11842TIP3    H156941   6.628   2.058   0.928
11842TIP3    H256942   6.751   2.071   0.842
11843TIP3   OH256943   7.211   1.927   0.907
11843TIP3    H156944   7.269   1.990   0.863
11843TIP3    H256945   7.122   1.963   0.886
11844TIP3   OH256946   5.933   1.985   0.686
11844TIP3    H156947   5.854   1.966   0.632
11844TIP3    H256948   5.979   1.899   0.679
11845TIP3   OH256949   5.808   1.961   0.258
11845TIP3    H156950   5.859   2.025   0.204
11845TIP3    H256951   5.754   2.018   0.315
11846TIP3   OH256952   6.380   1.978   0.663
11846TIP3    H156953   6.470   2.014   0.656
11846TIP3    H256954   6.377   1.956   0.756
11847TIP3   OH256955   6.955   1.976   0.826
11847TIP3    H156956   6.948   1.997   0.732
11847TIP3    H256957   6.911   1.888   0.836
11848TIP3   OH256958   7.075   1.974   0.378
11848TIP3    H156959   7.007   2.043   0.378
11848TIP3    H256960   7.027   1.895   0.413
11849TIP3   OH256961   5.803   3.557   0.357
11849TIP3    H156962   5.734   3.556   0.287
11849TIP3    H256963   5.804   3.652   0.375
11850TIP3   OH256964   5.993   2.146   0.112
11850TIP3    H156965   6.049   2.093   0.054
11850TIP3    H256966   6.058   2.189   0.170
11851TIP3   OH256967   6.497   2.179   0.348
11851TIP3    H156968   6.522   2.123   0.424
11851TIP3    H256969   6.502   2.266   0.394
11852TIP3   OH256970   6.688   3.721   0.199
11852TIP3    H156971   6.783   3.716   0.178
11852TIP3    H256972   6.667   3.647   0.135
11853TIP3   OH256973   5.922   2.040   1.630
11853TIP3    H156974   5.883   1.960   1.670
11853TIP3    H256975   6.013   2.036   1.668
11854TIP3   OH256976   6.122   1.978   1.794
11854TIP3    H156977   6.212   1.945   1.773
11854TIP3    H256978   6.085   1.897   1.834
11855TIP3   OH256979   5.988   3.654   0.053
11855TIP3    H156980   5.955   3.681   0.140
11855TIP3    H256981   6.063   3.597   0.074
11856TIP3   OH256982   6.963   1.910   1.809
11856TIP3    H156983   6.972   1.862   1.894
11856TIP3    H256984   7.054   1.907   1.774
11857TIP3   OH256985   7.262   3.500   1.686
11857TIP3    H156986   7.197   3.494   1.613
11857TIP3    H256987   7.264   3.598   1.695
11858TIP3   OH256988   1.185   4.786   0.670
11858TIP3    H156989   1.184   4.884   0.666
11858TIP3    H256990   1.113   4.762   0.611
11859TIP3   OH256991   1.070   4.710   1.020
11859TIP3    H156992   1.069   4.646   1.092
11859TIP3    H256993   1.036   4.659   0.945
11860TIP3   OH256994   0.311   4.677   1.172
11860TIP3    H156995   0.317   4.610   1.243
11860TIP3    H256996   0.381   4.738   1.200
11861TIP3   OH256997   1.441   5.005   0.850
11861TIP3    H156998   1.398   4.934   0.897
11861TIP3    H256999   1.440   5.077   0.916
11862TIP3   OH257000   0.398   5.121   1.027
11862TIP3    H157001   0.367   5.036   0.993
11862TIP3    H257002   0.494   5.105   1.030
11863TIP3   OH257003   0.090   4.479   0.533
11863TIP3    H157004   0.044   4.559   0.569
11863TIP3    H257005   0.011   4.424   0.534
11864TIP3   OH257006   0.130   4.694   0.785
11864TIP3    H157007   0.160   4.619   0.837
11864TIP3    H257008   0.204   4.712   0.725
11865TIP3   OH257009   1.151   5.521   0.873
11865TIP3    H157010   1.216   5.453   0.844
11865TIP3    H257011   1.130   5.488   0.960
11866TIP3   OH257012   0.908   4.951   1.068
11866TIP3    H157013   0.942   4.888   1.002
11866TIP3    H257014   0.989   4.966   1.119
11867TIP3   OH257015   1.768   4.117   1.140
11867TIP3    H157016   1.786   4.176   1.217
11867TIP3    H257017   1.825   4.159   1.074
11868TIP3   OH257018   1.225   4.398   1.099
11868TIP3    H157019   1.242   4.302   1.100
11868TIP3    H257020   1.215   4.412   1.003
11869TIP3   OH257021   0.537   4.207   0.821
11869TIP3    H157022   0.548   4.289   0.771
11869TIP3    H257023   0.498   4.149   0.752
11870TIP3   OH257024   1.310   4.214   0.657
11870TIP3    H157025   1.375   4.183   0.724
11870TIP3    H257026   1.367   4.272   0.603
11871TIP3   OH257027   0.195   4.439   0.888
11871TIP3    H157028   0.268   4.392   0.934
11871TIP3    H257029   0.214   4.411   0.797
11872TIP3   OH257030   0.714   4.603   0.826
11872TIP3    H157031   0.782   4.545   0.865
11872TIP3    H257032   0.663   4.537   0.775
11873TIP3   OH257033   1.812   4.257   1.368
11873TIP3    H157034   1.751   4.334   1.357
11873TIP3    H257035   1.815   4.249   1.464
11874TIP3   OH257036   0.431   4.097   1.224
11874TIP3    H157037   0.400   4.153   1.150
11874TIP3    H257038   0.363   4.119   1.292
11875TIP3   OH257039   1.155   5.044   0.579
11875TIP3    H157040   1.128   5.017   0.490
11875TIP3    H257041   1.125   5.137   0.584
11876TIP3   OH257042   0.681   4.861   1.248
11876TIP3    H157043   0.609   4.924   1.270
11876TIP3    H257044   0.750   4.921   1.219
11877TIP3   OH257045   1.491   4.149   0.857
11877TIP3    H157046   1.469   4.072   0.910
11877TIP3    H257047   1.558   4.193   0.912
11878TIP3   OH257048   0.382   4.280   1.028
11878TIP3    H157049   0.444   4.350   1.060
11878TIP3    H257050   0.437   4.241   0.955
11879TIP3   OH257051   0.522   5.060   1.329
11879TIP3    H157052   0.518   5.152   1.297
11879TIP3    H257053   0.434   5.052   1.373
11880TIP3   OH257054   0.127   5.026   0.407
11880TIP3    H157055   0.110   5.059   0.316
11880TIP3    H257056   0.139   5.107   0.460
11881TIP3   OH257057   1.494   5.190   1.087
11881TIP3    H157058   1.396   5.200   1.097
11881TIP3    H257059   1.517   5.282   1.065
11882TIP3   OH257060   1.524   4.018   1.225
11882TIP3    H157061   1.452   4.081   1.215
11882TIP3    H257062   1.596   4.060   1.172
11883TIP3   OH257063   0.821   3.830   0.970
11883TIP3    H157064   0.808   3.734   0.964
11883TIP3    H257065   0.733   3.860   1.002
11884TIP3   OH257066   1.318   5.368   0.744
11884TIP3    H157067   1.360   5.296   0.693
11884TIP3    H257068   1.362   5.447   0.706
11885TIP3   OH257069   1.439   5.160   0.596
11885TIP3    H157070   1.410   5.091   0.534
11885TIP3    H257071   1.443   5.111   0.680
11886TIP3   OH257072   1.604   5.020   1.446
11886TIP3    H157073   1.613   4.954   1.373
11886TIP3    H257074   1.619   5.105   1.401
11887TIP3   OH257075   1.051   4.709   0.420
11887TIP3    H157076   0.981   4.768   0.382
11887TIP3    H257077   1.121   4.717   0.353
11888TIP3   OH257078   1.051   4.558   0.133
11888TIP3    H157079   1.129   4.565   0.190
11888TIP3    H257080   1.086   4.499   0.067
11889TIP3   OH257081   1.792   4.654   1.251
11889TIP3    H157082   1.721   4.721   1.254
11889TIP3    H257083   1.837   4.672   1.167
11890TIP3   OH257084   1.395   4.730   0.516
11890TIP3    H157085   1.321   4.754   0.576
11890TIP3    H257086   1.443   4.663   0.568
11891TIP3   OH257087   1.389   4.547   1.427
11891TIP3    H157088   1.389   4.628   1.479
11891TIP3    H257089   1.325   4.576   1.357
11892TIP3   OH257090   0.559   4.797   0.706
11892TIP3    H157091   0.523   4.757   0.623
11892TIP3    H257092   0.619   4.727   0.739
11893TIP3   OH257093   0.689   5.134   0.974
11893TIP3    H157094   0.688   5.082   0.893
11893TIP3    H257095   0.767   5.099   1.020
11894TIP3   OH257096   0.593   4.670   1.072
11894TIP3    H157097   0.646   4.681   0.991
11894TIP3    H257098   0.629   4.738   1.133
11895TIP3   OH257099   1.229   5.229   1.142
11895TIP3    H157100   1.202   5.292   1.209
11895TIP3    H257101   1.207   5.142   1.185
11896TIP3   OH257102   0.685   5.113   1.542
11896TIP3    H157103   0.643   5.188   1.590
11896TIP3    H257104   0.618   5.094   1.472
11897TIP3   OH257105   1.284   4.648   0.282
11897TIP3    H157106   1.338   4.668   0.363
11897TIP3    H257107   1.325   4.704   0.213
11898TIP3   OH257108   0.379   4.731   1.460
11898TIP3    H157109   0.383   4.799   1.529
11898TIP3    H257110   0.285   4.739   1.436
11899TIP3   OH257111   1.054   5.322   0.629
11899TIP3    H157112   1.097   5.354   0.709
11899TIP3    H257113   0.999   5.397   0.603
11900TIP3   OH257114   0.510   5.316   1.616
11900TIP3    H157115   0.502   5.308   1.519
11900TIP3    H257116   0.416   5.303   1.643
11901TIP3   OH257117   1.656   3.825   0.272
11901TIP3    H157118   1.560   3.834   0.292
11901TIP3    H257119   1.675   3.909   0.227
11902TIP3   OH257120   0.456   4.698   0.467
11902TIP3    H157121   0.427   4.775   0.414
11902TIP3    H257122   0.390   4.632   0.445
11903TIP3   OH257123   1.763   5.256   0.108
11903TIP3    H157124   1.776   5.352   0.118
11903TIP3    H257125   1.856   5.229   0.101
11904TIP3   OH257126   0.122   4.928   1.332
11904TIP3    H157127   0.045   4.941   1.272
11904TIP3    H257128   0.085   4.849   1.378
11905TIP3   OH257129   0.069   5.239   1.007
11905TIP3    H157130   0.151   5.198   1.036
11905TIP3    H257131   0.040   5.285   1.087
11906TIP3   OH257132   1.861   5.284   1.600
11906TIP3    H157133   1.850   5.188   1.603
11906TIP3    H257134   1.776   5.311   1.643
11907TIP3   OH257135   0.958   5.239   1.490
11907TIP3    H157136   0.964   5.323   1.541
11907TIP3    H257137   0.871   5.203   1.515
11908TIP3   OH257138   1.000   5.613   0.468
11908TIP3    H157139   0.993   5.608   0.371
11908TIP3    H257140   1.006   5.709   0.486
11909TIP3   OH257141   0.365   5.502   0.651
11909TIP3    H157142   0.380   5.461   0.739
11909TIP3    H257143   0.282   5.458   0.626
11910TIP3   OH257144   1.303   5.533   0.166
11910TIP3    H157145   1.353   5.460   0.123
11910TIP3    H257146   1.312   5.509   0.261
11911TIP3   OH257147   1.277   5.528   0.446
11911TIP3    H157148   1.181   5.535   0.464
11911TIP3    H257149   1.301   5.454   0.504
11912TIP3   OH257150   1.577   4.432   1.651
11912TIP3    H157151   1.530   4.477   1.579
11912TIP3    H257152   1.576   4.340   1.620
11913TIP3   OH257153   0.293   5.081   1.458
11913TIP3    H157154   0.311   5.036   1.543
11913TIP3    H257155   0.210   5.036   1.429
11914TIP3   OH257156   0.560   3.921   1.046
11914TIP3    H157157   0.470   3.909   1.009
11914TIP3    H257158   0.546   4.004   1.095
11915TIP3   OH257159   1.024   3.887   1.382
11915TIP3    H157160   1.063   3.844   1.461
11915TIP3    H257161   0.927   3.875   1.397
11916TIP3   OH257162   1.353   4.271   1.473
11916TIP3    H157163   1.296   4.250   1.551
11916TIP3    H257164   1.334   4.364   1.450
11917TIP3   OH257165   1.437   4.762   0.069
11917TIP3    H157166   1.434   4.741  -0.026
11917TIP3    H257167   1.525   4.802   0.077
11918TIP3   OH257168   0.986   4.145   0.116
11918TIP3    H157169   0.957   4.139   0.209
11918TIP3    H257170   0.964   4.056   0.087
11919TIP3   OH257171   0.568   4.418   1.171
11919TIP3    H157172   0.495   4.417   1.236
11919TIP3    H257173   0.566   4.509   1.135
11920TIP3   OH257174   0.567   4.430   0.658
11920TIP3    H157175   0.474   4.405   0.644
11920TIP3    H257176   0.605   4.400   0.573
11921TIP3   OH257177   1.118   4.479   0.531
11921TIP3    H157178   1.077   4.562   0.499
11921TIP3    H257179   1.188   4.464   0.464
11922TIP3   OH257180   1.023   4.500   1.679
11922TIP3    H157181   0.970   4.423   1.710
11922TIP3    H257182   1.107   4.488   1.726
11923TIP3   OH257183   1.221   4.428   0.820
11923TIP3    H157184   1.193   4.485   0.746
11923TIP3    H257185   1.231   4.343   0.773
11924TIP3   OH257186   0.333   4.441   1.340
11924TIP3    H157187   0.335   4.483   1.427
11924TIP3    H257188   0.284   4.360   1.359
11925TIP3   OH257189   0.691   4.212   0.063
11925TIP3    H157190   0.636   4.146   0.110
11925TIP3    H257191   0.635   4.245  -0.008
11926TIP3   OH257192   0.036   4.186   0.719
11926TIP3    H157193   0.069   4.151   0.805
11926TIP3    H257194   0.048   4.110   0.662
11927TIP3   OH257195   0.125   4.241   0.273
11927TIP3    H157196   0.179   4.293   0.211
11927TIP3    H257197   0.052   4.297   0.296
11928TIP3   OH257198   1.141   4.587   1.275
11928TIP3    H157199   1.179   4.518   1.216
11928TIP3    H257200   1.094   4.534   1.342
11929TIP3   OH257201   0.821   4.185   0.758
11929TIP3    H157202   0.728   4.185   0.787
11929TIP3    H257203   0.869   4.168   0.841
11930TIP3   OH257204   0.303   4.339   0.645
11930TIP3    H157205   0.216   4.356   0.605
11930TIP3    H257206   0.327   4.254   0.604
11931TIP3   OH257207   0.665   4.347   0.410
11931TIP3    H157208   0.761   4.356   0.425
11931TIP3    H257209   0.641   4.411   0.340
11932TIP3   OH257210   1.261   4.108   1.082
11932TIP3    H157211   1.193   4.113   1.153
11932TIP3    H257212   1.211   4.083   1.004
11933TIP3   OH257213   0.538   4.461   0.166
11933TIP3    H157214   0.481   4.427   0.097
11933TIP3    H257215   0.620   4.482   0.118
11934TIP3   OH257216   1.582   5.672   1.715
11934TIP3    H157217   1.608   5.711   1.630
11934TIP3    H257218   1.654   5.704   1.771
11935TIP3   OH257219   0.347   4.918   1.673
11935TIP3    H157220   0.421   4.943   1.732
11935TIP3    H257221   0.272   4.929   1.734
11936TIP3   OH257222   0.948   4.460   0.948
11936TIP3    H157223   1.009   4.407   0.894
11936TIP3    H257224   0.935   4.405   1.026
11937TIP3   OH257225   0.449   4.075   0.593
11937TIP3    H157226   0.418   3.983   0.591
11937TIP3    H257227   0.528   4.067   0.538
11938TIP3   OH257228   0.813   4.293   1.189
11938TIP3    H157229   0.731   4.345   1.198
11938TIP3    H257230   0.869   4.328   1.261
11939TIP3   OH257231   0.873   4.913   0.362
11939TIP3    H157232   0.792   4.868   0.328
11939TIP3    H257233   0.850   4.927   0.456
11940TIP3   OH257234   1.591   4.837   1.240
11940TIP3    H157235   1.644   4.883   1.173
11940TIP3    H257236   1.504   4.838   1.195
11941TIP3   OH257237   1.258   4.199   0.177
11941TIP3    H157238   1.163   4.212   0.159
11941TIP3    H257239   1.288   4.284   0.214
11942TIP3   OH257240   1.021   4.942   1.484
11942TIP3    H157241   0.986   4.899   1.562
11942TIP3    H257242   0.995   5.034   1.494
11943TIP3   OH257243   1.328   4.390   0.344
11943TIP3    H157244   1.418   4.375   0.379
11943TIP3    H257245   1.337   4.471   0.291
11944TIP3   OH257246   0.382   4.855   0.938
11944TIP3    H157247   0.450   4.847   0.868
11944TIP3    H257248   0.392   4.771   0.986
11945TIP3   OH257249   1.082   5.061   0.265
11945TIP3    H157250   1.045   5.146   0.298
11945TIP3    H257251   1.008   4.998   0.283
11946TIP3   OH257252   0.079   4.693   1.465
11946TIP3    H157253   0.105   4.649   1.549
11946TIP3    H257254   0.020   4.629   1.423
11947TIP3   OH257255   0.783   4.651   1.683
11947TIP3    H157256   0.751   4.620   1.597
11947TIP3    H257257   0.875   4.619   1.683
11948TIP3   OH257258   1.252   5.185   1.478
11948TIP3    H157259   1.159   5.202   1.455
11948TIP3    H257260   1.248   5.214   1.571
11949TIP3   OH257261   1.819   4.403   0.319
11949TIP3    H157262   1.760   4.371   0.249
11949TIP3    H257263   1.827   4.496   0.291
11950TIP3   OH257264   1.818   4.989   1.597
11950TIP3    H157265   1.727   5.010   1.564
11950TIP3    H257266   1.872   4.984   1.517
11951TIP3   OH257267   1.648   5.288   0.354
11951TIP3    H157268   1.612   5.205   0.389
11951TIP3    H257269   1.678   5.265   0.264
11952TIP3   OH257270   1.369   4.767   1.068
11952TIP3    H157271   1.274   4.746   1.056
11952TIP3    H257272   1.411   4.691   1.023
11953TIP3   OH257273   0.619   5.200   0.679
11953TIP3    H157274   0.670   5.280   0.657
11953TIP3    H257275   0.531   5.224   0.645
11954TIP3   OH257276   0.190   4.682   0.137
11954TIP3    H157277   0.256   4.745   0.172
11954TIP3    H257278   0.106   4.718   0.167
11955TIP3   OH257279   0.762   4.966   0.630
11955TIP3    H157280   0.730   5.058   0.638
11955TIP3    H257281   0.690   4.917   0.674
11956TIP3   OH257282   0.808   5.385   1.270
11956TIP3    H157283   0.853   5.466   1.242
11956TIP3    H257284   0.869   5.351   1.338
11957TIP3   OH257285   0.630   5.466   0.581
11957TIP3    H157286   0.533   5.480   0.596
11957TIP3    H257287   0.666   5.549   0.617
11958TIP3   OH257288   1.159   4.985   1.232
11958TIP3    H157289   1.127   4.966   1.323
11958TIP3    H257290   1.222   4.913   1.215
11959TIP3   OH257291   1.390   5.090   0.146
11959TIP3    H157292   1.420   5.042   0.226
11959TIP3    H257293   1.294   5.073   0.151
11960TIP3   OH257294   1.441   5.443   1.481
11960TIP3    H157295   1.372   5.394   1.433
11960TIP3    H257296   1.459   5.513   1.415
11961TIP3   OH257297   1.842   5.532   0.177
11961TIP3    H157298   1.907   5.593   0.137
11961TIP3    H257299   1.765   5.591   0.191
11962TIP3   OH257300   0.247   4.169   1.417
11962TIP3    H157301   0.158   4.206   1.425
11962TIP3    H257302   0.236   4.085   1.464
11963TIP3   OH257303   1.471   4.954   0.367
11963TIP3    H157304   1.447   4.874   0.418
11963TIP3    H257305   1.566   4.961   0.386
11964TIP3   OH257306   0.225   5.352   1.258
11964TIP3    H157307   0.237   5.256   1.264
11964TIP3    H257308   0.234   5.375   1.351
11965TIP3   OH257309   0.682   5.156   0.233
11965TIP3    H157310   0.708   5.100   0.308
11965TIP3    H257311   0.692   5.247   0.268
11966TIP3   OH257312   0.331   4.877   0.288
11966TIP3    H157313   0.261   4.918   0.343
11966TIP3    H257314   0.384   4.954   0.260
11967TIP3   OH257315   1.120   4.146   1.316
11967TIP3    H157316   1.191   4.152   1.381
11967TIP3    H257317   1.082   4.058   1.337
11968TIP3   OH257318   1.193   4.105   0.425
11968TIP3    H157319   1.220   4.150   0.343
11968TIP3    H257320   1.253   4.146   0.489
11969TIP3   OH257321   0.962   5.320   0.305
11969TIP3    H157322   0.881   5.372   0.315
11969TIP3    H257323   1.017   5.373   0.244
11970TIP3   OH257324   0.917   4.277   0.506
11970TIP3    H157325   0.995   4.336   0.509
11970TIP3    H257326   0.890   4.265   0.599
11971TIP3   OH257327   0.973   4.380   1.426
11971TIP3    H157328   0.980   4.436   1.506
11971TIP3    H257329   1.039   4.311   1.436
11972TIP3   OH257330   1.002   3.983   0.594
11972TIP3    H157331   0.970   4.048   0.659
11972TIP3    H257332   1.072   4.038   0.550
11973TIP3   OH257333   0.699   5.423   0.310
11973TIP3    H157334   0.717   5.506   0.260
11973TIP3    H257335   0.676   5.457   0.398
11974TIP3   OH257336   0.568   4.093   0.269
11974TIP3    H157337   0.561   4.184   0.305
11974TIP3    H257338   0.659   4.071   0.298
11975TIP3   OH257339   1.591   4.167   1.510
11975TIP3    H157340   1.498   4.199   1.498
11975TIP3    H257341   1.621   4.166   1.418
11976TIP3   OH257342   1.452   4.546   0.911
11976TIP3    H157343   1.370   4.501   0.884
11976TIP3    H257344   1.500   4.477   0.963
11977TIP3   OH257345   0.391   5.141   0.169
11977TIP3    H157346   0.457   5.202   0.203
11977TIP3    H257347   0.444   5.093   0.102
11978TIP3   OH257348   0.231   4.407   0.092
11978TIP3    H157349   0.231   4.504   0.103
11978TIP3    H257350   0.146   4.384   0.055
11979TIP3   OH257351   1.559   5.471   1.078
11979TIP3    H157352   1.549   5.539   1.009
11979TIP3    H257353   1.655   5.479   1.096
11980TIP3   OH257354   0.311   3.882   0.958
11980TIP3    H157355   0.289   3.886   0.862
11980TIP3    H257356   0.266   3.800   0.984
11981TIP3   OH257357   0.205   5.277   0.575
11981TIP3    H157358   0.119   5.319   0.571
11981TIP3    H257359   0.252   5.323   0.503
11982TIP3   OH257360   0.154   5.544   1.701
11982TIP3    H157361   0.195   5.521   1.786
11982TIP3    H257362   0.102   5.463   1.685
11983TIP3   OH257363   0.592   5.432   1.862
11983TIP3    H157364   0.668   5.383   1.895
11983TIP3    H257365   0.589   5.405   1.768
11984TIP3   OH257366   1.051   5.394   0.062
11984TIP3    H157367   0.965   5.348   0.060
11984TIP3    H257368   1.096   5.346  -0.007
11985TIP3   OH257369   1.242   5.272   1.738
11985TIP3    H157370   1.211   5.183   1.765
11985TIP3    H257371   1.319   5.284   1.797
11986TIP3   OH257372   1.464   5.363   0.023
11986TIP3    H157373   1.488   5.282   0.071
11986TIP3    H257374   1.542   5.381  -0.031
11987TIP3   OH257375   0.111   4.919   1.801
11987TIP3    H157376   0.133   4.829   1.768
11987TIP3    H257377   0.040   4.946   1.742
11988TIP3   OH257378   0.560   4.960   0.016
11988TIP3    H157379   0.566   4.877   0.064
11988TIP3    H257380   0.616   4.936  -0.060
11989TIP3   OH257381   0.786   4.918   1.740
11989TIP3    H157382   0.753   4.949   1.654
11989TIP3    H257383   0.794   4.820   1.729
11990TIP3   OH257384   1.356   4.904   1.479
11990TIP3    H157385   1.435   4.962   1.473
11990TIP3    H257386   1.286   4.970   1.483
11991TIP3   OH257387   0.200   4.640   1.739
11991TIP3    H157388   0.249   4.556   1.730
11991TIP3    H257389   0.183   4.641   1.834
11992TIP3   OH257390   0.672   4.758   0.245
11992TIP3    H157391   0.622   4.704   0.308
11992TIP3    H257392   0.703   4.690   0.181
11993TIP3   OH257393   0.597   4.535   1.475
11993TIP3    H157394   0.536   4.607   1.501
11993TIP3    H257395   0.636   4.573   1.394
11994TIP3   OH257396   0.779   4.574   0.066
11994TIP3    H157397   0.767   4.563  -0.029
11994TIP3    H257398   0.877   4.582   0.075
11995TIP3   OH257399   1.104   4.793   1.809
11995TIP3    H157400   1.200   4.791   1.796
11995TIP3    H257401   1.087   4.716   1.866
11996TIP3   OH257402   1.693   4.828  16.018
11996TIP3    H157403   1.683   4.776  15.936
11996TIP3    H257404   1.716   4.917  15.990
11997TIP3   OH257405   0.640   4.274   1.581
11997TIP3    H157406   0.649   4.203   1.515
11997TIP3    H257407   0.631   4.355   1.526
11998TIP3   OH257408   0.678   4.112   1.336
11998TIP3    H157409   0.729   4.158   1.266
11998TIP3    H257410   0.589   4.104   1.296
11999TIP3   OH257411   0.831   4.661   1.360
11999TIP3    H157412   0.907   4.644   1.303
11999TIP3    H257413   0.795   4.744   1.327
12000TIP3   OH257414   1.271   4.436   1.856
12000TIP3    H157415   1.295   4.342   1.847
12000TIP3    H257416   1.357   4.480   1.860
12001TIP3   OH257417   1.405   4.715   1.673
12001TIP3    H157418   1.380   4.787   1.611
12001TIP3    H257419   1.501   4.712   1.654
12002TIP3   OH257420   0.481   4.400   1.772
12002TIP3    H157421   0.405   4.340   1.756
12002TIP3    H257422   0.547   4.362   1.711
12003TIP3   OH257423   0.757   3.856   1.374
12003TIP3    H157424   0.738   3.952   1.365
12003TIP3    H257425   0.682   3.819   1.325
12004TIP3   OH257426   0.884   4.288   1.738
12004TIP3    H157427   0.852   4.265   1.827
12004TIP3    H257428   0.806   4.268   1.684
12005TIP3   OH257429   1.156   4.203   1.647
12005TIP3    H157430   1.059   4.208   1.658
12005TIP3    H257431   1.182   4.138   1.716
12006TIP3   OH257432   1.314   4.065   1.837
12006TIP3    H157433   1.309   3.967   1.840
12006TIP3    H257434   1.289   4.094   1.927
12007TIP3   OH257435   0.306   4.190   1.752
12007TIP3    H157436   0.316   4.116   1.688
12007TIP3    H257437   0.285   4.144   1.835
12008TIP3   OH257438   0.778   3.795   1.645
12008TIP3    H157439   0.846   3.724   1.643
12008TIP3    H257440   0.767   3.809   1.549
12009TIP3   OH257441   0.814   3.956   1.857
12009TIP3    H157442   0.797   3.905   1.773
12009TIP3    H257443   0.754   4.032   1.847
12010TIP3   OH257444   0.759   5.646   0.170
12010TIP3    H157445   0.856   5.657   0.180
12010TIP3    H257446   0.743   5.712   0.103
12011TIP3   OH257447   0.124   5.102   0.123
12011TIP3    H157448   0.219   5.117   0.142
12011TIP3    H257449   0.126   5.048   0.044
12012TIP3   OH257450   7.338   5.659   0.601
12012TIP3    H157451   7.247   5.638   0.570
12012TIP3    H257452   7.347   5.596   0.676
12013TIP3   OH257453   0.079   5.461   0.800
12013TIP3    H157454   0.044   5.372   0.823
12013TIP3    H257455   0.104   5.489   0.890
12014TIP3   OH257456   1.833   5.533   1.099
12014TIP3    H157457   1.833   5.554   1.194
12014TIP3    H257458   1.899   5.596   1.068
12015TIP3   OH257459   1.792   5.493   1.389
12015TIP3    H157460   1.739   5.418   1.355
12015TIP3    H257461   1.835   5.452   1.465
12016TIP3   OH257462   1.632   5.068   1.860
12016TIP3    H157463   1.542   5.065   1.896
12016TIP3    H257464   1.669   5.149   1.901
12017TIP3   OH257465   1.767   4.900   0.400
12017TIP3    H157466   1.850   4.942   0.425
12017TIP3    H257467   1.762   4.830   0.469
12018TIP3   OH257468   1.799   4.709   0.591
12018TIP3    H157469   1.724   4.658   0.629
12018TIP3    H257470   1.859   4.721   0.667
12019TIP3   OH257471   1.766   4.974   1.085
12019TIP3    H157472   1.838   4.928   1.038
12019TIP3    H257473   1.771   5.069   1.060
12020TIP3   OH257474   1.632   5.267   1.316
12020TIP3    H157475   1.564   5.303   1.376
12020TIP3    H257476   1.574   5.230   1.246
12021TIP3   OH257477   1.833   4.693   0.228
12021TIP3    H157478   1.769   4.728   0.163
12021TIP3    H257479   1.823   4.762   0.298
12022TIP3   OH257480   1.627   4.415   0.094
12022TIP3    H157481   1.667   4.477   0.032
12022TIP3    H257482   1.644   4.331   0.051
12023TIP3   OH257483   1.584   4.556   0.650
12023TIP3    H157484   1.567   4.461   0.644
12023TIP3    H257485   1.549   4.577   0.739
12024TIP3   OH257486   0.084   4.763   1.047
12024TIP3    H157487   0.104   4.759   0.951
12024TIP3    H257488   0.172   4.752   1.088
12025TIP3   OH257489   1.668   4.752   1.618
12025TIP3    H157490   1.729   4.677   1.631
12025TIP3    H257491   1.728   4.830   1.619
12026TIP3   OH257492   1.818   4.540   1.682
12026TIP3    H157493   1.730   4.500   1.668
12026TIP3    H257494   1.875   4.462   1.675
12027TIP3   OH257495   1.547   4.314   0.495
12027TIP3    H157496   1.577   4.221   0.506
12027TIP3    H257497   1.626   4.354   0.457
12028TIP3   OH257498   1.612   4.369   1.039
12028TIP3    H157499   1.709   4.391   1.037
12028TIP3    H257500   1.594   4.382   1.133
12029TIP3   OH257501   1.619   4.440   1.317
12029TIP3    H157502   1.531   4.469   1.348
12029TIP3    H257503   1.662   4.526   1.295
12030TIP3   OH257504   0.071   4.282   1.668
12030TIP3    H157505   0.160   4.263   1.702
12030TIP3    H257506   0.014   4.213   1.710
12031TIP3   OH257507   1.847   3.847   1.851
12031TIP3    H157508   1.882   3.781   1.789
12031TIP3    H257509   1.857   3.929   1.797
12032TIP3   OH257510   1.616   4.042   0.497
12032TIP3    H157511   1.637   3.999   0.583
12032TIP3    H257512   1.555   3.978   0.454
12033TIP3   OH257513   0.168   4.119   0.951
12033TIP3    H157514   0.214   4.040   0.983
12033TIP3    H257515   0.218   4.190   0.994
12034TIP3   OH257516   0.050   4.499   1.094
12034TIP3    H157517   0.054   4.456   1.006
12034TIP3    H257518   0.058   4.591   1.066
12035TIP3   OH257519   1.798   4.057   1.686
12035TIP3    H157520   1.705   4.084   1.681
12035TIP3    H257521   1.802   4.002   1.606
12036TIP3   OH257522   1.799   4.049   0.156
12036TIP3    H157523   1.838   3.977   0.105
12036TIP3    H257524   1.870   4.113   0.156
12037TIP3   OH257525   0.080   4.049   0.429
12037TIP3    H157526  -0.017   4.062   0.433
12037TIP3    H257527   0.099   4.119   0.364
12038TIP3   OH257528   1.502   5.545   0.661
12038TIP3    H157529   1.570   5.513   0.600
12038TIP3    H257530   1.554   5.594   0.727
12039TIP3   OH257531   7.355   3.912   1.317
12039TIP3    H157532   7.276   3.891   1.369
12039TIP3    H257533   7.307   3.963   1.250
12040TIP3   OH257534   0.244   5.238   1.713
12040TIP3    H157535   0.160   5.255   1.670
12040TIP3    H257536   0.219   5.228   1.804
12041TIP3   OH257537   0.541   5.338   1.342
12041TIP3    H157538   0.501   5.421   1.312
12041TIP3    H257539   0.632   5.347   1.308
12042TIP3   OH257540   0.970   5.478   1.629
12042TIP3    H157541   0.983   5.442   1.720
12042TIP3    H257542   1.060   5.508   1.606
12043TIP3   OH257543   1.199   5.604   1.560
12043TIP3    H157544   1.272   5.546   1.537
12043TIP3    H257545   1.236   5.648   1.640
12044TIP3   OH257546   1.700   3.866   1.472
12044TIP3    H157547   1.618   3.896   1.430
12044TIP3    H257548   1.717   3.784   1.420
12045TIP3   OH257549   0.283   5.660   1.341
12045TIP3    H157550   0.208   5.709   1.302
12045TIP3    H257551   0.249   5.640   1.429
12046TIP3   OH257552   0.528   5.618   1.245
12046TIP3    H157553   0.439   5.631   1.284
12046TIP3    H257554   0.523   5.677   1.168
12047TIP3   OH257555   0.998   5.608   1.163
12047TIP3    H157556   0.951   5.664   1.098
12047TIP3    H257557   1.011   5.671   1.237
12048TIP3   OH257558   1.226   5.489   1.266
12048TIP3    H157559   1.141   5.517   1.229
12048TIP3    H257560   1.275   5.573   1.258
12049TIP3   OH257561   1.486   5.646   1.288
12049TIP3    H157562   1.479   5.742   1.265
12049TIP3    H257563   1.507   5.608   1.201
12050TIP3   OH257564   0.221   5.524   1.032
12050TIP3    H157565   0.220   5.479   1.119
12050TIP3    H257566   0.302   5.487   0.993
12051TIP3   OH257567   0.431   5.396   0.899
12051TIP3    H157568   0.415   5.302   0.922
12051TIP3    H257569   0.517   5.411   0.943
12052TIP3   OH257570   0.691   5.443   0.987
12052TIP3    H157571   0.710   5.351   0.960
12052TIP3    H257572   0.699   5.438   1.083
12053TIP3   OH257573   1.039   4.009   0.900
12053TIP3    H157574   0.972   3.945   0.928
12053TIP3    H257575   1.095   3.955   0.842
12054TIP3   OH257576   1.553   3.813   0.906
12054TIP3    H157577   1.614   3.873   0.856
12054TIP3    H257578   1.465   3.850   0.883
12055TIP3   OH257579   1.720   3.938   0.734
12055TIP3    H157580   1.789   3.881   0.693
12055TIP3    H257581   1.771   4.022   0.745
12056TIP3   OH257582   0.277   3.870   0.688
12056TIP3    H157583   0.199   3.851   0.631
12056TIP3    H257584   0.326   3.786   0.678
12057TIP3   OH257585   0.159   3.843   0.261
12057TIP3    H157586   0.200   3.908   0.202
12057TIP3    H257587   0.097   3.900   0.311
12058TIP3   OH257588   0.723   3.864   0.663
12058TIP3    H157589   0.813   3.900   0.656
12058TIP3    H257590   0.720   3.842   0.756
12059TIP3   OH257591   1.295   3.866   0.826
12059TIP3    H157592   1.290   3.877   0.730
12059TIP3    H257593   1.257   3.775   0.838
12060TIP3   OH257594   1.421   3.868   0.391
12060TIP3    H157595   1.347   3.928   0.376
12060TIP3    H257596   1.377   3.783   0.414
12061TIP3   OH257597   0.146   5.444   0.360
12061TIP3    H157598   0.083   5.442   0.286
12061TIP3    H257599   0.149   5.540   0.372
12062TIP3   OH257600   0.334   4.037   0.113
12062TIP3    H157601   0.387   3.980   0.055
12062TIP3    H257602   0.404   4.073   0.171
12063TIP3   OH257603   0.839   4.064   0.348
12063TIP3    H157604   0.866   4.008   0.423
12063TIP3    H257605   0.846   4.151   0.394
12064TIP3   OH257606   1.029   5.605   0.196
12064TIP3    H157607   1.126   5.601   0.180
12064TIP3    H257608   1.012   5.531   0.133
12065TIP3   OH257609   1.707   5.524   0.462
12065TIP3    H157610   1.681   5.445   0.408
12065TIP3    H257611   1.689   5.597   0.398
12066TIP3   OH257612   0.259   3.928   1.634
12066TIP3    H157613   0.226   3.842   1.668
12066TIP3    H257614   0.352   3.921   1.667
12067TIP3   OH257615   0.465   3.863   1.793
12067TIP3    H157616   0.555   3.829   1.773
12067TIP3    H257617   0.426   3.782   1.833
12068TIP3   OH257618   0.335   5.541   0.052
12068TIP3    H157619   0.300   5.567   0.139
12068TIP3    H257620   0.407   5.482   0.075
12069TIP3   OH257621   1.305   3.792   1.809
12069TIP3    H157622   1.315   3.745   1.894
12069TIP3    H257623   1.397   3.789   1.775
12070TIP3   OH257624   1.627   5.398   1.672
12070TIP3    H157625   1.546   5.384   1.618
12070TIP3    H257626   1.615   5.492   1.694
12071TIP3   OH257627   3.073   4.786   0.669
12071TIP3    H157628   3.071   4.884   0.669
12071TIP3    H257629   3.002   4.758   0.611
12072TIP3   OH257630   2.955   4.711   1.018
12072TIP3    H157631   2.955   4.647   1.091
12072TIP3    H257632   2.921   4.658   0.945
12073TIP3   OH257633   2.188   4.682   1.178
12073TIP3    H157634   2.200   4.609   1.244
12073TIP3    H257635   2.268   4.734   1.197
12074TIP3   OH257636   3.325   5.005   0.847
12074TIP3    H157637   3.284   4.933   0.898
12074TIP3    H257638   3.327   5.075   0.915
12075TIP3   OH257639   2.280   5.120   1.030
12075TIP3    H157640   2.257   5.034   0.990
12075TIP3    H257641   2.377   5.108   1.031
12076TIP3   OH257642   1.948   4.479   0.575
12076TIP3    H157643   1.904   4.566   0.569
12076TIP3    H257644   1.892   4.425   0.518
12077TIP3   OH257645   2.021   4.703   0.794
12077TIP3    H157646   2.047   4.618   0.834
12077TIP3    H257647   2.087   4.711   0.722
12078TIP3   OH257648   3.036   5.521   0.872
12078TIP3    H157649   3.101   5.452   0.844
12078TIP3    H257650   3.015   5.488   0.960
12079TIP3   OH257651   2.794   4.951   1.065
12079TIP3    H157652   2.828   4.886   1.002
12079TIP3    H257653   2.874   4.967   1.118
12080TIP3   OH257654   3.653   4.117   1.140
12080TIP3    H157655   3.671   4.175   1.217
12080TIP3    H257656   3.710   4.159   1.074
12081TIP3   OH257657   3.111   4.398   1.099
12081TIP3    H157658   3.127   4.302   1.100
12081TIP3    H257659   3.100   4.412   1.003
12082TIP3   OH257660   2.422   4.207   0.820
12082TIP3    H157661   2.433   4.290   0.771
12082TIP3    H257662   2.382   4.149   0.752
12083TIP3   OH257663   3.196   4.214   0.657
12083TIP3    H157664   3.261   4.183   0.725
12083TIP3    H257665   3.252   4.271   0.603
12084TIP3   OH257666   2.084   4.448   0.894
12084TIP3    H157667   2.151   4.393   0.939
12084TIP3    H257668   2.095   4.416   0.803
12085TIP3   OH257669   2.604   4.605   0.822
12085TIP3    H157670   2.667   4.545   0.866
12085TIP3    H257671   2.548   4.538   0.777
12086TIP3   OH257672   3.697   4.257   1.368
12086TIP3    H157673   3.637   4.334   1.357
12086TIP3    H257674   3.701   4.249   1.464
12087TIP3   OH257675   2.313   4.097   1.225
12087TIP3    H157676   2.285   4.154   1.150
12087TIP3    H257677   2.245   4.119   1.293
12088TIP3   OH257678   3.028   5.040   0.579
12088TIP3    H157679   3.026   5.025   0.483
12088TIP3    H257680   3.015   5.138   0.585
12089TIP3   OH257681   2.565   4.861   1.248
12089TIP3    H157682   2.494   4.925   1.271
12089TIP3    H257683   2.635   4.921   1.219
12090TIP3   OH257684   3.377   4.149   0.857
12090TIP3    H157685   3.355   4.072   0.910
12090TIP3    H257686   3.444   4.193   0.912
12091TIP3   OH257687   2.270   4.282   1.028
12091TIP3    H157688   2.333   4.351   1.060
12091TIP3    H257689   2.321   4.241   0.954
12092TIP3   OH257690   2.408   5.060   1.329
12092TIP3    H157691   2.406   5.153   1.298
12092TIP3    H257692   2.322   5.054   1.377
12093TIP3   OH257693   2.015   5.022   0.408
12093TIP3    H157694   1.994   5.058   0.320
12093TIP3    H257695   2.023   5.104   0.461
12094TIP3   OH257696   3.378   5.189   1.086
12094TIP3    H157697   3.281   5.201   1.098
12094TIP3    H257698   3.405   5.281   1.065
12095TIP3   OH257699   3.410   4.018   1.224
12095TIP3    H157700   3.338   4.081   1.215
12095TIP3    H257701   3.481   4.059   1.172
12096TIP3   OH257702   2.707   3.830   0.971
12096TIP3    H157703   2.692   3.734   0.964
12096TIP3    H257704   2.619   3.860   1.002
12097TIP3   OH257705   3.202   5.366   0.744
12097TIP3    H157706   3.247   5.295   0.694
12097TIP3    H257707   3.247   5.445   0.707
12098TIP3   OH257708   3.326   5.159   0.595
12098TIP3    H157709   3.296   5.091   0.534
12098TIP3    H257710   3.328   5.112   0.681
12099TIP3   OH257711   3.486   5.020   1.446
12099TIP3    H157712   3.501   4.955   1.374
12099TIP3    H257713   3.507   5.104   1.401
12100TIP3   OH257714   2.936   4.718   0.418
12100TIP3    H157715   2.868   4.752   0.359
12100TIP3    H257716   3.011   4.710   0.354
12101TIP3   OH257717   2.937   4.560   0.135
12101TIP3    H157718   3.017   4.563   0.189
12101TIP3    H257719   2.969   4.501   0.067
12102TIP3   OH257720   3.675   4.651   1.250
12102TIP3    H157721   3.610   4.724   1.254
12102TIP3    H257722   3.725   4.675   1.169
12103TIP3   OH257723   3.285   4.731   0.516
12103TIP3    H157724   3.208   4.755   0.575
12103TIP3    H257725   3.326   4.661   0.570
12104TIP3   OH257726   3.274   4.546   1.427
12104TIP3    H157727   3.275   4.628   1.479
12104TIP3    H257728   3.211   4.576   1.357
12105TIP3   OH257729   2.447   4.797   0.703
12105TIP3    H157730   2.408   4.755   0.622
12105TIP3    H257731   2.502   4.724   0.741
12106TIP3   OH257732   2.574   5.136   0.975
12106TIP3    H157733   2.572   5.082   0.896
12106TIP3    H257734   2.653   5.099   1.021
12107TIP3   OH257735   2.475   4.670   1.072
12107TIP3    H157736   2.530   4.680   0.993
12107TIP3    H257737   2.514   4.737   1.133
12108TIP3   OH257738   3.117   5.228   1.142
12108TIP3    H157739   3.088   5.291   1.209
12108TIP3    H257740   3.091   5.142   1.185
12109TIP3   OH257741   2.570   5.114   1.541
12109TIP3    H157742   2.529   5.187   1.591
12109TIP3    H257743   2.503   5.094   1.472
12110TIP3   OH257744   3.167   4.652   0.284
12110TIP3    H157745   3.224   4.668   0.363
12110TIP3    H257746   3.209   4.703   0.212
12111TIP3   OH257747   2.265   4.732   1.454
12111TIP3    H157748   2.271   4.795   1.529
12111TIP3    H257749   2.170   4.737   1.438
12112TIP3   OH257750   2.937   5.320   0.630
12112TIP3    H157751   2.984   5.353   0.708
12112TIP3    H257752   2.886   5.397   0.603
12113TIP3   OH257753   2.395   5.317   1.616
12113TIP3    H157754   2.389   5.307   1.520
12113TIP3    H257755   2.302   5.304   1.642
12114TIP3   OH257756   3.542   3.825   0.272
12114TIP3    H157757   3.446   3.834   0.292
12114TIP3    H257758   3.561   3.909   0.227
12115TIP3   OH257759   2.342   4.698   0.466
12115TIP3    H157760   2.310   4.776   0.416
12115TIP3    H257761   2.275   4.632   0.445
12116TIP3   OH257762   3.649   5.255   0.111
12116TIP3    H157763   3.662   5.352   0.120
12116TIP3    H257764   3.742   5.229   0.100
12117TIP3   OH257765   1.950   4.940   1.353
12117TIP3    H157766   1.891   4.916   1.280
12117TIP3    H257767   1.959   4.847   1.386
12118TIP3   OH257768   1.928   5.219   1.035
12118TIP3    H157769   2.024   5.219   1.020
12118TIP3    H257770   1.914   5.305   1.080
12119TIP3   OH257771   3.748   5.285   1.604
12119TIP3    H157772   3.736   5.189   1.601
12119TIP3    H257773   3.661   5.310   1.642
12120TIP3   OH257774   2.845   5.239   1.490
12120TIP3    H157775   2.850   5.323   1.541
12120TIP3    H257776   2.758   5.203   1.516
12121TIP3   OH257777   2.887   5.613   0.468
12121TIP3    H157778   2.879   5.609   0.371
12121TIP3    H257779   2.891   5.709   0.486
12122TIP3   OH257780   2.247   5.505   0.653
12122TIP3    H157781   2.268   5.461   0.739
12122TIP3    H257782   2.168   5.454   0.629
12123TIP3   OH257783   3.187   5.532   0.166
12123TIP3    H157784   3.238   5.460   0.122
12123TIP3    H257785   3.198   5.509   0.260
12124TIP3   OH257786   3.161   5.526   0.444
12124TIP3    H157787   3.066   5.535   0.465
12124TIP3    H257788   3.188   5.456   0.504
12125TIP3   OH257789   3.463   4.432   1.651
12125TIP3    H157790   3.415   4.477   1.579
12125TIP3    H257791   3.461   4.340   1.620
12126TIP3   OH257792   2.175   5.072   1.449
12126TIP3    H157793   2.200   5.037   1.537
12126TIP3    H257794   2.088   5.030   1.434
12127TIP3   OH257795   2.445   3.920   1.046
12127TIP3    H157796   2.355   3.907   1.009
12127TIP3    H257797   2.432   4.003   1.095
12128TIP3   OH257798   2.909   3.887   1.382
12128TIP3    H157799   2.949   3.844   1.461
12128TIP3    H257800   2.812   3.875   1.396
12129TIP3   OH257801   3.238   4.272   1.473
12129TIP3    H157802   3.182   4.250   1.551
12129TIP3    H257803   3.220   4.364   1.450
12130TIP3   OH257804   3.325   4.760   0.070
12130TIP3    H157805   3.319   4.741  -0.026
12130TIP3    H257806   3.412   4.803   0.071
12131TIP3   OH257807   2.871   4.146   0.119
12131TIP3    H157808   2.841   4.139   0.211
12131TIP3    H257809   2.850   4.058   0.086
12132TIP3   OH257810   2.455   4.418   1.172
12132TIP3    H157811   2.382   4.417   1.235
12132TIP3    H257812   2.450   4.509   1.134
12133TIP3   OH257813   2.452   4.431   0.658
12133TIP3    H157814   2.358   4.405   0.645
12133TIP3    H257815   2.489   4.400   0.572
12134TIP3   OH257816   3.004   4.481   0.532
12134TIP3    H157817   2.963   4.561   0.497
12134TIP3    H257818   3.072   4.460   0.465
12135TIP3   OH257819   2.909   4.500   1.679
12135TIP3    H157820   2.856   4.423   1.710
12135TIP3    H257821   2.992   4.488   1.726
12136TIP3   OH257822   3.107   4.427   0.821
12136TIP3    H157823   3.080   4.484   0.747
12136TIP3    H257824   3.116   4.343   0.773
12137TIP3   OH257825   2.217   4.442   1.339
12137TIP3    H157826   2.226   4.483   1.427
12137TIP3    H257827   2.173   4.359   1.360
12138TIP3   OH257828   2.575   4.212   0.063
12138TIP3    H157829   2.520   4.146   0.109
12138TIP3    H257830   2.520   4.245  -0.008
12139TIP3   OH257831   1.883   4.153   0.739
12139TIP3    H157832   1.952   4.149   0.808
12139TIP3    H257833   1.928   4.116   0.660
12140TIP3   OH257834   2.011   4.227   0.274
12140TIP3    H157835   2.063   4.286   0.216
12140TIP3    H257836   1.942   4.289   0.305
12141TIP3   OH257837   3.026   4.587   1.275
12141TIP3    H157838   3.064   4.518   1.216
12141TIP3    H257839   2.980   4.534   1.342
12142TIP3   OH257840   2.707   4.185   0.758
12142TIP3    H157841   2.614   4.185   0.787
12142TIP3    H257842   2.755   4.168   0.840
12143TIP3   OH257843   2.188   4.339   0.645
12143TIP3    H157844   2.099   4.355   0.606
12143TIP3    H257845   2.217   4.256   0.604
12144TIP3   OH257846   2.550   4.350   0.412
12144TIP3    H157847   2.647   4.354   0.425
12144TIP3    H257848   2.528   4.409   0.338
12145TIP3   OH257849   3.147   4.108   1.082
12145TIP3    H157850   3.079   4.113   1.153
12145TIP3    H257851   3.096   4.083   1.004
12146TIP3   OH257852   2.422   4.463   0.166
12146TIP3    H157853   2.365   4.427   0.096
12146TIP3    H257854   2.505   4.481   0.118
12147TIP3   OH257855   3.467   5.671   1.715
12147TIP3    H157856   3.494   5.710   1.629
12147TIP3    H257857   3.540   5.702   1.770
12148TIP3   OH257858   2.234   4.920   1.671
12148TIP3    H157859   2.306   4.943   1.732
12148TIP3    H257860   2.157   4.927   1.732
12149TIP3   OH257861   2.835   4.461   0.947
12149TIP3    H157862   2.894   4.406   0.895
12149TIP3    H257863   2.820   4.406   1.026
12150TIP3   OH257864   2.336   4.074   0.593
12150TIP3    H157865   2.304   3.982   0.591
12150TIP3    H257866   2.414   4.067   0.537
12151TIP3   OH257867   2.699   4.293   1.189
12151TIP3    H157868   2.616   4.345   1.198
12151TIP3    H257869   2.754   4.328   1.261
12152TIP3   OH257870   2.738   4.928   0.328
12152TIP3    H157871   2.666   4.866   0.297
12152TIP3    H257872   2.695   4.970   0.403
12153TIP3   OH257873   3.476   4.836   1.239
12153TIP3    H157874   3.533   4.884   1.176
12153TIP3    H257875   3.390   4.840   1.193
12154TIP3   OH257876   3.143   4.199   0.178
12154TIP3    H157877   3.049   4.212   0.159
12154TIP3    H257878   3.174   4.284   0.213
12155TIP3   OH257879   2.907   4.942   1.483
12155TIP3    H157880   2.872   4.899   1.562
12155TIP3    H257881   2.881   5.034   1.494
12156TIP3   OH257882   3.214   4.392   0.344
12156TIP3    H157883   3.304   4.373   0.377
12156TIP3    H257884   3.224   4.471   0.290
12157TIP3   OH257885   2.267   4.856   0.941
12157TIP3    H157886   2.334   4.848   0.870
12157TIP3    H257887   2.276   4.768   0.984
12158TIP3   OH257888   2.970   5.058   0.276
12158TIP3    H157889   2.932   5.147   0.295
12158TIP3    H257890   2.890   5.002   0.273
12159TIP3   OH257891   1.967   4.696   1.465
12159TIP3    H157892   1.985   4.651   1.550
12159TIP3    H257893   1.906   4.633   1.422
12160TIP3   OH257894   2.669   4.651   1.682
12160TIP3    H157895   2.637   4.620   1.597
12160TIP3    H257896   2.761   4.619   1.683
12161TIP3   OH257897   3.137   5.185   1.478
12161TIP3    H157898   3.045   5.202   1.455
12161TIP3    H257899   3.134   5.214   1.571
12162TIP3   OH257900   3.701   4.403   0.322
12162TIP3    H157901   3.648   4.368   0.249
12162TIP3    H257902   3.716   4.493   0.287
12163TIP3   OH257903   3.703   4.989   1.597
12163TIP3    H157904   3.614   5.011   1.561
12163TIP3    H257905   3.757   4.984   1.516
12164TIP3   OH257906   3.530   5.286   0.354
12164TIP3    H157907   3.496   5.203   0.389
12164TIP3    H257908   3.563   5.266   0.264
12165TIP3   OH257909   3.254   4.767   1.067
12165TIP3    H157910   3.160   4.746   1.056
12165TIP3    H257911   3.297   4.691   1.024
12166TIP3   OH257912   2.506   5.198   0.675
12166TIP3    H157913   2.554   5.281   0.659
12166TIP3    H257914   2.417   5.223   0.646
12167TIP3   OH257915   2.080   4.689   0.128
12167TIP3    H157916   2.142   4.747   0.177
12167TIP3    H257917   1.994   4.713   0.167
12168TIP3   OH257918   2.646   4.967   0.627
12168TIP3    H157919   2.614   5.060   0.639
12168TIP3    H257920   2.575   4.919   0.675
12169TIP3   OH257921   2.691   5.386   1.271
12169TIP3    H157922   2.738   5.465   1.242
12169TIP3    H257923   2.753   5.351   1.337
12170TIP3   OH257924   2.515   5.466   0.580
12170TIP3    H157925   2.419   5.480   0.597
12170TIP3    H257926   2.553   5.548   0.617
12171TIP3   OH257927   3.044   4.984   1.232
12171TIP3    H157928   3.012   4.966   1.323
12171TIP3    H257929   3.109   4.914   1.215
12172TIP3   OH257930   3.277   5.088   0.145
12172TIP3    H157931   3.304   5.043   0.226
12172TIP3    H257932   3.181   5.076   0.148
12173TIP3   OH257933   3.327   5.443   1.481
12173TIP3    H157934   3.257   5.394   1.433
12173TIP3    H257935   3.345   5.513   1.415
12174TIP3   OH257936   3.724   5.531   0.171
12174TIP3    H157937   3.793   5.593   0.143
12174TIP3    H257938   3.651   5.592   0.194
12175TIP3   OH257939   2.133   4.168   1.420
12175TIP3    H157940   2.042   4.204   1.418
12175TIP3    H257941   2.122   4.084   1.466
12176TIP3   OH257942   3.360   4.944   0.361
12176TIP3    H157943   3.330   4.877   0.423
12176TIP3    H257944   3.448   4.972   0.393
12177TIP3   OH257945   2.092   5.343   1.264
12177TIP3    H157946   2.132   5.256   1.267
12177TIP3    H257947   2.121   5.380   1.349
12178TIP3   OH257948   2.568   5.158   0.233
12178TIP3    H157949   2.592   5.101   0.306
12178TIP3    H257950   2.577   5.250   0.267
12179TIP3   OH257951   2.220   4.877   0.286
12179TIP3    H157952   2.152   4.918   0.343
12179TIP3    H257953   2.273   4.953   0.258
12180TIP3   OH257954   3.006   4.146   1.316
12180TIP3    H157955   3.077   4.152   1.381
12180TIP3    H257956   2.967   4.058   1.337
12181TIP3   OH257957   3.078   4.105   0.426
12181TIP3    H157958   3.105   4.150   0.343
12181TIP3    H257959   3.139   4.146   0.490
12182TIP3   OH257960   2.846   5.318   0.304
12182TIP3    H157961   2.766   5.372   0.314
12182TIP3    H257962   2.903   5.372   0.245
12183TIP3   OH257963   2.801   4.281   0.506
12183TIP3    H157964   2.882   4.334   0.509
12183TIP3    H257965   2.776   4.265   0.599
12184TIP3   OH257966   2.860   4.381   1.424
12184TIP3    H157967   2.866   4.436   1.505
12184TIP3    H257968   2.925   4.311   1.435
12185TIP3   OH257969   2.888   3.983   0.594
12185TIP3    H157970   2.856   4.048   0.659
12185TIP3    H257971   2.958   4.038   0.550
12186TIP3   OH257972   2.585   5.423   0.310
12186TIP3    H157973   2.603   5.505   0.260
12186TIP3    H257974   2.561   5.457   0.399
12187TIP3   OH257975   2.453   4.093   0.270
12187TIP3    H157976   2.447   4.185   0.305
12187TIP3    H257977   2.544   4.071   0.298
12188TIP3   OH257978   3.476   4.167   1.510
12188TIP3    H157979   3.384   4.199   1.498
12188TIP3    H257980   3.506   4.166   1.418
12189TIP3   OH257981   3.338   4.546   0.911
12189TIP3    H157982   3.255   4.501   0.885
12189TIP3    H257983   3.386   4.477   0.962
12190TIP3   OH257984   2.278   5.140   0.169
12190TIP3    H157985   2.344   5.202   0.203
12190TIP3    H257986   2.333   5.094   0.102
12191TIP3   OH257987   2.119   4.409   0.078
12191TIP3    H157988   2.115   4.503   0.106
12191TIP3    H257989   2.027   4.387   0.061
12192TIP3   OH257990   3.444   5.471   1.078
12192TIP3    H157991   3.436   5.541   1.009
12192TIP3    H257992   3.541   5.478   1.095
12193TIP3   OH257993   2.193   3.884   0.959
12193TIP3    H157994   2.174   3.886   0.863
12193TIP3    H257995   2.152   3.799   0.984
12194TIP3   OH257996   2.091   5.280   0.575
12194TIP3    H157997   2.002   5.319   0.567
12194TIP3    H257998   2.137   5.321   0.501
12195TIP3   OH257999   2.009   5.542   1.701
12195TIP3    H158000   2.069   5.522   1.775
12195TIP3    H258001   1.969   5.455   1.683
12196TIP3   OH258002   2.478   5.433   1.863
12196TIP3    H158003   2.553   5.383   1.896
12196TIP3    H258004   2.475   5.405   1.769
12197TIP3   OH258005   2.937   5.394   0.062
12197TIP3    H158006   2.851   5.348   0.060
12197TIP3    H258007   2.982   5.345  -0.006
12198TIP3   OH258008   3.128   5.272   1.738
12198TIP3    H158009   3.096   5.183   1.765
12198TIP3    H258010   3.204   5.284   1.797
12199TIP3   OH258011   3.350   5.363   0.023
12199TIP3    H158012   3.374   5.282   0.071
12199TIP3    H258013   3.428   5.381  -0.031
12200TIP3   OH258014   2.000   4.919   1.802
12200TIP3    H158015   2.017   4.827   1.771
12200TIP3    H258016   1.926   4.944   1.745
12201TIP3   OH258017   2.449   4.962   0.019
12201TIP3    H158018   2.449   4.877   0.062
12201TIP3    H258019   2.501   4.937  -0.060
12202TIP3   OH258020   2.672   4.917   1.741
12202TIP3    H158021   2.639   4.949   1.654
12202TIP3    H258022   2.679   4.820   1.729
12203TIP3   OH258023   3.242   4.903   1.479
12203TIP3    H158024   3.320   4.962   1.473
12203TIP3    H258025   3.172   4.970   1.483
12204TIP3   OH258026   2.093   4.641   1.739
12204TIP3    H158027   2.134   4.555   1.730
12204TIP3    H258028   2.069   4.642   1.834
12205TIP3   OH258029   2.559   4.755   0.247
12205TIP3    H158030   2.503   4.701   0.306
12205TIP3    H258031   2.586   4.689   0.179
12206TIP3   OH258032   2.482   4.535   1.475
12206TIP3    H158033   2.423   4.607   1.501
12206TIP3    H258034   2.522   4.573   1.394
12207TIP3   OH258035   2.666   4.576   0.067
12207TIP3    H158036   2.652   4.564  -0.028
12207TIP3    H258037   2.764   4.582   0.074
12208TIP3   OH258038   2.990   4.793   1.809
12208TIP3    H158039   3.085   4.791   1.796
12208TIP3    H258040   2.973   4.716   1.866
12209TIP3   OH258041   3.578   4.827  16.021
12209TIP3    H158042   3.571   4.775  15.938
12209TIP3    H258043   3.603   4.915  15.988
12210TIP3   OH258044   2.523   4.274   1.580
12210TIP3    H158045   2.535   4.203   1.514
12210TIP3    H258046   2.518   4.355   1.525
12211TIP3   OH258047   2.563   4.112   1.336
12211TIP3    H158048   2.614   4.158   1.265
12211TIP3    H258049   2.474   4.104   1.296
12212TIP3   OH258050   2.717   4.661   1.360
12212TIP3    H158051   2.793   4.644   1.303
12212TIP3    H258052   2.681   4.744   1.327
12213TIP3   OH258053   3.157   4.436   1.856
12213TIP3    H158054   3.180   4.342   1.847
12213TIP3    H258055   3.243   4.480   1.860
12214TIP3   OH258056   3.291   4.716   1.674
12214TIP3    H158057   3.266   4.787   1.611
12214TIP3    H258058   3.387   4.712   1.654
12215TIP3   OH258059   2.369   4.399   1.772
12215TIP3    H158060   2.292   4.341   1.756
12215TIP3    H258061   2.435   4.361   1.711
12216TIP3   OH258062   2.642   3.855   1.374
12216TIP3    H158063   2.624   3.952   1.365
12216TIP3    H258064   2.567   3.819   1.325
12217TIP3   OH258065   2.770   4.288   1.736
12217TIP3    H158066   2.738   4.266   1.826
12217TIP3    H258067   2.691   4.268   1.683
12218TIP3   OH258068   3.041   4.203   1.647
12218TIP3    H158069   2.945   4.208   1.658
12218TIP3    H258070   3.068   4.139   1.716
12219TIP3   OH258071   3.200   4.065   1.837
12219TIP3    H158072   3.195   3.967   1.840
12219TIP3    H258073   3.175   4.094   1.927
12220TIP3   OH258074   2.177   4.192   1.748
12220TIP3    H158075   2.202   4.119   1.689
12220TIP3    H258076   2.167   4.147   1.834
12221TIP3   OH258077   2.664   3.795   1.646
12221TIP3    H158078   2.731   3.724   1.644
12221TIP3    H258079   2.652   3.809   1.550
12222TIP3   OH258080   2.698   3.955   1.858
12222TIP3    H158081   2.683   3.905   1.774
12222TIP3    H258082   2.641   4.033   1.844
12223TIP3   OH258083   2.645   5.646   0.169
12223TIP3    H158084   2.742   5.657   0.180
12223TIP3    H258085   2.628   5.712   0.103
12224TIP3   OH258086   2.003   5.108   0.121
12224TIP3    H158087   2.099   5.119   0.142
12224TIP3    H258088   2.008   5.050   0.045
12225TIP3   OH258089   1.876   5.638   0.621
12225TIP3    H158090   1.802   5.589   0.576
12225TIP3    H258091   1.901   5.572   0.690
12226TIP3   OH258092   1.963   5.457   0.805
12226TIP3    H158093   1.926   5.370   0.825
12226TIP3    H258094   1.985   5.490   0.894
12227TIP3   OH258095   3.719   5.531   1.100
12227TIP3    H158096   3.719   5.555   1.193
12227TIP3    H258097   3.781   5.598   1.064
12228TIP3   OH258098   3.672   5.495   1.396
12228TIP3    H158099   3.626   5.418   1.355
12228TIP3    H258100   3.723   5.449   1.465
12229TIP3   OH258101   3.518   5.068   1.860
12229TIP3    H158102   3.427   5.065   1.896
12229TIP3    H258103   3.555   5.149   1.901
12230TIP3   OH258104   3.660   4.923   0.417
12230TIP3    H158105   3.752   4.957   0.424
12230TIP3    H258106   3.665   4.858   0.489
12231TIP3   OH258107   3.680   4.713   0.589
12231TIP3    H158108   3.612   4.657   0.634
12231TIP3    H258109   3.745   4.723   0.663
12232TIP3   OH258110   3.661   4.978   1.090
12232TIP3    H158111   3.743   4.940   1.053
12232TIP3    H258112   3.676   5.074   1.073
12233TIP3   OH258113   3.517   5.269   1.316
12233TIP3    H158114   3.448   5.303   1.376
12233TIP3    H258115   3.462   5.228   1.246
12234TIP3   OH258116   3.707   4.691   0.236
12234TIP3    H158117   3.662   4.726   0.156
12234TIP3    H258118   3.732   4.771   0.285
12235TIP3   OH258119   3.509   4.418   0.095
12235TIP3    H158120   3.554   4.475   0.030
12235TIP3    H258121   3.529   4.334   0.050
12236TIP3   OH258122   3.467   4.558   0.646
12236TIP3    H158123   3.453   4.461   0.644
12236TIP3    H258124   3.435   4.577   0.737
12237TIP3   OH258125   1.970   4.779   1.054
12237TIP3    H158126   1.984   4.755   0.959
12237TIP3    H258127   2.055   4.743   1.089
12238TIP3   OH258128   3.554   4.753   1.617
12238TIP3    H158129   3.614   4.677   1.631
12238TIP3    H258130   3.614   4.830   1.618
12239TIP3   OH258131   3.704   4.541   1.683
12239TIP3    H158132   3.615   4.501   1.667
12239TIP3    H258133   3.761   4.462   1.675
12240TIP3   OH258134   3.434   4.316   0.494
12240TIP3    H158135   3.461   4.222   0.506
12240TIP3    H258136   3.514   4.352   0.456
12241TIP3   OH258137   3.498   4.369   1.039
12241TIP3    H158138   3.594   4.392   1.037
12241TIP3    H258139   3.479   4.383   1.133
12242TIP3   OH258140   3.505   4.441   1.318
12242TIP3    H158141   3.416   4.470   1.348
12242TIP3    H258142   3.548   4.527   1.295
12243TIP3   OH258143   1.930   4.295   1.671
12243TIP3    H158144   2.024   4.273   1.689
12243TIP3    H258145   1.884   4.212   1.697
12244TIP3   OH258146   3.732   3.847   1.851
12244TIP3    H158147   3.767   3.781   1.789
12244TIP3    H258148   3.742   3.929   1.797
12245TIP3   OH258149   3.501   4.042   0.497
12245TIP3    H158150   3.523   3.999   0.583
12245TIP3    H258151   3.440   3.978   0.454
12246TIP3   OH258152   2.050   4.123   0.955
12246TIP3    H158153   2.096   4.041   0.980
12246TIP3    H258154   2.105   4.192   0.994
12247TIP3   OH258155   1.878   4.422   1.057
12247TIP3    H158156   1.935   4.398   0.982
12247TIP3    H258157   1.925   4.502   1.085
12248TIP3   OH258158   3.684   4.057   1.686
12248TIP3    H158159   3.591   4.084   1.680
12248TIP3    H258160   3.687   4.002   1.606
12249TIP3   OH258161   3.685   4.049   0.155
12249TIP3    H158162   3.724   3.978   0.103
12249TIP3    H258163   3.756   4.114   0.154
12250TIP3   OH258164   1.913   4.050   0.466
12250TIP3    H158165   1.819   4.068   0.451
12250TIP3    H258166   1.956   4.099   0.393
12251TIP3   OH258167   3.387   5.543   0.662
12251TIP3    H158168   3.457   5.516   0.599
12251TIP3    H258169   3.439   5.596   0.725
12252TIP3   OH258170   1.909   3.915   1.295
12252TIP3    H158171   1.843   3.896   1.363
12252TIP3    H258172   1.864   3.982   1.241
12253TIP3   OH258173   2.134   5.234   1.712
12253TIP3    H158174   2.050   5.258   1.668
12253TIP3    H258175   2.107   5.227   1.804
12254TIP3   OH258176   2.421   5.334   1.336
12254TIP3    H158177   2.391   5.424   1.313
12254TIP3    H258178   2.515   5.343   1.309
12255TIP3   OH258179   2.855   5.478   1.630
12255TIP3    H158180   2.870   5.443   1.721
12255TIP3    H258181   2.946   5.508   1.605
12256TIP3   OH258182   3.084   5.605   1.561
12256TIP3    H158183   3.157   5.546   1.537
12256TIP3    H258184   3.122   5.648   1.640
12257TIP3   OH258185   3.586   3.866   1.472
12257TIP3    H158186   3.503   3.896   1.430
12257TIP3    H258187   3.603   3.784   1.420
12258TIP3   OH258188   2.166   5.659   1.339
12258TIP3    H158189   2.092   5.709   1.299
12258TIP3    H258190   2.135   5.640   1.428
12259TIP3   OH258191   2.412   5.617   1.245
12259TIP3    H158192   2.323   5.633   1.285
12259TIP3    H258193   2.407   5.676   1.169
12260TIP3   OH258194   2.883   5.608   1.164
12260TIP3    H158195   2.837   5.664   1.099
12260TIP3    H258196   2.897   5.672   1.237
12261TIP3   OH258197   3.112   5.489   1.266
12261TIP3    H158198   3.027   5.517   1.229
12261TIP3    H258199   3.161   5.573   1.257
12262TIP3   OH258200   3.368   5.646   1.289
12262TIP3    H158201   3.365   5.743   1.267
12262TIP3    H258202   3.393   5.610   1.201
12263TIP3   OH258203   2.110   5.521   1.030
12263TIP3    H158204   2.104   5.482   1.119
12263TIP3    H258205   2.195   5.487   0.995
12264TIP3   OH258206   2.318   5.395   0.900
12264TIP3    H158207   2.303   5.301   0.921
12264TIP3    H258208   2.404   5.411   0.944
12265TIP3   OH258209   2.580   5.443   0.986
12265TIP3    H158210   2.596   5.350   0.960
12265TIP3    H258211   2.584   5.438   1.082
12266TIP3   OH258212   2.925   4.009   0.899
12266TIP3    H158213   2.858   3.945   0.928
12266TIP3    H258214   2.980   3.955   0.842
12267TIP3   OH258215   3.439   3.813   0.906
12267TIP3    H158216   3.500   3.873   0.856
12267TIP3    H258217   3.350   3.850   0.883
12268TIP3   OH258218   3.606   3.939   0.734
12268TIP3    H158219   3.674   3.881   0.693
12268TIP3    H258220   3.656   4.022   0.745
12269TIP3   OH258221   2.162   3.871   0.685
12269TIP3    H158222   2.083   3.852   0.632
12269TIP3    H258223   2.208   3.785   0.679
12270TIP3   OH258224   2.037   3.847   0.258
12270TIP3    H158225   2.088   3.911   0.204
12270TIP3    H258226   1.982   3.904   0.315
12271TIP3   OH258227   2.609   3.864   0.664
12271TIP3    H158228   2.699   3.900   0.656
12271TIP3    H258229   2.606   3.842   0.756
12272TIP3   OH258230   3.181   3.866   0.826
12272TIP3    H158231   3.176   3.877   0.730
12272TIP3    H258232   3.143   3.775   0.838
12273TIP3   OH258233   3.307   3.868   0.391
12273TIP3    H158234   3.233   3.929   0.376
12273TIP3    H258235   3.263   3.783   0.414
12274TIP3   OH258236   2.030   5.442   0.359
12274TIP3    H158237   1.964   5.438   0.287
12274TIP3    H258238   2.033   5.536   0.369
12275TIP3   OH258239   2.222   4.032   0.110
12275TIP3    H158240   2.279   3.978   0.055
12275TIP3    H258241   2.286   4.074   0.170
12276TIP3   OH258242   2.723   4.063   0.351
12276TIP3    H158243   2.751   4.008   0.425
12276TIP3    H258244   2.731   4.151   0.395
12277TIP3   OH258245   2.914   5.605   0.196
12277TIP3    H158246   3.011   5.601   0.180
12277TIP3    H258247   2.897   5.531   0.133
12278TIP3   OH258248   3.586   5.522   0.463
12278TIP3    H158249   3.567   5.444   0.405
12278TIP3    H258250   3.578   5.596   0.399
12279TIP3   OH258251   2.151   3.925   1.629
12279TIP3    H158252   2.112   3.846   1.670
12279TIP3    H258253   2.241   3.921   1.667
12280TIP3   OH258254   2.351   3.865   1.798
12280TIP3    H158255   2.439   3.831   1.773
12280TIP3    H258256   2.313   3.783   1.834
12281TIP3   OH258257   2.217   5.540   0.054
12281TIP3    H158258   2.186   5.566   0.141
12281TIP3    H258259   2.291   5.483   0.072
12282TIP3   OH258260   3.190   3.793   1.810
12282TIP3    H158261   3.200   3.745   1.895
12282TIP3    H258262   3.282   3.789   1.775
12283TIP3   OH258263   3.512   5.397   1.672
12283TIP3    H158264   3.432   5.384   1.618
12283TIP3    H258265   3.500   5.492   1.694
12284TIP3   OH258266   4.955   4.785   0.671
12284TIP3    H158267   4.955   4.883   0.667
12284TIP3    H258268   4.884   4.763   0.609
12285TIP3   OH258269   4.842   4.711   1.021
12285TIP3    H158270   4.841   4.646   1.092
12285TIP3    H258271   4.808   4.660   0.946
12286TIP3   OH258272   4.077   4.678   1.176
12286TIP3    H158273   4.085   4.610   1.245
12286TIP3    H258274   4.152   4.736   1.198
12287TIP3   OH258275   5.210   5.006   0.849
12287TIP3    H158276   5.169   4.934   0.898
12287TIP3    H258277   5.213   5.076   0.916
12288TIP3   OH258278   4.170   5.123   1.026
12288TIP3    H158279   4.138   5.036   0.994
12288TIP3    H258280   4.265   5.105   1.030
12289TIP3   OH258281   3.834   4.479   0.574
12289TIP3    H158282   3.792   4.566   0.571
12289TIP3    H258283   3.777   4.423   0.519
12290TIP3   OH258284   3.903   4.700   0.786
12290TIP3    H158285   3.932   4.620   0.834
12290TIP3    H258286   3.977   4.713   0.724
12291TIP3   OH258287   4.923   5.521   0.872
12291TIP3    H158288   4.988   5.453   0.843
12291TIP3    H258289   4.901   5.487   0.959
12292TIP3   OH258290   4.679   4.950   1.068
12292TIP3    H158291   4.713   4.888   1.002
12292TIP3    H258292   4.761   4.966   1.119
12293TIP3   OH258293   5.539   4.117   1.140
12293TIP3    H158294   5.557   4.176   1.217
12293TIP3    H258295   5.596   4.159   1.074
12294TIP3   OH258296   4.996   4.398   1.099
12294TIP3    H158297   5.013   4.302   1.100
12294TIP3    H258298   4.986   4.412   1.003
12295TIP3   OH258299   4.309   4.206   0.820
12295TIP3    H158300   4.315   4.290   0.772
12295TIP3    H258301   4.266   4.148   0.753
12296TIP3   OH258302   5.082   4.214   0.657
12296TIP3    H158303   5.147   4.183   0.724
12296TIP3    H258304   5.138   4.272   0.603
12297TIP3   OH258305   3.970   4.448   0.894
12297TIP3    H158306   4.037   4.393   0.939
12297TIP3    H258307   3.979   4.416   0.803
12298TIP3   OH258308   4.491   4.601   0.817
12298TIP3    H158309   4.552   4.545   0.870
12298TIP3    H258310   4.429   4.534   0.784
12299TIP3   OH258311   5.583   4.257   1.368
12299TIP3    H158312   5.523   4.334   1.357
12299TIP3    H258313   5.586   4.249   1.464
12300TIP3   OH258314   4.199   4.096   1.225
12300TIP3    H158315   4.170   4.154   1.150
12300TIP3    H258316   4.131   4.119   1.293
12301TIP3   OH258317   4.927   5.044   0.579
12301TIP3    H158318   4.901   5.018   0.489
12301TIP3    H258319   4.897   5.137   0.584
12302TIP3   OH258320   4.449   4.860   1.248
12302TIP3    H158321   4.379   4.925   1.271
12302TIP3    H258322   4.520   4.920   1.219
12303TIP3   OH258323   5.262   4.149   0.857
12303TIP3    H158324   5.240   4.072   0.910
12303TIP3    H258325   5.330   4.193   0.912
12304TIP3   OH258326   4.155   4.282   1.028
12304TIP3    H158327   4.218   4.351   1.059
12304TIP3    H258328   4.207   4.240   0.956
12305TIP3   OH258329   4.295   5.061   1.330
12305TIP3    H158330   4.290   5.153   1.297
12305TIP3    H258331   4.206   5.053   1.375
12306TIP3   OH258332   3.902   5.022   0.408
12306TIP3    H158333   3.882   5.059   0.320
12306TIP3    H258334   3.911   5.105   0.461
12307TIP3   OH258335   5.263   5.189   1.086
12307TIP3    H158336   5.167   5.201   1.098
12307TIP3    H258337   5.290   5.281   1.065
12308TIP3   OH258338   5.296   4.018   1.225
12308TIP3    H158339   5.223   4.081   1.215
12308TIP3    H258340   5.367   4.060   1.172
12309TIP3   OH258341   4.592   3.830   0.971
12309TIP3    H158342   4.578   3.734   0.964
12309TIP3    H258343   4.504   3.860   1.002
12310TIP3   OH258344   5.089   5.367   0.744
12310TIP3    H158345   5.132   5.296   0.693
12310TIP3    H258346   5.134   5.446   0.707
12311TIP3   OH258347   5.211   5.160   0.596
12311TIP3    H158348   5.181   5.091   0.534
12311TIP3    H258349   5.213   5.110   0.680
12312TIP3   OH258350   5.372   5.020   1.446
12312TIP3    H158351   5.387   4.955   1.374
12312TIP3    H258352   5.393   5.104   1.401
12313TIP3   OH258353   4.819   4.707   0.418
12313TIP3    H158354   4.755   4.772   0.381
12313TIP3    H258355   4.894   4.719   0.356
12314TIP3   OH258356   4.822   4.557   0.134
12314TIP3    H158357   4.902   4.566   0.189
12314TIP3    H258358   4.857   4.500   0.066
12315TIP3   OH258359   5.561   4.651   1.250
12315TIP3    H158360   5.495   4.724   1.254
12315TIP3    H258361   5.610   4.675   1.169
12316TIP3   OH258362   5.166   4.730   0.516
12316TIP3    H158363   5.092   4.754   0.577
12316TIP3    H258364   5.214   4.663   0.568
12317TIP3   OH258365   5.160   4.546   1.427
12317TIP3    H158366   5.161   4.628   1.479
12317TIP3    H258367   5.097   4.576   1.358
12318TIP3   OH258368   4.327   4.795   0.705
12318TIP3    H158369   4.294   4.758   0.620
12318TIP3    H258370   4.389   4.727   0.741
12319TIP3   OH258371   4.460   5.134   0.974
12319TIP3    H158372   4.460   5.082   0.893
12319TIP3    H258373   4.538   5.099   1.020
12320TIP3   OH258374   4.361   4.670   1.070
12320TIP3    H158375   4.417   4.683   0.992
12320TIP3    H258376   4.399   4.736   1.133
12321TIP3   OH258377   5.003   5.228   1.143
12321TIP3    H158378   4.974   5.291   1.209
12321TIP3    H258379   4.977   5.143   1.185
12322TIP3   OH258380   4.456   5.114   1.542
12322TIP3    H158381   4.415   5.188   1.591
12322TIP3    H258382   4.389   5.094   1.472
12323TIP3   OH258383   5.055   4.648   0.282
12323TIP3    H158384   5.109   4.668   0.362
12323TIP3    H258385   5.096   4.704   0.213
12324TIP3   OH258386   4.150   4.730   1.457
12324TIP3    H158387   4.156   4.796   1.528
12324TIP3    H258388   4.056   4.738   1.436
12325TIP3   OH258389   4.825   5.322   0.629
12325TIP3    H158390   4.869   5.354   0.709
12325TIP3    H258391   4.770   5.397   0.603
12326TIP3   OH258392   4.281   5.317   1.616
12326TIP3    H158393   4.275   5.307   1.520
12326TIP3    H258394   4.188   5.304   1.643
12327TIP3   OH258395   5.428   3.825   0.272
12327TIP3    H158396   5.332   3.834   0.292
12327TIP3    H258397   5.447   3.909   0.227
12328TIP3   OH258398   4.229   4.694   0.465
12328TIP3    H158399   4.198   4.775   0.417
12328TIP3    H258400   4.157   4.633   0.444
12329TIP3   OH258401   5.534   5.256   0.105
12329TIP3    H158402   5.547   5.352   0.118
12329TIP3    H258403   5.628   5.230   0.102
12330TIP3   OH258404   3.833   4.941   1.358
12330TIP3    H158405   3.789   4.933   1.271
12330TIP3    H258406   3.842   4.846   1.379
12331TIP3   OH258407   3.810   5.215   1.035
12331TIP3    H158408   3.906   5.203   1.033
12331TIP3    H258409   3.802   5.298   1.084
12332TIP3   OH258410   5.634   5.285   1.604
12332TIP3    H158411   5.622   5.189   1.601
12332TIP3    H258412   5.547   5.310   1.642
12333TIP3   OH258413   4.730   5.239   1.490
12333TIP3    H158414   4.735   5.323   1.541
12333TIP3    H258415   4.642   5.203   1.515
12334TIP3   OH258416   4.772   5.613   0.468
12334TIP3    H158417   4.765   5.608   0.371
12334TIP3    H258418   4.777   5.709   0.486
12335TIP3   OH258419   4.138   5.501   0.651
12335TIP3    H158420   4.152   5.460   0.739
12335TIP3    H258421   4.051   5.462   0.629
12336TIP3   OH258422   5.073   5.533   0.167
12336TIP3    H158423   5.124   5.460   0.123
12336TIP3    H258424   5.088   5.511   0.261
12337TIP3   OH258425   5.048   5.529   0.445
12337TIP3    H158426   4.952   5.535   0.464
12337TIP3    H258427   5.074   5.455   0.503
12338TIP3   OH258428   5.349   4.432   1.651
12338TIP3    H158429   5.301   4.477   1.579
12338TIP3    H258430   5.347   4.340   1.620
12339TIP3   OH258431   4.063   5.073   1.451
12339TIP3    H158432   4.085   5.036   1.539
12339TIP3    H258433   3.976   5.033   1.430
12340TIP3   OH258434   4.331   3.921   1.046
12340TIP3    H158435   4.240   3.907   1.009
12340TIP3    H258436   4.317   4.003   1.095
12341TIP3   OH258437   4.795   3.887   1.382
12341TIP3    H158438   4.834   3.844   1.461
12341TIP3    H258439   4.698   3.875   1.397
12342TIP3   OH258440   5.124   4.271   1.473
12342TIP3    H158441   5.067   4.250   1.551
12342TIP3    H258442   5.105   4.364   1.450
12343TIP3   OH258443   5.208   4.763   0.068
12343TIP3    H158444   5.207   4.740  -0.026
12343TIP3    H258445   5.297   4.801   0.077
12344TIP3   OH258446   4.756   4.147   0.118
12344TIP3    H158447   4.728   4.138   0.210
12344TIP3    H258448   4.735   4.058   0.087
12345TIP3   OH258449   4.341   4.418   1.172
12345TIP3    H158450   4.267   4.417   1.235
12345TIP3    H258451   4.336   4.508   1.134
12346TIP3   OH258452   4.332   4.428   0.655
12346TIP3    H158453   4.235   4.405   0.653
12346TIP3    H258454   4.358   4.379   0.577
12347TIP3   OH258455   4.885   4.477   0.529
12347TIP3    H158456   4.852   4.564   0.498
12347TIP3    H258457   4.958   4.463   0.467
12348TIP3   OH258458   4.794   4.500   1.679
12348TIP3    H158459   4.742   4.423   1.710
12348TIP3    H258460   4.878   4.488   1.726
12349TIP3   OH258461   4.989   4.428   0.820
12349TIP3    H158462   4.966   4.485   0.746
12349TIP3    H258463   5.003   4.343   0.773
12350TIP3   OH258464   4.103   4.442   1.339
12350TIP3    H158465   4.111   4.483   1.427
12350TIP3    H258466   4.059   4.359   1.360
12351TIP3   OH258467   4.461   4.213   0.066
12351TIP3    H158468   4.406   4.145   0.108
12351TIP3    H258469   4.407   4.245  -0.008
12352TIP3   OH258470   3.769   4.154   0.739
12352TIP3    H158471   3.837   4.149   0.809
12352TIP3    H258472   3.813   4.116   0.660
12353TIP3   OH258473   3.897   4.227   0.274
12353TIP3    H158474   3.948   4.286   0.216
12353TIP3    H258475   3.827   4.288   0.304
12354TIP3   OH258476   4.912   4.587   1.275
12354TIP3    H158477   4.950   4.518   1.216
12354TIP3    H258478   4.865   4.534   1.342
12355TIP3   OH258479   4.591   4.191   0.758
12355TIP3    H158480   4.498   4.182   0.790
12355TIP3    H258481   4.641   4.167   0.838
12356TIP3   OH258482   4.075   4.340   0.642
12356TIP3    H158483   3.984   4.355   0.607
12356TIP3    H258484   4.097   4.252   0.606
12357TIP3   OH258485   4.434   4.333   0.395
12357TIP3    H158486   4.532   4.332   0.403
12357TIP3    H258487   4.410   4.398   0.324
12358TIP3   OH258488   5.033   4.108   1.082
12358TIP3    H158489   4.964   4.113   1.153
12358TIP3    H258490   4.982   4.083   1.004
12359TIP3   OH258491   4.310   4.462   0.169
12359TIP3    H158492   4.251   4.427   0.099
12359TIP3    H258493   4.389   4.482   0.116
12360TIP3   OH258494   5.353   5.672   1.715
12360TIP3    H158495   5.379   5.711   1.630
12360TIP3    H258496   5.425   5.704   1.771
12361TIP3   OH258497   4.120   4.919   1.672
12361TIP3    H158498   4.192   4.944   1.733
12361TIP3    H258499   4.043   4.927   1.732
12362TIP3   OH258500   4.717   4.458   0.945
12362TIP3    H158501   4.783   4.407   0.898
12362TIP3    H258502   4.706   4.407   1.027
12363TIP3   OH258503   4.223   4.076   0.593
12363TIP3    H158504   4.189   3.984   0.592
12363TIP3    H258505   4.300   4.065   0.537
12364TIP3   OH258506   4.584   4.293   1.189
12364TIP3    H158507   4.502   4.345   1.198
12364TIP3    H258508   4.640   4.328   1.261
12365TIP3   OH258509   4.644   4.910   0.363
12365TIP3    H158510   4.563   4.870   0.326
12365TIP3    H258511   4.620   4.929   0.456
12366TIP3   OH258512   5.362   4.835   1.239
12366TIP3    H158513   5.418   4.884   1.176
12366TIP3    H258514   5.276   4.840   1.193
12367TIP3   OH258515   5.029   4.199   0.177
12367TIP3    H158516   4.934   4.212   0.159
12367TIP3    H258517   5.060   4.284   0.214
12368TIP3   OH258518   4.792   4.942   1.483
12368TIP3    H158519   4.758   4.899   1.562
12368TIP3    H258520   4.767   5.034   1.494
12369TIP3   OH258521   5.099   4.390   0.344
12369TIP3    H158522   5.190   4.375   0.378
12369TIP3    H258523   5.108   4.471   0.291
12370TIP3   OH258524   4.153   4.855   0.939
12370TIP3    H158525   4.221   4.848   0.870
12370TIP3    H258526   4.160   4.769   0.985
12371TIP3   OH258527   4.853   5.061   0.265
12371TIP3    H158528   4.816   5.146   0.298
12371TIP3    H258529   4.779   4.999   0.283
12372TIP3   OH258530   3.853   4.695   1.465
12372TIP3    H158531   3.870   4.650   1.550
12372TIP3    H258532   3.791   4.634   1.421
12373TIP3   OH258533   4.554   4.651   1.683
12373TIP3    H158534   4.522   4.620   1.597
12373TIP3    H258535   4.647   4.619   1.683
12374TIP3   OH258536   5.023   5.185   1.478
12374TIP3    H158537   4.931   5.202   1.455
12374TIP3    H258538   5.020   5.214   1.571
12375TIP3   OH258539   5.590   4.402   0.320
12375TIP3    H158540   5.531   4.371   0.249
12375TIP3    H258541   5.599   4.496   0.291
12376TIP3   OH258542   5.588   4.989   1.597
12376TIP3    H158543   5.499   5.011   1.561
12376TIP3    H258544   5.643   4.984   1.516
12377TIP3   OH258545   5.420   5.275   0.350
12377TIP3    H158546   5.380   5.196   0.386
12377TIP3    H258547   5.448   5.259   0.259
12378TIP3   OH258548   5.140   4.767   1.067
12378TIP3    H158549   5.046   4.746   1.056
12378TIP3    H258550   5.183   4.691   1.024
12379TIP3   OH258551   4.391   5.200   0.678
12379TIP3    H158552   4.441   5.280   0.657
12379TIP3    H258553   4.303   5.223   0.644
12380TIP3   OH258554   3.965   4.686   0.132
12380TIP3    H158555   4.028   4.747   0.174
12380TIP3    H258556   3.879   4.715   0.162
12381TIP3   OH258557   4.533   4.966   0.629
12381TIP3    H158558   4.503   5.059   0.637
12381TIP3    H258559   4.460   4.920   0.675
12382TIP3   OH258560   4.578   5.385   1.271
12382TIP3    H158561   4.624   5.466   1.242
12382TIP3    H258562   4.640   5.351   1.338
12383TIP3   OH258563   4.401   5.466   0.581
12383TIP3    H158564   4.305   5.480   0.596
12383TIP3    H258565   4.437   5.549   0.617
12384TIP3   OH258566   4.930   4.984   1.232
12384TIP3    H158567   4.898   4.966   1.323
12384TIP3    H258568   4.994   4.914   1.215
12385TIP3   OH258569   5.160   5.088   0.144
12385TIP3    H158570   5.191   5.044   0.226
12385TIP3    H258571   5.064   5.072   0.152
12386TIP3   OH258572   5.212   5.443   1.481
12386TIP3    H158573   5.143   5.394   1.433
12386TIP3    H258574   5.230   5.513   1.415
12387TIP3   OH258575   5.602   5.528   0.151
12387TIP3    H158576   5.677   5.589   0.147
12387TIP3    H258577   5.538   5.588   0.197
12388TIP3   OH258578   4.018   4.168   1.420
12388TIP3    H158579   3.927   4.204   1.418
12388TIP3    H258580   4.007   4.084   1.466
12389TIP3   OH258581   5.243   4.951   0.365
12389TIP3    H158582   5.218   4.873   0.419
12389TIP3    H258583   5.337   4.961   0.387
12390TIP3   OH258584   3.979   5.347   1.263
12390TIP3    H158585   4.010   5.255   1.263
12390TIP3    H258586   4.006   5.376   1.351
12391TIP3   OH258587   4.454   5.156   0.233
12391TIP3    H158588   4.480   5.100   0.308
12391TIP3    H258589   4.463   5.247   0.268
12392TIP3   OH258590   4.103   4.877   0.287
12392TIP3    H158591   4.038   4.921   0.345
12392TIP3    H258592   4.159   4.952   0.259
12393TIP3   OH258593   4.891   4.146   1.316
12393TIP3    H158594   4.963   4.152   1.381
12393TIP3    H258595   4.853   4.058   1.337
12394TIP3   OH258596   4.964   4.106   0.425
12394TIP3    H158597   4.991   4.150   0.343
12394TIP3    H258598   5.024   4.147   0.489
12395TIP3   OH258599   4.733   5.320   0.305
12395TIP3    H158600   4.652   5.372   0.315
12395TIP3    H258601   4.789   5.373   0.245
12396TIP3   OH258602   4.675   4.296   0.510
12396TIP3    H158603   4.767   4.331   0.507
12396TIP3    H258604   4.666   4.258   0.599
12397TIP3   OH258605   4.744   4.380   1.426
12397TIP3    H158606   4.752   4.436   1.506
12397TIP3    H258607   4.810   4.311   1.436
12398TIP3   OH258608   4.772   3.985   0.592
12398TIP3    H158609   4.744   4.046   0.661
12398TIP3    H258610   4.845   4.037   0.550
12399TIP3   OH258611   4.470   5.423   0.310
12399TIP3    H158612   4.488   5.506   0.260
12399TIP3    H258613   4.446   5.457   0.399
12400TIP3   OH258614   4.338   4.093   0.271
12400TIP3    H158615   4.333   4.185   0.304
12400TIP3    H258616   4.430   4.070   0.296
12401TIP3   OH258617   5.362   4.167   1.510
12401TIP3    H158618   5.269   4.199   1.498
12401TIP3    H258619   5.392   4.166   1.418
12402TIP3   OH258620   5.223   4.546   0.911
12402TIP3    H158621   5.141   4.501   0.884
12402TIP3    H258622   5.272   4.477   0.963
12403TIP3   OH258623   4.163   5.139   0.169
12403TIP3    H158624   4.230   5.200   0.203
12403TIP3    H258625   4.217   5.093   0.101
12404TIP3   OH258626   4.003   4.407   0.090
12404TIP3    H158627   4.002   4.503   0.101
12404TIP3    H258628   3.916   4.387   0.056
12405TIP3   OH258629   5.329   5.472   1.079
12405TIP3    H158630   5.321   5.540   1.009
12405TIP3    H258631   5.426   5.477   1.096
12406TIP3   OH258632   4.079   3.884   0.959
12406TIP3    H158633   4.059   3.886   0.863
12406TIP3    H258634   4.037   3.799   0.984
12407TIP3   OH258635   3.974   5.276   0.573
12407TIP3    H158636   3.889   5.321   0.569
12407TIP3    H258637   4.022   5.324   0.503
12408TIP3   OH258638   3.894   5.542   1.702
12408TIP3    H158639   3.955   5.521   1.776
12408TIP3    H258640   3.855   5.455   1.684
12409TIP3   OH258641   4.363   5.433   1.863
12409TIP3    H158642   4.438   5.384   1.896
12409TIP3    H258643   4.360   5.406   1.769
12410TIP3   OH258644   4.823   5.394   0.062
12410TIP3    H158645   4.736   5.348   0.060
12410TIP3    H258646   4.868   5.346  -0.007
12411TIP3   OH258647   5.013   5.272   1.738
12411TIP3    H158648   4.982   5.183   1.765
12411TIP3    H258649   5.090   5.284   1.797
12412TIP3   OH258650   5.235   5.363   0.023
12412TIP3    H158651   5.259   5.282   0.072
12412TIP3    H258652   5.313   5.381  -0.030
12413TIP3   OH258653   3.886   4.919   1.802
12413TIP3    H158654   3.902   4.827   1.771
12413TIP3    H258655   3.812   4.944   1.744
12414TIP3   OH258656   4.331   4.960   0.016
12414TIP3    H158657   4.337   4.877   0.064
12414TIP3    H258658   4.387   4.937  -0.061
12415TIP3   OH258659   4.558   4.917   1.740
12415TIP3    H158660   4.524   4.949   1.654
12415TIP3    H258661   4.565   4.820   1.729
12416TIP3   OH258662   5.127   4.903   1.479
12416TIP3    H158663   5.206   4.962   1.473
12416TIP3    H258664   5.057   4.970   1.483
12417TIP3   OH258665   3.978   4.641   1.740
12417TIP3    H158666   4.020   4.555   1.730
12417TIP3    H258667   3.955   4.642   1.834
12418TIP3   OH258668   4.445   4.757   0.245
12418TIP3    H158669   4.389   4.705   0.305
12418TIP3    H258670   4.474   4.691   0.178
12419TIP3   OH258671   4.368   4.536   1.475
12419TIP3    H158672   4.308   4.608   1.501
12419TIP3    H258673   4.408   4.572   1.394
12420TIP3   OH258674   4.551   4.573   0.067
12420TIP3    H158675   4.538   4.564  -0.029
12420TIP3    H258676   4.649   4.582   0.074
12421TIP3   OH258677   4.875   4.793   1.809
12421TIP3    H158678   4.971   4.791   1.796
12421TIP3    H258679   4.858   4.716   1.866
12422TIP3   OH258680   5.462   4.827  16.017
12422TIP3    H158681   5.460   4.774  15.936
12422TIP3    H258682   5.490   4.915  15.991
12423TIP3   OH258683   4.408   4.273   1.581
12423TIP3    H158684   4.420   4.203   1.515
12423TIP3    H258685   4.404   4.354   1.526
12424TIP3   OH258686   4.449   4.112   1.336
12424TIP3    H158687   4.500   4.158   1.265
12424TIP3    H258688   4.360   4.104   1.295
12425TIP3   OH258689   4.603   4.661   1.360
12425TIP3    H158690   4.678   4.644   1.303
12425TIP3    H258691   4.566   4.744   1.327
12426TIP3   OH258692   5.042   4.436   1.856
12426TIP3    H158693   5.066   4.342   1.847
12426TIP3    H258694   5.129   4.480   1.860
12427TIP3   OH258695   5.177   4.715   1.673
12427TIP3    H158696   5.151   4.787   1.611
12427TIP3    H258697   5.272   4.712   1.654
12428TIP3   OH258698   4.255   4.398   1.773
12428TIP3    H158699   4.178   4.341   1.756
12428TIP3    H258700   4.320   4.362   1.711
12429TIP3   OH258701   4.528   3.855   1.375
12429TIP3    H158702   4.509   3.952   1.365
12429TIP3    H258703   4.453   3.819   1.325
12430TIP3   OH258704   4.655   4.288   1.738
12430TIP3    H158705   4.623   4.265   1.827
12430TIP3    H258706   4.577   4.268   1.684
12431TIP3   OH258707   4.927   4.203   1.647
12431TIP3    H158708   4.830   4.208   1.658
12431TIP3    H258709   4.953   4.139   1.716
12432TIP3   OH258710   5.085   4.065   1.837
12432TIP3    H158711   5.080   3.967   1.840
12432TIP3    H258712   5.060   4.094   1.927
12433TIP3   OH258713   4.062   4.192   1.748
12433TIP3    H158714   4.087   4.119   1.690
12433TIP3    H258715   4.054   4.147   1.835
12434TIP3   OH258716   4.549   3.795   1.645
12434TIP3    H158717   4.617   3.724   1.643
12434TIP3    H258718   4.538   3.809   1.549
12435TIP3   OH258719   4.585   3.956   1.857
12435TIP3    H158720   4.568   3.905   1.773
12435TIP3    H258721   4.525   4.032   1.847
12436TIP3   OH258722   4.530   5.646   0.169
12436TIP3    H158723   4.628   5.657   0.180
12436TIP3    H258724   4.514   5.712   0.103
12437TIP3   OH258725   3.888   5.101   0.123
12437TIP3    H158726   3.983   5.118   0.142
12437TIP3    H258727   3.896   5.050   0.042
12438TIP3   OH258728   3.771   5.639   0.612
12438TIP3    H158729   3.694   5.595   0.572
12438TIP3    H258730   3.793   5.580   0.687
12439TIP3   OH258731   3.850   5.456   0.804
12439TIP3    H158732   3.811   5.370   0.825
12439TIP3    H258733   3.869   5.491   0.893
12440TIP3   OH258734   5.602   5.536   1.098
12440TIP3    H158735   5.605   5.553   1.194
12440TIP3    H258736   5.672   5.595   1.067
12441TIP3   OH258737   5.559   5.496   1.392
12441TIP3    H158738   5.512   5.419   1.354
12441TIP3    H258739   5.608   5.451   1.464
12442TIP3   OH258740   5.403   5.068   1.860
12442TIP3    H158741   5.313   5.065   1.897
12442TIP3    H258742   5.441   5.149   1.901
12443TIP3   OH258743   5.537   4.901   0.402
12443TIP3    H158744   5.620   4.944   0.425
12443TIP3    H258745   5.533   4.830   0.470
12444TIP3   OH258746   5.571   4.709   0.591
12444TIP3    H158747   5.496   4.658   0.629
12444TIP3    H258748   5.630   4.722   0.668
12445TIP3   OH258749   5.547   4.978   1.090
12445TIP3    H158750   5.628   4.940   1.052
12445TIP3    H258751   5.561   5.073   1.073
12446TIP3   OH258752   5.403   5.268   1.317
12446TIP3    H158753   5.334   5.303   1.376
12446TIP3    H258754   5.348   5.228   1.246
12447TIP3   OH258755   5.602   4.693   0.231
12447TIP3    H158756   5.541   4.728   0.163
12447TIP3    H258757   5.593   4.763   0.299
12448TIP3   OH258758   5.394   4.416   0.094
12448TIP3    H158759   5.440   4.476   0.032
12448TIP3    H258760   5.418   4.333   0.050
12449TIP3   OH258761   5.352   4.556   0.648
12449TIP3    H158762   5.338   4.461   0.644
12449TIP3    H258763   5.321   4.577   0.738
12450TIP3   OH258764   3.854   4.764   1.054
12450TIP3    H158765   3.871   4.757   0.958
12450TIP3    H258766   3.943   4.747   1.090
12451TIP3   OH258767   5.439   4.753   1.618
12451TIP3    H158768   5.500   4.677   1.631
12451TIP3    H258769   5.500   4.830   1.618
12452TIP3   OH258770   5.589   4.541   1.683
12452TIP3    H158771   5.501   4.501   1.667
12452TIP3    H258772   5.646   4.462   1.675
12453TIP3   OH258773   5.319   4.314   0.495
12453TIP3    H158774   5.349   4.221   0.506
12453TIP3    H258775   5.398   4.355   0.457
12454TIP3   OH258776   5.384   4.369   1.039
12454TIP3    H158777   5.480   4.392   1.037
12454TIP3    H258778   5.365   4.383   1.133
12455TIP3   OH258779   5.390   4.441   1.317
12455TIP3    H158780   5.302   4.470   1.348
12455TIP3    H258781   5.434   4.527   1.295
12456TIP3   OH258782   3.816   4.295   1.671
12456TIP3    H158783   3.909   4.273   1.689
12456TIP3    H258784   3.770   4.212   1.697
12457TIP3   OH258785   5.618   3.847   1.851
12457TIP3    H158786   5.653   3.781   1.789
12457TIP3    H258787   5.628   3.929   1.797
12458TIP3   OH258788   5.387   4.042   0.497
12458TIP3    H158789   5.408   3.999   0.583
12458TIP3    H258790   5.326   3.978   0.454
12459TIP3   OH258791   3.935   4.124   0.955
12459TIP3    H158792   3.981   4.041   0.980
12459TIP3    H258793   3.990   4.192   0.995
12460TIP3   OH258794   3.764   4.424   1.058
12460TIP3    H158795   3.820   4.399   0.982
12460TIP3    H258796   3.810   4.504   1.085
12461TIP3   OH258797   5.570   4.057   1.686
12461TIP3    H158798   5.476   4.084   1.681
12461TIP3    H258799   5.573   4.002   1.607
12462TIP3   OH258800   5.570   4.049   0.155
12462TIP3    H158801   5.609   3.978   0.103
12462TIP3    H258802   5.641   4.114   0.154
12463TIP3   OH258803   3.798   4.051   0.465
12463TIP3    H158804   3.705   4.069   0.449
12463TIP3    H258805   3.842   4.099   0.393
12464TIP3   OH258806   5.269   5.545   0.670
12464TIP3    H158807   5.334   5.516   0.600
12464TIP3    H258808   5.328   5.597   0.726
12465TIP3   OH258809   3.795   3.915   1.295
12465TIP3    H158810   3.728   3.896   1.363
12465TIP3    H258811   3.749   3.982   1.241
12466TIP3   OH258812   4.019   5.234   1.711
12466TIP3    H158813   3.936   5.257   1.667
12466TIP3    H258814   3.992   5.227   1.803
12467TIP3   OH258815   4.309   5.336   1.340
12467TIP3    H158816   4.276   5.422   1.312
12467TIP3    H258817   4.402   5.344   1.309
12468TIP3   OH258818   4.741   5.478   1.630
12468TIP3    H158819   4.755   5.443   1.721
12468TIP3    H258820   4.831   5.508   1.605
12469TIP3   OH258821   4.970   5.605   1.561
12469TIP3    H158822   5.043   5.546   1.537
12469TIP3    H258823   5.007   5.649   1.640
12470TIP3   OH258824   5.472   3.866   1.471
12470TIP3    H158825   5.389   3.896   1.430
12470TIP3    H258826   5.488   3.784   1.420
12471TIP3   OH258827   4.052   5.660   1.340
12471TIP3    H158828   3.979   5.709   1.298
12471TIP3    H258829   4.020   5.640   1.429
12472TIP3   OH258830   4.298   5.617   1.246
12472TIP3    H158831   4.209   5.631   1.286
12472TIP3    H258832   4.293   5.676   1.169
12473TIP3   OH258833   4.769   5.608   1.163
12473TIP3    H158834   4.723   5.664   1.098
12473TIP3    H258835   4.782   5.671   1.237
12474TIP3   OH258836   4.998   5.489   1.266
12474TIP3    H158837   4.912   5.517   1.229
12474TIP3    H258838   5.046   5.573   1.257
12475TIP3   OH258839   5.256   5.646   1.288
12475TIP3    H158840   5.251   5.742   1.265
12475TIP3    H258841   5.277   5.609   1.201
12476TIP3   OH258842   3.996   5.524   1.033
12476TIP3    H158843   3.988   5.479   1.119
12476TIP3    H258844   4.078   5.488   0.994
12477TIP3   OH258845   4.205   5.395   0.898
12477TIP3    H158846   4.188   5.302   0.922
12477TIP3    H258847   4.290   5.411   0.944
12478TIP3   OH258848   4.466   5.444   0.986
12478TIP3    H158849   4.481   5.351   0.960
12478TIP3    H258850   4.470   5.438   1.083
12479TIP3   OH258851   4.810   4.009   0.899
12479TIP3    H158852   4.743   3.945   0.928
12479TIP3    H258853   4.866   3.955   0.842
12480TIP3   OH258854   5.324   3.813   0.906
12480TIP3    H158855   5.385   3.873   0.856
12480TIP3    H258856   5.236   3.850   0.883
12481TIP3   OH258857   5.491   3.938   0.734
12481TIP3    H158858   5.560   3.881   0.693
12481TIP3    H258859   5.542   4.022   0.745
12482TIP3   OH258860   4.047   3.871   0.687
12482TIP3    H158861   3.968   3.852   0.632
12482TIP3    H258862   4.093   3.785   0.679
12483TIP3   OH258863   3.923   3.847   0.258
12483TIP3    H158864   3.973   3.911   0.204
12483TIP3    H258865   3.868   3.904   0.315
12484TIP3   OH258866   4.495   3.864   0.664
12484TIP3    H158867   4.585   3.899   0.656
12484TIP3    H258868   4.491   3.842   0.757
12485TIP3   OH258869   5.066   3.866   0.826
12485TIP3    H158870   5.063   3.876   0.730
12485TIP3    H258871   5.028   3.776   0.839
12486TIP3   OH258872   5.193   3.868   0.391
12486TIP3    H158873   5.119   3.929   0.376
12486TIP3    H258874   5.149   3.783   0.414
12487TIP3   OH258875   3.920   5.444   0.356
12487TIP3    H158876   3.849   5.442   0.288
12487TIP3    H258877   3.918   5.538   0.375
12488TIP3   OH258878   4.108   4.032   0.112
12488TIP3    H158879   4.163   3.979   0.054
12488TIP3    H258880   4.174   4.074   0.171
12489TIP3   OH258881   4.611   4.065   0.349
12489TIP3    H158882   4.637   4.007   0.423
12489TIP3    H258883   4.617   4.151   0.395
12490TIP3   OH258884   4.801   5.605   0.196
12490TIP3    H158885   4.897   5.601   0.180
12490TIP3    H258886   4.783   5.531   0.133
12491TIP3   OH258887   5.419   5.502   0.470
12491TIP3    H158888   5.446   5.434   0.406
12491TIP3    H258889   5.458   5.581   0.425
12492TIP3   OH258890   4.036   3.926   1.630
12492TIP3    H158891   3.997   3.846   1.670
12492TIP3    H258892   4.127   3.921   1.668
12493TIP3   OH258893   4.236   3.864   1.794
12493TIP3    H158894   4.326   3.830   1.772
12493TIP3    H258895   4.199   3.783   1.834
12494TIP3   OH258896   4.103   5.540   0.053
12494TIP3    H158897   4.070   5.567   0.140
12494TIP3    H258898   4.176   5.483   0.074
12495TIP3   OH258899   5.076   3.792   1.809
12495TIP3    H158900   5.086   3.745   1.894
12495TIP3    H258901   5.168   3.789   1.775
12496TIP3   OH258902   5.398   5.398   1.672
12496TIP3    H158903   5.317   5.384   1.618
12496TIP3    H258904   5.386   5.492   1.694
12497TIP3   OH258905   6.842   4.784   0.671
12497TIP3    H158906   6.842   4.882   0.667
12497TIP3    H258907   6.769   4.762   0.611
12498TIP3   OH258908   6.728   4.711   1.019
12498TIP3    H158909   6.726   4.646   1.092
12498TIP3    H258910   6.694   4.659   0.944
12499TIP3   OH258911   5.963   4.678   1.176
12499TIP3    H158912   5.971   4.610   1.245
12499TIP3    H258913   6.038   4.735   1.198
12500TIP3   OH258914   7.098   5.003   0.850
12500TIP3    H158915   7.056   4.932   0.899
12500TIP3    H258916   7.099   5.075   0.915
12501TIP3   OH258917   6.055   5.123   1.026
12501TIP3    H158918   6.024   5.036   0.994
12501TIP3    H258919   6.151   5.105   1.030
12502TIP3   OH258920   5.719   4.479   0.575
12502TIP3    H158921   5.676   4.566   0.569
12502TIP3    H258922   5.663   4.425   0.518
12503TIP3   OH258923   5.790   4.701   0.790
12503TIP3    H158924   5.818   4.619   0.835
12503TIP3    H258925   5.860   4.712   0.723
12504TIP3   OH258926   6.809   5.522   0.872
12504TIP3    H158927   6.873   5.451   0.844
12504TIP3    H258928   6.785   5.488   0.958
12505TIP3   OH258929   6.566   4.950   1.068
12505TIP3    H158930   6.599   4.888   1.002
12505TIP3    H258931   6.647   4.966   1.119
12506TIP3   OH258932   6.883   4.398   1.099
12506TIP3    H158933   6.899   4.302   1.098
12506TIP3    H258934   6.873   4.413   1.003
12507TIP3   OH258935   6.193   4.207   0.821
12507TIP3    H158936   6.204   4.290   0.771
12507TIP3    H258937   6.153   4.149   0.752
12508TIP3   OH258938   6.970   4.219   0.659
12508TIP3    H158939   7.034   4.183   0.725
12508TIP3    H258940   7.029   4.271   0.604
12509TIP3   OH258941   5.856   4.448   0.894
12509TIP3    H158942   5.923   4.393   0.939
12509TIP3    H258943   5.866   4.416   0.803
12510TIP3   OH258944   6.371   4.603   0.826
12510TIP3    H158945   6.439   4.545   0.865
12510TIP3    H258946   6.320   4.538   0.775
12511TIP3   OH258947   6.084   4.096   1.225
12511TIP3    H158948   6.056   4.154   1.150
12511TIP3    H258949   6.016   4.119   1.293
12512TIP3   OH258950   6.811   5.043   0.578
12512TIP3    H158951   6.786   5.017   0.488
12512TIP3    H258952   6.782   5.136   0.584
12513TIP3   OH258953   6.335   4.861   1.248
12513TIP3    H158954   6.265   4.925   1.270
12513TIP3    H258955   6.406   4.921   1.219
12514TIP3   OH258956   7.118   4.146   0.869
12514TIP3    H158957   7.121   4.064   0.918
12514TIP3    H258958   7.195   4.193   0.909
12515TIP3   OH258959   6.041   4.282   1.028
12515TIP3    H158960   6.104   4.351   1.059
12515TIP3    H258961   6.093   4.241   0.954
12516TIP3   OH258962   6.180   5.061   1.331
12516TIP3    H158963   6.175   5.153   1.297
12516TIP3    H258964   6.092   5.053   1.375
12517TIP3   OH258965   5.784   5.025   0.410
12517TIP3    H158966   5.765   5.057   0.320
12517TIP3    H258967   5.794   5.108   0.461
12518TIP3   OH258968   7.129   5.182   1.095
12518TIP3    H158969   7.033   5.203   1.099
12518TIP3    H258970   7.167   5.266   1.065
12519TIP3   OH258971   7.161   4.031   1.200
12519TIP3    H158972   7.092   4.099   1.211
12519TIP3    H258973   7.238   4.080   1.167
12520TIP3   OH258974   6.478   3.830   0.971
12520TIP3    H158975   6.464   3.733   0.964
12520TIP3    H258976   6.390   3.860   1.002
12521TIP3   OH258977   6.967   5.360   0.746
12521TIP3    H158978   7.016   5.293   0.696
12521TIP3    H258979   7.012   5.441   0.712
12522TIP3   OH258980   7.095   5.159   0.596
12522TIP3    H158981   7.070   5.088   0.535
12522TIP3    H258982   7.101   5.109   0.680
12523TIP3   OH258983   7.232   5.034   1.458
12523TIP3    H158984   7.260   4.964   1.395
12523TIP3    H258985   7.273   5.110   1.412
12524TIP3   OH258986   6.706   4.709   0.419
12524TIP3    H158987   6.638   4.768   0.382
12524TIP3    H258988   6.778   4.717   0.353
12525TIP3   OH258989   6.710   4.558   0.133
12525TIP3    H158990   6.787   4.564   0.190
12525TIP3    H258991   6.744   4.499   0.066
12526TIP3   OH258992   7.049   4.731   0.511
12526TIP3    H158993   6.977   4.756   0.574
12526TIP3    H258994   7.098   4.667   0.568
12527TIP3   OH258995   7.047   4.548   1.424
12527TIP3    H158996   7.042   4.628   1.479
12527TIP3    H258997   6.983   4.575   1.355
12528TIP3   OH258998   6.213   4.796   0.706
12528TIP3    H158999   6.181   4.757   0.621
12528TIP3    H259000   6.275   4.727   0.739
12529TIP3   OH259001   6.345   5.134   0.974
12529TIP3    H159002   6.345   5.082   0.893
12529TIP3    H259003   6.424   5.099   1.020
12530TIP3   OH259004   6.246   4.670   1.072
12530TIP3    H159005   6.301   4.680   0.992
12530TIP3    H259006   6.285   4.737   1.133
12531TIP3   OH259007   6.880   5.229   1.141
12531TIP3    H159008   6.861   5.292   1.211
12531TIP3    H259009   6.863   5.143   1.184
12532TIP3   OH259010   6.342   5.114   1.542
12532TIP3    H159011   6.300   5.188   1.591
12532TIP3    H259012   6.275   5.094   1.472
12533TIP3   OH259013   6.941   4.647   0.282
12533TIP3    H159014   6.993   4.670   0.363
12533TIP3    H259015   6.979   4.705   0.214
12534TIP3   OH259016   6.036   4.730   1.457
12534TIP3    H159017   6.041   4.796   1.528
12534TIP3    H259018   5.942   4.738   1.436
12535TIP3   OH259019   6.710   5.322   0.628
12535TIP3    H159020   6.754   5.353   0.708
12535TIP3    H259021   6.655   5.397   0.603
12536TIP3   OH259022   6.167   5.317   1.616
12536TIP3    H159023   6.160   5.307   1.520
12536TIP3    H259024   6.074   5.304   1.643
12537TIP3   OH259025   6.109   4.698   0.469
12537TIP3    H159026   6.083   4.776   0.415
12537TIP3    H259027   6.045   4.632   0.444
12538TIP3   OH259028   5.719   4.941   1.358
12538TIP3    H159029   5.675   4.933   1.271
12538TIP3    H259030   5.728   4.846   1.379
12539TIP3   OH259031   5.696   5.213   1.037
12539TIP3    H159032   5.792   5.204   1.031
12539TIP3    H259033   5.687   5.296   1.086
12540TIP3   OH259034   6.615   5.239   1.490
12540TIP3    H159035   6.621   5.323   1.541
12540TIP3    H259036   6.528   5.203   1.515
12541TIP3   OH259037   6.660   5.613   0.468
12541TIP3    H159038   6.651   5.608   0.371
12541TIP3    H259039   6.663   5.709   0.485
12542TIP3   OH259040   6.023   5.500   0.651
12542TIP3    H159041   6.036   5.459   0.739
12542TIP3    H259042   5.937   5.462   0.627
12543TIP3   OH259043   6.959   5.533   0.164
12543TIP3    H159044   7.009   5.458   0.124
12543TIP3    H259045   6.965   5.511   0.259
12544TIP3   OH259046   6.931   5.527   0.447
12544TIP3    H159047   6.835   5.535   0.465
12544TIP3    H259048   6.956   5.453   0.505
12545TIP3   OH259049   7.184   4.449   1.654
12545TIP3    H159050   7.181   4.484   1.565
12545TIP3    H259051   7.238   4.367   1.639
12546TIP3   OH259052   5.948   5.073   1.450
12546TIP3    H159053   5.970   5.037   1.538
12546TIP3    H259054   5.861   5.033   1.430
12547TIP3   OH259055   6.216   3.920   1.046
12547TIP3    H159056   6.126   3.907   1.009
12547TIP3    H259057   6.203   4.003   1.095
12548TIP3   OH259058   6.681   3.886   1.382
12548TIP3    H159059   6.720   3.845   1.461
12548TIP3    H259060   6.583   3.875   1.397
12549TIP3   OH259061   7.002   4.267   1.466
12549TIP3    H159062   6.954   4.250   1.550
12549TIP3    H259063   6.994   4.363   1.453
12550TIP3   OH259064   7.101   4.751   0.067
12550TIP3    H159065   7.094   4.740  -0.029
12550TIP3    H259066   7.178   4.809   0.073
12551TIP3   OH259067   6.646   4.142   0.117
12551TIP3    H159068   6.614   4.139   0.209
12551TIP3    H259069   6.620   4.054   0.088
12552TIP3   OH259070   6.227   4.418   1.173
12552TIP3    H159071   6.153   4.417   1.235
12552TIP3    H259072   6.222   4.508   1.134
12553TIP3   OH259073   6.222   4.428   0.658
12553TIP3    H159074   6.128   4.404   0.645
12553TIP3    H259075   6.260   4.400   0.572
12554TIP3   OH259076   6.776   4.479   0.532
12554TIP3    H159077   6.734   4.562   0.500
12554TIP3    H259078   6.844   4.464   0.465
12555TIP3   OH259079   6.681   4.501   1.679
12555TIP3    H159080   6.629   4.422   1.710
12555TIP3    H259081   6.765   4.488   1.726
12556TIP3   OH259082   6.875   4.430   0.822
12556TIP3    H159083   6.852   4.485   0.745
12556TIP3    H259084   6.888   4.344   0.776
12557TIP3   OH259085   5.988   4.442   1.339
12557TIP3    H159086   5.997   4.483   1.427
12557TIP3    H259087   5.944   4.359   1.361
12558TIP3   OH259088   6.348   4.211   0.063
12558TIP3    H159089   6.292   4.146   0.109
12558TIP3    H259090   6.292   4.245  -0.008
12559TIP3   OH259091   5.654   4.153   0.739
12559TIP3    H159092   5.723   4.149   0.808
12559TIP3    H259093   5.699   4.116   0.660
12560TIP3   OH259094   5.783   4.227   0.275
12560TIP3    H159095   5.834   4.286   0.216
12560TIP3    H259096   5.713   4.289   0.304
12561TIP3   OH259097   6.796   4.586   1.274
12561TIP3    H159098   6.836   4.517   1.217
12561TIP3    H259099   6.750   4.534   1.342
12562TIP3   OH259100   6.477   4.185   0.759
12562TIP3    H159101   6.383   4.185   0.789
12562TIP3    H259102   6.527   4.168   0.840
12563TIP3   OH259103   5.959   4.339   0.646
12563TIP3    H159104   5.870   4.355   0.606
12563TIP3    H259105   5.987   4.256   0.604
12564TIP3   OH259106   6.322   4.347   0.410
12564TIP3    H159107   6.418   4.355   0.425
12564TIP3    H259108   6.300   4.411   0.340
12565TIP3   OH259109   6.911   4.105   1.084
12565TIP3    H159110   6.844   4.112   1.154
12565TIP3    H259111   6.862   4.084   1.003
12566TIP3   OH259112   6.194   4.462   0.167
12566TIP3    H159113   6.137   4.427   0.097
12566TIP3    H259114   6.275   4.482   0.119
12567TIP3   OH259115   7.229   5.677   1.718
12567TIP3    H159116   7.263   5.710   1.634
12567TIP3    H259117   7.303   5.702   1.775
12568TIP3   OH259118   6.006   4.919   1.672
12568TIP3    H159119   6.078   4.944   1.733
12568TIP3    H259120   5.929   4.927   1.732
12569TIP3   OH259121   6.606   4.460   0.948
12569TIP3    H159122   6.666   4.407   0.895
12569TIP3    H259123   6.591   4.405   1.026
12570TIP3   OH259124   6.107   4.074   0.593
12570TIP3    H159125   6.076   3.982   0.591
12570TIP3    H259126   6.185   4.067   0.537
12571TIP3   OH259127   6.470   4.293   1.189
12571TIP3    H159128   6.388   4.345   1.198
12571TIP3    H259129   6.525   4.328   1.261
12572TIP3   OH259130   6.530   4.913   0.362
12572TIP3    H159131   6.449   4.868   0.327
12572TIP3    H259132   6.507   4.927   0.456
12573TIP3   OH259133   7.216   4.837   1.239
12573TIP3    H159134   7.288   4.850   1.174
12573TIP3    H259135   7.140   4.838   1.178
12574TIP3   OH259136   6.916   4.197   0.179
12574TIP3    H159137   6.821   4.208   0.159
12574TIP3    H259138   6.944   4.285   0.211
12575TIP3   OH259139   6.679   4.942   1.483
12575TIP3    H159140   6.643   4.899   1.562
12575TIP3    H259141   6.655   5.035   1.494
12576TIP3   OH259142   6.987   4.391   0.337
12576TIP3    H159143   7.074   4.376   0.378
12576TIP3    H259144   6.994   4.476   0.292
12577TIP3   OH259145   6.040   4.855   0.939
12577TIP3    H159146   6.108   4.846   0.869
12577TIP3    H259147   6.046   4.769   0.984
12578TIP3   OH259148   6.737   5.061   0.265
12578TIP3    H159149   6.702   5.146   0.299
12578TIP3    H259150   6.664   4.999   0.284
12579TIP3   OH259151   5.739   4.695   1.465
12579TIP3    H159152   5.756   4.650   1.550
12579TIP3    H259153   5.677   4.634   1.421
12580TIP3   OH259154   6.440   4.651   1.683
12580TIP3    H159155   6.408   4.620   1.597
12580TIP3    H259156   6.532   4.619   1.683
12581TIP3   OH259157   6.908   5.183   1.478
12581TIP3    H159158   6.816   5.201   1.454
12581TIP3    H259159   6.906   5.213   1.571
12582TIP3   OH259160   7.019   4.765   1.068
12582TIP3    H159161   6.926   4.743   1.054
12582TIP3    H259162   7.067   4.691   1.026
12583TIP3   OH259163   6.277   5.200   0.677
12583TIP3    H159164   6.327   5.281   0.657
12583TIP3    H259165   6.189   5.223   0.644
12584TIP3   OH259166   5.851   4.687   0.129
12584TIP3    H159167   5.913   4.748   0.175
12584TIP3    H259168   5.764   4.713   0.164
12585TIP3   OH259169   6.419   4.966   0.630
12585TIP3    H159170   6.387   5.058   0.638
12585TIP3    H259171   6.347   4.917   0.674
12586TIP3   OH259172   6.463   5.385   1.270
12586TIP3    H159173   6.510   5.466   1.242
12586TIP3    H259174   6.525   5.351   1.338
12587TIP3   OH259175   6.287   5.466   0.581
12587TIP3    H159176   6.191   5.479   0.597
12587TIP3    H259177   6.322   5.549   0.617
12588TIP3   OH259178   6.818   4.985   1.232
12588TIP3    H159179   6.784   4.965   1.322
12588TIP3    H259180   6.880   4.913   1.215
12589TIP3   OH259181   7.048   5.085   0.142
12589TIP3    H159182   7.079   5.043   0.225
12589TIP3    H259183   6.951   5.073   0.150
12590TIP3   OH259184   7.098   5.440   1.479
12590TIP3    H159185   7.026   5.394   1.433
12590TIP3    H259186   7.119   5.513   1.416
12591TIP3   OH259187   5.904   4.168   1.420
12591TIP3    H159188   5.813   4.204   1.418
12591TIP3    H259189   5.893   4.084   1.466
12592TIP3   OH259190   7.129   4.950   0.364
12592TIP3    H159191   7.104   4.873   0.420
12592TIP3    H259192   7.222   4.964   0.390
12593TIP3   OH259193   5.865   5.347   1.263
12593TIP3    H159194   5.895   5.255   1.263
12593TIP3    H259195   5.891   5.376   1.351
12594TIP3   OH259196   6.340   5.156   0.233
12594TIP3    H159197   6.365   5.099   0.308
12594TIP3    H259198   6.349   5.247   0.268
12595TIP3   OH259199   5.991   4.876   0.287
12595TIP3    H159200   5.923   4.918   0.343
12595TIP3    H259201   6.045   4.953   0.259
12596TIP3   OH259202   6.774   4.145   1.318
12596TIP3    H159203   6.849   4.152   1.378
12596TIP3    H259204   6.737   4.057   1.338
12597TIP3   OH259205   6.857   4.102   0.424
12597TIP3    H159206   6.878   4.151   0.343
12597TIP3    H259207   6.913   4.146   0.490
12598TIP3   OH259208   6.619   5.320   0.304
12598TIP3    H159209   6.537   5.372   0.315
12598TIP3    H259210   6.674   5.373   0.245
12599TIP3   OH259211   6.574   4.277   0.506
12599TIP3    H159212   6.652   4.336   0.509
12599TIP3    H259213   6.547   4.266   0.599
12600TIP3   OH259214   6.633   4.381   1.426
12600TIP3    H159215   6.641   4.437   1.506
12600TIP3    H259216   6.698   4.310   1.435
12601TIP3   OH259217   6.656   3.984   0.593
12601TIP3    H159218   6.628   4.049   0.659
12601TIP3    H259219   6.728   4.037   0.550
12602TIP3   OH259220   6.356   5.424   0.310
12602TIP3    H159221   6.371   5.507   0.259
12602TIP3    H259222   6.330   5.458   0.398
12603TIP3   OH259223   6.225   4.093   0.271
12603TIP3    H159224   6.219   4.185   0.305
12603TIP3    H259225   6.316   4.071   0.298
12604TIP3   OH259226   7.235   4.144   1.491
12604TIP3    H159227   7.152   4.197   1.494
12604TIP3    H259228   7.275   4.173   1.409
12605TIP3   OH259229   7.109   4.546   0.916
12605TIP3    H159230   7.027   4.502   0.885
12605TIP3    H259231   7.152   4.475   0.964
12606TIP3   OH259232   6.049   5.139   0.169
12606TIP3    H159233   6.115   5.200   0.203
12606TIP3    H259234   6.103   5.093   0.101
12607TIP3   OH259235   5.889   4.408   0.090
12607TIP3    H159236   5.885   4.504   0.102
12607TIP3    H259237   5.801   4.387   0.056
12608TIP3   OH259238   7.222   5.475   1.077
12608TIP3    H159239   7.206   5.542   1.008
12608TIP3    H259240   7.316   5.484   1.093
12609TIP3   OH259241   5.964   3.884   0.959
12609TIP3    H159242   5.945   3.886   0.863
12609TIP3    H259243   5.923   3.799   0.984
12610TIP3   OH259244   5.860   5.275   0.573
12610TIP3    H159245   5.775   5.320   0.570
12610TIP3    H259246   5.906   5.324   0.502
12611TIP3   OH259247   5.780   5.542   1.702
12611TIP3    H159248   5.841   5.521   1.776
12611TIP3    H259249   5.740   5.455   1.684
12612TIP3   OH259250   6.248   5.434   1.863
12612TIP3    H159251   6.324   5.384   1.896
12612TIP3    H259252   6.246   5.406   1.769
12613TIP3   OH259253   6.709   5.396   0.060
12613TIP3    H159254   6.623   5.350   0.060
12613TIP3    H259255   6.752   5.342  -0.007
12614TIP3   OH259256   6.905   5.270   1.737
12614TIP3    H159257   6.870   5.183   1.766
12614TIP3    H259258   6.980   5.281   1.798
12615TIP3   OH259259   7.119   5.363   0.023
12615TIP3    H159260   7.144   5.282   0.072
12615TIP3    H259261   7.198   5.381  -0.028
12616TIP3   OH259262   5.771   4.919   1.802
12616TIP3    H159263   5.788   4.827   1.771
12616TIP3    H259264   5.697   4.944   1.744
12617TIP3   OH259265   6.217   4.960   0.016
12617TIP3    H159266   6.223   4.877   0.064
12617TIP3    H259267   6.273   4.937  -0.061
12618TIP3   OH259268   6.443   4.918   1.740
12618TIP3    H159269   6.410   4.949   1.654
12618TIP3    H259270   6.451   4.820   1.729
12619TIP3   OH259271   7.010   4.900   1.479
12619TIP3    H159272   7.089   4.959   1.474
12619TIP3    H259273   6.943   4.969   1.484
12620TIP3   OH259274   5.864   4.641   1.739
12620TIP3    H159275   5.905   4.555   1.730
12620TIP3    H259276   5.840   4.642   1.834
12621TIP3   OH259277   6.329   4.758   0.245
12621TIP3    H159278   6.278   4.703   0.308
12621TIP3    H259279   6.360   4.690   0.181
12622TIP3   OH259280   6.253   4.536   1.475
12622TIP3    H159281   6.194   4.608   1.501
12622TIP3    H259282   6.293   4.572   1.394
12623TIP3   OH259283   6.437   4.574   0.066
12623TIP3    H159284   6.424   4.564  -0.030
12623TIP3    H259285   6.535   4.582   0.075
12624TIP3   OH259286   6.761   4.793   1.809
12624TIP3    H159287   6.856   4.792   1.797
12624TIP3    H259288   6.745   4.716   1.865
12625TIP3   OH259289   6.294   4.273   1.581
12625TIP3    H159290   6.306   4.203   1.515
12625TIP3    H259291   6.290   4.354   1.526
12626TIP3   OH259292   6.334   4.112   1.336
12626TIP3    H159293   6.385   4.158   1.265
12626TIP3    H259294   6.245   4.104   1.296
12627TIP3   OH259295   6.488   4.661   1.360
12627TIP3    H159296   6.564   4.644   1.303
12627TIP3    H259297   6.452   4.744   1.327
12628TIP3   OH259298   6.933   4.439   1.858
12628TIP3    H159299   6.955   4.345   1.846
12628TIP3    H259300   7.021   4.481   1.854
12629TIP3   OH259301   7.064   4.720   1.674
12629TIP3    H159302   7.035   4.788   1.609
12629TIP3    H259303   7.157   4.708   1.652
12630TIP3   OH259304   6.140   4.399   1.773
12630TIP3    H159305   6.063   4.341   1.756
12630TIP3    H259306   6.206   4.362   1.711
12631TIP3   OH259307   6.414   3.855   1.375
12631TIP3    H159308   6.395   3.952   1.365
12631TIP3    H259309   6.338   3.819   1.325
12632TIP3   OH259310   6.540   4.288   1.738
12632TIP3    H159311   6.509   4.265   1.827
12632TIP3    H259312   6.462   4.268   1.684
12633TIP3   OH259313   6.808   4.205   1.647
12633TIP3    H159314   6.712   4.207   1.660
12633TIP3    H259315   6.840   4.140   1.713
12634TIP3   OH259316   6.980   4.062   1.840
12634TIP3    H159317   6.965   3.965   1.840
12634TIP3    H259318   6.944   4.093   1.926
12635TIP3   OH259319   5.948   4.192   1.748
12635TIP3    H159320   5.973   4.119   1.690
12635TIP3    H259321   5.939   4.147   1.835
12636TIP3   OH259322   6.435   3.795   1.645
12636TIP3    H159323   6.503   3.724   1.643
12636TIP3    H259324   6.423   3.809   1.549
12637TIP3   OH259325   6.471   3.956   1.857
12637TIP3    H159326   6.454   3.905   1.773
12637TIP3    H259327   6.411   4.032   1.847
12638TIP3   OH259328   6.417   5.645   0.169
12638TIP3    H159329   6.514   5.658   0.180
12638TIP3    H259330   6.398   5.712   0.104
12639TIP3   OH259331   5.774   5.107   0.121
12639TIP3    H159332   5.870   5.118   0.141
12639TIP3    H259333   5.780   5.049   0.044
12640TIP3   OH259334   5.633   5.638   0.682
12640TIP3    H159335   5.597   5.617   0.593
12640TIP3    H259336   5.692   5.563   0.695
12641TIP3   OH259337   5.747   5.448   0.808
12641TIP3    H159338   5.696   5.368   0.827
12641TIP3    H259339   5.755   5.490   0.895
12642TIP3   OH259340   7.280   5.262   1.323
12642TIP3    H159341   7.214   5.306   1.379
12642TIP3    H259342   7.227   5.226   1.249
12643TIP3   OH259343   7.188   4.563   0.658
12643TIP3    H159344   7.214   4.470   0.661
12643TIP3    H259345   7.200   4.588   0.752
12644TIP3   OH259346   5.739   4.765   1.055
12644TIP3    H159347   5.757   4.756   0.958
12644TIP3    H259348   5.829   4.747   1.090
12645TIP3   OH259349   7.202   4.309   0.478
12645TIP3    H159350   7.230   4.224   0.518
12645TIP3    H259351   7.286   4.342   0.445
12646TIP3   OH259352  -0.053   4.285   1.039
12646TIP3    H159353   0.035   4.320   1.024
12646TIP3    H259354  -0.075   4.349   1.108
12647TIP3   OH259355   7.278   4.447   1.342
12647TIP3    H159356   7.184   4.473   1.351
12647TIP3    H259357   7.314   4.515   1.283
12648TIP3   OH259358   5.701   4.295   1.671
12648TIP3    H159359   5.795   4.273   1.689
12648TIP3    H259360   5.655   4.212   1.697
12649TIP3   OH259361   7.183   4.014   0.566
12649TIP3    H159362   7.277   3.994   0.583
12649TIP3    H259363   7.181   3.970   0.478
12650TIP3   OH259364   5.821   4.124   0.955
12650TIP3    H159365   5.867   4.041   0.980
12650TIP3    H259366   5.876   4.193   0.994
12651TIP3   OH259367   5.649   4.424   1.058
12651TIP3    H159368   5.706   4.399   0.982
12651TIP3    H259369   5.696   4.504   1.085
12652TIP3   OH259370   5.684   4.050   0.465
12652TIP3    H159371   5.590   4.069   0.449
12652TIP3    H259372   5.728   4.099   0.393
12653TIP3   OH259373   7.141   5.527   0.670
12653TIP3    H159374   7.208   5.494   0.609
12653TIP3    H259375   7.193   5.585   0.728
12654TIP3   OH259376   5.681   3.915   1.295
12654TIP3    H159377   5.614   3.896   1.363
12654TIP3    H259378   5.635   3.982   1.241
12655TIP3   OH259379   5.905   5.234   1.711
12655TIP3    H159380   5.821   5.257   1.667
12655TIP3    H259381   5.878   5.227   1.803
12656TIP3   OH259382   6.195   5.336   1.339
12656TIP3    H159383   6.162   5.422   1.312
12656TIP3    H259384   6.287   5.344   1.309
12657TIP3   OH259385   6.627   5.478   1.630
12657TIP3    H159386   6.640   5.443   1.720
12657TIP3    H259387   6.717   5.509   1.605
12658TIP3   OH259388   6.857   5.604   1.561
12658TIP3    H159389   6.932   5.547   1.537
12658TIP3    H259390   6.896   5.650   1.640
12659TIP3   OH259391   5.937   5.659   1.339
12659TIP3    H159392   5.864   5.709   1.299
12659TIP3    H259393   5.906   5.640   1.428
12660TIP3   OH259394   6.184   5.617   1.246
12660TIP3    H159395   6.094   5.632   1.285
12660TIP3    H259396   6.178   5.676   1.169
12661TIP3   OH259397   6.651   5.606   1.164
12661TIP3    H159398   6.608   5.664   1.098
12661TIP3    H259399   6.667   5.671   1.236
12662TIP3   OH259400   6.883   5.488   1.266
12662TIP3    H159401   6.797   5.516   1.229
12662TIP3    H259402   6.929   5.574   1.259
12663TIP3   OH259403   7.128   5.646   1.287
12663TIP3    H159404   7.127   5.741   1.266
12663TIP3    H259405   7.162   5.609   1.204
12664TIP3   OH259406   5.884   5.525   1.034
12664TIP3    H159407   5.875   5.478   1.120
12664TIP3    H259408   5.964   5.486   0.994
12665TIP3   OH259409   6.091   5.395   0.898
12665TIP3    H159410   6.074   5.302   0.922
12665TIP3    H259411   6.176   5.411   0.944
12666TIP3   OH259412   6.349   5.444   0.986
12666TIP3    H159413   6.366   5.352   0.960
12666TIP3    H259414   6.355   5.438   1.083
12667TIP3   OH259415   6.694   4.009   0.900
12667TIP3    H159416   6.628   3.944   0.928
12667TIP3    H259417   6.751   3.956   0.842
12668TIP3   OH259418   7.211   3.813   0.908
12668TIP3    H159419   7.269   3.875   0.863
12668TIP3    H259420   7.122   3.848   0.886
12669TIP3   OH259421   5.933   3.871   0.686
12669TIP3    H159422   5.854   3.852   0.632
12669TIP3    H259423   5.979   3.785   0.679
12670TIP3   OH259424   5.809   3.847   0.258
12670TIP3    H159425   5.859   3.911   0.204
12670TIP3    H259426   5.754   3.904   0.315
12671TIP3   OH259427   6.380   3.864   0.663
12671TIP3    H159428   6.470   3.899   0.655
12671TIP3    H259429   6.377   3.842   0.756
12672TIP3   OH259430   6.954   3.861   0.824
12672TIP3    H159431   6.949   3.878   0.730
12672TIP3    H259432   6.911   3.773   0.837
12673TIP3   OH259433   7.077   3.866   0.388
12673TIP3    H159434   7.004   3.926   0.373
12673TIP3    H259435   7.032   3.781   0.406
12674TIP3   OH259436   5.814   5.437   0.349
12674TIP3    H159437   5.737   5.440   0.290
12674TIP3    H259438   5.801   5.530   0.377
12675TIP3   OH259439   5.993   4.031   0.112
12675TIP3    H159440   6.049   3.979   0.054
12675TIP3    H259441   6.058   4.074   0.170
12676TIP3   OH259442   6.496   4.064   0.349
12676TIP3    H159443   6.522   4.008   0.424
12676TIP3    H259444   6.502   4.151   0.394
12677TIP3   OH259445   6.685   5.605   0.195
12677TIP3    H159446   6.782   5.600   0.182
12677TIP3    H259447   6.667   5.530   0.133
12678TIP3   OH259448   5.922   3.926   1.630
12678TIP3    H159449   5.883   3.846   1.670
12678TIP3    H259450   6.013   3.921   1.668
12679TIP3   OH259451   6.122   3.864   1.794
12679TIP3    H159452   6.211   3.830   1.772
12679TIP3    H259453   6.084   3.783   1.834
12680TIP3   OH259454   5.990   5.540   0.050
12680TIP3    H159455   5.956   5.569   0.137
12680TIP3    H259456   6.061   5.482   0.075
12681TIP3   OH259457   6.962   3.795   1.808
12681TIP3    H159458   6.971   3.747   1.893
12681TIP3    H259459   7.054   3.793   1.773
12682TIP3   OH259460   7.262   5.386   1.686
12682TIP3    H159461   7.197   5.380   1.613
12682TIP3    H259462   7.264   5.484   1.695
12683TIP3   OH259463   1.184   6.669   0.671
12683TIP3    H159464   1.184   6.767   0.667
12683TIP3    H259465   1.112   6.647   0.610
12684TIP3   OH259466   1.069   6.596   1.020
12684TIP3    H159467   1.069   6.531   1.092
12684TIP3    H259468   1.036   6.545   0.945
12685TIP3   OH259469   0.311   6.563   1.172
12685TIP3    H159470   0.317   6.495   1.243
12685TIP3    H259471   0.381   6.623   1.200
12686TIP3   OH259472   1.439   6.890   0.850
12686TIP3    H159473   1.397   6.819   0.899
12686TIP3    H259474   1.443   6.962   0.916
12687TIP3   OH259475   0.404   7.013   1.029
12687TIP3    H159476   0.364   6.929   0.995
12687TIP3    H259477   0.495   6.982   1.029
12688TIP3   OH259478   0.090   6.364   0.533
12688TIP3    H159479   0.044   6.444   0.569
12688TIP3    H259480   0.011   6.310   0.534
12689TIP3   OH259481   0.131   6.580   0.785
12689TIP3    H159482   0.160   6.504   0.837
12689TIP3    H259483   0.204   6.597   0.724
12690TIP3   OH259484   0.906   6.837   1.068
12690TIP3    H159485   0.941   6.774   1.002
12690TIP3    H259486   0.988   6.852   1.118
12691TIP3   OH259487   1.768   6.003   1.141
12691TIP3    H159488   1.786   6.062   1.217
12691TIP3    H259489   1.825   6.045   1.074
12692TIP3   OH259490   1.225   6.283   1.099
12692TIP3    H159491   1.242   6.187   1.100
12692TIP3    H259492   1.215   6.297   1.003
12693TIP3   OH259493   0.537   6.092   0.821
12693TIP3    H159494   0.548   6.175   0.771
12693TIP3    H259495   0.498   6.035   0.752
12694TIP3   OH259496   1.310   6.100   0.657
12694TIP3    H159497   1.375   6.069   0.725
12694TIP3    H259498   1.367   6.158   0.603
12695TIP3   OH259499   0.195   6.325   0.888
12695TIP3    H159500   0.268   6.278   0.935
12695TIP3    H259501   0.214   6.297   0.797
12696TIP3   OH259502   0.714   6.489   0.826
12696TIP3    H159503   0.782   6.431   0.865
12696TIP3    H259504   0.663   6.423   0.775
12697TIP3   OH259505   1.818   6.147   1.370
12697TIP3    H159506   1.750   6.217   1.355
12697TIP3    H259507   1.812   6.134   1.465
12698TIP3   OH259508   0.431   5.982   1.224
12698TIP3    H159509   0.400   6.039   1.150
12698TIP3    H259510   0.363   6.004   1.292
12699TIP3   OH259511   1.154   6.927   0.579
12699TIP3    H159512   1.131   6.904   0.488
12699TIP3    H259513   1.126   7.021   0.585
12700TIP3   OH259514   0.680   6.745   1.248
12700TIP3    H159515   0.609   6.808   1.271
12700TIP3    H259516   0.751   6.804   1.220
12701TIP3   OH259517   1.491   6.035   0.857
12701TIP3    H159518   1.469   5.959   0.911
12701TIP3    H259519   1.558   6.078   0.912
12702TIP3   OH259520   0.382   6.166   1.028
12702TIP3    H159521   0.444   6.236   1.061
12702TIP3    H259522   0.437   6.127   0.955
12703TIP3   OH259523   0.524   6.945   1.326
12703TIP3    H159524   0.516   7.037   1.297
12703TIP3    H259525   0.437   6.934   1.372
12704TIP3   OH259526   0.128   6.914   0.408
12704TIP3    H159527   0.109   6.947   0.317
12704TIP3    H259528   0.139   6.996   0.460
12705TIP3   OH259529   1.493   7.077   1.091
12705TIP3    H159530   1.395   7.085   1.100
12705TIP3    H259531   1.521   7.166   1.064
12706TIP3   OH259532   1.525   5.903   1.224
12706TIP3    H159533   1.452   5.967   1.215
12706TIP3    H259534   1.596   5.945   1.172
12707TIP3   OH259535   0.821   5.716   0.970
12707TIP3    H159536   0.808   5.619   0.964
12707TIP3    H259537   0.733   5.746   1.002
12708TIP3   OH259538   1.321   7.222   0.727
12708TIP3    H159539   1.378   7.161   0.676
12708TIP3    H259540   1.361   7.306   0.703
12709TIP3   OH259541   1.443   7.037   0.593
12709TIP3    H159542   1.408   6.971   0.533
12709TIP3    H259543   1.443   6.992   0.680
12710TIP3   OH259544   1.602   6.909   1.447
12710TIP3    H159545   1.614   6.842   1.377
12710TIP3    H259546   1.624   6.992   1.400
12711TIP3   OH259547   1.050   6.595   0.420
12711TIP3    H159548   0.981   6.653   0.382
12711TIP3    H259549   1.121   6.603   0.353
12712TIP3   OH259550   1.051   6.444   0.134
12712TIP3    H159551   1.129   6.450   0.190
12712TIP3    H259552   1.086   6.385   0.067
12713TIP3   OH259553   1.789   6.537   1.249
12713TIP3    H159554   1.724   6.609   1.254
12713TIP3    H259555   1.839   6.560   1.169
12714TIP3   OH259556   1.395   6.616   0.517
12714TIP3    H159557   1.320   6.640   0.577
12714TIP3    H259558   1.443   6.548   0.568
12715TIP3   OH259559   1.389   6.432   1.427
12715TIP3    H159560   1.389   6.514   1.479
12715TIP3    H259561   1.326   6.461   1.357
12716TIP3   OH259562   0.559   6.682   0.706
12716TIP3    H159563   0.523   6.642   0.623
12716TIP3    H259564   0.619   6.612   0.739
12717TIP3   OH259565   0.690   7.029   0.975
12717TIP3    H159566   0.688   6.970   0.896
12717TIP3    H259567   0.766   6.984   1.020
12718TIP3   OH259568   0.593   6.555   1.072
12718TIP3    H159569   0.646   6.567   0.991
12718TIP3    H259570   0.629   6.624   1.133
12719TIP3   OH259571   1.234   7.113   1.145
12719TIP3    H159572   1.198   7.176   1.206
12719TIP3    H259573   1.205   7.027   1.184
12720TIP3   OH259574   0.686   7.002   1.539
12720TIP3    H159575   0.641   7.073   1.591
12720TIP3    H259576   0.617   6.975   1.473
12721TIP3   OH259577   1.284   6.533   0.282
12721TIP3    H159578   1.338   6.553   0.363
12721TIP3    H259579   1.325   6.589   0.213
12722TIP3   OH259580   0.379   6.616   1.460
12722TIP3    H159581   0.383   6.685   1.529
12722TIP3    H259582   0.285   6.625   1.436
12723TIP3   OH259583   1.050   7.205   0.630
12723TIP3    H159584   1.100   7.237   0.706
12723TIP3    H259585   1.000   7.282   0.601
12724TIP3   OH259586   0.508   7.195   1.612
12724TIP3    H159587   0.498   7.190   1.515
12724TIP3    H259588   0.415   7.187   1.640
12725TIP3   OH259589   1.659   5.712   0.276
12725TIP3    H159590   1.561   5.718   0.291
12725TIP3    H259591   1.674   5.794   0.226
12726TIP3   OH259592   0.456   6.584   0.467
12726TIP3    H159593   0.427   6.661   0.414
12726TIP3    H259594   0.390   6.518   0.445
12727TIP3   OH259595   1.767   7.140   0.109
12727TIP3    H159596   1.773   7.235   0.123
12727TIP3    H259597   1.860   7.114   0.101
12728TIP3   OH259598   0.123   6.812   1.332
12728TIP3    H159599   0.046   6.825   1.272
12728TIP3    H259600   0.085   6.735   1.378
12729TIP3   OH259601   0.070   7.123   1.010
12729TIP3    H159602   0.152   7.085   1.040
12729TIP3    H259603   0.043   7.176   1.086
12730TIP3   OH259604   1.860   7.170   1.611
12730TIP3    H159605   1.850   7.074   1.599
12730TIP3    H259606   1.772   7.196   1.643
12731TIP3   OH259607   0.953   7.127   1.485
12731TIP3    H159608   0.968   7.206   1.540
12731TIP3    H259609   0.873   7.085   1.520
12732TIP3   OH259610   1.582   6.317   1.650
12732TIP3    H159611   1.532   6.363   1.580
12732TIP3    H259612   1.574   6.225   1.620
12733TIP3   OH259613   0.297   6.965   1.456
12733TIP3    H159614   0.311   6.922   1.542
12733TIP3    H259615   0.213   6.924   1.427
12734TIP3   OH259616   0.560   5.807   1.046
12734TIP3    H159617   0.470   5.794   1.009
12734TIP3    H259618   0.546   5.889   1.095
12735TIP3   OH259619   1.024   5.772   1.382
12735TIP3    H159620   1.063   5.730   1.461
12735TIP3    H259621   0.927   5.761   1.397
12736TIP3   OH259622   1.353   6.157   1.473
12736TIP3    H159623   1.296   6.136   1.551
12736TIP3    H259624   1.334   6.250   1.450
12737TIP3   OH259625   1.438   6.646   0.069
12737TIP3    H159626   1.436   6.625  -0.026
12737TIP3    H259627   1.526   6.687   0.076
12738TIP3   OH259628   0.986   6.031   0.116
12738TIP3    H159629   0.957   6.025   0.209
12738TIP3    H259630   0.964   5.942   0.087
12739TIP3   OH259631   0.568   6.303   1.171
12739TIP3    H159632   0.495   6.303   1.237
12739TIP3    H259633   0.566   6.394   1.135
12740TIP3   OH259634   0.567   6.315   0.658
12740TIP3    H159635   0.474   6.290   0.644
12740TIP3    H259636   0.605   6.286   0.573
12741TIP3   OH259637   1.118   6.364   0.531
12741TIP3    H159638   1.077   6.448   0.499
12741TIP3    H259639   1.188   6.349   0.464
12742TIP3   OH259640   1.023   6.386   1.679
12742TIP3    H159641   0.970   6.308   1.710
12742TIP3    H259642   1.107   6.374   1.726
12743TIP3   OH259643   1.221   6.314   0.820
12743TIP3    H159644   1.193   6.370   0.746
12743TIP3    H259645   1.231   6.229   0.773
12744TIP3   OH259646   0.333   6.327   1.340
12744TIP3    H159647   0.335   6.369   1.427
12744TIP3    H259648   0.284   6.245   1.359
12745TIP3   OH259649   0.691   6.097   0.063
12745TIP3    H159650   0.636   6.032   0.110
12745TIP3    H259651   0.635   6.130  -0.008
12746TIP3   OH259652   0.035   6.071   0.719
12746TIP3    H159653   0.068   6.036   0.805
12746TIP3    H259654   0.049   5.996   0.662
12747TIP3   OH259655   0.125   6.127   0.273
12747TIP3    H159656   0.179   6.179   0.211
12747TIP3    H259657   0.052   6.182   0.296
12748TIP3   OH259658   1.141   6.472   1.275
12748TIP3    H159659   1.179   6.404   1.216
12748TIP3    H259660   1.094   6.420   1.342
12749TIP3   OH259661   0.821   6.071   0.758
12749TIP3    H159662   0.728   6.070   0.787
12749TIP3    H259663   0.869   6.053   0.841
12750TIP3   OH259664   0.303   6.225   0.645
12750TIP3    H159665   0.216   6.242   0.605
12750TIP3    H259666   0.327   6.140   0.604
12751TIP3   OH259667   0.665   6.233   0.410
12751TIP3    H159668   0.761   6.241   0.425
12751TIP3    H259669   0.641   6.297   0.340
12752TIP3   OH259670   1.261   5.992   1.083
12752TIP3    H159671   1.193   5.999   1.153
12752TIP3    H259672   1.211   5.968   1.004
12753TIP3   OH259673   0.539   6.347   0.166
12753TIP3    H159674   0.481   6.313   0.097
12753TIP3    H259675   0.620   6.368   0.118
12754TIP3   OH259676   0.347   6.806   1.673
12754TIP3    H159677   0.421   6.828   1.733
12754TIP3    H259678   0.272   6.814   1.734
12755TIP3   OH259679   0.948   6.345   0.948
12755TIP3    H159680   1.009   6.293   0.894
12755TIP3    H259681   0.935   6.291   1.026
12756TIP3   OH259682   0.449   5.961   0.593
12756TIP3    H159683   0.418   5.869   0.591
12756TIP3    H259684   0.528   5.953   0.538
12757TIP3   OH259685   0.813   6.178   1.189
12757TIP3    H159686   0.731   6.230   1.198
12757TIP3    H259687   0.869   6.214   1.261
12758TIP3   OH259688   0.872   6.801   0.361
12758TIP3    H159689   0.793   6.754   0.327
12758TIP3    H259690   0.850   6.811   0.455
12759TIP3   OH259691   1.591   6.721   1.239
12759TIP3    H159692   1.647   6.771   1.177
12759TIP3    H259693   1.505   6.726   1.193
12760TIP3   OH259694   1.257   6.084   0.178
12760TIP3    H159695   1.163   6.097   0.159
12760TIP3    H259696   1.288   6.169   0.213
12761TIP3   OH259697   1.019   6.829   1.482
12761TIP3    H159698   0.986   6.786   1.562
12761TIP3    H259699   0.996   6.922   1.495
12762TIP3   OH259700   1.328   6.276   0.344
12762TIP3    H159701   1.418   6.260   0.378
12762TIP3    H259702   1.337   6.356   0.291
12763TIP3   OH259703   0.384   6.743   0.939
12763TIP3    H159704   0.449   6.731   0.868
12763TIP3    H259705   0.392   6.658   0.986
12764TIP3   OH259706   1.082   6.945   0.263
12764TIP3    H159707   1.048   7.030   0.297
12764TIP3    H259708   1.007   6.886   0.283
12765TIP3   OH259709   0.079   6.578   1.465
12765TIP3    H159710   0.105   6.535   1.549
12765TIP3    H259711   0.020   6.514   1.423
12766TIP3   OH259712   0.783   6.537   1.682
12766TIP3    H159713   0.751   6.505   1.597
12766TIP3    H259714   0.875   6.504   1.683
12767TIP3   OH259715   1.250   7.076   1.471
12767TIP3    H159716   1.156   7.083   1.453
12767TIP3    H259717   1.248   7.094   1.568
12768TIP3   OH259718   1.818   6.289   0.320
12768TIP3    H159719   1.761   6.257   0.249
12768TIP3    H259720   1.827   6.382   0.291
12769TIP3   OH259721   1.819   6.872   1.597
12769TIP3    H159722   1.730   6.896   1.562
12769TIP3    H259723   1.872   6.867   1.514
12770TIP3   OH259724   1.667   7.142   0.375
12770TIP3    H159725   1.604   7.073   0.389
12770TIP3    H259726   1.672   7.152   0.278
12771TIP3   OH259727   1.369   6.652   1.068
12771TIP3    H159728   1.274   6.632   1.056
12771TIP3    H259729   1.412   6.577   1.024
12772TIP3   OH259730   0.621   7.085   0.677
12772TIP3    H159731   0.671   7.166   0.656
12772TIP3    H259732   0.532   7.105   0.645
12773TIP3   OH259733   0.191   6.566   0.137
12773TIP3    H159734   0.256   6.631   0.172
12773TIP3    H259735   0.107   6.603   0.167
12774TIP3   OH259736   0.765   6.850   0.630
12774TIP3    H159737   0.733   6.942   0.636
12774TIP3    H259738   0.691   6.802   0.672
12775TIP3   OH259739   0.830   7.242   1.236
12775TIP3    H159740   0.857   7.335   1.233
12775TIP3    H259741   0.867   7.221   1.324
12776TIP3   OH259742   1.159   6.871   1.232
12776TIP3    H159743   1.125   6.849   1.321
12776TIP3    H259744   1.223   6.799   1.215
12777TIP3   OH259745   1.390   6.970   0.144
12777TIP3    H159746   1.420   6.929   0.227
12777TIP3    H259747   1.294   6.960   0.152
12778TIP3   OH259748   0.247   6.054   1.417
12778TIP3    H159749   0.158   6.092   1.425
12778TIP3    H259750   0.236   5.971   1.464
12779TIP3   OH259751   1.471   6.833   0.365
12779TIP3    H159752   1.447   6.757   0.421
12779TIP3    H259753   1.565   6.848   0.387
12780TIP3   OH259754   0.238   7.233   1.255
12780TIP3    H159755   0.232   7.138   1.266
12780TIP3    H259756   0.223   7.264   1.346
12781TIP3   OH259757   0.684   7.037   0.230
12781TIP3    H159758   0.708   6.983   0.306
12781TIP3    H259759   0.693   7.127   0.265
12782TIP3   OH259760   0.330   6.764   0.286
12782TIP3    H159761   0.261   6.804   0.342
12782TIP3    H259762   0.383   6.841   0.259
12783TIP3   OH259763   1.120   6.031   1.316
12783TIP3    H159764   1.192   6.037   1.381
12783TIP3    H259765   1.082   5.944   1.337
12784TIP3   OH259766   1.193   5.991   0.425
12784TIP3    H159767   1.220   6.036   0.343
12784TIP3    H259768   1.253   6.032   0.489
12785TIP3   OH259769   0.965   7.206   0.309
12785TIP3    H159770   0.881   7.254   0.313
12785TIP3    H259771   1.018   7.256   0.245
12786TIP3   OH259772   0.917   6.163   0.506
12786TIP3    H159773   0.995   6.221   0.509
12786TIP3    H259774   0.891   6.152   0.599
12787TIP3   OH259775   0.973   6.266   1.426
12787TIP3    H159776   0.980   6.322   1.506
12787TIP3    H259777   1.039   6.196   1.436
12788TIP3   OH259778   1.002   5.869   0.594
12788TIP3    H159779   0.970   5.933   0.659
12788TIP3    H259780   1.072   5.924   0.550
12789TIP3   OH259781   0.704   0.007   0.306
12789TIP3    H159782   0.715   0.092   0.262
12789TIP3    H259783   0.680   0.037   0.395
12790TIP3   OH259784   0.568   5.979   0.269
12790TIP3    H159785   0.561   6.070   0.305
12790TIP3    H259786   0.659   5.956   0.298
12791TIP3   OH259787   1.591   6.053   1.510
12791TIP3    H159788   1.498   6.084   1.498
12791TIP3    H259789   1.620   6.051   1.418
12792TIP3   OH259790   1.452   6.432   0.911
12792TIP3    H159791   1.370   6.387   0.884
12792TIP3    H259792   1.500   6.363   0.963
12793TIP3   OH259793   0.393   7.022   0.173
12793TIP3    H159794   0.458   7.089   0.198
12793TIP3    H259795   0.443   6.980   0.101
12794TIP3   OH259796   0.231   6.292   0.092
12794TIP3    H159797   0.231   6.389   0.103
12794TIP3    H259798   0.145   6.270   0.056
12795TIP3   OH259799   0.310   5.768   0.957
12795TIP3    H159800   0.288   5.772   0.861
12795TIP3    H259801   0.266   5.685   0.984
12796TIP3   OH259802   0.207   7.162   0.567
12796TIP3    H159803   0.121   7.203   0.571
12796TIP3    H259804   0.255   7.213   0.501
12797TIP3   OH259805   0.620   7.287   1.885
12797TIP3    H159806   0.706   7.247   1.902
12797TIP3    H259807   0.613   7.273   1.789
12798TIP3   OH259808   1.044   7.298   0.069
12798TIP3    H159809   0.963   7.246   0.062
12798TIP3    H259810   1.094   7.249   0.001
12799TIP3   OH259811   1.251   7.119   1.723
12799TIP3    H159812   1.203   7.052   1.774
12799TIP3    H259813   1.312   7.156   1.788
12800TIP3   OH259814   1.455   7.241   0.030
12800TIP3    H159815   1.485   7.163   0.079
12800TIP3    H259816   1.534   7.256  -0.026
12801TIP3   OH259817   0.113   6.803   1.801
12801TIP3    H159818   0.133   6.713   1.768
12801TIP3    H259819   0.041   6.832   1.743
12802TIP3   OH259820   0.559   6.842   0.017
12802TIP3    H159821   0.567   6.760   0.065
12802TIP3    H259822   0.616   6.820  -0.059
12803TIP3   OH259823   0.788   6.803   1.739
12803TIP3    H159824   0.752   6.833   1.653
12803TIP3    H259825   0.794   6.705   1.729
12804TIP3   OH259826   1.356   6.789   1.479
12804TIP3    H159827   1.435   6.848   1.472
12804TIP3    H259828   1.286   6.856   1.484
12805TIP3   OH259829   0.201   6.528   1.739
12805TIP3    H159830   0.248   6.443   1.730
12805TIP3    H259831   0.183   6.527   1.834
12806TIP3   OH259832   0.672   6.644   0.245
12806TIP3    H159833   0.622   6.589   0.308
12806TIP3    H259834   0.703   6.576   0.180
12807TIP3   OH259835   0.597   6.421   1.475
12807TIP3    H159836   0.536   6.492   1.501
12807TIP3    H259837   0.636   6.458   1.394
12808TIP3   OH259838   0.779   6.460   0.066
12808TIP3    H159839   0.767   6.449  -0.029
12808TIP3    H259840   0.877   6.468   0.075
12809TIP3   OH259841   1.104   6.678   1.809
12809TIP3    H159842   1.200   6.677   1.796
12809TIP3    H259843   1.087   6.601   1.866
12810TIP3   OH259844   1.692   6.714  16.018
12810TIP3    H159845   1.686   6.661  15.936
12810TIP3    H259846   1.716   6.803  15.988
12811TIP3   OH259847   0.640   6.159   1.581
12811TIP3    H159848   0.649   6.088   1.515
12811TIP3    H259849   0.631   6.240   1.526
12812TIP3   OH259850   0.678   5.997   1.336
12812TIP3    H159851   0.729   6.044   1.266
12812TIP3    H259852   0.589   5.989   1.296
12813TIP3   OH259853   0.831   6.546   1.361
12813TIP3    H159854   0.907   6.529   1.303
12813TIP3    H259855   0.795   6.629   1.327
12814TIP3   OH259856   1.271   6.321   1.856
12814TIP3    H159857   1.295   6.228   1.847
12814TIP3    H259858   1.357   6.366   1.860
12815TIP3   OH259859   1.406   6.601   1.673
12815TIP3    H159860   1.380   6.673   1.612
12815TIP3    H259861   1.502   6.600   1.655
12816TIP3   OH259862   0.481   6.285   1.772
12816TIP3    H159863   0.405   6.225   1.756
12816TIP3    H259864   0.547   6.247   1.711
12817TIP3   OH259865   0.756   5.741   1.375
12817TIP3    H159866   0.738   5.837   1.365
12817TIP3    H259867   0.682   5.704   1.325
12818TIP3   OH259868   0.884   6.174   1.738
12818TIP3    H159869   0.852   6.151   1.827
12818TIP3    H259870   0.806   6.154   1.684
12819TIP3   OH259871   1.156   6.088   1.647
12819TIP3    H159872   1.059   6.094   1.658
12819TIP3    H259873   1.182   6.024   1.716
12820TIP3   OH259874   1.314   5.950   1.837
12820TIP3    H159875   1.309   5.852   1.840
12820TIP3    H259876   1.289   5.979   1.927
12821TIP3   OH259877   0.306   6.075   1.752
12821TIP3    H159878   0.317   6.002   1.688
12821TIP3    H259879   0.285   6.030   1.835
12822TIP3   OH259880   0.778   5.680   1.645
12822TIP3    H159881   0.846   5.610   1.643
12822TIP3    H259882   0.767   5.695   1.549
12823TIP3   OH259883   0.814   5.842   1.857
12823TIP3    H159884   0.797   5.791   1.773
12823TIP3    H259885   0.754   5.918   1.847
12824TIP3   OH259886   0.126   6.984   0.127
12824TIP3    H159887   0.220   7.007   0.142
12824TIP3    H259888   0.126   6.935   0.044
12825TIP3   OH259889   1.632   6.954   1.859
12825TIP3    H159890   1.542   6.949   1.897
12825TIP3    H259891   1.671   7.033   1.903
12826TIP3   OH259892   1.766   6.783   0.401
12826TIP3    H159893   1.848   6.829   0.425
12826TIP3    H259894   1.762   6.714   0.471
12827TIP3   OH259895   1.799   6.594   0.591
12827TIP3    H159896   1.725   6.543   0.629
12827TIP3    H259897   1.859   6.607   0.668
12828TIP3   OH259898   1.777   6.863   1.093
12828TIP3    H159899   1.857   6.826   1.053
12828TIP3    H259900   1.790   6.958   1.075
12829TIP3   OH259901   1.625   7.152   1.322
12829TIP3    H159902   1.555   7.190   1.376
12829TIP3    H259903   1.575   7.116   1.245
12830TIP3   OH259904   1.831   6.579   0.231
12830TIP3    H159905   1.770   6.614   0.163
12830TIP3    H259906   1.822   6.648   0.299
12831TIP3   OH259907   1.623   6.301   0.094
12831TIP3    H159908   1.668   6.362   0.033
12831TIP3    H259909   1.646   6.219   0.049
12832TIP3   OH259910   1.582   6.442   0.649
12832TIP3    H159911   1.567   6.346   0.644
12832TIP3    H259912   1.549   6.463   0.738
12833TIP3   OH259913   0.084   6.649   1.047
12833TIP3    H159914   0.104   6.644   0.951
12833TIP3    H259915   0.172   6.637   1.089
12834TIP3   OH259916   1.668   6.638   1.618
12834TIP3    H159917   1.729   6.563   1.631
12834TIP3    H259918   1.727   6.717   1.618
12835TIP3   OH259919   1.821   6.425   1.681
12835TIP3    H159920   1.729   6.390   1.668
12835TIP3    H259921   1.870   6.343   1.673
12836TIP3   OH259922   1.547   6.201   0.495
12836TIP3    H159923   1.576   6.108   0.506
12836TIP3    H259924   1.627   6.240   0.457
12837TIP3   OH259925   1.612   6.254   1.039
12837TIP3    H159926   1.709   6.277   1.037
12837TIP3    H259927   1.594   6.268   1.133
12838TIP3   OH259928   1.619   6.326   1.317
12838TIP3    H159929   1.531   6.355   1.348
12838TIP3    H259930   1.663   6.412   1.295
12839TIP3   OH259931   0.071   6.167   1.668
12839TIP3    H159932   0.160   6.149   1.702
12839TIP3    H259933   0.014   6.099   1.710
12840TIP3   OH259934   1.845   5.732   1.851
12840TIP3    H159935   1.882   5.666   1.789
12840TIP3    H259936   1.855   5.813   1.797
12841TIP3   OH259937   1.621   5.924   0.495
12841TIP3    H159938   1.634   5.886   0.584
12841TIP3    H259939   1.553   5.866   0.454
12842TIP3   OH259940   0.168   6.005   0.951
12842TIP3    H159941   0.214   5.925   0.983
12842TIP3    H259942   0.218   6.075   0.995
12843TIP3   OH259943   0.050   6.385   1.094
12843TIP3    H159944   0.054   6.342   1.006
12843TIP3    H259945   0.058   6.476   1.066
12844TIP3   OH259946   1.800   5.946   1.684
12844TIP3    H159947   1.704   5.969   1.682
12844TIP3    H259948   1.801   5.886   1.608
12845TIP3   OH259949   1.804   5.930   0.163
12845TIP3    H159950   1.837   5.864   0.101
12845TIP3    H259951   1.868   6.001   0.151
12846TIP3   OH259952   0.078   5.932   0.427
12846TIP3    H159953  -0.018   5.948   0.433
12846TIP3    H259954   0.099   6.004   0.364
12847TIP3   OH259955   7.355   5.797   1.317
12847TIP3    H159956   7.276   5.776   1.369
12847TIP3    H259957   7.307   5.849   1.250
12848TIP3   OH259958   0.242   7.127   1.712
12848TIP3    H159959   0.156   7.141   1.672
12848TIP3    H259960   0.220   7.110   1.804
12849TIP3   OH259961   0.543   7.219   1.336
12849TIP3    H159962   0.497   7.302   1.317
12849TIP3    H259963   0.636   7.224   1.312
12850TIP3   OH259964   1.701   5.751   1.471
12850TIP3    H159965   1.618   5.781   1.430
12850TIP3    H259966   1.717   5.669   1.419
12851TIP3   OH259967   0.460   7.248   0.870
12851TIP3    H159968   0.410   7.180   0.919
12851TIP3    H259969   0.501   7.306   0.933
12852TIP3   OH259970   1.039   5.895   0.900
12852TIP3    H159971   0.972   5.831   0.928
12852TIP3    H259972   1.094   5.841   0.842
12853TIP3   OH259973   1.553   5.698   0.907
12853TIP3    H159974   1.613   5.759   0.857
12853TIP3    H259975   1.464   5.735   0.883
12854TIP3   OH259976   1.719   5.825   0.733
12854TIP3    H159977   1.786   5.765   0.695
12854TIP3    H259978   1.769   5.909   0.747
12855TIP3   OH259979   0.277   5.756   0.687
12855TIP3    H159980   0.199   5.736   0.631
12855TIP3    H259981   0.326   5.672   0.678
12856TIP3   OH259982   0.156   5.729   0.257
12856TIP3    H159983   0.204   5.796   0.204
12856TIP3    H259984   0.100   5.787   0.312
12857TIP3   OH259985   0.723   5.749   0.663
12857TIP3    H159986   0.813   5.785   0.656
12857TIP3    H259987   0.720   5.728   0.756
12858TIP3   OH259988   1.296   5.751   0.826
12858TIP3    H159989   1.291   5.763   0.730
12858TIP3    H259990   1.256   5.661   0.839
12859TIP3   OH259991   1.424   5.754   0.392
12859TIP3    H159992   1.349   5.814   0.376
12859TIP3    H259993   1.379   5.669   0.414
12860TIP3   OH259994   0.334   5.922   0.113
12860TIP3    H159995   0.387   5.866   0.055
12860TIP3    H259996   0.404   5.959   0.171
12861TIP3   OH259997   0.839   5.950   0.348
12861TIP3    H159998   0.866   5.893   0.423
12861TIP3    H259999   0.846   6.037   0.394
12862TIP3   OH260000   0.259   5.813   1.634
12862TIP3    H160001   0.226   5.728   1.668
12862TIP3    H260002   0.352   5.807   1.667
12863TIP3   OH260003   0.465   5.748   1.793
12863TIP3    H160004   0.555   5.715   1.773
12863TIP3    H260005   0.426   5.668   1.833
12864TIP3   OH260006   1.305   5.678   1.809
12864TIP3    H160007   1.315   5.631   1.894
12864TIP3    H260008   1.397   5.675   1.775
12865TIP3   OH260009   1.609  -0.024   1.689
12865TIP3    H160010   1.546  -0.037   1.617
12865TIP3    H260011   1.622   0.072   1.689
12866TIP3   OH260012   3.070   6.669   0.670
12866TIP3    H160013   3.069   6.767   0.667
12866TIP3    H260014   2.997   6.647   0.610
12867TIP3   OH260015   2.956   6.596   1.020
12867TIP3    H160016   2.955   6.532   1.093
12867TIP3    H260017   2.921   6.545   0.945
12868TIP3   OH260018   2.191   6.564   1.178
12868TIP3    H160019   2.201   6.494   1.245
12868TIP3    H260020   2.267   6.621   1.198
12869TIP3   OH260021   3.325   6.890   0.850
12869TIP3    H160022   3.283   6.819   0.899
12869TIP3    H260023   3.329   6.962   0.916
12870TIP3   OH260024   2.286   7.009   1.029
12870TIP3    H160025   2.253   6.924   0.995
12870TIP3    H260026   2.381   6.990   1.029
12871TIP3   OH260027   1.948   6.365   0.575
12871TIP3    H160028   1.905   6.452   0.570
12871TIP3    H260029   1.891   6.312   0.518
12872TIP3   OH260030   2.019   6.587   0.790
12872TIP3    H160031   2.047   6.505   0.835
12872TIP3    H260032   2.089   6.598   0.723
12873TIP3   OH260033   2.792   6.834   1.069
12873TIP3    H160034   2.827   6.773   1.002
12873TIP3    H260035   2.874   6.854   1.118
12874TIP3   OH260036   3.642   6.014   1.155
12874TIP3    H160037   3.676   6.073   1.224
12874TIP3    H260038   3.703   6.032   1.080
12875TIP3   OH260039   3.110   6.284   1.099
12875TIP3    H160040   3.127   6.188   1.100
12875TIP3    H260041   3.100   6.297   1.003
12876TIP3   OH260042   2.423   6.093   0.821
12876TIP3    H160043   2.433   6.176   0.771
12876TIP3    H260044   2.383   6.035   0.752
12877TIP3   OH260045   3.197   6.100   0.658
12877TIP3    H160046   3.262   6.069   0.725
12877TIP3    H260047   3.252   6.157   0.603
12878TIP3   OH260048   2.084   6.333   0.895
12878TIP3    H160049   2.151   6.279   0.940
12878TIP3    H260050   2.095   6.302   0.804
12879TIP3   OH260051   2.600   6.489   0.826
12879TIP3    H160052   2.667   6.431   0.865
12879TIP3    H260053   2.549   6.423   0.775
12880TIP3   OH260054   3.701   6.146   1.371
12880TIP3    H160055   3.637   6.219   1.356
12880TIP3    H260056   3.699   6.136   1.467
12881TIP3   OH260057   2.313   5.981   1.224
12881TIP3    H160058   2.285   6.040   1.150
12881TIP3    H260059   2.245   6.004   1.291
12882TIP3   OH260060   3.039   6.927   0.580
12882TIP3    H160061   3.016   6.904   0.489
12882TIP3    H260062   3.011   7.021   0.585
12883TIP3   OH260063   2.564   6.744   1.250
12883TIP3    H160064   2.494   6.809   1.271
12883TIP3    H260065   2.635   6.804   1.220
12884TIP3   OH260066   3.373   6.037   0.858
12884TIP3    H160067   3.355   5.958   0.910
12884TIP3    H260068   3.447   6.076   0.909
12885TIP3   OH260069   2.270   6.168   1.028
12885TIP3    H160070   2.332   6.237   1.059
12885TIP3    H260071   2.321   6.127   0.954
12886TIP3   OH260072   2.410   6.947   1.329
12886TIP3    H160073   2.404   7.037   1.294
12886TIP3    H260074   2.322   6.938   1.372
12887TIP3   OH260075   2.014   6.913   0.409
12887TIP3    H160076   1.992   6.945   0.320
12887TIP3    H260077   2.023   6.996   0.461
12888TIP3   OH260078   3.379   7.077   1.091
12888TIP3    H160079   3.280   7.085   1.100
12888TIP3    H260080   3.407   7.166   1.064
12889TIP3   OH260081   3.409   5.904   1.226
12889TIP3    H160082   3.338   5.968   1.213
12889TIP3    H260083   3.482   5.943   1.173
12890TIP3   OH260084   2.706   5.715   0.971
12890TIP3    H160085   2.693   5.619   0.963
12890TIP3    H260086   2.619   5.746   1.002
12891TIP3   OH260087   3.207   7.222   0.727
12891TIP3    H160088   3.263   7.161   0.676
12891TIP3    H260089   3.246   7.306   0.703
12892TIP3   OH260090   3.329   7.036   0.594
12892TIP3    H160091   3.294   6.971   0.533
12892TIP3    H260092   3.328   6.991   0.681
12893TIP3   OH260093   3.488   6.909   1.447
12893TIP3    H160094   3.500   6.842   1.377
12893TIP3    H260095   3.510   6.991   1.400
12894TIP3   OH260096   2.935   6.595   0.420
12894TIP3    H160097   2.867   6.654   0.382
12894TIP3    H260098   3.007   6.603   0.354
12895TIP3   OH260099   2.937   6.446   0.132
12895TIP3    H160100   3.015   6.450   0.190
12895TIP3    H260101   2.971   6.385   0.066
12896TIP3   OH260102   3.676   6.537   1.250
12896TIP3    H160103   3.610   6.609   1.254
12896TIP3    H260104   3.725   6.560   1.169
12897TIP3   OH260105   3.280   6.616   0.516
12897TIP3    H160106   3.206   6.640   0.577
12897TIP3    H260107   3.329   6.549   0.567
12898TIP3   OH260108   3.274   6.432   1.427
12898TIP3    H160109   3.274   6.512   1.482
12898TIP3    H260110   3.211   6.462   1.358
12899TIP3   OH260111   2.442   6.681   0.706
12899TIP3    H160112   2.410   6.642   0.621
12899TIP3    H260113   2.504   6.612   0.739
12900TIP3   OH260114   2.575   7.022   0.973
12900TIP3    H160115   2.575   6.967   0.893
12900TIP3    H260116   2.651   6.985   1.020
12901TIP3   OH260117   2.475   6.556   1.072
12901TIP3    H160118   2.530   6.566   0.992
12901TIP3    H260119   2.514   6.623   1.133
12902TIP3   OH260120   3.120   7.113   1.145
12902TIP3    H160121   3.083   7.176   1.206
12902TIP3    H260122   3.091   7.027   1.184
12903TIP3   OH260123   2.570   7.000   1.542
12903TIP3    H160124   2.527   7.074   1.590
12903TIP3    H260125   2.504   6.977   1.472
12904TIP3   OH260126   3.168   6.536   0.281
12904TIP3    H160127   3.223   6.554   0.361
12904TIP3    H260128   3.210   6.591   0.212
12905TIP3   OH260129   2.262   6.609   1.463
12905TIP3    H160130   2.270   6.683   1.526
12905TIP3    H260131   2.171   6.625   1.434
12906TIP3   OH260132   2.935   7.204   0.630
12906TIP3    H160133   2.985   7.237   0.705
12906TIP3    H260134   2.885   7.282   0.601
12907TIP3   OH260135   2.393   7.194   1.615
12907TIP3    H160136   2.386   7.191   1.517
12907TIP3    H260137   2.300   7.188   1.642
12908TIP3   OH260138   3.542   5.710   0.272
12908TIP3    H160139   3.446   5.720   0.292
12908TIP3    H260140   3.561   5.795   0.228
12909TIP3   OH260141   2.338   6.584   0.469
12909TIP3    H160142   2.311   6.661   0.415
12909TIP3    H260143   2.274   6.517   0.444
12910TIP3   OH260144   3.655   7.139   0.110
12910TIP3    H160145   3.657   7.235   0.122
12910TIP3    H260146   3.748   7.115   0.102
12911TIP3   OH260147   1.947   6.827   1.357
12911TIP3    H160148   1.904   6.819   1.270
12911TIP3    H260149   1.955   6.732   1.377
12912TIP3   OH260150   1.928   7.096   1.039
12912TIP3    H160151   2.023   7.091   1.030
12912TIP3    H260152   1.918   7.179   1.088
12913TIP3   OH260153   3.746   7.170   1.611
12913TIP3    H160154   3.736   7.074   1.599
12913TIP3    H260155   3.657   7.196   1.642
12914TIP3   OH260156   2.842   7.126   1.489
12914TIP3    H160157   2.853   7.207   1.540
12914TIP3    H260158   2.758   7.086   1.517
12915TIP3   OH260159   3.471   6.317   1.647
12915TIP3    H160160   3.413   6.362   1.583
12915TIP3    H260161   3.458   6.225   1.619
12916TIP3   OH260162   2.178   6.959   1.451
12916TIP3    H160163   2.198   6.921   1.539
12916TIP3    H260164   2.091   6.920   1.429
12917TIP3   OH260165   2.445   5.806   1.046
12917TIP3    H160166   2.355   5.793   1.009
12917TIP3    H260167   2.432   5.889   1.095
12918TIP3   OH260168   2.909   5.772   1.382
12918TIP3    H160169   2.948   5.730   1.461
12918TIP3    H260170   2.812   5.760   1.396
12919TIP3   OH260171   3.239   6.156   1.470
12919TIP3    H160172   3.183   6.135   1.550
12919TIP3    H260173   3.219   6.250   1.452
12920TIP3   OH260174   3.325   6.645   0.069
12920TIP3    H160175   3.321   6.628  -0.027
12920TIP3    H260176   3.411   6.689   0.075
12921TIP3   OH260177   2.872   6.031   0.116
12921TIP3    H160178   2.842   6.025   0.209
12921TIP3    H260179   2.849   5.942   0.087
12922TIP3   OH260180   2.456   6.303   1.172
12922TIP3    H160181   2.381   6.301   1.234
12922TIP3    H260182   2.451   6.394   1.134
12923TIP3   OH260183   2.451   6.314   0.658
12923TIP3    H160184   2.357   6.289   0.645
12923TIP3    H260185   2.489   6.286   0.572
12924TIP3   OH260186   3.004   6.364   0.531
12924TIP3    H160187   2.963   6.448   0.499
12924TIP3    H260188   3.074   6.348   0.465
12925TIP3   OH260189   2.906   6.389   1.659
12925TIP3    H160190   2.857   6.315   1.704
12925TIP3    H260191   2.984   6.379   1.720
12926TIP3   OH260192   3.107   6.314   0.820
12926TIP3    H160193   3.078   6.370   0.746
12926TIP3    H260194   3.116   6.229   0.773
12927TIP3   OH260195   2.218   6.327   1.340
12927TIP3    H160196   2.227   6.371   1.425
12927TIP3    H260197   2.173   6.243   1.359
12928TIP3   OH260198   2.576   6.097   0.064
12928TIP3    H160199   2.520   6.031   0.109
12928TIP3    H260200   2.521   6.131  -0.008
12929TIP3   OH260201   1.882   6.035   0.739
12929TIP3    H160202   1.950   6.037   0.810
12929TIP3    H260203   1.930   6.006   0.661
12930TIP3   OH260204   2.011   6.112   0.279
12930TIP3    H160205   2.062   6.169   0.217
12930TIP3    H260206   1.942   6.176   0.304
12931TIP3   OH260207   3.026   6.472   1.274
12931TIP3    H160208   3.063   6.403   1.215
12931TIP3    H260209   2.981   6.420   1.343
12932TIP3   OH260210   2.707   6.071   0.758
12932TIP3    H160211   2.614   6.070   0.787
12932TIP3    H260212   2.755   6.053   0.840
12933TIP3   OH260213   2.186   6.223   0.647
12933TIP3    H160214   2.099   6.242   0.605
12933TIP3    H260215   2.218   6.142   0.603
12934TIP3   OH260216   2.551   6.233   0.410
12934TIP3    H160217   2.647   6.241   0.425
12934TIP3    H260218   2.529   6.296   0.340
12935TIP3   OH260219   3.148   5.993   1.081
12935TIP3    H160220   3.081   5.999   1.153
12935TIP3    H260221   3.095   5.968   1.004
12936TIP3   OH260222   2.422   6.348   0.167
12936TIP3    H160223   2.365   6.312   0.097
12936TIP3    H260224   2.504   6.368   0.119
12937TIP3   OH260225   2.235   6.807   1.672
12937TIP3    H160226   2.307   6.832   1.732
12937TIP3    H260227   2.158   6.814   1.732
12938TIP3   OH260228   2.835   6.346   0.948
12938TIP3    H160229   2.895   6.292   0.894
12938TIP3    H260230   2.820   6.291   1.026
12939TIP3   OH260231   2.332   5.959   0.589
12939TIP3    H160232   2.310   5.864   0.592
12939TIP3    H260233   2.415   5.955   0.538
12940TIP3   OH260234   2.699   6.178   1.189
12940TIP3    H160235   2.616   6.230   1.198
12940TIP3    H260236   2.754   6.214   1.261
12941TIP3   OH260237   2.758   6.800   0.361
12941TIP3    H160238   2.678   6.754   0.327
12941TIP3    H260239   2.737   6.812   0.455
12942TIP3   OH260240   3.477   6.721   1.239
12942TIP3    H160241   3.533   6.771   1.177
12942TIP3    H260242   3.391   6.726   1.193
12943TIP3   OH260243   3.143   6.083   0.178
12943TIP3    H160244   3.049   6.097   0.159
12943TIP3    H260245   3.174   6.169   0.213
12944TIP3   OH260246   2.904   6.830   1.482
12944TIP3    H160247   2.872   6.786   1.562
12944TIP3    H260248   2.882   6.922   1.495
12945TIP3   OH260249   3.214   6.276   0.344
12945TIP3    H160250   3.304   6.260   0.378
12945TIP3    H260251   3.223   6.356   0.290
12946TIP3   OH260252   2.268   6.740   0.939
12946TIP3    H160253   2.337   6.733   0.869
12946TIP3    H260254   2.275   6.654   0.984
12947TIP3   OH260255   2.968   6.944   0.266
12947TIP3    H160256   2.934   7.031   0.295
12947TIP3    H260257   2.892   6.886   0.282
12948TIP3   OH260258   1.969   6.579   1.464
12948TIP3    H160259   1.980   6.538   1.551
12948TIP3    H260260   1.903   6.521   1.420
12949TIP3   OH260261   2.667   6.536   1.683
12949TIP3    H160262   2.640   6.505   1.595
12949TIP3    H260263   2.759   6.504   1.684
12950TIP3   OH260264   3.136   7.076   1.471
12950TIP3    H160265   3.042   7.083   1.453
12950TIP3    H260266   3.133   7.094   1.568
12951TIP3   OH260267   3.704   6.288   0.320
12951TIP3    H160268   3.646   6.257   0.249
12951TIP3    H260269   3.713   6.381   0.291
12952TIP3   OH260270   3.705   6.873   1.598
12952TIP3    H160271   3.615   6.897   1.562
12952TIP3    H260272   3.758   6.868   1.515
12953TIP3   OH260273   3.553   7.141   0.375
12953TIP3    H160274   3.487   7.074   0.387
12953TIP3    H260275   3.557   7.154   0.278
12954TIP3   OH260276   3.254   6.652   1.068
12954TIP3    H160277   3.160   6.631   1.057
12954TIP3    H260278   3.297   6.577   1.024
12955TIP3   OH260279   2.510   7.082   0.668
12955TIP3    H160280   2.556   7.166   0.661
12955TIP3    H260281   2.418   7.106   0.649
12956TIP3   OH260282   2.080   6.573   0.129
12956TIP3    H160283   2.141   6.633   0.175
12956TIP3    H260284   1.993   6.599   0.164
12957TIP3   OH260285   2.650   6.851   0.631
12957TIP3    H160286   2.618   6.943   0.637
12957TIP3    H260287   2.576   6.803   0.673
12958TIP3   OH260288   2.723   7.239   1.239
12958TIP3    H160289   2.738   7.334   1.232
12958TIP3    H260290   2.754   7.223   1.329
12959TIP3   OH260291   3.045   6.871   1.231
12959TIP3    H160292   3.011   6.849   1.321
12959TIP3    H260293   3.109   6.800   1.215
12960TIP3   OH260294   3.286   6.965   0.155
12960TIP3    H160295   3.302   6.923   0.240
12960TIP3    H260296   3.189   6.964   0.147
12961TIP3   OH260297   2.133   6.058   1.426
12961TIP3    H160298   2.041   6.087   1.414
12961TIP3    H260299   2.122   5.968   1.463
12962TIP3   OH260300   3.358   6.832   0.369
12962TIP3    H160301   3.334   6.755   0.424
12962TIP3    H260302   3.451   6.847   0.388
12963TIP3   OH260303   2.094   7.229   1.262
12963TIP3    H160304   2.123   7.138   1.266
12963TIP3    H260305   2.114   7.263   1.350
12964TIP3   OH260306   2.569   7.037   0.230
12964TIP3    H160307   2.593   6.983   0.306
12964TIP3    H260308   2.579   7.127   0.265
12965TIP3   OH260309   2.219   6.764   0.286
12965TIP3    H160310   2.151   6.806   0.343
12965TIP3    H260311   2.273   6.841   0.258
12966TIP3   OH260312   3.007   6.031   1.315
12966TIP3    H160313   3.076   6.039   1.382
12966TIP3    H260314   2.968   5.944   1.337
12967TIP3   OH260315   3.079   5.991   0.426
12967TIP3    H160316   3.105   6.036   0.343
12967TIP3    H260317   3.139   6.032   0.489
12968TIP3   OH260318   2.851   7.208   0.311
12968TIP3    H160319   2.767   7.255   0.311
12968TIP3    H260320   2.905   7.253   0.243
12969TIP3   OH260321   2.802   6.163   0.506
12969TIP3    H160322   2.881   6.221   0.509
12969TIP3    H260323   2.776   6.152   0.599
12970TIP3   OH260324   2.859   6.267   1.422
12970TIP3    H160325   2.865   6.321   1.505
12970TIP3    H260326   2.924   6.197   1.437
12971TIP3   OH260327   2.888   5.869   0.594
12971TIP3    H160328   2.856   5.934   0.658
12971TIP3    H260329   2.958   5.924   0.550
12972TIP3   OH260330   2.590   0.007   0.305
12972TIP3    H160331   2.601   0.091   0.261
12972TIP3    H260332   2.565   0.037   0.394
12973TIP3   OH260333   2.452   5.978   0.273
12973TIP3    H160334   2.448   6.071   0.305
12973TIP3    H260335   2.544   5.956   0.298
12974TIP3   OH260336   3.477   6.053   1.513
12974TIP3    H160337   3.384   6.084   1.499
12974TIP3    H260338   3.506   6.051   1.420
12975TIP3   OH260339   3.338   6.432   0.911
12975TIP3    H160340   3.256   6.386   0.885
12975TIP3    H260341   3.386   6.363   0.963
12976TIP3   OH260342   2.279   7.022   0.173
12976TIP3    H160343   2.343   7.088   0.199
12976TIP3    H260344   2.329   6.981   0.100
12977TIP3   OH260345   2.117   6.293   0.090
12977TIP3    H160346   2.114   6.389   0.102
12977TIP3    H260347   2.030   6.273   0.056
12978TIP3   OH260348   2.193   5.769   0.959
12978TIP3    H160349   2.174   5.772   0.863
12978TIP3    H260350   2.152   5.683   0.985
12979TIP3   OH260351   2.091   7.162   0.570
12979TIP3    H160352   2.004   7.204   0.570
12979TIP3    H260353   2.139   7.211   0.502
12980TIP3   OH260354   2.506   7.287   1.884
12980TIP3    H160355   2.591   7.247   1.902
12980TIP3    H260356   2.498   7.273   1.788
12981TIP3   OH260357   2.929   7.297   0.066
12981TIP3    H160358   2.849   7.243   0.060
12981TIP3    H260359   2.984   7.245   0.002
12982TIP3   OH260360   3.137   7.119   1.723
12982TIP3    H160361   3.089   7.052   1.774
12982TIP3    H260362   3.197   7.156   1.789
12983TIP3   OH260363   3.356   7.255   0.044
12983TIP3    H160364   3.364   7.163   0.075
12983TIP3    H260365   3.421   7.254  -0.028
12984TIP3   OH260366   2.002   6.803   1.801
12984TIP3    H160367   2.015   6.712   1.769
12984TIP3    H260368   1.927   6.833   1.745
12985TIP3   OH260369   2.445   6.841   0.017
12985TIP3    H160370   2.453   6.759   0.065
12985TIP3    H260371   2.501   6.822  -0.060
12986TIP3   OH260372   2.675   6.802   1.740
12986TIP3    H160373   2.638   6.832   1.654
12986TIP3    H260374   2.681   6.703   1.730
12987TIP3   OH260375   3.242   6.791   1.476
12987TIP3    H160376   3.321   6.848   1.470
12987TIP3    H260377   3.172   6.857   1.483
12988TIP3   OH260378   2.078   6.538   1.743
12988TIP3    H160379   2.147   6.476   1.735
12988TIP3    H260380   2.063   6.540   1.840
12989TIP3   OH260381   2.556   6.642   0.246
12989TIP3    H160382   2.506   6.587   0.309
12989TIP3    H260383   2.588   6.575   0.182
12990TIP3   OH260384   2.479   6.421   1.475
12990TIP3    H160385   2.424   6.497   1.499
12990TIP3    H260386   2.523   6.457   1.395
12991TIP3   OH260387   2.666   6.459   0.066
12991TIP3    H160388   2.653   6.448  -0.030
12991TIP3    H260389   2.764   6.468   0.075
12992TIP3   OH260390   2.990   6.679   1.808
12992TIP3    H160391   3.086   6.676   1.799
12992TIP3    H260392   2.972   6.603   1.866
12993TIP3   OH260393   3.581   6.714  16.018
12993TIP3    H160394   3.571   6.661  15.936
12993TIP3    H260395   3.599   6.804  15.988
12994TIP3   OH260396   2.512   6.159   1.579
12994TIP3    H160397   2.538   6.089   1.515
12994TIP3    H260398   2.522   6.241   1.526
12995TIP3   OH260399   2.564   5.997   1.336
12995TIP3    H160400   2.614   6.044   1.265
12995TIP3    H260401   2.474   5.990   1.296
12996TIP3   OH260402   2.717   6.547   1.360
12996TIP3    H160403   2.793   6.530   1.303
12996TIP3    H260404   2.681   6.630   1.326
12997TIP3   OH260405   3.218   6.329   1.819
12997TIP3    H160406   3.185   6.244   1.856
12997TIP3    H260407   3.279   6.367   1.880
12998TIP3   OH260408   3.293   6.604   1.672
12998TIP3    H160409   3.266   6.675   1.610
12998TIP3    H260410   3.388   6.600   1.653
12999TIP3   OH260411   2.362   6.287   1.765
12999TIP3    H160412   2.303   6.209   1.761
12999TIP3    H260413   2.439   6.251   1.715
13000TIP3   OH260414   2.641   5.742   1.375
13000TIP3    H160415   2.623   5.838   1.365
13000TIP3    H260416   2.567   5.705   1.324
13001TIP3   OH260417   2.757   6.166   1.719
13001TIP3    H160418   2.745   6.156   1.817
13001TIP3    H260419   2.672   6.149   1.680
13002TIP3   OH260420   3.040   6.076   1.636
13002TIP3    H160421   2.948   6.098   1.660
13002TIP3    H260422   3.068   6.030   1.718
13003TIP3   OH260423   3.211   5.951   1.842
13003TIP3    H160424   3.191   5.855   1.840
13003TIP3    H260425   3.170   5.982   1.925
13004TIP3   OH260426   2.177   6.081   1.748
13004TIP3    H160427   2.201   6.005   1.690
13004TIP3    H260428   2.168   6.033   1.834
13005TIP3   OH260429   2.664   5.680   1.645
13005TIP3    H160430   2.731   5.609   1.644
13005TIP3    H260431   2.653   5.695   1.549
13006TIP3   OH260432   2.696   5.838   1.858
13006TIP3    H160433   2.683   5.792   1.772
13006TIP3    H260434   2.644   5.920   1.847
13007TIP3   OH260435   2.005   6.989   0.122
13007TIP3    H160436   2.100   7.005   0.143
13007TIP3    H260437   2.011   6.933   0.044
13008TIP3   OH260438   3.517   6.954   1.859
13008TIP3    H160439   3.428   6.951   1.899
13008TIP3    H260440   3.557   7.033   1.903
13009TIP3   OH260441   3.651   6.783   0.401
13009TIP3    H160442   3.734   6.829   0.425
13009TIP3    H260443   3.648   6.714   0.471
13010TIP3   OH260444   3.685   6.595   0.591
13010TIP3    H160445   3.610   6.543   0.629
13010TIP3    H260446   3.745   6.607   0.668
13011TIP3   OH260447   3.662   6.863   1.093
13011TIP3    H160448   3.742   6.826   1.053
13011TIP3    H260449   3.676   6.958   1.075
13012TIP3   OH260450   3.511   7.152   1.322
13012TIP3    H160451   3.441   7.190   1.376
13012TIP3    H260452   3.461   7.116   1.245
13013TIP3   OH260453   3.717   6.579   0.231
13013TIP3    H160454   3.656   6.614   0.163
13013TIP3    H260455   3.708   6.648   0.299
13014TIP3   OH260456   3.509   6.301   0.094
13014TIP3    H160457   3.554   6.362   0.033
13014TIP3    H260458   3.532   6.219   0.050
13015TIP3   OH260459   3.468   6.442   0.649
13015TIP3    H160460   3.453   6.346   0.644
13015TIP3    H260461   3.435   6.462   0.738
13016TIP3   OH260462   1.968   6.650   1.054
13016TIP3    H160463   1.986   6.642   0.958
13016TIP3    H260464   2.057   6.632   1.090
13017TIP3   OH260465   3.553   6.638   1.618
13017TIP3    H160466   3.614   6.562   1.631
13017TIP3    H260467   3.613   6.715   1.618
13018TIP3   OH260468   3.703   6.427   1.685
13018TIP3    H160469   3.615   6.388   1.664
13018TIP3    H260470   3.760   6.349   1.673
13019TIP3   OH260471   3.433   6.200   0.496
13019TIP3    H160472   3.464   6.107   0.507
13019TIP3    H260473   3.512   6.240   0.457
13020TIP3   OH260474   3.497   6.257   1.039
13020TIP3    H160475   3.594   6.274   1.037
13020TIP3    H260476   3.480   6.267   1.134
13021TIP3   OH260477   3.505   6.327   1.316
13021TIP3    H160478   3.416   6.355   1.349
13021TIP3    H260479   3.548   6.413   1.294
13022TIP3   OH260480   1.936   6.181   1.675
13022TIP3    H160481   2.023   6.142   1.689
13022TIP3    H260482   1.880   6.101   1.694
13023TIP3   OH260483   3.733   5.735   1.851
13023TIP3    H160484   3.766   5.666   1.790
13023TIP3    H260485   3.743   5.813   1.794
13024TIP3   OH260486   3.494   5.934   0.489
13024TIP3    H160487   3.524   5.890   0.574
13024TIP3    H260488   3.439   5.863   0.452
13025TIP3   OH260489   2.050   6.008   0.952
13025TIP3    H160490   2.096   5.927   0.982
13025TIP3    H260491   2.104   6.078   0.993
13026TIP3   OH260492   1.878   6.309   1.058
13026TIP3    H160493   1.934   6.284   0.982
13026TIP3    H260494   1.925   6.390   1.085
13027TIP3   OH260495   3.683   5.943   1.688
13027TIP3    H160496   3.590   5.970   1.677
13027TIP3    H260497   3.689   5.888   1.608
13028TIP3   OH260498   3.684   5.935   0.153
13028TIP3    H160499   3.724   5.863   0.103
13028TIP3    H260500   3.756   5.999   0.156
13029TIP3   OH260501   1.912   5.935   0.462
13029TIP3    H160502   1.818   5.960   0.451
13029TIP3    H260503   1.954   5.991   0.393
13030TIP3   OH260504   1.909   5.800   1.295
13030TIP3    H160505   1.843   5.781   1.363
13030TIP3    H260506   1.864   5.868   1.241
13031TIP3   OH260507   2.133   7.128   1.713
13031TIP3    H160508   2.048   7.140   1.667
13031TIP3    H260509   2.105   7.110   1.804
13032TIP3   OH260510   2.427   7.220   1.347
13032TIP3    H160511   2.383   7.298   1.309
13032TIP3    H260512   2.513   7.218   1.302
13033TIP3   OH260513   3.584   5.750   1.474
13033TIP3    H160514   3.504   5.782   1.429
13033TIP3    H260515   3.604   5.671   1.419
13034TIP3   OH260516   2.343   7.255   0.876
13034TIP3    H160517   2.305   7.179   0.922
13034TIP3    H260518   2.401   7.292   0.945
13035TIP3   OH260519   2.925   5.895   0.899
13035TIP3    H160520   2.858   5.830   0.928
13035TIP3    H260521   2.981   5.841   0.842
13036TIP3   OH260522   3.438   5.697   0.903
13036TIP3    H160523   3.503   5.759   0.861
13036TIP3    H260524   3.352   5.737   0.883
13037TIP3   OH260525   3.590   5.819   0.694
13037TIP3    H160526   3.668   5.760   0.689
13037TIP3    H260527   3.636   5.890   0.746
13038TIP3   OH260528   2.167   5.757   0.682
13038TIP3    H160529   2.081   5.728   0.654
13038TIP3    H260530   2.214   5.671   0.686
13039TIP3   OH260531   2.043   5.736   0.269
13039TIP3    H160532   2.088   5.792   0.201
13039TIP3    H260533   1.973   5.798   0.296
13040TIP3   OH260534   2.609   5.749   0.664
13040TIP3    H160535   2.699   5.785   0.656
13040TIP3    H260536   2.606   5.728   0.757
13041TIP3   OH260537   3.176   5.752   0.826
13041TIP3    H160538   3.178   5.763   0.730
13041TIP3    H260539   3.141   5.660   0.838
13042TIP3   OH260540   3.307   5.753   0.391
13042TIP3    H160541   3.233   5.814   0.376
13042TIP3    H260542   3.263   5.668   0.414
13043TIP3   OH260543   2.222   5.913   0.115
13043TIP3    H160544   2.277   5.866   0.052
13043TIP3    H260545   2.288   5.961   0.168
13044TIP3   OH260546   2.724   5.950   0.349
13044TIP3    H160547   2.751   5.894   0.423
13044TIP3    H260548   2.731   6.037   0.394
13045TIP3   OH260549   2.150   5.814   1.632
13045TIP3    H160550   2.112   5.732   1.669
13045TIP3    H260551   2.242   5.805   1.668
13046TIP3   OH260552   2.351   5.748   1.794
13046TIP3    H160553   2.440   5.715   1.773
13046TIP3    H260554   2.313   5.668   1.835
13047TIP3   OH260555   3.191   5.679   1.809
13047TIP3    H160556   3.200   5.632   1.894
13047TIP3    H260557   3.283   5.675   1.775
13048TIP3   OH260558   3.494  -0.024   1.689
13048TIP3    H160559   3.432  -0.037   1.617
13048TIP3    H260560   3.508   0.072   1.689
13049TIP3   OH260561   4.950   6.670   0.675
13049TIP3    H160562   4.959   6.768   0.667
13049TIP3    H260563   4.893   6.644   0.603
13050TIP3   OH260564   4.839   6.597   1.020
13050TIP3    H160565   4.842   6.533   1.093
13050TIP3    H260566   4.807   6.543   0.946
13051TIP3   OH260567   4.078   6.564   1.175
13051TIP3    H160568   4.086   6.496   1.245
13051TIP3    H260569   4.152   6.622   1.198
13052TIP3   OH260570   5.210   6.890   0.850
13052TIP3    H160571   5.170   6.819   0.900
13052TIP3    H260572   5.214   6.962   0.916
13053TIP3   OH260573   4.172   7.009   1.029
13053TIP3    H160574   4.138   6.924   0.995
13053TIP3    H260575   4.267   6.990   1.029
13054TIP3   OH260576   3.835   6.365   0.575
13054TIP3    H160577   3.790   6.450   0.570
13054TIP3    H260578   3.778   6.310   0.519
13055TIP3   OH260579   3.905   6.589   0.790
13055TIP3    H160580   3.932   6.506   0.834
13055TIP3    H260581   3.974   6.598   0.722
13056TIP3   OH260582   4.678   6.835   1.067
13056TIP3    H160583   4.715   6.771   1.004
13056TIP3    H260584   4.758   6.855   1.119
13057TIP3   OH260585   5.538   6.004   1.141
13057TIP3    H160586   5.557   6.062   1.217
13057TIP3    H260587   5.595   6.043   1.073
13058TIP3   OH260588   4.996   6.283   1.099
13058TIP3    H160589   5.013   6.187   1.100
13058TIP3    H260590   4.986   6.297   1.003
13059TIP3   OH260591   4.308   6.092   0.820
13059TIP3    H160592   4.318   6.175   0.771
13059TIP3    H260593   4.265   6.035   0.753
13060TIP3   OH260594   5.082   6.100   0.657
13060TIP3    H160595   5.146   6.069   0.725
13060TIP3    H260596   5.139   6.157   0.603
13061TIP3   OH260597   3.974   6.337   0.893
13061TIP3    H160598   4.035   6.277   0.939
13061TIP3    H260599   3.979   6.300   0.804
13062TIP3   OH260600   4.490   6.490   0.823
13062TIP3    H160601   4.552   6.429   0.868
13062TIP3    H260602   4.434   6.423   0.777
13063TIP3   OH260603   5.583   6.143   1.368
13063TIP3    H160604   5.523   6.219   1.357
13063TIP3    H260605   5.586   6.135   1.464
13064TIP3   OH260606   4.200   5.984   1.226
13064TIP3    H160607   4.170   6.037   1.149
13064TIP3    H260608   4.130   6.005   1.292
13065TIP3   OH260609   4.915   6.923   0.580
13065TIP3    H160610   4.908   6.909   0.484
13065TIP3    H260611   4.900   7.021   0.586
13066TIP3   OH260612   4.449   6.744   1.250
13066TIP3    H160613   4.379   6.809   1.271
13066TIP3    H260614   4.520   6.804   1.220
13067TIP3   OH260615   5.260   6.037   0.858
13067TIP3    H160616   5.240   5.958   0.910
13067TIP3    H260617   5.332   6.077   0.910
13068TIP3   OH260618   4.160   6.172   1.031
13068TIP3    H160619   4.224   6.239   1.060
13068TIP3    H260620   4.206   6.128   0.955
13069TIP3   OH260621   4.296   6.947   1.329
13069TIP3    H160622   4.289   7.037   1.294
13069TIP3    H260623   4.207   6.938   1.372
13070TIP3   OH260624   3.900   6.913   0.410
13070TIP3    H160625   3.878   6.945   0.320
13070TIP3    H260626   3.908   6.996   0.461
13071TIP3   OH260627   5.264   7.077   1.091
13071TIP3    H160628   5.166   7.085   1.100
13071TIP3    H260629   5.292   7.166   1.064
13072TIP3   OH260630   5.296   5.903   1.225
13072TIP3    H160631   5.223   5.967   1.215
13072TIP3    H260632   5.367   5.945   1.172
13073TIP3   OH260633   4.592   5.716   0.971
13073TIP3    H160634   4.578   5.619   0.963
13073TIP3    H260635   4.504   5.746   1.002
13074TIP3   OH260636   5.093   7.224   0.724
13074TIP3    H160637   5.149   7.161   0.676
13074TIP3    H260638   5.133   7.307   0.702
13075TIP3   OH260639   5.218   7.038   0.593
13075TIP3    H160640   5.181   6.972   0.532
13075TIP3    H260641   5.213   6.992   0.680
13076TIP3   OH260642   5.373   6.909   1.447
13076TIP3    H160643   5.386   6.842   1.377
13076TIP3    H260644   5.395   6.992   1.400
13077TIP3   OH260645   4.821   6.602   0.421
13077TIP3    H160646   4.756   6.650   0.365
13077TIP3    H260647   4.895   6.598   0.356
13078TIP3   OH260648   4.822   6.446   0.135
13078TIP3    H160649   4.903   6.450   0.189
13078TIP3    H260650   4.855   6.387   0.067
13079TIP3   OH260651   5.561   6.537   1.250
13079TIP3    H160652   5.495   6.609   1.254
13079TIP3    H260653   5.611   6.560   1.169
13080TIP3   OH260654   5.164   6.615   0.516
13080TIP3    H160655   5.093   6.639   0.579
13080TIP3    H260656   5.216   6.549   0.566
13081TIP3   OH260657   5.160   6.432   1.427
13081TIP3    H160658   5.160   6.514   1.479
13081TIP3    H260659   5.097   6.461   1.357
13082TIP3   OH260660   4.334   6.682   0.703
13082TIP3    H160661   4.293   6.641   0.623
13082TIP3    H260662   4.386   6.609   0.741
13083TIP3   OH260663   4.461   7.022   0.972
13083TIP3    H160664   4.459   6.967   0.894
13083TIP3    H260665   4.537   6.985   1.021
13084TIP3   OH260666   4.360   6.556   1.073
13084TIP3    H160667   4.415   6.565   0.993
13084TIP3    H260668   4.400   6.622   1.133
13085TIP3   OH260669   5.005   7.113   1.144
13085TIP3    H160670   4.969   7.176   1.206
13085TIP3    H260671   4.976   7.027   1.184
13086TIP3   OH260672   4.456   7.000   1.542
13086TIP3    H160673   4.413   7.074   1.590
13086TIP3    H260674   4.389   6.977   1.472
13087TIP3   OH260675   5.051   6.537   0.284
13087TIP3    H160676   5.111   6.552   0.362
13087TIP3    H260677   5.096   6.587   0.213
13088TIP3   OH260678   4.150   6.615   1.457
13088TIP3    H160679   4.156   6.682   1.528
13088TIP3    H260680   4.056   6.623   1.436
13089TIP3   OH260681   4.819   7.203   0.631
13089TIP3    H160682   4.871   7.237   0.704
13089TIP3    H260683   4.772   7.282   0.601
13090TIP3   OH260684   4.279   7.194   1.615
13090TIP3    H160685   4.271   7.191   1.517
13090TIP3    H260686   4.185   7.188   1.642
13091TIP3   OH260687   5.402   5.709   0.237
13091TIP3    H160688   5.324   5.724   0.295
13091TIP3    H260689   5.447   5.795   0.235
13092TIP3   OH260690   4.227   6.584   0.466
13092TIP3    H160691   4.195   6.662   0.414
13092TIP3    H260692   4.160   6.518   0.445
13093TIP3   OH260693   5.541   7.139   0.115
13093TIP3    H160694   5.544   7.235   0.115
13093TIP3    H260695   5.633   7.113   0.099
13094TIP3   OH260696   3.833   6.827   1.358
13094TIP3    H160697   3.790   6.818   1.271
13094TIP3    H260698   3.842   6.732   1.379
13095TIP3   OH260699   3.813   7.096   1.039
13095TIP3    H160700   3.909   7.091   1.030
13095TIP3    H260701   3.804   7.179   1.088
13096TIP3   OH260702   5.632   7.170   1.611
13096TIP3    H160703   5.621   7.074   1.599
13096TIP3    H260704   5.543   7.196   1.643
13097TIP3   OH260705   4.728   7.126   1.489
13097TIP3    H160706   4.738   7.207   1.540
13097TIP3    H260707   4.644   7.086   1.517
13098TIP3   OH260708   5.349   6.317   1.651
13098TIP3    H160709   5.301   6.362   1.579
13098TIP3    H260710   5.347   6.225   1.620
13099TIP3   OH260711   4.063   6.960   1.451
13099TIP3    H160712   4.084   6.921   1.539
13099TIP3    H260713   3.976   6.920   1.429
13100TIP3   OH260714   4.331   5.805   1.047
13100TIP3    H160715   4.241   5.792   1.010
13100TIP3    H260716   4.318   5.889   1.095
13101TIP3   OH260717   4.795   5.772   1.382
13101TIP3    H160718   4.834   5.730   1.461
13101TIP3    H260719   4.698   5.761   1.397
13102TIP3   OH260720   5.124   6.157   1.472
13102TIP3    H160721   5.067   6.136   1.551
13102TIP3    H260722   5.105   6.250   1.450
13103TIP3   OH260723   5.209   6.645   0.069
13103TIP3    H160724   5.207   6.626  -0.026
13103TIP3    H260725   5.297   6.687   0.076
13104TIP3   OH260726   4.758   6.031   0.116
13104TIP3    H160727   4.728   6.025   0.209
13104TIP3    H260728   4.735   5.942   0.087
13105TIP3   OH260729   4.342   6.304   1.173
13105TIP3    H160730   4.266   6.302   1.235
13105TIP3    H260731   4.336   6.395   1.134
13106TIP3   OH260732   4.339   6.318   0.657
13106TIP3    H160733   4.245   6.291   0.645
13106TIP3    H260734   4.375   6.285   0.572
13107TIP3   OH260735   4.891   6.367   0.532
13107TIP3    H160736   4.850   6.447   0.496
13107TIP3    H260737   4.960   6.346   0.466
13108TIP3   OH260738   4.794   6.386   1.679
13108TIP3    H160739   4.742   6.308   1.710
13108TIP3    H260740   4.878   6.374   1.726
13109TIP3   OH260741   4.991   6.315   0.820
13109TIP3    H160742   4.965   6.370   0.745
13109TIP3    H260743   5.002   6.230   0.773
13110TIP3   OH260744   4.103   6.328   1.339
13110TIP3    H160745   4.111   6.369   1.427
13110TIP3    H260746   4.059   6.244   1.360
13111TIP3   OH260747   4.462   6.097   0.063
13111TIP3    H160748   4.406   6.032   0.109
13111TIP3    H260749   4.406   6.130  -0.008
13112TIP3   OH260750   3.784   6.068   0.720
13112TIP3    H160751   3.822   6.033   0.804
13112TIP3    H260752   3.812   5.998   0.658
13113TIP3   OH260753   3.897   6.113   0.273
13113TIP3    H160754   3.948   6.172   0.215
13113TIP3    H260755   3.827   6.174   0.304
13114TIP3   OH260756   4.912   6.472   1.275
13114TIP3    H160757   4.950   6.404   1.216
13114TIP3    H260758   4.865   6.420   1.342
13115TIP3   OH260759   4.592   6.070   0.758
13115TIP3    H160760   4.499   6.071   0.787
13115TIP3    H260761   4.640   6.053   0.840
13116TIP3   OH260762   4.077   6.228   0.640
13116TIP3    H160763   3.984   6.239   0.609
13116TIP3    H260764   4.099   6.140   0.607
13117TIP3   OH260765   4.436   6.235   0.412
13117TIP3    H160766   4.533   6.239   0.424
13117TIP3    H260767   4.414   6.295   0.338
13118TIP3   OH260768   5.032   5.994   1.083
13118TIP3    H160769   4.964   5.999   1.153
13118TIP3    H260770   4.982   5.968   1.004
13119TIP3   OH260771   4.308   6.348   0.167
13119TIP3    H160772   4.251   6.312   0.097
13119TIP3    H260773   4.390   6.368   0.119
13120TIP3   OH260774   4.120   6.809   1.672
13120TIP3    H160775   4.193   6.829   1.733
13120TIP3    H260776   4.043   6.812   1.732
13121TIP3   OH260777   4.721   6.347   0.945
13121TIP3    H160778   4.781   6.291   0.895
13121TIP3    H260779   4.706   6.293   1.025
13122TIP3   OH260780   4.222   5.960   0.593
13122TIP3    H160781   4.189   5.868   0.592
13122TIP3    H260782   4.300   5.952   0.537
13123TIP3   OH260783   4.584   6.179   1.189
13123TIP3    H160784   4.502   6.230   1.198
13123TIP3    H260785   4.640   6.214   1.261
13124TIP3   OH260786   4.644   6.794   0.364
13124TIP3    H160787   4.563   6.756   0.320
13124TIP3    H260788   4.607   6.832   0.444
13125TIP3   OH260789   5.362   6.721   1.239
13125TIP3    H160790   5.418   6.771   1.177
13125TIP3    H260791   5.276   6.726   1.193
13126TIP3   OH260792   5.029   6.084   0.177
13126TIP3    H160793   4.935   6.097   0.159
13126TIP3    H260794   5.060   6.169   0.213
13127TIP3   OH260795   4.790   6.830   1.482
13127TIP3    H160796   4.757   6.786   1.562
13127TIP3    H260797   4.768   6.922   1.495
13128TIP3   OH260798   5.099   6.275   0.344
13128TIP3    H160799   5.190   6.260   0.378
13128TIP3    H260800   5.109   6.356   0.291
13129TIP3   OH260801   4.153   6.740   0.940
13129TIP3    H160802   4.221   6.734   0.871
13129TIP3    H260803   4.160   6.654   0.985
13130TIP3   OH260804   4.854   6.945   0.268
13130TIP3    H160805   4.819   7.032   0.295
13130TIP3    H260806   4.778   6.886   0.280
13131TIP3   OH260807   3.854   6.578   1.465
13131TIP3    H160808   3.870   6.536   1.551
13131TIP3    H260809   3.791   6.518   1.421
13132TIP3   OH260810   4.554   6.537   1.683
13132TIP3    H160811   4.522   6.505   1.597
13132TIP3    H260812   4.647   6.504   1.683
13133TIP3   OH260813   5.021   7.076   1.471
13133TIP3    H160814   4.927   7.083   1.453
13133TIP3    H260815   5.019   7.094   1.568
13134TIP3   OH260816   5.590   6.287   0.320
13134TIP3    H160817   5.532   6.257   0.249
13134TIP3    H260818   5.599   6.381   0.292
13135TIP3   OH260819   5.591   6.872   1.597
13135TIP3    H160820   5.501   6.896   1.562
13135TIP3    H260821   5.644   6.867   1.514
13136TIP3   OH260822   5.429   7.159   0.369
13136TIP3    H160823   5.381   7.079   0.391
13136TIP3    H260824   5.443   7.147   0.271
13137TIP3   OH260825   5.140   6.653   1.067
13137TIP3    H160826   5.046   6.632   1.056
13137TIP3    H260827   5.183   6.577   1.024
13138TIP3   OH260828   4.397   7.081   0.665
13138TIP3    H160829   4.440   7.167   0.662
13138TIP3    H260830   4.304   7.106   0.650
13139TIP3   OH260831   3.966   6.573   0.129
13139TIP3    H160832   4.027   6.633   0.175
13139TIP3    H260833   3.878   6.599   0.164
13140TIP3   OH260834   4.533   6.851   0.632
13140TIP3    H160835   4.501   6.945   0.638
13140TIP3    H260836   4.457   6.807   0.675
13141TIP3   OH260837   4.609   7.238   1.239
13141TIP3    H160838   4.623   7.334   1.232
13141TIP3    H260839   4.640   7.223   1.329
13142TIP3   OH260840   4.931   6.871   1.232
13142TIP3    H160841   4.897   6.849   1.321
13142TIP3    H260842   4.994   6.799   1.215
13143TIP3   OH260843   5.163   6.973   0.146
13143TIP3    H160844   5.191   6.927   0.227
13143TIP3    H260845   5.067   6.961   0.151
13144TIP3   OH260846   4.018   6.054   1.421
13144TIP3    H160847   3.927   6.088   1.416
13144TIP3    H260848   4.007   5.970   1.466
13145TIP3   OH260849   5.243   6.836   0.367
13145TIP3    H160850   5.220   6.758   0.420
13145TIP3    H260851   5.337   6.846   0.387
13146TIP3   OH260852   3.980   7.229   1.262
13146TIP3    H160853   4.009   7.137   1.267
13146TIP3    H260854   4.000   7.263   1.350
13147TIP3   OH260855   4.455   7.037   0.230
13147TIP3    H160856   4.476   6.985   0.307
13147TIP3    H260857   4.464   7.129   0.264
13148TIP3   OH260858   4.105   6.764   0.286
13148TIP3    H160859   4.036   6.806   0.343
13148TIP3    H260860   4.158   6.841   0.259
13149TIP3   OH260861   4.891   6.031   1.317
13149TIP3    H160862   4.963   6.037   1.381
13149TIP3    H260863   4.853   5.944   1.337
13150TIP3   OH260864   4.964   5.991   0.425
13150TIP3    H160865   4.991   6.036   0.343
13150TIP3    H260866   5.024   6.031   0.489
13151TIP3   OH260867   4.735   7.203   0.309
13151TIP3    H160868   4.653   7.253   0.314
13151TIP3    H260869   4.789   7.255   0.246
13152TIP3   OH260870   4.686   6.167   0.506
13152TIP3    H160871   4.768   6.220   0.509
13152TIP3    H260872   4.662   6.149   0.599
13153TIP3   OH260873   4.744   6.266   1.426
13153TIP3    H160874   4.752   6.322   1.506
13153TIP3    H260875   4.810   6.196   1.436
13154TIP3   OH260876   4.773   5.869   0.593
13154TIP3    H160877   4.741   5.933   0.660
13154TIP3    H260878   4.843   5.924   0.550
13155TIP3   OH260879   4.475   0.007   0.305
13155TIP3    H160880   4.486   0.091   0.261
13155TIP3    H260881   4.451   0.037   0.395
13156TIP3   OH260882   4.339   5.979   0.270
13156TIP3    H160883   4.333   6.070   0.305
13156TIP3    H260884   4.430   5.956   0.298
13157TIP3   OH260885   5.362   6.053   1.511
13157TIP3    H160886   5.269   6.084   1.498
13157TIP3    H260887   5.392   6.051   1.419
13158TIP3   OH260888   5.224   6.431   0.911
13158TIP3    H160889   5.141   6.387   0.885
13158TIP3    H260890   5.272   6.363   0.963
13159TIP3   OH260891   4.165   7.021   0.173
13159TIP3    H160892   4.229   7.089   0.197
13159TIP3    H260893   4.215   6.980   0.100
13160TIP3   OH260894   4.003   6.293   0.090
13160TIP3    H160895   4.000   6.389   0.102
13160TIP3    H260896   3.916   6.272   0.056
13161TIP3   OH260897   4.086   5.764   0.958
13161TIP3    H160898   4.056   5.775   0.865
13161TIP3    H260899   4.033   5.686   0.984
13162TIP3   OH260900   3.977   7.162   0.569
13162TIP3    H160901   3.889   7.204   0.570
13162TIP3    H260902   4.025   7.211   0.502
13163TIP3   OH260903   4.392   7.287   1.885
13163TIP3    H160904   4.477   7.247   1.902
13163TIP3    H260905   4.384   7.273   1.789
13164TIP3   OH260906   4.816   7.298   0.068
13164TIP3    H160907   4.734   7.246   0.062
13164TIP3    H260908   4.866   7.249   0.001
13165TIP3   OH260909   5.022   7.119   1.723
13165TIP3    H160910   4.974   7.052   1.774
13165TIP3    H260911   5.083   7.156   1.789
13166TIP3   OH260912   5.226   7.241   0.028
13166TIP3    H160913   5.256   7.163   0.077
13166TIP3    H260914   5.305   7.255  -0.028
13167TIP3   OH260915   3.887   6.802   1.801
13167TIP3    H160916   3.901   6.711   1.770
13167TIP3    H260917   3.813   6.832   1.744
13168TIP3   OH260918   4.331   6.843   0.018
13168TIP3    H160919   4.337   6.760   0.065
13168TIP3    H260920   4.387   6.821  -0.059
13169TIP3   OH260921   4.559   6.803   1.739
13169TIP3    H160922   4.523   6.833   1.653
13169TIP3    H260923   4.565   6.705   1.729
13170TIP3   OH260924   5.128   6.789   1.479
13170TIP3    H160925   5.206   6.848   1.472
13170TIP3    H260926   5.057   6.856   1.484
13171TIP3   OH260927   3.979   6.529   1.740
13171TIP3    H160928   4.021   6.443   1.729
13171TIP3    H260929   3.956   6.529   1.833
13172TIP3   OH260930   4.447   6.644   0.247
13172TIP3    H160931   4.390   6.589   0.305
13172TIP3    H260932   4.473   6.577   0.179
13173TIP3   OH260933   4.368   6.421   1.475
13173TIP3    H160934   4.308   6.494   1.500
13173TIP3    H260935   4.408   6.458   1.394
13174TIP3   OH260936   4.552   6.461   0.068
13174TIP3    H160937   4.538   6.448  -0.027
13174TIP3    H260938   4.650   6.467   0.074
13175TIP3   OH260939   4.875   6.678   1.809
13175TIP3    H160940   4.971   6.677   1.796
13175TIP3    H260941   4.858   6.601   1.866
13176TIP3   OH260942   5.463   6.714  16.018
13176TIP3    H160943   5.457   6.661  15.936
13176TIP3    H260944   5.488   6.803  15.988
13177TIP3   OH260945   4.408   6.159   1.581
13177TIP3    H160946   4.420   6.088   1.515
13177TIP3    H260947   4.404   6.240   1.526
13178TIP3   OH260948   4.449   5.997   1.336
13178TIP3    H160949   4.500   6.044   1.265
13178TIP3    H260950   4.360   5.990   1.296
13179TIP3   OH260951   4.603   6.546   1.360
13179TIP3    H160952   4.678   6.530   1.303
13179TIP3    H260953   4.566   6.629   1.327
13180TIP3   OH260954   5.042   6.321   1.856
13180TIP3    H160955   5.066   6.228   1.847
13180TIP3    H260956   5.129   6.366   1.860
13181TIP3   OH260957   5.176   6.601   1.673
13181TIP3    H160958   5.151   6.673   1.612
13181TIP3    H260959   5.272   6.599   1.655
13182TIP3   OH260960   4.255   6.284   1.773
13182TIP3    H160961   4.178   6.226   1.756
13182TIP3    H260962   4.320   6.247   1.711
13183TIP3   OH260963   4.527   5.741   1.375
13183TIP3    H160964   4.509   5.838   1.365
13183TIP3    H260965   4.453   5.704   1.325
13184TIP3   OH260966   4.654   6.174   1.738
13184TIP3    H160967   4.623   6.150   1.827
13184TIP3    H260968   4.576   6.153   1.684
13185TIP3   OH260969   4.927   6.088   1.647
13185TIP3    H160970   4.830   6.094   1.658
13185TIP3    H260971   4.953   6.024   1.716
13186TIP3   OH260972   5.085   5.950   1.837
13186TIP3    H160973   5.080   5.852   1.840
13186TIP3    H260974   5.060   5.979   1.927
13187TIP3   OH260975   4.062   6.077   1.748
13187TIP3    H160976   4.088   6.005   1.689
13187TIP3    H260977   4.055   6.032   1.835
13188TIP3   OH260978   4.549   5.680   1.645
13188TIP3    H160979   4.617   5.610   1.643
13188TIP3    H260980   4.538   5.695   1.549
13189TIP3   OH260981   4.585   5.842   1.857
13189TIP3    H160982   4.568   5.791   1.773
13189TIP3    H260983   4.525   5.918   1.847
13190TIP3   OH260984   3.893   6.989   0.121
13190TIP3    H160985   3.987   7.005   0.143
13190TIP3    H260986   3.898   6.933   0.044
13191TIP3   OH260987   5.403   6.954   1.858
13191TIP3    H160988   5.314   6.949   1.898
13191TIP3    H260989   5.442   7.033   1.903
13192TIP3   OH260990   5.536   6.786   0.403
13192TIP3    H160991   5.621   6.827   0.424
13192TIP3    H260992   5.533   6.715   0.471
13193TIP3   OH260993   5.571   6.594   0.591
13193TIP3    H160994   5.496   6.543   0.629
13193TIP3    H260995   5.630   6.607   0.668
13194TIP3   OH260996   5.547   6.863   1.093
13194TIP3    H160997   5.628   6.826   1.052
13194TIP3    H260998   5.561   6.958   1.075
13195TIP3   OH260999   5.396   7.152   1.322
13195TIP3    H161000   5.327   7.190   1.376
13195TIP3    H261001   5.346   7.116   1.245
13196TIP3   OH261002   5.602   6.578   0.231
13196TIP3    H161003   5.542   6.614   0.163
13196TIP3    H261004   5.593   6.648   0.299
13197TIP3   OH261005   5.395   6.301   0.094
13197TIP3    H161006   5.440   6.362   0.033
13197TIP3    H261007   5.418   6.219   0.050
13198TIP3   OH261008   5.353   6.442   0.648
13198TIP3    H161009   5.338   6.346   0.644
13198TIP3    H261010   5.320   6.463   0.738
13199TIP3   OH261011   3.854   6.650   1.055
13199TIP3    H161012   3.871   6.642   0.958
13199TIP3    H261013   3.943   6.632   1.090
13200TIP3   OH261014   5.439   6.638   1.617
13200TIP3    H161015   5.500   6.563   1.631
13200TIP3    H261016   5.500   6.716   1.618
13201TIP3   OH261017   5.589   6.426   1.683
13201TIP3    H161018   5.501   6.386   1.667
13201TIP3    H261019   5.646   6.348   1.675
13202TIP3   OH261020   5.319   6.201   0.495
13202TIP3    H161021   5.350   6.107   0.505
13202TIP3    H261022   5.398   6.240   0.457
13203TIP3   OH261023   5.384   6.254   1.039
13203TIP3    H161024   5.480   6.277   1.037
13203TIP3    H261025   5.365   6.268   1.133
13204TIP3   OH261026   5.391   6.326   1.318
13204TIP3    H161027   5.302   6.355   1.348
13204TIP3    H261028   5.434   6.412   1.295
13205TIP3   OH261029   3.815   6.180   1.676
13205TIP3    H161030   3.910   6.159   1.687
13205TIP3    H261031   3.771   6.095   1.694
13206TIP3   OH261032   5.618   5.733   1.851
13206TIP3    H161033   5.653   5.667   1.789
13206TIP3    H261034   5.628   5.814   1.797
13207TIP3   OH261035   5.381   5.931   0.499
13207TIP3    H161036   5.411   5.884   0.580
13207TIP3    H261037   5.327   5.864   0.454
13208TIP3   OH261038   3.967   6.020   0.940
13208TIP3    H161039   3.976   5.931   0.981
13208TIP3    H261040   3.996   6.082   1.006
13209TIP3   OH261041   3.763   6.311   1.058
13209TIP3    H161042   3.818   6.282   0.983
13209TIP3    H261043   3.812   6.390   1.084
13210TIP3   OH261044   5.570   5.942   1.686
13210TIP3    H161045   5.476   5.970   1.680
13210TIP3    H261046   5.573   5.887   1.607
13211TIP3   OH261047   5.570   5.938   0.154
13211TIP3    H161048   5.608   5.862   0.107
13211TIP3    H261049   5.643   6.000   0.153
13212TIP3   OH261050   3.798   5.932   0.461
13212TIP3    H161051   3.705   5.956   0.452
13212TIP3    H261052   3.842   5.986   0.394
13213TIP3   OH261053   3.795   5.802   1.296
13213TIP3    H161054   3.726   5.782   1.361
13213TIP3    H261055   3.750   5.866   1.237
13214TIP3   OH261056   4.018   7.127   1.713
13214TIP3    H161057   3.933   7.140   1.667
13214TIP3    H261058   3.991   7.110   1.804
13215TIP3   OH261059   4.313   7.220   1.346
13215TIP3    H161060   4.269   7.298   1.309
13215TIP3    H261061   4.399   7.218   1.302
13216TIP3   OH261062   5.472   5.752   1.471
13216TIP3    H161063   5.389   5.782   1.430
13216TIP3    H261064   5.488   5.669   1.420
13217TIP3   OH261065   4.229   7.255   0.876
13217TIP3    H161066   4.190   7.179   0.922
13217TIP3    H261067   4.287   7.292   0.945
13218TIP3   OH261068   4.810   5.895   0.899
13218TIP3    H161069   4.743   5.831   0.928
13218TIP3    H261070   4.866   5.841   0.842
13219TIP3   OH261071   5.324   5.701   0.910
13219TIP3    H161072   5.385   5.757   0.856
13219TIP3    H261073   5.236   5.735   0.883
13220TIP3   OH261074   5.483   5.834   0.732
13220TIP3    H161075   5.551   5.769   0.698
13220TIP3    H261076   5.542   5.912   0.745
13221TIP3   OH261077   4.051   5.757   0.683
13221TIP3    H161078   3.967   5.739   0.635
13221TIP3    H261079   4.092   5.669   0.680
13222TIP3   OH261080   3.923   5.732   0.258
13222TIP3    H161081   3.973   5.797   0.204
13222TIP3    H261082   3.868   5.789   0.315
13223TIP3   OH261083   4.495   5.749   0.663
13223TIP3    H161084   4.585   5.785   0.656
13223TIP3    H261085   4.491   5.728   0.756
13224TIP3   OH261086   5.066   5.752   0.825
13224TIP3    H161087   5.064   5.762   0.729
13224TIP3    H261088   5.029   5.660   0.838
13225TIP3   OH261089   5.191   5.756   0.393
13225TIP3    H161090   5.117   5.815   0.375
13225TIP3    H261091   5.150   5.669   0.414
13226TIP3   OH261092   4.108   5.917   0.111
13226TIP3    H161093   4.163   5.864   0.053
13226TIP3    H261094   4.172   5.960   0.170
13227TIP3   OH261095   4.610   5.950   0.349
13227TIP3    H161096   4.637   5.894   0.423
13227TIP3    H261097   4.616   6.037   0.394
13228TIP3   OH261098   4.036   5.811   1.630
13228TIP3    H161099   3.998   5.731   1.670
13228TIP3    H261100   4.127   5.807   1.668
13229TIP3   OH261101   4.236   5.750   1.795
13229TIP3    H161102   4.325   5.716   1.773
13229TIP3    H261103   4.199   5.669   1.835
13230TIP3   OH261104   5.077   5.679   1.810
13230TIP3    H161105   5.086   5.631   1.894
13230TIP3    H261106   5.169   5.675   1.775
13231TIP3   OH261107   5.380  -0.024   1.689
13231TIP3    H161108   5.317  -0.037   1.617
13231TIP3    H261109   5.394   0.072   1.689
13232TIP3   OH261110   6.842   6.669   0.671
13232TIP3    H161111   6.842   6.768   0.667
13232TIP3    H261112   6.769   6.647   0.611
13233TIP3   OH261113   6.728   6.596   1.019
13233TIP3    H161114   6.726   6.532   1.092
13233TIP3    H261115   6.694   6.545   0.944
13234TIP3   OH261116   5.963   6.564   1.176
13234TIP3    H161117   5.971   6.495   1.245
13234TIP3    H261118   6.038   6.621   1.198
13235TIP3   OH261119   7.098   6.889   0.849
13235TIP3    H161120   7.056   6.818   0.899
13235TIP3    H261121   7.100   6.961   0.914
13236TIP3   OH261122   6.057   7.009   1.029
13236TIP3    H161123   6.024   6.924   0.995
13236TIP3    H261124   6.152   6.990   1.029
13237TIP3   OH261125   5.719   6.365   0.575
13237TIP3    H161126   5.676   6.452   0.569
13237TIP3    H261127   5.663   6.310   0.518
13238TIP3   OH261128   5.790   6.587   0.790
13238TIP3    H161129   5.818   6.505   0.835
13238TIP3    H261130   5.860   6.598   0.723
13239TIP3   OH261131   6.564   6.835   1.070
13239TIP3    H161132   6.599   6.774   1.003
13239TIP3    H261133   6.646   6.854   1.119
13240TIP3   OH261134   6.883   6.284   1.099
13240TIP3    H161135   6.899   6.188   1.098
13240TIP3    H261136   6.873   6.298   1.003
13241TIP3   OH261137   6.193   6.092   0.821
13241TIP3    H161138   6.204   6.176   0.771
13241TIP3    H261139   6.153   6.035   0.752
13242TIP3   OH261140   6.970   6.104   0.659
13242TIP3    H161141   7.034   6.068   0.725
13242TIP3    H261142   7.029   6.156   0.604
13243TIP3   OH261143   5.857   6.335   0.895
13243TIP3    H161144   5.923   6.279   0.940
13243TIP3    H261145   5.866   6.302   0.804
13244TIP3   OH261146   6.371   6.489   0.826
13244TIP3    H161147   6.439   6.431   0.865
13244TIP3    H261148   6.320   6.423   0.775
13245TIP3   OH261149   6.084   5.982   1.225
13245TIP3    H161150   6.056   6.039   1.150
13245TIP3    H261151   6.016   6.005   1.293
13246TIP3   OH261152   6.812   6.928   0.578
13246TIP3    H161153   6.787   6.904   0.488
13246TIP3    H261154   6.782   7.021   0.585
13247TIP3   OH261155   6.335   6.744   1.249
13247TIP3    H161156   6.265   6.808   1.270
13247TIP3    H261157   6.406   6.804   1.220
13248TIP3   OH261158   7.118   6.032   0.869
13248TIP3    H161159   7.121   5.950   0.919
13248TIP3    H261160   7.195   6.078   0.909
13249TIP3   OH261161   6.041   6.167   1.028
13249TIP3    H161162   6.104   6.237   1.059
13249TIP3    H261163   6.093   6.127   0.954
13250TIP3   OH261164   6.182   6.947   1.329
13250TIP3    H161165   6.175   7.037   1.294
13250TIP3    H261166   6.093   6.938   1.372
13251TIP3   OH261167   5.782   6.914   0.411
13251TIP3    H161168   5.765   6.944   0.319
13251TIP3    H261169   5.796   6.996   0.461
13252TIP3   OH261170   7.130   7.069   1.099
13252TIP3    H161171   7.033   7.087   1.103
13252TIP3    H261172   7.169   7.152   1.064
13253TIP3   OH261173   7.161   5.916   1.200
13253TIP3    H161174   7.092   5.984   1.211
13253TIP3    H261175   7.238   5.966   1.167
13254TIP3   OH261176   6.478   5.715   0.971
13254TIP3    H161177   6.464   5.619   0.964
13254TIP3    H261178   6.390   5.746   1.002
13255TIP3   OH261179   6.981   7.224   0.726
13255TIP3    H161180   7.036   7.161   0.676
13255TIP3    H261181   7.019   7.308   0.703
13256TIP3   OH261182   7.102   7.039   0.593
13256TIP3    H161183   7.067   6.971   0.534
13256TIP3    H261184   7.101   6.992   0.680
13257TIP3   OH261185   7.234   6.919   1.458
13257TIP3    H161186   7.260   6.848   1.396
13257TIP3    H261187   7.275   6.995   1.412
13258TIP3   OH261188   6.706   6.595   0.419
13258TIP3    H161189   6.638   6.654   0.382
13258TIP3    H261190   6.778   6.603   0.353
13259TIP3   OH261191   6.709   6.444   0.133
13259TIP3    H161192   6.787   6.450   0.190
13259TIP3    H261193   6.744   6.385   0.066
13260TIP3   OH261194   7.049   6.617   0.511
13260TIP3    H161195   6.977   6.642   0.574
13260TIP3    H261196   7.098   6.553   0.568
13261TIP3   OH261197   7.047   6.434   1.424
13261TIP3    H161198   7.042   6.513   1.479
13261TIP3    H261199   6.983   6.460   1.355
13262TIP3   OH261200   6.213   6.681   0.706
13262TIP3    H161201   6.182   6.642   0.621
13262TIP3    H261202   6.275   6.612   0.739
13263TIP3   OH261203   6.346   7.022   0.972
13263TIP3    H161204   6.346   6.967   0.893
13263TIP3    H261205   6.423   6.985   1.020
13264TIP3   OH261206   6.246   6.556   1.072
13264TIP3    H161207   6.301   6.566   0.992
13264TIP3    H261208   6.286   6.622   1.133
13265TIP3   OH261209   6.882   7.114   1.143
13265TIP3    H161210   6.858   7.176   1.211
13265TIP3    H261211   6.860   7.028   1.185
13266TIP3   OH261212   6.338   6.997   1.544
13266TIP3    H161213   6.300   7.075   1.589
13266TIP3    H261214   6.274   6.977   1.471
13267TIP3   OH261215   6.941   6.532   0.282
13267TIP3    H161216   6.994   6.556   0.363
13267TIP3    H261217   6.979   6.591   0.214
13268TIP3   OH261218   6.036   6.615   1.457
13268TIP3    H161219   6.041   6.682   1.528
13268TIP3    H261220   5.942   6.624   1.436
13269TIP3   OH261221   6.706   7.205   0.631
13269TIP3    H161222   6.760   7.239   0.703
13269TIP3    H261223   6.658   7.282   0.601
13270TIP3   OH261224   6.164   7.194   1.615
13270TIP3    H161225   6.157   7.191   1.517
13270TIP3    H261226   6.070   7.187   1.642
13271TIP3   OH261227   6.109   6.584   0.469
13271TIP3    H161228   6.083   6.661   0.415
13271TIP3    H261229   6.045   6.517   0.444
13272TIP3   OH261230   5.719   6.827   1.357
13272TIP3    H161231   5.675   6.818   1.270
13272TIP3    H261232   5.728   6.732   1.379
13273TIP3   OH261233   5.699   7.096   1.039
13273TIP3    H161234   5.794   7.091   1.030
13273TIP3    H261235   5.689   7.179   1.088
13274TIP3   OH261236   6.598   7.118   1.479
13274TIP3    H161237   6.633   7.195   1.530
13274TIP3    H261238   6.519   7.086   1.525
13275TIP3   OH261239   7.184   6.335   1.654
13275TIP3    H161240   7.181   6.370   1.565
13275TIP3    H261241   7.238   6.252   1.639
13276TIP3   OH261242   5.949   6.960   1.451
13276TIP3    H161243   5.970   6.921   1.539
13276TIP3    H261244   5.862   6.920   1.429
13277TIP3   OH261245   6.216   5.806   1.046
13277TIP3    H161246   6.126   5.793   1.009
13277TIP3    H261247   6.203   5.889   1.095
13278TIP3   OH261248   6.681   5.772   1.382
13278TIP3    H161249   6.720   5.730   1.461
13278TIP3    H261250   6.583   5.761   1.397
13279TIP3   OH261251   7.002   6.153   1.466
13279TIP3    H161252   6.954   6.136   1.550
13279TIP3    H261253   6.994   6.248   1.453
13280TIP3   OH261254   7.102   6.636   0.067
13280TIP3    H161255   7.094   6.626  -0.029
13280TIP3    H261256   7.178   6.695   0.073
13281TIP3   OH261257   6.647   6.029   0.116
13281TIP3    H161258   6.614   6.025   0.207
13281TIP3    H261259   6.618   5.942   0.087
13282TIP3   OH261260   6.227   6.304   1.173
13282TIP3    H161261   6.153   6.302   1.235
13282TIP3    H261262   6.222   6.394   1.134
13283TIP3   OH261263   6.222   6.314   0.658
13283TIP3    H161264   6.128   6.289   0.645
13283TIP3    H261265   6.260   6.286   0.572
13284TIP3   OH261266   6.777   6.365   0.532
13284TIP3    H161267   6.734   6.447   0.500
13284TIP3    H261268   6.845   6.350   0.465
13285TIP3   OH261269   6.681   6.386   1.679
13285TIP3    H161270   6.629   6.308   1.710
13285TIP3    H261271   6.765   6.374   1.726
13286TIP3   OH261272   6.875   6.315   0.822
13286TIP3    H161273   6.852   6.370   0.745
13286TIP3    H261274   6.888   6.230   0.776
13287TIP3   OH261275   5.988   6.328   1.339
13287TIP3    H161276   5.997   6.369   1.427
13287TIP3    H261277   5.944   6.244   1.361
13288TIP3   OH261278   6.348   6.097   0.063
13288TIP3    H161279   6.292   6.031   0.110
13288TIP3    H261280   6.292   6.130  -0.008
13289TIP3   OH261281   5.655   6.038   0.739
13289TIP3    H161282   5.724   6.033   0.808
13289TIP3    H261283   5.697   6.000   0.659
13290TIP3   OH261284   5.785   6.114   0.277
13290TIP3    H161285   5.834   6.172   0.215
13290TIP3    H261286   5.713   6.173   0.306
13291TIP3   OH261287   6.796   6.471   1.274
13291TIP3    H161288   6.836   6.402   1.217
13291TIP3    H261289   6.750   6.419   1.342
13292TIP3   OH261290   6.477   6.071   0.759
13292TIP3    H161291   6.383   6.071   0.789
13292TIP3    H261292   6.527   6.053   0.840
13293TIP3   OH261293   5.959   6.225   0.645
13293TIP3    H161294   5.870   6.241   0.606
13293TIP3    H261295   5.987   6.142   0.604
13294TIP3   OH261296   6.322   6.233   0.410
13294TIP3    H161297   6.418   6.241   0.425
13294TIP3    H261298   6.300   6.296   0.340
13295TIP3   OH261299   6.911   5.991   1.084
13295TIP3    H161300   6.844   5.998   1.154
13295TIP3    H261301   6.862   5.969   1.003
13296TIP3   OH261302   6.194   6.348   0.167
13296TIP3    H161303   6.137   6.312   0.097
13296TIP3    H261304   6.275   6.368   0.119
13297TIP3   OH261305   6.006   6.809   1.672
13297TIP3    H161306   6.078   6.829   1.733
13297TIP3    H261307   5.929   6.812   1.732
13298TIP3   OH261308   6.606   6.346   0.948
13298TIP3    H161309   6.667   6.293   0.894
13298TIP3    H261310   6.591   6.291   1.026
13299TIP3   OH261311   6.109   5.960   0.595
13299TIP3    H161312   6.074   5.869   0.590
13299TIP3    H261313   6.186   5.953   0.537
13300TIP3   OH261314   6.470   6.178   1.189
13300TIP3    H161315   6.388   6.230   1.198
13300TIP3    H261316   6.525   6.214   1.261
13301TIP3   OH261317   6.530   6.801   0.361
13301TIP3    H161318   6.450   6.754   0.327
13301TIP3    H261319   6.508   6.812   0.456
13302TIP3   OH261320   7.216   6.724   1.239
13302TIP3    H161321   7.288   6.736   1.174
13302TIP3    H261322   7.139   6.723   1.178
13303TIP3   OH261323   6.917   6.082   0.177
13303TIP3    H161324   6.821   6.094   0.160
13303TIP3    H261325   6.944   6.169   0.213
13304TIP3   OH261326   6.673   6.828   1.480
13304TIP3    H161327   6.643   6.788   1.562
13304TIP3    H261328   6.659   6.923   1.494
13305TIP3   OH261329   6.987   6.276   0.336
13305TIP3    H161330   7.074   6.261   0.378
13305TIP3    H261331   6.994   6.361   0.292
13306TIP3   OH261332   6.039   6.740   0.939
13306TIP3    H161333   6.108   6.733   0.869
13306TIP3    H261334   6.046   6.654   0.984
13307TIP3   OH261335   6.738   6.946   0.263
13307TIP3    H161336   6.704   7.031   0.298
13307TIP3    H261337   6.664   6.885   0.284
13308TIP3   OH261338   5.739   6.580   1.465
13308TIP3    H161339   5.756   6.536   1.550
13308TIP3    H261340   5.677   6.520   1.421
13309TIP3   OH261341   6.440   6.537   1.683
13309TIP3    H161342   6.408   6.505   1.597
13309TIP3    H261343   6.532   6.504   1.683
13310TIP3   OH261344   6.910   7.047   1.476
13310TIP3    H161345   6.824   7.085   1.451
13310TIP3    H261346   6.909   7.093   1.564
13311TIP3   OH261347   7.020   6.650   1.068
13311TIP3    H161348   6.926   6.629   1.055
13311TIP3    H261349   7.067   6.576   1.026
13312TIP3   OH261350   6.281   7.082   0.668
13312TIP3    H161351   6.327   7.166   0.661
13312TIP3    H261352   6.190   7.106   0.649
13313TIP3   OH261353   5.851   6.573   0.129
13313TIP3    H161354   5.913   6.633   0.175
13313TIP3    H261355   5.764   6.599   0.164
13314TIP3   OH261356   6.421   6.851   0.631
13314TIP3    H161357   6.389   6.943   0.637
13314TIP3    H261358   6.347   6.803   0.673
13315TIP3   OH261359   6.491   7.240   1.240
13315TIP3    H161360   6.512   7.334   1.234
13315TIP3    H261361   6.527   7.222   1.329
13316TIP3   OH261362   6.817   6.870   1.230
13316TIP3    H161363   6.783   6.851   1.321
13316TIP3    H261364   6.880   6.799   1.215
13317TIP3   OH261365   7.048   6.966   0.141
13317TIP3    H161366   7.080   6.931   0.226
13317TIP3    H261367   6.951   6.959   0.151
13318TIP3   OH261368   5.904   6.054   1.420
13318TIP3    H161369   5.813   6.089   1.418
13318TIP3    H261370   5.893   5.970   1.466
13319TIP3   OH261371   7.130   6.832   0.363
13319TIP3    H161372   7.105   6.758   0.423
13319TIP3    H261373   7.222   6.852   0.391
13320TIP3   OH261374   5.865   7.229   1.262
13320TIP3    H161375   5.894   7.138   1.266
13320TIP3    H261376   5.885   7.263   1.350
13321TIP3   OH261377   6.340   7.037   0.230
13321TIP3    H161378   6.364   6.983   0.306
13321TIP3    H261379   6.350   7.127   0.265
13322TIP3   OH261380   5.990   6.764   0.286
13322TIP3    H161381   5.922   6.805   0.343
13322TIP3    H261382   6.044   6.841   0.258
13323TIP3   OH261383   6.774   6.031   1.318
13323TIP3    H161384   6.849   6.037   1.378
13323TIP3    H261385   6.737   5.942   1.338
13324TIP3   OH261386   6.857   5.988   0.426
13324TIP3    H161387   6.876   6.038   0.345
13324TIP3    H261388   6.913   6.033   0.491
13325TIP3   OH261389   6.622   7.206   0.309
13325TIP3    H161390   6.538   7.254   0.313
13325TIP3    H261391   6.676   7.257   0.245
13326TIP3   OH261392   6.574   6.163   0.506
13326TIP3    H161393   6.652   6.221   0.509
13326TIP3    H261394   6.547   6.152   0.599
13327TIP3   OH261395   6.633   6.266   1.426
13327TIP3    H161396   6.641   6.323   1.506
13327TIP3    H261397   6.698   6.195   1.435
13328TIP3   OH261398   6.656   5.870   0.592
13328TIP3    H161399   6.627   5.934   0.659
13328TIP3    H261400   6.727   5.923   0.549
13329TIP3   OH261401   6.361   0.007   0.305
13329TIP3    H161402   6.372   0.091   0.261
13329TIP3    H261403   6.337   0.037   0.395
13330TIP3   OH261404   6.225   5.979   0.271
13330TIP3    H161405   6.219   6.070   0.305
13330TIP3    H261406   6.316   5.957   0.298
13331TIP3   OH261407   7.235   6.030   1.491
13331TIP3    H161408   7.152   6.083   1.494
13331TIP3    H261409   7.275   6.059   1.409
13332TIP3   OH261410   7.109   6.432   0.916
13332TIP3    H161411   7.027   6.388   0.885
13332TIP3    H261412   7.152   6.360   0.964
13333TIP3   OH261413   6.050   7.021   0.173
13333TIP3    H161414   6.114   7.088   0.198
13333TIP3    H261415   6.101   6.980   0.100
13334TIP3   OH261416   5.889   6.294   0.090
13334TIP3    H161417   5.885   6.390   0.102
13334TIP3    H261418   5.801   6.273   0.056
13335TIP3   OH261419   5.964   5.770   0.958
13335TIP3    H161420   5.943   5.771   0.862
13335TIP3    H261421   5.923   5.685   0.984
13336TIP3   OH261422   5.859   7.161   0.566
13336TIP3    H161423   5.775   7.207   0.571
13336TIP3    H261424   5.913   7.211   0.503
13337TIP3   OH261425   6.277   7.286   1.884
13337TIP3    H161426   6.364   7.248   1.900
13337TIP3    H261427   6.271   7.273   1.788
13338TIP3   OH261428   6.699   7.299   0.068
13338TIP3    H161429   6.618   7.245   0.063
13338TIP3    H261430   6.750   7.249   0.002
13339TIP3   OH261431   6.927   7.106   1.731
13339TIP3    H161432   6.862   7.052   1.779
13339TIP3    H261433   6.974   7.154   1.799
13340TIP3   OH261434   7.122   7.249   0.028
13340TIP3    H161435   7.147   7.167   0.072
13340TIP3    H261436   7.197   7.272  -0.029
13341TIP3   OH261437   5.773   6.803   1.801
13341TIP3    H161438   5.788   6.712   1.770
13341TIP3    H261439   5.699   6.832   1.744
13342TIP3   OH261440   6.216   6.842   0.017
13342TIP3    H161441   6.224   6.760   0.065
13342TIP3    H261442   6.273   6.821  -0.060
13343TIP3   OH261443   6.445   6.803   1.739
13343TIP3    H161444   6.409   6.833   1.653
13343TIP3    H261445   6.451   6.705   1.729
13344TIP3   OH261446   7.010   6.784   1.478
13344TIP3    H161447   7.088   6.845   1.472
13344TIP3    H261448   6.943   6.855   1.484
13345TIP3   OH261449   5.864   6.528   1.740
13345TIP3    H161450   5.905   6.441   1.730
13345TIP3    H261451   5.840   6.528   1.834
13346TIP3   OH261452   6.329   6.643   0.245
13346TIP3    H161453   6.279   6.588   0.308
13346TIP3    H261454   6.360   6.576   0.180
13347TIP3   OH261455   6.253   6.421   1.475
13347TIP3    H161456   6.194   6.493   1.501
13347TIP3    H261457   6.293   6.458   1.394
13348TIP3   OH261458   6.437   6.459   0.066
13348TIP3    H161459   6.424   6.449  -0.030
13348TIP3    H261460   6.535   6.468   0.075
13349TIP3   OH261461   6.761   6.678   1.809
13349TIP3    H161462   6.857   6.677   1.799
13349TIP3    H261463   6.745   6.601   1.865
13350TIP3   OH261464   6.294   6.159   1.581
13350TIP3    H161465   6.306   6.088   1.515
13350TIP3    H261466   6.290   6.240   1.526
13351TIP3   OH261467   6.334   5.997   1.336
13351TIP3    H161468   6.385   6.044   1.265
13351TIP3    H261469   6.245   5.989   1.296
13352TIP3   OH261470   6.488   6.544   1.359
13352TIP3    H161471   6.564   6.530   1.303
13352TIP3    H261472   6.453   6.629   1.328
13353TIP3   OH261473   6.933   6.324   1.858
13353TIP3    H161474   6.955   6.231   1.846
13353TIP3    H261475   7.021   6.366   1.854
13354TIP3   OH261476   7.064   6.605   1.673
13354TIP3    H161477   7.034   6.674   1.610
13354TIP3    H261478   7.157   6.595   1.653
13355TIP3   OH261479   6.140   6.284   1.773
13355TIP3    H161480   6.063   6.226   1.756
13355TIP3    H261481   6.206   6.247   1.711
13356TIP3   OH261482   6.413   5.741   1.375
13356TIP3    H161483   6.395   5.837   1.366
13356TIP3    H261484   6.338   5.704   1.325
13357TIP3   OH261485   6.540   6.174   1.738
13357TIP3    H161486   6.509   6.151   1.827
13357TIP3    H261487   6.462   6.154   1.684
13358TIP3   OH261488   6.808   6.090   1.647
13358TIP3    H161489   6.712   6.093   1.660
13358TIP3    H261490   6.840   6.025   1.713
13359TIP3   OH261491   6.980   5.948   1.840
13359TIP3    H161492   6.965   5.851   1.840
13359TIP3    H261493   6.944   5.979   1.926
13360TIP3   OH261494   5.948   6.078   1.748
13360TIP3    H161495   5.973   6.004   1.689
13360TIP3    H261496   5.939   6.033   1.834
13361TIP3   OH261497   6.435   5.680   1.645
13361TIP3    H161498   6.503   5.610   1.643
13361TIP3    H261499   6.423   5.695   1.549
13362TIP3   OH261500   6.471   5.842   1.857
13362TIP3    H161501   6.454   5.791   1.773
13362TIP3    H261502   6.411   5.918   1.846
13363TIP3   OH261503   5.776   6.990   0.123
13363TIP3    H161504   5.872   7.003   0.143
13363TIP3    H261505   5.781   6.934   0.045
13364TIP3   OH261506   7.278   7.147   1.325
13364TIP3    H161507   7.210   7.190   1.377
13364TIP3    H261508   7.226   7.111   1.249
13365TIP3   OH261509   7.188   6.449   0.658
13365TIP3    H161510   7.214   6.356   0.661
13365TIP3    H261511   7.200   6.474   0.752
13366TIP3   OH261512   5.739   6.650   1.055
13366TIP3    H161513   5.757   6.642   0.958
13366TIP3    H261514   5.829   6.632   1.090
13367TIP3   OH261515   7.202   6.194   0.478
13367TIP3    H161516   7.231   6.110   0.518
13367TIP3    H261517   7.286   6.228   0.445
13368TIP3   OH261518  -0.053   6.171   1.039
13368TIP3    H161519   0.035   6.206   1.024
13368TIP3    H261520  -0.075   6.235   1.108
13369TIP3   OH261521   7.278   6.332   1.342
13369TIP3    H161522   7.184   6.359   1.351
13369TIP3    H261523   7.314   6.401   1.283
13370TIP3   OH261524   5.701   6.181   1.670
13370TIP3    H161525   5.795   6.159   1.689
13370TIP3    H261526   5.655   6.098   1.696
13371TIP3   OH261527   7.181   5.895   0.564
13371TIP3    H161528   7.276   5.881   0.584
13371TIP3    H261529   7.184   5.855   0.475
13372TIP3   OH261530   5.821   6.008   0.954
13372TIP3    H161531   5.867   5.926   0.981
13372TIP3    H261532   5.875   6.077   0.992
13373TIP3   OH261533   5.649   6.310   1.059
13373TIP3    H161534   5.705   6.285   0.983
13373TIP3    H261535   5.696   6.390   1.085
13374TIP3   OH261536   5.684   5.956   0.476
13374TIP3    H161537   5.592   5.949   0.448
13374TIP3    H261538   5.727   5.980   0.392
13375TIP3   OH261539   5.681   5.800   1.295
13375TIP3    H161540   5.614   5.781   1.363
13375TIP3    H261541   5.635   5.868   1.241
13376TIP3   OH261542   5.904   7.126   1.713
13376TIP3    H161543   5.819   7.140   1.668
13376TIP3    H261544   5.876   7.110   1.804
13377TIP3   OH261545   6.198   7.220   1.346
13377TIP3    H161546   6.155   7.298   1.310
13377TIP3    H261547   6.286   7.219   1.304
13378TIP3   OH261548   6.113   7.256   0.876
13378TIP3    H161549   6.076   7.179   0.922
13378TIP3    H261550   6.172   7.292   0.945
13379TIP3   OH261551   6.694   5.895   0.900
13379TIP3    H161552   6.628   5.830   0.928
13379TIP3    H261553   6.751   5.842   0.842
13380TIP3   OH261554   7.211   5.698   0.908
13380TIP3    H161555   7.269   5.761   0.863
13380TIP3    H261556   7.122   5.734   0.886
13381TIP3   OH261557   5.933   5.756   0.685
13381TIP3    H161558   5.853   5.738   0.631
13381TIP3    H261559   5.979   5.671   0.678
13382TIP3   OH261560   5.848   5.747   0.246
13382TIP3    H161561   5.865   5.822   0.188
13382TIP3    H261562   5.768   5.773   0.302
13383TIP3   OH261563   6.380   5.749   0.663
13383TIP3    H161564   6.470   5.786   0.656
13383TIP3    H261565   6.377   5.727   0.756
13384TIP3   OH261566   6.954   5.747   0.826
13384TIP3    H161567   6.948   5.765   0.732
13384TIP3    H261568   6.911   5.659   0.837
13385TIP3   OH261569   7.074   5.745   0.377
13385TIP3    H161570   7.006   5.814   0.380
13385TIP3    H261571   7.029   5.667   0.415
13386TIP3   OH261572   5.996   5.924   0.106
13386TIP3    H161573   6.048   5.862   0.056
13386TIP3    H261574   6.058   5.958   0.172
13387TIP3   OH261575   6.496   5.950   0.348
13387TIP3    H161576   6.522   5.894   0.423
13387TIP3    H261577   6.502   6.037   0.394
13388TIP3   OH261578   5.922   5.811   1.630
13388TIP3    H161579   5.883   5.731   1.670
13388TIP3    H261580   6.013   5.807   1.668
13389TIP3   OH261581   6.122   5.749   1.794
13389TIP3    H161582   6.211   5.716   1.773
13389TIP3    H261583   6.085   5.669   1.835
13390TIP3   OH261584   6.962   5.680   1.807
13390TIP3    H161585   6.971   5.633   1.892
13390TIP3    H261586   7.054   5.678   1.773
13391TIP3   OH261587   7.276  -0.023   1.686
13391TIP3    H161588   7.207  -0.041   1.621
13391TIP3    H261589   7.275   0.074   1.689
13392TIP3   OH261590   1.185   1.014   2.555
13392TIP3    H161591   1.184   1.112   2.553
13392TIP3    H261592   1.112   0.991   2.496
13393TIP3   OH261593   1.070   0.939   2.906
13393TIP3    H161594   1.069   0.874   2.978
13393TIP3    H261595   1.036   0.888   2.831
13394TIP3   OH261596   0.311   0.906   3.058
13394TIP3    H161597   0.317   0.839   3.129
13394TIP3    H261598   0.381   0.967   3.085
13395TIP3   OH261599   1.439   1.234   2.734
13395TIP3    H161600   1.398   1.163   2.784
13395TIP3    H261601   1.442   1.305   2.802
13396TIP3   OH261602   0.398   1.350   2.913
13396TIP3    H161603   0.367   1.265   2.878
13396TIP3    H261604   0.494   1.333   2.915
13397TIP3   OH261605   0.090   0.707   2.419
13397TIP3    H161606   0.045   0.786   2.456
13397TIP3    H261607   0.011   0.653   2.418
13398TIP3   OH261608   0.130   0.925   2.670
13398TIP3    H161609   0.160   0.848   2.722
13398TIP3    H261610   0.204   0.941   2.610
13399TIP3   OH261611   1.151   1.750   2.758
13399TIP3    H161612   1.216   1.681   2.730
13399TIP3    H261613   1.130   1.717   2.845
13400TIP3   OH261614   0.908   1.179   2.954
13400TIP3    H161615   0.942   1.117   2.888
13400TIP3    H261616   0.989   1.195   3.005
13401TIP3   OH261617   1.767   0.345   3.025
13401TIP3    H161618   1.786   0.402   3.103
13401TIP3    H261619   1.823   0.387   2.959
13402TIP3   OH261620   1.225   0.626   2.986
13402TIP3    H161621   1.241   0.530   2.986
13402TIP3    H261622   1.215   0.641   2.890
13403TIP3   OH261623   0.538   0.437   2.707
13403TIP3    H161624   0.548   0.519   2.656
13403TIP3    H261625   0.498   0.379   2.639
13404TIP3   OH261626   1.311   0.441   2.543
13404TIP3    H161627   1.376   0.413   2.612
13404TIP3    H261628   1.365   0.500   2.490
13405TIP3   OH261629   0.195   0.668   2.774
13405TIP3    H161630   0.268   0.621   2.820
13405TIP3    H261631   0.214   0.640   2.683
13406TIP3   OH261632   0.714   0.832   2.712
13406TIP3    H161633   0.782   0.774   2.751
13406TIP3    H261634   0.663   0.766   2.661
13407TIP3   OH261635   1.812   0.485   3.253
13407TIP3    H161636   1.751   0.561   3.243
13407TIP3    H261637   1.815   0.475   3.349
13408TIP3   OH261638   0.431   0.330   3.108
13408TIP3    H161639   0.397   0.385   3.035
13408TIP3    H261640   0.361   0.348   3.176
13409TIP3   OH261641   1.156   1.273   2.465
13409TIP3    H161642   1.130   1.246   2.376
13409TIP3    H261643   1.125   1.366   2.470
13410TIP3   OH261644   0.681   1.090   3.134
13410TIP3    H161645   0.609   1.153   3.156
13410TIP3    H261646   0.750   1.150   3.105
13411TIP3   OH261647   1.492   0.376   2.741
13411TIP3    H161648   1.467   0.302   2.798
13411TIP3    H261649   1.558   0.421   2.796
13412TIP3   OH261650   0.381   0.514   2.912
13412TIP3    H161651   0.445   0.579   2.947
13412TIP3    H261652   0.435   0.471   2.840
13413TIP3   OH261653   0.522   1.288   3.215
13413TIP3    H161654   0.518   1.381   3.183
13413TIP3    H261655   0.434   1.281   3.259
13414TIP3   OH261656   0.128   1.255   2.291
13414TIP3    H161657   0.108   1.288   2.202
13414TIP3    H261658   0.139   1.336   2.344
13415TIP3   OH261659   1.492   1.418   2.971
13415TIP3    H161660   1.395   1.429   2.983
13415TIP3    H261661   1.519   1.510   2.951
13416TIP3   OH261662   1.528   0.246   3.116
13416TIP3    H161663   1.453   0.305   3.101
13416TIP3    H261664   1.597   0.287   3.059
13417TIP3   OH261665   0.818   0.059   2.840
13417TIP3    H161666   0.817  -0.036   2.856
13417TIP3    H261667   0.739   0.086   2.890
13418TIP3   OH261668   1.318   1.597   2.630
13418TIP3    H161669   1.361   1.525   2.579
13418TIP3    H261670   1.362   1.676   2.591
13419TIP3   OH261671   1.440   1.389   2.482
13419TIP3    H161672   1.409   1.320   2.422
13419TIP3    H261673   1.443   1.340   2.566
13420TIP3   OH261674   1.601   1.249   3.331
13420TIP3    H161675   1.616   1.183   3.260
13420TIP3    H261676   1.622   1.333   3.287
13421TIP3   OH261677   1.051   0.936   2.307
13421TIP3    H161678   0.982   0.995   2.272
13421TIP3    H261679   1.122   0.948   2.241
13422TIP3   OH261680   1.059   0.795   2.008
13422TIP3    H161681   1.130   0.793   2.075
13422TIP3    H261682   1.090   0.723   1.952
13423TIP3   OH261683   1.790   0.880   3.135
13423TIP3    H161684   1.724   0.952   3.139
13423TIP3    H261685   1.839   0.903   3.055
13424TIP3   OH261686   1.396   0.958   2.400
13424TIP3    H161687   1.322   0.983   2.460
13424TIP3    H261688   1.443   0.891   2.452
13425TIP3   OH261689   1.388   0.775   3.313
13425TIP3    H161690   1.389   0.857   3.364
13425TIP3    H261691   1.326   0.804   3.243
13426TIP3   OH261692   0.559   1.026   2.592
13426TIP3    H161693   0.523   0.985   2.509
13426TIP3    H261694   0.619   0.955   2.625
13427TIP3   OH261695   0.689   1.363   2.859
13427TIP3    H161696   0.688   1.310   2.778
13427TIP3    H261697   0.767   1.327   2.905
13428TIP3   OH261698   0.593   0.899   2.958
13428TIP3    H161699   0.646   0.910   2.877
13428TIP3    H261700   0.629   0.967   3.019
13429TIP3   OH261701   1.230   1.457   3.028
13429TIP3    H161702   1.203   1.520   3.094
13429TIP3    H261703   1.205   1.371   3.070
13430TIP3   OH261704   0.685   1.342   3.427
13430TIP3    H161705   0.643   1.416   3.476
13430TIP3    H261706   0.618   1.323   3.357
13431TIP3   OH261707   1.283   0.879   2.166
13431TIP3    H161708   1.339   0.896   2.246
13431TIP3    H261709   1.329   0.928   2.094
13432TIP3   OH261710   0.379   0.959   3.345
13432TIP3    H161711   0.383   1.028   3.414
13432TIP3    H261712   0.285   0.968   3.322
13433TIP3   OH261713   1.055   1.551   2.513
13433TIP3    H161714   1.098   1.582   2.594
13433TIP3    H261715   0.999   1.626   2.490
13434TIP3   OH261716   0.510   1.545   3.502
13434TIP3    H161717   0.502   1.537   3.405
13434TIP3    H261718   0.416   1.532   3.528
13435TIP3   OH261719   1.652   0.067   2.132
13435TIP3    H161720   1.567   0.071   2.178
13435TIP3    H261721   1.676   0.158   2.110
13436TIP3   OH261722   0.455   0.926   2.354
13436TIP3    H161723   0.426   1.004   2.303
13436TIP3    H261724   0.390   0.860   2.331
13437TIP3   OH261725   1.767   1.487   1.992
13437TIP3    H161726   1.784   1.582   2.008
13437TIP3    H261727   1.859   1.456   1.991
13438TIP3   OH261728   0.122   1.157   3.217
13438TIP3    H161729   0.045   1.169   3.158
13438TIP3    H261730   0.085   1.078   3.263
13439TIP3   OH261731   0.069   1.467   2.892
13439TIP3    H161732   0.151   1.427   2.921
13439TIP3    H261733   0.040   1.514   2.972
13440TIP3   OH261734   1.863   1.514   3.489
13440TIP3    H161735   1.851   1.418   3.486
13440TIP3    H261736   1.776   1.538   3.528
13441TIP3   OH261737   0.958   1.468   3.376
13441TIP3    H161738   0.964   1.552   3.426
13441TIP3    H261739   0.871   1.432   3.401
13442TIP3   OH261740   1.003   1.842   2.354
13442TIP3    H161741   0.992   1.834   2.258
13442TIP3    H261742   1.003   1.938   2.370
13443TIP3   OH261743   0.367   1.729   2.536
13443TIP3    H161744   0.380   1.689   2.624
13443TIP3    H261745   0.283   1.687   2.512
13444TIP3   OH261746   1.308   1.763   2.053
13444TIP3    H161747   1.354   1.688   2.010
13444TIP3    H261748   1.312   1.737   2.147
13445TIP3   OH261749   1.278   1.757   2.331
13445TIP3    H161750   1.182   1.764   2.348
13445TIP3    H261751   1.301   1.683   2.388
13446TIP3   OH261752   1.578   0.659   3.537
13446TIP3    H161753   1.532   0.706   3.465
13446TIP3    H261754   1.576   0.567   3.506
13447TIP3   OH261755   0.293   1.310   3.344
13447TIP3    H161756   0.311   1.265   3.428
13447TIP3    H261757   0.210   1.265   3.315
13448TIP3   OH261758   0.557   0.146   2.934
13448TIP3    H161759   0.468   0.139   2.895
13448TIP3    H261760   0.546   0.232   2.980
13449TIP3   OH261761   1.021   0.118   3.273
13449TIP3    H161762   1.064   0.076   3.348
13449TIP3    H261763   0.926   0.107   3.289
13450TIP3   OH261764   1.352   0.496   3.359
13450TIP3    H161765   1.294   0.481   3.437
13450TIP3    H261766   1.336   0.589   3.334
13451TIP3   OH261767   1.429   0.982   1.948
13451TIP3    H161768   1.426   0.963   1.852
13451TIP3    H261769   1.514   1.027   1.953
13452TIP3   OH261770   0.988   0.373   2.000
13452TIP3    H161771   0.955   0.366   2.091
13452TIP3    H261772   0.956   0.286   1.969
13453TIP3   OH261773   0.568   0.646   3.057
13453TIP3    H161774   0.496   0.646   3.123
13453TIP3    H261775   0.566   0.737   3.020
13454TIP3   OH261776   0.568   0.659   2.543
13454TIP3    H161777   0.474   0.635   2.529
13454TIP3    H261778   0.605   0.629   2.458
13455TIP3   OH261779   1.118   0.709   2.421
13455TIP3    H161780   1.078   0.791   2.384
13455TIP3    H261781   1.187   0.691   2.355
13456TIP3   OH261782   1.023   0.730   3.564
13456TIP3    H161783   0.970   0.652   3.595
13456TIP3    H261784   1.107   0.717   3.612
13457TIP3   OH261785   1.221   0.658   2.705
13457TIP3    H161786   1.193   0.713   2.631
13457TIP3    H261787   1.230   0.573   2.658
13458TIP3   OH261788   0.334   0.671   3.226
13458TIP3    H161789   0.335   0.712   3.313
13458TIP3    H261790   0.284   0.590   3.245
13459TIP3   OH261791   0.669   0.413   1.912
13459TIP3    H161792   0.623   0.369   1.986
13459TIP3    H261793   0.598   0.452   1.859
13460TIP3   OH261794   0.034   0.413   2.604
13460TIP3    H161795   0.069   0.382   2.691
13460TIP3    H261796   0.049   0.339   2.548
13461TIP3   OH261797   0.124   0.469   2.160
13461TIP3    H161798   0.178   0.522   2.098
13461TIP3    H261799   0.050   0.526   2.180
13462TIP3   OH261800   1.140   0.816   3.160
13462TIP3    H161801   1.179   0.747   3.102
13462TIP3    H261802   1.094   0.763   3.228
13463TIP3   OH261803   0.821   0.413   2.642
13463TIP3    H161804   0.728   0.413   2.673
13463TIP3    H261805   0.870   0.398   2.724
13464TIP3   OH261806   0.304   0.569   2.531
13464TIP3    H161807   0.216   0.585   2.491
13464TIP3    H261808   0.330   0.485   2.488
13465TIP3   OH261809   0.666   0.573   2.294
13465TIP3    H161810   0.762   0.584   2.309
13465TIP3    H261811   0.641   0.642   2.230
13466TIP3   OH261812   1.262   0.335   2.968
13466TIP3    H161813   1.193   0.343   3.037
13466TIP3    H261814   1.211   0.308   2.889
13467TIP3   OH261815   0.538   0.690   2.051
13467TIP3    H161816   0.484   0.654   1.979
13467TIP3    H261817   0.620   0.712   2.004
13468TIP3   OH261818   1.581   1.901   3.601
13468TIP3    H161819   1.608   1.939   3.515
13468TIP3    H261820   1.654   1.933   3.657
13469TIP3   OH261821   0.347   1.147   3.559
13469TIP3    H161822   0.421   1.171   3.617
13469TIP3    H261823   0.272   1.158   3.620
13470TIP3   OH261824   0.949   0.688   2.833
13470TIP3    H161825   1.010   0.634   2.780
13470TIP3    H261826   0.934   0.634   2.912
13471TIP3   OH261827   0.447   0.308   2.477
13471TIP3    H161828   0.417   0.216   2.479
13471TIP3    H261829   0.526   0.300   2.422
13472TIP3   OH261830   0.814   0.527   3.073
13472TIP3    H161831   0.730   0.575   3.084
13472TIP3    H261832   0.869   0.558   3.148
13473TIP3   OH261833   0.872   1.144   2.245
13473TIP3    H161834   0.792   1.097   2.211
13473TIP3    H261835   0.849   1.156   2.339
13474TIP3   OH261836   1.591   1.064   3.125
13474TIP3    H161837   1.647   1.113   3.061
13474TIP3    H261838   1.505   1.069   3.079
13475TIP3   OH261839   1.254   0.426   2.064
13475TIP3    H161840   1.159   0.442   2.048
13475TIP3    H261841   1.288   0.511   2.097
13476TIP3   OH261842   1.021   1.171   3.369
13476TIP3    H161843   0.986   1.128   3.448
13476TIP3    H261844   0.995   1.263   3.380
13477TIP3   OH261845   1.329   0.617   2.224
13477TIP3    H161846   1.417   0.603   2.265
13477TIP3    H261847   1.339   0.700   2.174
13478TIP3   OH261848   0.382   1.084   2.823
13478TIP3    H161849   0.450   1.075   2.754
13478TIP3    H261850   0.392   1.000   2.871
13479TIP3   OH261851   1.081   1.291   2.148
13479TIP3    H161852   1.047   1.375   2.183
13479TIP3    H261853   1.008   1.229   2.169
13480TIP3   OH261854   0.079   0.922   3.351
13480TIP3    H161855   0.105   0.878   3.434
13480TIP3    H261856   0.020   0.858   3.309
13481TIP3   OH261857   0.783   0.880   3.568
13481TIP3    H161858   0.751   0.849   3.482
13481TIP3    H261859   0.875   0.847   3.568
13482TIP3   OH261860   1.252   1.413   3.364
13482TIP3    H161861   1.159   1.431   3.340
13482TIP3    H261862   1.248   1.443   3.457
13483TIP3   OH261863   1.820   0.632   2.202
13483TIP3    H161864   1.762   0.603   2.129
13483TIP3    H261865   1.827   0.727   2.177
13484TIP3   OH261866   1.818   1.218   3.483
13484TIP3    H161867   1.728   1.240   3.446
13484TIP3    H261868   1.872   1.212   3.402
13485TIP3   OH261869   1.644   1.514   2.242
13485TIP3    H161870   1.611   1.430   2.277
13485TIP3    H261871   1.680   1.492   2.154
13486TIP3   OH261872   1.368   0.996   2.953
13486TIP3    H161873   1.274   0.975   2.942
13486TIP3    H261874   1.411   0.920   2.909
13487TIP3   OH261875   0.619   1.430   2.564
13487TIP3    H161876   0.670   1.509   2.543
13487TIP3    H261877   0.531   1.452   2.531
13488TIP3   OH261878   0.192   0.914   2.024
13488TIP3    H161879   0.256   0.979   2.059
13488TIP3    H261880   0.106   0.949   2.050
13489TIP3   OH261881   0.761   1.196   2.514
13489TIP3    H161882   0.730   1.288   2.524
13489TIP3    H261883   0.690   1.146   2.559
13490TIP3   OH261884   0.808   1.613   3.156
13490TIP3    H161885   0.853   1.695   3.127
13490TIP3    H261886   0.869   1.580   3.224
13491TIP3   OH261887   0.629   1.694   2.467
13491TIP3    H161888   0.533   1.709   2.481
13491TIP3    H261889   0.666   1.778   2.502
13492TIP3   OH261890   1.159   1.213   3.117
13492TIP3    H161891   1.127   1.194   3.208
13492TIP3    H261892   1.223   1.143   3.101
13493TIP3   OH261893   1.393   1.322   2.027
13493TIP3    H161894   1.423   1.274   2.107
13493TIP3    H261895   1.298   1.303   2.035
13494TIP3   OH261896   1.441   1.672   3.366
13494TIP3    H161897   1.372   1.622   3.319
13494TIP3    H261898   1.459   1.742   3.300
13495TIP3   OH261899   1.839   1.757   2.052
13495TIP3    H161900   1.908   1.823   2.032
13495TIP3    H261901   1.767   1.818   2.081
13496TIP3   OH261902   0.247   0.395   3.304
13496TIP3    H161903   0.159   0.433   3.311
13496TIP3    H261904   0.233   0.309   3.347
13497TIP3   OH261905   1.471   1.185   2.251
13497TIP3    H161906   1.447   1.106   2.305
13497TIP3    H261907   1.566   1.189   2.269
13498TIP3   OH261908   0.225   1.581   3.144
13498TIP3    H161909   0.237   1.485   3.149
13498TIP3    H261910   0.234   1.604   3.237
13499TIP3   OH261911   0.806   1.429   1.876
13499TIP3    H161912   0.815   1.352   1.817
13499TIP3    H261913   0.762   1.385   1.953
13500TIP3   OH261914   0.683   1.381   2.121
13500TIP3    H161915   0.710   1.330   2.198
13500TIP3    H261916   0.692   1.474   2.154
13501TIP3   OH261917   0.332   1.105   2.169
13501TIP3    H161918   0.261   1.145   2.224
13501TIP3    H261919   0.385   1.183   2.142
13502TIP3   OH261920   1.121   0.373   3.201
13502TIP3    H161921   1.193   0.380   3.265
13502TIP3    H261922   1.084   0.285   3.219
13503TIP3   OH261923   1.198   0.331   2.313
13503TIP3    H161924   1.217   0.377   2.228
13503TIP3    H261925   1.251   0.382   2.375
13504TIP3   OH261926   0.963   1.547   2.191
13504TIP3    H161927   0.882   1.601   2.198
13504TIP3    H261928   1.017   1.602   2.132
13505TIP3   OH261929   0.919   0.504   2.393
13505TIP3    H161930   0.995   0.565   2.397
13505TIP3    H261931   0.893   0.495   2.487
13506TIP3   OH261932   0.974   0.609   3.312
13506TIP3    H161933   0.981   0.664   3.392
13506TIP3    H261934   1.039   0.540   3.321
13507TIP3   OH261935   1.005   0.213   2.485
13507TIP3    H161936   0.970   0.280   2.546
13507TIP3    H261937   1.071   0.268   2.436
13508TIP3   OH261938   0.704   1.650   2.194
13508TIP3    H161939   0.713   1.732   2.139
13508TIP3    H261940   0.676   1.687   2.281
13509TIP3   OH261941   0.568   0.322   2.150
13509TIP3    H161942   0.561   0.411   2.189
13509TIP3    H261943   0.660   0.302   2.176
13510TIP3   OH261944   1.591   0.396   3.398
13510TIP3    H161945   1.498   0.428   3.384
13510TIP3    H261946   1.621   0.393   3.305
13511TIP3   OH261947   1.452   0.775   2.796
13511TIP3    H161948   1.369   0.731   2.769
13511TIP3    H261949   1.500   0.706   2.848
13512TIP3   OH261950   0.390   1.368   2.056
13512TIP3    H161951   0.457   1.431   2.087
13512TIP3    H261952   0.443   1.320   1.989
13513TIP3   OH261953   0.220   0.634   1.972
13513TIP3    H161954   0.228   0.730   1.989
13513TIP3    H261955   0.133   0.617   1.935
13514TIP3   OH261956   1.558   1.701   2.964
13514TIP3    H161957   1.550   1.769   2.894
13514TIP3    H261958   1.655   1.706   2.981
13515TIP3   OH261959   0.287   0.127   2.851
13515TIP3    H161960   0.289   0.120   2.753
13515TIP3    H261961   0.265   0.036   2.874
13516TIP3   OH261962   0.205   1.506   2.461
13516TIP3    H161963   0.119   1.549   2.455
13516TIP3    H261964   0.252   1.551   2.390
13517TIP3   OH261965   0.154   1.773   3.586
13517TIP3    H161966   0.195   1.750   3.671
13517TIP3    H261967   0.102   1.692   3.571
13518TIP3   OH261968   0.592   1.661   3.748
13518TIP3    H161969   0.668   1.611   3.781
13518TIP3    H261970   0.589   1.634   3.654
13519TIP3   OH261971   1.005   1.614   1.889
13519TIP3    H161972   0.936   1.548   1.911
13519TIP3    H261973   1.077   1.554   1.864
13520TIP3   OH261974   1.242   1.501   3.623
13520TIP3    H161975   1.211   1.412   3.651
13520TIP3    H261976   1.319   1.512   3.683
13521TIP3   OH261977   1.461   1.588   1.907
13521TIP3    H161978   1.491   1.510   1.958
13521TIP3    H261979   1.537   1.610   1.852
13522TIP3   OH261980   0.111   1.148   3.686
13522TIP3    H161981   0.133   1.058   3.654
13522TIP3    H261982   0.040   1.175   3.628
13523TIP3   OH261983   0.550   1.182   1.889
13523TIP3    H161984   0.563   1.106   1.947
13523TIP3    H261985   0.625   1.170   1.827
13524TIP3   OH261986   0.786   1.146   3.626
13524TIP3    H161987   0.753   1.178   3.539
13524TIP3    H261988   0.794   1.049   3.615
13525TIP3   OH261989   1.093   1.293   1.867
13525TIP3    H161990   1.066   1.301   1.960
13525TIP3    H261991   1.074   1.197   1.852
13526TIP3   OH261992   1.356   1.132   3.365
13526TIP3    H161993   1.435   1.190   3.359
13526TIP3    H261994   1.286   1.199   3.368
13527TIP3   OH261995   0.200   0.869   3.624
13527TIP3    H161996   0.249   0.785   3.616
13527TIP3    H261997   0.183   0.870   3.720
13528TIP3   OH261998   0.670   0.984   2.132
13528TIP3    H161999   0.620   0.930   2.195
13528TIP3    H262000   0.700   0.917   2.067
13529TIP3   OH262001   0.597   0.764   3.360
13529TIP3    H162002   0.536   0.835   3.386
13529TIP3    H262003   0.636   0.801   3.280
13530TIP3   OH262004   0.778   0.806   1.952
13530TIP3    H162005   0.762   0.797   1.856
13530TIP3    H262006   0.875   0.811   1.958
13531TIP3   OH262007   1.104   1.021   3.694
13531TIP3    H162008   1.200   1.020   3.682
13531TIP3    H262009   1.087   0.944   3.751
13532TIP3   OH262010   1.710   1.038   1.893
13532TIP3    H162011   1.691   1.000   1.806
13532TIP3    H262012   1.719   1.134   1.874
13533TIP3   OH262013   0.639   0.502   3.466
13533TIP3    H162014   0.649   0.431   3.401
13533TIP3    H262015   0.631   0.583   3.411
13534TIP3   OH262016   0.677   0.343   3.219
13534TIP3    H162017   0.729   0.390   3.149
13534TIP3    H262018   0.588   0.332   3.178
13535TIP3   OH262019   0.831   0.889   3.246
13535TIP3    H162020   0.907   0.873   3.189
13535TIP3    H262021   0.795   0.973   3.212
13536TIP3   OH262022   1.271   0.664   3.742
13536TIP3    H162023   1.295   0.571   3.733
13536TIP3    H262024   1.357   0.709   3.745
13537TIP3   OH262025   1.406   0.944   3.559
13537TIP3    H162026   1.380   1.016   3.497
13537TIP3    H262027   1.502   0.941   3.540
13538TIP3   OH262028   0.480   0.629   3.657
13538TIP3    H162029   0.405   0.568   3.642
13538TIP3    H262030   0.547   0.592   3.597
13539TIP3   OH262031   0.742   0.104   3.288
13539TIP3    H162032   0.735   0.197   3.258
13539TIP3    H262033   0.684   0.062   3.224
13540TIP3   OH262034   0.882   0.520   3.622
13540TIP3    H162035   0.854   0.489   3.710
13540TIP3    H262036   0.804   0.495   3.569
13541TIP3   OH262037   1.156   0.433   3.533
13541TIP3    H162038   1.059   0.435   3.544
13541TIP3    H262039   1.184   0.369   3.602
13542TIP3   OH262040   1.315   0.304   3.725
13542TIP3    H162041   1.306   0.206   3.723
13542TIP3    H262042   1.286   0.324   3.816
13543TIP3   OH262043   0.306   0.419   3.637
13543TIP3    H162044   0.320   0.346   3.574
13543TIP3    H262045   0.286   0.372   3.720
13544TIP3   OH262046   0.776   7.324   3.534
13544TIP3    H162047   0.845   7.257   3.539
13544TIP3    H262048   0.766   7.345   3.439
13545TIP3   OH262049   0.817   0.192   3.738
13545TIP3    H162050   0.799   0.135   3.661
13545TIP3    H262051   0.753   0.264   3.731
13546TIP3   OH262052   0.761   1.876   2.060
13546TIP3    H162053   0.857   1.885   2.066
13546TIP3    H262054   0.746   1.936   1.986
13547TIP3   OH262055   0.120   1.334   2.008
13547TIP3    H162056   0.216   1.345   2.025
13547TIP3    H262057   0.124   1.269   1.934
13548TIP3   OH262058   7.344   1.878   2.485
13548TIP3    H162059   7.250   1.869   2.456
13548TIP3    H262060   7.345   1.821   2.564
13549TIP3   OH262061   0.080   1.690   2.686
13549TIP3    H162062   0.043   1.602   2.708
13549TIP3    H262063   0.104   1.717   2.777
13550TIP3   OH262064   1.830   1.765   2.984
13550TIP3    H162065   1.834   1.781   3.079
13550TIP3    H262066   1.901   1.823   2.953
13551TIP3   OH262067   1.788   1.725   3.278
13551TIP3    H162068   1.741   1.648   3.240
13551TIP3    H262069   1.836   1.680   3.349
13552TIP3   OH262070   1.632   1.297   3.745
13552TIP3    H162071   1.542   1.294   3.782
13552TIP3    H262072   1.669   1.377   3.787
13553TIP3   OH262073   1.764   1.130   2.288
13553TIP3    H162074   1.851   1.169   2.307
13553TIP3    H262075   1.762   1.058   2.355
13554TIP3   OH262076   1.800   0.937   2.477
13554TIP3    H162077   1.725   0.888   2.516
13554TIP3    H262078   1.859   0.950   2.554
13555TIP3   OH262079   1.775   1.207   2.976
13555TIP3    H162080   1.857   1.169   2.938
13555TIP3    H262081   1.790   1.302   2.959
13556TIP3   OH262082   1.631   1.498   3.202
13556TIP3    H162083   1.562   1.532   3.261
13556TIP3    H262084   1.577   1.457   3.132
13557TIP3   OH262085   1.830   0.920   2.116
13557TIP3    H162086   1.774   0.954   2.044
13557TIP3    H262087   1.820   0.991   2.182
13558TIP3   OH262088   1.668   0.643   1.967
13558TIP3    H162089   1.675   0.710   1.898
13558TIP3    H262090   1.649   0.561   1.918
13559TIP3   OH262091   1.582   0.785   2.534
13559TIP3    H162092   1.567   0.689   2.530
13559TIP3    H262093   1.549   0.806   2.623
13560TIP3   OH262094   0.084   0.992   2.932
13560TIP3    H162095   0.104   0.988   2.836
13560TIP3    H262096   0.172   0.981   2.974
13561TIP3   OH262097   1.668   0.981   3.503
13561TIP3    H162098   1.729   0.906   3.516
13561TIP3    H262099   1.728   1.059   3.503
13562TIP3   OH262100   1.817   0.769   3.568
13562TIP3    H162101   1.729   0.729   3.553
13562TIP3    H262102   1.875   0.692   3.561
13563TIP3   OH262103   1.592   0.391   1.883
13563TIP3    H162104   1.651   0.346   1.947
13563TIP3    H262105   1.506   0.347   1.897
13564TIP3   OH262106   1.546   0.544   2.376
13564TIP3    H162107   1.578   0.453   2.391
13564TIP3    H262108   1.628   0.585   2.345
13565TIP3   OH262109   1.612   0.600   2.924
13565TIP3    H162110   1.709   0.621   2.923
13565TIP3    H262111   1.594   0.611   3.018
13566TIP3   OH262112   1.618   0.671   3.201
13566TIP3    H162113   1.530   0.699   3.234
13566TIP3    H262114   1.662   0.757   3.180
13567TIP3   OH262115   0.072   0.512   3.555
13567TIP3    H162116   0.161   0.490   3.586
13567TIP3    H262117   0.014   0.442   3.593
13568TIP3   OH262118   1.852   0.077   3.739
13568TIP3    H162119   1.876   0.010   3.673
13568TIP3    H262120   1.853   0.159   3.686
13569TIP3   OH262121   1.615   0.275   2.385
13569TIP3    H162122   1.635   0.228   2.469
13569TIP3    H262123   1.557   0.210   2.338
13570TIP3   OH262124   0.166   0.354   2.834
13570TIP3    H162125   0.208   0.271   2.867
13570TIP3    H262126   0.219   0.421   2.881
13571TIP3   OH262127   0.051   0.728   2.980
13571TIP3    H162128   0.054   0.684   2.892
13571TIP3    H262129   0.058   0.819   2.952
13572TIP3   OH262130   1.799   0.282   3.570
13572TIP3    H162131   1.706   0.312   3.565
13572TIP3    H262132   1.803   0.229   3.488
13573TIP3   OH262133   1.800   0.276   2.041
13573TIP3    H162134   1.838   0.203   1.986
13573TIP3    H262135   1.871   0.341   2.044
13574TIP3   OH262136   0.075   0.271   2.309
13574TIP3    H162137  -0.019   0.293   2.321
13574TIP3    H262138   0.098   0.345   2.249
13575TIP3   OH262139   1.503   1.774   2.547
13575TIP3    H162140   1.571   1.743   2.484
13575TIP3    H262141   1.554   1.823   2.612
13576TIP3   OH262142   7.348   0.148   3.208
13576TIP3    H162143   7.268   0.121   3.252
13576TIP3    H262144   7.304   0.191   3.132
13577TIP3   OH262145   0.244   1.467   3.598
13577TIP3    H162146   0.160   1.484   3.555
13577TIP3    H262147   0.219   1.456   3.690
13578TIP3   OH262148   0.541   1.567   3.228
13578TIP3    H162149   0.501   1.650   3.198
13578TIP3    H262150   0.632   1.575   3.193
13579TIP3   OH262151   0.970   1.707   3.515
13579TIP3    H162152   0.983   1.671   3.606
13579TIP3    H262153   1.060   1.737   3.491
13580TIP3   OH262154   1.198   1.833   3.446
13580TIP3    H162155   1.272   1.775   3.423
13580TIP3    H262156   1.236   1.877   3.526
13581TIP3   OH262157   1.701   0.097   3.348
13581TIP3    H162158   1.616   0.128   3.311
13581TIP3    H262159   1.716   0.012   3.302
13582TIP3   OH262160   0.283   1.889   3.227
13582TIP3    H162161   0.208   1.937   3.187
13582TIP3    H262162   0.249   1.869   3.315
13583TIP3   OH262163   0.528   1.847   3.130
13583TIP3    H162164   0.439   1.860   3.170
13583TIP3    H262165   0.523   1.906   3.054
13584TIP3   OH262166   0.998   1.837   3.048
13584TIP3    H162167   0.951   1.893   2.984
13584TIP3    H262168   1.011   1.900   3.122
13585TIP3   OH262169   1.226   1.718   3.152
13585TIP3    H162170   1.141   1.746   3.115
13585TIP3    H262171   1.275   1.801   3.142
13586TIP3   OH262172   1.485   1.875   3.174
13586TIP3    H162173   1.479   1.971   3.151
13586TIP3    H262174   1.506   1.838   3.086
13587TIP3   OH262175   0.221   1.753   2.917
13587TIP3    H162176   0.220   1.708   3.005
13587TIP3    H262177   0.302   1.716   2.879
13588TIP3   OH262178   0.431   1.624   2.785
13588TIP3    H162179   0.415   1.531   2.808
13588TIP3    H262180   0.518   1.640   2.829
13589TIP3   OH262181   0.692   1.672   2.872
13589TIP3    H162182   0.710   1.580   2.846
13589TIP3    H262183   0.699   1.667   2.968
13590TIP3   OH262184   1.028   0.244   2.784
13590TIP3    H162185   0.969   0.172   2.812
13590TIP3    H262186   1.096   0.195   2.734
13591TIP3   OH262187   1.554   0.045   2.795
13591TIP3    H162188   1.616   0.100   2.743
13591TIP3    H262189   1.467   0.079   2.771
13592TIP3   OH262190   1.723   0.170   2.620
13592TIP3    H162191   1.786   0.111   2.578
13592TIP3    H262192   1.773   0.254   2.628
13593TIP3   OH262193   0.275   0.104   2.572
13593TIP3    H162194   0.200   0.078   2.517
13593TIP3    H262195   0.323   0.019   2.577
13594TIP3   OH262196   0.159   0.073   2.140
13594TIP3    H162197   0.204   0.140   2.087
13594TIP3    H262198   0.097   0.130   2.190
13595TIP3   OH262199   0.730   0.086   2.548
13595TIP3    H162200   0.815   0.132   2.544
13595TIP3    H262201   0.720   0.070   2.642
13596TIP3   OH262202   1.269   0.132   2.727
13596TIP3    H162203   1.283   0.127   2.632
13596TIP3    H262204   1.260   0.034   2.741
13597TIP3   OH262205   1.423   0.102   2.283
13597TIP3    H162206   1.347   0.158   2.261
13597TIP3    H262207   1.382   0.016   2.298
13598TIP3   OH262208   0.145   1.674   2.248
13598TIP3    H162209   0.084   1.671   2.173
13598TIP3    H262210   0.147   1.769   2.262
13599TIP3   OH262211   0.334   0.267   1.998
13599TIP3    H162212   0.388   0.209   1.940
13599TIP3    H262213   0.404   0.301   2.057
13600TIP3   OH262214   0.831   0.294   2.239
13600TIP3    H162215   0.867   0.237   2.310
13600TIP3    H262216   0.847   0.381   2.282
13601TIP3   OH262217   1.032   1.802   2.079
13601TIP3    H162218   1.124   1.824   2.057
13601TIP3    H262219   1.010   1.749   1.999
13602TIP3   OH262220   1.701   1.751   2.351
13602TIP3    H162221   1.683   1.673   2.294
13602TIP3    H262222   1.695   1.825   2.286
13603TIP3   OH262223   0.254   0.153   3.505
13603TIP3    H162224   0.221   0.078   3.556
13603TIP3    H262225   0.345   0.154   3.544
13604TIP3   OH262226   0.438   0.113   3.669
13604TIP3    H162227   0.532   0.094   3.655
13604TIP3    H262228   0.423   0.027   3.714
13605TIP3   OH262229   0.324   1.766   1.938
13605TIP3    H162230   0.298   1.793   2.028
13605TIP3    H262231   0.405   1.714   1.955
13606TIP3   OH262232   1.296   7.359   3.686
13606TIP3    H162233   1.302   7.303   3.767
13606TIP3    H262234   1.386   7.337   3.655
13607TIP3   OH262235   1.626   1.626   3.558
13607TIP3    H162236   1.546   1.613   3.503
13607TIP3    H262237   1.615   1.721   3.580
13608TIP3   OH262238   3.071   1.014   2.555
13608TIP3    H162239   3.069   1.112   2.553
13608TIP3    H262240   2.998   0.991   2.496
13609TIP3   OH262241   2.956   0.940   2.907
13609TIP3    H162242   2.955   0.874   2.978
13609TIP3    H262243   2.920   0.890   2.831
13610TIP3   OH262244   2.191   0.905   3.059
13610TIP3    H162245   2.200   0.839   3.132
13610TIP3    H262246   2.265   0.964   3.083
13611TIP3   OH262247   3.325   1.234   2.734
13611TIP3    H162248   3.284   1.163   2.784
13611TIP3    H262249   3.327   1.305   2.802
13612TIP3   OH262250   2.284   1.352   2.910
13612TIP3    H162251   2.254   1.265   2.877
13612TIP3    H262252   2.379   1.333   2.919
13613TIP3   OH262253   1.948   0.707   2.461
13613TIP3    H162254   1.904   0.794   2.454
13613TIP3    H262255   1.892   0.653   2.403
13614TIP3   OH262256   2.019   0.932   2.675
13614TIP3    H162257   2.046   0.849   2.720
13614TIP3    H262258   2.089   0.941   2.608
13615TIP3   OH262259   3.038   1.750   2.759
13615TIP3    H162260   3.102   1.681   2.729
13615TIP3    H262261   3.015   1.716   2.846
13616TIP3   OH262262   2.795   1.181   2.951
13616TIP3    H162263   2.828   1.117   2.887
13616TIP3    H262264   2.874   1.195   3.006
13617TIP3   OH262265   3.655   0.343   3.025
13617TIP3    H162266   3.672   0.401   3.103
13617TIP3    H262267   3.707   0.391   2.959
13618TIP3   OH262268   3.111   0.626   2.986
13618TIP3    H162269   3.126   0.530   2.986
13618TIP3    H262270   3.100   0.641   2.890
13619TIP3   OH262271   2.423   0.436   2.706
13619TIP3    H162272   2.433   0.519   2.656
13619TIP3    H262273   2.381   0.379   2.638
13620TIP3   OH262274   3.206   0.431   2.535
13620TIP3    H162275   3.261   0.420   2.616
13620TIP3    H262276   3.251   0.507   2.494
13621TIP3   OH262277   2.084   0.677   2.780
13621TIP3    H162278   2.151   0.622   2.825
13621TIP3    H262279   2.095   0.645   2.689
13622TIP3   OH262280   2.600   0.832   2.712
13622TIP3    H162281   2.667   0.774   2.751
13622TIP3    H262282   2.548   0.767   2.661
13623TIP3   OH262283   3.699   0.486   3.253
13623TIP3    H162284   3.636   0.561   3.243
13623TIP3    H262285   3.701   0.475   3.349
13624TIP3   OH262286   2.314   0.331   3.109
13624TIP3    H162287   2.282   0.384   3.034
13624TIP3    H262288   2.244   0.348   3.176
13625TIP3   OH262289   3.042   1.273   2.465
13625TIP3    H162290   3.016   1.246   2.376
13625TIP3    H262291   3.012   1.367   2.470
13626TIP3   OH262292   2.563   1.089   3.124
13626TIP3    H162293   2.494   1.150   3.161
13626TIP3    H262294   2.634   1.152   3.107
13627TIP3   OH262295   3.378   0.374   2.739
13627TIP3    H162296   3.353   0.303   2.800
13627TIP3    H262297   3.443   0.421   2.795
13628TIP3   OH262298   2.269   0.516   2.911
13628TIP3    H162299   2.334   0.580   2.945
13628TIP3    H262300   2.321   0.471   2.840
13629TIP3   OH262301   2.402   1.293   3.195
13629TIP3    H162302   2.403   1.389   3.184
13629TIP3    H262303   2.328   1.281   3.260
13630TIP3   OH262304   2.014   1.250   2.296
13630TIP3    H162305   1.992   1.286   2.208
13630TIP3    H262306   2.027   1.332   2.347
13631TIP3   OH262307   3.378   1.418   2.971
13631TIP3    H162308   3.281   1.429   2.983
13631TIP3    H262309   3.405   1.510   2.951
13632TIP3   OH262310   3.414   0.246   3.115
13632TIP3    H162311   3.339   0.305   3.101
13632TIP3    H262312   3.483   0.287   3.058
13633TIP3   OH262313   2.704   0.059   2.839
13633TIP3    H162314   2.703  -0.036   2.856
13633TIP3    H262315   2.625   0.086   2.890
13634TIP3   OH262316   3.204   1.597   2.630
13634TIP3    H162317   3.247   1.525   2.579
13634TIP3    H262318   3.247   1.676   2.591
13635TIP3   OH262319   3.325   1.389   2.482
13635TIP3    H162320   3.295   1.320   2.422
13635TIP3    H262321   3.328   1.340   2.566
13636TIP3   OH262322   3.486   1.249   3.331
13636TIP3    H162323   3.501   1.184   3.259
13636TIP3    H262324   3.507   1.333   3.287
13637TIP3   OH262325   2.937   0.935   2.308
13637TIP3    H162326   2.868   0.994   2.273
13637TIP3    H262327   3.008   0.947   2.242
13638TIP3   OH262328   2.945   0.795   2.008
13638TIP3    H162329   3.015   0.793   2.075
13638TIP3    H262330   2.975   0.723   1.951
13639TIP3   OH262331   3.675   0.880   3.136
13639TIP3    H162332   3.610   0.953   3.140
13639TIP3    H262333   3.724   0.904   3.055
13640TIP3   OH262334   3.281   0.958   2.400
13640TIP3    H162335   3.207   0.983   2.460
13640TIP3    H262336   3.329   0.891   2.452
13641TIP3   OH262337   3.274   0.775   3.313
13641TIP3    H162338   3.275   0.857   3.364
13641TIP3    H262339   3.211   0.804   3.243
13642TIP3   OH262340   2.441   1.024   2.593
13642TIP3    H162341   2.411   0.989   2.506
13642TIP3    H262342   2.505   0.956   2.624
13643TIP3   OH262343   2.574   1.361   2.863
13643TIP3    H162344   2.573   1.314   2.778
13643TIP3    H262345   2.653   1.325   2.907
13644TIP3   OH262346   2.476   0.898   2.956
13644TIP3    H162347   2.531   0.910   2.876
13644TIP3    H262348   2.513   0.966   3.018
13645TIP3   OH262349   3.118   1.456   3.029
13645TIP3    H162350   3.089   1.520   3.095
13645TIP3    H262351   3.091   1.371   3.071
13646TIP3   OH262352   2.589   1.395   3.407
13646TIP3    H162353   2.532   1.423   3.480
13646TIP3    H262354   2.528   1.326   3.368
13647TIP3   OH262355   3.169   0.879   2.166
13647TIP3    H162356   3.225   0.896   2.246
13647TIP3    H262357   3.214   0.928   2.094
13648TIP3   OH262358   2.256   0.946   3.344
13648TIP3    H162359   2.279   1.021   3.405
13648TIP3    H262360   2.166   0.972   3.322
13649TIP3   OH262361   2.942   1.551   2.513
13649TIP3    H162362   2.983   1.582   2.594
13649TIP3    H262363   2.883   1.624   2.489
13650TIP3   OH262364   2.391   1.553   3.503
13650TIP3    H162365   2.392   1.533   3.407
13650TIP3    H262366   2.301   1.529   3.528
13651TIP3   OH262367   3.543   0.069   2.136
13651TIP3    H162368   3.453   0.068   2.173
13651TIP3    H262369   3.562   0.159   2.106
13652TIP3   OH262370   2.339   0.925   2.353
13652TIP3    H162371   2.313   1.006   2.305
13652TIP3    H262372   2.272   0.862   2.329
13653TIP3   OH262373   3.653   1.487   1.991
13653TIP3    H162374   3.669   1.582   2.008
13653TIP3    H262375   3.745   1.456   1.991
13654TIP3   OH262376   1.944   1.171   3.243
13654TIP3    H162377   1.903   1.161   3.155
13654TIP3    H262378   1.958   1.077   3.265
13655TIP3   OH262379   1.925   1.443   2.920
13655TIP3    H162380   2.022   1.432   2.917
13655TIP3    H262381   1.917   1.525   2.971
13656TIP3   OH262382   3.748   1.514   3.490
13656TIP3    H162383   3.736   1.418   3.487
13656TIP3    H262384   3.661   1.539   3.528
13657TIP3   OH262385   2.848   1.468   3.376
13657TIP3    H162386   2.848   1.552   3.427
13657TIP3    H262387   2.757   1.433   3.397
13658TIP3   OH262388   2.890   1.843   2.355
13658TIP3    H162389   2.876   1.836   2.259
13658TIP3    H262390   2.888   1.939   2.371
13659TIP3   OH262391   2.249   1.734   2.539
13659TIP3    H162392   2.268   1.687   2.623
13659TIP3    H262393   2.169   1.687   2.511
13660TIP3   OH262394   3.194   1.763   2.053
13660TIP3    H162395   3.239   1.688   2.010
13660TIP3    H262396   3.198   1.737   2.147
13661TIP3   OH262397   3.164   1.757   2.331
13661TIP3    H162398   3.068   1.764   2.347
13661TIP3    H262399   3.187   1.682   2.388
13662TIP3   OH262400   3.463   0.659   3.536
13662TIP3    H162401   3.416   0.705   3.465
13662TIP3    H262402   3.462   0.567   3.506
13663TIP3   OH262403   2.176   1.305   3.339
13663TIP3    H162404   2.202   1.263   3.424
13663TIP3    H262405   2.092   1.260   3.316
13664TIP3   OH262406   2.442   0.145   2.935
13664TIP3    H162407   2.353   0.139   2.895
13664TIP3    H262408   2.432   0.231   2.979
13665TIP3   OH262409   2.907   0.118   3.272
13665TIP3    H162410   2.950   0.076   3.347
13665TIP3    H262411   2.812   0.107   3.289
13666TIP3   OH262412   3.238   0.496   3.359
13666TIP3    H162413   3.180   0.481   3.437
13666TIP3    H262414   3.222   0.589   3.334
13667TIP3   OH262415   3.314   0.982   1.948
13667TIP3    H162416   3.312   0.963   1.852
13667TIP3    H262417   3.400   1.027   1.953
13668TIP3   OH262418   2.877   0.372   2.003
13668TIP3    H162419   2.839   0.366   2.091
13668TIP3    H262420   2.843   0.287   1.969
13669TIP3   OH262421   2.456   0.647   3.059
13669TIP3    H162422   2.381   0.646   3.122
13669TIP3    H262423   2.451   0.738   3.022
13670TIP3   OH262424   2.451   0.658   2.543
13670TIP3    H162425   2.357   0.634   2.530
13670TIP3    H262426   2.489   0.629   2.458
13671TIP3   OH262427   3.005   0.706   2.420
13671TIP3    H162428   2.964   0.789   2.385
13671TIP3    H262429   3.074   0.693   2.353
13672TIP3   OH262430   2.909   0.729   3.564
13672TIP3    H162431   2.856   0.652   3.595
13672TIP3    H262432   2.993   0.717   3.612
13673TIP3   OH262433   3.109   0.657   2.704
13673TIP3    H162434   3.077   0.714   2.632
13673TIP3    H262435   3.114   0.572   2.658
13674TIP3   OH262436   2.217   0.670   3.224
13674TIP3    H162437   2.227   0.715   3.310
13674TIP3    H262438   2.172   0.588   3.247
13675TIP3   OH262439   2.554   0.413   1.912
13675TIP3    H162440   2.508   0.369   1.986
13675TIP3    H262441   2.484   0.453   1.860
13676TIP3   OH262442   1.884   0.385   2.622
13676TIP3    H162443   1.952   0.382   2.693
13676TIP3    H262444   1.929   0.346   2.545
13677TIP3   OH262445   2.010   0.456   2.162
13677TIP3    H162446   2.061   0.514   2.103
13677TIP3    H262447   1.940   0.518   2.191
13678TIP3   OH262448   3.026   0.816   3.160
13678TIP3    H162449   3.064   0.747   3.102
13678TIP3    H262450   2.979   0.763   3.228
13679TIP3   OH262451   2.705   0.413   2.642
13679TIP3    H162452   2.612   0.413   2.674
13679TIP3    H262453   2.756   0.398   2.724
13680TIP3   OH262454   2.188   0.569   2.531
13680TIP3    H162455   2.099   0.584   2.492
13680TIP3    H262456   2.217   0.486   2.490
13681TIP3   OH262457   2.552   0.573   2.293
13681TIP3    H162458   2.648   0.584   2.309
13681TIP3    H262459   2.528   0.642   2.229
13682TIP3   OH262460   3.147   0.335   2.966
13682TIP3    H162461   3.080   0.343   3.037
13682TIP3    H262462   3.095   0.308   2.890
13683TIP3   OH262463   2.422   0.691   2.052
13683TIP3    H162464   2.369   0.653   1.980
13683TIP3    H262465   2.505   0.711   2.005
13684TIP3   OH262466   3.467   1.901   3.601
13684TIP3    H162467   3.494   1.939   3.515
13684TIP3    H262468   3.540   1.933   3.657
13685TIP3   OH262469   2.212   1.154   3.565
13685TIP3    H162470   2.300   1.169   3.607
13685TIP3    H262471   2.147   1.163   3.636
13686TIP3   OH262472   2.836   0.689   2.833
13686TIP3    H162473   2.895   0.634   2.780
13686TIP3    H262474   2.820   0.634   2.912
13687TIP3   OH262475   2.334   0.306   2.478
13687TIP3    H162476   2.303   0.214   2.479
13687TIP3    H262477   2.412   0.298   2.422
13688TIP3   OH262478   2.700   0.527   3.073
13688TIP3    H162479   2.615   0.575   3.084
13688TIP3    H262480   2.754   0.558   3.148
13689TIP3   OH262481   2.760   1.138   2.246
13689TIP3    H162482   2.676   1.100   2.211
13689TIP3    H262483   2.733   1.160   2.338
13690TIP3   OH262484   3.476   1.064   3.125
13690TIP3    H162485   3.533   1.113   3.062
13690TIP3    H262486   3.390   1.069   3.079
13691TIP3   OH262487   3.139   0.424   2.068
13691TIP3    H162488   3.045   0.441   2.045
13691TIP3    H262489   3.174   0.512   2.094
13692TIP3   OH262490   2.912   1.172   3.371
13692TIP3    H162491   2.869   1.128   3.446
13692TIP3    H262492   2.878   1.262   3.379
13693TIP3   OH262493   3.216   0.615   2.226
13693TIP3    H162494   3.306   0.605   2.263
13693TIP3    H262495   3.223   0.699   2.175
13694TIP3   OH262496   2.269   1.083   2.826
13694TIP3    H162497   2.336   1.077   2.755
13694TIP3    H262498   2.275   0.997   2.870
13695TIP3   OH262499   2.966   1.291   2.148
13695TIP3    H162500   2.931   1.375   2.183
13695TIP3    H262501   2.893   1.229   2.169
13696TIP3   OH262502   1.965   0.924   3.351
13696TIP3    H162503   1.986   0.880   3.436
13696TIP3    H262504   1.905   0.861   3.307
13697TIP3   OH262505   2.669   0.874   3.572
13697TIP3    H162506   2.635   0.854   3.483
13697TIP3    H262507   2.762   0.848   3.566
13698TIP3   OH262508   3.138   1.414   3.364
13698TIP3    H162509   3.045   1.431   3.341
13698TIP3    H262510   3.134   1.443   3.457
13699TIP3   OH262511   3.698   0.633   2.206
13699TIP3    H162512   3.651   0.603   2.126
13699TIP3    H262513   3.716   0.726   2.178
13700TIP3   OH262514   3.703   1.218   3.483
13700TIP3    H162515   3.614   1.240   3.447
13700TIP3    H262516   3.757   1.212   3.402
13701TIP3   OH262517   3.530   1.514   2.242
13701TIP3    H162518   3.497   1.430   2.277
13701TIP3    H262519   3.565   1.492   2.154
13702TIP3   OH262520   3.254   0.996   2.953
13702TIP3    H162521   3.160   0.975   2.942
13702TIP3    H262522   3.297   0.920   2.909
13703TIP3   OH262523   2.502   1.442   2.589
13703TIP3    H162524   2.556   1.506   2.541
13703TIP3    H262525   2.427   1.439   2.525
13704TIP3   OH262526   2.083   0.913   2.021
13704TIP3    H162527   2.140   0.980   2.062
13704TIP3    H262528   1.993   0.944   2.045
13705TIP3   OH262529   2.650   1.195   2.521
13705TIP3    H162530   2.614   1.286   2.520
13705TIP3    H262531   2.574   1.147   2.557
13706TIP3   OH262532   2.692   1.614   3.155
13706TIP3    H162533   2.739   1.695   3.128
13706TIP3    H262534   2.752   1.578   3.224
13707TIP3   OH262535   2.516   1.695   2.466
13707TIP3    H162536   2.419   1.703   2.480
13707TIP3    H262537   2.550   1.779   2.502
13708TIP3   OH262538   3.043   1.213   3.118
13708TIP3    H162539   3.011   1.194   3.209
13708TIP3    H262540   3.108   1.143   3.101
13709TIP3   OH262541   3.278   1.322   2.027
13709TIP3    H162542   3.308   1.274   2.107
13709TIP3    H262543   3.182   1.303   2.035
13710TIP3   OH262544   3.327   1.672   3.366
13710TIP3    H162545   3.258   1.622   3.319
13710TIP3    H262546   3.345   1.742   3.300
13711TIP3   OH262547   3.725   1.756   2.052
13711TIP3    H162548   3.794   1.823   2.032
13711TIP3    H262549   3.653   1.818   2.081
13712TIP3   OH262550   2.132   0.395   3.308
13712TIP3    H162551   2.042   0.431   3.304
13712TIP3    H262552   2.119   0.308   3.349
13713TIP3   OH262553   3.357   1.185   2.251
13713TIP3    H162554   3.332   1.106   2.304
13713TIP3    H262555   3.452   1.189   2.269
13714TIP3   OH262556   2.094   1.574   3.149
13714TIP3    H162557   2.126   1.483   3.150
13714TIP3    H262558   2.120   1.605   3.236
13715TIP3   OH262559   2.693   1.429   1.871
13715TIP3    H162560   2.701   1.349   1.817
13715TIP3    H262561   2.649   1.390   1.951
13716TIP3   OH262562   2.594   1.383   2.108
13716TIP3    H162563   2.585   1.332   2.191
13716TIP3    H262564   2.574   1.470   2.149
13717TIP3   OH262565   2.221   1.106   2.166
13717TIP3    H162566   2.154   1.147   2.226
13717TIP3    H262567   2.277   1.184   2.147
13718TIP3   OH262568   3.007   0.373   3.201
13718TIP3    H162569   3.079   0.380   3.265
13718TIP3    H262570   2.970   0.285   3.219
13719TIP3   OH262571   3.088   0.332   2.311
13719TIP3    H162572   3.096   0.379   2.224
13719TIP3    H262573   3.122   0.400   2.372
13720TIP3   OH262574   2.852   1.549   2.193
13720TIP3    H162575   2.766   1.597   2.198
13720TIP3    H262576   2.902   1.604   2.131
13721TIP3   OH262577   2.808   0.501   2.394
13721TIP3    H162578   2.880   0.567   2.397
13721TIP3    H262579   2.776   0.497   2.487
13722TIP3   OH262580   2.859   0.609   3.312
13722TIP3    H162581   2.866   0.664   3.392
13722TIP3    H262582   2.925   0.539   3.321
13723TIP3   OH262583   2.896   0.213   2.488
13723TIP3    H162584   2.853   0.279   2.546
13723TIP3    H262585   2.953   0.271   2.434
13724TIP3   OH262586   2.593   1.653   2.193
13724TIP3    H162587   2.598   1.735   2.139
13724TIP3    H262588   2.561   1.684   2.280
13725TIP3   OH262589   2.452   0.322   2.150
13725TIP3    H162590   2.447   0.411   2.189
13725TIP3    H262591   2.545   0.302   2.175
13726TIP3   OH262592   3.476   0.396   3.398
13726TIP3    H162593   3.384   0.428   3.384
13726TIP3    H262594   3.506   0.393   3.305
13727TIP3   OH262595   3.336   0.776   2.798
13727TIP3    H162596   3.254   0.731   2.770
13727TIP3    H262597   3.386   0.707   2.848
13728TIP3   OH262598   2.273   1.374   2.041
13728TIP3    H162599   2.339   1.421   2.097
13728TIP3    H262600   2.332   1.319   1.987
13729TIP3   OH262601   2.111   0.636   1.972
13729TIP3    H162602   2.113   0.732   1.991
13729TIP3    H262603   2.022   0.618   1.940
13730TIP3   OH262604   3.444   1.700   2.964
13730TIP3    H162605   3.435   1.769   2.895
13730TIP3    H262606   3.541   1.706   2.981
13731TIP3   OH262607   2.169   0.129   2.850
13731TIP3    H162608   2.175   0.119   2.752
13731TIP3    H262609   2.155   0.037   2.873
13732TIP3   OH262610   2.086   1.507   2.462
13732TIP3    H162611   2.002   1.553   2.451
13732TIP3    H262612   2.140   1.546   2.391
13733TIP3   OH262613   2.009   1.770   3.587
13733TIP3    H162614   2.070   1.751   3.661
13733TIP3    H262615   1.970   1.683   3.569
13734TIP3   OH262616   2.476   1.660   3.748
13734TIP3    H162617   2.553   1.611   3.780
13734TIP3    H262618   2.474   1.632   3.653
13735TIP3   OH262619   2.891   1.614   1.889
13735TIP3    H162620   2.821   1.548   1.911
13735TIP3    H262621   2.962   1.553   1.864
13736TIP3   OH262622   3.131   1.501   3.624
13736TIP3    H162623   3.097   1.413   3.651
13736TIP3    H262624   3.206   1.512   3.684
13737TIP3   OH262625   3.347   1.588   1.907
13737TIP3    H162626   3.376   1.510   1.958
13737TIP3    H262627   3.423   1.610   1.852
13738TIP3   OH262628   1.989   1.145   3.695
13738TIP3    H162629   2.019   1.060   3.657
13738TIP3    H262630   1.926   1.174   3.627
13739TIP3   OH262631   2.434   1.180   1.886
13739TIP3    H162632   2.449   1.108   1.949
13739TIP3    H262633   2.512   1.170   1.828
13740TIP3   OH262634   2.690   1.147   3.631
13740TIP3    H162635   2.637   1.174   3.551
13740TIP3    H262636   2.679   1.050   3.618
13741TIP3   OH262637   2.979   1.293   1.867
13741TIP3    H162638   2.951   1.301   1.960
13741TIP3    H262639   2.959   1.197   1.852
13742TIP3   OH262640   3.242   1.132   3.365
13742TIP3    H162641   3.320   1.191   3.359
13742TIP3    H262642   3.171   1.199   3.369
13743TIP3   OH262643   2.085   0.868   3.625
13743TIP3    H162644   2.136   0.787   3.615
13743TIP3    H262645   2.070   0.872   3.721
13744TIP3   OH262646   2.558   0.982   2.132
13744TIP3    H162647   2.505   0.931   2.195
13744TIP3    H262648   2.585   0.915   2.066
13745TIP3   OH262649   2.481   0.763   3.359
13745TIP3    H162650   2.427   0.839   3.388
13745TIP3    H262651   2.522   0.804   3.281
13746TIP3   OH262652   2.663   0.806   1.952
13746TIP3    H162653   2.648   0.798   1.856
13746TIP3    H262654   2.761   0.811   1.958
13747TIP3   OH262655   2.991   1.022   3.695
13747TIP3    H162656   3.086   1.020   3.682
13747TIP3    H262657   2.973   0.945   3.751
13748TIP3   OH262658   3.596   1.038   1.893
13748TIP3    H162659   3.577   1.000   1.806
13748TIP3    H262660   3.605   1.134   1.874
13749TIP3   OH262661   2.522   0.503   3.466
13749TIP3    H162662   2.535   0.432   3.401
13749TIP3    H262663   2.518   0.585   3.411
13750TIP3   OH262664   2.563   0.342   3.219
13750TIP3    H162665   2.614   0.390   3.149
13750TIP3    H262666   2.473   0.332   3.178
13751TIP3   OH262667   2.718   0.887   3.246
13751TIP3    H162668   2.793   0.874   3.188
13751TIP3    H262669   2.681   0.972   3.215
13752TIP3   OH262670   3.157   0.664   3.742
13752TIP3    H162671   3.180   0.571   3.733
13752TIP3    H262672   3.243   0.709   3.745
13753TIP3   OH262673   3.291   0.944   3.559
13753TIP3    H162674   3.266   1.016   3.497
13753TIP3    H262675   3.387   0.941   3.540
13754TIP3   OH262676   2.370   0.624   3.661
13754TIP3    H162677   2.292   0.568   3.641
13754TIP3    H262678   2.435   0.593   3.595
13755TIP3   OH262679   2.628   0.104   3.288
13755TIP3    H162680   2.622   0.198   3.258
13755TIP3    H262681   2.569   0.062   3.223
13756TIP3   OH262682   2.767   0.520   3.622
13756TIP3    H162683   2.739   0.490   3.710
13756TIP3    H262684   2.689   0.495   3.569
13757TIP3   OH262685   3.041   0.433   3.533
13757TIP3    H162686   2.945   0.435   3.544
13757TIP3    H262687   3.069   0.369   3.602
13758TIP3   OH262688   3.201   0.304   3.725
13758TIP3    H162689   3.192   0.206   3.723
13758TIP3    H262690   3.172   0.324   3.816
13759TIP3   OH262691   2.175   0.420   3.634
13759TIP3    H162692   2.202   0.347   3.575
13759TIP3    H262693   2.169   0.375   3.720
13760TIP3   OH262694   2.662   7.324   3.534
13760TIP3    H162695   2.730   7.257   3.539
13760TIP3    H262696   2.652   7.345   3.439
13761TIP3   OH262697   2.703   0.192   3.738
13761TIP3    H162698   2.685   0.135   3.661
13761TIP3    H262699   2.639   0.264   3.731
13762TIP3   OH262700   2.646   1.877   2.060
13762TIP3    H162701   2.743   1.885   2.066
13762TIP3    H262702   2.632   1.936   1.985
13763TIP3   OH262703   2.001   1.334   2.006
13763TIP3    H162704   2.098   1.343   2.025
13763TIP3    H262705   2.009   1.269   1.932
13764TIP3   OH262706   1.880   1.872   2.503
13764TIP3    H162707   1.808   1.823   2.457
13764TIP3    H262708   1.908   1.807   2.570
13765TIP3   OH262709   1.962   1.686   2.691
13765TIP3    H162710   1.927   1.598   2.711
13765TIP3    H262711   1.985   1.719   2.779
13766TIP3   OH262712   3.716   1.765   2.984
13766TIP3    H162713   3.719   1.781   3.080
13766TIP3    H262714   3.786   1.824   2.953
13767TIP3   OH262715   3.673   1.725   3.278
13767TIP3    H162716   3.626   1.648   3.240
13767TIP3    H262717   3.722   1.680   3.349
13768TIP3   OH262718   3.518   1.297   3.746
13768TIP3    H162719   3.427   1.294   3.782
13768TIP3    H262720   3.555   1.377   3.787
13769TIP3   OH262721   3.650   1.129   2.288
13769TIP3    H162722   3.736   1.169   2.307
13769TIP3    H262723   3.649   1.057   2.354
13770TIP3   OH262724   3.683   0.942   2.479
13770TIP3    H162725   3.611   0.886   2.516
13770TIP3    H262726   3.746   0.949   2.553
13771TIP3   OH262727   3.661   1.207   2.976
13771TIP3    H162728   3.742   1.169   2.938
13771TIP3    H262729   3.676   1.302   2.958
13772TIP3   OH262730   3.517   1.498   3.202
13772TIP3    H162731   3.448   1.532   3.261
13772TIP3    H262732   3.462   1.457   3.132
13773TIP3   OH262733   3.714   0.920   2.116
13773TIP3    H162734   3.659   0.954   2.043
13773TIP3    H262735   3.706   0.991   2.182
13774TIP3   OH262736   3.550   0.644   1.966
13774TIP3    H162737   3.563   0.710   1.897
13774TIP3    H262738   3.536   0.560   1.918
13775TIP3   OH262739   3.466   0.784   2.533
13775TIP3    H162740   3.453   0.689   2.531
13775TIP3    H262741   3.434   0.807   2.622
13776TIP3   OH262742   1.968   0.993   2.940
13776TIP3    H162743   1.986   0.985   2.844
13776TIP3    H262744   2.057   0.975   2.975
13777TIP3   OH262745   3.554   0.982   3.503
13777TIP3    H162746   3.615   0.906   3.516
13777TIP3    H262747   3.614   1.059   3.503
13778TIP3   OH262748   3.704   0.770   3.568
13778TIP3    H162749   3.615   0.730   3.553
13778TIP3    H262750   3.760   0.691   3.561
13779TIP3   OH262751   3.478   0.392   1.883
13779TIP3    H162752   3.537   0.346   1.945
13779TIP3    H262753   3.392   0.347   1.895
13780TIP3   OH262754   3.432   0.542   2.375
13780TIP3    H162755   3.469   0.454   2.392
13780TIP3    H262756   3.514   0.587   2.345
13781TIP3   OH262757   3.498   0.600   2.924
13781TIP3    H162758   3.594   0.621   2.923
13781TIP3    H262759   3.479   0.611   3.018
13782TIP3   OH262760   3.504   0.672   3.202
13782TIP3    H162761   3.416   0.700   3.234
13782TIP3    H262762   3.548   0.757   3.180
13783TIP3   OH262763   1.929   0.526   3.556
13783TIP3    H162764   2.023   0.504   3.573
13783TIP3    H262765   1.885   0.441   3.581
13784TIP3   OH262766   3.738   0.077   3.739
13784TIP3    H162767   3.761   0.010   3.673
13784TIP3    H262768   3.738   0.159   3.686
13785TIP3   OH262769   3.485   0.274   2.391
13785TIP3    H162770   3.526   0.228   2.468
13785TIP3    H262771   3.459   0.201   2.330
13786TIP3   OH262772   2.047   0.358   2.836
13786TIP3    H162773   2.090   0.273   2.864
13786TIP3    H262774   2.104   0.422   2.879
13787TIP3   OH262775   1.878   0.653   2.944
13787TIP3    H162776   1.934   0.627   2.868
13787TIP3    H262777   1.925   0.733   2.971
13788TIP3   OH262778   3.685   0.281   3.570
13788TIP3    H162779   3.592   0.312   3.565
13788TIP3    H262780   3.688   0.229   3.488
13789TIP3   OH262781   3.680   0.274   2.039
13789TIP3    H162782   3.724   0.204   1.986
13789TIP3    H262783   3.752   0.340   2.048
13790TIP3   OH262784   1.915   0.276   2.354
13790TIP3    H162785   1.821   0.294   2.337
13790TIP3    H262786   1.957   0.324   2.280
13791TIP3   OH262787   3.389   1.773   2.547
13791TIP3    H162788   3.457   1.743   2.484
13791TIP3    H262789   3.440   1.823   2.612
13792TIP3   OH262790   1.910   0.152   3.183
13792TIP3    H162791   1.842   0.128   3.248
13792TIP3    H262792   1.862   0.211   3.123
13793TIP3   OH262793   2.133   1.466   3.598
13793TIP3    H162794   2.050   1.484   3.553
13793TIP3    H262795   2.107   1.455   3.689
13794TIP3   OH262796   2.421   1.564   3.223
13794TIP3    H162797   2.391   1.652   3.198
13794TIP3    H262798   2.515   1.570   3.197
13795TIP3   OH262799   2.856   1.708   3.516
13795TIP3    H162800   2.870   1.672   3.607
13795TIP3    H262801   2.946   1.737   3.491
13796TIP3   OH262802   3.084   1.834   3.446
13796TIP3    H162803   3.157   1.775   3.422
13796TIP3    H262804   3.122   1.877   3.526
13797TIP3   OH262805   3.586   0.097   3.348
13797TIP3    H162806   3.502   0.128   3.312
13797TIP3    H262807   3.601   0.012   3.302
13798TIP3   OH262808   2.166   1.888   3.224
13798TIP3    H162809   2.093   1.938   3.185
13798TIP3    H262810   2.135   1.869   3.314
13799TIP3   OH262811   2.413   1.848   3.131
13799TIP3    H162812   2.324   1.859   3.171
13799TIP3    H262813   2.407   1.907   3.054
13800TIP3   OH262814   2.883   1.835   3.051
13800TIP3    H162815   2.838   1.891   2.985
13800TIP3    H262816   2.897   1.900   3.123
13801TIP3   OH262817   3.112   1.718   3.152
13801TIP3    H162818   3.027   1.746   3.115
13801TIP3    H262819   3.161   1.801   3.142
13802TIP3   OH262820   3.370   1.875   3.174
13802TIP3    H162821   3.365   1.971   3.151
13802TIP3    H262822   3.392   1.837   3.086
13803TIP3   OH262823   2.111   1.753   2.919
13803TIP3    H162824   2.104   1.706   3.005
13803TIP3    H262825   2.193   1.715   2.880
13804TIP3   OH262826   2.317   1.627   2.789
13804TIP3    H162827   2.304   1.531   2.803
13804TIP3    H262828   2.406   1.639   2.827
13805TIP3   OH262829   2.580   1.672   2.872
13805TIP3    H162830   2.594   1.579   2.845
13805TIP3    H262831   2.584   1.665   2.968
13806TIP3   OH262832   2.914   0.244   2.782
13806TIP3    H162833   2.854   0.173   2.813
13806TIP3    H262834   2.981   0.192   2.735
13807TIP3   OH262835   3.439   0.043   2.792
13807TIP3    H162836   3.499   0.103   2.744
13807TIP3    H262837   3.352   0.079   2.774
13808TIP3   OH262838   3.607   0.169   2.618
13808TIP3    H162839   3.671   0.111   2.576
13808TIP3    H262840   3.657   0.254   2.629
13809TIP3   OH262841   2.159   0.103   2.573
13809TIP3    H162842   2.082   0.080   2.519
13809TIP3    H262843   2.207   0.019   2.576
13810TIP3   OH262844   2.041   0.076   2.144
13810TIP3    H162845   2.083   0.141   2.086
13810TIP3    H262846   1.978   0.130   2.191
13811TIP3   OH262847   2.615   0.085   2.548
13811TIP3    H162848   2.699   0.132   2.545
13811TIP3    H262849   2.605   0.070   2.643
13812TIP3   OH262850   3.156   0.132   2.726
13812TIP3    H162851   3.165   0.121   2.632
13812TIP3    H262852   3.144   0.035   2.745
13813TIP3   OH262853   3.306   0.090   2.276
13813TIP3    H162854   3.233   0.139   2.238
13813TIP3    H262855   3.267   0.002   2.293
13814TIP3   OH262856   2.028   1.671   2.246
13814TIP3    H162857   1.965   1.669   2.173
13814TIP3    H262858   2.031   1.766   2.263
13815TIP3   OH262859   2.219   0.263   1.996
13815TIP3    H162860   2.276   0.208   1.939
13815TIP3    H262861   2.284   0.301   2.057
13816TIP3   OH262862   2.720   0.294   2.238
13816TIP3    H162863   2.750   0.236   2.310
13816TIP3    H262864   2.731   0.381   2.282
13817TIP3   OH262865   2.918   1.802   2.078
13817TIP3    H162866   3.010   1.824   2.057
13817TIP3    H262867   2.896   1.749   1.999
13818TIP3   OH262868   3.588   1.751   2.350
13818TIP3    H162869   3.568   1.673   2.293
13818TIP3    H262870   3.580   1.825   2.286
13819TIP3   OH262871   2.140   0.149   3.505
13819TIP3    H162872   2.106   0.076   3.557
13819TIP3    H262873   2.230   0.153   3.545
13820TIP3   OH262874   2.325   0.114   3.669
13820TIP3    H162875   2.419   0.094   3.656
13820TIP3    H262876   2.308   0.029   3.713
13821TIP3   OH262877   2.210   1.771   1.940
13821TIP3    H162878   2.184   1.793   2.030
13821TIP3    H262879   2.287   1.711   1.956
13822TIP3   OH262880   3.182   7.359   3.686
13822TIP3    H162881   3.188   7.303   3.767
13822TIP3    H262882   3.271   7.337   3.655
13823TIP3   OH262883   3.512   1.626   3.558
13823TIP3    H162884   3.432   1.613   3.503
13823TIP3    H262885   3.500   1.721   3.580
13824TIP3   OH262886   4.960   1.015   2.551
13824TIP3    H162887   4.953   1.113   2.558
13824TIP3    H262888   4.879   0.990   2.502
13825TIP3   OH262889   4.842   0.939   2.906
13825TIP3    H162890   4.841   0.875   2.978
13825TIP3    H262891   4.807   0.888   2.831
13826TIP3   OH262892   4.077   0.907   3.061
13826TIP3    H162893   4.086   0.838   3.131
13826TIP3    H262894   4.152   0.964   3.084
13827TIP3   OH262895   5.210   1.234   2.735
13827TIP3    H162896   5.169   1.163   2.784
13827TIP3    H262897   5.213   1.305   2.802
13828TIP3   OH262898   4.170   1.352   2.911
13828TIP3    H162899   4.139   1.265   2.880
13828TIP3    H262900   4.265   1.334   2.916
13829TIP3   OH262901   3.826   0.707   2.471
13829TIP3    H162902   3.793   0.795   2.451
13829TIP3    H262903   3.783   0.655   2.401
13830TIP3   OH262904   3.906   0.933   2.677
13830TIP3    H162905   3.932   0.848   2.719
13830TIP3    H262906   3.973   0.940   2.607
13831TIP3   OH262907   4.922   1.750   2.758
13831TIP3    H162908   4.987   1.681   2.730
13831TIP3    H262909   4.901   1.717   2.845
13832TIP3   OH262910   4.679   1.179   2.953
13832TIP3    H162911   4.713   1.117   2.888
13832TIP3    H262912   4.761   1.195   3.005
13833TIP3   OH262913   5.538   0.345   3.025
13833TIP3    H162914   5.557   0.402   3.103
13833TIP3    H262915   5.594   0.387   2.959
13834TIP3   OH262916   4.996   0.626   2.986
13834TIP3    H162917   5.012   0.530   2.986
13834TIP3    H262918   4.986   0.641   2.890
13835TIP3   OH262919   4.306   0.436   2.708
13835TIP3    H162920   4.318   0.519   2.658
13835TIP3    H262921   4.268   0.382   2.635
13836TIP3   OH262922   5.081   0.441   2.543
13836TIP3    H162923   5.147   0.413   2.612
13836TIP3    H262924   5.137   0.500   2.490
13837TIP3   OH262925   3.969   0.677   2.782
13837TIP3    H162926   4.037   0.624   2.826
13837TIP3    H262927   3.981   0.646   2.690
13838TIP3   OH262928   4.485   0.831   2.713
13838TIP3    H162929   4.553   0.774   2.751
13838TIP3    H262930   4.434   0.766   2.660
13839TIP3   OH262931   5.584   0.486   3.253
13839TIP3    H162932   5.522   0.561   3.243
13839TIP3    H262933   5.586   0.475   3.349
13840TIP3   OH262934   4.200   0.330   3.111
13840TIP3    H162935   4.169   0.384   3.035
13840TIP3    H262936   4.126   0.350   3.175
13841TIP3   OH262937   4.928   1.273   2.464
13841TIP3    H162938   4.894   1.251   2.377
13841TIP3    H262939   4.898   1.367   2.474
13842TIP3   OH262940   4.450   1.089   3.134
13842TIP3    H162941   4.379   1.154   3.156
13842TIP3    H262942   4.520   1.149   3.105
13843TIP3   OH262943   5.263   0.376   2.741
13843TIP3    H162944   5.238   0.302   2.798
13843TIP3    H262945   5.330   0.421   2.796
13844TIP3   OH262946   4.156   0.510   2.915
13844TIP3    H162947   4.218   0.580   2.944
13844TIP3    H262948   4.207   0.471   2.839
13845TIP3   OH262949   4.295   1.290   3.216
13845TIP3    H162950   4.290   1.381   3.182
13845TIP3    H262951   4.206   1.282   3.260
13846TIP3   OH262952   3.902   1.251   2.295
13846TIP3    H162953   3.878   1.285   2.208
13846TIP3    H262954   3.911   1.333   2.347
13847TIP3   OH262955   5.263   1.418   2.971
13847TIP3    H162956   5.167   1.429   2.983
13847TIP3    H262957   5.290   1.510   2.951
13848TIP3   OH262958   5.299   0.246   3.116
13848TIP3    H162959   5.224   0.305   3.101
13848TIP3    H262960   5.368   0.287   3.059
13849TIP3   OH262961   4.591   0.059   2.838
13849TIP3    H162962   4.589  -0.037   2.856
13849TIP3    H262963   4.513   0.086   2.889
13850TIP3   OH262964   5.089   1.597   2.630
13850TIP3    H162965   5.132   1.525   2.579
13850TIP3    H262966   5.133   1.675   2.591
13851TIP3   OH262967   5.210   1.390   2.482
13851TIP3    H162968   5.182   1.319   2.423
13851TIP3    H262969   5.215   1.342   2.567
13852TIP3   OH262970   5.372   1.249   3.331
13852TIP3    H162971   5.387   1.183   3.259
13852TIP3    H262972   5.393   1.333   3.287
13853TIP3   OH262973   4.814   0.939   2.317
13853TIP3    H162974   4.740   0.989   2.275
13853TIP3    H262975   4.872   0.907   2.247
13854TIP3   OH262976   4.834   0.799   2.009
13854TIP3    H162977   4.902   0.784   2.075
13854TIP3    H262978   4.856   0.725   1.951
13855TIP3   OH262979   5.561   0.880   3.136
13855TIP3    H162980   5.495   0.952   3.139
13855TIP3    H262981   5.611   0.903   3.055
13856TIP3   OH262982   5.161   0.956   2.396
13856TIP3    H162983   5.095   0.982   2.465
13856TIP3    H262984   5.215   0.893   2.449
13857TIP3   OH262985   5.159   0.775   3.313
13857TIP3    H162986   5.160   0.857   3.364
13857TIP3    H262987   5.097   0.804   3.243
13858TIP3   OH262988   4.327   1.024   2.592
13858TIP3    H162989   4.295   0.984   2.507
13858TIP3    H262990   4.389   0.955   2.625
13859TIP3   OH262991   4.460   1.363   2.860
13859TIP3    H162992   4.459   1.311   2.779
13859TIP3    H262993   4.538   1.327   2.905
13860TIP3   OH262994   4.361   0.899   2.958
13860TIP3    H162995   4.416   0.909   2.878
13860TIP3    H262996   4.400   0.967   3.018
13861TIP3   OH262997   5.003   1.457   3.029
13861TIP3    H162998   4.974   1.520   3.095
13861TIP3    H262999   4.977   1.371   3.071
13862TIP3   OH263000   4.456   1.342   3.427
13862TIP3    H163001   4.415   1.416   3.476
13862TIP3    H263002   4.389   1.322   3.357
13863TIP3   OH263003   5.061   0.875   2.164
13863TIP3    H163004   5.120   0.885   2.244
13863TIP3    H263005   5.111   0.916   2.089
13864TIP3   OH263006   4.150   0.958   3.342
13864TIP3    H163007   4.156   1.025   3.413
13864TIP3    H263008   4.056   0.967   3.321
13865TIP3   OH263009   4.826   1.550   2.512
13865TIP3    H163010   4.869   1.581   2.593
13865TIP3    H263011   4.770   1.625   2.489
13866TIP3   OH263012   4.281   1.546   3.502
13866TIP3    H163013   4.275   1.536   3.405
13866TIP3    H263014   4.188   1.532   3.529
13867TIP3   OH263015   5.423   0.067   2.132
13867TIP3    H163016   5.338   0.071   2.178
13867TIP3    H263017   5.448   0.158   2.110
13868TIP3   OH263018   4.223   0.928   2.357
13868TIP3    H163019   4.194   1.003   2.300
13868TIP3    H263020   4.162   0.857   2.329
13869TIP3   OH263021   5.538   1.487   1.992
13869TIP3    H163022   5.555   1.582   2.008
13869TIP3    H263023   5.631   1.456   1.991
13870TIP3   OH263024   3.834   1.170   3.243
13870TIP3    H163025   3.790   1.162   3.157
13870TIP3    H263026   3.842   1.075   3.265
13871TIP3   OH263027   3.810   1.443   2.920
13871TIP3    H163028   3.906   1.432   2.918
13871TIP3    H263029   3.802   1.525   2.971
13872TIP3   OH263030   5.634   1.514   3.490
13872TIP3    H163031   5.622   1.418   3.486
13872TIP3    H263032   5.547   1.539   3.528
13873TIP3   OH263033   4.730   1.468   3.376
13873TIP3    H163034   4.735   1.552   3.426
13873TIP3    H263035   4.642   1.432   3.401
13874TIP3   OH263036   4.774   1.842   2.354
13874TIP3    H163037   4.763   1.834   2.258
13874TIP3    H263038   4.774   1.938   2.370
13875TIP3   OH263039   4.137   1.730   2.537
13875TIP3    H163040   4.152   1.689   2.625
13875TIP3    H263041   4.053   1.689   2.513
13876TIP3   OH263042   5.079   1.763   2.053
13876TIP3    H163043   5.125   1.688   2.009
13876TIP3    H263044   5.083   1.737   2.147
13877TIP3   OH263045   5.049   1.757   2.330
13877TIP3    H163046   4.953   1.764   2.348
13877TIP3    H263047   5.072   1.683   2.388
13878TIP3   OH263048   5.349   0.659   3.536
13878TIP3    H163049   5.301   0.705   3.465
13878TIP3    H263050   5.347   0.567   3.506
13879TIP3   OH263051   4.063   1.301   3.337
13879TIP3    H163052   4.085   1.265   3.425
13879TIP3    H263053   3.976   1.262   3.316
13880TIP3   OH263054   4.329   0.144   2.938
13880TIP3    H163055   4.241   0.139   2.898
13880TIP3    H263056   4.320   0.233   2.977
13881TIP3   OH263057   4.791   0.119   3.274
13881TIP3    H163058   4.837   0.076   3.346
13881TIP3    H263059   4.698   0.104   3.289
13882TIP3   OH263060   5.124   0.496   3.359
13882TIP3    H163061   5.065   0.481   3.437
13882TIP3    H263062   5.107   0.589   3.334
13883TIP3   OH263063   5.198   0.985   1.950
13883TIP3    H163064   5.197   0.963   1.853
13883TIP3    H263065   5.287   1.026   1.951
13884TIP3   OH263066   4.759   0.373   2.000
13884TIP3    H163067   4.727   0.365   2.091
13884TIP3    H263068   4.727   0.286   1.969
13885TIP3   OH263069   4.341   0.646   3.060
13885TIP3    H163070   4.265   0.647   3.120
13885TIP3    H263071   4.337   0.736   3.020
13886TIP3   OH263072   4.337   0.655   2.546
13886TIP3    H163073   4.242   0.634   2.528
13886TIP3    H263074   4.374   0.630   2.459
13887TIP3   OH263075   4.892   0.709   2.422
13887TIP3    H163076   4.847   0.788   2.387
13887TIP3    H263077   4.959   0.688   2.355
13888TIP3   OH263078   4.795   0.730   3.564
13888TIP3    H163079   4.743   0.653   3.596
13888TIP3    H263080   4.879   0.717   3.612
13889TIP3   OH263081   4.993   0.657   2.706
13889TIP3    H163082   4.964   0.713   2.632
13889TIP3    H263083   5.002   0.572   2.659
13890TIP3   OH263084   4.105   0.669   3.226
13890TIP3    H163085   4.109   0.713   3.312
13890TIP3    H263086   4.055   0.588   3.245
13891TIP3   OH263087   4.440   0.412   1.911
13891TIP3    H163088   4.393   0.370   1.987
13891TIP3    H263089   4.369   0.454   1.861
13892TIP3   OH263090   3.766   0.374   2.624
13892TIP3    H163091   3.836   0.389   2.691
13892TIP3    H263092   3.816   0.353   2.543
13893TIP3   OH263093   3.863   0.436   2.140
13893TIP3    H163094   3.939   0.491   2.112
13893TIP3    H263095   3.824   0.506   2.195
13894TIP3   OH263096   4.911   0.816   3.160
13894TIP3    H163097   4.950   0.747   3.102
13894TIP3    H263098   4.865   0.763   3.228
13895TIP3   OH263099   4.591   0.411   2.642
13895TIP3    H163100   4.499   0.412   2.673
13895TIP3    H263101   4.641   0.397   2.725
13896TIP3   OH263102   4.067   0.560   2.541
13896TIP3    H163103   3.991   0.591   2.486
13896TIP3    H263104   4.105   0.492   2.483
13897TIP3   OH263105   4.438   0.571   2.293
13897TIP3    H163106   4.532   0.585   2.309
13897TIP3    H263107   4.409   0.641   2.230
13898TIP3   OH263108   5.033   0.335   2.968
13898TIP3    H163109   4.964   0.343   3.037
13898TIP3    H263110   4.984   0.308   2.889
13899TIP3   OH263111   4.316   0.691   2.051
13899TIP3    H163112   4.254   0.653   1.986
13899TIP3    H263113   4.394   0.712   1.999
13900TIP3   OH263114   5.353   1.901   3.601
13900TIP3    H163115   5.379   1.939   3.515
13900TIP3    H263116   5.425   1.933   3.657
13901TIP3   OH263117   4.120   1.148   3.558
13901TIP3    H163118   4.192   1.173   3.618
13901TIP3    H263119   4.043   1.156   3.618
13902TIP3   OH263120   4.721   0.689   2.833
13902TIP3    H163121   4.781   0.634   2.780
13902TIP3    H263122   4.706   0.634   2.911
13903TIP3   OH263123   4.227   0.305   2.485
13903TIP3    H163124   4.188   0.217   2.473
13903TIP3    H263125   4.297   0.302   2.419
13904TIP3   OH263126   4.584   0.524   3.076
13904TIP3    H163127   4.502   0.578   3.082
13904TIP3    H263128   4.641   0.560   3.147
13905TIP3   OH263129   4.647   1.139   2.245
13905TIP3    H163130   4.563   1.098   2.211
13905TIP3    H263131   4.619   1.158   2.338
13906TIP3   OH263132   5.362   1.064   3.125
13906TIP3    H163133   5.418   1.113   3.062
13906TIP3    H263134   5.276   1.069   3.079
13907TIP3   OH263135   5.025   0.426   2.064
13907TIP3    H163136   4.930   0.442   2.048
13907TIP3    H263137   5.060   0.510   2.097
13908TIP3   OH263138   4.792   1.171   3.369
13908TIP3    H163139   4.758   1.128   3.448
13908TIP3    H263140   4.767   1.263   3.380
13909TIP3   OH263141   5.100   0.617   2.226
13909TIP3    H163142   5.189   0.599   2.265
13909TIP3    H263143   5.113   0.697   2.173
13910TIP3   OH263144   4.154   1.083   2.824
13910TIP3    H163145   4.222   1.075   2.755
13910TIP3    H263146   4.160   0.998   2.870
13911TIP3   OH263147   4.856   1.282   2.156
13911TIP3    H163148   4.823   1.373   2.179
13911TIP3    H263149   4.772   1.233   2.169
13912TIP3   OH263150   3.853   0.924   3.351
13912TIP3    H163151   3.870   0.879   3.436
13912TIP3    H263152   3.791   0.863   3.307
13913TIP3   OH263153   4.555   0.880   3.568
13913TIP3    H163154   4.523   0.849   3.482
13913TIP3    H263155   4.647   0.847   3.568
13914TIP3   OH263156   5.023   1.413   3.364
13914TIP3    H163157   4.931   1.431   3.340
13914TIP3    H263158   5.020   1.443   3.457
13915TIP3   OH263159   5.591   0.632   2.202
13915TIP3    H163160   5.534   0.603   2.129
13915TIP3    H263161   5.598   0.727   2.177
13916TIP3   OH263162   5.588   1.218   3.483
13916TIP3    H163163   5.499   1.240   3.447
13916TIP3    H263164   5.643   1.212   3.402
13917TIP3   OH263165   5.417   1.515   2.242
13917TIP3    H163166   5.384   1.432   2.278
13917TIP3    H263167   5.451   1.492   2.154
13918TIP3   OH263168   5.140   0.996   2.953
13918TIP3    H163169   5.046   0.975   2.941
13918TIP3    H263170   5.183   0.920   2.909
13919TIP3   OH263171   4.392   1.429   2.563
13919TIP3    H163172   4.441   1.510   2.542
13919TIP3    H263173   4.304   1.452   2.530
13920TIP3   OH263174   3.966   0.922   2.011
13920TIP3    H163175   4.027   0.976   2.065
13920TIP3    H263176   3.879   0.942   2.048
13921TIP3   OH263177   4.534   1.196   2.512
13921TIP3    H163178   4.502   1.287   2.524
13921TIP3    H263179   4.463   1.146   2.558
13922TIP3   OH263180   4.578   1.614   3.156
13922TIP3    H163181   4.624   1.694   3.127
13922TIP3    H263182   4.640   1.580   3.223
13923TIP3   OH263183   4.400   1.695   2.467
13923TIP3    H163184   4.304   1.709   2.481
13923TIP3    H263185   4.437   1.778   2.502
13924TIP3   OH263186   4.930   1.213   3.117
13924TIP3    H163187   4.898   1.194   3.208
13924TIP3    H263188   4.994   1.142   3.101
13925TIP3   OH263189   5.164   1.320   2.026
13925TIP3    H163190   5.196   1.277   2.107
13925TIP3    H263191   5.068   1.307   2.033
13926TIP3   OH263192   5.212   1.672   3.366
13926TIP3    H163193   5.143   1.622   3.319
13926TIP3    H263194   5.230   1.742   3.300
13927TIP3   OH263195   5.610   1.756   2.052
13927TIP3    H163196   5.679   1.823   2.032
13927TIP3    H263197   5.539   1.818   2.081
13928TIP3   OH263198   4.020   0.393   3.308
13928TIP3    H163199   3.929   0.432   3.303
13928TIP3    H263200   4.001   0.307   3.349
13929TIP3   OH263201   5.239   1.181   2.250
13929TIP3    H163202   5.223   1.105   2.309
13929TIP3    H263203   5.335   1.191   2.266
13930TIP3   OH263204   3.979   1.576   3.148
13930TIP3    H163205   4.010   1.483   3.149
13930TIP3    H263206   4.006   1.605   3.236
13931TIP3   OH263207   4.577   1.428   1.876
13931TIP3    H163208   4.587   1.352   1.817
13931TIP3    H263209   4.531   1.387   1.952
13932TIP3   OH263210   4.455   1.381   2.121
13932TIP3    H163211   4.478   1.330   2.200
13932TIP3    H263212   4.463   1.474   2.153
13933TIP3   OH263213   4.110   1.107   2.170
13933TIP3    H163214   4.037   1.144   2.224
13933TIP3    H263215   4.159   1.186   2.142
13934TIP3   OH263216   4.890   0.375   3.202
13934TIP3    H163217   4.964   0.381   3.264
13934TIP3    H263218   4.857   0.285   3.218
13935TIP3   OH263219   4.968   0.332   2.313
13935TIP3    H163220   4.988   0.377   2.228
13935TIP3    H263221   5.023   0.382   2.375
13936TIP3   OH263222   4.736   1.544   2.189
13936TIP3    H163223   4.654   1.598   2.199
13936TIP3    H263224   4.788   1.604   2.133
13937TIP3   OH263225   4.690   0.503   2.393
13937TIP3    H163226   4.766   0.563   2.398
13937TIP3    H263227   4.664   0.494   2.487
13938TIP3   OH263228   4.742   0.605   3.314
13938TIP3    H163229   4.754   0.666   3.390
13938TIP3    H263230   4.813   0.541   3.321
13939TIP3   OH263231   4.776   0.213   2.485
13939TIP3    H163232   4.741   0.280   2.546
13939TIP3    H263233   4.842   0.268   2.436
13940TIP3   OH263234   4.475   1.651   2.194
13940TIP3    H163235   4.484   1.732   2.139
13940TIP3    H263236   4.447   1.687   2.281
13941TIP3   OH263237   4.339   0.321   2.150
13941TIP3    H163238   4.330   0.411   2.188
13941TIP3    H263239   4.431   0.303   2.177
13942TIP3   OH263240   5.362   0.396   3.398
13942TIP3    H163241   5.269   0.428   3.384
13942TIP3    H263242   5.392   0.393   3.305
13943TIP3   OH263243   5.223   0.775   2.796
13943TIP3    H163244   5.141   0.730   2.770
13943TIP3    H263245   5.272   0.706   2.848
13944TIP3   OH263246   4.163   1.367   2.056
13944TIP3    H163247   4.230   1.430   2.087
13944TIP3    H263248   4.214   1.321   1.987
13945TIP3   OH263249   3.991   0.649   1.924
13945TIP3    H163250   4.004   0.717   1.994
13945TIP3    H263251   3.906   0.613   1.947
13946TIP3   OH263252   5.330   1.701   2.964
13946TIP3    H163253   5.321   1.769   2.894
13946TIP3    H263254   5.426   1.706   2.981
13947TIP3   OH263255   4.059   0.136   2.870
13947TIP3    H163256   4.097   0.140   2.780
13947TIP3    H263257   4.054   0.041   2.892
13948TIP3   OH263258   3.975   1.505   2.459
13948TIP3    H163259   3.889   1.550   2.455
13948TIP3    H263260   4.022   1.552   2.389
13949TIP3   OH263261   3.895   1.770   3.587
13949TIP3    H163262   3.955   1.750   3.661
13949TIP3    H263263   3.855   1.683   3.569
13950TIP3   OH263264   4.363   1.662   3.748
13950TIP3    H163265   4.439   1.612   3.782
13950TIP3    H263266   4.360   1.634   3.655
13951TIP3   OH263267   4.776   1.613   1.889
13951TIP3    H163268   4.707   1.547   1.911
13951TIP3    H263269   4.848   1.554   1.863
13952TIP3   OH263270   5.013   1.501   3.623
13952TIP3    H163271   4.982   1.412   3.651
13952TIP3    H263272   5.090   1.512   3.682
13953TIP3   OH263273   5.232   1.588   1.907
13953TIP3    H163274   5.263   1.511   1.957
13953TIP3    H263275   5.308   1.611   1.852
13954TIP3   OH263276   3.886   1.147   3.687
13954TIP3    H163277   3.902   1.056   3.657
13954TIP3    H263278   3.812   1.173   3.630
13955TIP3   OH263279   4.323   1.182   1.890
13955TIP3    H163280   4.336   1.105   1.948
13955TIP3    H263281   4.396   1.170   1.827
13956TIP3   OH263282   4.558   1.146   3.626
13956TIP3    H163283   4.524   1.178   3.539
13956TIP3    H263284   4.565   1.049   3.615
13957TIP3   OH263285   4.867   1.292   1.868
13957TIP3    H163286   4.832   1.304   1.957
13957TIP3    H263287   4.844   1.197   1.850
13958TIP3   OH263288   5.127   1.132   3.365
13958TIP3    H163289   5.206   1.190   3.359
13958TIP3    H263290   5.057   1.199   3.368
13959TIP3   OH263291   3.978   0.870   3.625
13959TIP3    H163292   4.020   0.784   3.616
13959TIP3    H263293   3.955   0.871   3.719
13960TIP3   OH263294   4.445   0.983   2.133
13960TIP3    H163295   4.388   0.931   2.193
13960TIP3    H263296   4.465   0.915   2.065
13961TIP3   OH263297   4.367   0.762   3.360
13961TIP3    H163298   4.309   0.836   3.386
13961TIP3    H263299   4.408   0.802   3.280
13962TIP3   OH263300   4.551   0.808   1.951
13962TIP3    H163301   4.535   0.797   1.855
13962TIP3    H263302   4.648   0.810   1.957
13963TIP3   OH263303   4.875   1.021   3.694
13963TIP3    H163304   4.971   1.020   3.682
13963TIP3    H263305   4.858   0.944   3.751
13964TIP3   OH263306   5.481   1.038   1.893
13964TIP3    H163307   5.463   1.000   1.806
13964TIP3    H263308   5.491   1.134   1.874
13965TIP3   OH263309   4.404   0.498   3.462
13965TIP3    H163310   4.433   0.442   3.391
13965TIP3    H263311   4.403   0.586   3.417
13966TIP3   OH263312   4.446   0.344   3.213
13966TIP3    H163313   4.503   0.392   3.146
13966TIP3    H263314   4.361   0.337   3.164
13967TIP3   OH263315   4.602   0.889   3.246
13967TIP3    H163316   4.678   0.873   3.189
13967TIP3    H263317   4.566   0.973   3.212
13968TIP3   OH263318   5.042   0.664   3.742
13968TIP3    H163319   5.066   0.571   3.733
13968TIP3    H263320   5.129   0.709   3.745
13969TIP3   OH263321   5.176   0.944   3.558
13969TIP3    H163322   5.151   1.016   3.497
13969TIP3    H263323   5.272   0.941   3.540
13970TIP3   OH263324   4.255   0.626   3.660
13970TIP3    H163325   4.176   0.571   3.642
13970TIP3    H263326   4.320   0.593   3.596
13971TIP3   OH263327   4.503   0.109   3.290
13971TIP3    H163328   4.516   0.194   3.242
13971TIP3    H263329   4.461   0.056   3.220
13972TIP3   OH263330   4.654   0.519   3.621
13972TIP3    H163331   4.627   0.491   3.711
13972TIP3    H263332   4.575   0.498   3.571
13973TIP3   OH263333   4.928   0.432   3.533
13973TIP3    H163334   4.831   0.436   3.545
13973TIP3    H263335   4.955   0.369   3.602
13974TIP3   OH263336   5.087   0.304   3.725
13974TIP3    H163337   5.077   0.206   3.722
13974TIP3    H263338   5.057   0.324   3.816
13975TIP3   OH263339   4.063   0.419   3.633
13975TIP3    H163340   4.084   0.344   3.576
13975TIP3    H263341   4.053   0.376   3.721
13976TIP3   OH263342   4.547   7.328   3.531
13976TIP3    H163343   4.614   7.258   3.542
13976TIP3    H263344   4.541   7.338   3.435
13977TIP3   OH263345   4.590   0.194   3.736
13977TIP3    H163346   4.570   0.133   3.662
13977TIP3    H263347   4.524   0.265   3.734
13978TIP3   OH263348   4.532   1.876   2.060
13978TIP3    H163349   4.629   1.885   2.066
13978TIP3    H263350   4.517   1.936   1.986
13979TIP3   OH263351   3.887   1.333   2.006
13979TIP3    H163352   3.984   1.343   2.025
13979TIP3    H263353   3.892   1.269   1.932
13980TIP3   OH263354   3.766   1.872   2.503
13980TIP3    H163355   3.693   1.823   2.457
13980TIP3    H263356   3.793   1.807   2.570
13981TIP3   OH263357   3.848   1.686   2.691
13981TIP3    H163358   3.812   1.598   2.711
13981TIP3    H263359   3.870   1.719   2.779
13982TIP3   OH263360   5.602   1.765   2.983
13982TIP3    H163361   5.604   1.781   3.079
13982TIP3    H263362   5.672   1.824   2.953
13983TIP3   OH263363   5.559   1.725   3.278
13983TIP3    H163364   5.512   1.648   3.240
13983TIP3    H263365   5.608   1.680   3.349
13984TIP3   OH263366   5.403   1.297   3.746
13984TIP3    H163367   5.313   1.294   3.782
13984TIP3    H263368   5.441   1.377   3.787
13985TIP3   OH263369   5.533   1.130   2.289
13985TIP3    H163370   5.620   1.170   2.306
13985TIP3    H263371   5.535   1.058   2.355
13986TIP3   OH263372   5.571   0.937   2.477
13986TIP3    H163373   5.496   0.888   2.516
13986TIP3    H263374   5.631   0.951   2.554
13987TIP3   OH263375   5.547   1.207   2.976
13987TIP3    H163376   5.628   1.169   2.938
13987TIP3    H263377   5.561   1.302   2.958
13988TIP3   OH263378   5.403   1.498   3.202
13988TIP3    H163379   5.334   1.532   3.261
13988TIP3    H263380   5.348   1.457   3.132
13989TIP3   OH263381   5.602   0.919   2.116
13989TIP3    H163382   5.545   0.953   2.044
13989TIP3    H263383   5.591   0.991   2.182
13990TIP3   OH263384   5.440   0.643   1.967
13990TIP3    H163385   5.446   0.710   1.898
13990TIP3    H263386   5.420   0.561   1.918
13991TIP3   OH263387   5.349   0.787   2.533
13991TIP3    H163388   5.338   0.690   2.530
13991TIP3    H263389   5.321   0.806   2.624
13992TIP3   OH263390   3.854   0.993   2.940
13992TIP3    H163391   3.871   0.985   2.844
13992TIP3    H263392   3.943   0.976   2.975
13993TIP3   OH263393   5.439   0.981   3.503
13993TIP3    H163394   5.500   0.906   3.516
13993TIP3    H263395   5.500   1.059   3.503
13994TIP3   OH263396   5.589   0.770   3.568
13994TIP3    H163397   5.501   0.730   3.553
13994TIP3    H263398   5.646   0.691   3.561
13995TIP3   OH263399   5.363   0.391   1.883
13995TIP3    H163400   5.422   0.346   1.947
13995TIP3    H263401   5.277   0.347   1.897
13996TIP3   OH263402   5.317   0.545   2.377
13996TIP3    H163403   5.349   0.453   2.391
13996TIP3    H263404   5.400   0.585   2.345
13997TIP3   OH263405   5.383   0.600   2.924
13997TIP3    H163406   5.480   0.621   2.923
13997TIP3    H263407   5.365   0.611   3.018
13998TIP3   OH263408   5.389   0.672   3.201
13998TIP3    H163409   5.301   0.699   3.234
13998TIP3    H263410   5.433   0.757   3.180
13999TIP3   OH263411   3.812   0.525   3.556
13999TIP3    H163412   3.906   0.505   3.574
13999TIP3    H263413   3.770   0.441   3.581
14000TIP3   OH263414   5.623   0.077   3.739
14000TIP3    H163415   5.647   0.010   3.673
14000TIP3    H263416   5.624   0.159   3.687
14001TIP3   OH263417   5.386   0.275   2.385
14001TIP3    H163418   5.406   0.228   2.469
14001TIP3    H263419   5.328   0.210   2.338
14002TIP3   OH263420   3.934   0.355   2.833
14002TIP3    H163421   3.977   0.276   2.873
14002TIP3    H263422   3.986   0.424   2.877
14003TIP3   OH263423   3.763   0.653   2.944
14003TIP3    H163424   3.820   0.627   2.868
14003TIP3    H263425   3.810   0.733   2.971
14004TIP3   OH263426   5.570   0.281   3.570
14004TIP3    H163427   5.477   0.312   3.565
14004TIP3    H263428   5.574   0.229   3.489
14005TIP3   OH263429   5.571   0.276   2.041
14005TIP3    H163430   5.609   0.203   1.986
14005TIP3    H263431   5.642   0.341   2.044
14006TIP3   OH263432   3.801   0.274   2.356
14006TIP3    H163433   3.709   0.296   2.337
14006TIP3    H263434   3.843   0.323   2.282
14007TIP3   OH263435   5.274   1.774   2.547
14007TIP3    H163436   5.342   1.743   2.484
14007TIP3    H263437   5.325   1.823   2.612
14008TIP3   OH263438   3.796   0.151   3.180
14008TIP3    H163439   3.730   0.128   3.247
14008TIP3    H263440   3.747   0.213   3.123
14009TIP3   OH263441   4.019   1.463   3.597
14009TIP3    H163442   3.935   1.486   3.553
14009TIP3    H263443   3.992   1.456   3.689
14010TIP3   OH263444   4.309   1.565   3.225
14010TIP3    H163445   4.276   1.651   3.198
14010TIP3    H263446   4.402   1.573   3.194
14011TIP3   OH263447   4.741   1.707   3.515
14011TIP3    H163448   4.755   1.671   3.606
14011TIP3    H263449   4.831   1.737   3.491
14012TIP3   OH263450   4.970   1.833   3.447
14012TIP3    H163451   5.043   1.775   3.423
14012TIP3    H263452   5.007   1.877   3.526
14013TIP3   OH263453   5.472   0.097   3.348
14013TIP3    H163454   5.388   0.128   3.311
14013TIP3    H263455   5.487   0.012   3.302
14014TIP3   OH263456   4.051   1.888   3.224
14014TIP3    H163457   3.978   1.938   3.185
14014TIP3    H263458   4.020   1.869   3.314
14015TIP3   OH263459   4.298   1.846   3.132
14015TIP3    H163460   4.209   1.861   3.171
14015TIP3    H263461   4.293   1.905   3.054
14016TIP3   OH263462   4.769   1.837   3.048
14016TIP3    H163463   4.723   1.893   2.984
14016TIP3    H263464   4.782   1.900   3.122
14017TIP3   OH263465   4.998   1.718   3.152
14017TIP3    H163466   4.912   1.746   3.115
14017TIP3    H263467   5.046   1.801   3.142
14018TIP3   OH263468   5.256   1.875   3.174
14018TIP3    H163469   5.251   1.971   3.151
14018TIP3    H263470   5.278   1.837   3.086
14019TIP3   OH263471   3.997   1.753   2.919
14019TIP3    H163472   3.989   1.707   3.005
14019TIP3    H263473   4.079   1.715   2.880
14020TIP3   OH263474   4.205   1.624   2.784
14020TIP3    H163475   4.188   1.531   2.807
14020TIP3    H263476   4.291   1.640   2.829
14021TIP3   OH263477   4.466   1.672   2.871
14021TIP3    H163478   4.481   1.579   2.845
14021TIP3    H263479   4.470   1.667   2.968
14022TIP3   OH263480   4.798   0.244   2.786
14022TIP3    H163481   4.739   0.171   2.812
14022TIP3    H263482   4.866   0.195   2.735
14023TIP3   OH263483   5.325   0.045   2.795
14023TIP3    H163484   5.387   0.100   2.743
14023TIP3    H263485   5.238   0.079   2.771
14024TIP3   OH263486   5.494   0.170   2.620
14024TIP3    H163487   5.557   0.111   2.578
14024TIP3    H263488   5.544   0.254   2.628
14025TIP3   OH263489   4.060   0.108   2.527
14025TIP3    H163490   3.974   0.081   2.490
14025TIP3    H263491   4.104   0.023   2.546
14026TIP3   OH263492   3.928   0.077   2.147
14026TIP3    H163493   3.969   0.141   2.087
14026TIP3    H263494   3.863   0.133   2.190
14027TIP3   OH263495   4.498   0.087   2.549
14027TIP3    H163496   4.584   0.132   2.543
14027TIP3    H263497   4.493   0.070   2.643
14028TIP3   OH263498   5.039   0.132   2.728
14028TIP3    H163499   5.054   0.127   2.633
14028TIP3    H263500   5.031   0.034   2.741
14029TIP3   OH263501   5.194   0.102   2.283
14029TIP3    H163502   5.118   0.158   2.261
14029TIP3    H263503   5.153   0.016   2.298
14030TIP3   OH263504   3.916   1.670   2.245
14030TIP3    H163505   3.850   1.669   2.174
14030TIP3    H263506   3.916   1.766   2.263
14031TIP3   OH263507   4.104   0.262   1.993
14031TIP3    H163508   4.164   0.208   1.939
14031TIP3    H263509   4.167   0.303   2.057
14032TIP3   OH263510   4.602   0.294   2.239
14032TIP3    H163511   4.638   0.237   2.309
14032TIP3    H263512   4.617   0.381   2.282
14033TIP3   OH263513   4.803   1.801   2.079
14033TIP3    H163514   4.895   1.824   2.057
14033TIP3    H263515   4.781   1.749   1.999
14034TIP3   OH263516   5.473   1.752   2.351
14034TIP3    H163517   5.454   1.673   2.294
14034TIP3    H263518   5.466   1.825   2.286
14035TIP3   OH263519   4.029   0.151   3.502
14035TIP3    H163520   3.990   0.080   3.555
14035TIP3    H263521   4.116   0.152   3.549
14036TIP3   OH263522   4.213   0.116   3.667
14036TIP3    H163523   4.307   0.091   3.662
14036TIP3    H263524   4.191   0.031   3.713
14037TIP3   OH263525   4.095   1.769   1.939
14037TIP3    H163526   4.069   1.795   2.029
14037TIP3    H263527   4.174   1.713   1.955
14038TIP3   OH263528   5.067   7.358   3.686
14038TIP3    H163529   5.073   7.303   3.767
14038TIP3    H263530   5.157   7.337   3.655
14039TIP3   OH263531   5.398   1.626   3.558
14039TIP3    H163532   5.317   1.613   3.503
14039TIP3    H263533   5.386   1.721   3.580
14040TIP3   OH263534   6.842   1.013   2.556
14040TIP3    H163535   6.842   1.111   2.553
14040TIP3    H263536   6.769   0.990   2.496
14041TIP3   OH263537   6.728   0.939   2.906
14041TIP3    H163538   6.726   0.875   2.978
14041TIP3    H263539   6.695   0.888   2.830
14042TIP3   OH263540   5.963   0.907   3.061
14042TIP3    H163541   5.971   0.838   3.131
14042TIP3    H263542   6.038   0.964   3.084
14043TIP3   OH263543   7.098   1.232   2.736
14043TIP3    H163544   7.056   1.161   2.785
14043TIP3    H263545   7.099   1.304   2.801
14044TIP3   OH263546   6.055   1.352   2.911
14044TIP3    H163547   6.024   1.265   2.880
14044TIP3    H263548   6.151   1.334   2.916
14045TIP3   OH263549   5.719   0.707   2.461
14045TIP3    H163550   5.675   0.794   2.454
14045TIP3    H263551   5.663   0.653   2.404
14046TIP3   OH263552   5.791   0.932   2.675
14046TIP3    H163553   5.818   0.849   2.720
14046TIP3    H263554   5.860   0.941   2.608
14047TIP3   OH263555   6.808   1.749   2.758
14047TIP3    H163556   6.873   1.681   2.729
14047TIP3    H263557   6.786   1.715   2.845
14048TIP3   OH263558   6.566   1.179   2.954
14048TIP3    H163559   6.599   1.117   2.887
14048TIP3    H263560   6.647   1.195   3.005
14049TIP3   OH263561   6.883   0.627   2.985
14049TIP3    H163562   6.898   0.530   2.984
14049TIP3    H263563   6.873   0.642   2.889
14050TIP3   OH263564   6.194   0.437   2.706
14050TIP3    H163565   6.204   0.520   2.656
14050TIP3    H263566   6.153   0.379   2.639
14051TIP3   OH263567   6.968   0.447   2.546
14051TIP3    H163568   7.033   0.413   2.612
14051TIP3    H263569   7.027   0.499   2.490
14052TIP3   OH263570   5.855   0.677   2.780
14052TIP3    H163571   5.922   0.622   2.825
14052TIP3    H263572   5.866   0.645   2.689
14053TIP3   OH263573   6.371   0.832   2.712
14053TIP3    H163574   6.439   0.774   2.751
14053TIP3    H263575   6.320   0.766   2.661
14054TIP3   OH263576   6.085   0.331   3.109
14054TIP3    H163577   6.053   0.384   3.034
14054TIP3    H263578   6.015   0.348   3.176
14055TIP3   OH263579   6.811   1.272   2.464
14055TIP3    H163580   6.786   1.245   2.375
14055TIP3    H263581   6.782   1.365   2.470
14056TIP3   OH263582   6.335   1.089   3.134
14056TIP3    H163583   6.265   1.154   3.156
14056TIP3    H263584   6.406   1.149   3.105
14057TIP3   OH263585   7.118   0.370   2.753
14057TIP3    H163586   7.119   0.292   2.809
14057TIP3    H263587   7.193   0.420   2.793
14058TIP3   OH263588   6.040   0.516   2.911
14058TIP3    H163589   6.105   0.580   2.945
14058TIP3    H263590   6.092   0.471   2.840
14059TIP3   OH263591   6.180   1.290   3.216
14059TIP3    H163592   6.175   1.381   3.182
14059TIP3    H263593   6.092   1.282   3.260
14060TIP3   OH263594   5.788   1.251   2.295
14060TIP3    H163595   5.763   1.285   2.208
14060TIP3    H263596   5.796   1.334   2.347
14061TIP3   OH263597   7.129   1.411   2.981
14061TIP3    H163598   7.033   1.432   2.985
14061TIP3    H263599   7.167   1.495   2.950
14062TIP3   OH263600   7.159   0.262   3.084
14062TIP3    H163601   7.091   0.330   3.094
14062TIP3    H263602   7.238   0.308   3.054
14063TIP3   OH263603   6.475   0.059   2.839
14063TIP3    H163604   6.474  -0.036   2.856
14063TIP3    H263605   6.397   0.086   2.889
14064TIP3   OH263606   6.967   1.589   2.632
14064TIP3    H163607   7.016   1.521   2.581
14064TIP3    H263608   7.011   1.670   2.597
14065TIP3   OH263609   7.095   1.388   2.482
14065TIP3    H163610   7.070   1.317   2.421
14065TIP3    H263611   7.101   1.338   2.566
14066TIP3   OH263612   7.232   1.262   3.343
14066TIP3    H163613   7.260   1.193   3.281
14066TIP3    H263614   7.273   1.338   3.298
14067TIP3   OH263615   6.707   0.936   2.307
14067TIP3    H163616   6.638   0.995   2.271
14067TIP3    H263617   6.778   0.947   2.242
14068TIP3   OH263618   6.716   0.795   2.009
14068TIP3    H163619   6.787   0.793   2.074
14068TIP3    H263620   6.746   0.723   1.951
14069TIP3   OH263621   7.049   0.959   2.396
14069TIP3    H163622   6.977   0.985   2.458
14069TIP3    H263623   7.097   0.895   2.453
14070TIP3   OH263624   7.047   0.777   3.309
14070TIP3    H163625   7.042   0.856   3.364
14070TIP3    H263626   6.983   0.803   3.241
14071TIP3   OH263627   6.214   1.025   2.591
14071TIP3    H163628   6.182   0.986   2.507
14071TIP3    H263629   6.275   0.956   2.625
14072TIP3   OH263630   6.345   1.363   2.859
14072TIP3    H163631   6.345   1.311   2.778
14072TIP3    H263632   6.424   1.327   2.905
14073TIP3   OH263633   6.246   0.899   2.958
14073TIP3    H163634   6.301   0.909   2.878
14073TIP3    H263635   6.285   0.966   3.018
14074TIP3   OH263636   6.880   1.458   3.027
14074TIP3    H163637   6.861   1.521   3.097
14074TIP3    H263638   6.863   1.371   3.070
14075TIP3   OH263639   6.342   1.342   3.427
14075TIP3    H163640   6.300   1.416   3.476
14075TIP3    H263641   6.275   1.322   3.357
14076TIP3   OH263642   6.939   0.877   2.167
14076TIP3    H163643   6.994   0.899   2.246
14076TIP3    H263644   6.979   0.930   2.095
14077TIP3   OH263645   6.036   0.958   3.342
14077TIP3    H163646   6.041   1.025   3.413
14077TIP3    H263647   5.942   0.967   3.321
14078TIP3   OH263648   6.711   1.551   2.513
14078TIP3    H163649   6.754   1.581   2.594
14078TIP3    H263650   6.655   1.626   2.489
14079TIP3   OH263651   6.166   1.546   3.502
14079TIP3    H163652   6.160   1.536   3.405
14079TIP3    H263653   6.074   1.532   3.529
14080TIP3   OH263654   6.109   0.926   2.355
14080TIP3    H163655   6.082   1.005   2.303
14080TIP3    H263656   6.045   0.860   2.330
14081TIP3   OH263657   5.720   1.170   3.243
14081TIP3    H163658   5.675   1.162   3.157
14081TIP3    H263659   5.728   1.076   3.265
14082TIP3   OH263660   5.695   1.443   2.920
14082TIP3    H163661   5.791   1.432   2.918
14082TIP3    H263662   5.687   1.525   2.971
14083TIP3   OH263663   6.615   1.468   3.376
14083TIP3    H163664   6.621   1.552   3.426
14083TIP3    H263665   6.528   1.432   3.401
14084TIP3   OH263666   6.660   1.842   2.355
14084TIP3    H163667   6.651   1.835   2.258
14084TIP3    H263668   6.663   1.938   2.371
14085TIP3   OH263669   6.023   1.730   2.537
14085TIP3    H163670   6.038   1.689   2.625
14085TIP3    H263671   5.938   1.689   2.513
14086TIP3   OH263672   6.964   1.762   2.050
14086TIP3    H163673   7.010   1.686   2.008
14086TIP3    H263674   6.970   1.740   2.145
14087TIP3   OH263675   6.932   1.750   2.330
14087TIP3    H163676   6.837   1.766   2.350
14087TIP3    H263677   6.956   1.681   2.392
14088TIP3   OH263678   7.184   0.678   3.539
14088TIP3    H163679   7.181   0.713   3.450
14088TIP3    H263680   7.238   0.596   3.524
14089TIP3   OH263681   5.948   1.301   3.337
14089TIP3    H163682   5.970   1.265   3.425
14089TIP3    H263683   5.861   1.262   3.316
14090TIP3   OH263684   6.214   0.145   2.935
14090TIP3    H163685   6.125   0.139   2.895
14090TIP3    H263686   6.203   0.231   2.979
14091TIP3   OH263687   6.678   0.118   3.273
14091TIP3    H163688   6.721   0.076   3.348
14091TIP3    H263689   6.583   0.107   3.289
14092TIP3   OH263690   7.002   0.492   3.353
14092TIP3    H163691   6.952   0.481   3.437
14092TIP3    H263692   6.996   0.588   3.337
14093TIP3   OH263693   7.089   0.973   1.948
14093TIP3    H163694   7.082   0.957   1.851
14093TIP3    H263695   7.166   1.029   1.951
14094TIP3   OH263696   6.645   0.374   2.000
14094TIP3    H163697   6.612   0.366   2.091
14094TIP3    H263698   6.614   0.286   1.968
14095TIP3   OH263699   6.227   0.647   3.058
14095TIP3    H163700   6.152   0.645   3.121
14095TIP3    H263701   6.222   0.737   3.020
14096TIP3   OH263702   6.223   0.658   2.543
14096TIP3    H163703   6.128   0.634   2.530
14096TIP3    H263704   6.260   0.629   2.458
14097TIP3   OH263705   6.777   0.710   2.421
14097TIP3    H163706   6.735   0.791   2.384
14097TIP3    H263707   6.844   0.692   2.355
14098TIP3   OH263708   6.681   0.730   3.565
14098TIP3    H163709   6.629   0.652   3.595
14098TIP3    H263710   6.765   0.717   3.612
14099TIP3   OH263711   6.875   0.659   2.707
14099TIP3    H163712   6.851   0.713   2.630
14099TIP3    H263713   6.887   0.574   2.662
14100TIP3   OH263714   5.988   0.672   3.225
14100TIP3    H163715   5.997   0.712   3.313
14100TIP3    H263716   5.944   0.588   3.246
14101TIP3   OH263717   6.325   0.414   1.913
14101TIP3    H163718   6.279   0.369   1.986
14101TIP3    H263719   6.255   0.452   1.859
14102TIP3   OH263720   5.655   0.385   2.622
14102TIP3    H163721   5.723   0.382   2.693
14102TIP3    H263722   5.700   0.346   2.545
14103TIP3   OH263723   5.781   0.456   2.162
14103TIP3    H163724   5.832   0.514   2.103
14103TIP3    H263725   5.712   0.518   2.191
14104TIP3   OH263726   6.796   0.815   3.160
14104TIP3    H163727   6.836   0.745   3.103
14104TIP3    H263728   6.750   0.762   3.228
14105TIP3   OH263729   6.478   0.413   2.642
14105TIP3    H163730   6.385   0.413   2.674
14105TIP3    H263731   6.528   0.397   2.724
14106TIP3   OH263732   5.959   0.569   2.531
14106TIP3    H163733   5.870   0.583   2.492
14106TIP3    H263734   5.989   0.486   2.489
14107TIP3   OH263735   6.323   0.573   2.293
14107TIP3    H163736   6.419   0.583   2.310
14107TIP3    H263737   6.299   0.642   2.229
14108TIP3   OH263738   6.911   0.336   2.969
14108TIP3    H163739   6.843   0.343   3.039
14108TIP3    H263740   6.863   0.309   2.889
14109TIP3   OH263741   6.194   0.691   2.052
14109TIP3    H163742   6.140   0.653   1.980
14109TIP3    H263743   6.276   0.711   2.005
14110TIP3   OH263744   7.229   1.906   3.604
14110TIP3    H163745   7.263   1.938   3.519
14110TIP3    H263746   7.303   1.931   3.661
14111TIP3   OH263747   6.006   1.147   3.558
14111TIP3    H163748   6.078   1.172   3.618
14111TIP3    H263749   5.929   1.156   3.618
14112TIP3   OH263750   6.606   0.688   2.833
14112TIP3    H163751   6.667   0.634   2.780
14112TIP3    H263752   6.591   0.634   2.912
14113TIP3   OH263753   6.106   0.307   2.478
14113TIP3    H163754   6.074   0.214   2.479
14113TIP3    H263755   6.184   0.298   2.422
14114TIP3   OH263756   6.471   0.527   3.073
14114TIP3    H163757   6.387   0.575   3.084
14114TIP3    H263758   6.525   0.558   3.148
14115TIP3   OH263759   6.529   1.144   2.245
14115TIP3    H163760   6.449   1.097   2.211
14115TIP3    H263761   6.506   1.156   2.339
14116TIP3   OH263762   7.216   1.066   3.124
14116TIP3    H163763   7.288   1.079   3.059
14116TIP3    H263764   7.140   1.067   3.063
14117TIP3   OH263765   6.914   0.428   2.063
14117TIP3    H163766   6.819   0.439   2.047
14117TIP3    H263767   6.942   0.514   2.099
14118TIP3   OH263768   6.679   1.171   3.369
14118TIP3    H163769   6.643   1.128   3.447
14118TIP3    H263770   6.655   1.263   3.380
14119TIP3   OH263771   6.985   0.620   2.223
14119TIP3    H163772   7.072   0.605   2.265
14119TIP3    H263773   6.995   0.703   2.174
14120TIP3   OH263774   6.040   1.084   2.825
14120TIP3    H163775   6.108   1.075   2.755
14120TIP3    H263776   6.046   0.998   2.870
14121TIP3   OH263777   6.736   1.291   2.148
14121TIP3    H163778   6.704   1.376   2.184
14121TIP3    H263779   6.664   1.229   2.171
14122TIP3   OH263780   5.739   0.924   3.351
14122TIP3    H163781   5.756   0.879   3.436
14122TIP3    H263782   5.677   0.863   3.307
14123TIP3   OH263783   6.440   0.880   3.568
14123TIP3    H163784   6.408   0.849   3.482
14123TIP3    H263785   6.532   0.847   3.568
14124TIP3   OH263786   6.908   1.412   3.364
14124TIP3    H163787   6.816   1.430   3.340
14124TIP3    H263788   6.906   1.442   3.456
14125TIP3   OH263789   7.019   0.993   2.954
14125TIP3    H163790   6.926   0.971   2.939
14125TIP3    H263791   7.067   0.920   2.911
14126TIP3   OH263792   6.277   1.429   2.563
14126TIP3    H163793   6.327   1.510   2.543
14126TIP3    H263794   6.189   1.452   2.530
14127TIP3   OH263795   5.854   0.913   2.020
14127TIP3    H163796   5.912   0.979   2.061
14127TIP3    H263797   5.765   0.944   2.045
14128TIP3   OH263798   6.418   1.196   2.514
14128TIP3    H163799   6.387   1.288   2.524
14128TIP3    H263800   6.347   1.146   2.559
14129TIP3   OH263801   6.463   1.614   3.156
14129TIP3    H163802   6.510   1.694   3.127
14129TIP3    H263803   6.525   1.580   3.224
14130TIP3   OH263804   6.286   1.694   2.467
14130TIP3    H163805   6.190   1.709   2.481
14130TIP3    H263806   6.323   1.778   2.502
14131TIP3   OH263807   6.818   1.214   3.118
14131TIP3    H163808   6.784   1.194   3.208
14131TIP3    H263809   6.880   1.142   3.101
14132TIP3   OH263810   7.048   1.319   2.026
14132TIP3    H163811   7.080   1.276   2.108
14132TIP3    H263812   6.953   1.302   2.035
14133TIP3   OH263813   7.098   1.669   3.365
14133TIP3    H163814   7.026   1.623   3.318
14133TIP3    H263815   7.119   1.741   3.302
14134TIP3   OH263816   5.903   0.395   3.308
14134TIP3    H163817   5.813   0.431   3.304
14134TIP3    H263818   5.890   0.308   3.349
14135TIP3   OH263819   7.128   1.180   2.249
14135TIP3    H163820   7.105   1.103   2.306
14135TIP3    H263821   7.221   1.192   2.271
14136TIP3   OH263822   5.865   1.575   3.148
14136TIP3    H163823   5.896   1.483   3.149
14136TIP3    H263824   5.891   1.605   3.236
14137TIP3   OH263825   6.463   1.428   1.876
14137TIP3    H163826   6.473   1.352   1.817
14137TIP3    H263827   6.418   1.385   1.953
14138TIP3   OH263828   6.340   1.381   2.121
14138TIP3    H163829   6.367   1.330   2.198
14138TIP3    H263830   6.349   1.474   2.154
14139TIP3   OH263831   5.994   1.106   2.170
14139TIP3    H163832   5.923   1.145   2.224
14139TIP3    H263833   6.045   1.184   2.141
14140TIP3   OH263834   6.775   0.374   3.203
14140TIP3    H163835   6.851   0.379   3.262
14140TIP3    H263836   6.740   0.284   3.220
14141TIP3   OH263837   6.859   0.331   2.312
14141TIP3    H163838   6.875   0.377   2.228
14141TIP3    H263839   6.910   0.383   2.375
14142TIP3   OH263840   6.620   1.547   2.191
14142TIP3    H163841   6.539   1.601   2.198
14142TIP3    H263842   6.674   1.603   2.132
14143TIP3   OH263843   6.576   0.503   2.393
14143TIP3    H163844   6.652   0.565   2.396
14143TIP3    H263845   6.549   0.495   2.487
14144TIP3   OH263846   6.633   0.610   3.311
14144TIP3    H163847   6.641   0.665   3.391
14144TIP3    H263848   6.698   0.539   3.321
14145TIP3   OH263849   6.658   0.213   2.484
14145TIP3    H163850   6.628   0.280   2.547
14145TIP3    H263851   6.727   0.266   2.437
14146TIP3   OH263852   6.359   1.651   2.194
14146TIP3    H163853   6.370   1.732   2.139
14146TIP3    H263854   6.333   1.687   2.281
14147TIP3   OH263855   6.223   0.322   2.150
14147TIP3    H163856   6.218   0.411   2.189
14147TIP3    H263857   6.316   0.302   2.175
14148TIP3   OH263858   7.236   0.376   3.381
14148TIP3    H163859   7.152   0.426   3.379
14148TIP3    H263860   7.275   0.396   3.295
14149TIP3   OH263861   7.108   0.775   2.801
14149TIP3    H163862   7.026   0.731   2.770
14149TIP3    H263863   7.151   0.704   2.849
14150TIP3   OH263864   6.048   1.367   2.056
14150TIP3    H163865   6.115   1.430   2.088
14150TIP3    H263866   6.100   1.321   1.987
14151TIP3   OH263867   5.882   0.636   1.972
14151TIP3    H163868   5.884   0.732   1.991
14151TIP3    H263869   5.793   0.618   1.940
14152TIP3   OH263870   7.222   1.703   2.963
14152TIP3    H163871   7.206   1.771   2.894
14152TIP3    H263872   7.316   1.712   2.979
14153TIP3   OH263873   5.940   0.129   2.850
14153TIP3    H163874   5.946   0.119   2.752
14153TIP3    H263875   5.926   0.037   2.873
14154TIP3   OH263876   5.860   1.505   2.459
14154TIP3    H163877   5.775   1.550   2.455
14154TIP3    H263878   5.908   1.552   2.389
14155TIP3   OH263879   5.779   1.770   3.587
14155TIP3    H163880   5.841   1.749   3.660
14155TIP3    H263881   5.740   1.684   3.569
14156TIP3   OH263882   6.251   1.661   3.748
14156TIP3    H163883   6.326   1.611   3.781
14156TIP3    H263884   6.247   1.633   3.654
14157TIP3   OH263885   6.663   1.613   1.888
14157TIP3    H163886   6.593   1.548   1.911
14157TIP3    H263887   6.735   1.553   1.864
14158TIP3   OH263888   6.905   1.499   3.623
14158TIP3    H163889   6.870   1.412   3.651
14158TIP3    H263890   6.980   1.510   3.684
14159TIP3   OH263891   7.115   1.589   1.912
14159TIP3    H163892   7.146   1.510   1.957
14159TIP3    H263893   7.190   1.608   1.852
14160TIP3   OH263894   5.771   1.147   3.687
14160TIP3    H163895   5.788   1.056   3.657
14160TIP3    H263896   5.697   1.173   3.630
14161TIP3   OH263897   6.206   1.182   1.889
14161TIP3    H163898   6.220   1.106   1.947
14161TIP3    H263899   6.281   1.170   1.827
14162TIP3   OH263900   6.443   1.146   3.626
14162TIP3    H163901   6.410   1.178   3.539
14162TIP3    H263902   6.451   1.048   3.615
14163TIP3   OH263903   6.749   1.293   1.867
14163TIP3    H163904   6.722   1.301   1.960
14163TIP3    H263905   6.730   1.197   1.852
14164TIP3   OH263906   7.010   1.128   3.365
14164TIP3    H163907   7.089   1.188   3.359
14164TIP3    H263908   6.943   1.197   3.369
14165TIP3   OH263909   5.864   0.870   3.625
14165TIP3    H163910   5.905   0.784   3.616
14165TIP3    H263911   5.840   0.871   3.719
14166TIP3   OH263912   6.328   0.984   2.133
14166TIP3    H163913   6.276   0.930   2.195
14166TIP3    H263914   6.357   0.917   2.067
14167TIP3   OH263915   6.253   0.764   3.360
14167TIP3    H163916   6.194   0.836   3.386
14167TIP3    H263917   6.293   0.801   3.280
14168TIP3   OH263918   6.434   0.806   1.952
14168TIP3    H163919   6.419   0.797   1.855
14168TIP3    H263920   6.532   0.811   1.958
14169TIP3   OH263921   6.761   1.022   3.695
14169TIP3    H163922   6.856   1.021   3.682
14169TIP3    H263923   6.746   0.944   3.750
14170TIP3   OH263924   6.293   0.502   3.466
14170TIP3    H163925   6.306   0.431   3.401
14170TIP3    H263926   6.290   0.583   3.411
14171TIP3   OH263927   6.334   0.342   3.219
14171TIP3    H163928   6.386   0.390   3.149
14171TIP3    H263929   6.245   0.332   3.178
14172TIP3   OH263930   6.488   0.889   3.246
14172TIP3    H163931   6.564   0.873   3.189
14172TIP3    H263932   6.452   0.973   3.212
14173TIP3   OH263933   6.933   0.667   3.743
14173TIP3    H163934   6.956   0.573   3.732
14173TIP3    H263935   7.021   0.709   3.739
14174TIP3   OH263936   7.064   0.949   3.559
14174TIP3    H163937   7.035   1.017   3.495
14174TIP3    H263938   7.157   0.937   3.538
14175TIP3   OH263939   6.140   0.627   3.658
14175TIP3    H163940   6.063   0.570   3.641
14175TIP3    H263941   6.206   0.591   3.596
14176TIP3   OH263942   6.399   0.104   3.289
14176TIP3    H163943   6.393   0.198   3.258
14176TIP3    H263944   6.341   0.062   3.223
14177TIP3   OH263945   6.538   0.520   3.622
14177TIP3    H163946   6.510   0.489   3.710
14177TIP3    H263947   6.461   0.495   3.569
14178TIP3   OH263948   6.809   0.433   3.534
14178TIP3    H163949   6.713   0.434   3.546
14178TIP3    H263950   6.842   0.369   3.600
14179TIP3   OH263951   6.981   0.302   3.729
14179TIP3    H163952   6.962   0.205   3.724
14179TIP3    H263953   6.942   0.324   3.815
14180TIP3   OH263954   5.947   0.420   3.634
14180TIP3    H163955   5.973   0.347   3.575
14180TIP3    H263956   5.940   0.374   3.720
14181TIP3   OH263957   6.433   7.324   3.534
14181TIP3    H163958   6.502   7.257   3.539
14181TIP3    H263959   6.423   7.345   3.439
14182TIP3   OH263960   6.473   0.192   3.738
14182TIP3    H163961   6.456   0.135   3.661
14182TIP3    H263962   6.410   0.265   3.731
14183TIP3   OH263963   6.417   1.875   2.058
14183TIP3    H163964   6.513   1.883   2.066
14183TIP3    H263965   6.403   1.938   1.986
14184TIP3   OH263966   5.773   1.333   2.007
14184TIP3    H163967   5.870   1.343   2.025
14184TIP3    H263968   5.778   1.269   1.932
14185TIP3   OH263969   5.651   1.872   2.503
14185TIP3    H163970   5.579   1.823   2.457
14185TIP3    H263971   5.679   1.807   2.570
14186TIP3   OH263972   5.733   1.686   2.691
14186TIP3    H163973   5.698   1.598   2.711
14186TIP3    H263974   5.758   1.718   2.779
14187TIP3   OH263975   7.280   1.491   3.209
14187TIP3    H163976   7.214   1.535   3.264
14187TIP3    H263977   7.227   1.455   3.135
14188TIP3   OH263978   7.188   0.792   2.542
14188TIP3    H163979   7.214   0.699   2.547
14188TIP3    H263980   7.200   0.817   2.637
14189TIP3   OH263981   5.739   0.993   2.940
14189TIP3    H163982   5.757   0.985   2.844
14189TIP3    H263983   5.828   0.976   2.975
14190TIP3   OH263984   7.245   0.388   1.882
14190TIP3    H163985   7.305   0.347   1.945
14190TIP3    H263986   7.159   0.344   1.900
14191TIP3   OH263987   7.202   0.536   2.364
14191TIP3    H163988   7.232   0.453   2.405
14191TIP3    H263989   7.287   0.572   2.334
14192TIP3   OH263990  -0.055   0.515   2.921
14192TIP3    H163991   0.035   0.548   2.910
14192TIP3    H263992  -0.075   0.576   2.994
14193TIP3   OH263993   7.278   0.675   3.228
14193TIP3    H163994   7.184   0.702   3.237
14193TIP3    H263995   7.314   0.744   3.169
14194TIP3   OH263996   5.700   0.525   3.556
14194TIP3    H163997   5.794   0.503   3.573
14194TIP3    H263998   5.656   0.441   3.581
14195TIP3   OH263999   7.182   0.239   2.451
14195TIP3    H164000   7.276   0.226   2.473
14195TIP3    H264001   7.184   0.199   2.362
14196TIP3   OH264002   5.818   0.358   2.836
14196TIP3    H164003   5.861   0.273   2.864
14196TIP3    H264004   5.875   0.423   2.879
14197TIP3   OH264005   5.649   0.653   2.944
14197TIP3    H164006   5.706   0.627   2.868
14197TIP3    H264007   5.696   0.733   2.971
14198TIP3   OH264008   5.686   0.276   2.354
14198TIP3    H164009   5.592   0.294   2.336
14198TIP3    H264010   5.728   0.324   2.280
14199TIP3   OH264011   7.140   1.755   2.557
14199TIP3    H164012   7.207   1.726   2.494
14199TIP3    H264013   7.191   1.817   2.612
14200TIP3   OH264014   5.681   0.152   3.183
14200TIP3    H164015   5.614   0.128   3.248
14200TIP3    H264016   5.633   0.212   3.123
14201TIP3   OH264017   5.905   1.463   3.598
14201TIP3    H164018   5.821   1.485   3.553
14201TIP3    H264019   5.878   1.458   3.690
14202TIP3   OH264020   6.195   1.564   3.225
14202TIP3    H164021   6.162   1.651   3.198
14202TIP3    H264022   6.287   1.573   3.194
14203TIP3   OH264023   6.627   1.707   3.515
14203TIP3    H164024   6.640   1.671   3.606
14203TIP3    H264025   6.717   1.738   3.491
14204TIP3   OH264026   6.857   1.833   3.447
14204TIP3    H164027   6.932   1.776   3.423
14204TIP3    H264028   6.896   1.878   3.526
14205TIP3   OH264029   5.937   1.888   3.224
14205TIP3    H164030   5.864   1.938   3.185
14205TIP3    H264031   5.906   1.869   3.314
14206TIP3   OH264032   6.184   1.846   3.132
14206TIP3    H164033   6.095   1.861   3.171
14206TIP3    H264034   6.179   1.905   3.054
14207TIP3   OH264035   6.650   1.835   3.050
14207TIP3    H164036   6.608   1.892   2.984
14207TIP3    H264037   6.667   1.899   3.122
14208TIP3   OH264038   6.883   1.717   3.151
14208TIP3    H164039   6.797   1.745   3.115
14208TIP3    H264040   6.929   1.803   3.145
14209TIP3   OH264041   7.128   1.875   3.173
14209TIP3    H164042   7.128   1.970   3.151
14209TIP3    H264043   7.162   1.838   3.089
14210TIP3   OH264044   5.883   1.753   2.919
14210TIP3    H164045   5.875   1.707   3.005
14210TIP3    H264046   5.965   1.715   2.880
14211TIP3   OH264047   6.090   1.624   2.784
14211TIP3    H164048   6.074   1.531   2.807
14211TIP3    H264049   6.176   1.640   2.829
14212TIP3   OH264050   6.348   1.673   2.871
14212TIP3    H164051   6.366   1.581   2.845
14212TIP3    H264052   6.355   1.667   2.968
14213TIP3   OH264053   6.682   0.244   2.783
14213TIP3    H164054   6.625   0.172   2.812
14213TIP3    H264055   6.752   0.195   2.735
14214TIP3   OH264056   7.210   0.047   2.800
14214TIP3    H164057   7.270   0.101   2.749
14214TIP3    H264058   7.123   0.079   2.775
14215TIP3   OH264059   5.930   0.104   2.573
14215TIP3    H164060   5.853   0.080   2.519
14215TIP3    H264061   5.978   0.019   2.576
14216TIP3   OH264062   5.812   0.076   2.144
14216TIP3    H164063   5.855   0.141   2.086
14216TIP3    H264064   5.749   0.130   2.191
14217TIP3   OH264065   6.387   0.086   2.548
14217TIP3    H164066   6.472   0.132   2.544
14217TIP3    H264067   6.376   0.070   2.642
14218TIP3   OH264068   6.921   0.130   2.726
14218TIP3    H164069   6.940   0.129   2.632
14218TIP3    H264070   6.915   0.032   2.739
14219TIP3   OH264071   7.075   0.093   2.268
14219TIP3    H164072   7.002   0.156   2.262
14219TIP3    H264073   7.034   0.010   2.296
14220TIP3   OH264074   5.801   1.670   2.245
14220TIP3    H164075   5.736   1.669   2.173
14220TIP3    H264076   5.801   1.766   2.263
14221TIP3   OH264077   5.990   0.263   1.996
14221TIP3    H164078   6.047   0.208   1.939
14221TIP3    H264079   6.055   0.301   2.057
14222TIP3   OH264080   6.488   0.294   2.239
14222TIP3    H164081   6.524   0.237   2.309
14222TIP3    H264082   6.503   0.381   2.281
14223TIP3   OH264083   6.687   1.799   2.077
14223TIP3    H164084   6.779   1.824   2.058
14223TIP3    H264085   6.667   1.747   1.996
14224TIP3   OH264086   5.912   0.151   3.504
14224TIP3    H164087   5.878   0.078   3.557
14224TIP3    H264088   6.002   0.154   3.545
14225TIP3   OH264089   6.096   0.114   3.669
14225TIP3    H164090   6.190   0.094   3.656
14225TIP3    H264091   6.079   0.028   3.714
14226TIP3   OH264092   5.981   1.769   1.939
14226TIP3    H164093   5.955   1.795   2.029
14226TIP3    H264094   6.059   1.713   1.955
14227TIP3   OH264095   6.959   7.359   3.686
14227TIP3    H164096   6.961   7.302   3.766
14227TIP3    H264097   7.048   7.337   3.654
14228TIP3   OH264098   7.262   1.614   3.572
14228TIP3    H164099   7.197   1.609   3.498
14228TIP3    H264100   7.264   1.713   3.580
14229TIP3   OH264101   1.186   2.900   2.555
14229TIP3    H164102   1.184   2.998   2.553
14229TIP3    H264103   1.112   2.876   2.496
14230TIP3   OH264104   1.070   2.825   2.906
14230TIP3    H164105   1.069   2.760   2.978
14230TIP3    H264106   1.036   2.774   2.831
14231TIP3   OH264107   0.311   2.791   3.058
14231TIP3    H164108   0.317   2.724   3.129
14231TIP3    H264109   0.381   2.852   3.086
14232TIP3   OH264110   1.439   3.120   2.734
14232TIP3    H164111   1.398   3.048   2.784
14232TIP3    H264112   1.442   3.191   2.802
14233TIP3   OH264113   0.398   3.236   2.913
14233TIP3    H164114   0.367   3.150   2.878
14233TIP3    H264115   0.494   3.219   2.915
14234TIP3   OH264116   0.091   2.591   2.416
14234TIP3    H164117   0.047   2.671   2.457
14234TIP3    H264118   0.009   2.541   2.419
14235TIP3   OH264119   0.129   2.809   2.671
14235TIP3    H164120   0.161   2.733   2.722
14235TIP3    H264121   0.203   2.828   2.611
14236TIP3   OH264122   1.151   3.636   2.758
14236TIP3    H164123   1.216   3.567   2.730
14236TIP3    H264124   1.130   3.602   2.845
14237TIP3   OH264125   0.908   3.065   2.954
14237TIP3    H164126   0.942   3.002   2.888
14237TIP3    H264127   0.989   3.081   3.005
14238TIP3   OH264128   1.767   2.232   3.026
14238TIP3    H164129   1.785   2.290   3.102
14238TIP3    H264130   1.825   2.273   2.960
14239TIP3   OH264131   1.225   2.512   2.985
14239TIP3    H164132   1.242   2.416   2.985
14239TIP3    H264133   1.215   2.526   2.889
14240TIP3   OH264134   0.535   2.321   2.706
14240TIP3    H164135   0.550   2.404   2.658
14240TIP3    H264136   0.499   2.262   2.638
14241TIP3   OH264137   1.310   2.328   2.543
14241TIP3    H164138   1.375   2.297   2.610
14241TIP3    H264139   1.366   2.387   2.490
14242TIP3   OH264140   0.198   2.554   2.773
14242TIP3    H164141   0.269   2.507   2.822
14242TIP3    H264142   0.213   2.526   2.683
14243TIP3   OH264143   0.714   2.717   2.715
14243TIP3    H164144   0.782   2.659   2.752
14243TIP3    H264145   0.664   2.653   2.662
14244TIP3   OH264146   1.812   2.372   3.253
14244TIP3    H164147   1.751   2.448   3.242
14244TIP3    H264148   1.815   2.364   3.349
14245TIP3   OH264149   0.431   2.211   3.110
14245TIP3    H164150   0.400   2.268   3.036
14245TIP3    H264151   0.363   2.233   3.178
14246TIP3   OH264152   1.156   3.159   2.465
14246TIP3    H164153   1.130   3.132   2.376
14246TIP3    H264154   1.125   3.252   2.470
14247TIP3   OH264155   0.681   2.975   3.134
14247TIP3    H164156   0.609   3.039   3.156
14247TIP3    H264157   0.750   3.036   3.105
14248TIP3   OH264158   1.491   2.264   2.742
14248TIP3    H164159   1.469   2.187   2.796
14248TIP3    H264160   1.558   2.307   2.798
14249TIP3   OH264161   0.382   2.395   2.914
14249TIP3    H164162   0.444   2.465   2.947
14249TIP3    H264163   0.437   2.355   2.842
14250TIP3   OH264164   0.522   3.174   3.215
14250TIP3    H164165   0.518   3.266   3.182
14250TIP3    H264166   0.434   3.166   3.259
14251TIP3   OH264167   0.121   3.143   2.292
14251TIP3    H164168   0.108   3.175   2.201
14251TIP3    H264169   0.140   3.222   2.343
14252TIP3   OH264170   1.492   3.304   2.971
14252TIP3    H164171   1.395   3.315   2.983
14252TIP3    H264172   1.519   3.395   2.951
14253TIP3   OH264173   1.524   2.132   3.110
14253TIP3    H164174   1.452   2.195   3.101
14253TIP3    H264175   1.596   2.174   3.058
14254TIP3   OH264176   0.821   1.945   2.856
14254TIP3    H164177   0.808   1.848   2.849
14254TIP3    H264178   0.733   1.975   2.887
14255TIP3   OH264179   1.318   3.482   2.630
14255TIP3    H164180   1.361   3.410   2.579
14255TIP3    H264181   1.362   3.561   2.591
14256TIP3   OH264182   1.440   3.275   2.482
14256TIP3    H164183   1.409   3.205   2.422
14256TIP3    H264184   1.443   3.226   2.566
14257TIP3   OH264185   1.601   3.135   3.331
14257TIP3    H164186   1.616   3.069   3.259
14257TIP3    H264187   1.622   3.219   3.287
14258TIP3   OH264188   1.050   2.823   2.307
14258TIP3    H164189   0.980   2.881   2.270
14258TIP3    H264190   1.122   2.833   2.241
14259TIP3   OH264191   1.059   2.681   2.008
14259TIP3    H164192   1.129   2.679   2.075
14259TIP3    H264193   1.089   2.609   1.952
14260TIP3   OH264194   1.790   2.766   3.136
14260TIP3    H164195   1.724   2.838   3.139
14260TIP3    H264196   1.839   2.789   3.055
14261TIP3   OH264197   1.397   2.844   2.399
14261TIP3    H164198   1.322   2.868   2.459
14261TIP3    H264199   1.443   2.777   2.452
14262TIP3   OH264200   1.389   2.661   3.312
14262TIP3    H164201   1.389   2.743   3.364
14262TIP3    H264202   1.326   2.690   3.243
14263TIP3   OH264203   0.559   2.912   2.591
14263TIP3    H164204   0.524   2.873   2.507
14263TIP3    H264205   0.619   2.841   2.624
14264TIP3   OH264206   0.689   3.248   2.859
14264TIP3    H164207   0.688   3.196   2.778
14264TIP3    H264208   0.767   3.213   2.905
14265TIP3   OH264209   0.593   2.785   2.958
14265TIP3    H164210   0.647   2.797   2.878
14265TIP3    H264211   0.628   2.853   3.019
14266TIP3   OH264212   1.231   3.342   3.028
14266TIP3    H164213   1.203   3.406   3.094
14266TIP3    H264214   1.205   3.257   3.070
14267TIP3   OH264215   0.685   3.228   3.427
14267TIP3    H164216   0.643   3.302   3.476
14267TIP3    H264217   0.618   3.208   3.357
14268TIP3   OH264218   1.283   2.765   2.166
14268TIP3    H164219   1.339   2.782   2.246
14268TIP3    H264220   1.329   2.814   2.094
14269TIP3   OH264221   0.379   2.845   3.345
14269TIP3    H164222   0.383   2.913   3.414
14269TIP3    H264223   0.285   2.854   3.322
14270TIP3   OH264224   1.055   3.437   2.514
14270TIP3    H164225   1.098   3.468   2.594
14270TIP3    H264226   0.999   3.512   2.490
14271TIP3   OH264227   0.510   3.430   3.502
14271TIP3    H164228   0.502   3.422   3.405
14271TIP3    H264229   0.416   3.418   3.528
14272TIP3   OH264230   1.656   1.937   2.157
14272TIP3    H164231   1.561   1.949   2.181
14272TIP3    H264232   1.676   2.021   2.112
14273TIP3   OH264233   0.458   2.807   2.357
14273TIP3    H164234   0.430   2.889   2.307
14273TIP3    H264235   0.388   2.748   2.331
14274TIP3   OH264236   1.767   3.373   1.991
14274TIP3    H164237   1.784   3.467   2.008
14274TIP3    H264238   1.859   3.342   1.991
14275TIP3   OH264239   0.122   3.042   3.217
14275TIP3    H164240   0.045   3.055   3.158
14275TIP3    H264241   0.085   2.964   3.263
14276TIP3   OH264242   0.069   3.353   2.892
14276TIP3    H164243   0.151   3.312   2.921
14276TIP3    H264244   0.040   3.399   2.972
14277TIP3   OH264245   1.863   3.399   3.490
14277TIP3    H164246   1.851   3.304   3.487
14277TIP3    H264247   1.775   3.424   3.528
14278TIP3   OH264248   0.958   3.353   3.376
14278TIP3    H164249   0.964   3.438   3.426
14278TIP3    H264250   0.871   3.317   3.401
14279TIP3   OH264251   1.003   3.728   2.355
14279TIP3    H164252   0.992   3.720   2.258
14279TIP3    H264253   1.003   3.824   2.370
14280TIP3   OH264254   0.365   3.617   2.537
14280TIP3    H164255   0.380   3.575   2.625
14280TIP3    H264256   0.282   3.573   2.512
14281TIP3   OH264257   1.308   3.649   2.053
14281TIP3    H164258   1.354   3.573   2.010
14281TIP3    H264259   1.312   3.623   2.147
14282TIP3   OH264260   1.277   3.642   2.330
14282TIP3    H164261   1.181   3.650   2.348
14282TIP3    H264262   1.301   3.568   2.388
14283TIP3   OH264263   1.577   2.546   3.536
14283TIP3    H164264   1.530   2.591   3.465
14283TIP3    H264265   1.576   2.454   3.506
14284TIP3   OH264266   0.293   3.195   3.344
14284TIP3    H164267   0.311   3.151   3.428
14284TIP3    H264268   0.210   3.151   3.315
14285TIP3   OH264269   0.560   2.037   2.930
14285TIP3    H164270   0.470   2.023   2.895
14285TIP3    H264271   0.546   2.118   2.981
14286TIP3   OH264272   1.024   2.001   3.268
14286TIP3    H164273   1.063   1.959   3.347
14286TIP3    H264274   0.927   1.990   3.283
14287TIP3   OH264275   1.353   2.386   3.358
14287TIP3    H164276   1.296   2.364   3.436
14287TIP3    H264277   1.334   2.479   3.335
14288TIP3   OH264278   1.428   2.868   1.948
14288TIP3    H164279   1.426   2.849   1.851
14288TIP3    H264280   1.514   2.912   1.953
14289TIP3   OH264281   0.988   2.260   1.999
14289TIP3    H164282   0.956   2.254   2.091
14289TIP3    H264283   0.957   2.172   1.968
14290TIP3   OH264284   0.567   2.532   3.055
14290TIP3    H164285   0.495   2.532   3.122
14290TIP3    H264286   0.566   2.623   3.020
14291TIP3   OH264287   0.568   2.542   2.544
14291TIP3    H164288   0.474   2.522   2.530
14291TIP3    H264289   0.607   2.515   2.459
14292TIP3   OH264290   1.118   2.594   2.421
14292TIP3    H164291   1.078   2.676   2.384
14292TIP3    H264292   1.186   2.577   2.355
14293TIP3   OH264293   1.023   2.615   3.564
14293TIP3    H164294   0.970   2.537   3.595
14293TIP3    H264295   1.107   2.603   3.612
14294TIP3   OH264296   1.221   2.543   2.705
14294TIP3    H164297   1.193   2.599   2.631
14294TIP3    H264298   1.231   2.458   2.658
14295TIP3   OH264299   0.333   2.555   3.225
14295TIP3    H164300   0.335   2.598   3.313
14295TIP3    H264301   0.284   2.474   3.245
14296TIP3   OH264302   0.669   2.298   1.913
14296TIP3    H164303   0.624   2.254   1.986
14296TIP3    H264304   0.599   2.338   1.859
14297TIP3   OH264305   0.048   2.307   2.605
14297TIP3    H164306   0.065   2.267   2.693
14297TIP3    H264307   0.034   2.226   2.554
14298TIP3   OH264308   0.127   2.365   2.161
14298TIP3    H164309   0.167   2.416   2.086
14298TIP3    H264310   0.041   2.406   2.174
14299TIP3   OH264311   1.141   2.701   3.160
14299TIP3    H164312   1.179   2.632   3.102
14299TIP3    H264313   1.094   2.648   3.228
14300TIP3   OH264314   0.822   2.299   2.644
14300TIP3    H164315   0.729   2.299   2.675
14300TIP3    H264316   0.870   2.282   2.726
14301TIP3   OH264317   0.309   2.455   2.517
14301TIP3    H164318   0.213   2.469   2.498
14301TIP3    H264319   0.324   2.361   2.502
14302TIP3   OH264320   0.663   2.459   2.292
14302TIP3    H164321   0.759   2.468   2.310
14302TIP3    H264322   0.643   2.530   2.228
14303TIP3   OH264323   1.261   2.222   2.968
14303TIP3    H164324   1.193   2.227   3.039
14303TIP3    H264325   1.211   2.197   2.890
14304TIP3   OH264326   0.540   2.566   2.054
14304TIP3    H164327   0.485   2.543   1.977
14304TIP3    H264328   0.618   2.601   2.007
14305TIP3   OH264329   1.582   3.787   3.601
14305TIP3    H164330   1.608   3.825   3.515
14305TIP3    H264331   1.654   3.819   3.657
14306TIP3   OH264332   0.347   3.032   3.559
14306TIP3    H164333   0.421   3.057   3.618
14306TIP3    H264334   0.272   3.044   3.620
14307TIP3   OH264335   0.949   2.574   2.833
14307TIP3    H164336   1.010   2.522   2.781
14307TIP3    H264337   0.935   2.520   2.912
14308TIP3   OH264338   0.443   2.193   2.464
14308TIP3    H164339   0.419   2.099   2.480
14308TIP3    H264340   0.532   2.179   2.426
14309TIP3   OH264341   0.813   2.407   3.075
14309TIP3    H164342   0.731   2.459   3.084
14309TIP3    H264343   0.869   2.443   3.147
14310TIP3   OH264344   0.873   3.027   2.246
14310TIP3    H164345   0.791   2.983   2.210
14310TIP3    H264346   0.848   3.042   2.339
14311TIP3   OH264347   1.591   2.950   3.125
14311TIP3    H164348   1.647   2.998   3.062
14311TIP3    H264349   1.505   2.954   3.079
14312TIP3   OH264350   1.255   2.311   2.062
14312TIP3    H164351   1.160   2.326   2.048
14312TIP3    H264352   1.289   2.396   2.097
14313TIP3   OH264353   1.021   3.057   3.369
14313TIP3    H164354   0.986   3.014   3.448
14313TIP3    H264355   0.995   3.149   3.380
14314TIP3   OH264356   1.329   2.503   2.224
14314TIP3    H164357   1.417   2.490   2.265
14314TIP3    H264358   1.339   2.585   2.173
14315TIP3   OH264359   0.382   2.968   2.823
14315TIP3    H164360   0.449   2.961   2.753
14315TIP3    H264361   0.392   2.885   2.871
14316TIP3   OH264362   1.083   3.176   2.149
14316TIP3    H164363   1.046   3.261   2.183
14316TIP3    H264364   1.009   3.115   2.169
14317TIP3   OH264365   0.079   2.807   3.351
14317TIP3    H164366   0.105   2.763   3.434
14317TIP3    H264367   0.020   2.743   3.308
14318TIP3   OH264368   0.783   2.766   3.568
14318TIP3    H164369   0.751   2.734   3.482
14318TIP3    H264370   0.875   2.733   3.568
14319TIP3   OH264371   1.252   3.299   3.364
14319TIP3    H164372   1.159   3.317   3.340
14319TIP3    H264373   1.248   3.328   3.457
14320TIP3   OH264374   1.819   2.516   2.202
14320TIP3    H164375   1.762   2.488   2.128
14320TIP3    H264376   1.826   2.611   2.177
14321TIP3   OH264377   1.817   3.103   3.483
14321TIP3    H164378   1.728   3.125   3.447
14321TIP3    H264379   1.872   3.098   3.402
14322TIP3   OH264380   1.644   3.400   2.242
14322TIP3    H164381   1.611   3.316   2.277
14322TIP3    H264382   1.680   3.378   2.154
14323TIP3   OH264383   1.368   2.881   2.953
14323TIP3    H164384   1.274   2.861   2.942
14323TIP3    H264385   1.411   2.805   2.909
14324TIP3   OH264386   0.619   3.315   2.565
14324TIP3    H164387   0.670   3.395   2.542
14324TIP3    H264388   0.531   3.338   2.531
14325TIP3   OH264389   0.185   2.785   2.037
14325TIP3    H164390   0.256   2.857   2.044
14325TIP3    H264391   0.105   2.837   2.048
14326TIP3   OH264392   0.761   3.081   2.514
14326TIP3    H164393   0.730   3.173   2.524
14326TIP3    H264394   0.690   3.032   2.559
14327TIP3   OH264395   0.808   3.499   3.156
14327TIP3    H164396   0.853   3.580   3.127
14327TIP3    H264397   0.869   3.465   3.224
14328TIP3   OH264398   0.629   3.580   2.467
14328TIP3    H164399   0.533   3.594   2.481
14328TIP3    H264400   0.666   3.664   2.502
14329TIP3   OH264401   1.159   3.099   3.117
14329TIP3    H164402   1.127   3.080   3.208
14329TIP3    H264403   1.223   3.028   3.101
14330TIP3   OH264404   1.393   3.207   2.026
14330TIP3    H164405   1.422   3.160   2.107
14330TIP3    H264406   1.297   3.188   2.034
14331TIP3   OH264407   1.441   3.557   3.366
14331TIP3    H164408   1.372   3.508   3.319
14331TIP3    H264409   1.459   3.627   3.300
14332TIP3   OH264410   1.839   3.642   2.052
14332TIP3    H164411   1.908   3.708   2.031
14332TIP3    H264412   1.768   3.703   2.081
14333TIP3   OH264413   0.247   2.283   3.302
14333TIP3    H164414   0.158   2.320   3.310
14333TIP3    H264415   0.236   2.199   3.350
14334TIP3   OH264416   1.471   3.070   2.251
14334TIP3    H164417   1.447   2.992   2.304
14334TIP3    H264418   1.566   3.075   2.269
14335TIP3   OH264419   0.225   3.466   3.144
14335TIP3    H164420   0.237   3.371   3.149
14335TIP3    H264421   0.234   3.490   3.237
14336TIP3   OH264422   0.812   3.316   1.878
14336TIP3    H164423   0.813   3.239   1.818
14336TIP3    H264424   0.759   3.271   1.949
14337TIP3   OH264425   0.683   3.268   2.123
14337TIP3    H164426   0.708   3.214   2.198
14337TIP3    H264427   0.692   3.360   2.155
14338TIP3   OH264428   0.336   2.997   2.227
14338TIP3    H164429   0.247   3.038   2.233
14338TIP3    H264430   0.375   3.045   2.150
14339TIP3   OH264431   1.120   2.260   3.202
14339TIP3    H164432   1.191   2.266   3.266
14339TIP3    H264433   1.082   2.172   3.222
14340TIP3   OH264434   1.194   2.217   2.310
14340TIP3    H164435   1.218   2.263   2.228
14340TIP3    H264436   1.252   2.261   2.374
14341TIP3   OH264437   0.966   3.436   2.194
14341TIP3    H164438   0.881   3.485   2.197
14341TIP3    H264439   1.018   3.489   2.132
14342TIP3   OH264440   0.918   2.392   2.392
14342TIP3    H164441   0.996   2.451   2.397
14342TIP3    H264442   0.891   2.380   2.485
14343TIP3   OH264443   0.973   2.495   3.312
14343TIP3    H164444   0.980   2.550   3.391
14343TIP3    H264445   1.039   2.425   3.321
14344TIP3   OH264446   1.002   2.098   2.480
14344TIP3    H164447   0.970   2.162   2.545
14344TIP3    H264448   1.072   2.152   2.436
14345TIP3   OH264449   0.704   3.534   2.194
14345TIP3    H164450   0.713   3.615   2.138
14345TIP3    H264451   0.676   3.572   2.280
14346TIP3   OH264452   0.565   2.211   2.156
14346TIP3    H164453   0.572   2.302   2.190
14346TIP3    H264454   0.657   2.182   2.176
14347TIP3   OH264455   1.591   2.282   3.396
14347TIP3    H164456   1.498   2.313   3.383
14347TIP3    H264457   1.621   2.280   3.304
14348TIP3   OH264458   1.452   2.660   2.796
14348TIP3    H164459   1.370   2.616   2.769
14348TIP3    H264460   1.500   2.592   2.848
14349TIP3   OH264461   0.387   3.265   2.053
14349TIP3    H164462   0.461   3.316   2.088
14349TIP3    H264463   0.436   3.203   1.994
14350TIP3   OH264464   0.218   2.516   1.976
14350TIP3    H164465   0.229   2.614   1.987
14350TIP3    H264466   0.134   2.504   1.930
14351TIP3   OH264467   1.558   3.587   2.964
14351TIP3    H164468   1.550   3.655   2.894
14351TIP3    H264469   1.655   3.592   2.981
14352TIP3   OH264470   0.310   1.997   2.842
14352TIP3    H164471   0.288   2.001   2.746
14352TIP3    H264472   0.264   1.915   2.868
14353TIP3   OH264473   0.205   3.392   2.461
14353TIP3    H164474   0.119   3.434   2.455
14353TIP3    H264475   0.252   3.437   2.390
14354TIP3   OH264476   0.154   3.658   3.586
14354TIP3    H164477   0.195   3.635   3.671
14354TIP3    H264478   0.102   3.577   3.571
14355TIP3   OH264479   0.592   3.546   3.748
14355TIP3    H164480   0.668   3.497   3.781
14355TIP3    H264481   0.589   3.519   3.654
14356TIP3   OH264482   1.007   3.500   1.889
14356TIP3    H164483   0.937   3.435   1.911
14356TIP3    H264484   1.076   3.438   1.863
14357TIP3   OH264485   1.242   3.386   3.623
14357TIP3    H164486   1.211   3.297   3.651
14357TIP3    H264487   1.319   3.398   3.683
14358TIP3   OH264488   1.461   3.473   1.907
14358TIP3    H164489   1.491   3.396   1.958
14358TIP3    H264490   1.537   3.496   1.852
14359TIP3   OH264491   0.111   3.033   3.686
14359TIP3    H164492   0.133   2.944   3.654
14359TIP3    H264493   0.040   3.061   3.628
14360TIP3   OH264494   0.629   3.102   1.883
14360TIP3    H164495   0.582   3.033   1.935
14360TIP3    H264496   0.640   3.049   1.803
14361TIP3   OH264497   0.786   3.032   3.626
14361TIP3    H164498   0.753   3.063   3.539
14361TIP3    H264499   0.794   2.934   3.615
14362TIP3   OH264500   1.094   3.178   1.867
14362TIP3    H164501   1.065   3.187   1.959
14362TIP3    H264502   1.073   3.083   1.852
14363TIP3   OH264503   1.356   3.018   3.365
14363TIP3    H164504   1.435   3.076   3.359
14363TIP3    H264505   1.286   3.085   3.368
14364TIP3   OH264506   0.200   2.754   3.624
14364TIP3    H164507   0.249   2.670   3.616
14364TIP3    H264508   0.183   2.755   3.720
14365TIP3   OH264509   0.678   2.868   2.135
14365TIP3    H164510   0.619   2.818   2.192
14365TIP3    H264511   0.698   2.804   2.064
14366TIP3   OH264512   0.597   2.650   3.361
14366TIP3    H164513   0.536   2.721   3.387
14366TIP3    H264514   0.636   2.687   3.280
14367TIP3   OH264515   0.775   2.690   1.952
14367TIP3    H164516   0.760   2.684   1.856
14367TIP3    H264517   0.873   2.698   1.959
14368TIP3   OH264518   1.104   2.907   3.694
14368TIP3    H164519   1.200   2.906   3.682
14368TIP3    H264520   1.087   2.830   3.751
14369TIP3   OH264521   1.711   2.923   1.893
14369TIP3    H164522   1.691   2.885   1.806
14369TIP3    H264523   1.719   3.020   1.874
14370TIP3   OH264524   0.640   2.388   3.466
14370TIP3    H164525   0.649   2.317   3.401
14370TIP3    H264526   0.631   2.469   3.412
14371TIP3   OH264527   0.678   2.226   3.222
14371TIP3    H164528   0.729   2.273   3.151
14371TIP3    H264529   0.589   2.218   3.181
14372TIP3   OH264530   0.831   2.775   3.246
14372TIP3    H164531   0.907   2.758   3.189
14372TIP3    H264532   0.795   2.858   3.212
14373TIP3   OH264533   1.271   2.550   3.742
14373TIP3    H164534   1.295   2.457   3.733
14373TIP3    H264535   1.357   2.594   3.745
14374TIP3   OH264536   1.405   2.830   3.559
14374TIP3    H164537   1.380   2.902   3.497
14374TIP3    H264538   1.501   2.826   3.540
14375TIP3   OH264539   0.481   2.514   3.657
14375TIP3    H164540   0.405   2.454   3.642
14375TIP3    H264541   0.547   2.476   3.597
14376TIP3   OH264542   0.756   1.970   3.260
14376TIP3    H164543   0.738   2.066   3.251
14376TIP3    H264544   0.682   1.933   3.210
14377TIP3   OH264545   0.884   2.403   3.623
14377TIP3    H164546   0.852   2.379   3.713
14377TIP3    H264547   0.806   2.382   3.569
14378TIP3   OH264548   1.156   2.317   3.532
14378TIP3    H164549   1.059   2.322   3.543
14378TIP3    H264550   1.182   2.253   3.601
14379TIP3   OH264551   1.314   2.179   3.722
14379TIP3    H164552   1.309   2.081   3.725
14379TIP3    H264553   1.289   2.208   3.812
14380TIP3   OH264554   0.306   2.304   3.637
14380TIP3    H164555   0.316   2.231   3.574
14380TIP3    H264556   0.285   2.258   3.721
14381TIP3   OH264557   0.778   1.909   3.531
14381TIP3    H164558   0.846   1.839   3.529
14381TIP3    H264559   0.767   1.923   3.435
14382TIP3   OH264560   0.814   2.070   3.742
14382TIP3    H164561   0.797   2.020   3.659
14382TIP3    H264562   0.754   2.147   3.732
14383TIP3   OH264563   0.761   3.762   2.060
14383TIP3    H164564   0.857   3.770   2.066
14383TIP3    H264565   0.746   3.822   1.986
14384TIP3   OH264566   0.120   3.220   2.007
14384TIP3    H164567   0.216   3.229   2.025
14384TIP3    H264568   0.126   3.154   1.936
14385TIP3   OH264569   7.338   3.774   2.487
14385TIP3    H164570   7.247   3.753   2.455
14385TIP3    H264571   7.347   3.710   2.561
14386TIP3   OH264572   0.079   3.575   2.686
14386TIP3    H164573   0.044   3.486   2.709
14386TIP3    H264574   0.104   3.603   2.776
14387TIP3   OH264575   1.830   3.651   2.984
14387TIP3    H164576   1.834   3.667   3.079
14387TIP3    H264577   1.901   3.709   2.953
14388TIP3   OH264578   1.788   3.610   3.278
14388TIP3    H164579   1.741   3.533   3.240
14388TIP3    H264580   1.836   3.566   3.349
14389TIP3   OH264581   1.632   3.182   3.746
14389TIP3    H164582   1.542   3.180   3.782
14389TIP3    H264583   1.669   3.263   3.787
14390TIP3   OH264584   1.764   3.016   2.288
14390TIP3    H164585   1.850   3.054   2.307
14390TIP3    H264586   1.762   2.944   2.355
14391TIP3   OH264587   1.800   2.823   2.477
14391TIP3    H164588   1.725   2.773   2.516
14391TIP3    H264589   1.860   2.836   2.554
14392TIP3   OH264590   1.775   3.093   2.976
14392TIP3    H164591   1.857   3.055   2.938
14392TIP3    H264592   1.790   3.188   2.958
14393TIP3   OH264593   1.631   3.383   3.202
14393TIP3    H164594   1.562   3.417   3.261
14393TIP3    H264595   1.577   3.343   3.132
14394TIP3   OH264596   1.830   2.805   2.116
14394TIP3    H164597   1.773   2.840   2.044
14394TIP3    H264598   1.820   2.877   2.182
14395TIP3   OH264599   1.667   2.528   1.967
14395TIP3    H164600   1.675   2.595   1.898
14395TIP3    H264601   1.649   2.446   1.918
14396TIP3   OH264602   1.582   2.670   2.534
14396TIP3    H164603   1.567   2.575   2.530
14396TIP3    H264604   1.549   2.692   2.623
14397TIP3   OH264605   0.084   2.877   2.932
14397TIP3    H164606   0.104   2.873   2.836
14397TIP3    H264607   0.172   2.866   2.974
14398TIP3   OH264608   1.668   2.867   3.503
14398TIP3    H164609   1.729   2.791   3.516
14398TIP3    H264610   1.728   2.944   3.503
14399TIP3   OH264611   1.818   2.655   3.568
14399TIP3    H164612   1.730   2.615   3.553
14399TIP3    H264613   1.875   2.577   3.560
14400TIP3   OH264614   1.592   2.276   1.881
14400TIP3    H164615   1.651   2.232   1.945
14400TIP3    H264616   1.506   2.234   1.896
14401TIP3   OH264617   1.546   2.428   2.375
14401TIP3    H164618   1.578   2.336   2.392
14401TIP3    H264619   1.629   2.469   2.345
14402TIP3   OH264620   1.613   2.483   2.924
14402TIP3    H164621   1.709   2.506   2.923
14402TIP3    H264622   1.594   2.497   3.018
14403TIP3   OH264623   1.619   2.555   3.203
14403TIP3    H164624   1.531   2.584   3.234
14403TIP3    H264625   1.663   2.641   3.180
14404TIP3   OH264626   0.072   2.396   3.553
14404TIP3    H164627   0.160   2.377   3.587
14404TIP3    H264628   0.014   2.328   3.595
14405TIP3   OH264629   1.846   1.962   3.736
14405TIP3    H164630   1.882   1.895   3.674
14405TIP3    H264631   1.857   2.043   3.683
14406TIP3   OH264632   1.616   2.157   2.385
14406TIP3    H164633   1.637   2.114   2.470
14406TIP3    H264634   1.556   2.093   2.341
14407TIP3   OH264635   0.168   2.234   2.837
14407TIP3    H164636   0.215   2.154   2.870
14407TIP3    H264637   0.218   2.305   2.880
14408TIP3   OH264638   0.050   2.614   2.980
14408TIP3    H164639   0.053   2.571   2.892
14408TIP3    H264640   0.058   2.705   2.952
14409TIP3   OH264641   1.798   2.171   3.572
14409TIP3    H164642   1.705   2.199   3.567
14409TIP3    H264643   1.802   2.116   3.492
14410TIP3   OH264644   1.797   2.161   2.040
14410TIP3    H164645   1.839   2.090   1.986
14410TIP3    H264646   1.868   2.227   2.045
14411TIP3   OH264647   0.082   2.164   2.299
14411TIP3    H164648  -0.013   2.172   2.323
14411TIP3    H264649   0.088   2.241   2.241
14412TIP3   OH264650   1.503   3.660   2.547
14412TIP3    H164651   1.571   3.629   2.484
14412TIP3    H264652   1.554   3.709   2.612
14413TIP3   OH264653   7.355   2.026   3.202
14413TIP3    H164654   7.276   2.005   3.255
14413TIP3    H264655   7.307   2.078   3.135
14414TIP3   OH264656   0.244   3.352   3.598
14414TIP3    H164657   0.160   3.370   3.555
14414TIP3    H264658   0.219   3.342   3.690
14415TIP3   OH264659   0.541   3.452   3.228
14415TIP3    H164660   0.501   3.536   3.198
14415TIP3    H264661   0.632   3.461   3.193
14416TIP3   OH264662   0.970   3.592   3.515
14416TIP3    H164663   0.983   3.557   3.606
14416TIP3    H264664   1.060   3.623   3.491
14417TIP3   OH264665   1.198   3.719   3.446
14417TIP3    H164666   1.272   3.661   3.423
14417TIP3    H264667   1.236   3.763   3.526
14418TIP3   OH264668   1.700   1.980   3.357
14418TIP3    H164669   1.618   2.010   3.316
14418TIP3    H264670   1.717   1.898   3.305
14419TIP3   OH264671   0.283   3.774   3.227
14419TIP3    H164672   0.208   3.823   3.187
14419TIP3    H264673   0.249   3.755   3.315
14420TIP3   OH264674   0.528   3.732   3.130
14420TIP3    H164675   0.439   3.745   3.170
14420TIP3    H264676   0.523   3.792   3.054
14421TIP3   OH264677   0.998   3.723   3.048
14421TIP3    H164678   0.951   3.778   2.984
14421TIP3    H264679   1.011   3.786   3.122
14422TIP3   OH264680   1.226   3.603   3.152
14422TIP3    H164681   1.141   3.631   3.115
14422TIP3    H264682   1.275   3.687   3.142
14423TIP3   OH264683   1.485   3.760   3.174
14423TIP3    H164684   1.479   3.856   3.151
14423TIP3    H264685   1.506   3.723   3.086
14424TIP3   OH264686   0.221   3.639   2.918
14424TIP3    H164687   0.220   3.594   3.005
14424TIP3    H264688   0.302   3.601   2.879
14425TIP3   OH264689   0.431   3.510   2.785
14425TIP3    H164690   0.415   3.416   2.808
14425TIP3    H264691   0.517   3.525   2.829
14426TIP3   OH264692   0.693   3.557   2.872
14426TIP3    H164693   0.710   3.465   2.846
14426TIP3    H264694   0.699   3.553   2.969
14427TIP3   OH264695   1.039   2.123   2.786
14427TIP3    H164696   0.972   2.059   2.814
14427TIP3    H264697   1.095   2.070   2.727
14428TIP3   OH264698   1.553   1.928   2.792
14428TIP3    H164699   1.614   1.987   2.741
14428TIP3    H264700   1.465   1.964   2.769
14429TIP3   OH264701   1.720   2.053   2.619
14429TIP3    H164702   1.789   1.995   2.578
14429TIP3    H264703   1.771   2.136   2.630
14430TIP3   OH264704   0.279   1.986   2.570
14430TIP3    H164705   0.198   1.963   2.518
14430TIP3    H264706   0.326   1.901   2.564
14431TIP3   OH264707   0.158   1.959   2.139
14431TIP3    H164708   0.206   2.026   2.088
14431TIP3    H264709   0.097   2.013   2.193
14432TIP3   OH264710   0.723   1.979   2.549
14432TIP3    H164711   0.814   2.014   2.541
14432TIP3    H264712   0.720   1.956   2.642
14433TIP3   OH264713   1.295   1.980   2.711
14433TIP3    H164714   1.290   1.991   2.616
14433TIP3    H264715   1.257   1.890   2.724
14434TIP3   OH264716   1.422   1.983   2.280
14434TIP3    H164717   1.347   2.042   2.264
14434TIP3    H264718   1.378   1.898   2.303
14435TIP3   OH264719   0.144   3.561   2.249
14435TIP3    H164720   0.084   3.557   2.172
14435TIP3    H264721   0.147   3.657   2.262
14436TIP3   OH264722   0.336   2.158   1.998
14436TIP3    H164723   0.384   2.096   1.939
14436TIP3    H264724   0.412   2.183   2.054
14437TIP3   OH264725   0.834   2.181   2.235
14437TIP3    H164726   0.864   2.122   2.307
14437TIP3    H264727   0.848   2.267   2.280
14438TIP3   OH264728   1.032   3.688   2.079
14438TIP3    H164729   1.124   3.710   2.057
14438TIP3    H264730   1.010   3.635   1.999
14439TIP3   OH264731   1.701   3.637   2.351
14439TIP3    H164732   1.683   3.559   2.294
14439TIP3    H264733   1.695   3.711   2.286
14440TIP3   OH264734   0.260   2.042   3.520
14440TIP3    H164735   0.226   1.957   3.554
14440TIP3    H264736   0.353   2.036   3.553
14441TIP3   OH264737   0.465   1.977   3.679
14441TIP3    H164738   0.555   1.943   3.658
14441TIP3    H264739   0.426   1.897   3.719
14442TIP3   OH264740   0.324   3.651   1.938
14442TIP3    H164741   0.299   3.679   2.027
14442TIP3    H264742   0.405   3.599   1.955
14443TIP3   OH264743   1.305   1.907   3.695
14443TIP3    H164744   1.315   1.860   3.780
14443TIP3    H264745   1.397   1.903   3.660
14444TIP3   OH264746   1.626   3.512   3.558
14444TIP3    H164747   1.546   3.498   3.503
14444TIP3    H264748   1.615   3.607   3.580
14445TIP3   OH264749   3.072   2.901   2.554
14445TIP3    H164750   3.069   2.999   2.552
14445TIP3    H264751   2.997   2.875   2.498
14446TIP3   OH264752   2.958   2.833   2.909
14446TIP3    H164753   2.955   2.761   2.975
14446TIP3    H264754   2.925   2.780   2.834
14447TIP3   OH264755   2.191   2.793   3.061
14447TIP3    H164756   2.200   2.724   3.131
14447TIP3    H264757   2.267   2.850   3.083
14448TIP3   OH264758   3.325   3.120   2.734
14448TIP3    H164759   3.284   3.048   2.784
14448TIP3    H264760   3.328   3.191   2.800
14449TIP3   OH264761   2.284   3.238   2.911
14449TIP3    H164762   2.253   3.151   2.880
14449TIP3    H264763   2.380   3.219   2.916
14450TIP3   OH264764   1.947   2.593   2.460
14450TIP3    H164765   1.904   2.680   2.454
14450TIP3    H264766   1.892   2.539   2.403
14451TIP3   OH264767   2.019   2.816   2.675
14451TIP3    H164768   2.047   2.734   2.720
14451TIP3    H264769   2.089   2.826   2.609
14452TIP3   OH264770   3.036   3.635   2.758
14452TIP3    H164771   3.101   3.567   2.730
14452TIP3    H264772   3.015   3.602   2.846
14453TIP3   OH264773   2.794   3.065   2.953
14453TIP3    H164774   2.827   3.000   2.888
14453TIP3    H264775   2.875   3.081   3.004
14454TIP3   OH264776   3.653   2.231   3.025
14454TIP3    H164777   3.671   2.290   3.102
14454TIP3    H264778   3.710   2.273   2.959
14455TIP3   OH264779   3.124   2.510   2.986
14455TIP3    H164780   3.126   2.414   2.983
14455TIP3    H264781   3.094   2.527   2.893
14456TIP3   OH264782   2.414   2.321   2.708
14456TIP3    H164783   2.439   2.402   2.661
14456TIP3    H264784   2.383   2.263   2.635
14457TIP3   OH264785   3.198   2.325   2.540
14457TIP3    H164786   3.260   2.298   2.611
14457TIP3    H264787   3.252   2.388   2.491
14458TIP3   OH264788   2.084   2.562   2.780
14458TIP3    H164789   2.153   2.509   2.824
14458TIP3    H264790   2.094   2.531   2.689
14459TIP3   OH264791   2.587   2.732   2.719
14459TIP3    H164792   2.660   2.671   2.745
14459TIP3    H264793   2.550   2.660   2.662
14460TIP3   OH264794   3.698   2.371   3.253
14460TIP3    H164795   3.637   2.448   3.242
14460TIP3    H264796   3.701   2.364   3.349
14461TIP3   OH264797   2.312   2.211   3.111
14461TIP3    H164798   2.285   2.268   3.036
14461TIP3    H264799   2.244   2.234   3.179
14462TIP3   OH264800   3.041   3.160   2.465
14462TIP3    H164801   3.015   3.132   2.376
14462TIP3    H264802   3.011   3.253   2.470
14463TIP3   OH264803   2.564   2.975   3.134
14463TIP3    H164804   2.493   3.040   3.156
14463TIP3    H264805   2.635   3.035   3.105
14464TIP3   OH264806   3.377   2.263   2.742
14464TIP3    H164807   3.355   2.187   2.796
14464TIP3    H264808   3.443   2.308   2.798
14465TIP3   OH264809   2.270   2.397   2.915
14465TIP3    H164810   2.334   2.466   2.944
14465TIP3    H264811   2.321   2.356   2.840
14466TIP3   OH264812   2.409   3.176   3.216
14466TIP3    H164813   2.404   3.267   3.182
14466TIP3    H264814   2.320   3.168   3.260
14467TIP3   OH264815   2.017   3.136   2.295
14467TIP3    H164816   1.992   3.170   2.208
14467TIP3    H264817   2.025   3.219   2.347
14468TIP3   OH264818   3.378   3.304   2.971
14468TIP3    H164819   3.281   3.315   2.983
14468TIP3    H264820   3.405   3.395   2.951
14469TIP3   OH264821   3.410   2.132   3.110
14469TIP3    H164822   3.338   2.195   3.101
14469TIP3    H264823   3.481   2.174   3.058
14470TIP3   OH264824   2.708   1.942   2.858
14470TIP3    H164825   2.691   1.847   2.849
14470TIP3    H264826   2.621   1.977   2.885
14471TIP3   OH264827   3.204   3.482   2.630
14471TIP3    H164828   3.247   3.410   2.579
14471TIP3    H264829   3.247   3.561   2.591
14472TIP3   OH264830   3.325   3.275   2.482
14472TIP3    H164831   3.295   3.205   2.422
14472TIP3    H264832   3.328   3.226   2.566
14473TIP3   OH264833   3.485   3.134   3.332
14473TIP3    H164834   3.501   3.070   3.260
14473TIP3    H264835   3.507   3.218   3.287
14474TIP3   OH264836   2.937   2.824   2.309
14474TIP3    H164837   2.866   2.880   2.273
14474TIP3    H264838   3.007   2.833   2.242
14475TIP3   OH264839   2.945   2.680   2.008
14475TIP3    H164840   3.015   2.678   2.075
14475TIP3    H264841   2.975   2.608   1.952
14476TIP3   OH264842   3.675   2.766   3.136
14476TIP3    H164843   3.610   2.838   3.139
14476TIP3    H264844   3.725   2.789   3.055
14477TIP3   OH264845   3.282   2.844   2.400
14477TIP3    H164846   3.207   2.867   2.460
14477TIP3    H264847   3.329   2.776   2.452
14478TIP3   OH264848   3.275   2.662   3.315
14478TIP3    H164849   3.275   2.744   3.364
14478TIP3    H264850   3.212   2.689   3.244
14479TIP3   OH264851   2.442   2.912   2.591
14479TIP3    H164852   2.411   2.869   2.507
14479TIP3    H264853   2.503   2.843   2.627
14480TIP3   OH264854   2.574   3.248   2.859
14480TIP3    H164855   2.574   3.196   2.778
14480TIP3    H264856   2.653   3.213   2.905
14481TIP3   OH264857   2.472   2.788   2.959
14481TIP3    H164858   2.528   2.793   2.878
14481TIP3    H264859   2.516   2.852   3.019
14482TIP3   OH264860   3.118   3.343   3.028
14482TIP3    H164861   3.088   3.406   3.095
14482TIP3    H264862   3.092   3.257   3.070
14483TIP3   OH264863   2.571   3.228   3.427
14483TIP3    H164864   2.529   3.302   3.476
14483TIP3    H264865   2.503   3.208   3.357
14484TIP3   OH264866   3.169   2.765   2.166
14484TIP3    H164867   3.225   2.782   2.246
14484TIP3    H264868   3.214   2.814   2.094
14485TIP3   OH264869   2.265   2.844   3.343
14485TIP3    H164870   2.270   2.911   3.413
14485TIP3    H264871   2.171   2.853   3.321
14486TIP3   OH264872   2.940   3.437   2.513
14486TIP3    H164873   2.983   3.467   2.594
14486TIP3    H264874   2.884   3.512   2.490
14487TIP3   OH264875   2.395   3.431   3.502
14487TIP3    H164876   2.389   3.422   3.405
14487TIP3    H264877   2.302   3.418   3.529
14488TIP3   OH264878   3.541   1.938   2.157
14488TIP3    H164879   3.447   1.949   2.181
14488TIP3    H264880   3.562   2.022   2.112
14489TIP3   OH264881   2.338   2.813   2.353
14489TIP3    H164882   2.310   2.891   2.302
14489TIP3    H264883   2.274   2.746   2.330
14490TIP3   OH264884   3.653   3.373   1.991
14490TIP3    H164885   3.669   3.467   2.008
14490TIP3    H264886   3.745   3.342   1.991
14491TIP3   OH264887   1.948   3.055   3.243
14491TIP3    H164888   1.904   3.047   3.156
14491TIP3    H264889   1.956   2.961   3.264
14492TIP3   OH264890   1.924   3.329   2.920
14492TIP3    H164891   2.020   3.317   2.918
14492TIP3    H264892   1.916   3.411   2.971
14493TIP3   OH264893   3.749   3.400   3.489
14493TIP3    H164894   3.738   3.304   3.485
14493TIP3    H264895   3.662   3.426   3.527
14494TIP3   OH264896   2.844   3.353   3.375
14494TIP3    H164897   2.850   3.438   3.426
14494TIP3    H264898   2.757   3.317   3.401
14495TIP3   OH264899   2.886   3.729   2.354
14495TIP3    H164900   2.879   3.719   2.258
14495TIP3    H264901   2.891   3.824   2.369
14496TIP3   OH264902   2.253   3.618   2.537
14496TIP3    H164903   2.267   3.575   2.624
14496TIP3    H264904   2.168   3.576   2.512
14497TIP3   OH264905   3.194   3.649   2.053
14497TIP3    H164906   3.239   3.573   2.010
14497TIP3    H264907   3.198   3.623   2.147
14498TIP3   OH264908   3.163   3.643   2.331
14498TIP3    H164909   3.067   3.650   2.348
14498TIP3    H264910   3.187   3.568   2.388
14499TIP3   OH264911   3.461   2.548   3.537
14499TIP3    H164912   3.415   2.590   3.462
14499TIP3    H264913   3.462   2.456   3.508
14500TIP3   OH264914   2.177   3.187   3.337
14500TIP3    H164915   2.199   3.151   3.425
14500TIP3    H264916   2.090   3.147   3.316
14501TIP3   OH264917   2.444   2.033   2.933
14501TIP3    H164918   2.354   2.022   2.895
14501TIP3    H264919   2.433   2.118   2.978
14502TIP3   OH264920   2.909   2.001   3.268
14502TIP3    H164921   2.948   1.958   3.346
14502TIP3    H264922   2.812   1.990   3.282
14503TIP3   OH264923   3.238   2.387   3.358
14503TIP3    H164924   3.182   2.364   3.436
14503TIP3    H264925   3.218   2.478   3.334
14504TIP3   OH264926   3.314   2.868   1.947
14504TIP3    H164927   3.312   2.849   1.851
14504TIP3    H264928   3.400   2.912   1.953
14505TIP3   OH264929   2.873   2.260   1.999
14505TIP3    H164930   2.842   2.253   2.091
14505TIP3    H264931   2.843   2.172   1.968
14506TIP3   OH264932   2.456   2.533   3.058
14506TIP3    H164933   2.381   2.532   3.120
14506TIP3    H264934   2.451   2.623   3.018
14507TIP3   OH264935   2.444   2.548   2.539
14507TIP3    H164936   2.353   2.516   2.528
14507TIP3    H264937   2.490   2.513   2.461
14508TIP3   OH264938   3.004   2.594   2.421
14508TIP3    H164939   2.963   2.675   2.386
14508TIP3    H264940   3.072   2.577   2.354
14509TIP3   OH264941   2.908   2.615   3.564
14509TIP3    H164942   2.855   2.537   3.595
14509TIP3    H264943   2.992   2.601   3.612
14510TIP3   OH264944   3.117   2.545   2.702
14510TIP3    H164945   3.075   2.598   2.632
14510TIP3    H264946   3.113   2.457   2.659
14511TIP3   OH264947   2.217   2.557   3.225
14511TIP3    H164948   2.226   2.598   3.313
14511TIP3    H264949   2.173   2.473   3.246
14512TIP3   OH264950   2.554   2.296   1.910
14512TIP3    H164951   2.509   2.255   1.986
14512TIP3    H264952   2.483   2.340   1.861
14513TIP3   OH264953   1.883   2.268   2.624
14513TIP3    H164954   1.952   2.264   2.694
14513TIP3    H264955   1.928   2.230   2.546
14514TIP3   OH264956   2.009   2.340   2.158
14514TIP3    H164957   2.061   2.401   2.103
14514TIP3    H264958   1.941   2.402   2.191
14515TIP3   OH264959   3.028   2.700   3.161
14515TIP3    H164960   3.061   2.632   3.099
14515TIP3    H264961   2.980   2.648   3.227
14516TIP3   OH264962   2.695   2.218   2.650
14516TIP3    H164963   2.624   2.285   2.657
14516TIP3    H264964   2.755   2.271   2.706
14517TIP3   OH264965   2.184   2.454   2.531
14517TIP3    H164966   2.097   2.469   2.490
14517TIP3    H264967   2.216   2.371   2.491
14518TIP3   OH264968   2.551   2.456   2.290
14518TIP3    H164969   2.645   2.469   2.311
14518TIP3    H264970   2.528   2.529   2.229
14519TIP3   OH264971   3.148   2.221   2.969
14519TIP3    H164972   3.078   2.228   3.038
14519TIP3    H264973   3.096   2.199   2.890
14520TIP3   OH264974   2.422   2.577   2.052
14520TIP3    H164975   2.369   2.538   1.980
14520TIP3    H264976   2.505   2.597   2.005
14521TIP3   OH264977   3.467   3.786   3.601
14521TIP3    H164978   3.494   3.825   3.515
14521TIP3    H264979   3.539   3.819   3.657
14522TIP3   OH264980   2.235   3.034   3.558
14522TIP3    H164981   2.307   3.058   3.618
14522TIP3    H264982   2.158   3.042   3.618
14523TIP3   OH264983   2.888   2.583   2.882
14523TIP3    H164984   2.887   2.543   2.792
14523TIP3    H264985   2.817   2.527   2.915
14524TIP3   OH264986   2.333   2.188   2.474
14524TIP3    H164987   2.306   2.094   2.475
14524TIP3    H264988   2.415   2.183   2.424
14525TIP3   OH264989   2.697   2.405   3.078
14525TIP3    H164990   2.617   2.460   3.082
14525TIP3    H264991   2.755   2.444   3.146
14526TIP3   OH264992   2.758   3.029   2.245
14526TIP3    H164993   2.677   2.983   2.211
14526TIP3    H264994   2.735   3.042   2.339
14527TIP3   OH264995   3.476   2.950   3.125
14527TIP3    H164996   3.533   2.998   3.062
14527TIP3    H264997   3.390   2.954   3.078
14528TIP3   OH264998   3.140   2.311   2.062
14528TIP3    H164999   3.045   2.326   2.049
14528TIP3    H265000   3.174   2.396   2.097
14529TIP3   OH265001   2.911   3.057   3.371
14529TIP3    H165002   2.869   3.013   3.446
14529TIP3    H265003   2.880   3.148   3.378
14530TIP3   OH265004   3.214   2.503   2.224
14530TIP3    H165005   3.302   2.490   2.265
14530TIP3    H265006   3.225   2.585   2.173
14531TIP3   OH265007   2.269   2.969   2.825
14531TIP3    H165008   2.337   2.961   2.755
14531TIP3    H265009   2.275   2.883   2.870
14532TIP3   OH265010   2.967   3.176   2.148
14532TIP3    H165011   2.933   3.261   2.183
14532TIP3    H265012   2.894   3.115   2.170
14533TIP3   OH265013   1.968   2.809   3.351
14533TIP3    H165014   1.984   2.765   3.436
14533TIP3    H265015   1.905   2.748   3.307
14534TIP3   OH265016   2.669   2.766   3.568
14534TIP3    H165017   2.637   2.734   3.482
14534TIP3    H265018   2.761   2.733   3.568
14535TIP3   OH265019   3.137   3.296   3.366
14535TIP3    H165020   3.046   3.317   3.339
14535TIP3    H265021   3.133   3.330   3.457
14536TIP3   OH265022   3.705   2.516   2.202
14536TIP3    H165023   3.647   2.488   2.128
14536TIP3    H265024   3.712   2.611   2.177
14537TIP3   OH265025   3.702   3.101   3.484
14537TIP3    H165026   3.615   3.126   3.444
14537TIP3    H265027   3.758   3.098   3.403
14538TIP3   OH265028   3.530   3.400   2.242
14538TIP3    H165029   3.497   3.316   2.277
14538TIP3    H265030   3.565   3.378   2.154
14539TIP3   OH265031   3.254   2.882   2.953
14539TIP3    H165032   3.160   2.860   2.942
14539TIP3    H265033   3.297   2.805   2.909
14540TIP3   OH265034   2.505   3.314   2.564
14540TIP3    H165035   2.556   3.395   2.543
14540TIP3    H265036   2.418   3.337   2.530
14541TIP3   OH265037   2.083   2.798   2.020
14541TIP3    H165038   2.140   2.865   2.061
14541TIP3    H265039   1.994   2.830   2.045
14542TIP3   OH265040   2.647   3.081   2.514
14542TIP3    H165041   2.615   3.173   2.524
14542TIP3    H265042   2.576   3.031   2.559
14543TIP3   OH265043   2.692   3.500   3.156
14543TIP3    H165044   2.738   3.580   3.127
14543TIP3    H265045   2.754   3.465   3.223
14544TIP3   OH265046   2.515   3.582   2.465
14544TIP3    H165047   2.419   3.591   2.483
14544TIP3    H265048   2.551   3.662   2.504
14545TIP3   OH265049   3.046   3.102   3.119
14545TIP3    H165050   3.012   3.080   3.209
14545TIP3    H265051   3.108   3.029   3.101
14546TIP3   OH265052   3.279   3.207   2.027
14546TIP3    H165053   3.308   3.160   2.107
14546TIP3    H265054   3.183   3.188   2.035
14547TIP3   OH265055   3.327   3.558   3.367
14547TIP3    H165056   3.258   3.508   3.319
14547TIP3    H265057   3.345   3.628   3.300
14548TIP3   OH265058   3.725   3.642   2.052
14548TIP3    H165059   3.794   3.709   2.032
14548TIP3    H265060   3.653   3.703   2.081
14549TIP3   OH265061   2.133   2.283   3.305
14549TIP3    H165062   2.042   2.318   3.304
14549TIP3    H265063   2.121   2.198   3.352
14550TIP3   OH265064   3.356   3.070   2.251
14550TIP3    H165065   3.332   2.992   2.305
14550TIP3    H265066   3.451   3.075   2.269
14551TIP3   OH265067   2.094   3.461   3.148
14551TIP3    H165068   2.124   3.369   3.149
14551TIP3    H265069   2.120   3.490   3.236
14552TIP3   OH265070   2.691   3.314   1.876
14552TIP3    H165071   2.701   3.238   1.817
14552TIP3    H265072   2.647   3.271   1.953
14553TIP3   OH265073   2.569   3.267   2.121
14553TIP3    H165074   2.596   3.215   2.198
14553TIP3    H265075   2.578   3.359   2.154
14554TIP3   OH265076   2.223   2.991   2.170
14554TIP3    H165077   2.151   3.031   2.224
14554TIP3    H265078   2.273   3.069   2.141
14555TIP3   OH265079   3.005   2.260   3.202
14555TIP3    H165080   3.077   2.266   3.266
14555TIP3    H265081   2.968   2.172   3.222
14556TIP3   OH265082   3.083   2.214   2.308
14556TIP3    H165083   3.104   2.263   2.226
14556TIP3    H265084   3.136   2.261   2.374
14557TIP3   OH265085   2.849   3.433   2.191
14557TIP3    H165086   2.767   3.486   2.198
14557TIP3    H265087   2.903   3.488   2.132
14558TIP3   OH265088   2.806   2.388   2.390
14558TIP3    H165089   2.880   2.451   2.398
14558TIP3    H265090   2.776   2.387   2.484
14559TIP3   OH265091   2.859   2.496   3.312
14559TIP3    H165092   2.867   2.550   3.392
14559TIP3    H265093   2.924   2.425   3.320
14560TIP3   OH265094   2.890   2.098   2.481
14560TIP3    H165095   2.852   2.162   2.544
14560TIP3    H265096   2.957   2.154   2.436
14561TIP3   OH265097   2.590   3.537   2.194
14561TIP3    H165098   2.599   3.618   2.138
14561TIP3    H265099   2.562   3.571   2.281
14562TIP3   OH265100   2.454   2.211   2.151
14562TIP3    H165101   2.450   2.300   2.192
14562TIP3    H265102   2.544   2.184   2.178
14563TIP3   OH265103   3.477   2.283   3.396
14563TIP3    H165104   3.383   2.314   3.383
14563TIP3    H265105   3.506   2.280   3.304
14564TIP3   OH265106   3.338   2.660   2.796
14564TIP3    H165107   3.254   2.616   2.770
14564TIP3    H265108   3.385   2.592   2.848
14565TIP3   OH265109   2.277   3.253   2.056
14565TIP3    H165110   2.344   3.315   2.088
14565TIP3    H265111   2.329   3.206   1.988
14566TIP3   OH265112   2.112   2.520   1.970
14566TIP3    H165113   2.113   2.616   1.991
14566TIP3    H265114   2.022   2.503   1.940
14567TIP3   OH265115   3.444   3.587   2.964
14567TIP3    H165116   3.435   3.655   2.894
14567TIP3    H265117   3.540   3.592   2.981
14568TIP3   OH265118   2.191   1.999   2.846
14568TIP3    H165119   2.175   2.001   2.749
14568TIP3    H265120   2.151   1.912   2.869
14569TIP3   OH265121   2.089   3.391   2.460
14569TIP3    H165122   2.004   3.436   2.455
14569TIP3    H265123   2.136   3.437   2.389
14570TIP3   OH265124   2.009   3.656   3.587
14570TIP3    H165125   2.070   3.636   3.661
14570TIP3    H265126   1.969   3.569   3.569
14571TIP3   OH265127   2.478   3.547   3.748
14571TIP3    H165128   2.554   3.497   3.782
14571TIP3    H265129   2.475   3.520   3.655
14572TIP3   OH265130   2.891   3.499   1.889
14572TIP3    H165131   2.822   3.433   1.911
14572TIP3    H265132   2.963   3.439   1.864
14573TIP3   OH265133   3.129   3.385   3.622
14573TIP3    H165134   3.093   3.299   3.652
14573TIP3    H265135   3.204   3.401   3.683
14574TIP3   OH265136   3.347   3.473   1.907
14574TIP3    H165137   3.376   3.396   1.958
14574TIP3    H265138   3.423   3.496   1.852
14575TIP3   OH265139   2.000   3.033   3.687
14575TIP3    H165140   2.017   2.942   3.657
14575TIP3    H265141   1.926   3.059   3.630
14576TIP3   OH265142   2.435   3.068   1.889
14576TIP3    H165143   2.449   2.991   1.947
14576TIP3    H265144   2.510   3.056   1.827
14577TIP3   OH265145   2.672   3.032   3.626
14577TIP3    H165146   2.638   3.063   3.539
14577TIP3    H265147   2.679   2.934   3.615
14578TIP3   OH265148   2.978   3.178   1.867
14578TIP3    H165149   2.951   3.187   1.960
14578TIP3    H265150   2.959   3.083   1.852
14579TIP3   OH265151   3.242   3.019   3.374
14579TIP3    H165152   3.320   3.077   3.356
14579TIP3    H265153   3.171   3.084   3.365
14580TIP3   OH265154   2.093   2.756   3.625
14580TIP3    H165155   2.134   2.669   3.616
14580TIP3    H265156   2.069   2.756   3.719
14581TIP3   OH265157   2.557   2.869   2.132
14581TIP3    H165158   2.505   2.815   2.194
14581TIP3    H265159   2.586   2.802   2.066
14582TIP3   OH265160   2.482   2.650   3.361
14582TIP3    H165161   2.423   2.722   3.386
14582TIP3    H265162   2.522   2.687   3.280
14583TIP3   OH265163   2.663   2.692   1.952
14583TIP3    H165164   2.648   2.683   1.856
14583TIP3    H265165   2.761   2.697   1.958
14584TIP3   OH265166   2.990   2.909   3.697
14584TIP3    H165167   3.084   2.901   3.679
14584TIP3    H265168   2.970   2.830   3.750
14585TIP3   OH265169   3.596   2.923   1.893
14585TIP3    H165170   3.577   2.886   1.806
14585TIP3    H265171   3.605   3.020   1.874
14586TIP3   OH265172   2.523   2.388   3.466
14586TIP3    H165173   2.535   2.317   3.400
14586TIP3    H265174   2.518   2.469   3.411
14587TIP3   OH265175   2.563   2.226   3.220
14587TIP3    H165176   2.614   2.273   3.149
14587TIP3    H265177   2.474   2.218   3.180
14588TIP3   OH265178   2.717   2.775   3.246
14588TIP3    H165179   2.791   2.757   3.187
14588TIP3    H265180   2.680   2.859   3.213
14589TIP3   OH265181   3.158   2.552   3.741
14589TIP3    H165182   3.180   2.458   3.732
14589TIP3    H265183   3.245   2.593   3.746
14590TIP3   OH265184   3.294   2.841   3.568
14590TIP3    H165185   3.265   2.899   3.493
14590TIP3    H265186   3.386   2.823   3.538
14591TIP3   OH265187   2.369   2.513   3.658
14591TIP3    H165188   2.292   2.455   3.642
14591TIP3    H265189   2.434   2.476   3.596
14592TIP3   OH265190   2.642   1.970   3.261
14592TIP3    H165191   2.624   2.066   3.250
14592TIP3    H265192   2.567   1.931   3.211
14593TIP3   OH265193   2.769   2.403   3.623
14593TIP3    H165194   2.738   2.379   3.713
14593TIP3    H265195   2.691   2.382   3.569
14594TIP3   OH265196   3.041   2.317   3.533
14594TIP3    H165197   2.945   2.322   3.543
14594TIP3    H265198   3.068   2.253   3.601
14595TIP3   OH265199   3.199   2.179   3.722
14595TIP3    H165200   3.195   2.081   3.725
14595TIP3    H265201   3.175   2.208   3.812
14596TIP3   OH265202   2.177   2.307   3.634
14596TIP3    H165203   2.202   2.233   3.575
14596TIP3    H265204   2.168   2.262   3.720
14597TIP3   OH265205   2.664   1.909   3.531
14597TIP3    H165206   2.731   1.839   3.529
14597TIP3    H265207   2.652   1.923   3.435
14598TIP3   OH265208   2.700   2.070   3.742
14598TIP3    H165209   2.682   2.020   3.659
14598TIP3    H265210   2.640   2.147   3.732
14599TIP3   OH265211   2.646   3.769   2.064
14599TIP3    H165212   2.744   3.768   2.065
14599TIP3    H265213   2.633   3.819   1.983
14600TIP3   OH265214   2.002   3.219   2.007
14600TIP3    H165215   2.098   3.228   2.025
14600TIP3    H265216   2.007   3.155   1.932
14601TIP3   OH265217   1.880   3.758   2.503
14601TIP3    H165218   1.808   3.709   2.457
14601TIP3    H265219   1.908   3.692   2.570
14602TIP3   OH265220   1.962   3.571   2.691
14602TIP3    H165221   1.927   3.483   2.711
14602TIP3    H265222   1.985   3.604   2.779
14603TIP3   OH265223   3.716   3.651   2.984
14603TIP3    H165224   3.719   3.667   3.079
14603TIP3    H265225   3.786   3.709   2.953
14604TIP3   OH265226   3.673   3.610   3.278
14604TIP3    H165227   3.626   3.533   3.240
14604TIP3    H265228   3.722   3.566   3.349
14605TIP3   OH265229   3.516   3.185   3.747
14605TIP3    H165230   3.433   3.199   3.793
14605TIP3    H265231   3.563   3.263   3.782
14606TIP3   OH265232   3.649   3.016   2.288
14606TIP3    H165233   3.736   3.054   2.307
14606TIP3    H265234   3.648   2.944   2.355
14607TIP3   OH265235   3.685   2.823   2.477
14607TIP3    H165236   3.610   2.773   2.516
14607TIP3    H265237   3.745   2.836   2.554
14608TIP3   OH265238   3.661   3.093   2.976
14608TIP3    H165239   3.742   3.055   2.938
14608TIP3    H265240   3.676   3.188   2.958
14609TIP3   OH265241   3.517   3.383   3.202
14609TIP3    H165242   3.448   3.417   3.261
14609TIP3    H265243   3.462   3.343   3.132
14610TIP3   OH265244   3.716   2.805   2.116
14610TIP3    H165245   3.659   2.839   2.044
14610TIP3    H265246   3.705   2.877   2.182
14611TIP3   OH265247   3.553   2.528   1.967
14611TIP3    H165248   3.560   2.595   1.898
14611TIP3    H265249   3.534   2.446   1.918
14612TIP3   OH265250   3.468   2.670   2.534
14612TIP3    H165251   3.452   2.575   2.530
14612TIP3    H265252   3.434   2.692   2.623
14613TIP3   OH265253   1.968   2.879   2.940
14613TIP3    H165254   1.986   2.871   2.844
14613TIP3    H265255   2.057   2.861   2.975
14614TIP3   OH265256   3.552   2.868   3.509
14614TIP3    H165257   3.613   2.791   3.514
14614TIP3    H265258   3.615   2.943   3.500
14615TIP3   OH265259   3.702   2.656   3.569
14615TIP3    H165260   3.615   2.614   3.552
14615TIP3    H265261   3.761   2.579   3.561
14616TIP3   OH265262   3.478   2.276   1.881
14616TIP3    H165263   3.537   2.232   1.945
14616TIP3    H265264   3.391   2.234   1.896
14617TIP3   OH265265   3.432   2.428   2.375
14617TIP3    H165266   3.464   2.336   2.392
14617TIP3    H265267   3.514   2.469   2.345
14618TIP3   OH265268   3.498   2.483   2.924
14618TIP3    H165269   3.594   2.506   2.923
14618TIP3    H265270   3.479   2.497   3.018
14619TIP3   OH265271   3.505   2.555   3.203
14619TIP3    H165272   3.416   2.584   3.234
14619TIP3    H265273   3.548   2.641   3.180
14620TIP3   OH265274   1.930   2.409   3.556
14620TIP3    H165275   2.024   2.388   3.575
14620TIP3    H265276   1.884   2.327   3.583
14621TIP3   OH265277   3.732   1.962   3.736
14621TIP3    H165278   3.767   1.895   3.674
14621TIP3    H265279   3.742   2.043   3.683
14622TIP3   OH265280   3.502   2.157   2.384
14622TIP3    H165281   3.523   2.114   2.470
14622TIP3    H265282   3.441   2.094   2.341
14623TIP3   OH265283   2.049   2.238   2.841
14623TIP3    H165284   2.096   2.155   2.866
14623TIP3    H265285   2.105   2.307   2.879
14624TIP3   OH265286   1.878   2.538   2.944
14624TIP3    H165287   1.934   2.513   2.868
14624TIP3    H265288   1.925   2.619   2.971
14625TIP3   OH265289   3.684   2.171   3.572
14625TIP3    H165290   3.590   2.199   3.567
14625TIP3    H265291   3.687   2.116   3.492
14626TIP3   OH265292   3.683   2.161   2.040
14626TIP3    H165293   3.724   2.090   1.986
14626TIP3    H265294   3.753   2.227   2.045
14627TIP3   OH265295   1.915   2.166   2.352
14627TIP3    H165296   1.821   2.182   2.336
14627TIP3    H265297   1.957   2.213   2.279
14628TIP3   OH265298   3.387   3.661   2.546
14628TIP3    H165299   3.456   3.629   2.485
14628TIP3    H265300   3.439   3.709   2.612
14629TIP3   OH265301   1.909   2.029   3.181
14629TIP3    H165302   1.843   2.010   3.249
14629TIP3    H265303   1.864   2.097   3.127
14630TIP3   OH265304   2.133   3.349   3.597
14630TIP3    H165305   2.050   3.371   3.553
14630TIP3    H265306   2.106   3.342   3.689
14631TIP3   OH265307   2.423   3.450   3.225
14631TIP3    H165308   2.390   3.537   3.198
14631TIP3    H265309   2.516   3.458   3.194
14632TIP3   OH265310   2.855   3.592   3.515
14632TIP3    H165311   2.869   3.557   3.606
14632TIP3    H265312   2.946   3.623   3.491
14633TIP3   OH265313   3.084   3.719   3.446
14633TIP3    H165314   3.157   3.661   3.423
14633TIP3    H265315   3.122   3.763   3.526
14634TIP3   OH265316   3.586   1.980   3.357
14634TIP3    H165317   3.503   2.010   3.316
14634TIP3    H265318   3.603   1.898   3.305
14635TIP3   OH265319   2.166   3.773   3.224
14635TIP3    H165320   2.093   3.824   3.185
14635TIP3    H265321   2.135   3.755   3.314
14636TIP3   OH265322   2.413   3.731   3.132
14636TIP3    H165323   2.323   3.746   3.171
14636TIP3    H265324   2.407   3.790   3.055
14637TIP3   OH265325   2.883   3.723   3.048
14637TIP3    H165326   2.837   3.778   2.984
14637TIP3    H265327   2.896   3.786   3.122
14638TIP3   OH265328   3.112   3.603   3.152
14638TIP3    H165329   3.027   3.631   3.115
14638TIP3    H265330   3.161   3.686   3.143
14639TIP3   OH265331   3.370   3.760   3.174
14639TIP3    H165332   3.365   3.856   3.151
14639TIP3    H265333   3.392   3.723   3.086
14640TIP3   OH265334   2.112   3.638   2.919
14640TIP3    H165335   2.103   3.592   3.005
14640TIP3    H265336   2.193   3.600   2.880
14641TIP3   OH265337   2.319   3.510   2.784
14641TIP3    H165338   2.303   3.416   2.807
14641TIP3    H265339   2.405   3.525   2.829
14642TIP3   OH265340   2.580   3.558   2.872
14642TIP3    H165341   2.595   3.466   2.846
14642TIP3    H265342   2.584   3.553   2.968
14643TIP3   OH265343   2.932   2.119   2.792
14643TIP3    H165344   2.856   2.062   2.811
14643TIP3    H265345   2.979   2.069   2.724
14644TIP3   OH265346   3.439   1.928   2.792
14644TIP3    H165347   3.500   1.987   2.741
14644TIP3    H265348   3.350   1.964   2.769
14645TIP3   OH265349   3.606   2.053   2.619
14645TIP3    H165350   3.674   1.995   2.578
14645TIP3    H265351   3.656   2.136   2.630
14646TIP3   OH265352   2.160   1.986   2.571
14646TIP3    H165353   2.082   1.965   2.517
14646TIP3    H265354   2.209   1.901   2.565
14647TIP3   OH265355   2.039   1.961   2.142
14647TIP3    H165356   2.088   2.026   2.089
14647TIP3    H265357   1.982   2.018   2.196
14648TIP3   OH265358   2.611   1.969   2.547
14648TIP3    H165359   2.695   2.019   2.543
14648TIP3    H265360   2.605   1.961   2.642
14649TIP3   OH265361   3.182   1.980   2.711
14649TIP3    H165362   3.175   1.991   2.615
14649TIP3    H265363   3.140   1.891   2.724
14650TIP3   OH265364   3.307   1.983   2.280
14650TIP3    H165365   3.232   2.043   2.264
14650TIP3    H265366   3.263   1.898   2.303
14651TIP3   OH265367   2.030   3.556   2.246
14651TIP3    H165368   1.964   3.554   2.174
14651TIP3    H265369   2.030   3.651   2.263
14652TIP3   OH265370   2.222   2.155   1.994
14652TIP3    H165371   2.275   2.094   1.941
14652TIP3    H265372   2.288   2.188   2.057
14653TIP3   OH265373   2.725   2.179   2.233
14653TIP3    H165374   2.749   2.122   2.309
14653TIP3    H265375   2.731   2.266   2.280
14654TIP3   OH265376   2.918   3.687   2.079
14654TIP3    H165377   3.010   3.710   2.057
14654TIP3    H265378   2.896   3.635   1.999
14655TIP3   OH265379   3.587   3.637   2.351
14655TIP3    H165380   3.568   3.559   2.294
14655TIP3    H265381   3.580   3.711   2.286
14656TIP3   OH265382   2.151   2.040   3.515
14656TIP3    H165383   2.112   1.960   3.556
14656TIP3    H265384   2.241   2.036   3.554
14657TIP3   OH265385   2.351   1.978   3.680
14657TIP3    H165386   2.440   1.944   3.658
14657TIP3    H265387   2.313   1.897   3.720
14658TIP3   OH265388   2.209   3.654   1.939
14658TIP3    H165389   2.183   3.679   2.029
14658TIP3    H265390   2.288   3.598   1.955
14659TIP3   OH265391   3.191   1.907   3.695
14659TIP3    H165392   3.200   1.860   3.780
14659TIP3    H265393   3.283   1.904   3.660
14660TIP3   OH265394   3.510   3.509   3.560
14660TIP3    H165395   3.431   3.500   3.501
14660TIP3    H265396   3.501   3.605   3.580
14661TIP3   OH265397   4.958   2.900   2.552
14661TIP3    H165398   4.955   2.998   2.555
14661TIP3    H265399   4.882   2.877   2.498
14662TIP3   OH265400   4.842   2.825   2.904
14662TIP3    H165401   4.841   2.761   2.977
14662TIP3    H265402   4.806   2.773   2.830
14663TIP3   OH265403   4.077   2.793   3.061
14663TIP3    H165404   4.086   2.724   3.131
14663TIP3    H265405   4.152   2.850   3.084
14664TIP3   OH265406   5.210   3.120   2.734
14664TIP3    H165407   5.169   3.048   2.784
14664TIP3    H265408   5.213   3.191   2.802
14665TIP3   OH265409   4.170   3.238   2.911
14665TIP3    H165410   4.139   3.151   2.880
14665TIP3    H265411   4.265   3.219   2.916
14666TIP3   OH265412   3.834   2.593   2.461
14666TIP3    H165413   3.790   2.680   2.454
14666TIP3    H265414   3.777   2.539   2.403
14667TIP3   OH265415   3.905   2.816   2.675
14667TIP3    H165416   3.932   2.734   2.720
14667TIP3    H265417   3.974   2.826   2.608
14668TIP3   OH265418   4.922   3.636   2.758
14668TIP3    H165419   4.987   3.567   2.730
14668TIP3    H265420   4.901   3.602   2.845
14669TIP3   OH265421   4.679   3.065   2.953
14669TIP3    H165422   4.713   3.002   2.887
14669TIP3    H265423   4.761   3.081   3.005
14670TIP3   OH265424   5.539   2.231   3.026
14670TIP3    H165425   5.557   2.290   3.102
14670TIP3    H265426   5.596   2.273   2.960
14671TIP3   OH265427   4.996   2.512   2.985
14671TIP3    H165428   5.013   2.416   2.985
14671TIP3    H265429   4.986   2.526   2.889
14672TIP3   OH265430   4.307   2.321   2.706
14672TIP3    H165431   4.318   2.404   2.657
14672TIP3    H265432   4.268   2.264   2.637
14673TIP3   OH265433   5.081   2.328   2.543
14673TIP3    H165434   5.146   2.297   2.610
14673TIP3    H265435   5.138   2.387   2.490
14674TIP3   OH265436   3.970   2.562   2.780
14674TIP3    H165437   4.037   2.508   2.825
14674TIP3    H265438   3.981   2.530   2.688
14675TIP3   OH265439   4.485   2.717   2.713
14675TIP3    H165440   4.553   2.659   2.751
14675TIP3    H265441   4.435   2.652   2.661
14676TIP3   OH265442   5.583   2.372   3.253
14676TIP3    H165443   5.523   2.448   3.242
14676TIP3    H265444   5.586   2.364   3.349
14677TIP3   OH265445   4.199   2.211   3.110
14677TIP3    H165446   4.170   2.268   3.036
14677TIP3    H265447   4.131   2.234   3.178
14678TIP3   OH265448   4.926   3.158   2.464
14678TIP3    H165449   4.901   3.133   2.375
14678TIP3    H265450   4.898   3.252   2.471
14679TIP3   OH265451   4.450   2.975   3.134
14679TIP3    H165452   4.379   3.040   3.156
14679TIP3    H265453   4.520   3.035   3.105
14680TIP3   OH265454   5.263   2.264   2.742
14680TIP3    H165455   5.240   2.187   2.796
14680TIP3    H265456   5.330   2.307   2.798
14681TIP3   OH265457   4.155   2.396   2.914
14681TIP3    H165458   4.218   2.465   2.945
14681TIP3    H265459   4.207   2.355   2.840
14682TIP3   OH265460   4.295   3.176   3.216
14682TIP3    H165461   4.290   3.267   3.182
14682TIP3    H265462   4.206   3.168   3.260
14683TIP3   OH265463   3.903   3.136   2.295
14683TIP3    H165464   3.877   3.170   2.208
14683TIP3    H265465   3.911   3.219   2.347
14684TIP3   OH265466   5.263   3.304   2.971
14684TIP3    H165467   5.167   3.315   2.983
14684TIP3    H265468   5.290   3.395   2.951
14685TIP3   OH265469   5.296   2.132   3.110
14685TIP3    H165470   5.223   2.195   3.101
14685TIP3    H265471   5.367   2.174   3.058
14686TIP3   OH265472   4.592   1.944   2.857
14686TIP3    H165473   4.578   1.848   2.849
14686TIP3    H265474   4.504   1.975   2.887
14687TIP3   OH265475   5.089   3.482   2.630
14687TIP3    H165476   5.132   3.410   2.579
14687TIP3    H265477   5.133   3.561   2.591
14688TIP3   OH265478   5.211   3.275   2.482
14688TIP3    H165479   5.181   3.205   2.422
14688TIP3    H265480   5.215   3.226   2.566
14689TIP3   OH265481   5.372   3.135   3.331
14689TIP3    H165482   5.387   3.069   3.260
14689TIP3    H265483   5.393   3.218   3.287
14690TIP3   OH265484   4.818   2.818   2.302
14690TIP3    H165485   4.752   2.886   2.280
14690TIP3    H265486   4.900   2.834   2.250
14691TIP3   OH265487   4.834   2.675   2.008
14691TIP3    H165488   4.904   2.665   2.075
14691TIP3    H265489   4.862   2.602   1.950
14692TIP3   OH265490   5.561   2.766   3.136
14692TIP3    H165491   5.495   2.838   3.139
14692TIP3    H265492   5.611   2.789   3.055
14693TIP3   OH265493   5.165   2.841   2.398
14693TIP3    H165494   5.094   2.869   2.461
14693TIP3    H265495   5.215   2.778   2.452
14694TIP3   OH265496   5.160   2.661   3.312
14694TIP3    H165497   5.160   2.743   3.364
14694TIP3    H265498   5.097   2.690   3.243
14695TIP3   OH265499   4.328   2.910   2.591
14695TIP3    H165500   4.296   2.871   2.507
14695TIP3    H265501   4.389   2.841   2.625
14696TIP3   OH265502   4.460   3.248   2.859
14696TIP3    H165503   4.459   3.196   2.778
14696TIP3    H265504   4.538   3.213   2.905
14697TIP3   OH265505   4.361   2.785   2.958
14697TIP3    H165506   4.416   2.795   2.877
14697TIP3    H265507   4.400   2.851   3.019
14698TIP3   OH265508   5.003   3.342   3.029
14698TIP3    H165509   4.974   3.406   3.094
14698TIP3    H265510   4.977   3.257   3.071
14699TIP3   OH265511   4.456   3.228   3.427
14699TIP3    H165512   4.415   3.302   3.476
14699TIP3    H265513   4.389   3.208   3.357
14700TIP3   OH265514   5.049   2.773   2.165
14700TIP3    H165515   5.109   2.780   2.245
14700TIP3    H265516   5.105   2.813   2.094
14701TIP3   OH265517   4.150   2.844   3.342
14701TIP3    H165518   4.156   2.911   3.413
14701TIP3    H265519   4.056   2.853   3.321
14702TIP3   OH265520   4.826   3.437   2.514
14702TIP3    H165521   4.869   3.467   2.594
14702TIP3    H265522   4.770   3.512   2.490
14703TIP3   OH265523   4.281   3.431   3.502
14703TIP3    H165524   4.275   3.422   3.405
14703TIP3    H265525   4.188   3.418   3.529
14704TIP3   OH265526   5.427   1.937   2.157
14704TIP3    H165527   5.332   1.949   2.181
14704TIP3    H265528   5.447   2.022   2.112
14705TIP3   OH265529   4.224   2.812   2.354
14705TIP3    H165530   4.197   2.890   2.302
14705TIP3    H265531   4.159   2.746   2.330
14706TIP3   OH265532   5.538   3.373   1.992
14706TIP3    H165533   5.555   3.467   2.008
14706TIP3    H265534   5.631   3.342   1.991
14707TIP3   OH265535   3.833   3.055   3.243
14707TIP3    H165536   3.790   3.047   3.156
14707TIP3    H265537   3.842   2.961   3.264
14708TIP3   OH265538   3.810   3.329   2.920
14708TIP3    H165539   3.906   3.317   2.918
14708TIP3    H265540   3.802   3.411   2.971
14709TIP3   OH265541   5.634   3.399   3.490
14709TIP3    H165542   5.622   3.303   3.487
14709TIP3    H265543   5.547   3.424   3.528
14710TIP3   OH265544   4.730   3.353   3.376
14710TIP3    H165545   4.735   3.438   3.426
14710TIP3    H265546   4.642   3.317   3.401
14711TIP3   OH265547   4.774   3.728   2.354
14711TIP3    H165548   4.763   3.720   2.258
14711TIP3    H265549   4.774   3.824   2.370
14712TIP3   OH265550   4.137   3.616   2.537
14712TIP3    H165551   4.152   3.574   2.625
14712TIP3    H265552   4.053   3.575   2.513
14713TIP3   OH265553   5.079   3.649   2.053
14713TIP3    H165554   5.125   3.573   2.009
14713TIP3    H265555   5.083   3.623   2.147
14714TIP3   OH265556   5.049   3.642   2.330
14714TIP3    H165557   4.953   3.650   2.348
14714TIP3    H265558   5.072   3.568   2.388
14715TIP3   OH265559   5.349   2.546   3.536
14715TIP3    H165560   5.301   2.591   3.465
14715TIP3    H265561   5.347   2.454   3.506
14716TIP3   OH265562   4.063   3.187   3.337
14716TIP3    H165563   4.085   3.151   3.425
14716TIP3    H265564   3.976   3.147   3.316
14717TIP3   OH265565   4.331   2.035   2.932
14717TIP3    H165566   4.240   2.022   2.895
14717TIP3    H265567   4.317   2.118   2.980
14718TIP3   OH265568   4.795   2.001   3.268
14718TIP3    H165569   4.834   1.959   3.347
14718TIP3    H265570   4.698   1.990   3.282
14719TIP3   OH265571   5.124   2.386   3.358
14719TIP3    H165572   5.067   2.364   3.436
14719TIP3    H265573   5.105   2.479   3.335
14720TIP3   OH265574   5.196   2.870   1.948
14720TIP3    H165575   5.198   2.848   1.851
14720TIP3    H265576   5.284   2.911   1.954
14721TIP3   OH265577   4.759   2.260   1.999
14721TIP3    H165578   4.728   2.254   2.091
14721TIP3    H265579   4.728   2.172   1.968
14722TIP3   OH265580   4.341   2.532   3.058
14722TIP3    H165581   4.267   2.531   3.121
14722TIP3    H265582   4.336   2.623   3.020
14723TIP3   OH265583   4.337   2.543   2.544
14723TIP3    H165584   4.243   2.518   2.530
14723TIP3    H265585   4.375   2.515   2.458
14724TIP3   OH265586   4.888   2.594   2.421
14724TIP3    H165587   4.849   2.676   2.385
14724TIP3    H265588   4.959   2.576   2.356
14725TIP3   OH265589   4.794   2.615   3.564
14725TIP3    H165590   4.742   2.537   3.595
14725TIP3    H265591   4.878   2.603   3.612
14726TIP3   OH265592   4.992   2.543   2.705
14726TIP3    H165593   4.964   2.599   2.631
14726TIP3    H265594   5.002   2.458   2.658
14727TIP3   OH265595   4.103   2.557   3.225
14727TIP3    H165596   4.111   2.598   3.313
14727TIP3    H265597   4.059   2.473   3.246
14728TIP3   OH265598   4.440   2.297   1.910
14728TIP3    H165599   4.395   2.255   1.987
14728TIP3    H265600   4.369   2.340   1.861
14729TIP3   OH265601   3.769   2.268   2.624
14729TIP3    H165602   3.837   2.264   2.694
14729TIP3    H265603   3.813   2.230   2.546
14730TIP3   OH265604   3.895   2.340   2.159
14730TIP3    H165605   3.946   2.401   2.103
14730TIP3    H265606   3.826   2.402   2.191
14731TIP3   OH265607   4.912   2.701   3.160
14731TIP3    H165608   4.950   2.633   3.102
14731TIP3    H265609   4.865   2.648   3.228
14732TIP3   OH265610   4.592   2.299   2.644
14732TIP3    H165611   4.499   2.299   2.673
14732TIP3    H265612   4.640   2.282   2.726
14733TIP3   OH265613   4.073   2.454   2.531
14733TIP3    H165614   3.985   2.470   2.492
14733TIP3    H265615   4.101   2.371   2.490
14734TIP3   OH265616   4.437   2.459   2.294
14734TIP3    H165617   4.533   2.469   2.310
14734TIP3    H265618   4.413   2.527   2.228
14735TIP3   OH265619   5.033   2.223   2.968
14735TIP3    H165620   4.964   2.227   3.039
14735TIP3    H265621   4.982   2.197   2.890
14736TIP3   OH265622   4.309   2.578   2.052
14736TIP3    H165623   4.255   2.539   1.982
14736TIP3    H265624   4.391   2.596   2.004
14737TIP3   OH265625   5.351   3.800   3.601
14737TIP3    H165626   5.389   3.812   3.511
14737TIP3    H265627   5.432   3.810   3.656
14738TIP3   OH265628   4.120   3.034   3.558
14738TIP3    H165629   4.193   3.058   3.618
14738TIP3    H265630   4.043   3.042   3.619
14739TIP3   OH265631   4.720   2.575   2.833
14739TIP3    H165632   4.780   2.521   2.780
14739TIP3    H265633   4.706   2.520   2.912
14740TIP3   OH265634   4.221   2.189   2.477
14740TIP3    H165635   4.190   2.097   2.476
14740TIP3    H265636   4.301   2.182   2.422
14741TIP3   OH265637   4.584   2.407   3.075
14741TIP3    H165638   4.502   2.459   3.084
14741TIP3    H265639   4.640   2.443   3.147
14742TIP3   OH265640   4.646   3.020   2.242
14742TIP3    H165641   4.559   2.984   2.214
14742TIP3    H265642   4.622   3.044   2.335
14743TIP3   OH265643   5.362   2.950   3.125
14743TIP3    H165644   5.418   2.998   3.062
14743TIP3    H265645   5.276   2.954   3.079
14744TIP3   OH265646   5.027   2.310   2.062
14744TIP3    H165647   4.932   2.324   2.049
14744TIP3    H265648   5.060   2.395   2.097
14745TIP3   OH265649   4.792   3.057   3.369
14745TIP3    H165650   4.758   3.014   3.448
14745TIP3    H265651   4.767   3.149   3.380
14746TIP3   OH265652   5.097   2.506   2.225
14746TIP3    H165653   5.186   2.489   2.265
14746TIP3    H265654   5.113   2.585   2.172
14747TIP3   OH265655   4.154   2.969   2.825
14747TIP3    H165656   4.222   2.961   2.755
14747TIP3    H265657   4.160   2.883   2.870
14748TIP3   OH265658   4.852   3.173   2.148
14748TIP3    H165659   4.823   3.261   2.181
14748TIP3    H265660   4.776   3.119   2.175
14749TIP3   OH265661   3.853   2.809   3.351
14749TIP3    H165662   3.870   2.765   3.436
14749TIP3    H265663   3.791   2.748   3.307
14750TIP3   OH265664   4.554   2.765   3.568
14750TIP3    H165665   4.522   2.734   3.482
14750TIP3    H265666   4.647   2.733   3.568
14751TIP3   OH265667   5.024   3.300   3.364
14751TIP3    H165668   4.931   3.317   3.341
14751TIP3    H265669   5.019   3.329   3.458
14752TIP3   OH265670   5.590   2.516   2.202
14752TIP3    H165671   5.533   2.488   2.128
14752TIP3    H265672   5.598   2.611   2.177
14753TIP3   OH265673   5.588   3.104   3.483
14753TIP3    H165674   5.499   3.125   3.447
14753TIP3    H265675   5.643   3.098   3.402
14754TIP3   OH265676   5.415   3.400   2.242
14754TIP3    H165677   5.382   3.316   2.277
14754TIP3    H265678   5.451   3.378   2.154
14755TIP3   OH265679   5.139   2.882   2.953
14755TIP3    H165680   5.045   2.861   2.942
14755TIP3    H265681   5.183   2.806   2.909
14756TIP3   OH265682   4.392   3.315   2.563
14756TIP3    H165683   4.441   3.396   2.542
14756TIP3    H265684   4.304   3.338   2.530
14757TIP3   OH265685   3.969   2.798   2.020
14757TIP3    H165686   4.026   2.865   2.061
14757TIP3    H265687   3.880   2.829   2.045
14758TIP3   OH265688   4.533   3.081   2.511
14758TIP3    H165689   4.502   3.173   2.524
14758TIP3    H265690   4.463   3.032   2.558
14759TIP3   OH265691   4.578   3.500   3.156
14759TIP3    H165692   4.624   3.580   3.127
14759TIP3    H265693   4.640   3.465   3.223
14760TIP3   OH265694   4.400   3.580   2.468
14760TIP3    H165695   4.304   3.594   2.481
14760TIP3    H265696   4.437   3.664   2.502
14761TIP3   OH265697   4.930   3.099   3.117
14761TIP3    H165698   4.898   3.080   3.208
14761TIP3    H265699   4.994   3.028   3.101
14762TIP3   OH265700   5.164   3.206   2.026
14762TIP3    H165701   5.195   3.161   2.107
14762TIP3    H265702   5.069   3.190   2.036
14763TIP3   OH265703   5.211   3.561   3.368
14763TIP3    H165704   5.144   3.508   3.320
14763TIP3    H265705   5.231   3.626   3.298
14764TIP3   OH265706   5.610   3.642   2.052
14764TIP3    H165707   5.679   3.709   2.032
14764TIP3    H265708   5.539   3.703   2.081
14765TIP3   OH265709   4.018   2.283   3.305
14765TIP3    H165710   3.927   2.318   3.303
14765TIP3    H265711   4.007   2.198   3.352
14766TIP3   OH265712   5.241   3.069   2.250
14766TIP3    H165713   5.219   2.991   2.305
14766TIP3    H265714   5.336   3.075   2.268
14767TIP3   OH265715   3.979   3.461   3.148
14767TIP3    H165716   4.010   3.369   3.149
14767TIP3    H265717   4.006   3.490   3.236
14768TIP3   OH265718   4.580   3.313   1.878
14768TIP3    H165719   4.586   3.238   1.816
14768TIP3    H265720   4.531   3.272   1.952
14769TIP3   OH265721   4.457   3.265   2.121
14769TIP3    H165722   4.479   3.216   2.201
14769TIP3    H265723   4.463   3.359   2.153
14770TIP3   OH265724   4.109   2.991   2.170
14770TIP3    H165725   4.037   3.031   2.224
14770TIP3    H265726   4.159   3.069   2.141
14771TIP3   OH265727   4.891   2.260   3.202
14771TIP3    H165728   4.963   2.266   3.266
14771TIP3    H265729   4.853   2.173   3.222
14772TIP3   OH265730   4.966   2.217   2.311
14772TIP3    H165731   4.989   2.263   2.228
14772TIP3    H265732   5.023   2.263   2.374
14773TIP3   OH265733   4.734   3.430   2.189
14773TIP3    H165734   4.654   3.484   2.198
14773TIP3    H265735   4.789   3.487   2.133
14774TIP3   OH265736   4.688   2.393   2.392
14774TIP3    H165737   4.768   2.450   2.398
14774TIP3    H265738   4.662   2.379   2.485
14775TIP3   OH265739   4.744   2.495   3.312
14775TIP3    H165740   4.752   2.551   3.392
14775TIP3    H265741   4.810   2.425   3.321
14776TIP3   OH265742   4.773   2.098   2.480
14776TIP3    H165743   4.741   2.162   2.546
14776TIP3    H265744   4.843   2.152   2.436
14777TIP3   OH265745   4.475   3.536   2.194
14777TIP3    H165746   4.484   3.618   2.139
14777TIP3    H265747   4.447   3.573   2.281
14778TIP3   OH265748   4.339   2.209   2.152
14778TIP3    H165749   4.334   2.298   2.190
14778TIP3    H265750   4.430   2.184   2.178
14779TIP3   OH265751   5.362   2.281   3.397
14779TIP3    H165752   5.269   2.313   3.384
14779TIP3    H265753   5.392   2.280   3.304
14780TIP3   OH265754   5.224   2.660   2.797
14780TIP3    H165755   5.141   2.616   2.770
14780TIP3    H265756   5.272   2.592   2.848
14781TIP3   OH265757   4.163   3.253   2.056
14781TIP3    H165758   4.229   3.316   2.087
14781TIP3    H265759   4.215   3.206   1.987
14782TIP3   OH265760   3.997   2.520   1.970
14782TIP3    H165761   3.999   2.616   1.991
14782TIP3    H265762   3.908   2.503   1.940
14783TIP3   OH265763   5.330   3.587   2.965
14783TIP3    H165764   5.321   3.654   2.895
14783TIP3    H265765   5.426   3.592   2.982
14784TIP3   OH265766   4.079   1.999   2.845
14784TIP3    H165767   4.059   2.000   2.749
14784TIP3    H265768   4.037   1.913   2.870
14785TIP3   OH265769   3.975   3.390   2.459
14785TIP3    H165770   3.889   3.435   2.455
14785TIP3    H265771   4.022   3.437   2.389
14786TIP3   OH265772   3.894   3.656   3.587
14786TIP3    H165773   3.955   3.636   3.661
14786TIP3    H265774   3.855   3.569   3.569
14787TIP3   OH265775   4.363   3.548   3.748
14787TIP3    H165776   4.439   3.498   3.782
14787TIP3    H265777   4.360   3.520   3.655
14788TIP3   OH265778   4.777   3.501   1.888
14788TIP3    H165779   4.707   3.435   1.911
14788TIP3    H265780   4.848   3.441   1.863
14789TIP3   OH265781   5.013   3.386   3.623
14789TIP3    H165782   4.982   3.297   3.651
14789TIP3    H265783   5.090   3.398   3.683
14790TIP3   OH265784   5.232   3.473   1.907
14790TIP3    H165785   5.262   3.396   1.957
14790TIP3    H265786   5.308   3.496   1.852
14791TIP3   OH265787   3.883   3.032   3.689
14791TIP3    H165788   3.904   2.942   3.657
14791TIP3    H265789   3.814   3.059   3.627
14792TIP3   OH265790   4.322   3.068   1.890
14792TIP3    H165791   4.332   2.991   1.946
14792TIP3    H265792   4.395   3.055   1.826
14793TIP3   OH265793   4.558   3.032   3.626
14793TIP3    H165794   4.524   3.063   3.539
14793TIP3    H265795   4.565   2.934   3.615
14794TIP3   OH265796   4.865   3.179   1.867
14794TIP3    H165797   4.835   3.191   1.959
14794TIP3    H265798   4.845   3.084   1.850
14795TIP3   OH265799   5.127   3.018   3.365
14795TIP3    H165800   5.206   3.076   3.359
14795TIP3    H265801   5.057   3.085   3.368
14796TIP3   OH265802   3.978   2.756   3.625
14796TIP3    H165803   4.020   2.669   3.616
14796TIP3    H265804   3.954   2.756   3.719
14797TIP3   OH265805   4.448   2.868   2.133
14797TIP3    H165806   4.390   2.818   2.194
14797TIP3    H265807   4.466   2.800   2.065
14798TIP3   OH265808   4.368   2.650   3.360
14798TIP3    H165809   4.308   2.722   3.386
14798TIP3    H265810   4.408   2.687   3.280
14799TIP3   OH265811   4.551   2.697   1.952
14799TIP3    H165812   4.529   2.682   1.857
14799TIP3    H265813   4.647   2.687   1.954
14800TIP3   OH265814   4.875   2.907   3.694
14800TIP3    H165815   4.971   2.906   3.682
14800TIP3    H265816   4.858   2.830   3.751
14801TIP3   OH265817   5.481   2.923   1.893
14801TIP3    H165818   5.463   2.886   1.806
14801TIP3    H265819   5.491   3.020   1.874
14802TIP3   OH265820   4.409   2.388   3.466
14802TIP3    H165821   4.420   2.317   3.400
14802TIP3    H265822   4.404   2.469   3.411
14803TIP3   OH265823   4.449   2.226   3.222
14803TIP3    H165824   4.500   2.273   3.151
14803TIP3    H265825   4.360   2.218   3.181
14804TIP3   OH265826   4.603   2.775   3.246
14804TIP3    H165827   4.678   2.759   3.189
14804TIP3    H265828   4.566   2.858   3.212
14805TIP3   OH265829   5.042   2.550   3.742
14805TIP3    H165830   5.066   2.457   3.733
14805TIP3    H265831   5.129   2.594   3.745
14806TIP3   OH265832   5.176   2.829   3.559
14806TIP3    H165833   5.151   2.902   3.497
14806TIP3    H265834   5.272   2.826   3.540
14807TIP3   OH265835   4.255   2.513   3.658
14807TIP3    H165836   4.178   2.455   3.642
14807TIP3    H265837   4.320   2.476   3.596
14808TIP3   OH265838   4.528   1.970   3.260
14808TIP3    H165839   4.509   2.066   3.251
14808TIP3    H265840   4.453   1.933   3.210
14809TIP3   OH265841   4.655   2.403   3.623
14809TIP3    H165842   4.623   2.379   3.713
14809TIP3    H265843   4.576   2.382   3.569
14810TIP3   OH265844   4.927   2.317   3.532
14810TIP3    H165845   4.830   2.322   3.543
14810TIP3    H265846   4.953   2.253   3.600
14811TIP3   OH265847   5.085   2.179   3.722
14811TIP3    H165848   5.080   2.081   3.725
14811TIP3    H265849   5.060   2.208   3.812
14812TIP3   OH265850   4.062   2.307   3.634
14812TIP3    H165851   4.087   2.233   3.575
14812TIP3    H265852   4.054   2.262   3.720
14813TIP3   OH265853   4.549   1.909   3.531
14813TIP3    H165854   4.617   1.839   3.529
14813TIP3    H265855   4.538   1.923   3.434
14814TIP3   OH265856   4.585   2.070   3.742
14814TIP3    H165857   4.568   2.020   3.659
14814TIP3    H265858   4.525   2.147   3.732
14815TIP3   OH265859   4.532   3.762   2.060
14815TIP3    H165860   4.629   3.770   2.066
14815TIP3    H265861   4.517   3.822   1.986
14816TIP3   OH265862   3.887   3.219   2.006
14816TIP3    H165863   3.984   3.228   2.025
14816TIP3    H265864   3.892   3.155   1.932
14817TIP3   OH265865   3.765   3.757   2.503
14817TIP3    H165866   3.693   3.709   2.457
14817TIP3    H265867   3.793   3.692   2.570
14818TIP3   OH265868   3.848   3.571   2.691
14818TIP3    H165869   3.813   3.483   2.711
14818TIP3    H265870   3.870   3.604   2.779
14819TIP3   OH265871   5.601   3.652   2.984
14819TIP3    H165872   5.605   3.667   3.080
14819TIP3    H265873   5.673   3.708   2.953
14820TIP3   OH265874   5.557   3.611   3.280
14820TIP3    H165875   5.512   3.533   3.240
14820TIP3    H265876   5.608   3.565   3.350
14821TIP3   OH265877   5.404   3.182   3.746
14821TIP3    H165878   5.313   3.180   3.782
14821TIP3    H265879   5.441   3.263   3.786
14822TIP3   OH265880   5.535   3.015   2.288
14822TIP3    H165881   5.622   3.055   2.307
14822TIP3    H265882   5.533   2.944   2.355
14823TIP3   OH265883   5.571   2.823   2.477
14823TIP3    H165884   5.496   2.773   2.517
14823TIP3    H265885   5.631   2.836   2.554
14824TIP3   OH265886   5.547   3.093   2.976
14824TIP3    H165887   5.628   3.055   2.938
14824TIP3    H265888   5.561   3.188   2.959
14825TIP3   OH265889   5.403   3.383   3.202
14825TIP3    H165890   5.334   3.417   3.261
14825TIP3    H265891   5.348   3.343   3.132
14826TIP3   OH265892   5.601   2.805   2.116
14826TIP3    H165893   5.545   2.839   2.044
14826TIP3    H265894   5.591   2.877   2.182
14827TIP3   OH265895   5.439   2.527   1.967
14827TIP3    H165896   5.446   2.594   1.898
14827TIP3    H265897   5.420   2.445   1.918
14828TIP3   OH265898   5.352   2.671   2.534
14828TIP3    H165899   5.338   2.575   2.530
14828TIP3    H265900   5.321   2.692   2.624
14829TIP3   OH265901   3.854   2.879   2.940
14829TIP3    H165902   3.871   2.871   2.844
14829TIP3    H265903   3.943   2.861   2.975
14830TIP3   OH265904   5.440   2.867   3.503
14830TIP3    H165905   5.500   2.791   3.516
14830TIP3    H265906   5.500   2.944   3.503
14831TIP3   OH265907   5.589   2.655   3.568
14831TIP3    H165908   5.501   2.615   3.553
14831TIP3    H265909   5.646   2.577   3.560
14832TIP3   OH265910   5.363   2.276   1.881
14832TIP3    H165911   5.422   2.232   1.945
14832TIP3    H265912   5.277   2.233   1.896
14833TIP3   OH265913   5.317   2.429   2.376
14833TIP3    H165914   5.349   2.336   2.392
14833TIP3    H265915   5.401   2.468   2.346
14834TIP3   OH265916   5.384   2.483   2.924
14834TIP3    H165917   5.480   2.506   2.923
14834TIP3    H265918   5.365   2.497   3.018
14835TIP3   OH265919   5.391   2.555   3.203
14835TIP3    H165920   5.302   2.584   3.234
14835TIP3    H265921   5.434   2.641   3.180
14836TIP3   OH265922   3.816   2.409   3.556
14836TIP3    H165923   3.909   2.387   3.575
14836TIP3    H265924   3.770   2.326   3.583
14837TIP3   OH265925   5.624   1.964   3.739
14837TIP3    H165926   5.651   1.896   3.675
14837TIP3    H265927   5.626   2.043   3.680
14838TIP3   OH265928   5.387   2.158   2.385
14838TIP3    H165929   5.408   2.114   2.470
14838TIP3    H265930   5.327   2.093   2.341
14839TIP3   OH265931   3.935   2.238   2.840
14839TIP3    H165932   3.981   2.155   2.866
14839TIP3    H265933   3.990   2.307   2.879
14840TIP3   OH265934   3.764   2.538   2.944
14840TIP3    H165935   3.820   2.513   2.868
14840TIP3    H265936   3.810   2.619   2.971
14841TIP3   OH265937   5.570   2.171   3.573
14841TIP3    H165938   5.477   2.199   3.566
14841TIP3    H265939   5.574   2.117   3.493
14842TIP3   OH265940   5.569   2.161   2.040
14842TIP3    H165941   5.610   2.090   1.986
14842TIP3    H265942   5.639   2.227   2.045
14843TIP3   OH265943   3.801   2.166   2.352
14843TIP3    H165944   3.706   2.182   2.336
14843TIP3    H265945   3.842   2.213   2.279
14844TIP3   OH265946   5.274   3.659   2.547
14844TIP3    H165947   5.342   3.629   2.484
14844TIP3    H265948   5.325   3.709   2.612
14845TIP3   OH265949   3.795   2.029   3.181
14845TIP3    H165950   3.728   2.010   3.249
14845TIP3    H265951   3.749   2.097   3.127
14846TIP3   OH265952   4.019   3.348   3.597
14846TIP3    H165953   3.935   3.371   3.553
14846TIP3    H265954   3.992   3.342   3.689
14847TIP3   OH265955   4.309   3.450   3.225
14847TIP3    H165956   4.276   3.537   3.198
14847TIP3    H265957   4.401   3.458   3.194
14848TIP3   OH265958   4.741   3.592   3.515
14848TIP3    H165959   4.755   3.557   3.606
14848TIP3    H265960   4.831   3.622   3.490
14849TIP3   OH265961   4.971   3.722   3.446
14849TIP3    H165962   5.042   3.660   3.422
14849TIP3    H265963   5.006   3.761   3.528
14850TIP3   OH265964   5.472   1.980   3.357
14850TIP3    H165965   5.389   2.010   3.316
14850TIP3    H265966   5.488   1.898   3.305
14851TIP3   OH265967   4.051   3.773   3.224
14851TIP3    H165968   3.978   3.824   3.185
14851TIP3    H265969   4.020   3.755   3.314
14852TIP3   OH265970   4.298   3.731   3.132
14852TIP3    H165971   4.209   3.746   3.171
14852TIP3    H265972   4.293   3.790   3.054
14853TIP3   OH265973   4.769   3.723   3.048
14853TIP3    H165974   4.723   3.778   2.984
14853TIP3    H265975   4.782   3.786   3.122
14854TIP3   OH265976   4.998   3.603   3.152
14854TIP3    H165977   4.912   3.631   3.115
14854TIP3    H265978   5.046   3.687   3.143
14855TIP3   OH265979   5.255   3.761   3.175
14855TIP3    H165980   5.250   3.856   3.149
14855TIP3    H265981   5.277   3.722   3.087
14856TIP3   OH265982   3.997   3.639   2.919
14856TIP3    H165983   3.989   3.593   3.005
14856TIP3    H265984   4.079   3.601   2.880
14857TIP3   OH265985   4.205   3.510   2.784
14857TIP3    H165986   4.188   3.416   2.807
14857TIP3    H265987   4.291   3.525   2.829
14858TIP3   OH265988   4.466   3.557   2.871
14858TIP3    H165989   4.481   3.465   2.845
14858TIP3    H265990   4.470   3.552   2.968
14859TIP3   OH265991   4.811   2.123   2.785
14859TIP3    H165992   4.743   2.059   2.814
14859TIP3    H265993   4.866   2.070   2.727
14860TIP3   OH265994   5.324   1.928   2.792
14860TIP3    H165995   5.385   1.987   2.741
14860TIP3    H265996   5.236   1.964   2.769
14861TIP3   OH265997   5.491   2.053   2.619
14861TIP3    H165998   5.560   1.995   2.578
14861TIP3    H265999   5.542   2.136   2.630
14862TIP3   OH266000   4.048   1.986   2.570
14862TIP3    H166001   3.968   1.966   2.517
14862TIP3    H266002   4.094   1.899   2.564
14863TIP3   OH266003   3.925   1.961   2.142
14863TIP3    H166004   3.974   2.026   2.089
14863TIP3    H266005   3.868   2.018   2.196
14864TIP3   OH266006   4.495   1.978   2.549
14864TIP3    H166007   4.585   2.014   2.542
14864TIP3    H266008   4.491   1.956   2.642
14865TIP3   OH266009   5.066   1.980   2.711
14865TIP3    H166010   5.061   1.991   2.616
14865TIP3    H266011   5.028   1.890   2.724
14866TIP3   OH266012   5.193   1.983   2.280
14866TIP3    H166013   5.118   2.042   2.264
14866TIP3    H266014   5.149   1.898   2.303
14867TIP3   OH266015   3.916   3.556   2.245
14867TIP3    H166016   3.850   3.554   2.173
14867TIP3    H266017   3.916   3.651   2.263
14868TIP3   OH266018   4.107   2.155   1.994
14868TIP3    H166019   4.160   2.094   1.941
14868TIP3    H266020   4.174   2.188   2.057
14869TIP3   OH266021   4.610   2.180   2.234
14869TIP3    H166022   4.635   2.122   2.308
14869TIP3    H266023   4.617   2.267   2.280
14870TIP3   OH266024   4.803   3.687   2.079
14870TIP3    H166025   4.895   3.710   2.057
14870TIP3    H266026   4.781   3.635   1.999
14871TIP3   OH266027   5.472   3.637   2.351
14871TIP3    H166028   5.454   3.559   2.293
14871TIP3    H266029   5.466   3.710   2.286
14872TIP3   OH266030   4.036   2.040   3.515
14872TIP3    H166031   3.997   1.960   3.556
14872TIP3    H266032   4.127   2.036   3.554
14873TIP3   OH266033   4.236   1.978   3.680
14873TIP3    H166034   4.326   1.944   3.658
14873TIP3    H266035   4.199   1.897   3.720
14874TIP3   OH266036   4.095   3.655   1.939
14874TIP3    H166037   4.069   3.680   2.029
14874TIP3    H266038   4.174   3.598   1.955
14875TIP3   OH266039   5.078   1.909   3.696
14875TIP3    H166040   5.086   1.859   3.780
14875TIP3    H266041   5.169   1.903   3.661
14876TIP3   OH266042   5.398   3.513   3.558
14876TIP3    H166043   5.318   3.496   3.503
14876TIP3    H266044   5.385   3.606   3.580
14877TIP3   OH266045   6.842   2.898   2.556
14877TIP3    H166046   6.842   2.996   2.553
14877TIP3    H266047   6.769   2.876   2.496
14878TIP3   OH266048   6.728   2.825   2.906
14878TIP3    H166049   6.726   2.760   2.978
14878TIP3    H266050   6.695   2.774   2.830
14879TIP3   OH266051   5.963   2.793   3.061
14879TIP3    H166052   5.971   2.724   3.131
14879TIP3    H266053   6.038   2.850   3.084
14880TIP3   OH266054   7.098   3.118   2.736
14880TIP3    H166055   7.056   3.047   2.785
14880TIP3    H266056   7.099   3.190   2.801
14881TIP3   OH266057   6.055   3.237   2.911
14881TIP3    H166058   6.024   3.151   2.880
14881TIP3    H266059   6.151   3.219   2.916
14882TIP3   OH266060   5.719   2.593   2.461
14882TIP3    H166061   5.676   2.680   2.454
14882TIP3    H266062   5.664   2.539   2.404
14883TIP3   OH266063   5.790   2.816   2.675
14883TIP3    H166064   5.818   2.734   2.720
14883TIP3    H266065   5.860   2.826   2.608
14884TIP3   OH266066   6.808   3.639   2.758
14884TIP3    H166067   6.871   3.568   2.729
14884TIP3    H266068   6.785   3.604   2.844
14885TIP3   OH266069   6.566   3.065   2.954
14885TIP3    H166070   6.599   3.002   2.887
14885TIP3    H266071   6.647   3.081   3.005
14886TIP3   OH266072   6.883   2.513   2.984
14886TIP3    H166073   6.899   2.417   2.982
14886TIP3    H266074   6.873   2.528   2.888
14887TIP3   OH266075   6.193   2.321   2.706
14887TIP3    H166076   6.204   2.404   2.657
14887TIP3    H266077   6.153   2.264   2.637
14888TIP3   OH266078   6.978   2.370   2.571
14888TIP3    H166079   7.030   2.297   2.612
14888TIP3    H266080   7.023   2.377   2.487
14889TIP3   OH266081   5.856   2.562   2.780
14889TIP3    H166082   5.923   2.508   2.825
14889TIP3    H266083   5.866   2.530   2.688
14890TIP3   OH266084   6.371   2.717   2.712
14890TIP3    H166085   6.439   2.659   2.751
14890TIP3    H266086   6.320   2.652   2.661
14891TIP3   OH266087   6.084   2.211   3.110
14891TIP3    H166088   6.056   2.268   3.036
14891TIP3    H266089   6.016   2.234   3.178
14892TIP3   OH266090   6.811   3.157   2.464
14892TIP3    H166091   6.786   3.131   2.375
14892TIP3    H266092   6.782   3.251   2.470
14893TIP3   OH266093   6.335   2.975   3.134
14893TIP3    H166094   6.265   3.039   3.156
14893TIP3    H266095   6.406   3.035   3.105
14894TIP3   OH266096   7.123   2.257   2.755
14894TIP3    H166097   7.123   2.177   2.807
14894TIP3    H266098   7.197   2.307   2.795
14895TIP3   OH266099   6.041   2.396   2.914
14895TIP3    H166100   6.104   2.465   2.945
14895TIP3    H266101   6.093   2.355   2.840
14896TIP3   OH266102   6.180   3.176   3.216
14896TIP3    H166103   6.175   3.267   3.182
14896TIP3    H266104   6.092   3.168   3.260
14897TIP3   OH266105   5.788   3.136   2.295
14897TIP3    H166106   5.763   3.171   2.208
14897TIP3    H266107   5.797   3.219   2.347
14898TIP3   OH266108   7.129   3.296   2.981
14898TIP3    H166109   7.033   3.318   2.985
14898TIP3    H266110   7.167   3.381   2.950
14899TIP3   OH266111   7.162   2.145   3.087
14899TIP3    H166112   7.092   2.213   3.096
14899TIP3    H266113   7.237   2.194   3.051
14900TIP3   OH266114   6.478   1.944   2.857
14900TIP3    H166115   6.464   1.848   2.850
14900TIP3    H266116   6.390   1.975   2.887
14901TIP3   OH266117   6.966   3.475   2.632
14901TIP3    H166118   7.015   3.407   2.581
14901TIP3    H266119   7.012   3.555   2.597
14902TIP3   OH266120   7.095   3.274   2.482
14902TIP3    H166121   7.070   3.202   2.421
14902TIP3    H266122   7.101   3.223   2.566
14903TIP3   OH266123   7.232   3.148   3.343
14903TIP3    H166124   7.260   3.078   3.281
14903TIP3    H266125   7.273   3.224   3.298
14904TIP3   OH266126   6.707   2.826   2.307
14904TIP3    H166127   6.638   2.882   2.269
14904TIP3    H266128   6.778   2.831   2.241
14905TIP3   OH266129   6.716   2.681   2.008
14905TIP3    H166130   6.787   2.678   2.074
14905TIP3    H266131   6.746   2.608   1.952
14906TIP3   OH266132   7.049   2.844   2.396
14906TIP3    H166133   6.977   2.870   2.458
14906TIP3    H266134   7.098   2.780   2.453
14907TIP3   OH266135   7.047   2.662   3.309
14907TIP3    H166136   7.042   2.742   3.364
14907TIP3    H266137   6.983   2.689   3.241
14908TIP3   OH266138   6.213   2.910   2.592
14908TIP3    H166139   6.182   2.871   2.506
14908TIP3    H266140   6.275   2.841   2.625
14909TIP3   OH266141   6.345   3.250   2.859
14909TIP3    H166142   6.345   3.197   2.779
14909TIP3    H266143   6.423   3.214   2.905
14910TIP3   OH266144   6.246   2.785   2.958
14910TIP3    H166145   6.301   2.795   2.878
14910TIP3    H266146   6.285   2.851   3.019
14911TIP3   OH266147   6.881   3.344   3.027
14911TIP3    H166148   6.861   3.406   3.097
14911TIP3    H266149   6.863   3.257   3.070
14912TIP3   OH266150   6.342   3.228   3.427
14912TIP3    H166151   6.300   3.302   3.476
14912TIP3    H266152   6.275   3.208   3.357
14913TIP3   OH266153   6.938   2.763   2.167
14913TIP3    H166154   6.994   2.784   2.246
14913TIP3    H266155   6.979   2.814   2.095
14914TIP3   OH266156   6.036   2.844   3.343
14914TIP3    H166157   6.041   2.911   3.413
14914TIP3    H266158   5.942   2.853   3.321
14915TIP3   OH266159   6.710   3.437   2.513
14915TIP3    H166160   6.754   3.467   2.594
14915TIP3    H266161   6.655   3.512   2.489
14916TIP3   OH266162   6.167   3.431   3.502
14916TIP3    H166163   6.160   3.422   3.405
14916TIP3    H266164   6.074   3.418   3.529
14917TIP3   OH266165   6.109   2.812   2.355
14917TIP3    H166166   6.082   2.891   2.303
14917TIP3    H266167   6.045   2.746   2.330
14918TIP3   OH266168   5.719   3.055   3.243
14918TIP3    H166169   5.675   3.047   3.157
14918TIP3    H266170   5.728   2.961   3.264
14919TIP3   OH266171   5.695   3.329   2.920
14919TIP3    H166172   5.791   3.318   2.919
14919TIP3    H266173   5.687   3.411   2.971
14920TIP3   OH266174   6.615   3.353   3.376
14920TIP3    H166175   6.621   3.438   3.426
14920TIP3    H266176   6.527   3.319   3.400
14921TIP3   OH266177   6.666   3.727   2.354
14921TIP3    H166178   6.650   3.721   2.259
14921TIP3    H266179   6.659   3.823   2.370
14922TIP3   OH266180   6.023   3.607   2.532
14922TIP3    H166181   6.040   3.581   2.625
14922TIP3    H266182   5.935   3.574   2.517
14923TIP3   OH266183   6.967   3.650   2.052
14923TIP3    H166184   7.010   3.573   2.008
14923TIP3    H266185   6.968   3.623   2.146
14924TIP3   OH266186   6.933   3.641   2.332
14924TIP3    H166187   6.836   3.650   2.348
14924TIP3    H266188   6.956   3.566   2.389
14925TIP3   OH266189   7.184   2.564   3.540
14925TIP3    H166190   7.181   2.598   3.450
14925TIP3    H266191   7.238   2.481   3.524
14926TIP3   OH266192   5.948   3.187   3.337
14926TIP3    H166193   5.970   3.150   3.425
14926TIP3    H266194   5.861   3.147   3.316
14927TIP3   OH266195   6.216   2.035   2.932
14927TIP3    H166196   6.126   2.022   2.895
14927TIP3    H266197   6.203   2.118   2.980
14928TIP3   OH266198   6.681   2.001   3.268
14928TIP3    H166199   6.720   1.959   3.347
14928TIP3    H266200   6.583   1.989   3.282
14929TIP3   OH266201   7.002   2.382   3.352
14929TIP3    H166202   6.954   2.365   3.436
14929TIP3    H266203   6.994   2.477   3.338
14930TIP3   OH266204   7.090   2.859   1.948
14930TIP3    H166205   7.082   2.843   1.852
14930TIP3    H266206   7.168   2.915   1.950
14931TIP3   OH266207   6.641   2.260   1.995
14931TIP3    H166208   6.617   2.255   2.090
14931TIP3    H266209   6.614   2.171   1.969
14932TIP3   OH266210   6.227   2.532   3.058
14932TIP3    H166211   6.153   2.531   3.121
14932TIP3    H266212   6.222   2.623   3.020
14933TIP3   OH266213   6.222   2.543   2.543
14933TIP3    H166214   6.129   2.518   2.530
14933TIP3    H266215   6.261   2.514   2.458
14934TIP3   OH266216   6.777   2.598   2.425
14934TIP3    H166217   6.735   2.676   2.383
14934TIP3    H266218   6.842   2.574   2.356
14935TIP3   OH266219   6.681   2.615   3.565
14935TIP3    H166220   6.629   2.537   3.595
14935TIP3    H266221   6.765   2.603   3.612
14936TIP3   OH266222   6.870   2.551   2.711
14936TIP3    H166223   6.851   2.600   2.629
14936TIP3    H266224   6.890   2.464   2.666
14937TIP3   OH266225   5.988   2.557   3.225
14937TIP3    H166226   5.997   2.598   3.313
14937TIP3    H266227   5.945   2.473   3.246
14938TIP3   OH266228   6.324   2.296   1.909
14938TIP3    H166229   6.282   2.255   1.987
14938TIP3    H266230   6.253   2.340   1.861
14939TIP3   OH266231   5.654   2.268   2.624
14939TIP3    H166232   5.723   2.264   2.694
14939TIP3    H266233   5.699   2.230   2.546
14940TIP3   OH266234   5.781   2.340   2.159
14940TIP3    H166235   5.832   2.401   2.103
14940TIP3    H266236   5.712   2.402   2.191
14941TIP3   OH266237   6.796   2.700   3.160
14941TIP3    H166238   6.836   2.631   3.103
14941TIP3    H266239   6.750   2.648   3.228
14942TIP3   OH266240   6.476   2.300   2.645
14942TIP3    H166241   6.383   2.299   2.675
14942TIP3    H266242   6.528   2.282   2.725
14943TIP3   OH266243   5.959   2.454   2.531
14943TIP3    H166244   5.871   2.469   2.492
14943TIP3    H266245   5.988   2.371   2.489
14944TIP3   OH266246   6.323   2.458   2.293
14944TIP3    H166247   6.419   2.469   2.311
14944TIP3    H266248   6.301   2.527   2.228
14945TIP3   OH266249   6.912   2.219   2.973
14945TIP3    H166250   6.843   2.227   3.041
14945TIP3    H266251   6.865   2.198   2.890
14946TIP3   OH266252   6.194   2.576   2.052
14946TIP3    H166253   6.140   2.538   1.980
14946TIP3    H266254   6.276   2.597   2.005
14947TIP3   OH266255   7.229   3.791   3.604
14947TIP3    H166256   7.263   3.824   3.519
14947TIP3    H266257   7.304   3.816   3.661
14948TIP3   OH266258   6.006   3.034   3.558
14948TIP3    H166259   6.078   3.058   3.618
14948TIP3    H266260   5.929   3.042   3.618
14949TIP3   OH266261   6.604   2.574   2.833
14949TIP3    H166262   6.666   2.522   2.780
14949TIP3    H266263   6.592   2.520   2.912
14950TIP3   OH266264   6.107   2.189   2.477
14950TIP3    H166265   6.076   2.097   2.476
14950TIP3    H266266   6.186   2.182   2.422
14951TIP3   OH266267   6.470   2.407   3.075
14951TIP3    H166268   6.388   2.459   3.084
14951TIP3    H266269   6.526   2.442   3.147
14952TIP3   OH266270   6.529   3.030   2.244
14952TIP3    H166271   6.449   2.983   2.211
14952TIP3    H266272   6.506   3.042   2.339
14953TIP3   OH266273   7.216   2.952   3.124
14953TIP3    H166274   7.288   2.965   3.059
14953TIP3    H266275   7.139   2.952   3.063
14954TIP3   OH266276   6.919   2.318   2.049
14954TIP3    H166277   6.821   2.324   2.051
14954TIP3    H266278   6.943   2.396   2.102
14955TIP3   OH266279   6.679   3.057   3.369
14955TIP3    H166280   6.643   3.014   3.447
14955TIP3    H266281   6.655   3.149   3.380
14956TIP3   OH266282   6.985   2.506   2.220
14956TIP3    H166283   7.069   2.489   2.267
14956TIP3    H266284   6.996   2.590   2.173
14957TIP3   OH266285   6.040   2.969   2.825
14957TIP3    H166286   6.108   2.961   2.755
14957TIP3    H266287   6.046   2.883   2.870
14958TIP3   OH266288   6.736   3.177   2.148
14958TIP3    H166289   6.703   3.262   2.184
14958TIP3    H266290   6.664   3.115   2.171
14959TIP3   OH266291   5.739   2.809   3.352
14959TIP3    H166292   5.755   2.764   3.437
14959TIP3    H266293   5.677   2.748   3.307
14960TIP3   OH266294   6.440   2.765   3.568
14960TIP3    H166295   6.408   2.735   3.482
14960TIP3    H266296   6.532   2.733   3.568
14961TIP3   OH266297   6.908   3.297   3.364
14961TIP3    H166298   6.816   3.316   3.340
14961TIP3    H266299   6.906   3.328   3.456
14962TIP3   OH266300   7.020   2.878   2.953
14962TIP3    H166301   6.926   2.857   2.939
14962TIP3    H266302   7.067   2.804   2.910
14963TIP3   OH266303   6.278   3.313   2.560
14963TIP3    H166304   6.326   3.396   2.544
14963TIP3    H266305   6.189   3.340   2.532
14964TIP3   OH266306   5.854   2.798   2.020
14964TIP3    H166307   5.912   2.865   2.061
14964TIP3    H266308   5.765   2.830   2.045
14965TIP3   OH266309   6.418   3.081   2.514
14965TIP3    H166310   6.387   3.173   2.524
14965TIP3    H266311   6.347   3.032   2.559
14966TIP3   OH266312   6.464   3.499   3.156
14966TIP3    H166313   6.508   3.580   3.126
14966TIP3    H266314   6.525   3.466   3.224
14967TIP3   OH266315   6.286   3.581   2.467
14967TIP3    H166316   6.190   3.596   2.484
14967TIP3    H266317   6.320   3.664   2.506
14968TIP3   OH266318   6.818   3.099   3.118
14968TIP3    H166319   6.784   3.080   3.208
14968TIP3    H266320   6.880   3.027   3.101
14969TIP3   OH266321   7.048   3.205   2.026
14969TIP3    H166322   7.080   3.162   2.108
14969TIP3    H266323   6.953   3.188   2.035
14970TIP3   OH266324   7.098   3.555   3.365
14970TIP3    H166325   7.025   3.509   3.318
14970TIP3    H266326   7.119   3.627   3.301
14971TIP3   OH266327   5.904   2.283   3.306
14971TIP3    H166328   5.813   2.318   3.304
14971TIP3    H266329   5.892   2.198   3.352
14972TIP3   OH266330   7.128   3.065   2.248
14972TIP3    H166331   7.105   2.989   2.306
14972TIP3    H266332   7.222   3.077   2.270
14973TIP3   OH266333   5.865   3.461   3.148
14973TIP3    H166334   5.895   3.369   3.149
14973TIP3    H266335   5.891   3.490   3.236
14974TIP3   OH266336   6.463   3.314   1.876
14974TIP3    H166337   6.472   3.238   1.817
14974TIP3    H266338   6.418   3.271   1.953
14975TIP3   OH266339   6.340   3.267   2.121
14975TIP3    H166340   6.367   3.215   2.198
14975TIP3    H266341   6.349   3.359   2.154
14976TIP3   OH266342   5.994   2.991   2.170
14976TIP3    H166343   5.923   3.031   2.224
14976TIP3    H266344   6.045   3.069   2.141
14977TIP3   OH266345   6.773   2.260   3.204
14977TIP3    H166346   6.849   2.266   3.263
14977TIP3    H266347   6.738   2.171   3.223
14978TIP3   OH266348   6.784   2.306   2.265
14978TIP3    H166349   6.855   2.265   2.213
14978TIP3    H266350   6.836   2.287   2.347
14979TIP3   OH266351   6.620   3.431   2.189
14979TIP3    H166352   6.539   3.485   2.198
14979TIP3    H266353   6.675   3.488   2.132
14980TIP3   OH266354   6.564   2.403   2.395
14980TIP3    H166355   6.652   2.445   2.394
14980TIP3    H266356   6.550   2.379   2.488
14981TIP3   OH266357   6.633   2.495   3.311
14981TIP3    H166358   6.641   2.551   3.391
14981TIP3    H266359   6.698   2.424   3.321
14982TIP3   OH266360   6.652   2.098   2.478
14982TIP3    H166361   6.629   2.164   2.546
14982TIP3    H266362   6.728   2.147   2.438
14983TIP3   OH266363   6.359   3.537   2.195
14983TIP3    H166364   6.370   3.618   2.139
14983TIP3    H266365   6.333   3.574   2.282
14984TIP3   OH266366   6.223   2.209   2.151
14984TIP3    H166367   6.221   2.299   2.190
14984TIP3    H266368   6.314   2.184   2.177
14985TIP3   OH266369   7.235   2.259   3.377
14985TIP3    H166370   7.152   2.312   3.380
14985TIP3    H266371   7.275   2.287   3.294
14986TIP3   OH266372   7.108   2.660   2.801
14986TIP3    H166373   7.027   2.616   2.769
14986TIP3    H266374   7.151   2.589   2.849
14987TIP3   OH266375   6.048   3.252   2.055
14987TIP3    H166376   6.115   3.315   2.087
14987TIP3    H266377   6.101   3.206   1.986
14988TIP3   OH266378   5.883   2.520   1.970
14988TIP3    H166379   5.885   2.616   1.991
14988TIP3    H266380   5.794   2.503   1.940
14989TIP3   OH266381   7.222   3.589   2.963
14989TIP3    H166382   7.206   3.656   2.893
14989TIP3    H266383   7.316   3.598   2.979
14990TIP3   OH266384   5.964   1.999   2.845
14990TIP3    H166385   5.945   2.000   2.749
14990TIP3    H266386   5.923   1.913   2.870
14991TIP3   OH266387   5.857   3.387   2.456
14991TIP3    H166388   5.774   3.435   2.454
14991TIP3    H266389   5.909   3.438   2.392
14992TIP3   OH266390   5.781   3.656   3.587
14992TIP3    H166391   5.841   3.636   3.661
14992TIP3    H266392   5.740   3.569   3.569
14993TIP3   OH266393   6.249   3.548   3.748
14993TIP3    H166394   6.324   3.498   3.781
14993TIP3    H266395   6.246   3.520   3.655
14994TIP3   OH266396   6.663   3.499   1.888
14994TIP3    H166397   6.593   3.433   1.911
14994TIP3    H266398   6.735   3.439   1.864
14995TIP3   OH266399   6.905   3.385   3.623
14995TIP3    H166400   6.870   3.298   3.651
14995TIP3    H266401   6.980   3.395   3.684
14996TIP3   OH266402   7.115   3.475   1.912
14996TIP3    H166403   7.146   3.395   1.957
14996TIP3    H266404   7.190   3.493   1.852
14997TIP3   OH266405   5.771   3.033   3.687
14997TIP3    H166406   5.788   2.942   3.657
14997TIP3    H266407   5.697   3.059   3.630
14998TIP3   OH266408   6.206   3.067   1.889
14998TIP3    H166409   6.220   2.991   1.947
14998TIP3    H266410   6.281   3.056   1.827
14999TIP3   OH266411   6.443   3.032   3.626
14999TIP3    H166412   6.410   3.063   3.539
14999TIP3    H266413   6.451   2.934   3.615
15000TIP3   OH266414   6.749   3.178   1.867
15000TIP3    H166415   6.722   3.187   1.960
15000TIP3    H266416   6.730   3.083   1.852
15001TIP3   OH266417   7.010   3.014   3.365
15001TIP3    H166418   7.089   3.073   3.359
15001TIP3    H266419   6.943   3.083   3.369
15002TIP3   OH266420   5.863   2.756   3.625
15002TIP3    H166421   5.905   2.670   3.616
15002TIP3    H266422   5.840   2.756   3.719
15003TIP3   OH266423   6.328   2.869   2.133
15003TIP3    H166424   6.276   2.815   2.195
15003TIP3    H266425   6.357   2.802   2.067
15004TIP3   OH266426   6.253   2.650   3.360
15004TIP3    H166427   6.194   2.723   3.385
15004TIP3    H266428   6.293   2.687   3.280
15005TIP3   OH266429   6.434   2.692   1.952
15005TIP3    H166430   6.419   2.683   1.855
15005TIP3    H266431   6.532   2.696   1.959
15006TIP3   OH266432   6.761   2.908   3.695
15006TIP3    H166433   6.856   2.906   3.682
15006TIP3    H266434   6.745   2.830   3.750
15007TIP3   OH266435   6.294   2.388   3.466
15007TIP3    H166436   6.306   2.317   3.400
15007TIP3    H266437   6.290   2.469   3.412
15008TIP3   OH266438   6.334   2.226   3.222
15008TIP3    H166439   6.385   2.273   3.151
15008TIP3    H266440   6.245   2.218   3.181
15009TIP3   OH266441   6.489   2.775   3.246
15009TIP3    H166442   6.564   2.759   3.189
15009TIP3    H266443   6.452   2.859   3.212
15010TIP3   OH266444   6.933   2.553   3.743
15010TIP3    H166445   6.955   2.459   3.732
15010TIP3    H266446   7.021   2.595   3.739
15011TIP3   OH266447   7.064   2.834   3.559
15011TIP3    H166448   7.035   2.902   3.495
15011TIP3    H266449   7.157   2.823   3.538
15012TIP3   OH266450   6.141   2.513   3.658
15012TIP3    H166451   6.063   2.456   3.639
15012TIP3    H266452   6.206   2.476   3.596
15013TIP3   OH266453   6.413   1.970   3.260
15013TIP3    H166454   6.395   2.066   3.251
15013TIP3    H266455   6.338   1.933   3.210
15014TIP3   OH266456   6.540   2.403   3.623
15014TIP3    H166457   6.509   2.379   3.713
15014TIP3    H266458   6.462   2.382   3.569
15015TIP3   OH266459   6.808   2.319   3.533
15015TIP3    H166460   6.712   2.321   3.545
15015TIP3    H266461   6.840   2.254   3.598
15016TIP3   OH266462   6.980   2.176   3.726
15016TIP3    H166463   6.965   2.080   3.725
15016TIP3    H266464   6.944   2.208   3.811
15017TIP3   OH266465   5.948   2.306   3.635
15017TIP3    H166466   5.973   2.234   3.575
15017TIP3    H266467   5.939   2.261   3.719
15018TIP3   OH266468   6.435   1.909   3.530
15018TIP3    H166469   6.503   1.839   3.529
15018TIP3    H266470   6.423   1.923   3.434
15019TIP3   OH266471   6.471   2.070   3.742
15019TIP3    H166472   6.454   2.020   3.659
15019TIP3    H266473   6.411   2.147   3.732
15020TIP3   OH266474   6.418   3.762   2.060
15020TIP3    H166475   6.515   3.770   2.066
15020TIP3    H266476   6.403   3.822   1.986
15021TIP3   OH266477   5.773   3.219   2.006
15021TIP3    H166478   5.869   3.228   2.025
15021TIP3    H266479   5.778   3.155   1.932
15022TIP3   OH266480   5.649   3.757   2.502
15022TIP3    H166481   5.578   3.707   2.457
15022TIP3    H266482   5.681   3.694   2.569
15023TIP3   OH266483   5.730   3.571   2.690
15023TIP3    H166484   5.699   3.482   2.711
15023TIP3    H266485   5.759   3.605   2.777
15024TIP3   OH266486   7.280   3.377   3.208
15024TIP3    H166487   7.214   3.420   3.264
15024TIP3    H266488   7.227   3.340   3.135
15025TIP3   OH266489   7.192   2.678   2.543
15025TIP3    H166490   7.209   2.583   2.548
15025TIP3    H266491   7.200   2.702   2.638
15026TIP3   OH266492   5.739   2.879   2.940
15026TIP3    H166493   5.757   2.871   2.844
15026TIP3    H266494   5.829   2.861   2.975
15027TIP3   OH266495   7.246   2.273   1.885
15027TIP3    H166496   7.305   2.228   1.945
15027TIP3    H266497   7.160   2.231   1.902
15028TIP3   OH266498   7.203   2.423   2.362
15028TIP3    H166499   7.226   2.339   2.405
15028TIP3    H266500   7.288   2.459   2.335
15029TIP3   OH266501  -0.053   2.399   2.925
15029TIP3    H166502   0.035   2.435   2.910
15029TIP3    H266503  -0.076   2.464   2.995
15030TIP3   OH266504   7.278   2.561   3.228
15030TIP3    H166505   7.184   2.587   3.236
15030TIP3    H266506   7.314   2.630   3.169
15031TIP3   OH266507   5.700   2.410   3.555
15031TIP3    H166508   5.794   2.389   3.572
15031TIP3    H266509   5.654   2.328   3.580
15032TIP3   OH266510   7.223   2.111   2.474
15032TIP3    H166511   7.316   2.089   2.470
15032TIP3    H266512   7.192   2.088   2.383
15033TIP3   OH266513   5.821   2.238   2.840
15033TIP3    H166514   5.867   2.155   2.866
15033TIP3    H266515   5.876   2.307   2.879
15034TIP3   OH266516   5.649   2.538   2.944
15034TIP3    H166517   5.706   2.513   2.868
15034TIP3    H266518   5.696   2.619   2.971
15035TIP3   OH266519   5.687   2.166   2.353
15035TIP3    H166520   5.592   2.181   2.336
15035TIP3    H266521   5.728   2.213   2.279
15036TIP3   OH266522   7.141   3.641   2.556
15036TIP3    H166523   7.208   3.608   2.495
15036TIP3    H266524   7.193   3.699   2.613
15037TIP3   OH266525   5.681   2.029   3.181
15037TIP3    H166526   5.614   2.010   3.249
15037TIP3    H266527   5.635   2.097   3.127
15038TIP3   OH266528   5.905   3.349   3.597
15038TIP3    H166529   5.821   3.371   3.553
15038TIP3    H266530   5.878   3.342   3.689
15039TIP3   OH266531   6.194   3.450   3.225
15039TIP3    H166532   6.162   3.537   3.196
15039TIP3    H266533   6.287   3.459   3.195
15040TIP3   OH266534   6.627   3.592   3.515
15040TIP3    H166535   6.641   3.557   3.606
15040TIP3    H266536   6.717   3.623   3.491
15041TIP3   OH266537   6.858   3.719   3.447
15041TIP3    H166538   6.932   3.661   3.423
15041TIP3    H266539   6.896   3.764   3.526
15042TIP3   OH266540   5.936   3.773   3.226
15042TIP3    H166541   5.865   3.824   3.184
15042TIP3    H266542   5.904   3.755   3.315
15043TIP3   OH266543   6.183   3.728   3.135
15043TIP3    H166544   6.094   3.747   3.170
15043TIP3    H266545   6.181   3.788   3.056
15044TIP3   OH266546   6.654   3.722   3.048
15044TIP3    H166547   6.604   3.776   2.984
15044TIP3    H266548   6.667   3.784   3.123
15045TIP3   OH266549   6.883   3.603   3.151
15045TIP3    H166550   6.797   3.630   3.114
15045TIP3    H266551   6.929   3.688   3.145
15046TIP3   OH266552   7.128   3.760   3.173
15046TIP3    H166553   7.128   3.855   3.151
15046TIP3    H266554   7.162   3.723   3.089
15047TIP3   OH266555   5.880   3.635   2.918
15047TIP3    H166556   5.878   3.591   3.005
15047TIP3    H266557   5.964   3.603   2.879
15048TIP3   OH266558   6.087   3.505   2.785
15048TIP3    H166559   6.076   3.412   2.810
15048TIP3    H266560   6.174   3.528   2.826
15049TIP3   OH266561   6.352   3.556   2.873
15049TIP3    H166562   6.366   3.464   2.845
15049TIP3    H266563   6.355   3.552   2.969
15050TIP3   OH266564   6.696   2.123   2.787
15050TIP3    H166565   6.629   2.058   2.813
15050TIP3    H266566   6.752   2.073   2.726
15051TIP3   OH266567   7.212   1.928   2.795
15051TIP3    H166568   7.266   1.990   2.746
15051TIP3    H266569   7.122   1.962   2.772
15052TIP3   OH266570   5.934   1.986   2.570
15052TIP3    H166571   5.854   1.966   2.517
15052TIP3    H266572   5.979   1.899   2.564
15053TIP3   OH266573   5.810   1.961   2.142
15053TIP3    H166574   5.859   2.026   2.089
15053TIP3    H266575   5.753   2.018   2.196
15054TIP3   OH266576   6.382   1.978   2.549
15054TIP3    H166577   6.472   2.014   2.541
15054TIP3    H266578   6.377   1.957   2.642
15055TIP3   OH266579   6.955   1.974   2.713
15055TIP3    H166580   6.949   1.997   2.618
15055TIP3    H266581   6.910   1.887   2.721
15056TIP3   OH266582   7.088   1.945   2.243
15056TIP3    H166583   7.035   2.027   2.259
15056TIP3    H266584   7.034   1.888   2.300
15057TIP3   OH266585   5.802   3.556   2.246
15057TIP3    H166586   5.736   3.555   2.174
15057TIP3    H266587   5.803   3.652   2.264
15058TIP3   OH266588   5.993   2.155   1.994
15058TIP3    H166589   6.046   2.094   1.941
15058TIP3    H266590   6.059   2.188   2.057
15059TIP3   OH266591   6.490   2.180   2.237
15059TIP3    H166592   6.523   2.123   2.308
15059TIP3    H266593   6.506   2.267   2.279
15060TIP3   OH266594   6.688   3.686   2.078
15060TIP3    H166595   6.780   3.710   2.057
15060TIP3    H266596   6.667   3.634   1.998
15061TIP3   OH266597   5.921   2.042   3.520
15061TIP3    H166598   5.883   1.959   3.554
15061TIP3    H266599   6.014   2.035   3.552
15062TIP3   OH266600   6.121   1.980   3.684
15062TIP3    H166601   6.210   1.946   3.657
15062TIP3    H266602   6.085   1.896   3.718
15063TIP3   OH266603   5.981   3.655   1.939
15063TIP3    H166604   5.955   3.680   2.029
15063TIP3    H266605   6.059   3.598   1.955
15064TIP3   OH266606   6.962   1.909   3.692
15064TIP3    H166607   6.971   1.862   3.778
15064TIP3    H266608   7.054   1.907   3.658
15065TIP3   OH266609   7.262   3.500   3.572
15065TIP3    H166610   7.197   3.494   3.498
15065TIP3    H266611   7.264   3.598   3.580
15066TIP3   OH266612   1.186   4.785   2.555
15066TIP3    H166613   1.184   4.883   2.553
15066TIP3    H266614   1.112   4.762   2.496
15067TIP3   OH266615   1.070   4.710   2.906
15067TIP3    H166616   1.069   4.646   2.978
15067TIP3    H266617   1.036   4.660   2.831
15068TIP3   OH266618   0.311   4.677   3.058
15068TIP3    H166619   0.317   4.610   3.129
15068TIP3    H266620   0.381   4.738   3.085
15069TIP3   OH266621   1.439   5.006   2.734
15069TIP3    H166622   1.398   4.934   2.784
15069TIP3    H266623   1.442   5.076   2.802
15070TIP3   OH266624   0.398   5.121   2.913
15070TIP3    H166625   0.367   5.036   2.878
15070TIP3    H266626   0.494   5.105   2.915
15071TIP3   OH266627   0.089   4.478   2.420
15071TIP3    H166628   0.045   4.558   2.457
15071TIP3    H266629   0.010   4.425   2.419
15072TIP3   OH266630   0.130   4.694   2.670
15072TIP3    H166631   0.160   4.619   2.723
15072TIP3    H266632   0.204   4.712   2.610
15073TIP3   OH266633   1.151   5.521   2.758
15073TIP3    H166634   1.216   5.453   2.730
15073TIP3    H266635   1.130   5.488   2.845
15074TIP3   OH266636   0.908   4.951   2.953
15074TIP3    H166637   0.942   4.888   2.887
15074TIP3    H266638   0.989   4.966   3.005
15075TIP3   OH266639   1.768   4.117   3.026
15075TIP3    H166640   1.785   4.176   3.102
15075TIP3    H266641   1.825   4.159   2.960
15076TIP3   OH266642   1.225   4.398   2.985
15076TIP3    H166643   1.242   4.302   2.985
15076TIP3    H266644   1.215   4.412   2.889
15077TIP3   OH266645   0.537   4.207   2.707
15077TIP3    H166646   0.548   4.289   2.657
15077TIP3    H266647   0.498   4.149   2.637
15078TIP3   OH266648   1.310   4.214   2.543
15078TIP3    H166649   1.375   4.183   2.610
15078TIP3    H266650   1.366   4.272   2.490
15079TIP3   OH266651   0.195   4.439   2.774
15079TIP3    H166652   0.268   4.392   2.820
15079TIP3    H266653   0.214   4.411   2.683
15080TIP3   OH266654   0.714   4.603   2.712
15080TIP3    H166655   0.782   4.545   2.751
15080TIP3    H266656   0.663   4.537   2.661
15081TIP3   OH266657   1.812   4.257   3.253
15081TIP3    H166658   1.751   4.334   3.242
15081TIP3    H266659   1.815   4.249   3.349
15082TIP3   OH266660   0.431   4.097   3.110
15082TIP3    H166661   0.400   4.153   3.036
15082TIP3    H266662   0.363   4.119   3.178
15083TIP3   OH266663   1.156   5.044   2.465
15083TIP3    H166664   1.130   5.017   2.376
15083TIP3    H266665   1.125   5.138   2.470
15084TIP3   OH266666   0.681   4.861   3.134
15084TIP3    H166667   0.609   4.924   3.156
15084TIP3    H266668   0.750   4.921   3.105
15085TIP3   OH266669   1.491   4.149   2.742
15085TIP3    H166670   1.469   4.072   2.796
15085TIP3    H266671   1.558   4.193   2.798
15086TIP3   OH266672   0.382   4.280   2.914
15086TIP3    H166673   0.444   4.350   2.946
15086TIP3    H266674   0.436   4.241   2.840
15087TIP3   OH266675   0.522   5.060   3.215
15087TIP3    H166676   0.518   5.152   3.183
15087TIP3    H266677   0.434   5.052   3.259
15088TIP3   OH266678   0.128   5.026   2.291
15088TIP3    H166679   0.108   5.059   2.202
15088TIP3    H266680   0.139   5.107   2.344
15089TIP3   OH266681   1.492   5.189   2.971
15089TIP3    H166682   1.395   5.201   2.983
15089TIP3    H266683   1.519   5.281   2.951
15090TIP3   OH266684   1.525   4.018   3.110
15090TIP3    H166685   1.452   4.081   3.101
15090TIP3    H266686   1.596   4.059   3.058
15091TIP3   OH266687   0.821   3.830   2.856
15091TIP3    H166688   0.808   3.734   2.849
15091TIP3    H266689   0.733   3.860   2.887
15092TIP3   OH266690   1.318   5.368   2.630
15092TIP3    H166691   1.361   5.296   2.579
15092TIP3    H266692   1.362   5.447   2.591
15093TIP3   OH266693   1.440   5.160   2.482
15093TIP3    H166694   1.409   5.091   2.422
15093TIP3    H266695   1.443   5.111   2.566
15094TIP3   OH266696   1.601   5.020   3.331
15094TIP3    H166697   1.616   4.955   3.260
15094TIP3    H266698   1.622   5.104   3.287
15095TIP3   OH266699   1.051   4.709   2.307
15095TIP3    H166700   0.981   4.766   2.271
15095TIP3    H266701   1.122   4.718   2.241
15096TIP3   OH266702   1.059   4.566   2.008
15096TIP3    H166703   1.129   4.564   2.075
15096TIP3    H266704   1.090   4.494   1.952
15097TIP3   OH266705   1.790   4.651   3.136
15097TIP3    H166706   1.724   4.724   3.140
15097TIP3    H266707   1.839   4.675   3.055
15098TIP3   OH266708   1.397   4.730   2.399
15098TIP3    H166709   1.322   4.754   2.459
15098TIP3    H266710   1.443   4.662   2.452
15099TIP3   OH266711   1.389   4.546   3.312
15099TIP3    H166712   1.389   4.628   3.365
15099TIP3    H266713   1.326   4.576   3.243
15100TIP3   OH266714   0.559   4.797   2.592
15100TIP3    H166715   0.523   4.757   2.509
15100TIP3    H266716   0.619   4.727   2.625
15101TIP3   OH266717   0.689   5.134   2.859
15101TIP3    H166718   0.688   5.082   2.778
15101TIP3    H266719   0.767   5.099   2.905
15102TIP3   OH266720   0.593   4.670   2.958
15102TIP3    H166721   0.646   4.681   2.877
15102TIP3    H266722   0.629   4.738   3.019
15103TIP3   OH266723   1.231   5.228   3.028
15103TIP3    H166724   1.203   5.292   3.094
15103TIP3    H266725   1.205   5.143   3.070
15104TIP3   OH266726   0.685   5.113   3.427
15104TIP3    H166727   0.644   5.188   3.476
15104TIP3    H266728   0.618   5.094   3.357
15105TIP3   OH266729   1.283   4.650   2.166
15105TIP3    H166730   1.339   4.668   2.246
15105TIP3    H266731   1.329   4.700   2.094
15106TIP3   OH266732   0.379   4.731   3.345
15106TIP3    H166733   0.383   4.799   3.414
15106TIP3    H266734   0.285   4.739   3.322
15107TIP3   OH266735   1.055   5.322   2.513
15107TIP3    H166736   1.098   5.353   2.594
15107TIP3    H266737   0.999   5.397   2.490
15108TIP3   OH266738   0.510   5.316   3.502
15108TIP3    H166739   0.502   5.308   3.405
15108TIP3    H266740   0.416   5.303   3.528
15109TIP3   OH266741   1.656   3.823   2.157
15109TIP3    H166742   1.561   3.835   2.181
15109TIP3    H266743   1.676   3.907   2.112
15110TIP3   OH266744   0.455   4.697   2.354
15110TIP3    H166745   0.426   4.775   2.303
15110TIP3    H266746   0.390   4.631   2.331
15111TIP3   OH266747   1.767   5.259   1.991
15111TIP3    H166748   1.784   5.353   2.008
15111TIP3    H266749   1.859   5.227   1.991
15112TIP3   OH266750   0.122   4.928   3.217
15112TIP3    H166751   0.045   4.941   3.158
15112TIP3    H266752   0.085   4.849   3.264
15113TIP3   OH266753   0.069   5.239   2.892
15113TIP3    H166754   0.151   5.198   2.921
15113TIP3    H266755   0.040   5.285   2.972
15114TIP3   OH266756   1.863   5.285   3.490
15114TIP3    H166757   1.851   5.189   3.487
15114TIP3    H266758   1.775   5.310   3.528
15115TIP3   OH266759   0.958   5.239   3.376
15115TIP3    H166760   0.964   5.324   3.427
15115TIP3    H266761   0.871   5.203   3.401
15116TIP3   OH266762   1.003   5.613   2.355
15116TIP3    H166763   0.992   5.605   2.258
15116TIP3    H266764   1.003   5.709   2.370
15117TIP3   OH266765   0.365   5.501   2.536
15117TIP3    H166766   0.380   5.461   2.624
15117TIP3    H266767   0.282   5.458   2.512
15118TIP3   OH266768   1.308   5.535   2.053
15118TIP3    H166769   1.354   5.459   2.010
15118TIP3    H266770   1.312   5.508   2.147
15119TIP3   OH266771   1.278   5.528   2.330
15119TIP3    H166772   1.181   5.536   2.348
15119TIP3    H266773   1.301   5.454   2.388
15120TIP3   OH266774   1.577   4.432   3.536
15120TIP3    H166775   1.530   4.477   3.465
15120TIP3    H266776   1.576   4.340   3.506
15121TIP3   OH266777   0.293   5.081   3.344
15121TIP3    H166778   0.311   5.036   3.428
15121TIP3    H266779   0.210   5.036   3.315
15122TIP3   OH266780   0.560   3.921   2.932
15122TIP3    H166781   0.470   3.909   2.895
15122TIP3    H266782   0.546   4.004   2.981
15123TIP3   OH266783   1.024   3.887   3.268
15123TIP3    H166784   1.063   3.844   3.347
15123TIP3    H266785   0.927   3.875   3.283
15124TIP3   OH266786   1.353   4.271   3.358
15124TIP3    H166787   1.296   4.250   3.436
15124TIP3    H266788   1.334   4.364   3.335
15125TIP3   OH266789   1.428   4.754   1.948
15125TIP3    H166790   1.426   4.734   1.851
15125TIP3    H266791   1.514   4.798   1.953
15126TIP3   OH266792   0.988   4.146   1.999
15126TIP3    H166793   0.956   4.139   2.091
15126TIP3    H266794   0.957   4.058   1.968
15127TIP3   OH266795   0.568   4.418   3.057
15127TIP3    H166796   0.496   4.418   3.122
15127TIP3    H266797   0.566   4.509   3.020
15128TIP3   OH266798   0.568   4.430   2.543
15128TIP3    H166799   0.474   4.405   2.530
15128TIP3    H266800   0.605   4.400   2.458
15129TIP3   OH266801   1.117   4.480   2.421
15129TIP3    H166802   1.078   4.562   2.384
15129TIP3    H266803   1.186   4.463   2.355
15130TIP3   OH266804   1.023   4.500   3.564
15130TIP3    H166805   0.970   4.423   3.595
15130TIP3    H266806   1.107   4.488   3.612
15131TIP3   OH266807   1.221   4.429   2.705
15131TIP3    H166808   1.193   4.485   2.631
15131TIP3    H266809   1.230   4.344   2.658
15132TIP3   OH266810   0.333   4.441   3.225
15132TIP3    H166811   0.335   4.483   3.313
15132TIP3    H266812   0.285   4.359   3.245
15133TIP3   OH266813   0.669   4.182   1.910
15133TIP3    H166814   0.624   4.140   1.986
15133TIP3    H266815   0.598   4.225   1.861
15134TIP3   OH266816   0.034   4.185   2.605
15134TIP3    H166817   0.069   4.151   2.691
15134TIP3    H266818   0.050   4.110   2.548
15135TIP3   OH266819   0.122   4.240   2.157
15135TIP3    H166820   0.178   4.295   2.098
15135TIP3    H266821   0.050   4.297   2.181
15136TIP3   OH266822   1.141   4.587   3.160
15136TIP3    H166823   1.179   4.518   3.102
15136TIP3    H266824   1.094   4.534   3.228
15137TIP3   OH266825   0.821   4.185   2.644
15137TIP3    H166826   0.728   4.185   2.673
15137TIP3    H266827   0.869   4.167   2.726
15138TIP3   OH266828   0.303   4.339   2.530
15138TIP3    H166829   0.216   4.357   2.491
15138TIP3    H266830   0.327   4.254   2.489
15139TIP3   OH266831   0.666   4.344   2.294
15139TIP3    H166832   0.762   4.356   2.309
15139TIP3    H266833   0.641   4.413   2.229
15140TIP3   OH266834   1.262   4.108   2.968
15140TIP3    H166835   1.193   4.113   3.038
15140TIP3    H266836   1.211   4.082   2.890
15141TIP3   OH266837   0.538   4.461   2.051
15141TIP3    H166838   0.484   4.425   1.979
15141TIP3    H266839   0.620   4.483   2.005
15142TIP3   OH266840   1.582   5.672   3.601
15142TIP3    H166841   1.608   5.711   3.515
15142TIP3    H266842   1.654   5.704   3.657
15143TIP3   OH266843   0.347   4.918   3.559
15143TIP3    H166844   0.421   4.943   3.618
15143TIP3    H266845   0.272   4.929   3.620
15144TIP3   OH266846   0.948   4.460   2.833
15144TIP3    H166847   1.009   4.407   2.780
15144TIP3    H266848   0.935   4.405   2.912
15145TIP3   OH266849   0.449   4.076   2.476
15145TIP3    H166850   0.418   3.984   2.477
15145TIP3    H266851   0.529   4.067   2.423
15146TIP3   OH266852   0.813   4.293   3.075
15146TIP3    H166853   0.731   4.345   3.084
15146TIP3    H266854   0.869   4.328   3.147
15147TIP3   OH266855   0.872   4.915   2.244
15147TIP3    H166856   0.792   4.869   2.211
15147TIP3    H266857   0.849   4.928   2.339
15148TIP3   OH266858   1.591   4.836   3.125
15148TIP3    H166859   1.647   4.884   3.062
15148TIP3    H266860   1.505   4.840   3.079
15149TIP3   OH266861   1.255   4.197   2.062
15149TIP3    H166862   1.160   4.212   2.049
15149TIP3    H266863   1.289   4.282   2.097
15150TIP3   OH266864   1.021   4.942   3.369
15150TIP3    H166865   0.986   4.899   3.448
15150TIP3    H266866   0.995   5.034   3.380
15151TIP3   OH266867   1.328   4.389   2.224
15151TIP3    H166868   1.416   4.376   2.265
15151TIP3    H266869   1.339   4.471   2.173
15152TIP3   OH266870   0.382   4.855   2.823
15152TIP3    H166871   0.450   4.847   2.754
15152TIP3    H266872   0.392   4.771   2.871
15153TIP3   OH266873   1.081   5.062   2.148
15153TIP3    H166874   1.047   5.147   2.183
15153TIP3    H266875   1.008   5.000   2.169
15154TIP3   OH266876   0.079   4.693   3.351
15154TIP3    H166877   0.105   4.649   3.435
15154TIP3    H266878   0.021   4.629   3.309
15155TIP3   OH266879   0.783   4.651   3.568
15155TIP3    H166880   0.751   4.620   3.482
15155TIP3    H266881   0.875   4.619   3.568
15156TIP3   OH266882   1.252   5.185   3.364
15156TIP3    H166883   1.159   5.202   3.340
15156TIP3    H266884   1.248   5.214   3.457
15157TIP3   OH266885   1.819   4.402   2.202
15157TIP3    H166886   1.762   4.374   2.128
15157TIP3    H266887   1.826   4.497   2.177
15158TIP3   OH266888   1.817   4.989   3.483
15158TIP3    H166889   1.728   5.011   3.447
15158TIP3    H266890   1.872   4.984   3.402
15159TIP3   OH266891   1.644   5.285   2.242
15159TIP3    H166892   1.611   5.202   2.277
15159TIP3    H266893   1.680   5.263   2.154
15160TIP3   OH266894   1.368   4.767   2.953
15160TIP3    H166895   1.274   4.746   2.942
15160TIP3    H266896   1.411   4.691   2.909
15161TIP3   OH266897   0.619   5.201   2.564
15161TIP3    H166898   0.670   5.281   2.543
15161TIP3    H266899   0.531   5.224   2.531
15162TIP3   OH266900   0.192   4.684   2.024
15162TIP3    H166901   0.256   4.750   2.059
15162TIP3    H266902   0.106   4.720   2.050
15163TIP3   OH266903   0.761   4.967   2.514
15163TIP3    H166904   0.730   5.059   2.524
15163TIP3    H266905   0.690   4.917   2.559
15164TIP3   OH266906   0.808   5.385   3.155
15164TIP3    H166907   0.853   5.466   3.127
15164TIP3    H266908   0.869   5.351   3.224
15165TIP3   OH266909   0.629   5.466   2.467
15165TIP3    H166910   0.533   5.480   2.481
15165TIP3    H266911   0.666   5.549   2.502
15166TIP3   OH266912   1.159   4.984   3.117
15166TIP3    H166913   1.127   4.966   3.208
15166TIP3    H266914   1.223   4.914   3.101
15167TIP3   OH266915   1.393   5.093   2.027
15167TIP3    H166916   1.423   5.045   2.107
15167TIP3    H266917   1.298   5.074   2.035
15168TIP3   OH266918   1.441   5.443   3.366
15168TIP3    H166919   1.372   5.394   3.319
15168TIP3    H266920   1.459   5.513   3.300
15169TIP3   OH266921   1.839   5.528   2.052
15169TIP3    H166922   1.908   5.594   2.032
15169TIP3    H266923   1.768   5.589   2.081
15170TIP3   OH266924   0.247   4.169   3.302
15170TIP3    H166925   0.158   4.206   3.311
15170TIP3    H266926   0.236   4.085   3.350
15171TIP3   OH266927   1.470   4.956   2.251
15171TIP3    H166928   1.447   4.877   2.305
15171TIP3    H266929   1.566   4.960   2.269
15172TIP3   OH266930   0.225   5.352   3.144
15172TIP3    H166931   0.237   5.256   3.149
15172TIP3    H266932   0.234   5.375   3.237
15173TIP3   OH266933   0.806   5.200   1.876
15173TIP3    H166934   0.816   5.123   1.817
15173TIP3    H266935   0.762   5.157   1.953
15174TIP3   OH266936   0.683   5.152   2.121
15174TIP3    H166937   0.710   5.101   2.198
15174TIP3    H266938   0.692   5.245   2.154
15175TIP3   OH266939   0.332   4.877   2.169
15175TIP3    H166940   0.261   4.916   2.224
15175TIP3    H266941   0.385   4.955   2.142
15176TIP3   OH266942   1.120   4.146   3.202
15176TIP3    H166943   1.191   4.152   3.266
15176TIP3    H266944   1.082   4.058   3.222
15177TIP3   OH266945   1.194   4.102   2.310
15177TIP3    H166946   1.218   4.149   2.228
15177TIP3    H266947   1.252   4.147   2.374
15178TIP3   OH266948   0.964   5.319   2.191
15178TIP3    H166949   0.882   5.372   2.198
15178TIP3    H266950   1.017   5.374   2.132
15179TIP3   OH266951   0.918   4.278   2.392
15179TIP3    H166952   0.996   4.336   2.397
15179TIP3    H266953   0.891   4.265   2.485
15180TIP3   OH266954   0.973   4.380   3.312
15180TIP3    H166955   0.980   4.436   3.392
15180TIP3    H266956   1.039   4.311   3.321
15181TIP3   OH266957   1.002   3.983   2.480
15181TIP3    H166958   0.970   4.048   2.546
15181TIP3    H266959   1.072   4.038   2.436
15182TIP3   OH266960   0.704   5.421   2.194
15182TIP3    H166961   0.713   5.503   2.139
15182TIP3    H266962   0.676   5.458   2.281
15183TIP3   OH266963   0.569   4.094   2.151
15183TIP3    H166964   0.563   4.184   2.190
15183TIP3    H266965   0.660   4.070   2.178
15184TIP3   OH266966   1.591   4.167   3.396
15184TIP3    H166967   1.498   4.199   3.383
15184TIP3    H266968   1.621   4.166   3.304
15185TIP3   OH266969   1.452   4.546   2.796
15185TIP3    H166970   1.370   4.502   2.769
15185TIP3    H266971   1.500   4.477   2.848
15186TIP3   OH266972   0.390   5.139   2.056
15186TIP3    H166973   0.457   5.202   2.087
15186TIP3    H266974   0.443   5.091   1.989
15187TIP3   OH266975   0.221   4.404   1.969
15187TIP3    H166976   0.228   4.500   1.989
15187TIP3    H266977   0.133   4.387   1.935
15188TIP3   OH266978   1.558   5.472   2.964
15188TIP3    H166979   1.550   5.540   2.894
15188TIP3    H266980   1.655   5.477   2.981
15189TIP3   OH266981   0.310   3.883   2.843
15189TIP3    H166982   0.288   3.886   2.747
15189TIP3    H266983   0.266   3.800   2.869
15190TIP3   OH266984   0.205   5.277   2.461
15190TIP3    H166985   0.119   5.319   2.455
15190TIP3    H266986   0.252   5.323   2.390
15191TIP3   OH266987   0.154   5.544   3.586
15191TIP3    H166988   0.195   5.521   3.671
15191TIP3    H266989   0.102   5.463   3.571
15192TIP3   OH266990   0.592   5.432   3.747
15192TIP3    H166991   0.668   5.383   3.781
15192TIP3    H266992   0.590   5.405   3.654
15193TIP3   OH266993   1.005   5.385   1.889
15193TIP3    H166994   0.936   5.319   1.911
15193TIP3    H266995   1.077   5.325   1.864
15194TIP3   OH266996   1.242   5.272   3.623
15194TIP3    H166997   1.211   5.183   3.651
15194TIP3    H266998   1.319   5.284   3.683
15195TIP3   OH266999   1.461   5.359   1.907
15195TIP3    H167000   1.491   5.281   1.958
15195TIP3    H267001   1.537   5.382   1.852
15196TIP3   OH267002   0.111   4.919   3.687
15196TIP3    H167003   0.133   4.830   3.654
15196TIP3    H267004   0.040   4.947   3.628
15197TIP3   OH267005   0.550   4.953   1.889
15197TIP3    H167006   0.563   4.877   1.947
15197TIP3    H267007   0.625   4.941   1.827
15198TIP3   OH267008   0.786   4.917   3.626
15198TIP3    H167009   0.753   4.949   3.539
15198TIP3    H267010   0.794   4.820   3.615
15199TIP3   OH267011   1.093   5.064   1.867
15199TIP3    H167012   1.066   5.072   1.960
15199TIP3    H267013   1.074   4.968   1.852
15200TIP3   OH267014   1.356   4.903   3.365
15200TIP3    H167015   1.435   4.962   3.359
15200TIP3    H267016   1.286   4.970   3.368
15201TIP3   OH267017   0.200   4.640   3.624
15201TIP3    H167018   0.249   4.556   3.616
15201TIP3    H267019   0.183   4.641   3.719
15202TIP3   OH267020   0.670   4.755   2.132
15202TIP3    H167021   0.620   4.701   2.195
15202TIP3    H267022   0.700   4.688   2.067
15203TIP3   OH267023   0.597   4.535   3.361
15203TIP3    H167024   0.536   4.607   3.387
15203TIP3    H267025   0.636   4.573   3.280
15204TIP3   OH267026   0.777   4.577   1.952
15204TIP3    H167027   0.762   4.568   1.856
15204TIP3    H267028   0.875   4.582   1.958
15205TIP3   OH267029   1.104   4.793   3.694
15205TIP3    H167030   1.200   4.791   3.682
15205TIP3    H267031   1.087   4.716   3.751
15206TIP3   OH267032   1.711   4.809   1.893
15206TIP3    H167033   1.691   4.771   1.806
15206TIP3    H267034   1.720   4.905   1.874
15207TIP3   OH267035   0.640   4.274   3.466
15207TIP3    H167036   0.649   4.203   3.400
15207TIP3    H267037   0.631   4.355   3.412
15208TIP3   OH267038   0.678   4.112   3.222
15208TIP3    H167039   0.729   4.158   3.151
15208TIP3    H267040   0.589   4.104   3.181
15209TIP3   OH267041   0.831   4.660   3.246
15209TIP3    H167042   0.907   4.644   3.189
15209TIP3    H267043   0.795   4.744   3.212
15210TIP3   OH267044   1.271   4.436   3.742
15210TIP3    H167045   1.295   4.342   3.733
15210TIP3    H267046   1.357   4.480   3.745
15211TIP3   OH267047   1.405   4.715   3.559
15211TIP3    H167048   1.380   4.787   3.497
15211TIP3    H267049   1.501   4.712   3.540
15212TIP3   OH267050   0.481   4.400   3.657
15212TIP3    H167051   0.405   4.339   3.642
15212TIP3    H267052   0.547   4.362   3.597
15213TIP3   OH267053   0.756   3.855   3.260
15213TIP3    H167054   0.738   3.952   3.251
15213TIP3    H267055   0.682   3.819   3.210
15214TIP3   OH267056   0.884   4.288   3.623
15214TIP3    H167057   0.852   4.265   3.713
15214TIP3    H267058   0.806   4.268   3.569
15215TIP3   OH267059   1.156   4.203   3.532
15215TIP3    H167060   1.059   4.208   3.543
15215TIP3    H267061   1.182   4.139   3.601
15216TIP3   OH267062   1.314   4.064   3.722
15216TIP3    H167063   1.309   3.967   3.725
15216TIP3    H267064   1.289   4.094   3.812
15217TIP3   OH267065   0.306   4.190   3.637
15217TIP3    H167066   0.317   4.116   3.574
15217TIP3    H267067   0.285   4.144   3.721
15218TIP3   OH267068   0.778   3.795   3.531
15218TIP3    H167069   0.846   3.724   3.529
15218TIP3    H267070   0.767   3.809   3.435
15219TIP3   OH267071   0.814   3.956   3.742
15219TIP3    H167072   0.797   3.905   3.659
15219TIP3    H267073   0.754   4.032   3.732
15220TIP3   OH267074   0.761   5.647   2.060
15220TIP3    H167075   0.857   5.656   2.066
15220TIP3    H267076   0.746   5.707   1.986
15221TIP3   OH267077   0.120   5.105   2.008
15221TIP3    H167078   0.216   5.116   2.025
15221TIP3    H267079   0.124   5.040   1.934
15222TIP3   OH267080   7.338   5.659   2.486
15222TIP3    H167081   7.247   5.639   2.456
15222TIP3    H267082   7.347   5.596   2.562
15223TIP3   OH267083   0.079   5.461   2.686
15223TIP3    H167084   0.044   5.372   2.709
15223TIP3    H267085   0.104   5.489   2.776
15224TIP3   OH267086   1.830   5.536   2.984
15224TIP3    H167087   1.833   5.553   3.080
15224TIP3    H267088   1.901   5.595   2.953
15225TIP3   OH267089   1.788   5.496   3.278
15225TIP3    H167090   1.740   5.419   3.240
15225TIP3    H267091   1.836   5.451   3.350
15226TIP3   OH267092   1.632   5.068   3.746
15226TIP3    H167093   1.542   5.066   3.782
15226TIP3    H267094   1.670   5.149   3.787
15227TIP3   OH267095   1.764   4.901   2.288
15227TIP3    H167096   1.850   4.940   2.307
15227TIP3    H267097   1.762   4.829   2.355
15228TIP3   OH267098   1.800   4.709   2.477
15228TIP3    H167099   1.725   4.659   2.516
15228TIP3    H267100   1.860   4.722   2.554
15229TIP3   OH267101   1.775   4.978   2.976
15229TIP3    H167102   1.857   4.940   2.938
15229TIP3    H267103   1.790   5.073   2.958
15230TIP3   OH267104   1.631   5.269   3.202
15230TIP3    H167105   1.562   5.303   3.261
15230TIP3    H267106   1.577   5.228   3.132
15231TIP3   OH267107   1.830   4.691   2.116
15231TIP3    H167108   1.773   4.725   2.044
15231TIP3    H267109   1.820   4.762   2.182
15232TIP3   OH267110   1.668   4.414   1.967
15232TIP3    H167111   1.675   4.480   1.898
15232TIP3    H267112   1.649   4.331   1.918
15233TIP3   OH267113   1.582   4.556   2.534
15233TIP3    H167114   1.567   4.460   2.530
15233TIP3    H267115   1.549   4.577   2.623
15234TIP3   OH267116   0.084   4.763   2.932
15234TIP3    H167117   0.104   4.759   2.836
15234TIP3    H267118   0.172   4.752   2.974
15235TIP3   OH267119   1.668   4.753   3.503
15235TIP3    H167120   1.729   4.677   3.516
15235TIP3    H267121   1.728   4.830   3.503
15236TIP3   OH267122   1.818   4.541   3.568
15236TIP3    H167123   1.730   4.501   3.553
15236TIP3    H267124   1.875   4.462   3.561
15237TIP3   OH267125   1.592   4.161   1.881
15237TIP3    H167126   1.651   4.117   1.945
15237TIP3    H267127   1.506   4.120   1.896
15238TIP3   OH267128   1.546   4.314   2.375
15238TIP3    H167129   1.578   4.222   2.392
15238TIP3    H267130   1.629   4.355   2.345
15239TIP3   OH267131   1.613   4.369   2.924
15239TIP3    H167132   1.709   4.392   2.923
15239TIP3    H267133   1.594   4.383   3.018
15240TIP3   OH267134   1.619   4.441   3.203
15240TIP3    H167135   1.531   4.470   3.234
15240TIP3    H267136   1.663   4.527   3.180
15241TIP3   OH267137   0.071   4.281   3.553
15241TIP3    H167138   0.160   4.263   3.587
15241TIP3    H267139   0.014   4.213   3.595
15242TIP3   OH267140   1.846   3.847   3.736
15242TIP3    H167141   1.882   3.781   3.674
15242TIP3    H267142   1.857   3.929   3.683
15243TIP3   OH267143   1.616   4.043   2.384
15243TIP3    H167144   1.637   3.999   2.470
15243TIP3    H267145   1.556   3.979   2.341
15244TIP3   OH267146   0.168   4.120   2.836
15244TIP3    H167147   0.214   4.040   2.869
15244TIP3    H267148   0.218   4.190   2.881
15245TIP3   OH267149   0.050   4.499   2.980
15245TIP3    H167150   0.054   4.456   2.892
15245TIP3    H267151   0.058   4.590   2.952
15246TIP3   OH267152   1.798   4.057   3.572
15246TIP3    H167153   1.705   4.084   3.567
15246TIP3    H267154   1.802   4.002   3.492
15247TIP3   OH267155   1.797   4.046   2.040
15247TIP3    H167156   1.838   3.975   1.986
15247TIP3    H267157   1.868   4.112   2.044
15248TIP3   OH267158   0.076   4.045   2.308
15248TIP3    H167159  -0.019   4.064   2.321
15248TIP3    H267160   0.098   4.121   2.251
15249TIP3   OH267161   1.503   5.545   2.547
15249TIP3    H167162   1.571   5.515   2.484
15249TIP3    H267163   1.554   5.595   2.612
15250TIP3   OH267164   7.354   3.912   3.202
15250TIP3    H167165   7.276   3.891   3.255
15250TIP3    H267166   7.306   3.964   3.135
15251TIP3   OH267167   0.244   5.238   3.598
15251TIP3    H167168   0.160   5.255   3.555
15251TIP3    H267169   0.219   5.228   3.690
15252TIP3   OH267170   0.541   5.338   3.228
15252TIP3    H167171   0.501   5.421   3.198
15252TIP3    H267172   0.632   5.347   3.194
15253TIP3   OH267173   0.970   5.478   3.515
15253TIP3    H167174   0.983   5.442   3.606
15253TIP3    H267175   1.060   5.508   3.491
15254TIP3   OH267176   1.199   5.605   3.447
15254TIP3    H167177   1.272   5.546   3.423
15254TIP3    H267178   1.236   5.649   3.526
15255TIP3   OH267179   1.701   3.866   3.357
15255TIP3    H167180   1.618   3.896   3.316
15255TIP3    H267181   1.717   3.784   3.305
15256TIP3   OH267182   0.283   5.660   3.227
15256TIP3    H167183   0.208   5.709   3.187
15256TIP3    H267184   0.249   5.640   3.315
15257TIP3   OH267185   0.529   5.619   3.132
15257TIP3    H167186   0.438   5.631   3.170
15257TIP3    H267187   0.523   5.677   3.054
15258TIP3   OH267188   0.998   5.609   3.048
15258TIP3    H167189   0.951   5.664   2.984
15258TIP3    H267190   1.011   5.672   3.123
15259TIP3   OH267191   1.226   5.489   3.152
15259TIP3    H167192   1.141   5.517   3.115
15259TIP3    H267193   1.275   5.573   3.142
15260TIP3   OH267194   1.485   5.646   3.174
15260TIP3    H167195   1.479   5.742   3.151
15260TIP3    H267196   1.506   5.609   3.086
15261TIP3   OH267197   0.221   5.524   2.918
15261TIP3    H167198   0.220   5.480   3.005
15261TIP3    H267199   0.302   5.487   2.879
15262TIP3   OH267200   0.431   5.396   2.785
15262TIP3    H167201   0.415   5.302   2.808
15262TIP3    H267202   0.517   5.411   2.829
15263TIP3   OH267203   0.692   5.443   2.872
15263TIP3    H167204   0.710   5.351   2.846
15263TIP3    H267205   0.699   5.438   2.969
15264TIP3   OH267206   1.039   4.009   2.786
15264TIP3    H167207   0.972   3.945   2.814
15264TIP3    H267208   1.095   3.955   2.727
15265TIP3   OH267209   1.553   3.813   2.792
15265TIP3    H167210   1.614   3.873   2.741
15265TIP3    H267211   1.465   3.850   2.769
15266TIP3   OH267212   1.720   3.939   2.620
15266TIP3    H167213   1.789   3.881   2.578
15266TIP3    H267214   1.771   4.022   2.630
15267TIP3   OH267215   0.277   3.871   2.573
15267TIP3    H167216   0.200   3.850   2.517
15267TIP3    H267217   0.326   3.786   2.563
15268TIP3   OH267218   0.155   3.844   2.138
15268TIP3    H167219   0.206   3.911   2.090
15268TIP3    H267220   0.099   3.901   2.194
15269TIP3   OH267221   0.723   3.864   2.549
15269TIP3    H167222   0.814   3.899   2.541
15269TIP3    H267223   0.720   3.842   2.642
15270TIP3   OH267224   1.295   3.866   2.711
15270TIP3    H167225   1.290   3.877   2.616
15270TIP3    H267226   1.257   3.775   2.724
15271TIP3   OH267227   1.422   3.869   2.280
15271TIP3    H167228   1.347   3.928   2.264
15271TIP3    H267229   1.378   3.783   2.303
15272TIP3   OH267230   0.145   5.445   2.248
15272TIP3    H167231   0.085   5.442   2.173
15272TIP3    H267232   0.147   5.541   2.262
15273TIP3   OH267233   0.335   4.041   1.997
15273TIP3    H167234   0.388   3.981   1.941
15273TIP3    H267235   0.405   4.072   2.057
15274TIP3   OH267236   0.839   4.065   2.234
15274TIP3    H167237   0.864   4.007   2.308
15274TIP3    H267238   0.846   4.152   2.280
15275TIP3   OH267239   1.032   5.573   2.079
15275TIP3    H167240   1.124   5.595   2.057
15275TIP3    H267241   1.010   5.521   1.999
15276TIP3   OH267242   1.701   5.523   2.351
15276TIP3    H167243   1.683   5.444   2.294
15276TIP3    H267244   1.695   5.596   2.286
15277TIP3   OH267245   0.259   3.927   3.519
15277TIP3    H167246   0.226   3.842   3.554
15277TIP3    H267247   0.352   3.921   3.553
15278TIP3   OH267248   0.465   3.863   3.679
15278TIP3    H167249   0.555   3.829   3.658
15278TIP3    H267250   0.426   3.783   3.719
15279TIP3   OH267251   0.324   5.537   1.938
15279TIP3    H167252   0.299   5.565   2.027
15279TIP3    H267253   0.405   5.485   1.955
15280TIP3   OH267254   1.305   3.792   3.695
15280TIP3    H167255   1.315   3.745   3.780
15280TIP3    H267256   1.397   3.789   3.660
15281TIP3   OH267257   1.627   5.398   3.559
15281TIP3    H167258   1.547   5.384   3.504
15281TIP3    H267259   1.615   5.492   3.580
15282TIP3   OH267260   3.063   4.786   2.561
15282TIP3    H167261   3.073   4.883   2.549
15282TIP3    H267262   3.002   4.760   2.490
15283TIP3   OH267263   2.951   4.713   2.904
15283TIP3    H167264   2.957   4.649   2.977
15283TIP3    H267265   2.923   4.656   2.831
15284TIP3   OH267266   2.192   4.678   3.060
15284TIP3    H167267   2.200   4.610   3.130
15284TIP3    H267268   2.267   4.736   3.083
15285TIP3   OH267269   3.321   5.006   2.734
15285TIP3    H167270   3.287   4.933   2.786
15285TIP3    H267271   3.327   5.076   2.801
15286TIP3   OH267272   2.285   5.124   2.908
15286TIP3    H167273   2.252   5.036   2.881
15286TIP3    H267274   2.379   5.105   2.918
15287TIP3   OH267275   1.949   4.479   2.461
15287TIP3    H167276   1.905   4.566   2.454
15287TIP3    H267277   1.892   4.425   2.404
15288TIP3   OH267278   2.021   4.702   2.675
15288TIP3    H167279   2.047   4.619   2.720
15288TIP3    H267280   2.089   4.712   2.608
15289TIP3   OH267281   3.037   5.522   2.758
15289TIP3    H167282   3.102   5.453   2.730
15289TIP3    H267283   3.015   5.488   2.845
15290TIP3   OH267284   2.795   4.955   2.944
15290TIP3    H167285   2.833   4.881   2.896
15290TIP3    H267286   2.870   4.968   3.006
15291TIP3   OH267287   3.653   4.117   3.026
15291TIP3    H167288   3.671   4.176   3.102
15291TIP3    H267289   3.710   4.159   2.960
15292TIP3   OH267290   3.111   4.398   2.985
15292TIP3    H167291   3.127   4.302   2.985
15292TIP3    H267292   3.100   4.412   2.889
15293TIP3   OH267293   2.425   4.206   2.704
15293TIP3    H167294   2.431   4.292   2.659
15293TIP3    H267295   2.377   4.150   2.639
15294TIP3   OH267296   3.196   4.214   2.543
15294TIP3    H167297   3.261   4.183   2.610
15294TIP3    H267298   3.252   4.272   2.490
15295TIP3   OH267299   2.085   4.448   2.779
15295TIP3    H167300   2.151   4.393   2.825
15295TIP3    H267301   2.095   4.416   2.688
15296TIP3   OH267302   2.604   4.606   2.711
15296TIP3    H167303   2.667   4.543   2.752
15296TIP3    H267304   2.549   4.540   2.663
15297TIP3   OH267305   3.697   4.257   3.253
15297TIP3    H167306   3.637   4.334   3.242
15297TIP3    H267307   3.701   4.249   3.349
15298TIP3   OH267308   2.313   4.096   3.110
15298TIP3    H167309   2.285   4.154   3.036
15298TIP3    H267310   2.245   4.119   3.178
15299TIP3   OH267311   3.030   5.042   2.468
15299TIP3    H167312   3.021   5.019   2.374
15299TIP3    H267313   3.014   5.139   2.468
15300TIP3   OH267314   2.563   4.861   3.130
15300TIP3    H167315   2.493   4.924   3.157
15300TIP3    H267316   2.635   4.922   3.110
15301TIP3   OH267317   3.377   4.149   2.742
15301TIP3    H167318   3.355   4.072   2.796
15301TIP3    H267319   3.444   4.193   2.798
15302TIP3   OH267320   2.270   4.283   2.914
15302TIP3    H167321   2.333   4.351   2.946
15302TIP3    H267322   2.322   4.241   2.841
15303TIP3   OH267323   2.409   5.061   3.216
15303TIP3    H167324   2.404   5.153   3.182
15303TIP3    H267325   2.321   5.053   3.260
15304TIP3   OH267326   2.018   5.022   2.295
15304TIP3    H167327   1.992   5.056   2.208
15304TIP3    H267328   2.024   5.105   2.347
15305TIP3   OH267329   3.378   5.189   2.971
15305TIP3    H167330   3.281   5.201   2.983
15305TIP3    H267331   3.405   5.281   2.951
15306TIP3   OH267332   3.410   4.018   3.110
15306TIP3    H167333   3.338   4.081   3.101
15306TIP3    H267334   3.482   4.060   3.058
15307TIP3   OH267335   2.707   3.830   2.857
15307TIP3    H167336   2.692   3.733   2.850
15307TIP3    H267337   2.619   3.860   2.887
15308TIP3   OH267338   3.203   5.368   2.629
15308TIP3    H167339   3.247   5.296   2.579
15308TIP3    H267340   3.247   5.447   2.591
15309TIP3   OH267341   3.324   5.160   2.482
15309TIP3    H167342   3.295   5.090   2.421
15309TIP3    H267343   3.328   5.111   2.566
15310TIP3   OH267344   3.486   5.020   3.331
15310TIP3    H167345   3.501   4.955   3.260
15310TIP3    H267346   3.507   5.104   3.287
15311TIP3   OH267347   2.937   4.713   2.310
15311TIP3    H167348   2.867   4.766   2.268
15311TIP3    H267349   3.007   4.717   2.242
15312TIP3   OH267350   2.944   4.565   2.009
15312TIP3    H167351   3.016   4.565   2.074
15312TIP3    H267352   2.975   4.494   1.952
15313TIP3   OH267353   3.675   4.651   3.135
15313TIP3    H167354   3.610   4.724   3.139
15313TIP3    H267355   3.725   4.675   3.055
15314TIP3   OH267356   3.283   4.729   2.400
15314TIP3    H167357   3.209   4.753   2.460
15314TIP3    H267358   3.330   4.662   2.452
15315TIP3   OH267359   3.274   4.546   3.312
15315TIP3    H167360   3.275   4.628   3.364
15315TIP3    H267361   3.211   4.575   3.243
15316TIP3   OH267362   2.449   4.797   2.591
15316TIP3    H167363   2.408   4.758   2.509
15316TIP3    H267364   2.500   4.721   2.625
15317TIP3   OH267365   2.577   5.137   2.859
15317TIP3    H167366   2.568   5.083   2.781
15317TIP3    H267367   2.652   5.099   2.908
15318TIP3   OH267368   2.475   4.671   2.958
15318TIP3    H167369   2.530   4.679   2.878
15318TIP3    H267370   2.514   4.737   3.020
15319TIP3   OH267371   3.118   5.228   3.029
15319TIP3    H167372   3.088   5.292   3.094
15319TIP3    H267373   3.093   5.143   3.072
15320TIP3   OH267374   2.571   5.114   3.427
15320TIP3    H167375   2.529   5.187   3.476
15320TIP3    H267376   2.503   5.094   3.357
15321TIP3   OH267377   3.169   4.651   2.166
15321TIP3    H167378   3.225   4.668   2.246
15321TIP3    H267379   3.214   4.700   2.094
15322TIP3   OH267380   2.265   4.730   3.342
15322TIP3    H167381   2.270   4.796   3.414
15322TIP3    H267382   2.171   4.738   3.321
15323TIP3   OH267383   2.936   5.319   2.517
15323TIP3    H167384   2.984   5.353   2.593
15323TIP3    H267385   2.886   5.397   2.489
15324TIP3   OH267386   2.395   5.317   3.502
15324TIP3    H167387   2.389   5.307   3.405
15324TIP3    H267388   2.302   5.304   3.529
15325TIP3   OH267389   3.541   3.823   2.157
15325TIP3    H167390   3.447   3.835   2.181
15325TIP3    H267391   3.562   3.907   2.112
15326TIP3   OH267392   2.339   4.700   2.357
15326TIP3    H167393   2.310   4.776   2.302
15326TIP3    H267394   2.276   4.633   2.331
15327TIP3   OH267395   3.653   5.259   1.991
15327TIP3    H167396   3.669   5.353   2.008
15327TIP3    H267397   3.745   5.227   1.991
15328TIP3   OH267398   1.948   4.941   3.243
15328TIP3    H167399   1.904   4.933   3.157
15328TIP3    H267400   1.956   4.846   3.264
15329TIP3   OH267401   1.924   5.215   2.920
15329TIP3    H167402   2.020   5.203   2.918
15329TIP3    H267403   1.916   5.296   2.971
15330TIP3   OH267404   3.748   5.285   3.490
15330TIP3    H167405   3.736   5.189   3.487
15330TIP3    H267406   3.661   5.310   3.528
15331TIP3   OH267407   2.844   5.239   3.375
15331TIP3    H167408   2.850   5.323   3.427
15331TIP3    H267409   2.757   5.203   3.401
15332TIP3   OH267410   2.889   5.613   2.354
15332TIP3    H167411   2.877   5.606   2.258
15332TIP3    H267412   2.888   5.710   2.370
15333TIP3   OH267413   2.252   5.501   2.537
15333TIP3    H167414   2.266   5.460   2.625
15333TIP3    H267415   2.167   5.461   2.513
15334TIP3   OH267416   3.194   5.534   2.053
15334TIP3    H167417   3.240   5.459   2.009
15334TIP3    H267418   3.198   5.508   2.147
15335TIP3   OH267419   3.164   5.528   2.331
15335TIP3    H167420   3.067   5.536   2.348
15335TIP3    H267421   3.187   5.454   2.388
15336TIP3   OH267422   3.463   4.432   3.536
15336TIP3    H167423   3.415   4.477   3.465
15336TIP3    H267424   3.461   4.340   3.506
15337TIP3   OH267425   2.177   5.073   3.337
15337TIP3    H167426   2.199   5.036   3.425
15337TIP3    H267427   2.090   5.033   3.316
15338TIP3   OH267428   2.445   3.920   2.932
15338TIP3    H167429   2.355   3.907   2.895
15338TIP3    H267430   2.432   4.003   2.980
15339TIP3   OH267431   2.909   3.887   3.268
15339TIP3    H167432   2.949   3.844   3.347
15339TIP3    H267433   2.812   3.875   3.283
15340TIP3   OH267434   3.238   4.271   3.358
15340TIP3    H167435   3.182   4.250   3.436
15340TIP3    H267436   3.220   4.364   3.335
15341TIP3   OH267437   3.314   4.753   1.947
15341TIP3    H167438   3.312   4.734   1.851
15341TIP3    H267439   3.400   4.798   1.953
15342TIP3   OH267440   2.871   4.146   1.999
15342TIP3    H167441   2.844   4.139   2.091
15342TIP3    H267442   2.844   4.057   1.967
15343TIP3   OH267443   2.455   4.418   3.057
15343TIP3    H167444   2.381   4.417   3.121
15343TIP3    H267445   2.450   4.509   3.020
15344TIP3   OH267446   2.453   4.429   2.544
15344TIP3    H167447   2.358   4.407   2.531
15344TIP3    H267448   2.489   4.404   2.458
15345TIP3   OH267449   3.002   4.482   2.423
15345TIP3    H167450   2.963   4.562   2.383
15345TIP3    H267451   3.071   4.462   2.356
15346TIP3   OH267452   2.909   4.500   3.564
15346TIP3    H167453   2.856   4.423   3.595
15346TIP3    H267454   2.992   4.488   3.612
15347TIP3   OH267455   3.108   4.428   2.706
15347TIP3    H167456   3.080   4.483   2.631
15347TIP3    H267457   3.116   4.343   2.659
15348TIP3   OH267458   2.217   4.442   3.225
15348TIP3    H167459   2.226   4.483   3.313
15348TIP3    H267460   2.173   4.359   3.246
15349TIP3   OH267461   2.558   4.186   1.904
15349TIP3    H167462   2.511   4.143   1.978
15349TIP3    H267463   2.485   4.228   1.856
15350TIP3   OH267464   1.883   4.153   2.624
15350TIP3    H167465   1.952   4.149   2.694
15350TIP3    H267466   1.928   4.116   2.546
15351TIP3   OH267467   2.013   4.225   2.161
15351TIP3    H167468   2.059   4.287   2.101
15351TIP3    H267469   1.942   4.285   2.192
15352TIP3   OH267470   3.026   4.587   3.160
15352TIP3    H167471   3.064   4.518   3.102
15352TIP3    H267472   2.980   4.534   3.228
15353TIP3   OH267473   2.704   4.182   2.642
15353TIP3    H167474   2.612   4.186   2.677
15353TIP3    H267475   2.755   4.168   2.724
15354TIP3   OH267476   2.190   4.339   2.529
15354TIP3    H167477   2.099   4.356   2.493
15354TIP3    H267478   2.213   4.254   2.489
15355TIP3   OH267479   2.552   4.337   2.292
15355TIP3    H167480   2.646   4.358   2.311
15355TIP3    H267481   2.527   4.411   2.231
15356TIP3   OH267482   3.147   4.108   2.968
15356TIP3    H167483   3.079   4.113   3.039
15356TIP3    H267484   3.096   4.082   2.890
15357TIP3   OH267485   2.425   4.456   2.054
15357TIP3    H167486   2.369   4.426   1.980
15357TIP3    H267487   2.504   4.484   2.005
15358TIP3   OH267488   3.467   5.672   3.601
15358TIP3    H167489   3.494   5.711   3.515
15358TIP3    H267490   3.540   5.704   3.657
15359TIP3   OH267491   2.235   4.919   3.558
15359TIP3    H167492   2.307   4.944   3.618
15359TIP3    H267493   2.158   4.927   3.618
15360TIP3   OH267494   2.836   4.461   2.833
15360TIP3    H167495   2.895   4.406   2.781
15360TIP3    H267496   2.820   4.405   2.912
15361TIP3   OH267497   2.326   4.075   2.474
15361TIP3    H167498   2.294   3.982   2.484
15361TIP3    H267499   2.412   4.063   2.445
15362TIP3   OH267500   2.699   4.293   3.075
15362TIP3    H167501   2.616   4.345   3.084
15362TIP3    H267502   2.754   4.328   3.147
15363TIP3   OH267503   2.758   4.913   2.244
15363TIP3    H167504   2.678   4.869   2.208
15363TIP3    H267505   2.730   4.930   2.335
15364TIP3   OH267506   3.476   4.836   3.125
15364TIP3    H167507   3.533   4.884   3.062
15364TIP3    H267508   3.390   4.840   3.078
15365TIP3   OH267509   3.140   4.196   2.063
15365TIP3    H167510   3.045   4.212   2.049
15365TIP3    H267511   3.174   4.282   2.097
15366TIP3   OH267512   2.907   4.942   3.369
15366TIP3    H167513   2.872   4.899   3.448
15366TIP3    H267514   2.881   5.034   3.380
15367TIP3   OH267515   3.214   4.389   2.225
15367TIP3    H167516   3.302   4.375   2.265
15367TIP3    H267517   3.225   4.471   2.173
15368TIP3   OH267518   2.271   4.855   2.825
15368TIP3    H167519   2.335   4.845   2.753
15368TIP3    H267520   2.272   4.769   2.870
15369TIP3   OH267521   2.968   5.062   2.151
15369TIP3    H167522   2.932   5.148   2.182
15369TIP3    H267523   2.893   5.000   2.168
15370TIP3   OH267524   1.968   4.695   3.351
15370TIP3    H167525   1.984   4.650   3.436
15370TIP3    H267526   1.905   4.634   3.307
15371TIP3   OH267527   2.669   4.651   3.568
15371TIP3    H167528   2.637   4.620   3.482
15371TIP3    H267529   2.761   4.618   3.568
15372TIP3   OH267530   3.137   5.184   3.364
15372TIP3    H167531   3.045   5.203   3.341
15372TIP3    H267532   3.134   5.214   3.457
15373TIP3   OH267533   3.705   4.402   2.202
15373TIP3    H167534   3.647   4.374   2.128
15373TIP3    H267535   3.712   4.497   2.177
15374TIP3   OH267536   3.703   4.989   3.483
15374TIP3    H167537   3.614   5.011   3.447
15374TIP3    H267538   3.757   4.984   3.402
15375TIP3   OH267539   3.529   5.285   2.242
15375TIP3    H167540   3.497   5.202   2.277
15375TIP3    H267541   3.565   5.263   2.154
15376TIP3   OH267542   3.255   4.767   2.953
15376TIP3    H167543   3.161   4.745   2.944
15376TIP3    H267544   3.297   4.691   2.909
15377TIP3   OH267545   2.508   5.201   2.566
15377TIP3    H167546   2.554   5.284   2.542
15377TIP3    H267547   2.419   5.222   2.531
15378TIP3   OH267548   2.083   4.684   2.020
15378TIP3    H167549   2.140   4.751   2.061
15378TIP3    H267550   1.993   4.715   2.045
15379TIP3   OH267551   2.621   4.973   2.485
15379TIP3    H167552   2.601   5.067   2.509
15379TIP3    H267553   2.553   4.924   2.537
15380TIP3   OH267554   2.693   5.385   3.156
15380TIP3    H167555   2.739   5.466   3.127
15380TIP3    H267556   2.754   5.351   3.223
15381TIP3   OH267557   2.515   5.465   2.468
15381TIP3    H167558   2.419   5.480   2.481
15381TIP3    H267559   2.552   5.549   2.502
15382TIP3   OH267560   3.041   4.982   3.114
15382TIP3    H167561   3.012   4.967   3.206
15382TIP3    H267562   3.110   4.915   3.102
15383TIP3   OH267563   3.279   5.093   2.027
15383TIP3    H167564   3.308   5.045   2.107
15383TIP3    H267565   3.183   5.074   2.035
15384TIP3   OH267566   3.327   5.443   3.366
15384TIP3    H167567   3.257   5.394   3.319
15384TIP3    H267568   3.345   5.513   3.300
15385TIP3   OH267569   3.725   5.526   2.052
15385TIP3    H167570   3.795   5.592   2.032
15385TIP3    H267571   3.654   5.587   2.081
15386TIP3   OH267572   2.133   4.168   3.305
15386TIP3    H167573   2.042   4.204   3.304
15386TIP3    H267574   2.121   4.084   3.352
15387TIP3   OH267575   3.356   4.956   2.251
15387TIP3    H167576   3.332   4.877   2.304
15387TIP3    H267577   3.452   4.960   2.269
15388TIP3   OH267578   2.095   5.346   3.148
15388TIP3    H167579   2.124   5.254   3.149
15388TIP3    H267580   2.120   5.376   3.236
15389TIP3   OH267581   2.691   5.200   1.876
15389TIP3    H167582   2.701   5.123   1.817
15389TIP3    H267583   2.647   5.156   1.953
15390TIP3   OH267584   2.569   5.152   2.121
15390TIP3    H167585   2.595   5.100   2.198
15390TIP3    H267586   2.578   5.245   2.154
15391TIP3   OH267587   2.223   4.877   2.170
15391TIP3    H167588   2.151   4.917   2.224
15391TIP3    H267589   2.274   4.955   2.141
15392TIP3   OH267590   3.006   4.146   3.202
15392TIP3    H167591   3.077   4.152   3.266
15392TIP3    H267592   2.967   4.058   3.222
15393TIP3   OH267593   3.077   4.104   2.311
15393TIP3    H167594   3.103   4.149   2.228
15393TIP3    H267595   3.137   4.146   2.373
15394TIP3   OH267596   2.849   5.318   2.191
15394TIP3    H167597   2.767   5.371   2.198
15394TIP3    H267598   2.903   5.373   2.132
15395TIP3   OH267599   2.802   4.276   2.393
15395TIP3    H167600   2.880   4.336   2.396
15395TIP3    H267601   2.779   4.267   2.487
15396TIP3   OH267602   2.859   4.380   3.312
15396TIP3    H167603   2.866   4.436   3.391
15396TIP3    H267604   2.925   4.311   3.321
15397TIP3   OH267605   2.885   3.985   2.476
15397TIP3    H167606   2.859   4.047   2.547
15397TIP3    H267607   2.960   4.037   2.438
15398TIP3   OH267608   2.590   5.423   2.194
15398TIP3    H167609   2.599   5.505   2.139
15398TIP3    H267610   2.562   5.459   2.281
15399TIP3   OH267611   2.447   4.102   2.125
15399TIP3    H167612   2.444   4.193   2.163
15399TIP3    H267613   2.541   4.073   2.135
15400TIP3   OH267614   3.476   4.167   3.396
15400TIP3    H167615   3.384   4.199   3.383
15400TIP3    H267616   3.506   4.166   3.304
15401TIP3   OH267617   3.338   4.546   2.796
15401TIP3    H167618   3.255   4.502   2.769
15401TIP3    H267619   3.386   4.477   2.848
15402TIP3   OH267620   2.276   5.139   2.055
15402TIP3    H167621   2.343   5.201   2.087
15402TIP3    H267622   2.330   5.091   1.988
15403TIP3   OH267623   2.112   4.406   1.970
15403TIP3    H167624   2.113   4.501   1.992
15403TIP3    H267625   2.022   4.388   1.939
15404TIP3   OH267626   3.444   5.472   2.964
15404TIP3    H167627   3.435   5.540   2.894
15404TIP3    H267628   3.540   5.477   2.981
15405TIP3   OH267629   2.193   3.884   2.845
15405TIP3    H167630   2.173   3.885   2.749
15405TIP3    H267631   2.152   3.799   2.870
15406TIP3   OH267632   2.090   5.276   2.460
15406TIP3    H167633   2.004   5.321   2.455
15406TIP3    H267634   2.137   5.322   2.390
15407TIP3   OH267635   2.010   5.541   3.588
15407TIP3    H167636   2.070   5.522   3.663
15407TIP3    H267637   1.969   5.455   3.570
15408TIP3   OH267638   2.478   5.433   3.747
15408TIP3    H167639   2.554   5.383   3.781
15408TIP3    H267640   2.475   5.405   3.654
15409TIP3   OH267641   2.891   5.385   1.889
15409TIP3    H167642   2.822   5.319   1.911
15409TIP3    H267643   2.963   5.325   1.863
15410TIP3   OH267644   3.128   5.272   3.623
15410TIP3    H167645   3.096   5.183   3.651
15410TIP3    H267646   3.205   5.284   3.682
15411TIP3   OH267647   3.347   5.359   1.907
15411TIP3    H167648   3.376   5.281   1.958
15411TIP3    H267649   3.423   5.382   1.852
15412TIP3   OH267650   2.000   4.919   3.687
15412TIP3    H167651   2.017   4.827   3.657
15412TIP3    H267652   1.926   4.944   3.630
15413TIP3   OH267653   2.436   4.953   1.890
15413TIP3    H167654   2.450   4.878   1.949
15413TIP3    H267655   2.510   4.941   1.828
15414TIP3   OH267656   2.672   4.917   3.626
15414TIP3    H167657   2.638   4.949   3.539
15414TIP3    H267658   2.679   4.820   3.615
15415TIP3   OH267659   2.978   5.064   1.867
15415TIP3    H167660   2.951   5.072   1.960
15415TIP3    H267661   2.959   4.968   1.852
15416TIP3   OH267662   3.242   4.903   3.365
15416TIP3    H167663   3.320   4.962   3.359
15416TIP3    H267664   3.172   4.970   3.369
15417TIP3   OH267665   2.093   4.641   3.625
15417TIP3    H167666   2.134   4.555   3.616
15417TIP3    H267667   2.069   4.642   3.719
15418TIP3   OH267668   2.557   4.755   2.133
15418TIP3    H167669   2.504   4.701   2.193
15418TIP3    H267670   2.586   4.688   2.067
15419TIP3   OH267671   2.482   4.536   3.360
15419TIP3    H167672   2.423   4.608   3.386
15419TIP3    H267673   2.522   4.572   3.280
15420TIP3   OH267674   2.663   4.577   1.952
15420TIP3    H167675   2.648   4.568   1.855
15420TIP3    H267676   2.760   4.581   1.959
15421TIP3   OH267677   2.990   4.792   3.694
15421TIP3    H167678   3.086   4.791   3.684
15421TIP3    H267679   2.972   4.716   3.751
15422TIP3   OH267680   3.596   4.809   1.893
15422TIP3    H167681   3.577   4.771   1.806
15422TIP3    H267682   3.605   4.905   1.874
15423TIP3   OH267683   2.523   4.273   3.466
15423TIP3    H167684   2.535   4.203   3.400
15423TIP3    H267685   2.518   4.354   3.411
15424TIP3   OH267686   2.563   4.112   3.221
15424TIP3    H167687   2.614   4.158   3.150
15424TIP3    H267688   2.474   4.104   3.181
15425TIP3   OH267689   2.717   4.661   3.246
15425TIP3    H167690   2.792   4.644   3.189
15425TIP3    H267691   2.680   4.744   3.213
15426TIP3   OH267692   3.157   4.436   3.742
15426TIP3    H167693   3.180   4.342   3.733
15426TIP3    H267694   3.243   4.480   3.745
15427TIP3   OH267695   3.291   4.715   3.559
15427TIP3    H167696   3.266   4.787   3.497
15427TIP3    H267697   3.387   4.712   3.540
15428TIP3   OH267698   2.369   4.398   3.658
15428TIP3    H167699   2.292   4.341   3.642
15428TIP3    H267700   2.434   4.362   3.596
15429TIP3   OH267701   2.642   3.855   3.260
15429TIP3    H167702   2.624   3.952   3.251
15429TIP3    H267703   2.567   3.819   3.210
15430TIP3   OH267704   2.769   4.288   3.623
15430TIP3    H167705   2.738   4.265   3.713
15430TIP3    H267706   2.691   4.268   3.569
15431TIP3   OH267707   3.041   4.203   3.532
15431TIP3    H167708   2.945   4.208   3.543
15431TIP3    H267709   3.068   4.139   3.601
15432TIP3   OH267710   3.199   4.065   3.722
15432TIP3    H167711   3.195   3.967   3.725
15432TIP3    H267712   3.175   4.094   3.812
15433TIP3   OH267713   2.177   4.192   3.634
15433TIP3    H167714   2.202   4.119   3.575
15433TIP3    H267715   2.168   4.147   3.720
15434TIP3   OH267716   2.664   3.795   3.531
15434TIP3    H167717   2.732   3.724   3.529
15434TIP3    H267718   2.652   3.809   3.435
15435TIP3   OH267719   2.700   3.956   3.742
15435TIP3    H167720   2.682   3.905   3.659
15435TIP3    H267721   2.640   4.032   3.732
15436TIP3   OH267722   2.646   5.647   2.060
15436TIP3    H167723   2.743   5.656   2.066
15436TIP3    H267724   2.631   5.708   1.986
15437TIP3   OH267725   2.001   5.105   2.007
15437TIP3    H167726   2.098   5.114   2.025
15437TIP3    H267727   2.007   5.040   1.932
15438TIP3   OH267728   1.880   5.643   2.503
15438TIP3    H167729   1.808   5.595   2.457
15438TIP3    H267730   1.908   5.578   2.570
15439TIP3   OH267731   1.962   5.457   2.691
15439TIP3    H167732   1.927   5.369   2.711
15439TIP3    H267733   1.985   5.490   2.779
15440TIP3   OH267734   3.716   5.536   2.984
15440TIP3    H167735   3.719   5.552   3.080
15440TIP3    H267736   3.786   5.595   2.953
15441TIP3   OH267737   3.673   5.496   3.278
15441TIP3    H167738   3.626   5.419   3.240
15441TIP3    H267739   3.722   5.451   3.349
15442TIP3   OH267740   3.518   5.068   3.746
15442TIP3    H167741   3.427   5.065   3.782
15442TIP3    H267742   3.555   5.149   3.787
15443TIP3   OH267743   3.649   4.901   2.288
15443TIP3    H167744   3.736   4.940   2.307
15443TIP3    H267745   3.648   4.829   2.355
15444TIP3   OH267746   3.685   4.709   2.477
15444TIP3    H167747   3.610   4.659   2.516
15444TIP3    H267748   3.745   4.722   2.554
15445TIP3   OH267749   3.661   4.978   2.976
15445TIP3    H167750   3.742   4.940   2.938
15445TIP3    H267751   3.676   5.074   2.959
15446TIP3   OH267752   3.517   5.269   3.202
15446TIP3    H167753   3.448   5.303   3.261
15446TIP3    H267754   3.462   5.229   3.132
15447TIP3   OH267755   3.715   4.691   2.116
15447TIP3    H167756   3.659   4.725   2.044
15447TIP3    H267757   3.705   4.762   2.182
15448TIP3   OH267758   3.553   4.413   1.967
15448TIP3    H167759   3.560   4.480   1.898
15448TIP3    H267760   3.534   4.331   1.918
15449TIP3   OH267761   3.467   4.556   2.534
15449TIP3    H167762   3.452   4.460   2.530
15449TIP3    H267763   3.435   4.577   2.623
15450TIP3   OH267764   1.968   4.765   2.940
15450TIP3    H167765   1.986   4.756   2.844
15450TIP3    H267766   2.057   4.747   2.975
15451TIP3   OH267767   3.554   4.753   3.503
15451TIP3    H167768   3.615   4.677   3.516
15451TIP3    H267769   3.614   4.830   3.503
15452TIP3   OH267770   3.704   4.541   3.568
15452TIP3    H167771   3.615   4.501   3.553
15452TIP3    H267772   3.761   4.462   3.561
15453TIP3   OH267773   3.478   4.161   1.881
15453TIP3    H167774   3.537   4.117   1.945
15453TIP3    H267775   3.391   4.119   1.896
15454TIP3   OH267776   3.432   4.314   2.376
15454TIP3    H167777   3.464   4.222   2.392
15454TIP3    H267778   3.514   4.355   2.345
15455TIP3   OH267779   3.498   4.369   2.924
15455TIP3    H167780   3.594   4.392   2.923
15455TIP3    H267781   3.479   4.383   3.018
15456TIP3   OH267782   3.505   4.441   3.203
15456TIP3    H167783   3.416   4.470   3.234
15456TIP3    H267784   3.548   4.527   3.180
15457TIP3   OH267785   1.930   4.295   3.556
15457TIP3    H167786   2.024   4.273   3.575
15457TIP3    H267787   1.884   4.212   3.583
15458TIP3   OH267788   3.732   3.847   3.736
15458TIP3    H167789   3.767   3.781   3.674
15458TIP3    H267790   3.742   3.929   3.683
15459TIP3   OH267791   3.502   4.043   2.385
15459TIP3    H167792   3.523   3.999   2.470
15459TIP3    H267793   3.442   3.979   2.341
15460TIP3   OH267794   2.050   4.124   2.840
15460TIP3    H167795   2.096   4.041   2.866
15460TIP3    H267796   2.105   4.193   2.879
15461TIP3   OH267797   1.878   4.424   2.944
15461TIP3    H167798   1.934   4.399   2.868
15461TIP3    H267799   1.925   4.504   2.971
15462TIP3   OH267800   3.684   4.057   3.572
15462TIP3    H167801   3.590   4.084   3.567
15462TIP3    H267802   3.687   4.002   3.492
15463TIP3   OH267803   3.683   4.046   2.040
15463TIP3    H167804   3.724   3.975   1.986
15463TIP3    H267805   3.754   4.113   2.045
15464TIP3   OH267806   1.917   4.051   2.352
15464TIP3    H167807   1.822   4.066   2.337
15464TIP3    H267808   1.956   4.099   2.278
15465TIP3   OH267809   3.388   5.545   2.547
15465TIP3    H167810   3.457   5.515   2.484
15465TIP3    H267811   3.440   5.595   2.612
15466TIP3   OH267812   1.909   3.915   3.181
15466TIP3    H167813   1.842   3.896   3.249
15466TIP3    H267814   1.864   3.982   3.127
15467TIP3   OH267815   2.133   5.234   3.597
15467TIP3    H167816   2.049   5.258   3.555
15467TIP3    H267817   2.107   5.227   3.689
15468TIP3   OH267818   2.424   5.334   3.224
15468TIP3    H167819   2.391   5.422   3.198
15468TIP3    H267820   2.517   5.344   3.194
15469TIP3   OH267821   2.855   5.478   3.515
15469TIP3    H167822   2.869   5.443   3.606
15469TIP3    H267823   2.946   5.508   3.491
15470TIP3   OH267824   3.084   5.605   3.446
15470TIP3    H167825   3.157   5.546   3.423
15470TIP3    H267826   3.122   5.649   3.526
15471TIP3   OH267827   3.586   3.866   3.357
15471TIP3    H167828   3.503   3.896   3.316
15471TIP3    H267829   3.603   3.784   3.305
15472TIP3   OH267830   2.166   5.659   3.224
15472TIP3    H167831   2.093   5.709   3.185
15472TIP3    H267832   2.135   5.640   3.314
15473TIP3   OH267833   2.413   5.617   3.132
15473TIP3    H167834   2.323   5.632   3.171
15473TIP3    H267835   2.407   5.676   3.054
15474TIP3   OH267836   2.883   5.608   3.048
15474TIP3    H167837   2.836   5.663   2.984
15474TIP3    H267838   2.896   5.671   3.122
15475TIP3   OH267839   3.112   5.489   3.152
15475TIP3    H167840   3.027   5.517   3.115
15475TIP3    H267841   3.161   5.573   3.142
15476TIP3   OH267842   3.370   5.646   3.174
15476TIP3    H167843   3.365   5.742   3.151
15476TIP3    H267844   3.392   5.609   3.086
15477TIP3   OH267845   2.112   5.524   2.919
15477TIP3    H167846   2.104   5.478   3.005
15477TIP3    H267847   2.193   5.486   2.880
15478TIP3   OH267848   2.319   5.396   2.784
15478TIP3    H167849   2.302   5.302   2.807
15478TIP3    H267850   2.405   5.411   2.829
15479TIP3   OH267851   2.581   5.441   2.870
15479TIP3    H167852   2.595   5.349   2.845
15479TIP3    H267853   2.584   5.437   2.967
15480TIP3   OH267854   2.925   4.009   2.785
15480TIP3    H167855   2.858   3.945   2.814
15480TIP3    H267856   2.980   3.955   2.727
15481TIP3   OH267857   3.439   3.813   2.792
15481TIP3    H167858   3.500   3.873   2.741
15481TIP3    H267859   3.350   3.850   2.769
15482TIP3   OH267860   3.605   3.938   2.620
15482TIP3    H167861   3.674   3.881   2.578
15482TIP3    H267862   3.656   4.022   2.630
15483TIP3   OH267863   2.165   3.872   2.567
15483TIP3    H167864   2.081   3.852   2.520
15483TIP3    H267865   2.206   3.784   2.566
15484TIP3   OH267866   2.042   3.848   2.146
15484TIP3    H167867   2.086   3.912   2.087
15484TIP3    H267868   1.980   3.903   2.195
15485TIP3   OH267869   2.607   3.873   2.548
15485TIP3    H167870   2.702   3.897   2.543
15485TIP3    H267871   2.605   3.841   2.639
15486TIP3   OH267872   3.181   3.866   2.711
15486TIP3    H167873   3.176   3.877   2.616
15486TIP3    H267874   3.143   3.775   2.724
15487TIP3   OH267875   3.307   3.869   2.280
15487TIP3    H167876   3.232   3.928   2.264
15487TIP3    H267877   3.263   3.783   2.303
15488TIP3   OH267878   2.031   5.441   2.246
15488TIP3    H167879   1.964   5.440   2.175
15488TIP3    H267880   2.030   5.537   2.263
15489TIP3   OH267881   2.219   4.038   1.993
15489TIP3    H167882   2.273   3.979   1.938
15489TIP3    H267883   2.287   4.075   2.052
15490TIP3   OH267884   2.711   4.066   2.243
15490TIP3    H167885   2.759   4.008   2.306
15490TIP3    H267886   2.741   4.154   2.278
15491TIP3   OH267887   2.918   5.572   2.079
15491TIP3    H167888   3.009   5.595   2.057
15491TIP3    H267889   2.896   5.520   1.999
15492TIP3   OH267890   3.587   5.522   2.351
15492TIP3    H167891   3.568   5.444   2.294
15492TIP3    H267892   3.580   5.595   2.287
15493TIP3   OH267893   2.151   3.926   3.515
15493TIP3    H167894   2.112   3.846   3.556
15493TIP3    H267895   2.241   3.921   3.554
15494TIP3   OH267896   2.351   3.864   3.680
15494TIP3    H167897   2.440   3.830   3.658
15494TIP3    H267898   2.313   3.783   3.720
15495TIP3   OH267899   2.210   5.540   1.939
15495TIP3    H167900   2.184   5.566   2.029
15495TIP3    H267901   2.288   5.484   1.955
15496TIP3   OH267902   3.191   3.792   3.695
15496TIP3    H167903   3.200   3.745   3.780
15496TIP3    H267904   3.283   3.789   3.660
15497TIP3   OH267905   3.512   5.398   3.558
15497TIP3    H167906   3.432   5.384   3.503
15497TIP3    H267907   3.500   5.492   3.580
15498TIP3   OH267908   4.955   4.783   2.554
15498TIP3    H167909   4.957   4.882   2.555
15498TIP3    H267910   4.882   4.763   2.494
15499TIP3   OH267911   4.839   4.710   2.906
15499TIP3    H167912   4.840   4.645   2.978
15499TIP3    H267913   4.806   4.659   2.830
15500TIP3   OH267914   4.077   4.678   3.061
15500TIP3    H167915   4.086   4.610   3.131
15500TIP3    H267916   4.152   4.735   3.084
15501TIP3   OH267917   5.169   5.013   2.715
15501TIP3    H167918   5.174   4.937   2.774
15501TIP3    H267919   5.216   5.067   2.782
15502TIP3   OH267920   4.170   5.123   2.911
15502TIP3    H167921   4.139   5.036   2.880
15502TIP3    H267922   4.265   5.105   2.916
15503TIP3   OH267923   3.834   4.479   2.461
15503TIP3    H167924   3.790   4.566   2.454
15503TIP3    H267925   3.777   4.425   2.403
15504TIP3   OH267926   3.905   4.701   2.675
15504TIP3    H167927   3.932   4.619   2.720
15504TIP3    H267928   3.974   4.712   2.608
15505TIP3   OH267929   4.922   5.522   2.759
15505TIP3    H167930   4.987   5.453   2.730
15505TIP3    H267931   4.901   5.488   2.845
15506TIP3   OH267932   4.679   4.950   2.954
15506TIP3    H167933   4.714   4.888   2.888
15506TIP3    H267934   4.760   4.967   3.005
15507TIP3   OH267935   5.539   4.117   3.025
15507TIP3    H167936   5.557   4.175   3.102
15507TIP3    H267937   5.597   4.158   2.959
15508TIP3   OH267938   4.995   4.397   2.985
15508TIP3    H167939   5.013   4.301   2.985
15508TIP3    H267940   4.986   4.411   2.889
15509TIP3   OH267941   4.307   4.207   2.706
15509TIP3    H167942   4.318   4.290   2.657
15509TIP3    H267943   4.268   4.149   2.637
15510TIP3   OH267944   5.081   4.214   2.543
15510TIP3    H167945   5.146   4.183   2.610
15510TIP3    H267946   5.138   4.272   2.490
15511TIP3   OH267947   3.970   4.448   2.780
15511TIP3    H167948   4.037   4.393   2.825
15511TIP3    H267949   3.981   4.416   2.688
15512TIP3   OH267950   4.486   4.603   2.712
15512TIP3    H167951   4.553   4.545   2.751
15512TIP3    H267952   4.434   4.537   2.661
15513TIP3   OH267953   5.581   4.255   3.255
15513TIP3    H167954   5.524   4.335   3.241
15513TIP3    H267955   5.589   4.252   3.350
15514TIP3   OH267956   4.199   4.096   3.110
15514TIP3    H167957   4.170   4.154   3.036
15514TIP3    H267958   4.131   4.119   3.178
15515TIP3   OH267959   4.927   5.044   2.465
15515TIP3    H167960   4.900   5.017   2.376
15515TIP3    H267961   4.897   5.137   2.470
15516TIP3   OH267962   4.449   4.861   3.134
15516TIP3    H167963   4.379   4.925   3.156
15516TIP3    H267964   4.520   4.920   3.105
15517TIP3   OH267965   5.262   4.149   2.742
15517TIP3    H167966   5.241   4.072   2.795
15517TIP3    H267967   5.330   4.193   2.796
15518TIP3   OH267968   4.155   4.282   2.914
15518TIP3    H167969   4.218   4.351   2.945
15518TIP3    H267970   4.207   4.241   2.840
15519TIP3   OH267971   4.295   5.061   3.216
15519TIP3    H167972   4.290   5.153   3.182
15519TIP3    H267973   4.206   5.053   3.260
15520TIP3   OH267974   3.903   5.022   2.295
15520TIP3    H167975   3.878   5.056   2.208
15520TIP3    H267976   3.911   5.105   2.347
15521TIP3   OH267977   5.241   5.240   3.015
15521TIP3    H167978   5.159   5.208   2.976
15521TIP3    H267979   5.282   5.293   2.945
15522TIP3   OH267980   5.296   4.020   3.115
15522TIP3    H167981   5.222   4.081   3.098
15522TIP3    H267982   5.366   4.058   3.058
15523TIP3   OH267983   4.592   3.830   2.857
15523TIP3    H167984   4.578   3.734   2.849
15523TIP3    H267985   4.504   3.860   2.887
15524TIP3   OH267986   5.088   5.369   2.629
15524TIP3    H167987   5.132   5.295   2.582
15524TIP3    H267988   5.133   5.447   2.590
15525TIP3   OH267989   5.211   5.161   2.478
15525TIP3    H167990   5.180   5.089   2.421
15525TIP3    H267991   5.211   5.113   2.564
15526TIP3   OH267992   5.373   5.020   3.332
15526TIP3    H167993   5.387   4.955   3.259
15526TIP3    H267994   5.392   5.105   3.287
15527TIP3   OH267995   4.822   4.708   2.307
15527TIP3    H167996   4.753   4.767   2.271
15527TIP3    H267997   4.893   4.718   2.241
15528TIP3   OH267998   4.830   4.566   2.008
15528TIP3    H167999   4.901   4.564   2.075
15528TIP3    H268000   4.861   4.494   1.952
15529TIP3   OH268001   5.564   4.649   3.136
15529TIP3    H168002   5.497   4.722   3.141
15529TIP3    H268003   5.611   4.676   3.054
15530TIP3   OH268004   5.168   4.730   2.400
15530TIP3    H168005   5.094   4.755   2.461
15530TIP3    H268006   5.215   4.663   2.453
15531TIP3   OH268007   5.160   4.547   3.312
15531TIP3    H168008   5.161   4.628   3.366
15531TIP3    H268009   5.098   4.578   3.242
15532TIP3   OH268010   4.328   4.796   2.592
15532TIP3    H168011   4.296   4.757   2.507
15532TIP3    H268012   4.389   4.727   2.625
15533TIP3   OH268013   4.460   5.134   2.860
15533TIP3    H168014   4.460   5.082   2.779
15533TIP3    H268015   4.538   5.099   2.905
15534TIP3   OH268016   4.361   4.671   2.958
15534TIP3    H168017   4.416   4.680   2.877
15534TIP3    H268018   4.400   4.737   3.019
15535TIP3   OH268019   4.980   5.229   3.024
15535TIP3    H168020   4.976   5.292   3.097
15535TIP3    H268021   4.980   5.142   3.071
15536TIP3   OH268022   4.456   5.114   3.427
15536TIP3    H168023   4.415   5.188   3.476
15536TIP3    H268024   4.389   5.094   3.357
15537TIP3   OH268025   5.055   4.651   2.167
15537TIP3    H168026   5.110   4.668   2.247
15537TIP3    H268027   5.100   4.700   2.094
15538TIP3   OH268028   4.150   4.730   3.343
15538TIP3    H168029   4.156   4.796   3.413
15538TIP3    H268030   4.056   4.738   3.321
15539TIP3   OH268031   4.826   5.323   2.513
15539TIP3    H168032   4.869   5.353   2.594
15539TIP3    H268033   4.770   5.398   2.490
15540TIP3   OH268034   4.281   5.317   3.502
15540TIP3    H168035   4.275   5.307   3.405
15540TIP3    H268036   4.188   5.304   3.529
15541TIP3   OH268037   5.427   3.823   2.157
15541TIP3    H168038   5.332   3.835   2.181
15541TIP3    H268039   5.447   3.907   2.112
15542TIP3   OH268040   4.224   4.698   2.355
15542TIP3    H168041   4.196   4.776   2.303
15542TIP3    H268042   4.159   4.631   2.330
15543TIP3   OH268043   5.538   5.259   1.991
15543TIP3    H168044   5.555   5.353   2.009
15543TIP3    H268045   5.631   5.227   1.991
15544TIP3   OH268046   3.833   4.941   3.243
15544TIP3    H168047   3.789   4.933   3.156
15544TIP3    H268048   3.842   4.846   3.264
15545TIP3   OH268049   3.810   5.215   2.920
15545TIP3    H168050   3.906   5.203   2.918
15545TIP3    H268051   3.802   5.296   2.971
15546TIP3   OH268052   5.635   5.286   3.493
15546TIP3    H168053   5.622   5.190   3.486
15546TIP3    H268054   5.546   5.310   3.529
15547TIP3   OH268055   4.730   5.239   3.376
15547TIP3    H168056   4.735   5.323   3.426
15547TIP3    H268057   4.642   5.203   3.401
15548TIP3   OH268058   4.774   5.613   2.355
15548TIP3    H168059   4.763   5.605   2.258
15548TIP3    H268060   4.774   5.709   2.370
15549TIP3   OH268061   4.137   5.501   2.537
15549TIP3    H168062   4.152   5.460   2.625
15549TIP3    H268063   4.053   5.460   2.513
15550TIP3   OH268064   5.079   5.535   2.052
15550TIP3    H168065   5.125   5.459   2.009
15550TIP3    H268066   5.083   5.509   2.147
15551TIP3   OH268067   5.049   5.528   2.331
15551TIP3    H168068   4.953   5.536   2.347
15551TIP3    H268069   5.072   5.454   2.388
15552TIP3   OH268070   5.346   4.429   3.539
15552TIP3    H168071   5.304   4.479   3.467
15552TIP3    H268072   5.347   4.340   3.503
15553TIP3   OH268073   4.063   5.073   3.337
15553TIP3    H168074   4.085   5.036   3.425
15553TIP3    H268075   3.976   5.033   3.316
15554TIP3   OH268076   4.331   3.920   2.932
15554TIP3    H168077   4.240   3.907   2.895
15554TIP3    H268078   4.317   4.003   2.980
15555TIP3   OH268079   4.794   3.887   3.267
15555TIP3    H168080   4.833   3.844   3.346
15555TIP3    H268081   4.697   3.875   3.282
15556TIP3   OH268082   5.125   4.272   3.360
15556TIP3    H168083   5.064   4.253   3.434
15556TIP3    H268084   5.105   4.364   3.333
15557TIP3   OH268085   5.199   4.754   1.948
15557TIP3    H168086   5.197   4.734   1.851
15557TIP3    H268087   5.285   4.798   1.953
15558TIP3   OH268088   4.759   4.146   1.999
15558TIP3    H168089   4.727   4.139   2.091
15558TIP3    H268090   4.728   4.058   1.968
15559TIP3   OH268091   4.340   4.418   3.058
15559TIP3    H168092   4.267   4.417   3.121
15559TIP3    H268093   4.336   4.508   3.020
15560TIP3   OH268094   4.337   4.429   2.544
15560TIP3    H168095   4.243   4.404   2.530
15560TIP3    H268096   4.374   4.400   2.458
15561TIP3   OH268097   4.889   4.479   2.421
15561TIP3    H168098   4.850   4.562   2.384
15561TIP3    H268099   4.958   4.462   2.355
15562TIP3   OH268100   4.794   4.500   3.564
15562TIP3    H168101   4.742   4.423   3.595
15562TIP3    H268102   4.878   4.488   3.612
15563TIP3   OH268103   4.992   4.429   2.705
15563TIP3    H168104   4.964   4.485   2.631
15563TIP3    H268105   5.002   4.344   2.658
15564TIP3   OH268106   4.103   4.442   3.225
15564TIP3    H168107   4.111   4.483   3.313
15564TIP3    H268108   4.059   4.359   3.246
15565TIP3   OH268109   4.440   4.182   1.911
15565TIP3    H168110   4.395   4.140   1.986
15565TIP3    H268111   4.369   4.225   1.861
15566TIP3   OH268112   3.769   4.153   2.624
15566TIP3    H168113   3.837   4.149   2.694
15566TIP3    H268114   3.814   4.116   2.546
15567TIP3   OH268115   3.895   4.225   2.159
15567TIP3    H168116   3.947   4.286   2.103
15567TIP3    H268117   3.826   4.288   2.191
15568TIP3   OH268118   4.911   4.587   3.160
15568TIP3    H168119   4.950   4.518   3.102
15568TIP3    H268120   4.865   4.534   3.228
15569TIP3   OH268121   4.592   4.185   2.644
15569TIP3    H168122   4.499   4.185   2.673
15569TIP3    H268123   4.640   4.167   2.726
15570TIP3   OH268124   4.073   4.340   2.531
15570TIP3    H168125   3.985   4.355   2.492
15570TIP3    H268126   4.101   4.256   2.490
15571TIP3   OH268127   4.437   4.344   2.294
15571TIP3    H168128   4.533   4.355   2.310
15571TIP3    H268129   4.414   4.413   2.228
15572TIP3   OH268130   5.033   4.109   2.968
15572TIP3    H168131   4.964   4.113   3.039
15572TIP3    H268132   4.982   4.083   2.890
15573TIP3   OH268133   4.308   4.462   2.052
15573TIP3    H168134   4.255   4.424   1.980
15573TIP3    H268135   4.390   4.483   2.005
15574TIP3   OH268136   5.353   5.672   3.601
15574TIP3    H168137   5.380   5.709   3.515
15574TIP3    H268138   5.425   5.704   3.657
15575TIP3   OH268139   4.120   4.919   3.558
15575TIP3    H168140   4.192   4.944   3.618
15575TIP3    H268141   4.043   4.927   3.618
15576TIP3   OH268142   4.720   4.460   2.833
15576TIP3    H168143   4.780   4.407   2.780
15576TIP3    H268144   4.706   4.405   2.912
15577TIP3   OH268145   4.221   4.075   2.477
15577TIP3    H168146   4.190   3.982   2.476
15577TIP3    H268147   4.300   4.068   2.422
15578TIP3   OH268148   4.584   4.293   3.075
15578TIP3    H168149   4.502   4.345   3.084
15578TIP3    H268150   4.640   4.328   3.147
15579TIP3   OH268151   4.643   4.915   2.245
15579TIP3    H168152   4.563   4.869   2.211
15579TIP3    H268153   4.620   4.928   2.339
15580TIP3   OH268154   5.362   4.819   3.138
15580TIP3    H168155   5.412   4.876   3.073
15580TIP3    H268156   5.280   4.837   3.086
15581TIP3   OH268157   5.026   4.196   2.062
15581TIP3    H168158   4.931   4.212   2.049
15581TIP3    H268159   5.060   4.282   2.097
15582TIP3   OH268160   4.792   4.942   3.369
15582TIP3    H168161   4.758   4.899   3.448
15582TIP3    H268162   4.767   5.034   3.380
15583TIP3   OH268163   5.100   4.389   2.224
15583TIP3    H168164   5.188   4.375   2.265
15583TIP3    H268165   5.110   4.471   2.174
15584TIP3   OH268166   4.154   4.855   2.825
15584TIP3    H168167   4.222   4.846   2.755
15584TIP3    H268168   4.160   4.769   2.870
15585TIP3   OH268169   4.853   5.062   2.148
15585TIP3    H168170   4.818   5.147   2.183
15585TIP3    H268171   4.779   5.000   2.170
15586TIP3   OH268172   3.853   4.695   3.351
15586TIP3    H168173   3.870   4.650   3.436
15586TIP3    H268174   3.791   4.634   3.307
15587TIP3   OH268175   4.554   4.651   3.568
15587TIP3    H168176   4.522   4.620   3.482
15587TIP3    H268177   4.647   4.619   3.568
15588TIP3   OH268178   5.021   5.184   3.366
15588TIP3    H168179   4.930   5.203   3.341
15588TIP3    H268180   5.019   5.215   3.458
15589TIP3   OH268181   5.590   4.402   2.202
15589TIP3    H168182   5.533   4.374   2.128
15589TIP3    H268183   5.598   4.497   2.177
15590TIP3   OH268184   5.587   4.989   3.482
15590TIP3    H168185   5.498   5.011   3.445
15590TIP3    H268186   5.642   4.983   3.400
15591TIP3   OH268187   5.416   5.287   2.241
15591TIP3    H168188   5.382   5.204   2.276
15591TIP3    H268189   5.451   5.263   2.153
15592TIP3   OH268190   5.135   4.761   2.957
15592TIP3    H168191   5.042   4.744   2.939
15592TIP3    H268192   5.183   4.692   2.908
15593TIP3   OH268193   4.392   5.200   2.563
15593TIP3    H168194   4.441   5.281   2.542
15593TIP3    H268195   4.304   5.223   2.530
15594TIP3   OH268196   3.968   4.684   2.020
15594TIP3    H168197   4.026   4.751   2.061
15594TIP3    H268198   3.879   4.715   2.045
15595TIP3   OH268199   4.532   4.967   2.514
15595TIP3    H168200   4.501   5.059   2.524
15595TIP3    H268201   4.461   4.917   2.559
15596TIP3   OH268202   4.578   5.385   3.156
15596TIP3    H168203   4.624   5.465   3.127
15596TIP3    H268204   4.639   5.351   3.224
15597TIP3   OH268205   4.401   5.466   2.467
15597TIP3    H168206   4.304   5.480   2.481
15597TIP3    H268207   4.437   5.549   2.502
15598TIP3   OH268208   4.926   4.983   3.117
15598TIP3    H168209   4.899   4.965   3.209
15598TIP3    H268210   4.994   4.916   3.100
15599TIP3   OH268211   5.164   5.093   2.027
15599TIP3    H168212   5.194   5.045   2.107
15599TIP3    H268213   5.069   5.074   2.035
15600TIP3   OH268214   5.212   5.443   3.367
15600TIP3    H168215   5.144   5.393   3.317
15600TIP3    H268216   5.231   5.513   3.300
15601TIP3   OH268217   5.612   5.529   2.055
15601TIP3    H168218   5.679   5.594   2.028
15601TIP3    H268219   5.538   5.588   2.080
15602TIP3   OH268220   4.018   4.168   3.305
15602TIP3    H168221   3.927   4.204   3.304
15602TIP3    H268222   4.007   4.084   3.352
15603TIP3   OH268223   5.242   4.956   2.251
15603TIP3    H168224   5.218   4.877   2.305
15603TIP3    H268225   5.337   4.960   2.269
15604TIP3   OH268226   3.979   5.347   3.148
15604TIP3    H168227   4.010   5.255   3.149
15604TIP3    H268228   4.006   5.376   3.236
15605TIP3   OH268229   4.577   5.200   1.876
15605TIP3    H168230   4.587   5.123   1.817
15605TIP3    H268231   4.533   5.157   1.953
15606TIP3   OH268232   4.454   5.152   2.121
15606TIP3    H168233   4.481   5.101   2.198
15606TIP3    H268234   4.463   5.245   2.154
15607TIP3   OH268235   4.109   4.877   2.170
15607TIP3    H168236   4.037   4.916   2.224
15607TIP3    H268237   4.159   4.955   2.141
15608TIP3   OH268238   4.892   4.146   3.202
15608TIP3    H168239   4.963   4.152   3.266
15608TIP3    H268240   4.852   4.058   3.221
15609TIP3   OH268241   4.966   4.102   2.310
15609TIP3    H168242   4.989   4.149   2.228
15609TIP3    H268243   5.023   4.147   2.374
15610TIP3   OH268244   4.735   5.319   2.191
15610TIP3    H168245   4.653   5.372   2.198
15610TIP3    H268246   4.789   5.374   2.132
15611TIP3   OH268247   4.689   4.278   2.392
15611TIP3    H168248   4.767   4.336   2.397
15611TIP3    H268249   4.662   4.266   2.486
15612TIP3   OH268250   4.744   4.381   3.312
15612TIP3    H168251   4.751   4.436   3.391
15612TIP3    H268252   4.811   4.311   3.321
15613TIP3   OH268253   4.773   3.983   2.480
15613TIP3    H168254   4.741   4.048   2.546
15613TIP3    H268255   4.843   4.038   2.436
15614TIP3   OH268256   4.475   5.422   2.194
15614TIP3    H168257   4.484   5.503   2.139
15614TIP3    H268258   4.447   5.458   2.281
15615TIP3   OH268259   4.339   4.094   2.152
15615TIP3    H168260   4.334   4.184   2.190
15615TIP3    H268261   4.430   4.070   2.178
15616TIP3   OH268262   5.357   4.163   3.401
15616TIP3    H168263   5.268   4.202   3.381
15616TIP3    H268264   5.393   4.167   3.310
15617TIP3   OH268265   5.225   4.545   2.795
15617TIP3    H168266   5.141   4.503   2.770
15617TIP3    H268267   5.271   4.477   2.848
15618TIP3   OH268268   4.163   5.138   2.056
15618TIP3    H168269   4.229   5.202   2.087
15618TIP3    H268270   4.215   5.092   1.988
15619TIP3   OH268271   3.997   4.406   1.970
15619TIP3    H168272   3.999   4.501   1.991
15619TIP3    H268273   3.908   4.388   1.940
15620TIP3   OH268274   5.331   5.483   2.966
15620TIP3    H168275   5.323   5.544   2.891
15620TIP3    H268276   5.427   5.477   2.981
15621TIP3   OH268277   4.079   3.884   2.845
15621TIP3    H168278   4.059   3.886   2.749
15621TIP3    H268279   4.037   3.799   2.870
15622TIP3   OH268280   3.974   5.276   2.459
15622TIP3    H168281   3.889   5.321   2.454
15622TIP3    H268282   4.022   5.323   2.389
15623TIP3   OH268283   3.895   5.541   3.587
15623TIP3    H168284   3.955   5.521   3.661
15623TIP3    H268285   3.855   5.455   3.569
15624TIP3   OH268286   4.363   5.433   3.748
15624TIP3    H168287   4.439   5.383   3.782
15624TIP3    H268288   4.360   5.405   3.655
15625TIP3   OH268289   4.776   5.385   1.889
15625TIP3    H168290   4.707   5.319   1.911
15625TIP3    H268291   4.848   5.325   1.864
15626TIP3   OH268292   5.014   5.272   3.622
15626TIP3    H168293   4.982   5.183   3.651
15626TIP3    H268294   5.090   5.284   3.682
15627TIP3   OH268295   5.232   5.359   1.907
15627TIP3    H168296   5.262   5.281   1.957
15627TIP3    H268297   5.308   5.381   1.852
15628TIP3   OH268298   3.886   4.919   3.687
15628TIP3    H168299   3.902   4.827   3.657
15628TIP3    H268300   3.812   4.944   3.630
15629TIP3   OH268301   4.321   4.953   1.889
15629TIP3    H168302   4.335   4.877   1.947
15629TIP3    H268303   4.396   4.941   1.827
15630TIP3   OH268304   4.558   4.918   3.626
15630TIP3    H168305   4.524   4.949   3.539
15630TIP3    H268306   4.565   4.820   3.615
15631TIP3   OH268307   4.864   5.064   1.867
15631TIP3    H168308   4.837   5.072   1.960
15631TIP3    H268309   4.845   4.968   1.852
15632TIP3   OH268310   5.128   4.904   3.368
15632TIP3    H168311   5.207   4.961   3.356
15632TIP3    H268312   5.059   4.971   3.365
15633TIP3   OH268313   3.978   4.641   3.625
15633TIP3    H168314   4.020   4.555   3.616
15633TIP3    H268315   3.955   4.642   3.719
15634TIP3   OH268316   4.441   4.755   2.132
15634TIP3    H168317   4.391   4.701   2.195
15634TIP3    H268318   4.471   4.688   2.066
15635TIP3   OH268319   4.368   4.536   3.360
15635TIP3    H168320   4.308   4.608   3.386
15635TIP3    H268321   4.408   4.572   3.280
15636TIP3   OH268322   4.549   4.577   1.952
15636TIP3    H168323   4.534   4.568   1.855
15636TIP3    H268324   4.646   4.582   1.958
15637TIP3   OH268325   4.875   4.792   3.694
15637TIP3    H168326   4.971   4.791   3.682
15637TIP3    H268327   4.858   4.716   3.751
15638TIP3   OH268328   5.482   4.809   1.893
15638TIP3    H168329   5.463   4.771   1.806
15638TIP3    H268330   5.491   4.905   1.874
15639TIP3   OH268331   4.408   4.273   3.466
15639TIP3    H168332   4.420   4.203   3.400
15639TIP3    H268333   4.404   4.354   3.411
15640TIP3   OH268334   4.449   4.112   3.222
15640TIP3    H168335   4.500   4.158   3.151
15640TIP3    H268336   4.360   4.104   3.181
15641TIP3   OH268337   4.603   4.661   3.246
15641TIP3    H168338   4.678   4.644   3.189
15641TIP3    H268339   4.566   4.744   3.212
15642TIP3   OH268340   5.042   4.435   3.741
15642TIP3    H168341   5.066   4.342   3.734
15642TIP3    H268342   5.128   4.482   3.746
15643TIP3   OH268343   5.177   4.715   3.559
15643TIP3    H168344   5.152   4.787   3.497
15643TIP3    H268345   5.273   4.712   3.540
15644TIP3   OH268346   4.255   4.399   3.658
15644TIP3    H168347   4.178   4.341   3.642
15644TIP3    H268348   4.320   4.362   3.596
15645TIP3   OH268349   4.528   3.855   3.260
15645TIP3    H168350   4.509   3.952   3.251
15645TIP3    H268351   4.453   3.819   3.210
15646TIP3   OH268352   4.655   4.288   3.623
15646TIP3    H168353   4.623   4.265   3.713
15646TIP3    H268354   4.577   4.268   3.569
15647TIP3   OH268355   4.928   4.202   3.533
15647TIP3    H168356   4.831   4.210   3.541
15647TIP3    H268357   4.948   4.139   3.603
15648TIP3   OH268358   5.090   4.061   3.726
15648TIP3    H168359   5.069   3.965   3.731
15648TIP3    H268360   5.057   4.096   3.812
15649TIP3   OH268361   4.062   4.192   3.634
15649TIP3    H168362   4.087   4.119   3.575
15649TIP3    H268363   4.054   4.147   3.720
15650TIP3   OH268364   4.549   3.795   3.530
15650TIP3    H168365   4.617   3.724   3.529
15650TIP3    H268366   4.537   3.809   3.434
15651TIP3   OH268367   4.585   3.956   3.742
15651TIP3    H168368   4.568   3.905   3.659
15651TIP3    H268369   4.525   4.032   3.732
15652TIP3   OH268370   4.532   5.647   2.060
15652TIP3    H168371   4.629   5.656   2.066
15652TIP3    H268372   4.517   5.708   1.986
15653TIP3   OH268373   3.887   5.105   2.007
15653TIP3    H168374   3.984   5.114   2.025
15653TIP3    H268375   3.892   5.040   1.932
15654TIP3   OH268376   3.766   5.643   2.503
15654TIP3    H168377   3.693   5.595   2.457
15654TIP3    H268378   3.793   5.578   2.570
15655TIP3   OH268379   3.848   5.457   2.691
15655TIP3    H168380   3.813   5.369   2.711
15655TIP3    H268381   3.872   5.489   2.779
15656TIP3   OH268382   5.602   5.540   2.983
15656TIP3    H168383   5.605   5.553   3.080
15656TIP3    H268384   5.673   5.596   2.954
15657TIP3   OH268385   5.559   5.495   3.278
15657TIP3    H168386   5.512   5.418   3.239
15657TIP3    H268387   5.608   5.449   3.348
15658TIP3   OH268388   5.404   5.068   3.746
15658TIP3    H168389   5.313   5.065   3.782
15658TIP3    H268390   5.441   5.149   3.786
15659TIP3   OH268391   5.535   4.901   2.288
15659TIP3    H168392   5.622   4.940   2.306
15659TIP3    H268393   5.534   4.828   2.354
15660TIP3   OH268394   5.571   4.709   2.478
15660TIP3    H168395   5.495   4.660   2.518
15660TIP3    H268396   5.630   4.722   2.555
15661TIP3   OH268397   5.631   4.988   3.008
15661TIP3    H168398   5.641   4.931   2.930
15661TIP3    H268399   5.567   5.053   2.970
15662TIP3   OH268400   5.406   5.268   3.207
15662TIP3    H168401   5.333   5.303   3.260
15662TIP3    H268402   5.351   5.232   3.132
15663TIP3   OH268403   5.601   4.691   2.116
15663TIP3    H168404   5.544   4.725   2.044
15663TIP3    H268405   5.591   4.762   2.182
15664TIP3   OH268406   5.438   4.414   1.967
15664TIP3    H168407   5.446   4.480   1.898
15664TIP3    H268408   5.420   4.331   1.918
15665TIP3   OH268409   5.352   4.555   2.533
15665TIP3    H168410   5.339   4.459   2.530
15665TIP3    H268411   5.319   4.577   2.622
15666TIP3   OH268412   3.854   4.765   2.940
15666TIP3    H168413   3.871   4.756   2.844
15666TIP3    H268414   3.943   4.747   2.975
15667TIP3   OH268415   5.439   4.751   3.503
15667TIP3    H168416   5.501   4.676   3.517
15667TIP3    H268417   5.499   4.829   3.503
15668TIP3   OH268418   5.589   4.541   3.569
15668TIP3    H168419   5.502   4.502   3.552
15668TIP3    H268420   5.648   4.464   3.560
15669TIP3   OH268421   5.363   4.161   1.881
15669TIP3    H168422   5.422   4.117   1.945
15669TIP3    H268423   5.277   4.120   1.896
15670TIP3   OH268424   5.318   4.314   2.375
15670TIP3    H168425   5.349   4.222   2.392
15670TIP3    H268426   5.400   4.355   2.345
15671TIP3   OH268427   5.383   4.368   2.924
15671TIP3    H168428   5.480   4.390   2.922
15671TIP3    H268429   5.365   4.383   3.018
15672TIP3   OH268430   5.391   4.441   3.203
15672TIP3    H168431   5.303   4.471   3.233
15672TIP3    H268432   5.433   4.528   3.179
15673TIP3   OH268433   3.816   4.295   3.556
15673TIP3    H168434   3.909   4.273   3.575
15673TIP3    H268435   3.770   4.212   3.583
15674TIP3   OH268436   5.611   3.846   3.732
15674TIP3    H168437   5.655   3.780   3.676
15674TIP3    H268438   5.631   3.928   3.684
15675TIP3   OH268439   5.384   4.044   2.385
15675TIP3    H168440   5.408   4.000   2.469
15675TIP3    H268441   5.326   3.979   2.340
15676TIP3   OH268442   3.935   4.124   2.840
15676TIP3    H168443   3.981   4.041   2.866
15676TIP3    H268444   3.990   4.193   2.879
15677TIP3   OH268445   3.764   4.424   2.944
15677TIP3    H168446   3.820   4.399   2.868
15677TIP3    H268447   3.810   4.504   2.971
15678TIP3   OH268448   5.568   4.054   3.573
15678TIP3    H168449   5.481   4.092   3.559
15678TIP3    H268450   5.577   4.003   3.491
15679TIP3   OH268451   5.569   4.046   2.040
15679TIP3    H168452   5.610   3.975   1.986
15679TIP3    H268453   5.639   4.113   2.045
15680TIP3   OH268454   3.801   4.052   2.352
15680TIP3    H168455   3.706   4.067   2.336
15680TIP3    H268456   3.842   4.099   2.279
15681TIP3   OH268457   5.275   5.545   2.546
15681TIP3    H168458   5.343   5.516   2.483
15681TIP3    H268459   5.326   5.595   2.612
15682TIP3   OH268460   3.795   3.915   3.181
15682TIP3    H168461   3.728   3.896   3.249
15682TIP3    H268462   3.749   3.982   3.127
15683TIP3   OH268463   4.019   5.234   3.597
15683TIP3    H168464   3.935   5.257   3.553
15683TIP3    H268465   3.992   5.227   3.689
15684TIP3   OH268466   4.309   5.336   3.225
15684TIP3    H168467   4.276   5.422   3.198
15684TIP3    H268468   4.402   5.344   3.194
15685TIP3   OH268469   4.741   5.478   3.515
15685TIP3    H168470   4.755   5.443   3.606
15685TIP3    H268471   4.831   5.508   3.491
15686TIP3   OH268472   4.970   5.604   3.446
15686TIP3    H168473   5.043   5.546   3.421
15686TIP3    H268474   5.008   5.648   3.525
15687TIP3   OH268475   5.466   3.865   3.361
15687TIP3    H168476   5.389   3.895   3.311
15687TIP3    H268477   5.490   3.786   3.307
15688TIP3   OH268478   4.051   5.659   3.224
15688TIP3    H168479   3.978   5.709   3.185
15688TIP3    H268480   4.020   5.640   3.314
15689TIP3   OH268481   4.298   5.617   3.132
15689TIP3    H168482   4.209   5.632   3.171
15689TIP3    H268483   4.293   5.676   3.054
15690TIP3   OH268484   4.769   5.608   3.048
15690TIP3    H168485   4.723   5.664   2.984
15690TIP3    H268486   4.782   5.671   3.122
15691TIP3   OH268487   4.997   5.489   3.153
15691TIP3    H168488   4.912   5.517   3.114
15691TIP3    H268489   5.046   5.572   3.142
15692TIP3   OH268490   5.256   5.646   3.174
15692TIP3    H168491   5.251   5.742   3.150
15692TIP3    H268492   5.278   5.608   3.086
15693TIP3   OH268493   3.997   5.524   2.919
15693TIP3    H168494   3.989   5.478   3.005
15693TIP3    H268495   4.079   5.486   2.880
15694TIP3   OH268496   4.205   5.395   2.784
15694TIP3    H168497   4.188   5.302   2.807
15694TIP3    H268498   4.290   5.411   2.829
15695TIP3   OH268499   4.462   5.444   2.871
15695TIP3    H168500   4.480   5.352   2.845
15695TIP3    H268501   4.470   5.438   2.968
15696TIP3   OH268502   4.811   4.009   2.786
15696TIP3    H168503   4.743   3.945   2.814
15696TIP3    H268504   4.866   3.955   2.727
15697TIP3   OH268505   5.324   3.814   2.792
15697TIP3    H168506   5.386   3.873   2.741
15697TIP3    H268507   5.236   3.850   2.769
15698TIP3   OH268508   5.491   3.939   2.619
15698TIP3    H168509   5.559   3.881   2.578
15698TIP3    H268510   5.542   4.022   2.630
15699TIP3   OH268511   4.048   3.871   2.570
15699TIP3    H168512   3.968   3.852   2.517
15699TIP3    H268513   4.094   3.785   2.564
15700TIP3   OH268514   3.925   3.847   2.142
15700TIP3    H168515   3.974   3.912   2.089
15700TIP3    H268516   3.868   3.904   2.196
15701TIP3   OH268517   4.495   3.864   2.549
15701TIP3    H168518   4.585   3.900   2.542
15701TIP3    H268519   4.491   3.842   2.642
15702TIP3   OH268520   5.067   3.865   2.711
15702TIP3    H168521   5.061   3.877   2.615
15702TIP3    H268522   5.028   3.775   2.724
15703TIP3   OH268523   5.193   3.869   2.280
15703TIP3    H168524   5.118   3.928   2.264
15703TIP3    H268525   5.149   3.783   2.303
15704TIP3   OH268526   3.916   5.442   2.245
15704TIP3    H168527   3.850   5.440   2.173
15704TIP3    H268528   3.915   5.537   2.263
15705TIP3   OH268529   4.107   4.041   1.994
15705TIP3    H168530   4.160   3.979   1.941
15705TIP3    H268531   4.174   4.073   2.057
15706TIP3   OH268532   4.610   4.065   2.234
15706TIP3    H168533   4.635   4.007   2.308
15706TIP3    H268534   4.617   4.152   2.280
15707TIP3   OH268535   4.803   5.573   2.079
15707TIP3    H168536   4.895   5.595   2.057
15707TIP3    H268537   4.781   5.521   1.999
15708TIP3   OH268538   5.477   5.523   2.350
15708TIP3    H168539   5.453   5.444   2.295
15708TIP3    H268540   5.464   5.596   2.286
15709TIP3   OH268541   4.036   3.926   3.515
15709TIP3    H168542   3.997   3.846   3.556
15709TIP3    H268543   4.127   3.921   3.554
15710TIP3   OH268544   4.236   3.864   3.680
15710TIP3    H168545   4.326   3.830   3.658
15710TIP3    H268546   4.199   3.783   3.720
15711TIP3   OH268547   4.095   5.540   1.940
15711TIP3    H168548   4.069   5.566   2.029
15711TIP3    H268549   4.174   5.484   1.955
15712TIP3   OH268550   5.080   3.797   3.696
15712TIP3    H168551   5.082   3.744   3.779
15712TIP3    H268552   5.169   3.780   3.660
15713TIP3   OH268553   5.398   5.398   3.560
15713TIP3    H168554   5.318   5.384   3.505
15713TIP3    H268555   5.386   5.493   3.580
15714TIP3   OH268556   6.842   4.784   2.556
15714TIP3    H168557   6.842   4.882   2.553
15714TIP3    H268558   6.769   4.762   2.496
15715TIP3   OH268559   6.730   4.709   2.905
15715TIP3    H168560   6.725   4.647   2.980
15715TIP3    H268561   6.693   4.661   2.830
15716TIP3   OH268562   5.963   4.677   3.061
15716TIP3    H168563   5.971   4.609   3.131
15716TIP3    H268564   6.037   4.736   3.084
15717TIP3   OH268565   7.099   5.004   2.735
15717TIP3    H168566   7.056   4.934   2.784
15717TIP3    H268567   7.099   5.076   2.801
15718TIP3   OH268568   6.055   5.124   2.911
15718TIP3    H168569   6.024   5.036   2.880
15718TIP3    H268570   6.150   5.104   2.916
15719TIP3   OH268571   5.720   4.478   2.461
15719TIP3    H168572   5.676   4.565   2.455
15719TIP3    H268573   5.663   4.425   2.404
15720TIP3   OH268574   5.792   4.701   2.673
15720TIP3    H168575   5.819   4.619   2.720
15720TIP3    H268576   5.862   4.711   2.607
15721TIP3   OH268577   6.808   5.521   2.757
15721TIP3    H168578   6.873   5.452   2.730
15721TIP3    H268579   6.785   5.488   2.844
15722TIP3   OH268580   6.566   4.950   2.954
15722TIP3    H168581   6.599   4.888   2.887
15722TIP3    H268582   6.647   4.967   3.005
15723TIP3   OH268583   6.872   4.394   2.983
15723TIP3    H168584   6.905   4.302   2.985
15723TIP3    H268585   6.879   4.415   2.888
15724TIP3   OH268586   6.197   4.208   2.705
15724TIP3    H168587   6.201   4.290   2.654
15724TIP3    H268588   6.154   4.147   2.641
15725TIP3   OH268589   6.968   4.222   2.549
15725TIP3    H168590   7.036   4.182   2.609
15725TIP3    H268591   7.027   4.269   2.490
15726TIP3   OH268592   5.855   4.448   2.779
15726TIP3    H168593   5.922   4.393   2.825
15726TIP3    H268594   5.866   4.417   2.688
15727TIP3   OH268595   6.371   4.603   2.712
15727TIP3    H168596   6.437   4.546   2.752
15727TIP3    H268597   6.319   4.538   2.661
15728TIP3   OH268598   6.085   4.102   3.114
15728TIP3    H168599   6.055   4.152   3.035
15728TIP3    H268600   6.014   4.120   3.179
15729TIP3   OH268601   6.811   5.043   2.464
15729TIP3    H168602   6.786   5.017   2.375
15729TIP3    H268603   6.782   5.137   2.470
15730TIP3   OH268604   6.335   4.860   3.134
15730TIP3    H168605   6.265   4.925   3.156
15730TIP3    H268606   6.406   4.920   3.105
15731TIP3   OH268607   7.116   4.147   2.756
15731TIP3    H168608   7.124   4.064   2.803
15731TIP3    H268609   7.195   4.193   2.793
15732TIP3   OH268610   6.041   4.283   2.913
15732TIP3    H168611   6.105   4.350   2.945
15732TIP3    H268612   6.093   4.240   2.841
15733TIP3   OH268613   6.179   5.061   3.214
15733TIP3    H168614   6.175   5.153   3.182
15733TIP3    H268615   6.090   5.053   3.259
15734TIP3   OH268616   5.788   5.022   2.295
15734TIP3    H168617   5.763   5.056   2.208
15734TIP3    H268618   5.796   5.105   2.347
15735TIP3   OH268619   7.129   5.182   2.981
15735TIP3    H168620   7.033   5.203   2.985
15735TIP3    H268621   7.167   5.266   2.950
15736TIP3   OH268622   7.160   4.030   3.084
15736TIP3    H168623   7.093   4.099   3.099
15736TIP3    H268624   7.237   4.080   3.053
15737TIP3   OH268625   6.480   3.832   2.860
15737TIP3    H168626   6.462   3.736   2.846
15737TIP3    H268627   6.388   3.858   2.882
15738TIP3   OH268628   6.967   5.361   2.632
15738TIP3    H168629   7.016   5.293   2.581
15738TIP3    H268630   7.012   5.441   2.597
15739TIP3   OH268631   7.095   5.159   2.482
15739TIP3    H168632   7.070   5.088   2.421
15739TIP3    H268633   7.101   5.109   2.566
15740TIP3   OH268634   7.232   5.034   3.344
15740TIP3    H168635   7.260   4.964   3.281
15740TIP3    H268636   7.273   5.110   3.298
15741TIP3   OH268637   6.707   4.708   2.307
15741TIP3    H168638   6.638   4.767   2.271
15741TIP3    H268639   6.778   4.718   2.242
15742TIP3   OH268640   6.715   4.566   2.009
15742TIP3    H168641   6.787   4.564   2.074
15742TIP3    H268642   6.746   4.494   1.951
15743TIP3   OH268643   7.049   4.730   2.396
15743TIP3    H168644   6.977   4.756   2.458
15743TIP3    H268645   7.098   4.667   2.453
15744TIP3   OH268646   7.047   4.548   3.309
15744TIP3    H168647   7.042   4.628   3.364
15744TIP3    H268648   6.983   4.575   3.241
15745TIP3   OH268649   6.214   4.796   2.591
15745TIP3    H168650   6.182   4.757   2.506
15745TIP3    H268651   6.275   4.727   2.625
15746TIP3   OH268652   6.345   5.134   2.859
15746TIP3    H168653   6.345   5.082   2.778
15746TIP3    H268654   6.424   5.099   2.905
15747TIP3   OH268655   6.246   4.670   2.958
15747TIP3    H168656   6.301   4.680   2.877
15747TIP3    H268657   6.285   4.737   3.018
15748TIP3   OH268658   6.880   5.229   3.027
15748TIP3    H168659   6.861   5.292   3.097
15748TIP3    H268660   6.863   5.142   3.070
15749TIP3   OH268661   6.342   5.114   3.427
15749TIP3    H168662   6.300   5.187   3.476
15749TIP3    H268663   6.274   5.094   3.357
15750TIP3   OH268664   6.939   4.648   2.167
15750TIP3    H168665   6.995   4.670   2.246
15750TIP3    H268666   6.979   4.701   2.095
15751TIP3   OH268667   6.037   4.728   3.344
15751TIP3    H168668   6.042   4.796   3.414
15751TIP3    H268669   5.943   4.739   3.322
15752TIP3   OH268670   6.710   5.322   2.513
15752TIP3    H168671   6.754   5.352   2.594
15752TIP3    H268672   6.655   5.397   2.489
15753TIP3   OH268673   6.167   5.317   3.502
15753TIP3    H168674   6.160   5.307   3.405
15753TIP3    H268675   6.074   5.304   3.529
15754TIP3   OH268676   6.109   4.698   2.355
15754TIP3    H168677   6.082   4.776   2.303
15754TIP3    H268678   6.045   4.631   2.330
15755TIP3   OH268679   5.720   4.941   3.248
15755TIP3    H168680   5.677   4.940   3.158
15755TIP3    H268681   5.726   4.845   3.262
15756TIP3   OH268682   5.699   5.229   2.906
15756TIP3    H168683   5.790   5.201   2.921
15756TIP3    H268684   5.686   5.295   2.974
15757TIP3   OH268685   6.615   5.239   3.376
15757TIP3    H168686   6.621   5.323   3.426
15757TIP3    H268687   6.528   5.204   3.400
15758TIP3   OH268688   6.663   5.614   2.355
15758TIP3    H168689   6.650   5.605   2.259
15758TIP3    H268690   6.662   5.710   2.370
15759TIP3   OH268691   6.021   5.503   2.538
15759TIP3    H168692   6.039   5.459   2.624
15759TIP3    H268693   5.939   5.456   2.514
15760TIP3   OH268694   6.967   5.536   2.052
15760TIP3    H168695   7.010   5.459   2.008
15760TIP3    H268696   6.968   5.509   2.146
15761TIP3   OH268697   6.932   5.526   2.332
15761TIP3    H168698   6.836   5.535   2.348
15761TIP3    H268699   6.955   5.452   2.389
15762TIP3   OH268700   7.185   4.449   3.539
15762TIP3    H168701   7.181   4.484   3.450
15762TIP3    H268702   7.238   4.367   3.524
15763TIP3   OH268703   5.948   5.073   3.337
15763TIP3    H168704   5.968   5.036   3.425
15763TIP3    H268705   5.861   5.033   3.315
15764TIP3   OH268706   6.216   3.924   2.960
15764TIP3    H168707   6.144   3.906   2.895
15764TIP3    H268708   6.196   4.015   2.983
15765TIP3   OH268709   6.681   3.889   3.267
15765TIP3    H168710   6.720   3.846   3.345
15765TIP3    H268711   6.584   3.876   3.282
15766TIP3   OH268712   7.002   4.267   3.351
15766TIP3    H168713   6.955   4.250   3.436
15766TIP3    H268714   6.995   4.363   3.338
15767TIP3   OH268715   7.090   4.744   1.948
15767TIP3    H168716   7.082   4.729   1.851
15767TIP3    H268717   7.166   4.801   1.951
15768TIP3   OH268718   6.645   4.146   1.999
15768TIP3    H168719   6.613   4.139   2.091
15768TIP3    H268720   6.614   4.058   1.968
15769TIP3   OH268721   6.228   4.417   3.056
15769TIP3    H168722   6.154   4.415   3.120
15769TIP3    H268723   6.222   4.508   3.019
15770TIP3   OH268724   6.224   4.427   2.544
15770TIP3    H168725   6.129   4.406   2.531
15770TIP3    H268726   6.259   4.401   2.456
15771TIP3   OH268727   6.775   4.479   2.423
15771TIP3    H168728   6.735   4.561   2.385
15771TIP3    H268729   6.843   4.463   2.355
15772TIP3   OH268730   6.694   4.495   3.555
15772TIP3    H168731   6.643   4.412   3.579
15772TIP3    H268732   6.777   4.484   3.605
15773TIP3   OH268733   6.863   4.423   2.707
15773TIP3    H168734   6.854   4.486   2.632
15773TIP3    H268735   6.895   4.346   2.655
15774TIP3   OH268736   5.988   4.442   3.224
15774TIP3    H168737   5.996   4.482   3.312
15774TIP3    H268738   5.946   4.356   3.245
15775TIP3   OH268739   6.326   4.182   1.911
15775TIP3    H168740   6.280   4.140   1.986
15775TIP3    H268741   6.255   4.225   1.861
15776TIP3   OH268742   5.655   4.154   2.623
15776TIP3    H168743   5.722   4.149   2.694
15776TIP3    H268744   5.701   4.115   2.546
15777TIP3   OH268745   5.781   4.225   2.158
15777TIP3    H168746   5.832   4.287   2.103
15777TIP3    H268747   5.713   4.286   2.192
15778TIP3   OH268748   6.794   4.585   3.159
15778TIP3    H168749   6.836   4.517   3.104
15778TIP3    H268750   6.750   4.534   3.229
15779TIP3   OH268751   6.483   4.193   2.650
15779TIP3    H168752   6.385   4.183   2.664
15779TIP3    H268753   6.511   4.156   2.732
15780TIP3   OH268754   5.959   4.342   2.529
15780TIP3    H168755   5.870   4.355   2.491
15780TIP3    H268756   5.987   4.256   2.492
15781TIP3   OH268757   6.323   4.344   2.293
15781TIP3    H168758   6.418   4.356   2.308
15781TIP3    H268759   6.299   4.413   2.228
15782TIP3   OH268760   6.907   4.117   2.966
15782TIP3    H168761   6.846   4.109   3.043
15782TIP3    H268762   6.867   4.071   2.892
15783TIP3   OH268763   6.194   4.462   2.052
15783TIP3    H168764   6.140   4.424   1.980
15783TIP3    H268765   6.276   4.483   2.005
15784TIP3   OH268766   7.229   5.677   3.604
15784TIP3    H168767   7.263   5.710   3.519
15784TIP3    H268768   7.303   5.702   3.660
15785TIP3   OH268769   6.007   4.918   3.558
15785TIP3    H168770   6.078   4.944   3.619
15785TIP3    H268771   5.929   4.927   3.617
15786TIP3   OH268772   6.599   4.455   2.831
15786TIP3    H168773   6.672   4.420   2.780
15786TIP3    H268774   6.592   4.410   2.917
15787TIP3   OH268775   6.103   4.077   2.470
15787TIP3    H168776   6.078   3.983   2.483
15787TIP3    H268777   6.187   4.065   2.425
15788TIP3   OH268778   6.473   4.294   3.071
15788TIP3    H168779   6.388   4.343   3.084
15788TIP3    H268780   6.525   4.327   3.147
15789TIP3   OH268781   6.529   4.915   2.244
15789TIP3    H168782   6.449   4.869   2.211
15789TIP3    H268783   6.506   4.927   2.339
15790TIP3   OH268784   7.216   4.837   3.124
15790TIP3    H168785   7.288   4.850   3.059
15790TIP3    H268786   7.140   4.838   3.063
15791TIP3   OH268787   6.915   4.198   2.062
15791TIP3    H168788   6.819   4.210   2.047
15791TIP3    H268789   6.943   4.284   2.099
15792TIP3   OH268790   6.679   4.942   3.369
15792TIP3    H168791   6.642   4.901   3.447
15792TIP3    H268792   6.656   5.035   3.378
15793TIP3   OH268793   6.985   4.390   2.222
15793TIP3    H168794   7.072   4.376   2.265
15793TIP3    H268795   6.995   4.474   2.174
15794TIP3   OH268796   6.039   4.855   2.825
15794TIP3    H168797   6.107   4.847   2.755
15794TIP3    H268798   6.046   4.769   2.870
15795TIP3   OH268799   6.737   5.062   2.148
15795TIP3    H168800   6.704   5.147   2.184
15795TIP3    H268801   6.664   5.000   2.171
15796TIP3   OH268802   5.739   4.695   3.350
15796TIP3    H168803   5.756   4.651   3.436
15796TIP3    H268804   5.677   4.634   3.306
15797TIP3   OH268805   6.438   4.654   3.561
15797TIP3    H168806   6.400   4.624   3.475
15797TIP3    H268807   6.531   4.636   3.542
15798TIP3   OH268808   6.908   5.183   3.364
15798TIP3    H168809   6.816   5.201   3.340
15798TIP3    H268810   6.906   5.213   3.456
15799TIP3   OH268811   7.020   4.765   2.954
15799TIP3    H168812   6.926   4.744   2.940
15799TIP3    H268813   7.067   4.691   2.911
15800TIP3   OH268814   6.277   5.201   2.563
15800TIP3    H168815   6.327   5.281   2.542
15800TIP3    H268816   6.189   5.223   2.530
15801TIP3   OH268817   5.854   4.684   2.020
15801TIP3    H168818   5.912   4.751   2.061
15801TIP3    H268819   5.765   4.715   2.045
15802TIP3   OH268820   6.418   4.967   2.514
15802TIP3    H168821   6.387   5.059   2.524
15802TIP3    H268822   6.347   4.917   2.559
15803TIP3   OH268823   6.463   5.385   3.156
15803TIP3    H168824   6.510   5.466   3.127
15803TIP3    H268825   6.525   5.351   3.224
15804TIP3   OH268826   6.286   5.467   2.466
15804TIP3    H168827   6.190   5.479   2.482
15804TIP3    H268828   6.324   5.549   2.503
15805TIP3   OH268829   6.818   4.985   3.118
15805TIP3    H168830   6.784   4.965   3.208
15805TIP3    H268831   6.881   4.913   3.101
15806TIP3   OH268832   7.048   5.090   2.026
15806TIP3    H168833   7.080   5.047   2.107
15806TIP3    H268834   6.953   5.073   2.035
15807TIP3   OH268835   7.098   5.440   3.365
15807TIP3    H168836   7.026   5.394   3.318
15807TIP3    H268837   7.119   5.513   3.301
15808TIP3   OH268838   5.904   4.169   3.306
15808TIP3    H168839   5.813   4.203   3.302
15808TIP3    H268840   5.893   4.084   3.352
15809TIP3   OH268841   7.128   4.951   2.248
15809TIP3    H168842   7.105   4.875   2.306
15809TIP3    H268843   7.221   4.963   2.271
15810TIP3   OH268844   5.865   5.347   3.148
15810TIP3    H168845   5.895   5.255   3.149
15810TIP3    H268846   5.891   5.376   3.236
15811TIP3   OH268847   6.463   5.200   1.876
15811TIP3    H168848   6.473   5.123   1.817
15811TIP3    H268849   6.418   5.157   1.953
15812TIP3   OH268850   6.339   5.152   2.122
15812TIP3    H168851   6.367   5.101   2.198
15812TIP3    H268852   6.349   5.245   2.154
15813TIP3   OH268853   5.994   4.877   2.170
15813TIP3    H168854   5.923   4.916   2.224
15813TIP3    H268855   6.045   4.955   2.141
15814TIP3   OH268856   6.775   4.143   3.199
15814TIP3    H168857   6.847   4.153   3.263
15814TIP3    H268858   6.737   4.057   3.225
15815TIP3   OH268859   6.855   4.103   2.312
15815TIP3    H168860   6.875   4.148   2.227
15815TIP3    H268861   6.915   4.148   2.373
15816TIP3   OH268862   6.620   5.319   2.191
15816TIP3    H168863   6.538   5.372   2.198
15816TIP3    H268864   6.674   5.374   2.132
15817TIP3   OH268865   6.577   4.275   2.393
15817TIP3    H168866   6.652   4.338   2.395
15817TIP3    H268867   6.546   4.268   2.485
15818TIP3   OH268868   6.631   4.378   3.311
15818TIP3    H168869   6.644   4.437   3.387
15818TIP3    H268870   6.698   4.309   3.320
15819TIP3   OH268871   6.661   3.984   2.482
15819TIP3    H168872   6.623   4.050   2.540
15819TIP3    H268873   6.729   4.038   2.433
15820TIP3   OH268874   6.360   5.422   2.194
15820TIP3    H168875   6.369   5.504   2.139
15820TIP3    H268876   6.332   5.459   2.281
15821TIP3   OH268877   6.225   4.094   2.152
15821TIP3    H168878   6.220   4.184   2.190
15821TIP3    H268879   6.315   4.069   2.180
15822TIP3   OH268880   7.235   4.144   3.376
15822TIP3    H168881   7.152   4.197   3.380
15822TIP3    H268882   7.275   4.173   3.294
15823TIP3   OH268883   7.107   4.546   2.802
15823TIP3    H168884   7.027   4.502   2.770
15823TIP3    H268885   7.153   4.476   2.849
15824TIP3   OH268886   6.048   5.138   2.056
15824TIP3    H168887   6.115   5.202   2.087
15824TIP3    H268888   6.100   5.092   1.987
15825TIP3   OH268889   5.883   4.406   1.970
15825TIP3    H168890   5.885   4.501   1.991
15825TIP3    H268891   5.794   4.388   1.940
15826TIP3   OH268892   7.222   5.475   2.963
15826TIP3    H168893   7.206   5.542   2.893
15826TIP3    H268894   7.316   5.484   2.979
15827TIP3   OH268895   5.936   3.892   2.853
15827TIP3    H168896   5.954   3.887   2.756
15827TIP3    H268897   5.925   3.797   2.871
15828TIP3   OH268898   5.861   5.279   2.461
15828TIP3    H168899   5.774   5.320   2.454
15828TIP3    H268900   5.908   5.322   2.388
15829TIP3   OH268901   5.780   5.543   3.587
15829TIP3    H168902   5.841   5.522   3.661
15829TIP3    H268903   5.740   5.456   3.569
15830TIP3   OH268904   6.248   5.433   3.748
15830TIP3    H168905   6.324   5.383   3.782
15830TIP3    H268906   6.246   5.405   3.655
15831TIP3   OH268907   6.663   5.385   1.888
15831TIP3    H168908   6.593   5.319   1.911
15831TIP3    H268909   6.735   5.324   1.864
15832TIP3   OH268910   6.904   5.271   3.623
15832TIP3    H168911   6.869   5.184   3.650
15832TIP3    H268912   6.980   5.281   3.684
15833TIP3   OH268913   7.115   5.361   1.912
15833TIP3    H168914   7.146   5.281   1.957
15833TIP3    H268915   7.190   5.379   1.852
15834TIP3   OH268916   5.771   4.920   3.685
15834TIP3    H168917   5.788   4.828   3.659
15834TIP3    H268918   5.696   4.944   3.628
15835TIP3   OH268919   6.206   4.953   1.889
15835TIP3    H168920   6.221   4.877   1.948
15835TIP3    H268921   6.281   4.941   1.827
15836TIP3   OH268922   6.444   4.917   3.626
15836TIP3    H168923   6.409   4.952   3.541
15836TIP3    H268924   6.448   4.821   3.611
15837TIP3   OH268925   6.749   5.064   1.867
15837TIP3    H168926   6.722   5.072   1.960
15837TIP3    H268927   6.730   4.968   1.852
15838TIP3   OH268928   7.010   4.900   3.365
15838TIP3    H168929   7.089   4.959   3.359
15838TIP3    H268930   6.943   4.968   3.369
15839TIP3   OH268931   5.859   4.639   3.623
15839TIP3    H168932   5.906   4.556   3.617
15839TIP3    H268933   5.841   4.643   3.718
15840TIP3   OH268934   6.328   4.755   2.132
15840TIP3    H168935   6.277   4.701   2.195
15840TIP3    H268936   6.357   4.687   2.066
15841TIP3   OH268937   6.258   4.539   3.364
15841TIP3    H168938   6.192   4.607   3.384
15841TIP3    H268939   6.291   4.571   3.278
15842TIP3   OH268940   6.434   4.577   1.952
15842TIP3    H168941   6.419   4.568   1.855
15842TIP3    H268942   6.532   4.582   1.958
15843TIP3   OH268943   6.759   4.788   3.693
15843TIP3    H168944   6.855   4.796   3.682
15843TIP3    H268945   6.753   4.716   3.756
15844TIP3   OH268946   6.299   4.275   3.466
15844TIP3    H168947   6.304   4.202   3.401
15844TIP3    H268948   6.288   4.354   3.409
15845TIP3   OH268949   6.336   4.112   3.220
15845TIP3    H168950   6.385   4.159   3.150
15845TIP3    H268951   6.246   4.103   3.179
15846TIP3   OH268952   6.491   4.663   3.251
15846TIP3    H168953   6.563   4.645   3.190
15846TIP3    H268954   6.451   4.743   3.211
15847TIP3   OH268955   6.931   4.440   3.742
15847TIP3    H168956   6.956   4.346   3.734
15847TIP3    H268957   7.020   4.480   3.739
15848TIP3   OH268958   7.062   4.719   3.559
15848TIP3    H168959   7.035   4.788   3.495
15848TIP3    H268960   7.155   4.708   3.539
15849TIP3   OH268961   6.142   4.398   3.658
15849TIP3    H168962   6.063   4.342   3.642
15849TIP3    H268963   6.205   4.359   3.594
15850TIP3   OH268964   6.413   3.855   3.260
15850TIP3    H168965   6.396   3.951   3.251
15850TIP3    H268966   6.339   3.819   3.208
15851TIP3   OH268967   6.534   4.302   3.628
15851TIP3    H168968   6.509   4.256   3.712
15851TIP3    H268969   6.465   4.265   3.568
15852TIP3   OH268970   6.808   4.209   3.537
15852TIP3    H168971   6.712   4.203   3.543
15852TIP3    H268972   6.841   4.139   3.597
15853TIP3   OH268973   6.980   4.062   3.726
15853TIP3    H168974   6.965   3.965   3.725
15853TIP3    H268975   6.944   4.093   3.811
15854TIP3   OH268976   5.948   4.193   3.634
15854TIP3    H168977   5.973   4.119   3.576
15854TIP3    H268978   5.939   4.148   3.720
15855TIP3   OH268979   6.435   3.795   3.531
15855TIP3    H168980   6.503   3.724   3.529
15855TIP3    H268981   6.423   3.809   3.435
15856TIP3   OH268982   6.473   3.958   3.740
15856TIP3    H168983   6.454   3.905   3.659
15856TIP3    H268984   6.409   4.031   3.732
15857TIP3   OH268985   6.418   5.647   2.059
15857TIP3    H168986   6.515   5.656   2.066
15857TIP3    H268987   6.403   5.708   1.986
15858TIP3   OH268988   5.773   5.105   2.006
15858TIP3    H168989   5.870   5.114   2.024
15858TIP3    H268990   5.778   5.040   1.932
15859TIP3   OH268991   5.658   5.644   2.499
15859TIP3    H168992   5.581   5.597   2.458
15859TIP3    H268993   5.677   5.579   2.570
15860TIP3   OH268994   5.732   5.457   2.691
15860TIP3    H168995   5.697   5.369   2.712
15860TIP3    H268996   5.756   5.488   2.780
15861TIP3   OH268997   7.280   5.262   3.208
15861TIP3    H168998   7.214   5.306   3.264
15861TIP3    H268999   7.227   5.226   3.135
15862TIP3   OH269000   7.187   4.562   2.544
15862TIP3    H169001   7.214   4.470   2.547
15862TIP3    H269002   7.200   4.588   2.638
15863TIP3   OH269003   5.740   4.753   2.939
15863TIP3    H169004   5.758   4.757   2.843
15863TIP3    H269005   5.830   4.748   2.975
15864TIP3   OH269006   7.247   4.157   1.881
15864TIP3    H169007   7.305   4.115   1.944
15864TIP3    H269008   7.160   4.116   1.900
15865TIP3   OH269009   7.202   4.308   2.364
15865TIP3    H169010   7.231   4.224   2.404
15865TIP3    H269011   7.287   4.343   2.334
15866TIP3   OH269012  -0.056   4.286   2.924
15866TIP3    H169013   0.033   4.319   2.909
15866TIP3    H269014  -0.074   4.350   2.995
15867TIP3   OH269015   7.277   4.446   3.228
15867TIP3    H169016   7.184   4.473   3.237
15867TIP3    H269017   7.313   4.515   3.169
15868TIP3   OH269018   5.700   4.293   3.555
15868TIP3    H169019   5.795   4.275   3.574
15868TIP3    H269020   5.658   4.211   3.585
15869TIP3   OH269021   7.183   4.013   2.450
15869TIP3    H169022   7.276   3.995   2.472
15869TIP3    H269023   7.184   3.970   2.361
15870TIP3   OH269024   5.818   4.127   2.843
15870TIP3    H169025   5.865   4.041   2.863
15870TIP3    H269026   5.878   4.193   2.879
15871TIP3   OH269027   5.649   4.424   2.945
15871TIP3    H169028   5.705   4.399   2.869
15871TIP3    H269029   5.695   4.506   2.971
15872TIP3   OH269030   5.686   4.051   2.352
15872TIP3    H169031   5.592   4.067   2.336
15872TIP3    H269032   5.728   4.099   2.279
15873TIP3   OH269033   7.141   5.526   2.556
15873TIP3    H169034   7.208   5.494   2.495
15873TIP3    H269035   7.193   5.585   2.614
15874TIP3   OH269036   5.681   3.915   3.180
15874TIP3    H169037   5.615   3.895   3.248
15874TIP3    H269038   5.635   3.983   3.127
15875TIP3   OH269039   5.905   5.236   3.597
15875TIP3    H169040   5.821   5.257   3.553
15875TIP3    H269041   5.878   5.227   3.689
15876TIP3   OH269042   6.195   5.336   3.225
15876TIP3    H169043   6.162   5.422   3.198
15876TIP3    H269044   6.287   5.344   3.194
15877TIP3   OH269045   6.627   5.478   3.515
15877TIP3    H169046   6.640   5.443   3.606
15877TIP3    H269047   6.717   5.509   3.491
15878TIP3   OH269048   6.857   5.604   3.447
15878TIP3    H169049   6.932   5.547   3.423
15878TIP3    H269050   6.895   5.650   3.525
15879TIP3   OH269051   5.937   5.659   3.224
15879TIP3    H169052   5.864   5.709   3.184
15879TIP3    H269053   5.906   5.640   3.314
15880TIP3   OH269054   6.183   5.616   3.131
15880TIP3    H169055   6.094   5.632   3.171
15880TIP3    H269056   6.178   5.676   3.054
15881TIP3   OH269057   6.651   5.607   3.049
15881TIP3    H169058   6.608   5.664   2.984
15881TIP3    H269059   6.668   5.671   3.122
15882TIP3   OH269060   6.883   5.488   3.151
15882TIP3    H169061   6.797   5.516   3.115
15882TIP3    H269062   6.929   5.574   3.145
15883TIP3   OH269063   7.128   5.646   3.173
15883TIP3    H169064   7.127   5.741   3.151
15883TIP3    H269065   7.162   5.609   3.089
15884TIP3   OH269066   5.883   5.525   2.919
15884TIP3    H169067   5.874   5.479   3.005
15884TIP3    H269068   5.965   5.486   2.880
15885TIP3   OH269069   6.091   5.395   2.783
15885TIP3    H169070   6.073   5.302   2.808
15885TIP3    H269071   6.176   5.410   2.829
15886TIP3   OH269072   6.352   5.443   2.872
15886TIP3    H169073   6.366   5.351   2.846
15886TIP3    H269074   6.356   5.438   2.969
15887TIP3   OH269075   6.695   4.002   2.785
15887TIP3    H169076   6.627   3.937   2.813
15887TIP3    H269077   6.750   3.946   2.727
15888TIP3   OH269078   7.211   3.812   2.793
15888TIP3    H169079   7.269   3.875   2.749
15888TIP3    H269080   7.123   3.847   2.772
15889TIP3   OH269081   5.923   3.876   2.565
15889TIP3    H169082   5.848   3.845   2.513
15889TIP3    H269083   5.982   3.797   2.569
15890TIP3   OH269084   5.810   3.847   2.142
15890TIP3    H169085   5.859   3.912   2.089
15890TIP3    H269086   5.753   3.904   2.196
15891TIP3   OH269087   6.407   3.863   2.532
15891TIP3    H169088   6.490   3.906   2.548
15891TIP3    H269089   6.368   3.845   2.621
15892TIP3   OH269090   6.949   3.864   2.711
15892TIP3    H169091   6.951   3.877   2.616
15892TIP3    H269092   6.912   3.773   2.723
15893TIP3   OH269093   7.075   3.860   2.268
15893TIP3    H169094   7.005   3.927   2.263
15893TIP3    H269095   7.028   3.780   2.301
15894TIP3   OH269096   5.802   5.442   2.246
15894TIP3    H169097   5.736   5.437   2.174
15894TIP3    H269098   5.799   5.537   2.261
15895TIP3   OH269099   5.993   4.041   1.993
15895TIP3    H169100   6.046   3.979   1.940
15895TIP3    H269101   6.059   4.073   2.057
15896TIP3   OH269102   6.496   4.064   2.234
15896TIP3    H169103   6.518   4.006   2.309
15896TIP3    H269104   6.502   4.151   2.279
15897TIP3   OH269105   6.688   5.572   2.079
15897TIP3    H169106   6.780   5.595   2.057
15897TIP3    H269107   6.667   5.520   1.998
15898TIP3   OH269108   5.922   3.925   3.516
15898TIP3    H169109   5.882   3.845   3.556
15898TIP3    H269110   6.013   3.921   3.554
15899TIP3   OH269111   6.123   3.865   3.680
15899TIP3    H169112   6.212   3.830   3.658
15899TIP3    H269113   6.085   3.784   3.720
15900TIP3   OH269114   5.981   5.542   1.940
15900TIP3    H169115   5.956   5.565   2.030
15900TIP3    H269116   6.059   5.484   1.954
15901TIP3   OH269117   6.962   3.794   3.693
15901TIP3    H169118   6.971   3.747   3.778
15901TIP3    H269119   7.054   3.793   3.659
15902TIP3   OH269120   7.262   5.386   3.572
15902TIP3    H169121   7.197   5.380   3.498
15902TIP3    H269122   7.264   5.484   3.580
15903TIP3   OH269123   1.185   6.668   2.555
15903TIP3    H169124   1.183   6.767   2.554
15903TIP3    H269125   1.112   6.647   2.495
15904TIP3   OH269126   1.070   6.596   2.906
15904TIP3    H169127   1.069   6.531   2.978
15904TIP3    H269128   1.036   6.545   2.831
15905TIP3   OH269129   0.311   6.563   3.058
15905TIP3    H169130   0.317   6.495   3.129
15905TIP3    H269131   0.381   6.623   3.085
15906TIP3   OH269132   1.439   6.890   2.736
15906TIP3    H169133   1.397   6.818   2.785
15906TIP3    H269134   1.443   6.962   2.801
15907TIP3   OH269135   0.399   7.008   2.916
15907TIP3    H169136   0.366   6.924   2.880
15907TIP3    H269137   0.495   6.990   2.914
15908TIP3   OH269138   0.090   6.364   2.419
15908TIP3    H169139   0.045   6.444   2.456
15908TIP3    H269140   0.010   6.311   2.419
15909TIP3   OH269141   0.131   6.580   2.671
15909TIP3    H169142   0.161   6.504   2.723
15909TIP3    H269143   0.204   6.597   2.610
15910TIP3   OH269144   0.907   6.834   2.954
15910TIP3    H169145   0.942   6.773   2.887
15910TIP3    H269146   0.988   6.854   3.004
15911TIP3   OH269147   1.768   6.003   3.026
15911TIP3    H169148   1.786   6.061   3.102
15911TIP3    H269149   1.825   6.045   2.960
15912TIP3   OH269150   1.225   6.283   2.985
15912TIP3    H169151   1.242   6.187   2.985
15912TIP3    H269152   1.215   6.297   2.889
15913TIP3   OH269153   0.537   6.092   2.707
15913TIP3    H169154   0.548   6.175   2.657
15913TIP3    H269155   0.498   6.035   2.637
15914TIP3   OH269156   1.310   6.100   2.543
15914TIP3    H169157   1.375   6.068   2.610
15914TIP3    H269158   1.366   6.158   2.490
15915TIP3   OH269159   0.195   6.325   2.774
15915TIP3    H169160   0.268   6.278   2.820
15915TIP3    H269161   0.214   6.297   2.683
15916TIP3   OH269162   0.714   6.489   2.712
15916TIP3    H169163   0.782   6.431   2.751
15916TIP3    H269164   0.663   6.423   2.660
15917TIP3   OH269165   1.812   6.143   3.254
15917TIP3    H169166   1.751   6.219   3.242
15917TIP3    H269167   1.815   6.135   3.350
15918TIP3   OH269168   0.431   5.982   3.110
15918TIP3    H169169   0.400   6.039   3.036
15918TIP3    H269170   0.363   6.004   3.178
15919TIP3   OH269171   1.154   6.927   2.465
15919TIP3    H169172   1.131   6.904   2.374
15919TIP3    H269173   1.126   7.021   2.471
15920TIP3   OH269174   0.681   6.744   3.135
15920TIP3    H169175   0.609   6.808   3.156
15920TIP3    H269176   0.750   6.804   3.105
15921TIP3   OH269177   1.491   6.035   2.742
15921TIP3    H169178   1.469   5.958   2.796
15921TIP3    H269179   1.558   6.078   2.798
15922TIP3   OH269180   0.382   6.166   2.914
15922TIP3    H169181   0.444   6.235   2.946
15922TIP3    H269182   0.436   6.127   2.840
15923TIP3   OH269183   0.524   6.945   3.213
15923TIP3    H169184   0.518   7.036   3.180
15923TIP3    H269185   0.436   6.937   3.257
15924TIP3   OH269186   0.129   6.914   2.292
15924TIP3    H169187   0.106   6.947   2.204
15924TIP3    H269188   0.140   6.995   2.345
15925TIP3   OH269189   1.493   7.077   2.976
15925TIP3    H169190   1.395   7.085   2.985
15925TIP3    H269191   1.521   7.166   2.949
15926TIP3   OH269192   1.524   5.903   3.110
15926TIP3    H169193   1.452   5.967   3.101
15926TIP3    H269194   1.596   5.945   3.058
15927TIP3   OH269195   0.821   5.716   2.856
15927TIP3    H169196   0.808   5.620   2.849
15927TIP3    H269197   0.733   5.746   2.887
15928TIP3   OH269198   1.321   7.223   2.612
15928TIP3    H169199   1.378   7.161   2.561
15928TIP3    H269200   1.361   7.306   2.588
15929TIP3   OH269201   1.443   7.036   2.481
15929TIP3    H169202   1.408   6.970   2.421
15929TIP3    H269203   1.443   6.991   2.568
15930TIP3   OH269204   1.602   6.909   3.332
15930TIP3    H169205   1.614   6.842   3.262
15930TIP3    H269206   1.624   6.992   3.285
15931TIP3   OH269207   1.051   6.594   2.307
15931TIP3    H169208   0.981   6.652   2.272
15931TIP3    H269209   1.122   6.604   2.241
15932TIP3   OH269210   1.059   6.451   2.008
15932TIP3    H169211   1.129   6.449   2.075
15932TIP3    H269212   1.089   6.380   1.952
15933TIP3   OH269213   1.790   6.537   3.136
15933TIP3    H169214   1.724   6.609   3.140
15933TIP3    H269215   1.839   6.560   3.055
15934TIP3   OH269216   1.397   6.615   2.399
15934TIP3    H169217   1.322   6.639   2.459
15934TIP3    H269218   1.443   6.547   2.452
15935TIP3   OH269219   1.389   6.432   3.312
15935TIP3    H169220   1.389   6.514   3.364
15935TIP3    H269221   1.326   6.461   3.243
15936TIP3   OH269222   0.559   6.682   2.592
15936TIP3    H169223   0.524   6.642   2.509
15936TIP3    H269224   0.619   6.612   2.625
15937TIP3   OH269225   0.689   7.022   2.858
15937TIP3    H169226   0.689   6.967   2.779
15937TIP3    H269227   0.766   6.985   2.906
15938TIP3   OH269228   0.593   6.556   2.957
15938TIP3    H169229   0.646   6.567   2.877
15938TIP3    H269230   0.629   6.624   3.019
15939TIP3   OH269231   1.234   7.113   3.030
15939TIP3    H169232   1.198   7.176   3.092
15939TIP3    H269233   1.205   7.027   3.070
15940TIP3   OH269234   0.685   6.999   3.428
15940TIP3    H169235   0.641   7.074   3.475
15940TIP3    H269236   0.618   6.977   3.357
15941TIP3   OH269237   1.283   6.536   2.166
15941TIP3    H169238   1.339   6.552   2.246
15941TIP3    H269239   1.328   6.585   2.094
15942TIP3   OH269240   0.379   6.616   3.345
15942TIP3    H169241   0.383   6.685   3.414
15942TIP3    H269242   0.285   6.625   3.322
15943TIP3   OH269243   1.050   7.205   2.514
15943TIP3    H169244   1.100   7.237   2.590
15943TIP3    H269245   0.999   7.282   2.487
15944TIP3   OH269246   0.507   7.195   3.500
15944TIP3    H169247   0.499   7.192   3.402
15944TIP3    H269248   0.414   7.187   3.526
15945TIP3   OH269249   1.656   5.709   2.157
15945TIP3    H169250   1.561   5.720   2.181
15945TIP3    H269251   1.676   5.793   2.112
15946TIP3   OH269252   0.455   6.583   2.354
15946TIP3    H169253   0.426   6.661   2.303
15946TIP3    H269254   0.390   6.517   2.331
15947TIP3   OH269255   1.772   7.141   1.991
15947TIP3    H169256   1.780   7.237   2.006
15947TIP3    H269257   1.865   7.113   1.993
15948TIP3   OH269258   0.122   6.813   3.218
15948TIP3    H169259   0.046   6.825   3.158
15948TIP3    H269260   0.085   6.734   3.264
15949TIP3   OH269261   0.068   7.120   2.897
15949TIP3    H169262   0.153   7.087   2.925
15949TIP3    H269263   0.045   7.177   2.971
15950TIP3   OH269264   1.860   7.170   3.497
15950TIP3    H169265   1.850   7.074   3.484
15950TIP3    H269266   1.771   7.196   3.529
15951TIP3   OH269267   0.957   7.126   3.374
15951TIP3    H169268   0.967   7.207   3.426
15951TIP3    H269269   0.872   7.086   3.403
15952TIP3   OH269270   1.577   6.317   3.536
15952TIP3    H169271   1.530   6.362   3.465
15952TIP3    H269272   1.576   6.225   3.506
15953TIP3   OH269273   0.296   6.965   3.343
15953TIP3    H169274   0.311   6.921   3.429
15953TIP3    H269275   0.212   6.923   3.313
15954TIP3   OH269276   0.560   5.807   2.932
15954TIP3    H169277   0.470   5.794   2.895
15954TIP3    H269278   0.546   5.889   2.981
15955TIP3   OH269279   1.024   5.772   3.268
15955TIP3    H169280   1.063   5.731   3.348
15955TIP3    H269281   0.927   5.760   3.282
15956TIP3   OH269282   1.353   6.158   3.357
15956TIP3    H169283   1.297   6.136   3.435
15956TIP3    H269284   1.334   6.250   3.335
15957TIP3   OH269285   1.429   6.638   1.948
15957TIP3    H169286   1.426   6.620   1.851
15957TIP3    H269287   1.514   6.683   1.953
15958TIP3   OH269288   0.988   6.031   1.999
15958TIP3    H169289   0.956   6.025   2.091
15958TIP3    H269290   0.957   5.943   1.968
15959TIP3   OH269291   0.568   6.303   3.057
15959TIP3    H169292   0.495   6.303   3.122
15959TIP3    H269293   0.566   6.394   3.020
15960TIP3   OH269294   0.568   6.315   2.543
15960TIP3    H169295   0.474   6.291   2.530
15960TIP3    H269296   0.605   6.285   2.458
15961TIP3   OH269297   1.117   6.365   2.421
15961TIP3    H169298   1.078   6.448   2.384
15961TIP3    H269299   1.186   6.348   2.355
15962TIP3   OH269300   1.022   6.386   3.565
15962TIP3    H169301   0.970   6.308   3.596
15962TIP3    H269302   1.106   6.373   3.613
15963TIP3   OH269303   1.221   6.314   2.705
15963TIP3    H169304   1.193   6.370   2.631
15963TIP3    H269305   1.230   6.229   2.658
15964TIP3   OH269306   0.334   6.326   3.226
15964TIP3    H169307   0.335   6.369   3.313
15964TIP3    H269308   0.284   6.245   3.244
15965TIP3   OH269309   0.669   6.068   1.910
15965TIP3    H169310   0.624   6.026   1.986
15965TIP3    H269311   0.598   6.111   1.861
15966TIP3   OH269312   0.036   6.071   2.605
15966TIP3    H169313   0.068   6.037   2.690
15966TIP3    H269314   0.049   5.996   2.548
15967TIP3   OH269315   0.123   6.126   2.156
15967TIP3    H169316   0.179   6.181   2.098
15967TIP3    H269317   0.050   6.182   2.180
15968TIP3   OH269318   1.141   6.472   3.160
15968TIP3    H169319   1.179   6.404   3.102
15968TIP3    H269320   1.094   6.420   3.228
15969TIP3   OH269321   0.821   6.071   2.644
15969TIP3    H169322   0.728   6.071   2.673
15969TIP3    H269323   0.869   6.053   2.726
15970TIP3   OH269324   0.303   6.224   2.530
15970TIP3    H169325   0.216   6.242   2.491
15970TIP3    H269326   0.327   6.140   2.489
15971TIP3   OH269327   0.666   6.230   2.294
15971TIP3    H169328   0.762   6.241   2.309
15971TIP3    H269329   0.641   6.298   2.229
15972TIP3   OH269330   1.261   5.994   2.968
15972TIP3    H169331   1.193   5.999   3.039
15972TIP3    H269332   1.211   5.968   2.890
15973TIP3   OH269333   0.538   6.347   2.051
15973TIP3    H169334   0.484   6.310   1.979
15973TIP3    H269335   0.620   6.369   2.005
15974TIP3   OH269336   0.347   6.806   3.558
15974TIP3    H169337   0.421   6.828   3.618
15974TIP3    H269338   0.272   6.814   3.620
15975TIP3   OH269339   0.948   6.345   2.833
15975TIP3    H169340   1.009   6.293   2.780
15975TIP3    H269341   0.935   6.291   2.912
15976TIP3   OH269342   0.449   5.961   2.476
15976TIP3    H169343   0.418   5.869   2.476
15976TIP3    H269344   0.529   5.953   2.423
15977TIP3   OH269345   0.813   6.179   3.075
15977TIP3    H169346   0.730   6.230   3.084
15977TIP3    H269347   0.869   6.214   3.147
15978TIP3   OH269348   0.871   6.799   2.245
15978TIP3    H169349   0.791   6.753   2.212
15978TIP3    H269350   0.849   6.812   2.340
15979TIP3   OH269351   1.591   6.721   3.125
15979TIP3    H169352   1.647   6.771   3.062
15979TIP3    H269353   1.505   6.726   3.079
15980TIP3   OH269354   1.255   6.082   2.062
15980TIP3    H169355   1.160   6.098   2.049
15980TIP3    H269356   1.289   6.167   2.097
15981TIP3   OH269357   1.019   6.830   3.368
15981TIP3    H169358   0.986   6.786   3.447
15981TIP3    H269359   0.996   6.922   3.380
15982TIP3   OH269360   1.329   6.274   2.224
15982TIP3    H169361   1.417   6.261   2.265
15982TIP3    H269362   1.339   6.356   2.173
15983TIP3   OH269363   0.382   6.740   2.823
15983TIP3    H169364   0.450   6.733   2.755
15983TIP3    H269365   0.392   6.656   2.871
15984TIP3   OH269366   1.081   6.946   2.147
15984TIP3    H169367   1.048   7.032   2.181
15984TIP3    H269368   1.007   6.886   2.171
15985TIP3   OH269369   0.079   6.578   3.351
15985TIP3    H169370   0.105   6.535   3.434
15985TIP3    H269371   0.020   6.514   3.308
15986TIP3   OH269372   0.783   6.536   3.568
15986TIP3    H169373   0.751   6.505   3.482
15986TIP3    H269374   0.875   6.505   3.568
15987TIP3   OH269375   1.250   7.076   3.356
15987TIP3    H169376   1.156   7.083   3.339
15987TIP3    H269377   1.248   7.094   3.453
15988TIP3   OH269378   1.821   6.288   2.200
15988TIP3    H169379   1.760   6.260   2.129
15988TIP3    H269380   1.825   6.384   2.178
15989TIP3   OH269381   1.819   6.872   3.482
15989TIP3    H169382   1.730   6.896   3.448
15989TIP3    H269383   1.872   6.867   3.400
15990TIP3   OH269384   1.662   7.146   2.263
15990TIP3    H169385   1.605   7.072   2.276
15990TIP3    H269386   1.672   7.155   2.167
15991TIP3   OH269387   1.368   6.652   2.954
15991TIP3    H169388   1.274   6.632   2.942
15991TIP3    H269389   1.412   6.577   2.909
15992TIP3   OH269390   0.623   7.082   2.555
15992TIP3    H169391   0.670   7.166   2.546
15992TIP3    H269392   0.532   7.106   2.535
15993TIP3   OH269393   0.192   6.570   2.024
15993TIP3    H169394   0.256   6.635   2.060
15993TIP3    H269395   0.106   6.606   2.050
15994TIP3   OH269396   0.764   6.851   2.515
15994TIP3    H169397   0.732   6.943   2.524
15994TIP3    H269398   0.691   6.803   2.558
15995TIP3   OH269399   0.838   7.239   3.124
15995TIP3    H169400   0.852   7.334   3.117
15995TIP3    H269401   0.869   7.223   3.215
15996TIP3   OH269402   1.159   6.871   3.118
15996TIP3    H169403   1.125   6.849   3.207
15996TIP3    H269404   1.223   6.799   3.101
15997TIP3   OH269405   1.394   6.975   2.025
15997TIP3    H169406   1.423   6.932   2.108
15997TIP3    H269407   1.298   6.961   2.035
15998TIP3   OH269408   0.247   6.055   3.302
15998TIP3    H169409   0.158   6.091   3.310
15998TIP3    H269410   0.237   5.971   3.351
15999TIP3   OH269411   1.470   6.835   2.249
15999TIP3    H169412   1.447   6.760   2.307
15999TIP3    H269413   1.564   6.847   2.269
16000TIP3   OH269414   0.233   7.233   3.140
16000TIP3    H169415   0.236   7.138   3.150
16000TIP3    H269416   0.226   7.264   3.232
16001TIP3   OH269417   0.807   7.083   1.874
16001TIP3    H169418   0.815   7.006   1.817
16001TIP3    H269419   0.763   7.042   1.952
16002TIP3   OH269420   0.681   7.033   2.120
16002TIP3    H169421   0.709   6.985   2.199
16002TIP3    H269422   0.693   7.127   2.147
16003TIP3   OH269423   0.332   6.763   2.169
16003TIP3    H169424   0.261   6.802   2.224
16003TIP3    H269425   0.384   6.841   2.142
16004TIP3   OH269426   1.119   6.031   3.203
16004TIP3    H169427   1.192   6.037   3.266
16004TIP3    H269428   1.082   5.943   3.223
16005TIP3   OH269429   1.194   5.988   2.310
16005TIP3    H169430   1.218   6.034   2.228
16005TIP3    H269431   1.252   6.032   2.374
16006TIP3   OH269432   0.968   7.207   2.193
16006TIP3    H169433   0.883   7.255   2.198
16006TIP3    H269434   1.015   7.258   2.126
16007TIP3   OH269435   0.918   6.163   2.392
16007TIP3    H169436   0.996   6.222   2.397
16007TIP3    H269437   0.891   6.151   2.486
16008TIP3   OH269438   0.976   6.268   3.308
16008TIP3    H169439   0.980   6.322   3.389
16008TIP3    H269440   1.039   6.196   3.321
16009TIP3   OH269441   1.002   5.869   2.480
16009TIP3    H169442   0.970   5.934   2.546
16009TIP3    H269443   1.072   5.924   2.436
16010TIP3   OH269444   0.708   0.005   2.197
16010TIP3    H169445   0.711   0.084   2.139
16010TIP3    H269446   0.679   0.042   2.281
16011TIP3   OH269447   0.569   5.980   2.151
16011TIP3    H169448   0.563   6.069   2.190
16011TIP3    H269449   0.660   5.955   2.178
16012TIP3   OH269450   1.591   6.053   3.396
16012TIP3    H169451   1.498   6.084   3.383
16012TIP3    H269452   1.621   6.051   3.304
16013TIP3   OH269453   1.452   6.431   2.796
16013TIP3    H169454   1.370   6.387   2.770
16013TIP3    H269455   1.500   6.363   2.848
16014TIP3   OH269456   0.391   7.026   2.054
16014TIP3    H169457   0.459   7.088   2.083
16014TIP3    H269458   0.443   6.977   1.988
16015TIP3   OH269459   0.221   6.290   1.969
16015TIP3    H169460   0.228   6.385   1.989
16015TIP3    H269461   0.133   6.273   1.935
16016TIP3   OH269462   0.310   5.768   2.843
16016TIP3    H169463   0.288   5.772   2.747
16016TIP3    H269464   0.266   5.685   2.869
16017TIP3   OH269465   0.207   7.162   2.454
16017TIP3    H169466   0.120   7.203   2.456
16017TIP3    H269467   0.255   7.213   2.389
16018TIP3   OH269468   0.620   7.287   3.770
16018TIP3    H169469   0.706   7.247   3.787
16018TIP3    H269470   0.613   7.273   3.674
16019TIP3   OH269471   1.007   7.263   1.899
16019TIP3    H169472   0.933   7.201   1.907
16019TIP3    H269473   1.078   7.210   1.861
16020TIP3   OH269474   1.251   7.119   3.608
16020TIP3    H169475   1.203   7.052   3.660
16020TIP3    H269476   1.312   7.156   3.674
16021TIP3   OH269477   1.475   7.239   1.921
16021TIP3    H169478   1.503   7.156   1.960
16021TIP3    H269479   1.548   7.261   1.858
16022TIP3   OH269480   0.112   6.804   3.686
16022TIP3    H169481   0.133   6.715   3.654
16022TIP3    H269482   0.040   6.832   3.628
16023TIP3   OH269483   0.549   6.836   1.889
16023TIP3    H169484   0.564   6.761   1.947
16023TIP3    H269485   0.625   6.826   1.828
16024TIP3   OH269486   0.788   6.803   3.625
16024TIP3    H169487   0.752   6.833   3.539
16024TIP3    H269488   0.794   6.705   3.615
16025TIP3   OH269489   1.094   6.951   1.867
16025TIP3    H169490   1.064   6.960   1.958
16025TIP3    H269491   1.074   6.856   1.852
16026TIP3   OH269492   1.356   6.789   3.365
16026TIP3    H169493   1.435   6.848   3.358
16026TIP3    H269494   1.286   6.856   3.369
16027TIP3   OH269495   0.201   6.528   3.624
16027TIP3    H169496   0.249   6.443   3.616
16027TIP3    H269497   0.183   6.527   3.720
16028TIP3   OH269498   0.670   6.640   2.132
16028TIP3    H169499   0.620   6.587   2.195
16028TIP3    H269500   0.700   6.573   2.066
16029TIP3   OH269501   0.597   6.421   3.361
16029TIP3    H169502   0.536   6.491   3.389
16029TIP3    H269503   0.636   6.459   3.280
16030TIP3   OH269504   0.777   6.463   1.952
16030TIP3    H169505   0.762   6.454   1.856
16030TIP3    H269506   0.875   6.468   1.958
16031TIP3   OH269507   1.104   6.678   3.694
16031TIP3    H169508   1.200   6.677   3.682
16031TIP3    H269509   1.087   6.601   3.751
16032TIP3   OH269510   1.712   6.694   1.893
16032TIP3    H169511   1.689   6.658   1.806
16032TIP3    H269512   1.719   6.791   1.875
16033TIP3   OH269513   0.637   6.161   3.464
16033TIP3    H169514   0.648   6.088   3.400
16033TIP3    H269515   0.630   6.242   3.409
16034TIP3   OH269516   0.678   5.997   3.222
16034TIP3    H169517   0.729   6.044   3.151
16034TIP3    H269518   0.589   5.990   3.182
16035TIP3   OH269519   0.832   6.547   3.246
16035TIP3    H169520   0.907   6.530   3.188
16035TIP3    H269521   0.795   6.629   3.212
16036TIP3   OH269522   1.271   6.321   3.742
16036TIP3    H169523   1.292   6.227   3.735
16036TIP3    H269524   1.358   6.365   3.745
16037TIP3   OH269525   1.406   6.602   3.560
16037TIP3    H169526   1.380   6.673   3.497
16037TIP3    H269527   1.501   6.599   3.540
16038TIP3   OH269528   0.477   6.289   3.653
16038TIP3    H169529   0.404   6.224   3.642
16038TIP3    H269530   0.547   6.247   3.599
16039TIP3   OH269531   0.757   5.741   3.260
16039TIP3    H169532   0.738   5.837   3.251
16039TIP3    H269533   0.682   5.704   3.210
16040TIP3   OH269534   0.882   6.174   3.625
16040TIP3    H169535   0.850   6.148   3.714
16040TIP3    H269536   0.804   6.153   3.571
16041TIP3   OH269537   1.157   6.087   3.530
16041TIP3    H169538   1.060   6.094   3.544
16041TIP3    H269539   1.181   6.025   3.602
16042TIP3   OH269540   1.320   5.950   3.723
16042TIP3    H169541   1.308   5.853   3.726
16042TIP3    H269542   1.287   5.980   3.810
16043TIP3   OH269543   0.308   6.075   3.638
16043TIP3    H169544   0.316   6.002   3.574
16043TIP3    H269545   0.287   6.029   3.721
16044TIP3   OH269546   0.767   5.666   3.521
16044TIP3    H169547   0.847   5.611   3.527
16044TIP3    H269548   0.768   5.693   3.428
16045TIP3   OH269549   0.821   5.824   3.712
16045TIP3    H169550   0.785   5.782   3.633
16045TIP3    H269551   0.764   5.902   3.731
16046TIP3   OH269552   0.121   6.991   2.007
16046TIP3    H169553   0.216   7.003   2.027
16046TIP3    H269554   0.125   6.926   1.935
16047TIP3   OH269555   1.632   6.954   3.744
16047TIP3    H169556   1.542   6.949   3.783
16047TIP3    H269557   1.671   7.033   3.789
16048TIP3   OH269558   1.765   6.783   2.286
16048TIP3    H169559   1.848   6.827   2.309
16048TIP3    H269560   1.762   6.714   2.356
16049TIP3   OH269561   1.800   6.594   2.478
16049TIP3    H169562   1.725   6.544   2.517
16049TIP3    H269563   1.860   6.607   2.554
16050TIP3   OH269564   1.776   6.863   2.978
16050TIP3    H169565   1.856   6.826   2.938
16050TIP3    H269566   1.790   6.958   2.961
16051TIP3   OH269567   1.625   7.152   3.208
16051TIP3    H169568   1.555   7.190   3.261
16051TIP3    H269569   1.575   7.116   3.131
16052TIP3   OH269570   1.832   6.576   2.114
16052TIP3    H169571   1.772   6.612   2.045
16052TIP3    H269572   1.821   6.646   2.182
16053TIP3   OH269573   1.671   6.299   1.967
16053TIP3    H169574   1.672   6.367   1.899
16053TIP3    H269575   1.646   6.217   1.919
16054TIP3   OH269576   1.582   6.441   2.534
16054TIP3    H169577   1.567   6.346   2.530
16054TIP3    H269578   1.549   6.463   2.623
16055TIP3   OH269579   0.084   6.649   2.932
16055TIP3    H169580   0.104   6.644   2.836
16055TIP3    H269581   0.172   6.637   2.974
16056TIP3   OH269582   1.668   6.638   3.503
16056TIP3    H169583   1.729   6.563   3.516
16056TIP3    H269584   1.728   6.716   3.504
16057TIP3   OH269585   1.818   6.426   3.568
16057TIP3    H169586   1.730   6.386   3.553
16057TIP3    H269587   1.875   6.348   3.560
16058TIP3   OH269588   1.592   6.047   1.881
16058TIP3    H169589   1.651   6.003   1.945
16058TIP3    H269590   1.506   6.005   1.896
16059TIP3   OH269591   1.546   6.199   2.375
16059TIP3    H169592   1.578   6.107   2.392
16059TIP3    H269593   1.628   6.241   2.345
16060TIP3   OH269594   1.613   6.254   2.924
16060TIP3    H169595   1.709   6.277   2.923
16060TIP3    H269596   1.594   6.268   3.018
16061TIP3   OH269597   1.619   6.326   3.203
16061TIP3    H169598   1.531   6.355   3.234
16061TIP3    H269599   1.663   6.412   3.180
16062TIP3   OH269600   0.072   6.167   3.553
16062TIP3    H169601   0.160   6.148   3.587
16062TIP3    H269602   0.013   6.099   3.595
16063TIP3   OH269603   1.845   5.733   3.736
16063TIP3    H169604   1.882   5.667   3.674
16063TIP3    H269605   1.857   5.814   3.684
16064TIP3   OH269606   1.616   5.929   2.385
16064TIP3    H169607   1.637   5.885   2.470
16064TIP3    H269608   1.556   5.865   2.341
16065TIP3   OH269609   0.168   6.005   2.836
16065TIP3    H169610   0.214   5.925   2.869
16065TIP3    H269611   0.218   6.075   2.881
16066TIP3   OH269612   0.050   6.385   2.980
16066TIP3    H169613   0.054   6.342   2.892
16066TIP3    H269614   0.058   6.476   2.952
16067TIP3   OH269615   1.799   5.943   3.572
16067TIP3    H169616   1.705   5.969   3.568
16067TIP3    H269617   1.802   5.887   3.493
16068TIP3   OH269618   1.797   5.931   2.040
16068TIP3    H169619   1.839   5.861   1.986
16068TIP3    H269620   1.867   5.998   2.047
16069TIP3   OH269621   0.076   5.931   2.308
16069TIP3    H169622  -0.019   5.949   2.321
16069TIP3    H269623   0.098   6.007   2.250
16070TIP3   OH269624   7.355   5.797   3.202
16070TIP3    H169625   7.276   5.776   3.255
16070TIP3    H269626   7.307   5.849   3.135
16071TIP3   OH269627   0.242   7.128   3.598
16071TIP3    H169628   0.156   7.141   3.557
16071TIP3    H269629   0.220   7.110   3.690
16072TIP3   OH269630   0.547   7.223   3.235
16072TIP3    H169631   0.496   7.296   3.195
16072TIP3    H269632   0.630   7.219   3.186
16073TIP3   OH269633   1.700   5.752   3.357
16073TIP3    H169634   1.618   5.782   3.316
16073TIP3    H269635   1.717   5.669   3.305
16074TIP3   OH269636   0.460   7.253   2.761
16074TIP3    H169637   0.417   7.180   2.808
16074TIP3    H269638   0.516   7.291   2.831
16075TIP3   OH269639   1.039   5.894   2.786
16075TIP3    H169640   0.972   5.830   2.814
16075TIP3    H269641   1.095   5.841   2.727
16076TIP3   OH269642   1.553   5.699   2.792
16076TIP3    H169643   1.614   5.758   2.741
16076TIP3    H269644   1.465   5.735   2.769
16077TIP3   OH269645   1.720   5.824   2.620
16077TIP3    H169646   1.789   5.767   2.578
16077TIP3    H269647   1.771   5.908   2.631
16078TIP3   OH269648   0.277   5.756   2.573
16078TIP3    H169649   0.199   5.736   2.517
16078TIP3    H269650   0.326   5.672   2.563
16079TIP3   OH269651   0.155   5.730   2.138
16079TIP3    H169652   0.206   5.797   2.090
16079TIP3    H269653   0.099   5.787   2.194
16080TIP3   OH269654   0.723   5.749   2.549
16080TIP3    H169655   0.814   5.785   2.541
16080TIP3    H269656   0.720   5.728   2.642
16081TIP3   OH269657   1.295   5.751   2.711
16081TIP3    H169658   1.290   5.763   2.616
16081TIP3    H269659   1.257   5.661   2.724
16082TIP3   OH269660   1.422   5.754   2.280
16082TIP3    H169661   1.347   5.814   2.264
16082TIP3    H269662   1.378   5.669   2.303
16083TIP3   OH269663   0.335   5.927   1.997
16083TIP3    H169664   0.388   5.867   1.941
16083TIP3    H269665   0.405   5.958   2.057
16084TIP3   OH269666   0.839   5.951   2.234
16084TIP3    H169667   0.864   5.893   2.308
16084TIP3    H269668   0.846   6.037   2.280
16085TIP3   OH269669   0.260   5.814   3.519
16085TIP3    H169670   0.227   5.729   3.555
16085TIP3    H269671   0.353   5.807   3.552
16086TIP3   OH269672   0.464   5.747   3.675
16086TIP3    H169673   0.554   5.715   3.657
16086TIP3    H269674   0.428   5.669   3.720
16087TIP3   OH269675   1.304   5.678   3.694
16087TIP3    H169676   1.315   5.631   3.780
16087TIP3    H269677   1.396   5.676   3.661
16088TIP3   OH269678   1.608  -0.024   3.575
16088TIP3    H169679   1.546  -0.037   3.503
16088TIP3    H269680   1.622   0.072   3.574
16089TIP3   OH269681   3.070   6.669   2.558
16089TIP3    H169682   3.069   6.767   2.554
16089TIP3    H269683   2.998   6.647   2.497
16090TIP3   OH269684   2.957   6.596   2.906
16090TIP3    H169685   2.955   6.531   2.978
16090TIP3    H269686   2.921   6.545   2.831
16091TIP3   OH269687   2.192   6.564   3.061
16091TIP3    H169688   2.200   6.495   3.131
16091TIP3    H269689   2.267   6.621   3.084
16092TIP3   OH269690   3.325   6.890   2.736
16092TIP3    H169691   3.283   6.818   2.785
16092TIP3    H269692   3.329   6.962   2.801
16093TIP3   OH269693   2.286   7.009   2.914
16093TIP3    H169694   2.253   6.924   2.881
16093TIP3    H269695   2.381   6.990   2.915
16094TIP3   OH269696   1.948   6.364   2.460
16094TIP3    H169697   1.904   6.451   2.454
16094TIP3    H269698   1.892   6.310   2.404
16095TIP3   OH269699   2.019   6.587   2.675
16095TIP3    H169700   2.047   6.505   2.720
16095TIP3    H269701   2.089   6.598   2.609
16096TIP3   OH269702   2.792   6.834   2.954
16096TIP3    H169703   2.827   6.773   2.887
16096TIP3    H269704   2.874   6.854   3.004
16097TIP3   OH269705   3.653   6.003   3.026
16097TIP3    H169706   3.671   6.061   3.102
16097TIP3    H269707   3.710   6.045   2.960
16098TIP3   OH269708   3.111   6.283   2.985
16098TIP3    H169709   3.127   6.187   2.985
16098TIP3    H269710   3.100   6.297   2.889
16099TIP3   OH269711   2.422   6.092   2.706
16099TIP3    H169712   2.433   6.176   2.657
16099TIP3    H269713   2.382   6.035   2.637
16100TIP3   OH269714   3.195   6.099   2.544
16100TIP3    H169715   3.261   6.068   2.611
16100TIP3    H269716   3.250   6.158   2.491
16101TIP3   OH269717   2.084   6.333   2.780
16101TIP3    H169718   2.151   6.279   2.825
16101TIP3    H269719   2.095   6.302   2.689
16102TIP3   OH269720   2.600   6.489   2.712
16102TIP3    H169721   2.667   6.431   2.751
16102TIP3    H269722   2.549   6.423   2.661
16103TIP3   OH269723   3.697   6.143   3.253
16103TIP3    H169724   3.637   6.219   3.242
16103TIP3    H269725   3.701   6.135   3.349
16104TIP3   OH269726   2.313   5.982   3.110
16104TIP3    H169727   2.285   6.039   3.036
16104TIP3    H269728   2.245   6.005   3.178
16105TIP3   OH269729   3.041   6.927   2.465
16105TIP3    H169730   3.016   6.903   2.374
16105TIP3    H269731   3.010   7.020   2.471
16106TIP3   OH269732   2.564   6.744   3.135
16106TIP3    H169733   2.494   6.809   3.157
16106TIP3    H269734   2.635   6.804   3.105
16107TIP3   OH269735   3.377   6.035   2.742
16107TIP3    H169736   3.355   5.958   2.796
16107TIP3    H269737   3.444   6.078   2.798
16108TIP3   OH269738   2.270   6.168   2.914
16108TIP3    H169739   2.333   6.237   2.945
16108TIP3    H269740   2.321   6.127   2.840
16109TIP3   OH269741   2.410   6.947   3.215
16109TIP3    H169742   2.404   7.037   3.180
16109TIP3    H269743   2.322   6.938   3.258
16110TIP3   OH269744   2.017   6.913   2.295
16110TIP3    H169745   1.990   6.945   2.207
16110TIP3    H269746   2.025   6.996   2.346
16111TIP3   OH269747   3.378   7.076   2.976
16111TIP3    H169748   3.280   7.085   2.985
16111TIP3    H269749   3.407   7.166   2.949
16112TIP3   OH269750   3.410   5.903   3.110
16112TIP3    H169751   3.338   5.967   3.101
16112TIP3    H269752   3.481   5.945   3.058
16113TIP3   OH269753   2.707   5.716   2.857
16113TIP3    H169754   2.692   5.619   2.849
16113TIP3    H269755   2.619   5.746   2.887
16114TIP3   OH269756   3.205   7.224   2.609
16114TIP3    H169757   3.262   7.159   2.564
16114TIP3    H269758   3.252   7.304   2.593
16115TIP3   OH269759   3.327   7.037   2.481
16115TIP3    H169760   3.294   6.970   2.421
16115TIP3    H269761   3.329   6.990   2.567
16116TIP3   OH269762   3.487   6.909   3.332
16116TIP3    H169763   3.500   6.842   3.262
16116TIP3    H269764   3.510   6.992   3.285
16117TIP3   OH269765   2.939   6.597   2.310
16117TIP3    H169766   2.867   6.649   2.269
16117TIP3    H269767   3.006   6.601   2.239
16118TIP3   OH269768   2.940   6.498   2.035
16118TIP3    H169769   3.013   6.458   2.086
16118TIP3    H269770   2.944   6.423   1.971
16119TIP3   OH269771   3.675   6.537   3.136
16119TIP3    H169772   3.610   6.609   3.140
16119TIP3    H269773   3.725   6.560   3.055
16120TIP3   OH269774   3.283   6.615   2.400
16120TIP3    H169775   3.208   6.640   2.460
16120TIP3    H269776   3.329   6.547   2.452
16121TIP3   OH269777   3.274   6.432   3.312
16121TIP3    H169778   3.275   6.514   3.364
16121TIP3    H269779   3.211   6.461   3.243
16122TIP3   OH269780   2.442   6.681   2.592
16122TIP3    H169781   2.410   6.642   2.507
16122TIP3    H269782   2.504   6.612   2.625
16123TIP3   OH269783   2.575   7.022   2.858
16123TIP3    H169784   2.575   6.967   2.779
16123TIP3    H269785   2.651   6.985   2.906
16124TIP3   OH269786   2.475   6.556   2.958
16124TIP3    H169787   2.530   6.566   2.877
16124TIP3    H269788   2.514   6.622   3.019
16125TIP3   OH269789   3.120   7.113   3.030
16125TIP3    H169790   3.083   7.176   3.092
16125TIP3    H269791   3.091   7.027   3.070
16126TIP3   OH269792   2.570   7.000   3.427
16126TIP3    H169793   2.527   7.074   3.475
16126TIP3    H269794   2.504   6.976   3.357
16127TIP3   OH269795   3.172   6.535   2.168
16127TIP3    H169796   3.227   6.553   2.247
16127TIP3    H269797   3.213   6.584   2.094
16128TIP3   OH269798   2.265   6.615   3.343
16128TIP3    H169799   2.270   6.682   3.413
16128TIP3    H269800   2.171   6.624   3.321
16129TIP3   OH269801   2.939   7.206   2.511
16129TIP3    H169802   2.983   7.235   2.592
16129TIP3    H269803   2.882   7.280   2.488
16130TIP3   OH269804   2.393   7.194   3.501
16130TIP3    H169805   2.386   7.191   3.403
16130TIP3    H269806   2.300   7.188   3.527
16131TIP3   OH269807   3.542   5.709   2.158
16131TIP3    H169808   3.447   5.718   2.181
16131TIP3    H269809   3.561   5.791   2.111
16132TIP3   OH269810   2.339   6.583   2.355
16132TIP3    H169811   2.311   6.662   2.303
16132TIP3    H269812   2.274   6.517   2.330
16133TIP3   OH269813   3.657   7.141   1.991
16133TIP3    H169814   3.665   7.237   2.006
16133TIP3    H269815   3.750   7.114   1.993
16134TIP3   OH269816   1.947   6.827   3.243
16134TIP3    H169817   1.904   6.818   3.156
16134TIP3    H269818   1.956   6.732   3.264
16135TIP3   OH269819   1.928   7.096   2.925
16135TIP3    H169820   2.023   7.091   2.915
16135TIP3    H269821   1.918   7.179   2.973
16136TIP3   OH269822   3.746   7.170   3.496
16136TIP3    H169823   3.736   7.074   3.484
16136TIP3    H269824   3.657   7.196   3.529
16137TIP3   OH269825   2.842   7.126   3.374
16137TIP3    H169826   2.853   7.207   3.426
16137TIP3    H269827   2.758   7.086   3.403
16138TIP3   OH269828   3.463   6.317   3.536
16138TIP3    H169829   3.415   6.362   3.465
16138TIP3    H269830   3.461   6.225   3.506
16139TIP3   OH269831   2.178   6.960   3.337
16139TIP3    H169832   2.198   6.921   3.425
16139TIP3    H269833   2.091   6.920   3.314
16140TIP3   OH269834   2.445   5.806   2.932
16140TIP3    H169835   2.355   5.793   2.895
16140TIP3    H269836   2.432   5.889   2.980
16141TIP3   OH269837   2.909   5.772   3.268
16141TIP3    H169838   2.949   5.730   3.347
16141TIP3    H269839   2.812   5.761   3.282
16142TIP3   OH269840   3.238   6.157   3.358
16142TIP3    H169841   3.182   6.136   3.436
16142TIP3    H269842   3.220   6.250   3.335
16143TIP3   OH269843   3.315   6.641   1.948
16143TIP3    H169844   3.311   6.618   1.852
16143TIP3    H269845   3.402   6.684   1.952
16144TIP3   OH269846   2.879   5.999   2.013
16144TIP3    H169847   2.836   6.017   2.097
16144TIP3    H269848   2.832   5.928   1.971
16145TIP3   OH269849   2.455   6.303   3.058
16145TIP3    H169850   2.381   6.302   3.121
16145TIP3    H269851   2.450   6.394   3.020
16146TIP3   OH269852   2.452   6.315   2.544
16146TIP3    H169853   2.358   6.289   2.531
16146TIP3    H269854   2.489   6.286   2.458
16147TIP3   OH269855   3.004   6.366   2.421
16147TIP3    H169856   2.964   6.448   2.384
16147TIP3    H269857   3.071   6.348   2.352
16148TIP3   OH269858   2.909   6.386   3.564
16148TIP3    H169859   2.856   6.308   3.595
16148TIP3    H269860   2.992   6.374   3.612
16149TIP3   OH269861   3.107   6.314   2.705
16149TIP3    H169862   3.078   6.371   2.631
16149TIP3    H269863   3.116   6.229   2.658
16150TIP3   OH269864   2.217   6.328   3.225
16150TIP3    H169865   2.226   6.369   3.313
16150TIP3    H269866   2.173   6.244   3.246
16151TIP3   OH269867   2.553   6.065   1.909
16151TIP3    H169868   2.511   6.024   1.988
16151TIP3    H269869   2.482   6.108   1.862
16152TIP3   OH269870   1.883   6.039   2.624
16152TIP3    H169871   1.952   6.035   2.694
16152TIP3    H269872   1.928   6.002   2.546
16153TIP3   OH269873   2.008   6.110   2.156
16153TIP3    H169874   2.061   6.172   2.105
16153TIP3    H269875   1.940   6.172   2.192
16154TIP3   OH269876   3.026   6.472   3.160
16154TIP3    H169877   3.064   6.404   3.102
16154TIP3    H269878   2.980   6.420   3.228
16155TIP3   OH269879   2.707   6.071   2.644
16155TIP3    H169880   2.614   6.071   2.673
16155TIP3    H269881   2.755   6.053   2.726
16156TIP3   OH269882   2.188   6.225   2.531
16156TIP3    H169883   2.099   6.241   2.492
16156TIP3    H269884   2.217   6.142   2.490
16157TIP3   OH269885   2.551   6.231   2.294
16157TIP3    H169886   2.647   6.240   2.309
16157TIP3    H269887   2.530   6.298   2.227
16158TIP3   OH269888   3.147   5.994   2.968
16158TIP3    H169889   3.079   5.999   3.039
16158TIP3    H269890   3.096   5.968   2.890
16159TIP3   OH269891   2.419   6.350   2.050
16159TIP3    H169892   2.370   6.306   1.980
16159TIP3    H269893   2.505   6.368   2.007
16160TIP3   OH269894   2.235   6.809   3.557
16160TIP3    H169895   2.307   6.829   3.619
16160TIP3    H269896   2.158   6.812   3.618
16161TIP3   OH269897   2.835   6.346   2.833
16161TIP3    H169898   2.895   6.293   2.780
16161TIP3    H269899   2.820   6.291   2.912
16162TIP3   OH269900   2.336   5.960   2.477
16162TIP3    H169901   2.305   5.868   2.476
16162TIP3    H269902   2.415   5.954   2.422
16163TIP3   OH269903   2.699   6.178   3.075
16163TIP3    H169904   2.616   6.230   3.084
16163TIP3    H269905   2.754   6.214   3.147
16164TIP3   OH269906   2.757   6.800   2.245
16164TIP3    H169907   2.678   6.753   2.212
16164TIP3    H269908   2.735   6.812   2.340
16165TIP3   OH269909   3.477   6.721   3.125
16165TIP3    H169910   3.533   6.770   3.062
16165TIP3    H269911   3.391   6.726   3.079
16166TIP3   OH269912   3.143   6.079   2.070
16166TIP3    H169913   3.050   6.098   2.042
16166TIP3    H269914   3.171   6.168   2.096
16167TIP3   OH269915   2.904   6.830   3.368
16167TIP3    H169916   2.872   6.786   3.447
16167TIP3    H269917   2.882   6.922   3.380
16168TIP3   OH269918   3.216   6.275   2.226
16168TIP3    H169919   3.303   6.263   2.267
16168TIP3    H269920   3.221   6.356   2.174
16169TIP3   OH269921   2.268   6.740   2.825
16169TIP3    H169922   2.337   6.733   2.755
16169TIP3    H269923   2.275   6.654   2.870
16170TIP3   OH269924   2.967   6.945   2.147
16170TIP3    H169925   2.934   7.030   2.181
16170TIP3    H269926   2.894   6.885   2.171
16171TIP3   OH269927   1.968   6.580   3.351
16171TIP3    H169928   1.984   6.536   3.436
16171TIP3    H269929   1.905   6.520   3.307
16172TIP3   OH269930   2.669   6.537   3.568
16172TIP3    H169931   2.637   6.505   3.482
16172TIP3    H269932   2.761   6.504   3.568
16173TIP3   OH269933   3.136   7.077   3.356
16173TIP3    H169934   3.042   7.083   3.339
16173TIP3    H269935   3.134   7.094   3.454
16174TIP3   OH269936   3.706   6.292   2.201
16174TIP3    H169937   3.635   6.288   2.138
16174TIP3    H269938   3.720   6.389   2.185
16175TIP3   OH269939   3.705   6.872   3.482
16175TIP3    H169940   3.615   6.896   3.449
16175TIP3    H269941   3.758   6.867   3.400
16176TIP3   OH269942   3.542   7.149   2.263
16176TIP3    H169943   3.493   7.069   2.276
16176TIP3    H269944   3.559   7.153   2.167
16177TIP3   OH269945   3.254   6.652   2.954
16177TIP3    H169946   3.160   6.632   2.942
16177TIP3    H269947   3.297   6.577   2.909
16178TIP3   OH269948   2.510   7.082   2.554
16178TIP3    H169949   2.556   7.166   2.546
16178TIP3    H269950   2.418   7.106   2.534
16179TIP3   OH269951   2.083   6.569   2.018
16179TIP3    H169952   2.140   6.634   2.063
16179TIP3    H269953   1.994   6.601   2.045
16180TIP3   OH269954   2.649   6.851   2.515
16180TIP3    H169955   2.618   6.943   2.524
16180TIP3    H269956   2.577   6.803   2.559
16181TIP3   OH269957   2.723   7.239   3.124
16181TIP3    H169958   2.738   7.334   3.117
16181TIP3    H269959   2.754   7.223   3.215
16182TIP3   OH269960   3.045   6.871   3.118
16182TIP3    H169961   3.011   6.849   3.207
16182TIP3    H269962   3.108   6.799   3.101
16183TIP3   OH269963   3.280   6.978   2.026
16183TIP3    H169964   3.308   6.931   2.107
16183TIP3    H269965   3.184   6.962   2.034
16184TIP3   OH269966   2.133   6.054   3.305
16184TIP3    H169967   2.042   6.089   3.304
16184TIP3    H269968   2.121   5.970   3.352
16185TIP3   OH269969   3.356   6.837   2.251
16185TIP3    H169970   3.333   6.762   2.308
16185TIP3    H269971   3.451   6.847   2.269
16186TIP3   OH269972   2.094   7.229   3.148
16186TIP3    H169973   2.123   7.138   3.152
16186TIP3    H269974   2.114   7.263   3.235
16187TIP3   OH269975   2.692   7.083   1.874
16187TIP3    H169976   2.700   7.006   1.817
16187TIP3    H269977   2.649   7.042   1.952
16188TIP3   OH269978   2.567   7.034   2.120
16188TIP3    H169979   2.594   6.985   2.199
16188TIP3    H269980   2.579   7.127   2.148
16189TIP3   OH269981   2.223   6.763   2.170
16189TIP3    H169982   2.151   6.803   2.224
16189TIP3    H269983   2.273   6.841   2.140
16190TIP3   OH269984   3.006   6.031   3.202
16190TIP3    H169985   3.077   6.037   3.266
16190TIP3    H269986   2.967   5.944   3.222
16191TIP3   OH269987   3.079   5.986   2.312
16191TIP3    H169988   3.099   6.034   2.228
16191TIP3    H269989   3.137   6.031   2.375
16192TIP3   OH269990   2.856   7.211   2.196
16192TIP3    H169991   2.769   7.254   2.198
16192TIP3    H269992   2.899   7.257   2.123
16193TIP3   OH269993   2.802   6.163   2.394
16193TIP3    H169994   2.881   6.221   2.395
16193TIP3    H269995   2.777   6.151   2.488
16194TIP3   OH269996   2.858   6.266   3.312
16194TIP3    H169997   2.866   6.322   3.391
16194TIP3    H269998   2.925   6.196   3.321
16195TIP3   OH269999   2.888   5.869   2.480
16195TIP3    H170000   2.856   5.934   2.545
16195TIP3    H270001   2.958   5.923   2.436
16196TIP3   OH270002   2.594   0.005   2.197
16196TIP3    H170003   2.597   0.084   2.139
16196TIP3    H270004   2.565   0.042   2.281
16197TIP3   OH270005   2.454   5.980   2.152
16197TIP3    H170006   2.449   6.069   2.191
16197TIP3    H270007   2.546   5.956   2.177
16198TIP3   OH270008   3.476   6.053   3.396
16198TIP3    H170009   3.384   6.084   3.383
16198TIP3    H270010   3.506   6.051   3.304
16199TIP3   OH270011   3.338   6.431   2.796
16199TIP3    H170012   3.255   6.387   2.770
16199TIP3    H270013   3.386   6.363   2.849
16200TIP3   OH270014   2.279   7.024   2.056
16200TIP3    H170015   2.346   7.088   2.083
16200TIP3    H270016   2.330   6.977   1.987
16201TIP3   OH270017   2.112   6.296   1.949
16201TIP3    H170018   2.113   6.384   1.996
16201TIP3    H270019   2.018   6.272   1.950
16202TIP3   OH270020   2.193   5.770   2.845
16202TIP3    H170021   2.174   5.772   2.749
16202TIP3    H270022   2.152   5.684   2.870
16203TIP3   OH270023   2.090   7.162   2.456
16203TIP3    H170024   2.003   7.205   2.456
16203TIP3    H270025   2.139   7.211   2.390
16204TIP3   OH270026   2.506   7.287   3.770
16204TIP3    H170027   2.591   7.247   3.787
16204TIP3    H270028   2.498   7.273   3.674
16205TIP3   OH270029   2.893   7.264   1.899
16205TIP3    H170030   2.818   7.201   1.906
16205TIP3    H270031   2.963   7.210   1.862
16206TIP3   OH270032   3.137   7.119   3.609
16206TIP3    H170033   3.089   7.052   3.660
16206TIP3    H270034   3.198   7.156   3.674
16207TIP3   OH270035   3.363   7.242   1.925
16207TIP3    H170036   3.388   7.156   1.960
16207TIP3    H270037   3.433   7.262   1.859
16208TIP3   OH270038   2.002   6.803   3.686
16208TIP3    H170039   2.016   6.712   3.656
16208TIP3    H270040   1.927   6.832   3.630
16209TIP3   OH270041   2.436   6.836   1.888
16209TIP3    H170042   2.451   6.762   1.949
16209TIP3    H270043   2.512   6.825   1.828
16210TIP3   OH270044   2.674   6.803   3.624
16210TIP3    H170045   2.638   6.833   3.539
16210TIP3    H270046   2.679   6.705   3.615
16211TIP3   OH270047   2.979   6.950   1.866
16211TIP3    H170048   2.950   6.959   1.958
16211TIP3    H270049   2.960   6.855   1.852
16212TIP3   OH270050   3.242   6.789   3.365
16212TIP3    H170051   3.321   6.848   3.358
16212TIP3    H270052   3.172   6.856   3.369
16213TIP3   OH270053   2.093   6.528   3.625
16213TIP3    H170054   2.134   6.441   3.616
16213TIP3    H270055   2.069   6.528   3.719
16214TIP3   OH270056   2.556   6.640   2.132
16214TIP3    H170057   2.505   6.587   2.195
16214TIP3    H270058   2.588   6.573   2.067
16215TIP3   OH270059   2.482   6.421   3.361
16215TIP3    H170060   2.422   6.493   3.386
16215TIP3    H270061   2.522   6.458   3.280
16216TIP3   OH270062   2.659   6.465   1.951
16216TIP3    H170063   2.651   6.452   1.854
16216TIP3    H270064   2.757   6.466   1.961
16217TIP3   OH270065   2.989   6.678   3.694
16217TIP3    H170066   3.085   6.677   3.682
16217TIP3    H270067   2.972   6.601   3.751
16218TIP3   OH270068   3.596   6.693   1.893
16218TIP3    H170069   3.577   6.658   1.805
16218TIP3    H270070   3.604   6.790   1.875
16219TIP3   OH270071   2.523   6.159   3.465
16219TIP3    H170072   2.535   6.088   3.400
16219TIP3    H270073   2.518   6.240   3.411
16220TIP3   OH270074   2.563   5.997   3.222
16220TIP3    H170075   2.614   6.044   3.151
16220TIP3    H270076   2.474   5.989   3.181
16221TIP3   OH270077   2.717   6.546   3.246
16221TIP3    H170078   2.793   6.530   3.189
16221TIP3    H270079   2.681   6.629   3.212
16222TIP3   OH270080   3.157   6.321   3.742
16222TIP3    H170081   3.180   6.228   3.733
16222TIP3    H270082   3.243   6.366   3.745
16223TIP3   OH270083   3.291   6.601   3.559
16223TIP3    H170084   3.265   6.673   3.497
16223TIP3    H270085   3.386   6.599   3.540
16224TIP3   OH270086   2.369   6.284   3.658
16224TIP3    H170087   2.292   6.226   3.642
16224TIP3    H270088   2.434   6.247   3.596
16225TIP3   OH270089   2.642   5.741   3.260
16225TIP3    H170090   2.624   5.837   3.251
16225TIP3    H270091   2.567   5.704   3.210
16226TIP3   OH270092   2.769   6.174   3.623
16226TIP3    H170093   2.738   6.151   3.713
16226TIP3    H270094   2.691   6.154   3.569
16227TIP3   OH270095   3.041   6.088   3.532
16227TIP3    H170096   2.945   6.094   3.543
16227TIP3    H270097   3.068   6.024   3.601
16228TIP3   OH270098   3.199   5.950   3.722
16228TIP3    H170099   3.194   5.852   3.725
16228TIP3    H270100   3.175   5.979   3.812
16229TIP3   OH270101   2.177   6.078   3.634
16229TIP3    H170102   2.201   6.004   3.575
16229TIP3    H270103   2.168   6.033   3.720
16230TIP3   OH270104   2.664   5.680   3.530
16230TIP3    H170105   2.731   5.610   3.529
16230TIP3    H270106   2.652   5.694   3.434
16231TIP3   OH270107   2.700   5.842   3.742
16231TIP3    H170108   2.682   5.791   3.659
16231TIP3    H270109   2.640   5.918   3.732
16232TIP3   OH270110   2.005   6.990   2.004
16232TIP3    H170111   2.100   7.001   2.026
16232TIP3    H270112   2.010   6.923   1.932
16233TIP3   OH270113   3.517   6.954   3.744
16233TIP3    H170114   3.428   6.949   3.783
16233TIP3    H270115   3.557   7.033   3.789
16234TIP3   OH270116   3.650   6.783   2.287
16234TIP3    H170117   3.734   6.827   2.309
16234TIP3    H270118   3.648   6.714   2.356
16235TIP3   OH270119   3.686   6.594   2.478
16235TIP3    H170120   3.610   6.544   2.517
16235TIP3    H270121   3.746   6.607   2.554
16236TIP3   OH270122   3.662   6.862   2.979
16236TIP3    H170123   3.742   6.826   2.938
16236TIP3    H270124   3.673   6.957   2.961
16237TIP3   OH270125   3.511   7.152   3.208
16237TIP3    H170126   3.441   7.190   3.261
16237TIP3    H270127   3.461   7.116   3.131
16238TIP3   OH270128   3.712   6.573   2.117
16238TIP3    H170129   3.658   6.612   2.045
16238TIP3    H270130   3.707   6.647   2.182
16239TIP3   OH270131   3.551   6.303   1.961
16239TIP3    H170132   3.557   6.374   1.896
16239TIP3    H270133   3.520   6.228   1.905
16240TIP3   OH270134   3.468   6.440   2.532
16240TIP3    H170135   3.452   6.345   2.532
16240TIP3    H270136   3.434   6.464   2.621
16241TIP3   OH270137   1.968   6.650   2.940
16241TIP3    H170138   1.986   6.642   2.844
16241TIP3    H270139   2.057   6.632   2.975
16242TIP3   OH270140   3.553   6.638   3.503
16242TIP3    H170141   3.614   6.563   3.516
16242TIP3    H270142   3.614   6.715   3.504
16243TIP3   OH270143   3.704   6.426   3.568
16243TIP3    H170144   3.615   6.386   3.553
16243TIP3    H270145   3.761   6.348   3.560
16244TIP3   OH270146   3.480   6.051   1.894
16244TIP3    H170147   3.533   5.985   1.940
16244TIP3    H270148   3.390   6.010   1.892
16245TIP3   OH270149   3.432   6.198   2.368
16245TIP3    H170150   3.463   6.108   2.395
16245TIP3    H270151   3.516   6.242   2.351
16246TIP3   OH270152   3.498   6.254   2.924
16246TIP3    H170153   3.594   6.277   2.923
16246TIP3    H270154   3.479   6.268   3.018
16247TIP3   OH270155   3.505   6.326   3.203
16247TIP3    H170156   3.416   6.355   3.234
16247TIP3    H270157   3.548   6.412   3.180
16248TIP3   OH270158   1.930   6.180   3.556
16248TIP3    H170159   2.024   6.159   3.575
16248TIP3    H270160   1.884   6.098   3.583
16249TIP3   OH270161   3.732   5.733   3.736
16249TIP3    H170162   3.767   5.667   3.674
16249TIP3    H270163   3.742   5.814   3.683
16250TIP3   OH270164   3.504   5.928   2.381
16250TIP3    H170165   3.522   5.886   2.469
16250TIP3    H270166   3.441   5.864   2.342
16251TIP3   OH270167   2.050   6.009   2.840
16251TIP3    H170168   2.096   5.927   2.866
16251TIP3    H270169   2.105   6.078   2.879
16252TIP3   OH270170   1.878   6.310   2.944
16252TIP3    H170171   1.934   6.284   2.868
16252TIP3    H270172   1.925   6.390   2.971
16253TIP3   OH270173   3.684   5.943   3.572
16253TIP3    H170174   3.590   5.970   3.567
16253TIP3    H270175   3.687   5.887   3.492
16254TIP3   OH270176   3.688   5.926   2.038
16254TIP3    H170177   3.723   5.850   1.984
16254TIP3    H270178   3.769   5.979   2.044
16255TIP3   OH270179   1.915   5.937   2.352
16255TIP3    H170180   1.821   5.953   2.336
16255TIP3    H270181   1.956   5.984   2.278
16256TIP3   OH270182   1.909   5.800   3.181
16256TIP3    H170183   1.843   5.781   3.249
16256TIP3    H270184   1.864   5.868   3.127
16257TIP3   OH270185   2.133   7.126   3.599
16257TIP3    H170186   2.048   7.140   3.553
16257TIP3    H270187   2.105   7.110   3.690
16258TIP3   OH270188   2.427   7.220   3.232
16258TIP3    H170189   2.383   7.298   3.195
16258TIP3    H270190   2.513   7.218   3.188
16259TIP3   OH270191   3.586   5.752   3.357
16259TIP3    H170192   3.503   5.781   3.316
16259TIP3    H270193   3.603   5.669   3.305
16260TIP3   OH270194   2.343   7.255   2.761
16260TIP3    H170195   2.305   7.179   2.808
16260TIP3    H270196   2.401   7.292   2.831
16261TIP3   OH270197   2.925   5.894   2.786
16261TIP3    H170198   2.857   5.830   2.814
16261TIP3    H270199   2.980   5.841   2.727
16262TIP3   OH270200   3.439   5.699   2.792
16262TIP3    H170201   3.500   5.758   2.741
16262TIP3    H270202   3.350   5.735   2.769
16263TIP3   OH270203   3.605   5.824   2.619
16263TIP3    H170204   3.674   5.767   2.578
16263TIP3    H270205   3.656   5.908   2.630
16264TIP3   OH270206   2.162   5.757   2.570
16264TIP3    H170207   2.083   5.737   2.518
16264TIP3    H270208   2.208   5.671   2.564
16265TIP3   OH270209   2.040   5.732   2.143
16265TIP3    H170210   2.088   5.797   2.089
16265TIP3    H270211   1.982   5.789   2.196
16266TIP3   OH270212   2.609   5.749   2.549
16266TIP3    H170213   2.699   5.785   2.541
16266TIP3    H270214   2.606   5.727   2.642
16267TIP3   OH270215   3.181   5.751   2.711
16267TIP3    H170216   3.175   5.763   2.616
16267TIP3    H270217   3.143   5.661   2.724
16268TIP3   OH270218   3.308   5.756   2.278
16268TIP3    H170219   3.231   5.814   2.264
16268TIP3    H270220   3.265   5.671   2.301
16269TIP3   OH270221   2.225   5.932   1.989
16269TIP3    H170222   2.275   5.863   1.942
16269TIP3    H270223   2.289   5.957   2.058
16270TIP3   OH270224   2.719   5.951   2.237
16270TIP3    H170225   2.751   5.894   2.308
16270TIP3    H270226   2.733   6.039   2.279
16271TIP3   OH270227   2.151   5.811   3.515
16271TIP3    H170228   2.112   5.732   3.556
16271TIP3    H270229   2.241   5.807   3.553
16272TIP3   OH270230   2.351   5.749   3.677
16272TIP3    H170231   2.441   5.715   3.658
16272TIP3    H270232   2.313   5.670   3.722
16273TIP3   OH270233   3.191   5.678   3.695
16273TIP3    H170234   3.200   5.631   3.780
16273TIP3    H270235   3.283   5.675   3.660
16274TIP3   OH270236   3.494  -0.024   3.575
16274TIP3    H170237   3.432  -0.037   3.503
16274TIP3    H270238   3.508   0.072   3.574
16275TIP3   OH270239   4.956   6.668   2.555
16275TIP3    H170240   4.954   6.767   2.554
16275TIP3    H270241   4.883   6.647   2.495
16276TIP3   OH270242   4.842   6.596   2.906
16276TIP3    H170243   4.841   6.531   2.978
16276TIP3    H270244   4.807   6.545   2.831
16277TIP3   OH270245   4.077   6.564   3.061
16277TIP3    H170246   4.086   6.495   3.131
16277TIP3    H270247   4.152   6.621   3.084
16278TIP3   OH270248   5.210   6.890   2.736
16278TIP3    H170249   5.168   6.818   2.785
16278TIP3    H270250   5.214   6.962   2.801
16279TIP3   OH270251   4.172   7.011   2.908
16279TIP3    H170252   4.139   6.922   2.883
16279TIP3    H270253   4.266   6.988   2.918
16280TIP3   OH270254   3.835   6.364   2.458
16280TIP3    H170255   3.792   6.452   2.456
16280TIP3    H270256   3.776   6.311   2.406
16281TIP3   OH270257   3.905   6.587   2.675
16281TIP3    H170258   3.933   6.505   2.720
16281TIP3    H270259   3.974   6.598   2.609
16282TIP3   OH270260   4.677   6.835   2.955
16282TIP3    H170261   4.712   6.774   2.888
16282TIP3    H270262   4.759   6.854   3.004
16283TIP3   OH270263   5.539   6.003   3.026
16283TIP3    H170264   5.557   6.061   3.103
16283TIP3    H270265   5.596   6.045   2.960
16284TIP3   OH270266   4.996   6.283   2.985
16284TIP3    H170267   5.013   6.187   2.985
16284TIP3    H270268   4.986   6.297   2.889
16285TIP3   OH270269   4.307   6.092   2.706
16285TIP3    H170270   4.318   6.176   2.657
16285TIP3    H270271   4.268   6.035   2.637
16286TIP3   OH270272   5.081   6.100   2.543
16286TIP3    H170273   5.146   6.068   2.610
16286TIP3    H270274   5.138   6.158   2.490
16287TIP3   OH270275   3.970   6.333   2.780
16287TIP3    H170276   4.037   6.279   2.825
16287TIP3    H270277   3.981   6.302   2.689
16288TIP3   OH270278   4.485   6.489   2.712
16288TIP3    H170279   4.553   6.431   2.751
16288TIP3    H270280   4.434   6.423   2.661
16289TIP3   OH270281   5.583   6.143   3.253
16289TIP3    H170282   5.523   6.220   3.242
16289TIP3    H270283   5.586   6.135   3.349
16290TIP3   OH270284   4.199   5.982   3.110
16290TIP3    H170285   4.170   6.039   3.036
16290TIP3    H270286   4.131   6.005   3.178
16291TIP3   OH270287   4.926   6.927   2.465
16291TIP3    H170288   4.902   6.904   2.374
16291TIP3    H270289   4.897   7.021   2.471
16292TIP3   OH270290   4.449   6.744   3.135
16292TIP3    H170291   4.379   6.809   3.157
16292TIP3    H270292   4.520   6.804   3.105
16293TIP3   OH270293   5.263   6.035   2.742
16293TIP3    H170294   5.240   5.958   2.796
16293TIP3    H270295   5.330   6.078   2.798
16294TIP3   OH270296   4.155   6.168   2.914
16294TIP3    H170297   4.218   6.237   2.945
16294TIP3    H270298   4.207   6.127   2.840
16295TIP3   OH270299   4.296   6.946   3.215
16295TIP3    H170300   4.289   7.036   3.178
16295TIP3    H270301   4.207   6.939   3.258
16296TIP3   OH270302   3.902   6.914   2.297
16296TIP3    H170303   3.877   6.946   2.208
16296TIP3    H270304   3.911   6.996   2.346
16297TIP3   OH270305   5.264   7.077   2.976
16297TIP3    H170306   5.166   7.085   2.985
16297TIP3    H270307   5.292   7.166   2.949
16298TIP3   OH270308   5.296   5.904   3.110
16298TIP3    H170309   5.223   5.967   3.101
16298TIP3    H270310   5.367   5.945   3.058
16299TIP3   OH270311   4.592   5.715   2.857
16299TIP3    H170312   4.578   5.619   2.849
16299TIP3    H270313   4.504   5.746   2.887
16300TIP3   OH270314   5.093   7.223   2.612
16300TIP3    H170315   5.149   7.161   2.561
16300TIP3    H270316   5.132   7.306   2.588
16301TIP3   OH270317   5.214   7.036   2.481
16301TIP3    H170318   5.179   6.970   2.421
16301TIP3    H270319   5.214   6.991   2.568
16302TIP3   OH270320   5.373   6.909   3.332
16302TIP3    H170321   5.386   6.842   3.262
16302TIP3    H270322   5.395   6.992   3.285
16303TIP3   OH270323   4.822   6.594   2.307
16303TIP3    H170324   4.753   6.652   2.272
16303TIP3    H270325   4.893   6.604   2.241
16304TIP3   OH270326   4.830   6.451   2.008
16304TIP3    H170327   4.901   6.449   2.075
16304TIP3    H270328   4.861   6.380   1.952
16305TIP3   OH270329   5.561   6.537   3.136
16305TIP3    H170330   5.495   6.609   3.140
16305TIP3    H270331   5.610   6.560   3.055
16306TIP3   OH270332   5.168   6.615   2.400
16306TIP3    H170333   5.092   6.639   2.459
16306TIP3    H270334   5.214   6.548   2.452
16307TIP3   OH270335   5.160   6.432   3.312
16307TIP3    H170336   5.160   6.514   3.364
16307TIP3    H270337   5.097   6.461   3.243
16308TIP3   OH270338   4.327   6.681   2.591
16308TIP3    H170339   4.296   6.642   2.506
16308TIP3    H270340   4.389   6.612   2.625
16309TIP3   OH270341   4.461   7.022   2.858
16309TIP3    H170342   4.460   6.967   2.779
16309TIP3    H270343   4.537   6.985   2.906
16310TIP3   OH270344   4.361   6.556   2.958
16310TIP3    H170345   4.416   6.566   2.877
16310TIP3    H270346   4.400   6.622   3.019
16311TIP3   OH270347   5.006   7.113   3.030
16311TIP3    H170348   4.969   7.176   3.092
16311TIP3    H270349   4.976   7.027   3.070
16312TIP3   OH270350   4.456   7.002   3.426
16312TIP3    H170351   4.412   7.073   3.476
16312TIP3    H270352   4.390   6.975   3.358
16313TIP3   OH270353   5.054   6.536   2.166
16313TIP3    H170354   5.110   6.553   2.246
16313TIP3    H270355   5.100   6.585   2.094
16314TIP3   OH270356   4.150   6.615   3.343
16314TIP3    H170357   4.156   6.681   3.414
16314TIP3    H270358   4.056   6.624   3.322
16315TIP3   OH270359   4.821   7.205   2.514
16315TIP3    H170360   4.872   7.237   2.589
16315TIP3    H270361   4.771   7.282   2.487
16316TIP3   OH270362   4.279   7.201   3.500
16316TIP3    H170363   4.271   7.187   3.403
16316TIP3    H270364   4.186   7.186   3.528
16317TIP3   OH270365   5.429   5.710   2.159
16317TIP3    H170366   5.333   5.719   2.180
16317TIP3    H270367   5.446   5.793   2.111
16318TIP3   OH270368   4.224   6.583   2.355
16318TIP3    H170369   4.196   6.662   2.303
16318TIP3    H270370   4.159   6.517   2.330
16319TIP3   OH270371   5.543   7.141   1.991
16319TIP3    H170372   5.551   7.237   2.006
16319TIP3    H270373   5.636   7.113   1.993
16320TIP3   OH270374   3.833   6.827   3.243
16320TIP3    H170375   3.790   6.818   3.156
16320TIP3    H270376   3.842   6.732   3.265
16321TIP3   OH270377   3.817   7.106   2.912
16321TIP3    H170378   3.911   7.087   2.922
16321TIP3    H270379   3.803   7.175   2.979
16322TIP3   OH270380   5.632   7.170   3.497
16322TIP3    H170381   5.621   7.074   3.484
16322TIP3    H270382   5.543   7.196   3.529
16323TIP3   OH270383   4.725   7.127   3.373
16323TIP3    H170384   4.740   7.205   3.427
16323TIP3    H270385   4.644   7.084   3.404
16324TIP3   OH270386   5.349   6.317   3.536
16324TIP3    H170387   5.301   6.362   3.465
16324TIP3    H270388   5.347   6.225   3.506
16325TIP3   OH270389   4.063   6.960   3.337
16325TIP3    H170390   4.084   6.921   3.425
16325TIP3    H270391   3.976   6.920   3.315
16326TIP3   OH270392   4.331   5.806   2.932
16326TIP3    H170393   4.240   5.793   2.895
16326TIP3    H270394   4.317   5.889   2.980
16327TIP3   OH270395   4.795   5.772   3.268
16327TIP3    H170396   4.834   5.730   3.347
16327TIP3    H270397   4.698   5.761   3.282
16328TIP3   OH270398   5.124   6.157   3.358
16328TIP3    H170399   5.067   6.136   3.436
16328TIP3    H270400   5.105   6.250   3.335
16329TIP3   OH270401   5.200   6.638   1.948
16329TIP3    H170402   5.197   6.620   1.851
16329TIP3    H270403   5.285   6.683   1.953
16330TIP3   OH270404   4.759   6.031   1.999
16330TIP3    H170405   4.727   6.025   2.091
16330TIP3    H270406   4.728   5.943   1.968
16331TIP3   OH270407   4.341   6.304   3.058
16331TIP3    H170408   4.267   6.302   3.121
16331TIP3    H270409   4.336   6.394   3.020
16332TIP3   OH270410   4.337   6.315   2.544
16332TIP3    H170411   4.243   6.290   2.530
16332TIP3    H270412   4.375   6.286   2.459
16333TIP3   OH270413   4.889   6.365   2.421
16333TIP3    H170414   4.849   6.447   2.384
16333TIP3    H270415   4.957   6.348   2.355
16334TIP3   OH270416   4.794   6.386   3.564
16334TIP3    H170417   4.742   6.308   3.595
16334TIP3    H270418   4.878   6.374   3.612
16335TIP3   OH270419   4.992   6.314   2.705
16335TIP3    H170420   4.964   6.370   2.631
16335TIP3    H270421   5.002   6.229   2.658
16336TIP3   OH270422   4.103   6.328   3.225
16336TIP3    H170423   4.111   6.369   3.313
16336TIP3    H270424   4.059   6.244   3.246
16337TIP3   OH270425   4.440   6.068   1.911
16337TIP3    H170426   4.395   6.026   1.986
16337TIP3    H270427   4.369   6.111   1.861
16338TIP3   OH270428   3.769   6.040   2.621
16338TIP3    H170429   3.836   6.036   2.693
16338TIP3    H270430   3.815   6.000   2.546
16339TIP3   OH270431   3.885   6.109   2.150
16339TIP3    H170432   3.949   6.169   2.105
16339TIP3    H270433   3.835   6.177   2.199
16340TIP3   OH270434   4.912   6.472   3.160
16340TIP3    H170435   4.950   6.404   3.102
16340TIP3    H270436   4.865   6.420   3.228
16341TIP3   OH270437   4.592   6.071   2.644
16341TIP3    H170438   4.499   6.071   2.673
16341TIP3    H270439   4.640   6.053   2.726
16342TIP3   OH270440   4.074   6.225   2.532
16342TIP3    H170441   3.986   6.241   2.494
16342TIP3    H270442   4.101   6.142   2.489
16343TIP3   OH270443   4.438   6.230   2.293
16343TIP3    H170444   4.533   6.241   2.310
16343TIP3    H270445   4.414   6.298   2.228
16344TIP3   OH270446   5.033   5.995   2.967
16344TIP3    H170447   4.965   5.999   3.038
16344TIP3    H270448   4.982   5.968   2.890
16345TIP3   OH270449   4.308   6.348   2.052
16345TIP3    H170450   4.255   6.309   1.981
16345TIP3    H270451   4.390   6.368   2.005
16346TIP3   OH270452   4.121   6.809   3.557
16346TIP3    H170453   4.193   6.829   3.619
16346TIP3    H270454   4.043   6.812   3.618
16347TIP3   OH270455   4.720   6.346   2.833
16347TIP3    H170456   4.780   6.293   2.780
16347TIP3    H270457   4.706   6.291   2.912
16348TIP3   OH270458   4.221   5.960   2.477
16348TIP3    H170459   4.190   5.868   2.476
16348TIP3    H270460   4.301   5.953   2.422
16349TIP3   OH270461   4.584   6.178   3.075
16349TIP3    H170462   4.502   6.230   3.084
16349TIP3    H270463   4.640   6.214   3.147
16350TIP3   OH270464   4.642   6.799   2.245
16350TIP3    H170465   4.563   6.753   2.212
16350TIP3    H270466   4.621   6.812   2.340
16351TIP3   OH270467   5.362   6.721   3.125
16351TIP3    H170468   5.418   6.771   3.062
16351TIP3    H270469   5.276   6.726   3.079
16352TIP3   OH270470   5.026   6.082   2.063
16352TIP3    H170471   4.931   6.098   2.049
16352TIP3    H270472   5.060   6.167   2.097
16353TIP3   OH270473   4.790   6.830   3.368
16353TIP3    H170474   4.758   6.785   3.447
16353TIP3    H270475   4.767   6.922   3.381
16354TIP3   OH270476   5.099   6.275   2.224
16354TIP3    H170477   5.187   6.262   2.265
16354TIP3    H270478   5.110   6.357   2.173
16355TIP3   OH270479   4.154   6.740   2.825
16355TIP3    H170480   4.222   6.733   2.755
16355TIP3    H270481   4.160   6.654   2.870
16356TIP3   OH270482   4.852   6.946   2.147
16356TIP3    H170483   4.819   7.032   2.181
16356TIP3    H270484   4.779   6.885   2.171
16357TIP3   OH270485   3.853   6.580   3.351
16357TIP3    H170486   3.870   6.536   3.436
16357TIP3    H270487   3.791   6.520   3.307
16358TIP3   OH270488   4.554   6.537   3.568
16358TIP3    H170489   4.522   6.505   3.482
16358TIP3    H270490   4.647   6.504   3.568
16359TIP3   OH270491   5.021   7.076   3.356
16359TIP3    H170492   4.927   7.083   3.339
16359TIP3    H270493   5.019   7.094   3.454
16360TIP3   OH270494   5.591   6.286   2.203
16360TIP3    H170495   5.533   6.259   2.129
16360TIP3    H270496   5.598   6.382   2.178
16361TIP3   OH270497   5.591   6.872   3.482
16361TIP3    H170498   5.501   6.896   3.448
16361TIP3    H270499   5.643   6.867   3.400
16362TIP3   OH270500   5.433   7.146   2.263
16362TIP3    H170501   5.376   7.072   2.276
16362TIP3    H270502   5.444   7.155   2.167
16363TIP3   OH270503   5.140   6.652   2.954
16363TIP3    H170504   5.046   6.632   2.942
16363TIP3    H270505   5.183   6.577   2.909
16364TIP3   OH270506   4.394   7.084   2.559
16364TIP3    H170507   4.443   7.165   2.544
16364TIP3    H270508   4.305   7.105   2.530
16365TIP3   OH270509   3.967   6.567   2.022
16365TIP3    H170510   4.026   6.633   2.061
16365TIP3    H270511   3.879   6.603   2.044
16366TIP3   OH270512   4.535   6.851   2.515
16366TIP3    H170513   4.503   6.943   2.524
16366TIP3    H270514   4.462   6.803   2.559
16367TIP3   OH270515   4.600   7.242   3.130
16367TIP3    H170516   4.628   7.333   3.115
16367TIP3    H270517   4.643   7.222   3.215
16368TIP3   OH270518   4.931   6.871   3.118
16368TIP3    H170519   4.897   6.848   3.207
16368TIP3    H270520   4.994   6.799   3.101
16369TIP3   OH270521   5.164   6.976   2.025
16369TIP3    H170522   5.194   6.932   2.108
16369TIP3    H270523   5.069   6.961   2.035
16370TIP3   OH270524   4.018   6.054   3.305
16370TIP3    H170525   3.927   6.089   3.304
16370TIP3    H270526   4.007   5.970   3.352
16371TIP3   OH270527   5.241   6.835   2.249
16371TIP3    H170528   5.218   6.760   2.307
16371TIP3    H270529   5.336   6.847   2.269
16372TIP3   OH270530   3.984   7.230   3.146
16372TIP3    H170531   4.008   7.137   3.154
16372TIP3    H270532   3.996   7.262   3.237
16373TIP3   OH270533   4.578   7.083   1.875
16373TIP3    H170534   4.586   7.006   1.817
16373TIP3    H270535   4.534   7.041   1.952
16374TIP3   OH270536   4.450   7.034   2.121
16374TIP3    H170537   4.480   6.985   2.199
16374TIP3    H270538   4.465   7.127   2.148
16375TIP3   OH270539   4.108   6.763   2.170
16375TIP3    H170540   4.037   6.803   2.223
16375TIP3    H270541   4.159   6.841   2.140
16376TIP3   OH270542   4.891   6.031   3.202
16376TIP3    H170543   4.963   6.037   3.266
16376TIP3    H270544   4.853   5.944   3.222
16377TIP3   OH270545   4.965   5.988   2.311
16377TIP3    H170546   4.989   6.034   2.228
16377TIP3    H270547   5.023   6.033   2.374
16378TIP3   OH270548   4.739   7.207   2.193
16378TIP3    H170549   4.654   7.255   2.198
16378TIP3    H270550   4.786   7.258   2.126
16379TIP3   OH270551   4.689   6.163   2.392
16379TIP3    H170552   4.767   6.222   2.397
16379TIP3    H270553   4.662   6.151   2.486
16380TIP3   OH270554   4.744   6.266   3.312
16380TIP3    H170555   4.752   6.322   3.391
16380TIP3    H270556   4.810   6.197   3.321
16381TIP3   OH270557   4.774   5.869   2.481
16381TIP3    H170558   4.741   5.934   2.545
16381TIP3    H270559   4.843   5.924   2.436
16382TIP3   OH270560   4.479   0.005   2.198
16382TIP3    H170561   4.480   0.084   2.140
16382TIP3    H270562   4.449   0.042   2.282
16383TIP3   OH270563   4.339   5.980   2.152
16383TIP3    H170564   4.335   6.070   2.190
16383TIP3    H270565   4.430   5.955   2.178
16384TIP3   OH270566   5.362   6.053   3.396
16384TIP3    H170567   5.269   6.084   3.383
16384TIP3    H270568   5.392   6.051   3.304
16385TIP3   OH270569   5.224   6.431   2.796
16385TIP3    H170570   5.141   6.387   2.770
16385TIP3    H270571   5.271   6.363   2.848
16386TIP3   OH270572   4.164   7.025   2.057
16386TIP3    H170573   4.231   7.089   2.085
16386TIP3    H270574   4.215   6.978   1.988
16387TIP3   OH270575   3.995   6.290   1.972
16387TIP3    H170576   4.001   6.387   1.990
16387TIP3    H270577   3.908   6.276   1.935
16388TIP3   OH270578   4.079   5.770   2.845
16388TIP3    H170579   4.059   5.772   2.749
16388TIP3    H270580   4.037   5.684   2.870
16389TIP3   OH270581   3.976   7.171   2.465
16389TIP3    H170582   3.885   7.200   2.447
16389TIP3    H270583   4.024   7.206   2.389
16390TIP3   OH270584   4.394   7.289   3.768
16390TIP3    H170585   4.476   7.245   3.789
16390TIP3    H270586   4.383   7.269   3.674
16391TIP3   OH270587   4.779   7.263   1.899
16391TIP3    H170588   4.705   7.201   1.907
16391TIP3    H270589   4.849   7.210   1.861
16392TIP3   OH270590   5.023   7.119   3.609
16392TIP3    H170591   4.975   7.052   3.660
16392TIP3    H270592   5.083   7.156   3.674
16393TIP3   OH270593   5.247   7.239   1.921
16393TIP3    H170594   5.274   7.156   1.960
16393TIP3    H270595   5.319   7.261   1.858
16394TIP3   OH270596   3.887   6.802   3.686
16394TIP3    H170597   3.902   6.711   3.656
16394TIP3    H270598   3.813   6.831   3.630
16395TIP3   OH270599   4.321   6.836   1.889
16395TIP3    H170600   4.336   6.761   1.948
16395TIP3    H270601   4.396   6.826   1.828
16396TIP3   OH270602   4.559   6.803   3.625
16396TIP3    H170603   4.523   6.833   3.539
16396TIP3    H270604   4.565   6.704   3.615
16397TIP3   OH270605   4.865   6.951   1.867
16397TIP3    H170606   4.835   6.960   1.958
16397TIP3    H270607   4.845   6.856   1.852
16398TIP3   OH270608   5.128   6.789   3.365
16398TIP3    H170609   5.206   6.848   3.358
16398TIP3    H270610   5.057   6.856   3.369
16399TIP3   OH270611   3.979   6.529   3.625
16399TIP3    H170612   4.019   6.442   3.616
16399TIP3    H270613   3.955   6.528   3.719
16400TIP3   OH270614   4.441   6.640   2.132
16400TIP3    H170615   4.391   6.587   2.195
16400TIP3    H270616   4.471   6.573   2.066
16401TIP3   OH270617   4.368   6.421   3.361
16401TIP3    H170618   4.308   6.493   3.386
16401TIP3    H270619   4.408   6.458   3.280
16402TIP3   OH270620   4.549   6.463   1.952
16402TIP3    H170621   4.534   6.454   1.855
16402TIP3    H270622   4.646   6.468   1.958
16403TIP3   OH270623   4.875   6.678   3.694
16403TIP3    H170624   4.971   6.677   3.682
16403TIP3    H270625   4.858   6.601   3.751
16404TIP3   OH270626   5.483   6.694   1.893
16404TIP3    H170627   5.463   6.656   1.806
16404TIP3    H270628   5.489   6.791   1.874
16405TIP3   OH270629   4.408   6.159   3.466
16405TIP3    H170630   4.420   6.088   3.400
16405TIP3    H270631   4.404   6.240   3.411
16406TIP3   OH270632   4.449   5.997   3.222
16406TIP3    H170633   4.500   6.044   3.151
16406TIP3    H270634   4.360   5.989   3.181
16407TIP3   OH270635   4.603   6.546   3.246
16407TIP3    H170636   4.678   6.529   3.189
16407TIP3    H270637   4.566   6.629   3.212
16408TIP3   OH270638   5.042   6.321   3.742
16408TIP3    H170639   5.066   6.228   3.733
16408TIP3    H270640   5.129   6.366   3.745
16409TIP3   OH270641   5.176   6.601   3.559
16409TIP3    H170642   5.151   6.673   3.497
16409TIP3    H270643   5.272   6.599   3.540
16410TIP3   OH270644   4.255   6.284   3.658
16410TIP3    H170645   4.178   6.226   3.642
16410TIP3    H270646   4.320   6.247   3.596
16411TIP3   OH270647   4.528   5.741   3.260
16411TIP3    H170648   4.509   5.837   3.251
16411TIP3    H270649   4.453   5.704   3.210
16412TIP3   OH270650   4.655   6.174   3.623
16412TIP3    H170651   4.623   6.151   3.713
16412TIP3    H270652   4.577   6.154   3.569
16413TIP3   OH270653   4.927   6.088   3.532
16413TIP3    H170654   4.830   6.093   3.543
16413TIP3    H270655   4.953   6.024   3.601
16414TIP3   OH270656   5.085   5.950   3.722
16414TIP3    H170657   5.080   5.852   3.725
16414TIP3    H270658   5.060   5.979   3.812
16415TIP3   OH270659   4.062   6.078   3.634
16415TIP3    H170660   4.087   6.004   3.575
16415TIP3    H270661   4.054   6.033   3.720
16416TIP3   OH270662   4.549   5.680   3.531
16416TIP3    H170663   4.617   5.610   3.529
16416TIP3    H270664   4.538   5.694   3.435
16417TIP3   OH270665   4.585   5.842   3.742
16417TIP3    H170666   4.568   5.791   3.659
16417TIP3    H270667   4.525   5.918   3.732
16418TIP3   OH270668   3.890   6.990   2.004
16418TIP3    H170669   3.985   7.001   2.026
16418TIP3    H270670   3.896   6.923   1.932
16419TIP3   OH270671   5.404   6.952   3.747
16419TIP3    H170672   5.314   6.949   3.784
16419TIP3    H270673   5.442   7.034   3.788
16420TIP3   OH270674   5.535   6.783   2.287
16420TIP3    H170675   5.620   6.827   2.308
16420TIP3    H270676   5.534   6.714   2.356
16421TIP3   OH270677   5.571   6.594   2.478
16421TIP3    H170678   5.496   6.544   2.517
16421TIP3    H270679   5.631   6.607   2.554
16422TIP3   OH270680   5.547   6.863   2.978
16422TIP3    H170681   5.628   6.826   2.938
16422TIP3    H270682   5.561   6.958   2.961
16423TIP3   OH270683   5.396   7.152   3.208
16423TIP3    H170684   5.327   7.190   3.261
16423TIP3    H270685   5.346   7.116   3.131
16424TIP3   OH270686   5.602   6.576   2.116
16424TIP3    H170687   5.545   6.612   2.045
16424TIP3    H270688   5.592   6.647   2.182
16425TIP3   OH270689   5.439   6.299   1.968
16425TIP3    H170690   5.446   6.366   1.898
16425TIP3    H270691   5.420   6.217   1.918
16426TIP3   OH270692   5.353   6.441   2.534
16426TIP3    H170693   5.338   6.346   2.530
16426TIP3    H270694   5.320   6.463   2.623
16427TIP3   OH270695   3.854   6.651   2.940
16427TIP3    H170696   3.871   6.642   2.844
16427TIP3    H270697   3.943   6.632   2.975
16428TIP3   OH270698   5.439   6.639   3.503
16428TIP3    H170699   5.500   6.563   3.516
16428TIP3    H270700   5.500   6.715   3.504
16429TIP3   OH270701   5.589   6.426   3.568
16429TIP3    H170702   5.501   6.386   3.553
16429TIP3    H270703   5.646   6.348   3.560
16430TIP3   OH270704   5.364   6.046   1.881
16430TIP3    H170705   5.422   6.003   1.946
16430TIP3    H270706   5.277   6.006   1.896
16431TIP3   OH270707   5.317   6.200   2.376
16431TIP3    H170708   5.348   6.108   2.392
16431TIP3    H270709   5.399   6.241   2.345
16432TIP3   OH270710   5.384   6.254   2.924
16432TIP3    H170711   5.480   6.277   2.923
16432TIP3    H270712   5.365   6.268   3.018
16433TIP3   OH270713   5.391   6.326   3.203
16433TIP3    H170714   5.302   6.355   3.234
16433TIP3    H270715   5.434   6.412   3.180
16434TIP3   OH270716   3.816   6.180   3.556
16434TIP3    H170717   3.909   6.159   3.575
16434TIP3    H270718   3.770   6.098   3.583
16435TIP3   OH270719   5.617   5.733   3.736
16435TIP3    H170720   5.653   5.667   3.674
16435TIP3    H270721   5.628   5.814   3.683
16436TIP3   OH270722   5.392   5.926   2.383
16436TIP3    H170723   5.406   5.885   2.471
16436TIP3    H270724   5.327   5.866   2.341
16437TIP3   OH270725   3.935   6.009   2.840
16437TIP3    H170726   3.981   5.927   2.866
16437TIP3    H270727   3.991   6.078   2.879
16438TIP3   OH270728   3.764   6.310   2.944
16438TIP3    H170729   3.820   6.284   2.868
16438TIP3    H270730   3.810   6.390   2.971
16439TIP3   OH270731   5.570   5.943   3.572
16439TIP3    H170732   5.476   5.970   3.566
16439TIP3    H270733   5.573   5.887   3.492
16440TIP3   OH270734   5.570   5.930   2.042
16440TIP3    H170735   5.608   5.861   1.984
16440TIP3    H270736   5.638   5.999   2.042
16441TIP3   OH270737   3.800   5.937   2.352
16441TIP3    H170738   3.706   5.951   2.338
16441TIP3    H270739   3.844   5.984   2.279
16442TIP3   OH270740   3.795   5.800   3.181
16442TIP3    H170741   3.728   5.781   3.249
16442TIP3    H270742   3.749   5.868   3.127
16443TIP3   OH270743   4.020   7.128   3.598
16443TIP3    H170744   3.934   7.140   3.553
16443TIP3    H270745   3.992   7.110   3.689
16444TIP3   OH270746   4.315   7.223   3.234
16444TIP3    H170747   4.267   7.296   3.191
16444TIP3    H270748   4.398   7.215   3.185
16445TIP3   OH270749   5.472   5.751   3.356
16445TIP3    H170750   5.389   5.781   3.316
16445TIP3    H270751   5.487   5.668   3.305
16446TIP3   OH270752   4.213   7.262   2.765
16446TIP3    H170753   4.196   7.175   2.807
16446TIP3    H270754   4.286   7.291   2.824
16447TIP3   OH270755   4.811   5.894   2.786
16447TIP3    H170756   4.743   5.830   2.814
16447TIP3    H270757   4.865   5.841   2.727
16448TIP3   OH270758   5.324   5.698   2.791
16448TIP3    H170759   5.385   5.758   2.741
16448TIP3    H270760   5.236   5.735   2.770
16449TIP3   OH270761   5.491   5.824   2.619
16449TIP3    H170762   5.559   5.765   2.579
16449TIP3    H270763   5.540   5.908   2.632
16450TIP3   OH270764   4.048   5.758   2.569
16450TIP3    H170765   3.968   5.737   2.518
16450TIP3    H270766   4.094   5.671   2.564
16451TIP3   OH270767   3.923   5.732   2.141
16451TIP3    H170768   3.976   5.797   2.090
16451TIP3    H270769   3.869   5.789   2.198
16452TIP3   OH270770   4.495   5.749   2.549
16452TIP3    H170771   4.585   5.785   2.542
16452TIP3    H270772   4.491   5.728   2.642
16453TIP3   OH270773   5.067   5.751   2.711
16453TIP3    H170774   5.061   5.763   2.616
16453TIP3    H270775   5.027   5.661   2.725
16454TIP3   OH270776   5.193   5.754   2.280
16454TIP3    H170777   5.118   5.814   2.264
16454TIP3    H270778   5.149   5.669   2.303
16455TIP3   OH270779   4.107   5.927   1.994
16455TIP3    H170780   4.160   5.865   1.941
16455TIP3    H270781   4.175   5.958   2.057
16456TIP3   OH270782   4.610   5.951   2.234
16456TIP3    H170783   4.635   5.893   2.308
16456TIP3    H270784   4.617   6.037   2.280
16457TIP3   OH270785   4.036   5.811   3.515
16457TIP3    H170786   3.997   5.732   3.556
16457TIP3    H270787   4.127   5.807   3.554
16458TIP3   OH270788   4.236   5.749   3.680
16458TIP3    H170789   4.326   5.716   3.658
16458TIP3    H270790   4.199   5.669   3.720
16459TIP3   OH270791   5.076   5.678   3.695
16459TIP3    H170792   5.086   5.631   3.780
16459TIP3    H270793   5.168   5.675   3.660
16460TIP3   OH270794   5.379  -0.024   3.575
16460TIP3    H170795   5.317  -0.037   3.503
16460TIP3    H270796   5.394   0.072   3.574
16461TIP3   OH270797   6.842   6.669   2.556
16461TIP3    H170798   6.842   6.768   2.554
16461TIP3    H270799   6.769   6.647   2.496
16462TIP3   OH270800   6.728   6.596   2.906
16462TIP3    H170801   6.726   6.532   2.978
16462TIP3    H270802   6.694   6.545   2.830
16463TIP3   OH270803   5.963   6.564   3.061
16463TIP3    H170804   5.971   6.495   3.131
16463TIP3    H270805   6.038   6.621   3.084
16464TIP3   OH270806   7.098   6.889   2.735
16464TIP3    H170807   7.056   6.818   2.784
16464TIP3    H270808   7.100   6.961   2.800
16465TIP3   OH270809   6.057   7.009   2.914
16465TIP3    H170810   6.024   6.924   2.881
16465TIP3    H270811   6.152   6.990   2.915
16466TIP3   OH270812   5.720   6.362   2.460
16466TIP3    H170813   5.677   6.450   2.454
16466TIP3    H270814   5.662   6.311   2.402
16467TIP3   OH270815   5.790   6.587   2.675
16467TIP3    H170816   5.818   6.505   2.720
16467TIP3    H270817   5.860   6.598   2.609
16468TIP3   OH270818   6.564   6.834   2.955
16468TIP3    H170819   6.599   6.773   2.887
16468TIP3    H270820   6.645   6.854   3.004
16469TIP3   OH270821   6.883   6.284   2.984
16469TIP3    H170822   6.899   6.188   2.983
16469TIP3    H270823   6.873   6.298   2.888
16470TIP3   OH270824   6.192   6.092   2.705
16470TIP3    H170825   6.205   6.176   2.658
16470TIP3    H270826   6.154   6.035   2.637
16471TIP3   OH270827   6.970   6.104   2.545
16471TIP3    H170828   7.034   6.068   2.611
16471TIP3    H270829   7.029   6.157   2.490
16472TIP3   OH270830   5.856   6.335   2.781
16472TIP3    H170831   5.922   6.279   2.825
16472TIP3    H270832   5.866   6.304   2.690
16473TIP3   OH270833   6.371   6.489   2.712
16473TIP3    H170834   6.439   6.431   2.751
16473TIP3    H270835   6.320   6.423   2.661
16474TIP3   OH270836   6.085   5.983   3.112
16474TIP3    H170837   6.056   6.039   3.037
16474TIP3    H270838   6.016   6.005   3.179
16475TIP3   OH270839   6.813   6.928   2.465
16475TIP3    H170840   6.787   6.903   2.375
16475TIP3    H270841   6.782   7.021   2.472
16476TIP3   OH270842   6.335   6.744   3.135
16476TIP3    H170843   6.265   6.809   3.156
16476TIP3    H270844   6.406   6.804   3.105
16477TIP3   OH270845   7.118   6.032   2.754
16477TIP3    H170846   7.121   5.950   2.804
16477TIP3    H270847   7.195   6.079   2.794
16478TIP3   OH270848   6.041   6.168   2.914
16478TIP3    H170849   6.104   6.237   2.946
16478TIP3    H270850   6.093   6.127   2.841
16479TIP3   OH270851   6.182   6.947   3.215
16479TIP3    H170852   6.175   7.037   3.180
16479TIP3    H270853   6.093   6.938   3.258
16480TIP3   OH270854   5.788   6.913   2.296
16480TIP3    H170855   5.762   6.945   2.207
16480TIP3    H270856   5.796   6.996   2.347
16481TIP3   OH270857   7.130   7.069   2.984
16481TIP3    H170858   7.033   7.087   2.987
16481TIP3    H270859   7.169   7.151   2.950
16482TIP3   OH270860   7.161   5.916   3.085
16482TIP3    H170861   7.092   5.984   3.096
16482TIP3    H270862   7.238   5.966   3.053
16483TIP3   OH270863   6.478   5.715   2.856
16483TIP3    H170864   6.464   5.619   2.850
16483TIP3    H270865   6.390   5.746   2.887
16484TIP3   OH270866   6.981   7.224   2.612
16484TIP3    H170867   7.036   7.161   2.562
16484TIP3    H270868   7.019   7.308   2.588
16485TIP3   OH270869   7.102   7.039   2.481
16485TIP3    H170870   7.068   6.971   2.421
16485TIP3    H270871   7.101   6.991   2.567
16486TIP3   OH270872   7.232   6.920   3.343
16486TIP3    H170873   7.260   6.849   3.282
16486TIP3    H270874   7.276   6.994   3.297
16487TIP3   OH270875   6.707   6.594   2.307
16487TIP3    H170876   6.638   6.652   2.271
16487TIP3    H270877   6.778   6.604   2.242
16488TIP3   OH270878   6.715   6.452   2.009
16488TIP3    H170879   6.787   6.449   2.074
16488TIP3    H270880   6.746   6.380   1.952
16489TIP3   OH270881   7.049   6.616   2.397
16489TIP3    H170882   6.977   6.641   2.459
16489TIP3    H270883   7.098   6.552   2.453
16490TIP3   OH270884   7.047   6.434   3.309
16490TIP3    H170885   7.042   6.513   3.364
16490TIP3    H270886   6.983   6.460   3.241
16491TIP3   OH270887   6.213   6.681   2.591
16491TIP3    H170888   6.182   6.642   2.506
16491TIP3    H270889   6.275   6.612   2.625
16492TIP3   OH270890   6.346   7.022   2.858
16492TIP3    H170891   6.346   6.967   2.779
16492TIP3    H270892   6.423   6.985   2.906
16493TIP3   OH270893   6.246   6.556   2.958
16493TIP3    H170894   6.302   6.566   2.878
16493TIP3    H270895   6.285   6.622   3.019
16494TIP3   OH270896   6.882   7.114   3.028
16494TIP3    H170897   6.857   7.176   3.095
16494TIP3    H270898   6.860   7.027   3.070
16495TIP3   OH270899   6.341   7.000   3.428
16495TIP3    H170900   6.298   7.074   3.475
16495TIP3    H270901   6.275   6.977   3.357
16496TIP3   OH270902   6.939   6.534   2.167
16496TIP3    H170903   6.994   6.557   2.246
16496TIP3    H270904   6.979   6.586   2.095
16497TIP3   OH270905   6.036   6.615   3.343
16497TIP3    H170906   6.041   6.682   3.413
16497TIP3    H270907   5.942   6.624   3.321
16498TIP3   OH270908   6.707   7.205   2.516
16498TIP3    H170909   6.759   7.239   2.589
16498TIP3    H270910   6.657   7.283   2.487
16499TIP3   OH270911   6.165   7.194   3.501
16499TIP3    H170912   6.157   7.191   3.403
16499TIP3    H270913   6.071   7.188   3.527
16500TIP3   OH270914   6.109   6.583   2.355
16500TIP3    H170915   6.082   6.662   2.303
16500TIP3    H270916   6.045   6.517   2.330
16501TIP3   OH270917   5.719   6.827   3.243
16501TIP3    H170918   5.675   6.818   3.156
16501TIP3    H270919   5.728   6.732   3.264
16502TIP3   OH270920   5.699   7.096   2.925
16502TIP3    H170921   5.794   7.091   2.915
16502TIP3    H270922   5.689   7.179   2.973
16503TIP3   OH270923   6.614   7.126   3.375
16503TIP3    H170924   6.624   7.207   3.425
16503TIP3    H270925   6.529   7.086   3.403
16504TIP3   OH270926   7.184   6.335   3.540
16504TIP3    H170927   7.181   6.370   3.450
16504TIP3    H270928   7.238   6.252   3.524
16505TIP3   OH270929   5.949   6.960   3.337
16505TIP3    H170930   5.970   6.921   3.425
16505TIP3    H270931   5.862   6.920   3.314
16506TIP3   OH270932   6.217   5.806   2.932
16506TIP3    H170933   6.126   5.793   2.897
16506TIP3    H270934   6.203   5.889   2.981
16507TIP3   OH270935   6.681   5.772   3.268
16507TIP3    H170936   6.720   5.730   3.347
16507TIP3    H270937   6.584   5.761   3.283
16508TIP3   OH270938   7.002   6.153   3.352
16508TIP3    H170939   6.954   6.136   3.436
16508TIP3    H270940   6.994   6.248   3.338
16509TIP3   OH270941   7.089   6.629   1.948
16509TIP3    H170942   7.082   6.616   1.850
16509TIP3    H270943   7.166   6.686   1.951
16510TIP3   OH270944   6.645   6.031   1.999
16510TIP3    H170945   6.613   6.025   2.091
16510TIP3    H270946   6.614   5.944   1.968
16511TIP3   OH270947   6.227   6.304   3.058
16511TIP3    H170948   6.153   6.302   3.121
16511TIP3    H270949   6.222   6.394   3.020
16512TIP3   OH270950   6.224   6.315   2.544
16512TIP3    H170951   6.130   6.292   2.531
16512TIP3    H270952   6.261   6.287   2.458
16513TIP3   OH270953   6.776   6.366   2.422
16513TIP3    H170954   6.735   6.447   2.384
16513TIP3    H270955   6.844   6.349   2.355
16514TIP3   OH270956   6.681   6.386   3.565
16514TIP3    H170957   6.629   6.308   3.595
16514TIP3    H270958   6.765   6.374   3.612
16515TIP3   OH270959   6.875   6.316   2.707
16515TIP3    H170960   6.851   6.370   2.630
16515TIP3    H270961   6.887   6.230   2.661
16516TIP3   OH270962   5.988   6.328   3.225
16516TIP3    H170963   5.997   6.369   3.313
16516TIP3    H270964   5.945   6.244   3.246
16517TIP3   OH270965   6.326   6.068   1.911
16517TIP3    H170966   6.280   6.025   1.986
16517TIP3    H270967   6.255   6.111   1.861
16518TIP3   OH270968   5.654   6.038   2.625
16518TIP3    H170969   5.722   6.037   2.696
16518TIP3    H270970   5.699   6.004   2.546
16519TIP3   OH270971   5.783   6.111   2.163
16519TIP3    H170972   5.831   6.171   2.103
16519TIP3    H270973   5.712   6.174   2.189
16520TIP3   OH270974   6.796   6.471   3.160
16520TIP3    H170975   6.836   6.402   3.103
16520TIP3    H270976   6.750   6.419   3.228
16521TIP3   OH270977   6.477   6.071   2.645
16521TIP3    H170978   6.383   6.071   2.675
16521TIP3    H270979   6.527   6.053   2.726
16522TIP3   OH270980   5.957   6.222   2.532
16522TIP3    H170981   5.870   6.243   2.491
16522TIP3    H270982   5.988   6.142   2.488
16523TIP3   OH270983   6.322   6.229   2.294
16523TIP3    H170984   6.418   6.241   2.310
16523TIP3    H270985   6.299   6.298   2.228
16524TIP3   OH270986   6.911   5.991   2.970
16524TIP3    H170987   6.844   5.998   3.040
16524TIP3    H270988   6.862   5.969   2.889
16525TIP3   OH270989   6.194   6.347   2.052
16525TIP3    H170990   6.140   6.309   1.981
16525TIP3    H270991   6.276   6.368   2.005
16526TIP3   OH270992   6.005   6.809   3.558
16526TIP3    H170993   6.078   6.829   3.619
16526TIP3    H270994   5.929   6.812   3.619
16527TIP3   OH270995   6.606   6.346   2.833
16527TIP3    H170996   6.667   6.293   2.780
16527TIP3    H270997   6.592   6.291   2.912
16528TIP3   OH270998   6.097   5.954   2.466
16528TIP3    H170999   6.093   5.859   2.482
16528TIP3    H271000   6.186   5.958   2.425
16529TIP3   OH271001   6.470   6.178   3.075
16529TIP3    H171002   6.388   6.230   3.084
16529TIP3    H271003   6.525   6.214   3.147
16530TIP3   OH271004   6.529   6.798   2.246
16530TIP3    H171005   6.448   6.753   2.212
16530TIP3    H271006   6.506   6.812   2.340
16531TIP3   OH271007   7.216   6.723   3.125
16531TIP3    H171008   7.288   6.736   3.059
16531TIP3    H271009   7.140   6.724   3.063
16532TIP3   OH271010   6.915   6.083   2.062
16532TIP3    H171011   6.819   6.095   2.047
16532TIP3    H271012   6.943   6.169   2.098
16533TIP3   OH271013   6.677   6.830   3.368
16533TIP3    H171014   6.643   6.786   3.446
16533TIP3    H271015   6.656   6.922   3.380
16534TIP3   OH271016   6.985   6.276   2.222
16534TIP3    H171017   7.072   6.262   2.265
16534TIP3    H271018   6.995   6.360   2.174
16535TIP3   OH271019   6.039   6.740   2.825
16535TIP3    H171020   6.108   6.733   2.755
16535TIP3    H271021   6.046   6.654   2.870
16536TIP3   OH271022   6.736   6.946   2.148
16536TIP3    H171023   6.705   7.032   2.181
16536TIP3    H271024   6.663   6.885   2.172
16537TIP3   OH271025   5.739   6.581   3.351
16537TIP3    H171026   5.756   6.536   3.436
16537TIP3    H271027   5.677   6.520   3.307
16538TIP3   OH271028   6.440   6.537   3.568
16538TIP3    H171029   6.408   6.505   3.482
16538TIP3    H271030   6.532   6.504   3.568
16539TIP3   OH271031   6.908   7.076   3.357
16539TIP3    H171032   6.814   7.082   3.338
16539TIP3    H271033   6.905   7.094   3.454
16540TIP3   OH271034   7.019   6.650   2.954
16540TIP3    H171035   6.926   6.628   2.939
16540TIP3    H271036   7.067   6.576   2.911
16541TIP3   OH271037   6.281   7.082   2.554
16541TIP3    H171038   6.327   7.166   2.546
16541TIP3    H271039   6.190   7.106   2.534
16542TIP3   OH271040   5.854   6.569   2.020
16542TIP3    H171041   5.912   6.635   2.062
16542TIP3    H271042   5.765   6.601   2.045
16543TIP3   OH271043   6.421   6.851   2.515
16543TIP3    H171044   6.389   6.943   2.524
16543TIP3    H271045   6.348   6.803   2.559
16544TIP3   OH271046   6.494   7.238   3.125
16544TIP3    H171047   6.508   7.333   3.117
16544TIP3    H271048   6.525   7.223   3.215
16545TIP3   OH271049   6.819   6.871   3.118
16545TIP3    H171050   6.782   6.849   3.206
16545TIP3    H271051   6.880   6.798   3.100
16546TIP3   OH271052   7.048   6.972   2.025
16546TIP3    H171053   7.080   6.934   2.109
16546TIP3    H271054   6.953   6.959   2.035
16547TIP3   OH271055   5.904   6.054   3.305
16547TIP3    H171056   5.813   6.089   3.304
16547TIP3    H271057   5.893   5.970   3.352
16548TIP3   OH271058   7.128   6.833   2.248
16548TIP3    H171059   7.106   6.759   2.308
16548TIP3    H271060   7.220   6.852   2.271
16549TIP3   OH271061   5.865   7.229   3.148
16549TIP3    H171062   5.894   7.138   3.152
16549TIP3    H271063   5.885   7.263   3.235
16550TIP3   OH271064   6.462   7.082   1.876
16550TIP3    H171065   6.472   7.007   1.816
16550TIP3    H271066   6.419   7.040   1.953
16551TIP3   OH271067   6.337   7.033   2.121
16551TIP3    H171068   6.366   6.985   2.199
16551TIP3    H271069   6.350   7.127   2.147
16552TIP3   OH271070   5.994   6.763   2.170
16552TIP3    H171071   5.922   6.803   2.223
16552TIP3    H271072   6.044   6.841   2.140
16553TIP3   OH271073   6.774   6.031   3.203
16553TIP3    H171074   6.849   6.037   3.263
16553TIP3    H271075   6.737   5.942   3.223
16554TIP3   OH271076   6.857   5.986   2.311
16554TIP3    H171077   6.875   6.035   2.228
16554TIP3    H271078   6.912   6.034   2.375
16555TIP3   OH271079   6.625   7.208   2.194
16555TIP3    H171080   6.539   7.255   2.198
16555TIP3    H271081   6.672   7.258   2.125
16556TIP3   OH271082   6.575   6.163   2.392
16556TIP3    H171083   6.653   6.222   2.397
16556TIP3    H271084   6.548   6.152   2.486
16557TIP3   OH271085   6.633   6.266   3.311
16557TIP3    H171086   6.641   6.322   3.391
16557TIP3    H271087   6.698   6.195   3.321
16558TIP3   OH271088   6.655   5.870   2.479
16558TIP3    H171089   6.628   5.934   2.546
16558TIP3    H271090   6.727   5.923   2.436
16559TIP3   OH271091   6.366   0.005   2.197
16559TIP3    H171092   6.368   0.084   2.139
16559TIP3    H271093   6.336   0.042   2.281
16560TIP3   OH271094   6.223   5.978   2.156
16560TIP3    H171095   6.221   6.070   2.190
16560TIP3    H271096   6.316   5.956   2.175
16561TIP3   OH271097   7.235   6.030   3.376
16561TIP3    H171098   7.152   6.083   3.380
16561TIP3    H271099   7.275   6.059   3.294
16562TIP3   OH271100   7.108   6.432   2.801
16562TIP3    H171101   7.026   6.388   2.770
16562TIP3    H271102   7.151   6.360   2.849
16563TIP3   OH271103   6.050   7.024   2.056
16563TIP3    H171104   6.118   7.088   2.083
16563TIP3    H271105   6.101   6.977   1.987
16564TIP3   OH271106   5.882   6.291   1.970
16564TIP3    H171107   5.885   6.387   1.991
16564TIP3    H271108   5.793   6.274   1.939
16565TIP3   OH271109   5.964   5.770   2.849
16565TIP3    H171110   5.947   5.770   2.753
16565TIP3    H271111   5.924   5.684   2.874
16566TIP3   OH271112   5.861   7.162   2.456
16566TIP3    H171113   5.774   7.205   2.456
16566TIP3    H271114   5.910   7.211   2.390
16567TIP3   OH271115   6.277   7.287   3.770
16567TIP3    H171116   6.363   7.247   3.787
16567TIP3    H271117   6.270   7.273   3.674
16568TIP3   OH271118   6.665   7.262   1.908
16568TIP3    H171119   6.590   7.200   1.906
16568TIP3    H271120   6.733   7.217   1.856
16569TIP3   OH271121   6.911   7.120   3.610
16569TIP3    H171122   6.862   7.052   3.660
16569TIP3    H271123   6.972   7.154   3.677
16570TIP3   OH271124   7.146   7.245   1.933
16570TIP3    H171125   7.156   7.152   1.958
16570TIP3    H271126   7.202   7.258   1.855
16571TIP3   OH271127   5.771   6.801   3.689
16571TIP3    H171128   5.788   6.712   3.654
16571TIP3    H271129   5.700   6.832   3.629
16572TIP3   OH271130   6.206   6.836   1.889
16572TIP3    H171131   6.221   6.761   1.948
16572TIP3    H271132   6.282   6.826   1.828
16573TIP3   OH271133   6.445   6.803   3.624
16573TIP3    H171134   6.409   6.833   3.539
16573TIP3    H271135   6.451   6.705   3.615
16574TIP3   OH271136   6.752   6.949   1.869
16574TIP3    H171137   6.719   6.960   1.959
16574TIP3    H271138   6.729   6.855   1.852
16575TIP3   OH271139   7.011   6.786   3.365
16575TIP3    H171140   7.090   6.845   3.357
16575TIP3    H271141   6.943   6.854   3.370
16576TIP3   OH271142   5.865   6.528   3.624
16576TIP3    H171143   5.905   6.441   3.615
16576TIP3    H271144   5.840   6.527   3.718
16577TIP3   OH271145   6.328   6.640   2.133
16577TIP3    H171146   6.276   6.586   2.195
16577TIP3    H271147   6.357   6.573   2.067
16578TIP3   OH271148   6.253   6.421   3.360
16578TIP3    H171149   6.194   6.493   3.386
16578TIP3    H271150   6.293   6.458   3.280
16579TIP3   OH271151   6.434   6.463   1.951
16579TIP3    H171152   6.419   6.454   1.855
16579TIP3    H271153   6.532   6.468   1.958
16580TIP3   OH271154   6.761   6.678   3.694
16580TIP3    H171155   6.856   6.677   3.683
16580TIP3    H271156   6.745   6.601   3.750
16581TIP3   OH271157   6.294   6.159   3.466
16581TIP3    H171158   6.306   6.088   3.400
16581TIP3    H271159   6.290   6.240   3.411
16582TIP3   OH271160   6.335   5.997   3.222
16582TIP3    H171161   6.385   6.044   3.151
16582TIP3    H271162   6.245   5.990   3.181
16583TIP3   OH271163   6.489   6.546   3.246
16583TIP3    H171164   6.564   6.530   3.189
16583TIP3    H271165   6.452   6.629   3.212
16584TIP3   OH271166   6.933   6.324   3.743
16584TIP3    H171167   6.955   6.231   3.732
16584TIP3    H271168   7.021   6.366   3.739
16585TIP3   OH271169   7.064   6.605   3.559
16585TIP3    H171170   7.034   6.674   3.495
16585TIP3    H271171   7.157   6.595   3.538
16586TIP3   OH271172   6.140   6.284   3.658
16586TIP3    H171173   6.063   6.226   3.642
16586TIP3    H271174   6.206   6.247   3.596
16587TIP3   OH271175   6.413   5.741   3.260
16587TIP3    H171176   6.395   5.837   3.251
16587TIP3    H271177   6.338   5.704   3.210
16588TIP3   OH271178   6.540   6.174   3.623
16588TIP3    H171179   6.509   6.151   3.713
16588TIP3    H271180   6.462   6.154   3.569
16589TIP3   OH271181   6.808   6.090   3.533
16589TIP3    H171182   6.712   6.093   3.545
16589TIP3    H271183   6.840   6.026   3.598
16590TIP3   OH271184   6.980   5.948   3.726
16590TIP3    H171185   6.965   5.851   3.725
16590TIP3    H271186   6.944   5.979   3.811
16591TIP3   OH271187   5.948   6.078   3.634
16591TIP3    H171188   5.973   6.004   3.575
16591TIP3    H271189   5.939   6.033   3.720
16592TIP3   OH271190   6.435   5.680   3.531
16592TIP3    H171191   6.503   5.610   3.529
16592TIP3    H271192   6.423   5.695   3.435
16593TIP3   OH271193   6.471   5.842   3.742
16593TIP3    H171194   6.454   5.791   3.659
16593TIP3    H271195   6.411   5.918   3.732
16594TIP3   OH271196   5.776   6.991   2.004
16594TIP3    H171197   5.871   7.001   2.026
16594TIP3    H271198   5.781   6.923   1.932
16595TIP3   OH271199   7.276   7.147   3.211
16595TIP3    H171200   7.208   7.191   3.262
16595TIP3    H271201   7.228   7.110   3.134
16596TIP3   OH271202   7.188   6.448   2.543
16596TIP3    H171203   7.214   6.356   2.547
16596TIP3    H271204   7.200   6.474   2.637
16597TIP3   OH271205   5.739   6.650   2.940
16597TIP3    H171206   5.757   6.642   2.844
16597TIP3    H271207   5.829   6.632   2.975
16598TIP3   OH271208   7.247   6.043   1.881
16598TIP3    H171209   7.305   6.001   1.944
16598TIP3    H271210   7.160   6.002   1.900
16599TIP3   OH271211   7.202   6.193   2.364
16599TIP3    H171212   7.231   6.109   2.404
16599TIP3    H271213   7.287   6.228   2.334
16600TIP3   OH271214  -0.053   6.171   2.924
16600TIP3    H171215   0.035   6.206   2.910
16600TIP3    H271216  -0.075   6.235   2.994
16601TIP3   OH271217   7.278   6.332   3.228
16601TIP3    H171218   7.184   6.359   3.237
16601TIP3    H271219   7.314   6.401   3.169
16602TIP3   OH271220   5.701   6.180   3.556
16602TIP3    H171221   5.795   6.159   3.575
16602TIP3    H271222   5.655   6.098   3.583
16603TIP3   OH271223   7.183   5.898   2.450
16603TIP3    H171224   7.276   5.880   2.472
16603TIP3    H271225   7.184   5.856   2.361
16604TIP3   OH271226   5.823   6.009   2.836
16604TIP3    H171227   5.867   5.927   2.869
16604TIP3    H271228   5.874   6.078   2.881
16605TIP3   OH271229   5.649   6.309   2.944
16605TIP3    H171230   5.706   6.284   2.868
16605TIP3    H271231   5.696   6.390   2.971
16606TIP3   OH271232   5.688   5.937   2.349
16606TIP3    H171233   5.592   5.951   2.338
16606TIP3    H271234   5.722   5.990   2.274
16607TIP3   OH271235   5.681   5.801   3.181
16607TIP3    H171236   5.614   5.781   3.249
16607TIP3    H271237   5.635   5.868   3.127
16608TIP3   OH271238   5.904   7.126   3.599
16608TIP3    H171239   5.819   7.140   3.553
16608TIP3    H271240   5.877   7.110   3.689
16609TIP3   OH271241   6.199   7.220   3.232
16609TIP3    H171242   6.154   7.298   3.195
16609TIP3    H271243   6.285   7.218   3.188
16610TIP3   OH271244   6.115   7.255   2.761
16610TIP3    H171245   6.076   7.179   2.808
16610TIP3    H271246   6.172   7.292   2.831
16611TIP3   OH271247   6.694   5.894   2.786
16611TIP3    H171248   6.628   5.829   2.814
16611TIP3    H271249   6.751   5.842   2.728
16612TIP3   OH271250   7.211   5.698   2.793
16612TIP3    H171251   7.269   5.761   2.749
16612TIP3    H271252   7.122   5.734   2.772
16613TIP3   OH271253   5.933   5.747   2.581
16613TIP3    H171254   5.848   5.715   2.546
16613TIP3    H271255   5.985   5.663   2.576
16614TIP3   OH271256   5.823   5.737   2.158
16614TIP3    H171257   5.858   5.794   2.086
16614TIP3    H271258   5.745   5.789   2.185
16615TIP3   OH271259   6.377   5.752   2.550
16615TIP3    H171260   6.468   5.785   2.540
16615TIP3    H271261   6.378   5.727   2.642
16616TIP3   OH271262   6.954   5.747   2.712
16616TIP3    H171263   6.948   5.765   2.617
16616TIP3    H271264   6.911   5.659   2.723
16617TIP3   OH271265   7.075   5.746   2.268
16617TIP3    H171266   7.005   5.812   2.264
16617TIP3    H271267   7.028   5.666   2.301
16618TIP3   OH271268   5.992   5.923   1.998
16618TIP3    H171269   6.045   5.866   1.939
16618TIP3    H271270   6.062   5.960   2.055
16619TIP3   OH271271   6.495   5.951   2.234
16619TIP3    H171272   6.520   5.893   2.308
16619TIP3    H271273   6.502   6.038   2.280
16620TIP3   OH271274   5.922   5.812   3.515
16620TIP3    H171275   5.883   5.732   3.556
16620TIP3    H271276   6.013   5.807   3.554
16621TIP3   OH271277   6.122   5.749   3.680
16621TIP3    H171278   6.211   5.716   3.658
16621TIP3    H271279   6.084   5.669   3.720
16622TIP3   OH271280   6.962   5.680   3.692
16622TIP3    H171281   6.971   5.633   3.778
16622TIP3    H271282   7.054   5.678   3.658
16623TIP3   OH271283   7.273  -0.024   3.572
16623TIP3    H171284   7.207  -0.039   3.504
16623TIP3    H271285   7.278   0.073   3.575
16624TIP3   OH271286   1.185   1.014   4.440
16624TIP3    H171287   1.184   1.112   4.439
16624TIP3    H271288   1.112   0.991   4.381
16625TIP3   OH271289   1.070   0.939   4.792
16625TIP3    H171290   1.069   0.874   4.864
16625TIP3    H271291   1.036   0.888   4.717
16626TIP3   OH271292   0.311   0.906   4.943
16626TIP3    H171293   0.317   0.838   5.015
16626TIP3    H271294   0.382   0.965   4.971
16627TIP3   OH271295   1.439   1.234   4.620
16627TIP3    H171296   1.399   1.162   4.670
16627TIP3    H271297   1.442   1.305   4.687
16628TIP3   OH271298   0.400   1.344   4.798
16628TIP3    H171299   0.368   1.258   4.763
16628TIP3    H271300   0.496   1.324   4.799
16629TIP3   OH271301   0.090   0.706   4.304
16629TIP3    H171302   0.045   0.786   4.342
16629TIP3    H271303   0.011   0.653   4.304
16630TIP3   OH271304   0.130   0.925   4.556
16630TIP3    H171305   0.160   0.848   4.608
16630TIP3    H271306   0.204   0.941   4.495
16631TIP3   OH271307   1.152   1.750   4.644
16631TIP3    H171308   1.216   1.681   4.615
16631TIP3    H271309   1.130   1.716   4.731
16632TIP3   OH271310   0.909   1.179   4.839
16632TIP3    H171311   0.942   1.117   4.773
16632TIP3    H271312   0.990   1.195   4.890
16633TIP3   OH271313   1.767   0.345   4.911
16633TIP3    H171314   1.786   0.402   4.989
16633TIP3    H271315   1.823   0.388   4.845
16634TIP3   OH271316   1.225   0.626   4.871
16634TIP3    H171317   1.241   0.530   4.871
16634TIP3    H271318   1.215   0.641   4.775
16635TIP3   OH271319   0.538   0.437   4.593
16635TIP3    H171320   0.548   0.519   4.542
16635TIP3    H271321   0.498   0.379   4.524
16636TIP3   OH271322   1.310   0.440   4.429
16636TIP3    H171323   1.376   0.413   4.497
16636TIP3    H271324   1.365   0.500   4.376
16637TIP3   OH271325   0.195   0.669   4.659
16637TIP3    H171326   0.268   0.621   4.706
16637TIP3    H271327   0.214   0.640   4.569
16638TIP3   OH271328   0.714   0.832   4.597
16638TIP3    H171329   0.782   0.774   4.637
16638TIP3    H271330   0.663   0.766   4.546
16639TIP3   OH271331   1.812   0.485   5.139
16639TIP3    H171332   1.750   0.561   5.128
16639TIP3    H271333   1.815   0.475   5.234
16640TIP3   OH271334   0.432   0.329   4.994
16640TIP3    H171335   0.398   0.385   4.920
16640TIP3    H271336   0.362   0.347   5.061
16641TIP3   OH271337   1.156   1.273   4.350
16641TIP3    H171338   1.130   1.246   4.261
16641TIP3    H271339   1.125   1.366   4.355
16642TIP3   OH271340   0.680   1.090   5.017
16642TIP3    H171341   0.609   1.153   5.043
16642TIP3    H271342   0.751   1.150   4.990
16643TIP3   OH271343   1.492   0.376   4.627
16643TIP3    H171344   1.467   0.302   4.683
16643TIP3    H271345   1.558   0.421   4.682
16644TIP3   OH271346   0.381   0.514   4.797
16644TIP3    H171347   0.445   0.579   4.832
16644TIP3    H271348   0.435   0.471   4.726
16645TIP3   OH271349   0.521   1.289   5.098
16645TIP3    H171350   0.520   1.383   5.073
16645TIP3    H271351   0.436   1.280   5.147
16646TIP3   OH271352   0.128   1.255   4.177
16646TIP3    H171353   0.108   1.288   4.088
16646TIP3    H271354   0.140   1.336   4.231
16647TIP3   OH271355   1.492   1.418   4.857
16647TIP3    H171356   1.395   1.429   4.869
16647TIP3    H271357   1.519   1.510   4.837
16648TIP3   OH271358   1.528   0.246   5.002
16648TIP3    H171359   1.453   0.305   4.986
16648TIP3    H271360   1.597   0.286   4.946
16649TIP3   OH271361   0.818   0.059   4.725
16649TIP3    H171362   0.817  -0.036   4.743
16649TIP3    H271363   0.739   0.087   4.775
16650TIP3   OH271364   1.318   1.597   4.515
16650TIP3    H171365   1.361   1.525   4.465
16650TIP3    H271366   1.362   1.676   4.476
16651TIP3   OH271367   1.440   1.389   4.368
16651TIP3    H171368   1.409   1.320   4.307
16651TIP3    H271369   1.443   1.340   4.452
16652TIP3   OH271370   1.602   1.250   5.216
16652TIP3    H171371   1.616   1.184   5.145
16652TIP3    H271372   1.621   1.334   5.171
16653TIP3   OH271373   1.051   0.936   4.193
16653TIP3    H171374   0.982   0.995   4.157
16653TIP3    H271375   1.122   0.948   4.127
16654TIP3   OH271376   1.059   0.795   3.894
16654TIP3    H171377   1.130   0.793   3.960
16654TIP3    H271378   1.090   0.723   3.837
16655TIP3   OH271379   1.788   0.878   5.018
16655TIP3    H171380   1.725   0.953   5.026
16655TIP3    H271381   1.839   0.904   4.939
16656TIP3   OH271382   1.396   0.958   4.285
16656TIP3    H171383   1.322   0.983   4.345
16656TIP3    H271384   1.443   0.891   4.338
16657TIP3   OH271385   1.389   0.776   5.198
16657TIP3    H171386   1.388   0.858   5.250
16657TIP3    H271387   1.326   0.804   5.129
16658TIP3   OH271388   0.559   1.026   4.477
16658TIP3    H171389   0.523   0.985   4.394
16658TIP3    H271390   0.619   0.955   4.510
16659TIP3   OH271391   0.686   1.361   4.746
16659TIP3    H171392   0.690   1.310   4.664
16659TIP3    H271393   0.766   1.329   4.790
16660TIP3   OH271394   0.593   0.898   4.843
16660TIP3    H171395   0.646   0.910   4.762
16660TIP3    H271396   0.628   0.967   4.904
16661TIP3   OH271397   1.230   1.457   4.913
16661TIP3    H171398   1.202   1.521   4.980
16661TIP3    H271399   1.205   1.371   4.956
16662TIP3   OH271400   0.685   1.345   5.315
16662TIP3    H171401   0.643   1.420   5.361
16662TIP3    H271402   0.620   1.322   5.246
16663TIP3   OH271403   1.284   0.879   4.052
16663TIP3    H171404   1.339   0.896   4.132
16663TIP3    H271405   1.329   0.929   3.980
16664TIP3   OH271406   0.379   0.960   5.233
16664TIP3    H171407   0.383   1.029   5.301
16664TIP3    H271408   0.286   0.969   5.205
16665TIP3   OH271409   1.054   1.551   4.399
16665TIP3    H171410   1.098   1.582   4.480
16665TIP3    H271411   0.999   1.626   4.375
16666TIP3   OH271412   0.509   1.541   5.386
16666TIP3    H171413   0.502   1.535   5.290
16666TIP3    H271414   0.416   1.532   5.413
16667TIP3   OH271415   1.652   0.067   4.017
16667TIP3    H171416   1.567   0.071   4.063
16667TIP3    H271417   1.676   0.158   3.996
16668TIP3   OH271418   0.455   0.926   4.240
16668TIP3    H171419   0.426   1.004   4.188
16668TIP3    H271420   0.390   0.860   4.216
16669TIP3   OH271421   1.767   1.487   3.877
16669TIP3    H171422   1.784   1.582   3.894
16669TIP3    H271423   1.859   1.456   3.877
16670TIP3   OH271424   0.123   1.158   5.101
16670TIP3    H171425   0.043   1.168   5.044
16670TIP3    H271426   0.087   1.079   5.149
16671TIP3   OH271427   0.075   1.473   4.777
16671TIP3    H171428   0.146   1.419   4.811
16671TIP3    H271429   0.036   1.512   4.858
16672TIP3   OH271430   1.861   1.515   5.372
16672TIP3    H171431   1.853   1.418   5.374
16672TIP3    H271432   1.776   1.537   5.416
16673TIP3   OH271433   0.959   1.469   5.259
16673TIP3    H171434   0.964   1.552   5.313
16673TIP3    H271435   0.872   1.431   5.284
16674TIP3   OH271436   1.003   1.842   4.240
16674TIP3    H171437   0.992   1.834   4.144
16674TIP3    H271438   1.003   1.938   4.256
16675TIP3   OH271439   0.363   1.733   4.420
16675TIP3    H171440   0.381   1.691   4.507
16675TIP3    H271441   0.282   1.687   4.395
16676TIP3   OH271442   1.308   1.763   3.939
16676TIP3    H171443   1.354   1.688   3.895
16676TIP3    H271444   1.312   1.737   4.033
16677TIP3   OH271445   1.278   1.757   4.216
16677TIP3    H171446   1.181   1.764   4.233
16677TIP3    H271447   1.301   1.683   4.274
16678TIP3   OH271448   1.579   0.657   5.421
16678TIP3    H171449   1.530   0.704   5.351
16678TIP3    H271450   1.576   0.565   5.390
16679TIP3   OH271451   0.292   1.310   5.229
16679TIP3    H171452   0.312   1.263   5.312
16679TIP3    H271453   0.209   1.264   5.201
16680TIP3   OH271454   0.557   0.147   4.820
16680TIP3    H171455   0.467   0.139   4.781
16680TIP3    H271456   0.546   0.232   4.865
16681TIP3   OH271457   1.022   0.118   5.159
16681TIP3    H171458   1.064   0.076   5.234
16681TIP3    H271459   0.926   0.108   5.174
16682TIP3   OH271460   1.353   0.497   5.246
16682TIP3    H171461   1.293   0.483   5.323
16682TIP3    H271462   1.336   0.590   5.220
16683TIP3   OH271463   1.428   0.982   3.833
16683TIP3    H171464   1.427   0.964   3.737
16683TIP3    H271465   1.514   1.027   3.839
16684TIP3   OH271466   0.988   0.373   3.886
16684TIP3    H171467   0.955   0.366   3.977
16684TIP3    H271468   0.956   0.286   3.854
16685TIP3   OH271469   0.568   0.646   4.942
16685TIP3    H171470   0.496   0.646   5.008
16685TIP3    H271471   0.566   0.737   4.906
16686TIP3   OH271472   0.568   0.659   4.428
16686TIP3    H171473   0.474   0.635   4.415
16686TIP3    H271474   0.605   0.629   4.344
16687TIP3   OH271475   1.118   0.709   4.306
16687TIP3    H171476   1.078   0.791   4.270
16687TIP3    H271477   1.187   0.691   4.240
16688TIP3   OH271478   1.027   0.723   5.439
16688TIP3    H171479   0.970   0.656   5.483
16688TIP3    H271480   1.104   0.720   5.499
16689TIP3   OH271481   1.222   0.658   4.591
16689TIP3    H171482   1.192   0.713   4.517
16689TIP3    H271483   1.230   0.573   4.544
16690TIP3   OH271484   0.332   0.671   5.110
16690TIP3    H171485   0.335   0.712   5.198
16690TIP3    H271486   0.283   0.589   5.131
16691TIP3   OH271487   0.669   0.413   3.797
16691TIP3    H171488   0.623   0.369   3.871
16691TIP3    H271489   0.598   0.452   3.745
16692TIP3   OH271490   0.034   0.413   4.490
16692TIP3    H171491   0.069   0.382   4.576
16692TIP3    H271492   0.049   0.339   4.433
16693TIP3   OH271493   0.124   0.469   4.045
16693TIP3    H171494   0.179   0.522   3.984
16693TIP3    H271495   0.050   0.526   4.066
16694TIP3   OH271496   1.140   0.816   5.047
16694TIP3    H171497   1.178   0.748   4.988
16694TIP3    H271498   1.094   0.763   5.114
16695TIP3   OH271499   0.821   0.413   4.528
16695TIP3    H171500   0.728   0.413   4.559
16695TIP3    H271501   0.870   0.398   4.610
16696TIP3   OH271502   0.304   0.569   4.416
16696TIP3    H171503   0.216   0.585   4.376
16696TIP3    H271504   0.330   0.485   4.374
16697TIP3   OH271505   0.666   0.573   4.179
16697TIP3    H171506   0.762   0.584   4.195
16697TIP3    H271507   0.641   0.642   4.115
16698TIP3   OH271508   1.262   0.335   4.853
16698TIP3    H171509   1.193   0.343   4.922
16698TIP3    H271510   1.212   0.308   4.775
16699TIP3   OH271511   0.538   0.690   3.937
16699TIP3    H171512   0.484   0.654   3.865
16699TIP3    H271513   0.620   0.712   3.890
16700TIP3   OH271514   1.581   1.901   5.487
16700TIP3    H171515   1.609   1.939   5.402
16700TIP3    H271516   1.652   1.932   5.546
16701TIP3   OH271517   0.348   1.149   5.448
16701TIP3    H171518   0.423   1.171   5.506
16701TIP3    H271519   0.272   1.163   5.505
16702TIP3   OH271520   0.949   0.688   4.719
16702TIP3    H171521   1.010   0.634   4.666
16702TIP3    H271522   0.934   0.634   4.797
16703TIP3   OH271523   0.447   0.308   4.363
16703TIP3    H171524   0.417   0.216   4.365
16703TIP3    H271525   0.526   0.300   4.307
16704TIP3   OH271526   0.814   0.526   4.959
16704TIP3    H171527   0.730   0.575   4.970
16704TIP3    H271528   0.868   0.558   5.033
16705TIP3   OH271529   0.872   1.144   4.130
16705TIP3    H171530   0.792   1.097   4.097
16705TIP3    H271531   0.849   1.156   4.225
16706TIP3   OH271532   1.591   1.065   5.011
16706TIP3    H171533   1.647   1.113   4.947
16706TIP3    H271534   1.505   1.069   4.964
16707TIP3   OH271535   1.254   0.426   3.949
16707TIP3    H171536   1.159   0.442   3.933
16707TIP3    H271537   1.288   0.511   3.983
16708TIP3   OH271538   1.020   1.170   5.249
16708TIP3    H171539   0.990   1.125   5.330
16708TIP3    H271540   0.995   1.261   5.265
16709TIP3   OH271541   1.329   0.617   4.109
16709TIP3    H171542   1.417   0.603   4.150
16709TIP3    H271543   1.339   0.700   4.060
16710TIP3   OH271544   0.385   1.086   4.710
16710TIP3    H171545   0.449   1.074   4.639
16710TIP3    H271546   0.391   1.000   4.756
16711TIP3   OH271547   1.081   1.290   4.033
16711TIP3    H171548   1.047   1.375   4.069
16711TIP3    H271549   1.008   1.229   4.055
16712TIP3   OH271550   0.080   0.922   5.237
16712TIP3    H171551   0.104   0.877   5.320
16712TIP3    H271552   0.020   0.858   5.195
16713TIP3   OH271553   0.779   0.879   5.450
16713TIP3    H171554   0.756   0.847   5.362
16713TIP3    H271555   0.873   0.855   5.461
16714TIP3   OH271556   1.251   1.412   5.250
16714TIP3    H171557   1.159   1.432   5.225
16714TIP3    H271558   1.249   1.444   5.342
16715TIP3   OH271559   1.820   0.632   4.088
16715TIP3    H171560   1.762   0.603   4.014
16715TIP3    H271561   1.827   0.727   4.063
16716TIP3   OH271562   1.818   1.217   5.369
16716TIP3    H171563   1.729   1.239   5.332
16716TIP3    H271564   1.872   1.210   5.288
16717TIP3   OH271565   1.644   1.514   4.127
16717TIP3    H171566   1.611   1.430   4.162
16717TIP3    H271567   1.680   1.492   4.040
16718TIP3   OH271568   1.368   0.996   4.839
16718TIP3    H171569   1.274   0.975   4.827
16718TIP3    H271570   1.412   0.920   4.795
16719TIP3   OH271571   0.616   1.432   4.456
16719TIP3    H171572   0.671   1.508   4.426
16719TIP3    H271573   0.532   1.452   4.413
16720TIP3   OH271574   0.192   0.914   3.910
16720TIP3    H171575   0.256   0.979   3.945
16720TIP3    H271576   0.106   0.949   3.936
16721TIP3   OH271577   0.762   1.195   4.399
16721TIP3    H171578   0.731   1.287   4.410
16721TIP3    H271579   0.691   1.146   4.444
16722TIP3   OH271580   0.808   1.612   5.037
16722TIP3    H171581   0.851   1.695   5.014
16722TIP3    H271582   0.869   1.579   5.106
16723TIP3   OH271583   0.628   1.693   4.356
16723TIP3    H171584   0.532   1.710   4.365
16723TIP3    H271585   0.666   1.779   4.385
16724TIP3   OH271586   1.158   1.213   4.999
16724TIP3    H171587   1.126   1.196   5.091
16724TIP3    H271588   1.223   1.142   4.987
16725TIP3   OH271589   1.393   1.322   3.912
16725TIP3    H171590   1.423   1.274   3.993
16725TIP3    H271591   1.298   1.303   3.920
16726TIP3   OH271592   1.440   1.672   5.253
16726TIP3    H171593   1.372   1.622   5.204
16726TIP3    H271594   1.459   1.742   5.186
16727TIP3   OH271595   1.839   1.757   3.938
16727TIP3    H171596   1.908   1.823   3.917
16727TIP3    H271597   1.768   1.817   3.966
16728TIP3   OH271598   0.248   0.394   5.188
16728TIP3    H171599   0.159   0.433   5.196
16728TIP3    H271600   0.233   0.309   5.234
16729TIP3   OH271601   1.471   1.185   4.136
16729TIP3    H171602   1.447   1.106   4.190
16729TIP3    H271603   1.566   1.189   4.154
16730TIP3   OH271604   0.234   1.577   5.028
16730TIP3    H171605   0.229   1.481   5.043
16730TIP3    H271606   0.232   1.607   5.121
16731TIP3   OH271607   0.806   1.428   3.762
16731TIP3    H171608   0.816   1.352   3.703
16731TIP3    H271609   0.762   1.385   3.838
16732TIP3   OH271610   0.682   1.381   4.007
16732TIP3    H171611   0.710   1.330   4.084
16732TIP3    H271612   0.692   1.474   4.039
16733TIP3   OH271613   0.332   1.105   4.055
16733TIP3    H171614   0.261   1.145   4.110
16733TIP3    H271615   0.385   1.183   4.027
16734TIP3   OH271616   1.120   0.373   5.087
16734TIP3    H171617   1.193   0.380   5.150
16734TIP3    H271618   1.084   0.284   5.103
16735TIP3   OH271619   1.198   0.331   4.198
16735TIP3    H171620   1.217   0.377   4.114
16735TIP3    H271621   1.251   0.381   4.261
16736TIP3   OH271622   0.963   1.547   4.077
16736TIP3    H171623   0.882   1.601   4.084
16736TIP3    H271624   1.017   1.602   4.018
16737TIP3   OH271625   0.919   0.504   4.279
16737TIP3    H171626   0.995   0.565   4.282
16737TIP3    H271627   0.893   0.495   4.373
16738TIP3   OH271628   0.974   0.611   5.195
16738TIP3    H171629   0.980   0.665   5.277
16738TIP3    H271630   1.039   0.540   5.206
16739TIP3   OH271631   1.005   0.213   4.371
16739TIP3    H171632   0.970   0.280   4.432
16739TIP3    H271633   1.071   0.268   4.322
16740TIP3   OH271634   0.704   1.650   4.079
16740TIP3    H171635   0.713   1.732   4.024
16740TIP3    H271636   0.677   1.688   4.166
16741TIP3   OH271637   0.568   0.322   4.036
16741TIP3    H171638   0.561   0.411   4.075
16741TIP3    H271639   0.660   0.302   4.061
16742TIP3   OH271640   1.590   0.395   5.284
16742TIP3    H171641   1.498   0.428   5.269
16742TIP3    H271642   1.620   0.392   5.191
16743TIP3   OH271643   1.452   0.775   4.682
16743TIP3    H171644   1.369   0.731   4.655
16743TIP3    H271645   1.500   0.707   4.734
16744TIP3   OH271646   0.390   1.368   3.941
16744TIP3    H171647   0.457   1.431   3.972
16744TIP3    H271648   0.443   1.320   3.874
16745TIP3   OH271649   0.220   0.634   3.858
16745TIP3    H171650   0.228   0.730   3.875
16745TIP3    H271651   0.133   0.617   3.820
16746TIP3   OH271652   1.558   1.701   4.850
16746TIP3    H171653   1.550   1.769   4.780
16746TIP3    H271654   1.655   1.706   4.867
16747TIP3   OH271655   0.288   0.127   4.737
16747TIP3    H171656   0.288   0.121   4.638
16747TIP3    H271657   0.265   0.036   4.759
16748TIP3   OH271658   0.207   1.509   4.350
16748TIP3    H171659   0.119   1.547   4.339
16748TIP3    H271660   0.252   1.551   4.275
16749TIP3   OH271661   0.159   1.771   5.471
16749TIP3    H171662   0.191   1.748   5.557
16749TIP3    H271663   0.103   1.693   5.451
16750TIP3   OH271664   1.005   1.613   3.774
16750TIP3    H171665   0.936   1.547   3.797
16750TIP3    H271666   1.077   1.554   3.749
16751TIP3   OH271667   1.240   1.500   5.510
16751TIP3    H171668   1.212   1.410   5.535
16751TIP3    H271669   1.320   1.513   5.564
16752TIP3   OH271670   1.461   1.588   3.793
16752TIP3    H171671   1.491   1.510   3.843
16752TIP3    H271672   1.537   1.610   3.738
16753TIP3   OH271673   0.109   1.141   5.576
16753TIP3    H171674   0.132   1.056   5.533
16753TIP3    H271675   0.041   1.173   5.513
16754TIP3   OH271676   0.550   1.182   3.774
16754TIP3    H171677   0.563   1.106   3.833
16754TIP3    H271678   0.625   1.170   3.713
16755TIP3   OH271679   0.791   1.148   5.511
16755TIP3    H171680   0.751   1.174   5.427
16755TIP3    H271681   0.795   1.050   5.508
16756TIP3   OH271682   1.093   1.293   3.752
16756TIP3    H171683   1.066   1.301   3.845
16756TIP3    H271684   1.074   1.197   3.738
16757TIP3   OH271685   1.356   1.133   5.250
16757TIP3    H171686   1.436   1.190   5.244
16757TIP3    H271687   1.286   1.199   5.256
16758TIP3   OH271688   0.200   0.871   5.513
16758TIP3    H171689   0.247   0.786   5.497
16758TIP3    H271690   0.180   0.860   5.605
16759TIP3   OH271691   0.670   0.984   4.018
16759TIP3    H171692   0.620   0.930   4.080
16759TIP3    H271693   0.700   0.917   3.952
16760TIP3   OH271694   0.595   0.763   5.244
16760TIP3    H171695   0.538   0.836   5.274
16760TIP3    H271696   0.637   0.802   5.166
16761TIP3   OH271697   0.778   0.806   3.838
16761TIP3    H171698   0.762   0.797   3.741
16761TIP3    H271699   0.875   0.811   3.844
16762TIP3   OH271700   1.146   1.046   5.543
16762TIP3    H171701   1.233   1.025   5.574
16762TIP3    H271702   1.094   0.986   5.604
16763TIP3   OH271703   1.709   1.038   3.779
16763TIP3    H171704   1.692   1.000   3.691
16763TIP3    H271705   1.721   1.134   3.759
16764TIP3   OH271706   0.638   0.504   5.352
16764TIP3    H171707   0.649   0.432   5.288
16764TIP3    H271708   0.630   0.584   5.297
16765TIP3   OH271709   0.678   0.342   5.106
16765TIP3    H171710   0.729   0.390   5.036
16765TIP3    H271711   0.588   0.331   5.065
16766TIP3   OH271712   0.829   0.887   5.129
16766TIP3    H171713   0.908   0.873   5.075
16766TIP3    H271714   0.795   0.973   5.097
16767TIP3   OH271715   1.275   0.663   5.618
16767TIP3    H171716   1.295   0.570   5.623
16767TIP3    H271717   1.360   0.709   5.631
16768TIP3   OH271718   1.408   0.944   5.442
16768TIP3    H171719   1.380   1.017   5.382
16768TIP3    H271720   1.504   0.942   5.422
16769TIP3   OH271721   0.476   0.629   5.544
16769TIP3    H171722   0.403   0.567   5.526
16769TIP3    H271723   0.547   0.595   5.485
16770TIP3   OH271724   0.744   0.101   5.173
16770TIP3    H171725   0.735   0.196   5.145
16770TIP3    H271726   0.683   0.061   5.109
16771TIP3   OH271727   0.884   0.512   5.505
16771TIP3    H171728   0.851   0.491   5.595
16771TIP3    H271729   0.802   0.498   5.455
16772TIP3   OH271730   1.155   0.434   5.418
16772TIP3    H171731   1.058   0.440   5.430
16772TIP3    H271732   1.181   0.371   5.487
16773TIP3   OH271733   1.312   0.295   5.614
16773TIP3    H171734   1.314   0.199   5.614
16773TIP3    H271735   1.285   0.322   5.702
16774TIP3   OH271736   0.307   0.420   5.523
16774TIP3    H171737   0.319   0.347   5.459
16774TIP3    H271738   0.288   0.370   5.605
16775TIP3   OH271739   0.775   7.316   5.421
16775TIP3    H171740   0.851   7.260   5.418
16775TIP3    H271741   0.763   7.347   5.329
16776TIP3   OH271742   0.761   1.876   3.945
16776TIP3    H171743   0.857   1.885   3.952
16776TIP3    H271744   0.746   1.936   3.871
16777TIP3   OH271745   0.120   1.334   3.894
16777TIP3    H171746   0.216   1.345   3.911
16777TIP3    H271747   0.124   1.269   3.820
16778TIP3   OH271748   7.337   1.889   4.371
16778TIP3    H171749   7.247   1.868   4.341
16778TIP3    H271750   7.346   1.826   4.446
16779TIP3   OH271751   0.083   1.688   4.571
16779TIP3    H171752   0.041   1.601   4.593
16779TIP3    H271753   0.100   1.719   4.662
16780TIP3   OH271754   1.830   1.765   4.869
16780TIP3    H171755   1.833   1.780   4.965
16780TIP3    H271756   1.901   1.824   4.839
16781TIP3   OH271757   1.789   1.724   5.165
16781TIP3    H171758   1.741   1.648   5.126
16781TIP3    H271759   1.837   1.677   5.236
16782TIP3   OH271760   1.635   1.296   5.634
16782TIP3    H171761   1.543   1.297   5.665
16782TIP3    H271762   1.674   1.378   5.670
16783TIP3   OH271763   1.764   1.130   4.174
16783TIP3    H171764   1.850   1.169   4.193
16783TIP3    H271765   1.762   1.058   4.240
16784TIP3   OH271766   1.800   0.938   4.363
16784TIP3    H171767   1.725   0.888   4.402
16784TIP3    H271768   1.860   0.951   4.439
16785TIP3   OH271769   1.775   1.207   4.861
16785TIP3    H171770   1.857   1.169   4.823
16785TIP3    H271771   1.790   1.302   4.844
16786TIP3   OH271772   1.631   1.498   5.088
16786TIP3    H171773   1.562   1.532   5.147
16786TIP3    H271774   1.577   1.457   5.017
16787TIP3   OH271775   1.830   0.920   4.002
16787TIP3    H171776   1.773   0.954   3.929
16787TIP3    H271777   1.820   0.991   4.068
16788TIP3   OH271778   1.668   0.643   3.853
16788TIP3    H171779   1.675   0.710   3.783
16788TIP3    H271780   1.649   0.561   3.804
16789TIP3   OH271781   1.582   0.785   4.420
16789TIP3    H171782   1.567   0.689   4.416
16789TIP3    H271783   1.549   0.806   4.509
16790TIP3   OH271784   0.083   0.991   4.817
16790TIP3    H171785   0.104   0.988   4.721
16790TIP3    H271786   0.171   0.981   4.859
16791TIP3   OH271787   1.668   0.981   5.387
16791TIP3    H171788   1.730   0.907   5.403
16791TIP3    H271789   1.728   1.059   5.389
16792TIP3   OH271790   1.816   0.769   5.447
16792TIP3    H171791   1.729   0.727   5.436
16792TIP3    H271792   1.875   0.692   5.446
16793TIP3   OH271793   1.592   0.391   3.768
16793TIP3    H171794   1.651   0.346   3.832
16793TIP3    H271795   1.506   0.347   3.782
16794TIP3   OH271796   1.546   0.544   4.261
16794TIP3    H171797   1.578   0.453   4.277
16794TIP3    H271798   1.629   0.585   4.231
16795TIP3   OH271799   1.612   0.600   4.809
16795TIP3    H171800   1.709   0.621   4.808
16795TIP3    H271801   1.594   0.611   4.904
16796TIP3   OH271802   1.618   0.672   5.087
16796TIP3    H171803   1.529   0.700   5.120
16796TIP3    H271804   1.662   0.757   5.065
16797TIP3   OH271805   0.071   0.508   5.438
16797TIP3    H171806   0.158   0.490   5.476
16797TIP3    H271807   0.012   0.444   5.485
16798TIP3   OH271808   1.860   0.078   5.624
16798TIP3    H171809   1.875   0.009   5.557
16798TIP3    H271810   1.851   0.159   5.570
16799TIP3   OH271811   1.615   0.275   4.271
16799TIP3    H171812   1.635   0.228   4.354
16799TIP3    H271813   1.557   0.210   4.224
16800TIP3   OH271814   0.166   0.354   4.720
16800TIP3    H171815   0.208   0.271   4.752
16800TIP3    H271816   0.219   0.421   4.767
16801TIP3   OH271817   0.051   0.728   4.866
16801TIP3    H171818   0.054   0.684   4.778
16801TIP3    H271819   0.057   0.819   4.837
16802TIP3   OH271820   1.799   0.279   5.457
16802TIP3    H171821   1.707   0.312   5.450
16802TIP3    H271822   1.804   0.230   5.373
16803TIP3   OH271823   1.800   0.276   3.926
16803TIP3    H171824   1.838   0.203   3.872
16803TIP3    H271825   1.871   0.341   3.929
16804TIP3   OH271826   0.075   0.271   4.195
16804TIP3    H171827  -0.019   0.293   4.206
16804TIP3    H271828   0.098   0.345   4.135
16805TIP3   OH271829   1.503   1.774   4.432
16805TIP3    H171830   1.571   1.743   4.370
16805TIP3    H271831   1.554   1.823   4.497
16806TIP3   OH271832   7.348   0.147   5.093
16806TIP3    H171833   7.267   0.120   5.137
16806TIP3    H271834   7.304   0.191   5.018
16807TIP3   OH271835   0.244   1.469   5.489
16807TIP3    H171836   0.160   1.483   5.441
16807TIP3    H271837   0.211   1.455   5.576
16808TIP3   OH271838   0.535   1.564   5.098
16808TIP3    H171839   0.504   1.656   5.089
16808TIP3    H271840   0.631   1.575   5.083
16809TIP3   OH271841   0.971   1.699   5.403
16809TIP3    H171842   0.992   1.671   5.492
16809TIP3    H271843   1.056   1.740   5.376
16810TIP3   OH271844   1.198   1.833   5.334
16810TIP3    H171845   1.273   1.777   5.307
16810TIP3    H271846   1.238   1.877   5.412
16811TIP3   OH271847   1.702   0.099   5.230
16811TIP3    H171848   1.616   0.127   5.196
16811TIP3    H271849   1.716   0.012   5.188
16812TIP3   OH271850   0.279   1.883   5.108
16812TIP3    H171851   0.208   1.939   5.072
16812TIP3    H271852   0.247   1.870   5.198
16813TIP3   OH271853   0.515   1.831   5.000
16813TIP3    H171854   0.442   1.862   5.059
16813TIP3    H271855   0.526   1.911   4.945
16814TIP3   OH271856   0.998   1.838   4.934
16814TIP3    H171857   0.951   1.893   4.870
16814TIP3    H271858   1.011   1.901   5.008
16815TIP3   OH271859   1.228   1.718   5.036
16815TIP3    H171860   1.142   1.745   4.999
16815TIP3    H271861   1.276   1.802   5.029
16816TIP3   OH271862   1.485   1.875   5.059
16816TIP3    H171863   1.480   1.971   5.036
16816TIP3    H271864   1.507   1.837   4.972
16817TIP3   OH271865   0.218   1.747   4.801
16817TIP3    H171866   0.219   1.716   4.894
16817TIP3    H271867   0.305   1.729   4.762
16818TIP3   OH271868   0.437   1.632   4.656
16818TIP3    H171869   0.429   1.536   4.654
16818TIP3    H271870   0.527   1.647   4.696
16819TIP3   OH271871   0.683   1.666   4.762
16819TIP3    H171872   0.715   1.579   4.732
16819TIP3    H271873   0.704   1.668   4.856
16820TIP3   OH271874   1.027   0.244   4.669
16820TIP3    H171875   0.969   0.172   4.698
16820TIP3    H271876   1.096   0.195   4.620
16821TIP3   OH271877   1.554   0.045   4.681
16821TIP3    H171878   1.616   0.100   4.629
16821TIP3    H271879   1.467   0.079   4.657
16822TIP3   OH271880   1.722   0.170   4.506
16822TIP3    H171881   1.786   0.111   4.464
16822TIP3    H271882   1.773   0.254   4.514
16823TIP3   OH271883   0.275   0.103   4.458
16823TIP3    H171884   0.200   0.078   4.402
16823TIP3    H271885   0.323   0.019   4.463
16824TIP3   OH271886   0.157   0.073   4.023
16824TIP3    H171887   0.204   0.140   3.973
16824TIP3    H271888   0.097   0.130   4.075
16825TIP3   OH271889   0.730   0.086   4.433
16825TIP3    H171890   0.815   0.132   4.429
16825TIP3    H271891   0.719   0.073   4.528
16826TIP3   OH271892   1.269   0.132   4.613
16826TIP3    H171893   1.283   0.127   4.518
16826TIP3    H271894   1.260   0.034   4.626
16827TIP3   OH271895   1.423   0.102   4.169
16827TIP3    H171896   1.347   0.158   4.146
16827TIP3    H271897   1.382   0.016   4.184
16828TIP3   OH271898   0.145   1.673   4.133
16828TIP3    H171899   0.084   1.672   4.058
16828TIP3    H271900   0.148   1.769   4.149
16829TIP3   OH271901   0.334   0.266   3.884
16829TIP3    H171902   0.388   0.209   3.826
16829TIP3    H271903   0.403   0.301   3.943
16830TIP3   OH271904   0.831   0.294   4.124
16830TIP3    H171905   0.867   0.237   4.195
16830TIP3    H271906   0.847   0.381   4.167
16831TIP3   OH271907   1.032   1.801   3.964
16831TIP3    H171908   1.124   1.824   3.942
16831TIP3    H271909   1.010   1.749   3.884
16832TIP3   OH271910   1.701   1.751   4.236
16832TIP3    H171911   1.683   1.673   4.179
16832TIP3    H271912   1.695   1.825   4.172
16833TIP3   OH271913   0.253   0.156   5.391
16833TIP3    H171914   0.222   0.079   5.441
16833TIP3    H271915   0.344   0.155   5.429
16834TIP3   OH271916   0.434   0.106   5.553
16834TIP3    H171917   0.531   0.095   5.541
16834TIP3    H271918   0.425   0.023   5.603
16835TIP3   OH271919   0.324   1.766   3.822
16835TIP3    H171920   0.299   1.794   3.911
16835TIP3    H271921   0.405   1.714   3.840
16836TIP3   OH271922   1.627   1.627   5.447
16836TIP3    H171923   1.547   1.611   5.392
16836TIP3    H271924   1.614   1.722   5.466
16837TIP3   OH271925   3.071   1.014   4.440
16837TIP3    H171926   3.069   1.112   4.439
16837TIP3    H271927   2.998   0.991   4.381
16838TIP3   OH271928   2.956   0.939   4.792
16838TIP3    H171929   2.955   0.875   4.864
16838TIP3    H271930   2.921   0.889   4.717
16839TIP3   OH271931   2.192   0.907   4.947
16839TIP3    H171932   2.200   0.839   5.017
16839TIP3    H271933   2.267   0.964   4.969
16840TIP3   OH271934   3.325   1.234   4.620
16840TIP3    H171935   3.284   1.162   4.670
16840TIP3    H271936   3.327   1.305   4.687
16841TIP3   OH271937   2.284   1.352   4.796
16841TIP3    H171938   2.253   1.265   4.765
16841TIP3    H271939   2.380   1.334   4.802
16842TIP3   OH271940   1.948   0.707   4.346
16842TIP3    H171941   1.904   0.794   4.340
16842TIP3    H271942   1.892   0.653   4.289
16843TIP3   OH271943   2.019   0.932   4.561
16843TIP3    H171944   2.046   0.849   4.605
16843TIP3    H271945   2.089   0.941   4.494
16844TIP3   OH271946   3.037   1.750   4.644
16844TIP3    H171947   3.102   1.681   4.615
16844TIP3    H271948   3.015   1.716   4.731
16845TIP3   OH271949   2.794   1.179   4.839
16845TIP3    H171950   2.828   1.117   4.773
16845TIP3    H271951   2.875   1.195   4.890
16846TIP3   OH271952   3.652   0.345   4.911
16846TIP3    H171953   3.672   0.402   4.989
16846TIP3    H271954   3.709   0.388   4.845
16847TIP3   OH271955   3.111   0.626   4.871
16847TIP3    H171956   3.126   0.530   4.871
16847TIP3    H271957   3.100   0.641   4.775
16848TIP3   OH271958   2.423   0.437   4.592
16848TIP3    H171959   2.433   0.520   4.542
16848TIP3    H271960   2.382   0.379   4.524
16849TIP3   OH271961   3.196   0.441   4.429
16849TIP3    H171962   3.262   0.413   4.497
16849TIP3    H271963   3.251   0.500   4.376
16850TIP3   OH271964   2.084   0.677   4.665
16850TIP3    H171965   2.151   0.622   4.711
16850TIP3    H271966   2.095   0.645   4.574
16851TIP3   OH271967   2.600   0.832   4.598
16851TIP3    H171968   2.667   0.774   4.637
16851TIP3    H271969   2.548   0.766   4.547
16852TIP3   OH271970   3.697   0.485   5.140
16852TIP3    H171971   3.636   0.561   5.129
16852TIP3    H271972   3.702   0.476   5.237
16853TIP3   OH271973   2.314   0.331   4.995
16853TIP3    H171974   2.282   0.384   4.919
16853TIP3    H271975   2.243   0.348   5.062
16854TIP3   OH271976   3.042   1.273   4.350
16854TIP3    H171977   3.015   1.246   4.261
16854TIP3    H271978   3.011   1.366   4.355
16855TIP3   OH271979   2.564   1.089   5.020
16855TIP3    H171980   2.494   1.154   5.042
16855TIP3    H271981   2.635   1.149   4.991
16856TIP3   OH271982   3.378   0.376   4.627
16856TIP3    H171983   3.353   0.302   4.684
16856TIP3    H271984   3.443   0.421   4.684
16857TIP3   OH271985   2.269   0.516   4.797
16857TIP3    H171986   2.334   0.580   4.831
16857TIP3    H271987   2.321   0.471   4.725
16858TIP3   OH271988   2.410   1.289   5.102
16858TIP3    H171989   2.404   1.381   5.069
16858TIP3    H271990   2.321   1.282   5.146
16859TIP3   OH271991   2.017   1.251   4.180
16859TIP3    H171992   1.993   1.284   4.092
16859TIP3    H271993   2.025   1.333   4.232
16860TIP3   OH271994   3.378   1.418   4.857
16860TIP3    H171995   3.281   1.429   4.869
16860TIP3    H271996   3.405   1.510   4.836
16861TIP3   OH271997   3.413   0.246   5.001
16861TIP3    H171998   3.339   0.305   4.986
16861TIP3    H271999   3.482   0.287   4.945
16862TIP3   OH272000   2.704   0.059   4.724
16862TIP3    H172001   2.703  -0.036   4.741
16862TIP3    H272002   2.626   0.086   4.775
16863TIP3   OH272003   3.204   1.597   4.515
16863TIP3    H172004   3.247   1.525   4.465
16863TIP3    H272005   3.247   1.676   4.477
16864TIP3   OH272006   3.325   1.389   4.368
16864TIP3    H172007   3.295   1.320   4.307
16864TIP3    H272008   3.328   1.340   4.452
16865TIP3   OH272009   3.484   1.250   5.216
16865TIP3    H172010   3.501   1.183   5.146
16865TIP3    H272011   3.508   1.334   5.172
16866TIP3   OH272012   2.935   0.937   4.192
16866TIP3    H172013   2.866   0.996   4.155
16866TIP3    H272014   3.007   0.948   4.127
16867TIP3   OH272015   2.945   0.795   3.894
16867TIP3    H172016   3.015   0.793   3.960
16867TIP3    H272017   2.975   0.723   3.837
16868TIP3   OH272018   3.673   0.878   5.017
16868TIP3    H172019   3.611   0.953   5.026
16868TIP3    H272020   3.725   0.904   4.939
16869TIP3   OH272021   3.282   0.957   4.285
16869TIP3    H172022   3.208   0.983   4.345
16869TIP3    H272023   3.329   0.891   4.338
16870TIP3   OH272024   3.273   0.775   5.194
16870TIP3    H172025   3.276   0.854   5.251
16870TIP3    H272026   3.210   0.806   5.127
16871TIP3   OH272027   2.442   1.025   4.477
16871TIP3    H172028   2.410   0.986   4.392
16871TIP3    H272029   2.504   0.956   4.510
16872TIP3   OH272030   2.574   1.363   4.746
16872TIP3    H172031   2.574   1.311   4.664
16872TIP3    H272032   2.653   1.328   4.791
16873TIP3   OH272033   2.475   0.899   4.843
16873TIP3    H172034   2.530   0.909   4.763
16873TIP3    H272035   2.514   0.966   4.904
16874TIP3   OH272036   3.117   1.457   4.914
16874TIP3    H172037   3.089   1.520   4.980
16874TIP3    H272038   3.092   1.372   4.956
16875TIP3   OH272039   2.570   1.343   5.316
16875TIP3    H172040   2.529   1.417   5.364
16875TIP3    H272041   2.504   1.323   5.245
16876TIP3   OH272042   3.169   0.879   4.052
16876TIP3    H172043   3.225   0.896   4.132
16876TIP3    H272044   3.214   0.928   3.980
16877TIP3   OH272045   2.265   0.959   5.230
16877TIP3    H172046   2.268   1.025   5.302
16877TIP3    H272047   2.171   0.967   5.207
16878TIP3   OH272048   2.940   1.551   4.399
16878TIP3    H172049   2.984   1.582   4.480
16878TIP3    H272050   2.884   1.626   4.375
16879TIP3   OH272051   2.392   1.542   5.385
16879TIP3    H172052   2.389   1.533   5.288
16879TIP3    H272053   2.300   1.530   5.412
16880TIP3   OH272054   3.538   0.067   4.017
16880TIP3    H172055   3.452   0.071   4.063
16880TIP3    H272056   3.562   0.158   3.996
16881TIP3   OH272057   2.338   0.926   4.240
16881TIP3    H172058   2.311   1.005   4.188
16881TIP3    H272059   2.274   0.860   4.215
16882TIP3   OH272060   3.653   1.487   3.877
16882TIP3    H172061   3.669   1.582   3.894
16882TIP3    H272062   3.745   1.456   3.877
16883TIP3   OH272063   1.949   1.170   5.128
16883TIP3    H172064   1.904   1.161   5.042
16883TIP3    H272065   1.957   1.076   5.152
16884TIP3   OH272066   1.925   1.443   4.807
16884TIP3    H172067   2.020   1.432   4.804
16884TIP3    H272068   1.916   1.525   4.857
16885TIP3   OH272069   3.746   1.513   5.368
16885TIP3    H172070   3.739   1.417   5.376
16885TIP3    H272071   3.662   1.539   5.412
16886TIP3   OH272072   2.844   1.469   5.259
16886TIP3    H172073   2.849   1.551   5.313
16886TIP3    H272074   2.759   1.431   5.287
16887TIP3   OH272075   2.888   1.842   4.240
16887TIP3    H172076   2.877   1.834   4.144
16887TIP3    H272077   2.888   1.938   4.256
16888TIP3   OH272078   2.252   1.730   4.423
16888TIP3    H172079   2.266   1.689   4.511
16888TIP3    H272080   2.167   1.689   4.399
16889TIP3   OH272081   3.194   1.763   3.939
16889TIP3    H172082   3.239   1.688   3.895
16889TIP3    H272083   3.198   1.737   4.033
16890TIP3   OH272084   3.163   1.757   4.216
16890TIP3    H172085   3.067   1.764   4.233
16890TIP3    H272086   3.187   1.683   4.274
16891TIP3   OH272087   3.467   0.658   5.415
16891TIP3    H172088   3.414   0.705   5.349
16891TIP3    H272089   3.462   0.566   5.390
16892TIP3   OH272090   2.176   1.299   5.216
16892TIP3    H172091   2.198   1.266   5.306
16892TIP3    H272092   2.088   1.260   5.200
16893TIP3   OH272093   2.442   0.145   4.821
16893TIP3    H172094   2.353   0.139   4.781
16893TIP3    H272095   2.432   0.231   4.865
16894TIP3   OH272096   2.907   0.118   5.159
16894TIP3    H172097   2.949   0.076   5.234
16894TIP3    H272098   2.812   0.107   5.175
16895TIP3   OH272099   3.233   0.494   5.240
16895TIP3    H172100   3.182   0.482   5.323
16895TIP3    H272101   3.224   0.590   5.222
16896TIP3   OH272102   3.314   0.982   3.834
16896TIP3    H172103   3.312   0.963   3.737
16896TIP3    H272104   3.400   1.027   3.839
16897TIP3   OH272105   2.874   0.373   3.886
16897TIP3    H172106   2.841   0.366   3.977
16897TIP3    H272107   2.842   0.286   3.855
16898TIP3   OH272108   2.455   0.647   4.944
16898TIP3    H172109   2.381   0.645   5.007
16898TIP3    H272110   2.450   0.737   4.906
16899TIP3   OH272111   2.451   0.658   4.429
16899TIP3    H172112   2.357   0.634   4.416
16899TIP3    H272113   2.489   0.629   4.344
16900TIP3   OH272114   3.004   0.709   4.306
16900TIP3    H172115   2.964   0.791   4.269
16900TIP3    H272116   3.073   0.691   4.240
16901TIP3   OH272117   2.907   0.730   5.449
16901TIP3    H172118   2.856   0.652   5.481
16901TIP3    H272119   2.992   0.718   5.493
16902TIP3   OH272120   3.107   0.658   4.591
16902TIP3    H172121   3.078   0.713   4.517
16902TIP3    H272122   3.116   0.573   4.544
16903TIP3   OH272123   2.217   0.672   5.111
16903TIP3    H172124   2.225   0.712   5.200
16903TIP3    H272125   2.172   0.588   5.132
16904TIP3   OH272126   2.554   0.413   3.797
16904TIP3    H172127   2.508   0.369   3.871
16904TIP3    H272128   2.483   0.452   3.745
16905TIP3   OH272129   1.884   0.385   4.508
16905TIP3    H172130   1.952   0.382   4.578
16905TIP3    H272131   1.929   0.346   4.431
16906TIP3   OH272132   2.010   0.456   4.048
16906TIP3    H172133   2.061   0.514   3.988
16906TIP3    H272134   1.940   0.518   4.077
16907TIP3   OH272135   3.026   0.816   5.046
16907TIP3    H172136   3.064   0.747   4.988
16907TIP3    H272137   2.980   0.763   5.113
16908TIP3   OH272138   2.707   0.413   4.527
16908TIP3    H172139   2.614   0.413   4.559
16908TIP3    H272140   2.756   0.398   4.610
16909TIP3   OH272141   2.188   0.569   4.416
16909TIP3    H172142   2.099   0.583   4.377
16909TIP3    H272143   2.217   0.486   4.375
16910TIP3   OH272144   2.552   0.573   4.179
16910TIP3    H172145   2.648   0.583   4.195
16910TIP3    H272146   2.528   0.642   4.114
16911TIP3   OH272147   3.147   0.335   4.853
16911TIP3    H172148   3.078   0.343   4.923
16911TIP3    H272149   3.097   0.308   4.775
16912TIP3   OH272150   2.422   0.691   3.938
16912TIP3    H172151   2.369   0.652   3.866
16912TIP3    H272152   2.505   0.711   3.891
16913TIP3   OH272153   3.469   1.903   5.490
16913TIP3    H172154   3.490   1.938   5.402
16913TIP3    H272155   3.543   1.932   5.544
16914TIP3   OH272156   2.232   1.148   5.446
16914TIP3    H172157   2.303   1.174   5.508
16914TIP3    H272158   2.156   1.156   5.507
16915TIP3   OH272159   2.835   0.689   4.719
16915TIP3    H172160   2.895   0.634   4.666
16915TIP3    H272161   2.820   0.634   4.797
16916TIP3   OH272162   2.334   0.307   4.363
16916TIP3    H172163   2.303   0.214   4.365
16916TIP3    H272164   2.412   0.298   4.307
16917TIP3   OH272165   2.700   0.527   4.959
16917TIP3    H172166   2.615   0.575   4.970
16917TIP3    H272167   2.754   0.558   5.034
16918TIP3   OH272168   2.758   1.144   4.129
16918TIP3    H172169   2.677   1.097   4.096
16918TIP3    H272170   2.735   1.157   4.223
16919TIP3   OH272171   3.476   1.065   5.010
16919TIP3    H172172   3.532   1.113   4.946
16919TIP3    H272173   3.390   1.069   4.963
16920TIP3   OH272174   3.139   0.426   3.949
16920TIP3    H172175   3.044   0.442   3.933
16920TIP3    H272176   3.174   0.511   3.983
16921TIP3   OH272177   2.905   1.171   5.252
16921TIP3    H172178   2.872   1.129   5.332
16921TIP3    H272179   2.884   1.264   5.265
16922TIP3   OH272180   3.215   0.617   4.109
16922TIP3    H172181   3.303   0.603   4.151
16922TIP3    H272182   3.225   0.700   4.060
16923TIP3   OH272183   2.269   1.084   4.710
16923TIP3    H172184   2.337   1.075   4.640
16923TIP3    H272185   2.275   0.998   4.756
16924TIP3   OH272186   2.968   1.291   4.034
16924TIP3    H172187   2.933   1.375   4.069
16924TIP3    H272188   2.894   1.229   4.055
16925TIP3   OH272189   1.970   0.921   5.233
16925TIP3    H172190   1.984   0.883   5.323
16925TIP3    H272191   1.905   0.861   5.193
16926TIP3   OH272192   2.669   0.877   5.455
16926TIP3    H172193   2.638   0.849   5.368
16926TIP3    H272194   2.763   0.849   5.454
16927TIP3   OH272195   3.138   1.414   5.250
16927TIP3    H172196   3.046   1.431   5.226
16927TIP3    H272197   3.133   1.443   5.344
16928TIP3   OH272198   3.705   0.632   4.088
16928TIP3    H172199   3.648   0.603   4.014
16928TIP3    H272200   3.712   0.727   4.063
16929TIP3   OH272201   3.703   1.218   5.368
16929TIP3    H172202   3.615   1.238   5.329
16929TIP3    H272203   3.759   1.209   5.289
16930TIP3   OH272204   3.530   1.514   4.127
16930TIP3    H172205   3.497   1.430   4.162
16930TIP3    H272206   3.564   1.492   4.039
16931TIP3   OH272207   3.254   0.996   4.838
16931TIP3    H172208   3.160   0.974   4.828
16931TIP3    H272209   3.297   0.920   4.795
16932TIP3   OH272210   2.506   1.429   4.449
16932TIP3    H172211   2.556   1.510   4.428
16932TIP3    H272212   2.418   1.452   4.416
16933TIP3   OH272213   2.084   0.913   3.906
16933TIP3    H172214   2.141   0.980   3.947
16933TIP3    H272215   1.994   0.944   3.930
16934TIP3   OH272216   2.647   1.196   4.399
16934TIP3    H172217   2.616   1.288   4.410
16934TIP3    H272218   2.576   1.146   4.445
16935TIP3   OH272219   2.693   1.613   5.040
16935TIP3    H172220   2.738   1.695   5.014
16935TIP3    H272221   2.753   1.579   5.109
16936TIP3   OH272222   2.515   1.694   4.353
16936TIP3    H172223   2.419   1.709   4.366
16936TIP3    H272224   2.552   1.778   4.387
16937TIP3   OH272225   3.044   1.213   5.003
16937TIP3    H172226   3.012   1.194   5.094
16937TIP3    H272227   3.109   1.143   4.986
16938TIP3   OH272228   3.278   1.321   3.912
16938TIP3    H172229   3.308   1.274   3.992
16938TIP3    H272230   3.183   1.302   3.919
16939TIP3   OH272231   3.325   1.668   5.251
16939TIP3    H172232   3.255   1.623   5.201
16939TIP3    H272233   3.344   1.744   5.192
16940TIP3   OH272234   3.725   1.756   3.938
16940TIP3    H172235   3.794   1.823   3.917
16940TIP3    H272236   3.653   1.818   3.966
16941TIP3   OH272237   2.131   0.395   5.193
16941TIP3    H172238   2.041   0.431   5.189
16941TIP3    H272239   2.119   0.308   5.235
16942TIP3   OH272240   3.356   1.185   4.136
16942TIP3    H172241   3.332   1.106   4.190
16942TIP3    H272242   3.451   1.189   4.154
16943TIP3   OH272243   2.094   1.576   5.035
16943TIP3    H172244   2.124   1.484   5.035
16943TIP3    H272245   2.121   1.605   5.123
16944TIP3   OH272246   2.694   1.428   3.764
16944TIP3    H172247   2.700   1.353   3.702
16944TIP3    H272248   2.646   1.384   3.837
16945TIP3   OH272249   2.568   1.381   4.006
16945TIP3    H172250   2.596   1.330   4.083
16945TIP3    H272251   2.578   1.474   4.039
16946TIP3   OH272252   2.223   1.106   4.056
16946TIP3    H172253   2.151   1.145   4.109
16946TIP3    H272254   2.273   1.184   4.026
16947TIP3   OH272255   3.007   0.374   5.085
16947TIP3    H172256   3.079   0.380   5.149
16947TIP3    H272257   2.970   0.286   5.104
16948TIP3   OH272258   3.084   0.331   4.198
16948TIP3    H172259   3.102   0.377   4.114
16948TIP3    H272260   3.137   0.382   4.261
16949TIP3   OH272261   2.849   1.547   4.077
16949TIP3    H172262   2.767   1.601   4.084
16949TIP3    H272263   2.903   1.602   4.018
16950TIP3   OH272264   2.805   0.503   4.279
16950TIP3    H172265   2.881   0.565   4.282
16950TIP3    H272266   2.778   0.495   4.373
16951TIP3   OH272267   2.859   0.609   5.196
16951TIP3    H172268   2.866   0.665   5.276
16951TIP3    H272269   2.925   0.539   5.206
16952TIP3   OH272270   2.891   0.213   4.371
16952TIP3    H172271   2.856   0.280   4.432
16952TIP3    H272272   2.956   0.268   4.322
16953TIP3   OH272273   2.589   1.651   4.080
16953TIP3    H172274   2.598   1.732   4.024
16953TIP3    H272275   2.562   1.687   4.167
16954TIP3   OH272276   2.452   0.322   4.036
16954TIP3    H172277   2.447   0.411   4.075
16954TIP3    H272278   2.545   0.302   4.061
16955TIP3   OH272279   3.476   0.395   5.282
16955TIP3    H172280   3.383   0.429   5.271
16955TIP3    H272281   3.506   0.395   5.190
16956TIP3   OH272282   3.338   0.775   4.682
16956TIP3    H172283   3.255   0.731   4.655
16956TIP3    H272284   3.386   0.707   4.734
16957TIP3   OH272285   2.277   1.367   3.941
16957TIP3    H172286   2.343   1.430   3.974
16957TIP3    H272287   2.330   1.321   3.872
16958TIP3   OH272288   2.111   0.635   3.857
16958TIP3    H172289   2.113   0.731   3.877
16958TIP3    H272290   2.022   0.618   3.825
16959TIP3   OH272291   3.444   1.698   4.845
16959TIP3    H172292   3.435   1.771   4.781
16959TIP3    H272293   3.540   1.707   4.868
16960TIP3   OH272294   2.169   0.129   4.736
16960TIP3    H172295   2.175   0.119   4.638
16960TIP3    H272296   2.155   0.037   4.758
16961TIP3   OH272297   2.089   1.505   4.345
16961TIP3    H172298   2.004   1.550   4.340
16961TIP3    H272299   2.136   1.552   4.275
16962TIP3   OH272300   2.011   1.771   5.472
16962TIP3    H172301   2.070   1.745   5.544
16962TIP3    H272302   1.966   1.686   5.452
16963TIP3   OH272303   2.891   1.614   3.775
16963TIP3    H172304   2.822   1.548   3.797
16963TIP3    H272305   2.963   1.554   3.749
16964TIP3   OH272306   3.135   1.497   5.504
16964TIP3    H172307   3.093   1.415   5.540
16964TIP3    H272308   3.206   1.510   5.568
16965TIP3   OH272309   3.347   1.588   3.793
16965TIP3    H172310   3.376   1.510   3.843
16965TIP3    H272311   3.423   1.610   3.738
16966TIP3   OH272312   2.439   1.185   3.781
16966TIP3    H172313   2.450   1.103   3.831
16966TIP3    H272314   2.504   1.170   3.709
16967TIP3   OH272315   2.677   1.146   5.510
16967TIP3    H172316   2.638   1.178   5.426
16967TIP3    H272317   2.680   1.049   5.500
16968TIP3   OH272318   2.978   1.293   3.752
16968TIP3    H172319   2.951   1.301   3.845
16968TIP3    H272320   2.958   1.197   3.737
16969TIP3   OH272321   3.242   1.134   5.253
16969TIP3    H172322   3.321   1.191   5.243
16969TIP3    H272323   3.172   1.201   5.253
16970TIP3   OH272324   2.090   0.870   5.506
16970TIP3    H172325   2.134   0.785   5.502
16970TIP3    H272326   2.065   0.877   5.599
16971TIP3   OH272327   2.556   0.984   4.019
16971TIP3    H172328   2.505   0.929   4.081
16971TIP3    H272329   2.585   0.918   3.951
16972TIP3   OH272330   2.483   0.763   5.247
16972TIP3    H172331   2.423   0.835   5.274
16972TIP3    H272332   2.522   0.800   5.167
16973TIP3   OH272333   2.663   0.803   3.838
16973TIP3    H172334   2.646   0.800   3.741
16973TIP3    H272335   2.761   0.812   3.842
16974TIP3   OH272336   2.988   1.024   5.584
16974TIP3    H172337   3.082   1.021   5.563
16974TIP3    H272338   2.971   0.944   5.636
16975TIP3   OH272339   3.596   1.039   3.779
16975TIP3    H172340   3.577   1.000   3.692
16975TIP3    H272341   3.605   1.134   3.760
16976TIP3   OH272342   2.524   0.502   5.352
16976TIP3    H172343   2.535   0.431   5.285
16976TIP3    H272344   2.518   0.583   5.297
16977TIP3   OH272345   2.563   0.343   5.106
16977TIP3    H172346   2.614   0.390   5.036
16977TIP3    H272347   2.474   0.332   5.065
16978TIP3   OH272348   2.717   0.889   5.132
16978TIP3    H172349   2.792   0.873   5.075
16978TIP3    H272350   2.681   0.973   5.098
16979TIP3   OH272351   3.288   0.945   5.443
16979TIP3    H172352   3.268   1.018   5.380
16979TIP3    H272353   3.385   0.940   5.427
16980TIP3   OH272354   2.370   0.626   5.547
16980TIP3    H172355   2.292   0.572   5.526
16980TIP3    H272356   2.434   0.590   5.483
16981TIP3   OH272357   2.627   0.103   5.174
16981TIP3    H172358   2.622   0.197   5.143
16981TIP3    H272359   2.569   0.062   5.108
16982TIP3   OH272360   2.767   0.518   5.505
16982TIP3    H172361   2.744   0.492   5.595
16982TIP3    H272362   2.686   0.497   5.454
16983TIP3   OH272363   3.041   0.433   5.418
16983TIP3    H172364   2.944   0.434   5.431
16983TIP3    H272365   3.073   0.370   5.486
16984TIP3   OH272366   3.197   0.304   5.610
16984TIP3    H172367   3.191   0.205   5.608
16984TIP3    H272368   3.174   0.325   5.700
16985TIP3   OH272369   2.176   0.421   5.521
16985TIP3    H172370   2.202   0.349   5.459
16985TIP3    H272371   2.170   0.372   5.604
16986TIP3   OH272372   2.665   7.325   5.421
16986TIP3    H172373   2.732   7.257   5.423
16986TIP3    H272374   2.651   7.345   5.327
16987TIP3   OH272375   2.698   0.197   5.625
16987TIP3    H172376   2.689   0.135   5.549
16987TIP3    H272377   2.635   0.264   5.604
16988TIP3   OH272378   2.646   1.876   3.945
16988TIP3    H172379   2.743   1.885   3.952
16988TIP3    H272380   2.632   1.936   3.871
16989TIP3   OH272381   2.002   1.334   3.892
16989TIP3    H172382   2.099   1.343   3.910
16989TIP3    H272383   2.006   1.269   3.818
16990TIP3   OH272384   1.880   1.872   4.389
16990TIP3    H172385   1.808   1.823   4.343
16990TIP3    H272386   1.908   1.806   4.455
16991TIP3   OH272387   1.962   1.686   4.576
16991TIP3    H172388   1.927   1.598   4.596
16991TIP3    H272389   1.985   1.719   4.665
16992TIP3   OH272390   3.716   1.765   4.869
16992TIP3    H172391   3.719   1.780   4.965
16992TIP3    H272392   3.787   1.824   4.839
16993TIP3   OH272393   3.682   1.722   5.161
16993TIP3    H172394   3.624   1.650   5.127
16993TIP3    H272395   3.724   1.676   5.236
16994TIP3   OH272396   3.649   1.130   4.174
16994TIP3    H172397   3.736   1.169   4.193
16994TIP3    H272398   3.648   1.058   4.241
16995TIP3   OH272399   3.685   0.938   4.363
16995TIP3    H172400   3.610   0.888   4.402
16995TIP3    H272401   3.745   0.951   4.439
16996TIP3   OH272402   3.661   1.206   4.860
16996TIP3    H172403   3.743   1.169   4.823
16996TIP3    H272404   3.675   1.302   4.845
16997TIP3   OH272405   3.515   1.498   5.088
16997TIP3    H172406   3.448   1.534   5.148
16997TIP3    H272407   3.460   1.458   5.017
16998TIP3   OH272408   3.715   0.920   4.002
16998TIP3    H172409   3.659   0.954   3.929
16998TIP3    H272410   3.705   0.991   4.068
16999TIP3   OH272411   3.554   0.643   3.853
16999TIP3    H172412   3.560   0.710   3.783
16999TIP3    H272413   3.534   0.561   3.804
17000TIP3   OH272414   3.467   0.785   4.420
17000TIP3    H172415   3.453   0.689   4.416
17000TIP3    H272416   3.435   0.806   4.509
17001TIP3   OH272417   1.968   0.994   4.826
17001TIP3    H172418   1.986   0.985   4.730
17001TIP3    H272419   2.057   0.976   4.861
17002TIP3   OH272420   3.551   0.982   5.380
17002TIP3    H172421   3.611   0.909   5.403
17002TIP3    H272422   3.613   1.057   5.391
17003TIP3   OH272423   3.704   0.769   5.445
17003TIP3    H172424   3.613   0.731   5.441
17003TIP3    H272425   3.759   0.689   5.446
17004TIP3   OH272426   3.478   0.391   3.768
17004TIP3    H172427   3.537   0.346   3.832
17004TIP3    H272428   3.392   0.347   3.782
17005TIP3   OH272429   3.432   0.544   4.261
17005TIP3    H172430   3.464   0.453   4.277
17005TIP3    H272431   3.514   0.585   4.231
17006TIP3   OH272432   3.498   0.600   4.809
17006TIP3    H172433   3.594   0.621   4.808
17006TIP3    H272434   3.479   0.611   4.904
17007TIP3   OH272435   3.503   0.672   5.084
17007TIP3    H172436   3.418   0.701   5.123
17007TIP3    H272437   3.548   0.758   5.066
17008TIP3   OH272438   1.928   0.525   5.443
17008TIP3    H172439   2.022   0.504   5.458
17008TIP3    H272440   1.884   0.441   5.468
17009TIP3   OH272441   3.727   0.066   5.617
17009TIP3    H172442   3.768   0.008   5.554
17009TIP3    H272443   3.741   0.158   5.584
17010TIP3   OH272444   3.501   0.275   4.271
17010TIP3    H172445   3.521   0.228   4.354
17010TIP3    H272446   3.443   0.210   4.224
17011TIP3   OH272447   2.047   0.358   4.722
17011TIP3    H172448   2.090   0.273   4.749
17011TIP3    H272449   2.104   0.423   4.764
17012TIP3   OH272450   1.878   0.652   4.830
17012TIP3    H172451   1.935   0.628   4.754
17012TIP3    H272452   1.925   0.733   4.857
17013TIP3   OH272453   3.685   0.284   5.455
17013TIP3    H172454   3.592   0.313   5.450
17013TIP3    H272455   3.689   0.229   5.375
17014TIP3   OH272456   3.686   0.276   3.926
17014TIP3    H172457   3.723   0.203   3.872
17014TIP3    H272458   3.757   0.341   3.929
17015TIP3   OH272459   1.915   0.276   4.240
17015TIP3    H172460   1.821   0.294   4.222
17015TIP3    H272461   1.957   0.324   4.166
17016TIP3   OH272462   3.388   1.774   4.432
17016TIP3    H172463   3.457   1.743   4.370
17016TIP3    H272464   3.440   1.823   4.497
17017TIP3   OH272465   1.910   0.152   5.068
17017TIP3    H172466   1.842   0.128   5.133
17017TIP3    H272467   1.862   0.211   5.008
17018TIP3   OH272468   2.132   1.470   5.483
17018TIP3    H172469   2.046   1.481   5.440
17018TIP3    H272470   2.109   1.451   5.575
17019TIP3   OH272471   2.422   1.563   5.108
17019TIP3    H172472   2.390   1.651   5.082
17019TIP3    H272473   2.516   1.574   5.081
17020TIP3   OH272474   2.851   1.703   5.407
17020TIP3    H172475   2.874   1.668   5.495
17020TIP3    H272476   2.941   1.735   5.378
17021TIP3   OH272477   3.078   1.809   5.355
17021TIP3    H172478   3.153   1.778   5.303
17021TIP3    H272479   3.123   1.882   5.399
17022TIP3   OH272480   3.587   0.097   5.232
17022TIP3    H172481   3.502   0.127   5.196
17022TIP3    H272482   3.602   0.011   5.188
17023TIP3   OH272483   2.166   1.889   5.110
17023TIP3    H172484   2.092   1.938   5.069
17023TIP3    H272485   2.133   1.868   5.198
17024TIP3   OH272486   2.412   1.846   5.016
17024TIP3    H172487   2.324   1.861   5.057
17024TIP3    H272488   2.407   1.905   4.939
17025TIP3   OH272489   2.881   1.836   4.935
17025TIP3    H172490   2.837   1.894   4.870
17025TIP3    H272491   2.898   1.899   5.009
17026TIP3   OH272492   3.112   1.717   5.036
17026TIP3    H172493   3.027   1.748   5.002
17026TIP3    H272494   3.161   1.802   5.031
17027TIP3   OH272495   3.383   1.869   5.054
17027TIP3    H172496   3.364   1.966   5.041
17027TIP3    H272497   3.393   1.837   4.964
17028TIP3   OH272498   2.112   1.753   4.804
17028TIP3    H172499   2.104   1.706   4.890
17028TIP3    H272500   2.193   1.715   4.765
17029TIP3   OH272501   2.319   1.624   4.670
17029TIP3    H172502   2.303   1.531   4.693
17029TIP3    H272503   2.405   1.639   4.714
17030TIP3   OH272504   2.580   1.673   4.757
17030TIP3    H172505   2.595   1.580   4.731
17030TIP3    H272506   2.584   1.667   4.854
17031TIP3   OH272507   2.913   0.244   4.669
17031TIP3    H172508   2.855   0.172   4.698
17031TIP3    H272509   2.981   0.195   4.620
17032TIP3   OH272510   3.439   0.045   4.681
17032TIP3    H172511   3.501   0.100   4.629
17032TIP3    H272512   3.353   0.079   4.657
17033TIP3   OH272513   3.608   0.170   4.505
17033TIP3    H172514   3.671   0.111   4.464
17033TIP3    H272515   3.659   0.254   4.514
17034TIP3   OH272516   2.159   0.103   4.458
17034TIP3    H172517   2.082   0.080   4.404
17034TIP3    H272518   2.207   0.019   4.461
17035TIP3   OH272519   2.041   0.075   4.029
17035TIP3    H172520   2.083   0.141   3.972
17035TIP3    H272521   1.978   0.130   4.077
17036TIP3   OH272522   2.615   0.086   4.433
17036TIP3    H172523   2.701   0.132   4.430
17036TIP3    H272524   2.605   0.070   4.528
17037TIP3   OH272525   3.154   0.132   4.613
17037TIP3    H172526   3.168   0.127   4.518
17037TIP3    H272527   3.145   0.034   4.626
17038TIP3   OH272528   3.308   0.102   4.169
17038TIP3    H172529   3.233   0.158   4.146
17038TIP3    H272530   3.268   0.016   4.184
17039TIP3   OH272531   2.030   1.670   4.131
17039TIP3    H172532   1.965   1.669   4.059
17039TIP3    H272533   2.030   1.766   4.148
17040TIP3   OH272534   2.219   0.263   3.881
17040TIP3    H172535   2.276   0.208   3.825
17040TIP3    H272536   2.284   0.301   3.943
17041TIP3   OH272537   2.716   0.294   4.124
17041TIP3    H172538   2.753   0.237   4.195
17041TIP3    H272539   2.732   0.381   4.167
17042TIP3   OH272540   2.918   1.802   3.964
17042TIP3    H172541   3.009   1.824   3.942
17042TIP3    H272542   2.896   1.749   3.884
17043TIP3   OH272543   3.587   1.751   4.236
17043TIP3    H172544   3.568   1.673   4.179
17043TIP3    H272545   3.580   1.825   4.172
17044TIP3   OH272546   2.139   0.152   5.392
17044TIP3    H172547   2.108   0.077   5.443
17044TIP3    H272548   2.230   0.153   5.431
17045TIP3   OH272549   2.321   0.113   5.557
17045TIP3    H172550   2.416   0.094   5.539
17045TIP3    H272551   2.307   0.028   5.601
17046TIP3   OH272552   2.210   1.769   3.825
17046TIP3    H172553   2.184   1.795   3.915
17046TIP3    H272554   2.288   1.713   3.841
17047TIP3   OH272555   3.183   7.357   5.571
17047TIP3    H172556   3.188   7.301   5.650
17047TIP3    H272557   3.272   7.336   5.541
17048TIP3   OH272558   3.513   1.626   5.442
17048TIP3    H172559   3.431   1.613   5.390
17048TIP3    H272560   3.500   1.720   5.466
17049TIP3   OH272561   4.957   1.014   4.440
17049TIP3    H172562   4.955   1.112   4.439
17049TIP3    H272563   4.883   0.990   4.381
17050TIP3   OH272564   4.842   0.939   4.792
17050TIP3    H172565   4.840   0.875   4.864
17050TIP3    H272566   4.807   0.888   4.717
17051TIP3   OH272567   4.078   0.907   4.948
17051TIP3    H172568   4.086   0.839   5.018
17051TIP3    H272569   4.153   0.964   4.970
17052TIP3   OH272570   5.210   1.234   4.620
17052TIP3    H172571   5.169   1.163   4.669
17052TIP3    H272572   5.213   1.305   4.687
17053TIP3   OH272573   4.170   1.352   4.796
17053TIP3    H172574   4.139   1.265   4.765
17053TIP3    H272575   4.265   1.334   4.802
17054TIP3   OH272576   3.834   0.707   4.346
17054TIP3    H172577   3.790   0.794   4.340
17054TIP3    H272578   3.778   0.653   4.289
17055TIP3   OH272579   3.905   0.932   4.561
17055TIP3    H172580   3.932   0.849   4.606
17055TIP3    H272581   3.974   0.941   4.494
17056TIP3   OH272582   4.926   1.754   4.647
17056TIP3    H172583   4.985   1.681   4.614
17056TIP3    H272584   4.899   1.713   4.730
17057TIP3   OH272585   4.679   1.180   4.839
17057TIP3    H172586   4.713   1.117   4.773
17057TIP3    H272587   4.760   1.195   4.890
17058TIP3   OH272588   5.538   0.345   4.911
17058TIP3    H172589   5.556   0.403   4.988
17058TIP3    H272590   5.594   0.387   4.845
17059TIP3   OH272591   4.996   0.626   4.871
17059TIP3    H172592   5.012   0.530   4.871
17059TIP3    H272593   4.986   0.641   4.775
17060TIP3   OH272594   4.309   0.437   4.592
17060TIP3    H172595   4.319   0.520   4.542
17060TIP3    H272596   4.267   0.379   4.524
17061TIP3   OH272597   5.082   0.441   4.429
17061TIP3    H172598   5.147   0.413   4.497
17061TIP3    H272599   5.137   0.500   4.376
17062TIP3   OH272600   3.969   0.676   4.666
17062TIP3    H172601   4.037   0.622   4.711
17062TIP3    H272602   3.980   0.645   4.575
17063TIP3   OH272603   4.486   0.832   4.597
17063TIP3    H172604   4.553   0.774   4.637
17063TIP3    H272605   4.434   0.766   4.547
17064TIP3   OH272606   5.583   0.485   5.140
17064TIP3    H172607   5.522   0.560   5.128
17064TIP3    H272608   5.587   0.476   5.237
17065TIP3   OH272609   4.200   0.331   4.994
17065TIP3    H172610   4.167   0.384   4.919
17065TIP3    H272611   4.129   0.348   5.062
17066TIP3   OH272612   4.927   1.273   4.350
17066TIP3    H172613   4.901   1.246   4.261
17066TIP3    H272614   4.897   1.366   4.355
17067TIP3   OH272615   4.449   1.089   5.019
17067TIP3    H172616   4.379   1.154   5.041
17067TIP3    H272617   4.520   1.149   4.991
17068TIP3   OH272618   5.263   0.376   4.627
17068TIP3    H172619   5.238   0.302   4.683
17068TIP3    H272620   5.330   0.421   4.681
17069TIP3   OH272621   4.154   0.516   4.797
17069TIP3    H172622   4.220   0.580   4.831
17069TIP3    H272623   4.206   0.471   4.725
17070TIP3   OH272624   4.295   1.290   5.101
17070TIP3    H172625   4.289   1.381   5.067
17070TIP3    H272626   4.207   1.280   5.145
17071TIP3   OH272627   3.903   1.251   4.181
17071TIP3    H172628   3.878   1.285   4.093
17071TIP3    H272629   3.911   1.334   4.232
17072TIP3   OH272630   5.263   1.418   4.857
17072TIP3    H172631   5.167   1.430   4.869
17072TIP3    H272632   5.290   1.510   4.837
17073TIP3   OH272633   5.299   0.246   5.002
17073TIP3    H172634   5.224   0.305   4.986
17073TIP3    H272635   5.369   0.287   4.946
17074TIP3   OH272636   4.589   0.059   4.724
17074TIP3    H172637   4.589  -0.036   4.741
17074TIP3    H272638   4.511   0.086   4.775
17075TIP3   OH272639   5.089   1.599   4.516
17075TIP3    H172640   5.131   1.525   4.467
17075TIP3    H272641   5.134   1.675   4.475
17076TIP3   OH272642   5.211   1.389   4.368
17076TIP3    H172643   5.181   1.320   4.307
17076TIP3    H272644   5.214   1.339   4.452
17077TIP3   OH272645   5.372   1.249   5.217
17077TIP3    H172646   5.387   1.182   5.146
17077TIP3    H272647   5.393   1.333   5.172
17078TIP3   OH272648   4.822   0.936   4.193
17078TIP3    H172649   4.753   0.995   4.157
17078TIP3    H272650   4.893   0.948   4.127
17079TIP3   OH272651   4.830   0.794   3.894
17079TIP3    H172652   4.901   0.793   3.960
17079TIP3    H272653   4.861   0.723   3.837
17080TIP3   OH272654   5.561   0.880   5.021
17080TIP3    H172655   5.495   0.952   5.024
17080TIP3    H272656   5.611   0.903   4.940
17081TIP3   OH272657   5.167   0.958   4.285
17081TIP3    H172658   5.093   0.983   4.345
17081TIP3    H272659   5.214   0.891   4.338
17082TIP3   OH272660   5.160   0.776   5.197
17082TIP3    H172661   5.159   0.856   5.253
17082TIP3    H272662   5.095   0.805   5.130
17083TIP3   OH272663   4.328   1.025   4.477
17083TIP3    H172664   4.296   0.986   4.392
17083TIP3    H272665   4.389   0.956   4.510
17084TIP3   OH272666   4.460   1.364   4.746
17084TIP3    H172667   4.459   1.311   4.664
17084TIP3    H272668   4.539   1.327   4.790
17085TIP3   OH272669   4.360   0.900   4.842
17085TIP3    H172670   4.416   0.909   4.762
17085TIP3    H272671   4.399   0.966   4.903
17086TIP3   OH272672   5.003   1.456   4.914
17086TIP3    H172673   4.974   1.520   4.980
17086TIP3    H272674   4.977   1.371   4.956
17087TIP3   OH272675   4.455   1.341   5.316
17087TIP3    H172676   4.415   1.419   5.359
17087TIP3    H272677   4.390   1.322   5.244
17088TIP3   OH272678   5.055   0.879   4.052
17088TIP3    H172679   5.110   0.896   4.132
17088TIP3    H272680   5.100   0.929   3.980
17089TIP3   OH272681   4.149   0.962   5.231
17089TIP3    H172682   4.151   1.026   5.304
17089TIP3    H272683   4.056   0.968   5.205
17090TIP3   OH272684   4.825   1.551   4.398
17090TIP3    H172685   4.869   1.581   4.479
17090TIP3    H272686   4.770   1.626   4.375
17091TIP3   OH272687   4.278   1.540   5.384
17091TIP3    H172688   4.276   1.534   5.286
17091TIP3    H272689   4.186   1.533   5.410
17092TIP3   OH272690   5.424   0.065   4.018
17092TIP3    H172691   5.337   0.071   4.063
17092TIP3    H272692   5.448   0.156   3.996
17093TIP3   OH272693   4.224   0.926   4.240
17093TIP3    H172694   4.196   1.005   4.188
17093TIP3    H272695   4.159   0.860   4.215
17094TIP3   OH272696   5.538   1.488   3.877
17094TIP3    H172697   5.556   1.582   3.894
17094TIP3    H272698   5.630   1.455   3.876
17095TIP3   OH272699   3.837   1.170   5.124
17095TIP3    H172700   3.788   1.161   5.041
17095TIP3    H272701   3.841   1.076   5.151
17096TIP3   OH272702   3.810   1.444   4.806
17096TIP3    H172703   3.905   1.432   4.804
17096TIP3    H272704   3.802   1.525   4.858
17097TIP3   OH272705   5.633   1.513   5.372
17097TIP3    H172706   5.622   1.417   5.372
17097TIP3    H272707   5.548   1.539   5.414
17098TIP3   OH272708   4.730   1.468   5.261
17098TIP3    H172709   4.734   1.552   5.311
17098TIP3    H272710   4.641   1.434   5.284
17099TIP3   OH272711   4.774   1.842   4.240
17099TIP3    H172712   4.763   1.834   4.144
17099TIP3    H272713   4.773   1.938   4.254
17100TIP3   OH272714   4.138   1.730   4.423
17100TIP3    H172715   4.152   1.688   4.510
17100TIP3    H272716   4.053   1.689   4.399
17101TIP3   OH272717   5.080   1.763   3.939
17101TIP3    H172718   5.125   1.688   3.895
17101TIP3    H272719   5.083   1.737   4.033
17102TIP3   OH272720   5.049   1.757   4.216
17102TIP3    H172721   4.953   1.765   4.233
17102TIP3    H272722   5.072   1.683   4.274
17103TIP3   OH272723   5.347   0.658   5.422
17103TIP3    H172724   5.300   0.706   5.351
17103TIP3    H272725   5.350   0.567   5.389
17104TIP3   OH272726   4.062   1.304   5.228
17104TIP3    H172727   4.083   1.259   5.313
17104TIP3    H272728   3.977   1.262   5.200
17105TIP3   OH272729   4.328   0.145   4.821
17105TIP3    H172730   4.239   0.139   4.781
17105TIP3    H272731   4.317   0.231   4.865
17106TIP3   OH272732   4.792   0.120   5.157
17106TIP3    H172733   4.836   0.078   5.232
17106TIP3    H272734   4.697   0.108   5.174
17107TIP3   OH272735   5.122   0.496   5.241
17107TIP3    H172736   5.066   0.482   5.321
17107TIP3    H272737   5.108   0.590   5.221
17108TIP3   OH272738   5.199   0.982   3.833
17108TIP3    H172739   5.197   0.963   3.737
17108TIP3    H272740   5.285   1.026   3.839
17109TIP3   OH272741   4.760   0.374   3.887
17109TIP3    H172742   4.727   0.367   3.977
17109TIP3    H272743   4.729   0.287   3.856
17110TIP3   OH272744   4.340   0.646   4.942
17110TIP3    H172745   4.267   0.645   5.006
17110TIP3    H272746   4.337   0.737   4.906
17111TIP3   OH272747   4.337   0.658   4.428
17111TIP3    H172748   4.243   0.634   4.416
17111TIP3    H272749   4.374   0.629   4.344
17112TIP3   OH272750   4.889   0.709   4.306
17112TIP3    H172751   4.850   0.791   4.269
17112TIP3    H272752   4.958   0.691   4.240
17113TIP3   OH272753   4.795   0.735   5.462
17113TIP3    H172754   4.743   0.652   5.479
17113TIP3    H272755   4.882   0.711   5.498
17114TIP3   OH272756   4.993   0.658   4.591
17114TIP3    H172757   4.964   0.713   4.517
17114TIP3    H272758   5.001   0.573   4.544
17115TIP3   OH272759   4.102   0.672   5.110
17115TIP3    H172760   4.110   0.713   5.198
17115TIP3    H272761   4.058   0.588   5.132
17116TIP3   OH272762   4.438   0.410   3.795
17116TIP3    H172763   4.394   0.371   3.873
17116TIP3    H272764   4.367   0.457   3.749
17117TIP3   OH272765   3.769   0.385   4.508
17117TIP3    H172766   3.837   0.382   4.578
17117TIP3    H272767   3.814   0.346   4.431
17118TIP3   OH272768   3.895   0.456   4.047
17118TIP3    H172769   3.947   0.515   3.988
17118TIP3    H272770   3.826   0.518   4.077
17119TIP3   OH272771   4.912   0.816   5.046
17119TIP3    H172772   4.949   0.747   4.988
17119TIP3    H272773   4.865   0.763   5.112
17120TIP3   OH272774   4.593   0.413   4.527
17120TIP3    H172775   4.500   0.413   4.559
17120TIP3    H272776   4.642   0.398   4.610
17121TIP3   OH272777   4.073   0.569   4.416
17121TIP3    H172778   3.985   0.583   4.377
17121TIP3    H272779   4.103   0.486   4.375
17122TIP3   OH272780   4.438   0.573   4.179
17122TIP3    H172781   4.533   0.584   4.195
17122TIP3    H272782   4.414   0.642   4.114
17123TIP3   OH272783   5.033   0.335   4.853
17123TIP3    H172784   4.964   0.343   4.923
17123TIP3    H272785   4.983   0.308   4.775
17124TIP3   OH272786   4.308   0.691   3.938
17124TIP3    H172787   4.255   0.653   3.866
17124TIP3    H272788   4.390   0.712   3.891
17125TIP3   OH272789   4.119   1.152   5.447
17125TIP3    H172790   4.191   1.174   5.508
17125TIP3    H272791   4.042   1.157   5.505
17126TIP3   OH272792   4.721   0.689   4.719
17126TIP3    H172793   4.781   0.634   4.666
17126TIP3    H272794   4.706   0.634   4.797
17127TIP3   OH272795   4.220   0.307   4.363
17127TIP3    H172796   4.189   0.214   4.365
17127TIP3    H272797   4.298   0.298   4.307
17128TIP3   OH272798   4.585   0.525   4.958
17128TIP3    H172799   4.501   0.574   4.969
17128TIP3    H272800   4.640   0.557   5.032
17129TIP3   OH272801   4.643   1.144   4.130
17129TIP3    H172802   4.563   1.097   4.097
17129TIP3    H272803   4.621   1.156   4.225
17130TIP3   OH272804   5.362   1.064   5.011
17130TIP3    H172805   5.418   1.113   4.947
17130TIP3    H272806   5.276   1.069   4.964
17131TIP3   OH272807   5.025   0.426   3.949
17131TIP3    H172808   4.930   0.442   3.933
17131TIP3    H272809   5.060   0.511   3.983
17132TIP3   OH272810   4.793   1.172   5.253
17132TIP3    H172811   4.758   1.129   5.331
17132TIP3    H272812   4.766   1.264   5.262
17133TIP3   OH272813   5.100   0.617   4.109
17133TIP3    H172814   5.188   0.603   4.151
17133TIP3    H272815   5.111   0.700   4.060
17134TIP3   OH272816   4.155   1.084   4.710
17134TIP3    H172817   4.222   1.075   4.640
17134TIP3    H272818   4.160   0.998   4.756
17135TIP3   OH272819   4.853   1.291   4.033
17135TIP3    H172820   4.818   1.375   4.069
17135TIP3    H272821   4.779   1.229   4.055
17136TIP3   OH272822   3.853   0.923   5.235
17136TIP3    H172823   3.871   0.881   5.321
17136TIP3    H272824   3.790   0.862   5.194
17137TIP3   OH272825   5.022   1.413   5.250
17137TIP3    H172826   4.931   1.431   5.223
17137TIP3    H272827   5.018   1.442   5.342
17138TIP3   OH272828   5.591   0.632   4.088
17138TIP3    H172829   5.534   0.603   4.014
17138TIP3    H272830   5.598   0.727   4.063
17139TIP3   OH272831   5.590   1.213   5.370
17139TIP3    H172832   5.502   1.238   5.334
17139TIP3    H272833   5.645   1.212   5.289
17140TIP3   OH272834   5.413   1.514   4.127
17140TIP3    H172835   5.382   1.430   4.163
17140TIP3    H272836   5.450   1.491   4.040
17141TIP3   OH272837   5.140   0.996   4.839
17141TIP3    H172838   5.046   0.975   4.827
17141TIP3    H272839   5.183   0.920   4.795
17142TIP3   OH272840   4.392   1.429   4.449
17142TIP3    H172841   4.441   1.510   4.428
17142TIP3    H272842   4.304   1.452   4.416
17143TIP3   OH272843   3.968   0.913   3.906
17143TIP3    H172844   4.026   0.979   3.947
17143TIP3    H272845   3.879   0.944   3.931
17144TIP3   OH272846   4.532   1.196   4.400
17144TIP3    H172847   4.501   1.288   4.410
17144TIP3    H272848   4.461   1.146   4.445
17145TIP3   OH272849   4.578   1.614   5.041
17145TIP3    H172850   4.623   1.694   5.013
17145TIP3    H272851   4.641   1.580   5.107
17146TIP3   OH272852   4.402   1.695   4.355
17146TIP3    H172853   4.305   1.709   4.367
17146TIP3    H272854   4.438   1.779   4.388
17147TIP3   OH272855   4.930   1.214   5.003
17147TIP3    H172856   4.897   1.193   5.093
17147TIP3    H272857   4.994   1.143   4.986
17148TIP3   OH272858   5.164   1.321   3.912
17148TIP3    H172859   5.194   1.274   3.993
17148TIP3    H272860   5.069   1.303   3.920
17149TIP3   OH272861   5.207   1.675   5.255
17149TIP3    H172862   5.144   1.621   5.203
17149TIP3    H272863   5.232   1.740   5.186
17150TIP3   OH272864   5.610   1.757   3.938
17150TIP3    H172865   5.679   1.822   3.916
17150TIP3    H272866   5.538   1.817   3.966
17151TIP3   OH272867   4.018   0.396   5.196
17151TIP3    H172868   3.927   0.430   5.189
17151TIP3    H272869   4.004   0.308   5.236
17152TIP3   OH272870   5.242   1.185   4.136
17152TIP3    H172871   5.218   1.106   4.190
17152TIP3    H272872   5.337   1.189   4.154
17153TIP3   OH272873   3.980   1.576   5.034
17153TIP3    H172874   4.010   1.483   5.034
17153TIP3    H272875   4.005   1.604   5.123
17154TIP3   OH272876   4.577   1.428   3.762
17154TIP3    H172877   4.587   1.352   3.703
17154TIP3    H272878   4.533   1.385   3.838
17155TIP3   OH272879   4.454   1.381   4.007
17155TIP3    H172880   4.481   1.330   4.084
17155TIP3    H272881   4.463   1.474   4.039
17156TIP3   OH272882   4.109   1.106   4.056
17156TIP3    H172883   4.037   1.145   4.109
17156TIP3    H272884   4.159   1.184   4.026
17157TIP3   OH272885   4.893   0.374   5.086
17157TIP3    H172886   4.965   0.380   5.150
17157TIP3    H272887   4.856   0.286   5.104
17158TIP3   OH272888   4.969   0.331   4.199
17158TIP3    H172889   4.988   0.377   4.114
17158TIP3    H272890   5.023   0.382   4.261
17159TIP3   OH272891   4.735   1.547   4.076
17159TIP3    H172892   4.653   1.601   4.084
17159TIP3    H272893   4.789   1.602   4.018
17160TIP3   OH272894   4.690   0.504   4.279
17160TIP3    H172895   4.766   0.565   4.282
17160TIP3    H272896   4.664   0.495   4.373
17161TIP3   OH272897   4.743   0.608   5.195
17161TIP3    H172898   4.751   0.666   5.273
17161TIP3    H272899   4.811   0.540   5.206
17162TIP3   OH272900   4.776   0.213   4.371
17162TIP3    H172901   4.741   0.280   4.432
17162TIP3    H272902   4.842   0.268   4.322
17163TIP3   OH272903   4.475   1.651   4.080
17163TIP3    H172904   4.484   1.732   4.024
17163TIP3    H272905   4.448   1.687   4.167
17164TIP3   OH272906   4.338   0.322   4.036
17164TIP3    H172907   4.332   0.411   4.075
17164TIP3    H272908   4.430   0.302   4.061
17165TIP3   OH272909   5.362   0.397   5.285
17165TIP3    H172910   5.269   0.428   5.269
17165TIP3    H272911   5.392   0.393   5.192
17166TIP3   OH272912   5.223   0.775   4.682
17166TIP3    H172913   5.141   0.731   4.655
17166TIP3    H272914   5.271   0.707   4.734
17167TIP3   OH272915   4.163   1.367   3.942
17167TIP3    H172916   4.229   1.430   3.973
17167TIP3    H272917   4.215   1.321   3.873
17168TIP3   OH272918   3.997   0.635   3.857
17168TIP3    H172919   3.999   0.731   3.877
17168TIP3    H272920   3.908   0.618   3.825
17169TIP3   OH272921   5.327   1.706   4.850
17169TIP3    H172922   5.322   1.771   4.778
17169TIP3    H272923   5.424   1.706   4.868
17170TIP3   OH272924   4.055   0.129   4.736
17170TIP3    H172925   4.061   0.119   4.638
17170TIP3    H272926   4.040   0.037   4.758
17171TIP3   OH272927   3.974   1.505   4.345
17171TIP3    H172928   3.889   1.550   4.340
17171TIP3    H272929   4.022   1.552   4.275
17172TIP3   OH272930   4.356   1.659   5.631
17172TIP3    H172931   4.434   1.618   5.672
17172TIP3    H272932   4.364   1.635   5.538
17173TIP3   OH272933   4.776   1.613   3.774
17173TIP3    H172934   4.707   1.548   3.797
17173TIP3    H272935   4.848   1.554   3.749
17174TIP3   OH272936   5.014   1.504   5.507
17174TIP3    H172937   4.983   1.415   5.530
17174TIP3    H272938   5.094   1.509   5.560
17175TIP3   OH272939   5.232   1.588   3.793
17175TIP3    H172940   5.262   1.510   3.843
17175TIP3    H272941   5.308   1.610   3.738
17176TIP3   OH272942   4.321   1.182   3.775
17176TIP3    H172943   4.335   1.106   3.833
17176TIP3    H272944   4.396   1.170   3.713
17177TIP3   OH272945   4.560   1.140   5.513
17177TIP3    H172946   4.528   1.183   5.430
17177TIP3    H272947   4.567   1.049   5.486
17178TIP3   OH272948   4.864   1.293   3.752
17178TIP3    H172949   4.837   1.301   3.845
17178TIP3    H272950   4.845   1.197   3.738
17179TIP3   OH272951   5.128   1.134   5.254
17179TIP3    H172952   5.207   1.191   5.242
17179TIP3    H272953   5.057   1.200   5.254
17180TIP3   OH272954   3.981   0.871   5.512
17180TIP3    H172955   4.016   0.783   5.496
17180TIP3    H272956   3.947   0.874   5.601
17181TIP3   OH272957   4.441   0.984   4.018
17181TIP3    H172958   4.391   0.930   4.080
17181TIP3    H272959   4.471   0.916   3.952
17182TIP3   OH272960   4.367   0.764   5.247
17182TIP3    H172961   4.308   0.838   5.270
17182TIP3    H272962   4.409   0.800   5.167
17183TIP3   OH272963   4.549   0.806   3.837
17183TIP3    H172964   4.534   0.797   3.741
17183TIP3    H272965   4.646   0.811   3.844
17184TIP3   OH272966   4.876   1.020   5.588
17184TIP3    H172967   4.971   1.026   5.563
17184TIP3    H272968   4.874   0.937   5.633
17185TIP3   OH272969   5.482   1.038   3.778
17185TIP3    H172970   5.463   1.000   3.691
17185TIP3    H272971   5.491   1.134   3.760
17186TIP3   OH272972   4.406   0.502   5.353
17186TIP3    H172973   4.419   0.431   5.288
17186TIP3    H272974   4.404   0.583   5.297
17187TIP3   OH272975   4.449   0.341   5.103
17187TIP3    H172976   4.500   0.390   5.035
17187TIP3    H272977   4.359   0.332   5.063
17188TIP3   OH272978   4.603   0.890   5.133
17188TIP3    H172979   4.678   0.873   5.075
17188TIP3    H272980   4.566   0.973   5.098
17189TIP3   OH272981   5.040   0.669   5.634
17189TIP3    H172982   5.060   0.575   5.620
17189TIP3    H272983   5.127   0.710   5.624
17190TIP3   OH272984   5.174   0.945   5.442
17190TIP3    H172985   5.153   1.017   5.380
17190TIP3    H272986   5.271   0.940   5.427
17191TIP3   OH272987   4.254   0.625   5.547
17191TIP3    H172988   4.178   0.568   5.527
17191TIP3    H272989   4.319   0.591   5.482
17192TIP3   OH272990   4.513   0.102   5.175
17192TIP3    H172991   4.508   0.196   5.145
17192TIP3    H272992   4.455   0.062   5.109
17193TIP3   OH272993   4.653   0.515   5.504
17193TIP3    H172994   4.625   0.488   5.594
17193TIP3    H272995   4.573   0.495   5.452
17194TIP3   OH272996   4.927   0.431   5.414
17194TIP3    H172997   4.830   0.434   5.427
17194TIP3    H272998   4.956   0.370   5.485
17195TIP3   OH272999   5.076   0.310   5.613
17195TIP3    H173000   5.080   0.211   5.609
17195TIP3    H273001   5.058   0.323   5.705
17196TIP3   OH273002   4.066   0.421   5.522
17196TIP3    H173003   4.089   0.350   5.459
17196TIP3    H273004   4.053   0.368   5.602
17197TIP3   OH273005   4.551   7.322   5.423
17197TIP3    H173006   4.618   7.254   5.418
17197TIP3    H273007   4.535   7.344   5.328
17198TIP3   OH273008   4.585   0.190   5.620
17198TIP3    H173009   4.569   0.138   5.540
17198TIP3    H273010   4.526   0.266   5.613
17199TIP3   OH273011   4.532   1.876   3.945
17199TIP3    H173012   4.629   1.885   3.952
17199TIP3    H273013   4.517   1.936   3.871
17200TIP3   OH273014   3.887   1.333   3.892
17200TIP3    H173015   3.984   1.343   3.910
17200TIP3    H273016   3.892   1.269   3.817
17201TIP3   OH273017   3.765   1.872   4.388
17201TIP3    H173018   3.693   1.823   4.343
17201TIP3    H273019   3.793   1.807   4.455
17202TIP3   OH273020   3.848   1.685   4.576
17202TIP3    H173021   3.812   1.598   4.597
17202TIP3    H273022   3.870   1.719   4.665
17203TIP3   OH273023   5.602   1.765   4.869
17203TIP3    H173024   5.605   1.781   4.965
17203TIP3    H273025   5.672   1.824   4.839
17204TIP3   OH273026   5.561   1.724   5.161
17204TIP3    H173027   5.511   1.647   5.126
17204TIP3    H273028   5.610   1.680   5.232
17205TIP3   OH273029   5.404   1.302   5.626
17205TIP3    H173030   5.321   1.289   5.674
17205TIP3    H273031   5.444   1.375   5.678
17206TIP3   OH273032   5.535   1.130   4.174
17206TIP3    H173033   5.622   1.169   4.193
17206TIP3    H273034   5.533   1.058   4.241
17207TIP3   OH273035   5.571   0.938   4.363
17207TIP3    H173036   5.496   0.888   4.402
17207TIP3    H273037   5.631   0.951   4.439
17208TIP3   OH273038   5.547   1.206   4.861
17208TIP3    H173039   5.628   1.169   4.823
17208TIP3    H273040   5.561   1.302   4.844
17209TIP3   OH273041   5.402   1.498   5.087
17209TIP3    H173042   5.333   1.532   5.147
17209TIP3    H273043   5.348   1.457   5.017
17210TIP3   OH273044   5.601   0.920   4.002
17210TIP3    H173045   5.544   0.954   3.929
17210TIP3    H273046   5.591   0.991   4.068
17211TIP3   OH273047   5.439   0.643   3.853
17211TIP3    H173048   5.446   0.709   3.783
17211TIP3    H273049   5.420   0.561   3.804
17212TIP3   OH273050   5.353   0.785   4.420
17212TIP3    H173051   5.338   0.689   4.416
17212TIP3    H273052   5.320   0.806   4.509
17213TIP3   OH273053   3.853   0.993   4.826
17213TIP3    H173054   3.871   0.985   4.730
17213TIP3    H273055   3.943   0.976   4.861
17214TIP3   OH273056   5.438   0.983   5.391
17214TIP3    H173057   5.500   0.907   5.401
17214TIP3    H273058   5.500   1.059   5.386
17215TIP3   OH273059   5.592   0.772   5.450
17215TIP3    H173060   5.502   0.733   5.438
17215TIP3    H273061   5.645   0.691   5.445
17216TIP3   OH273062   5.363   0.391   3.768
17216TIP3    H173063   5.422   0.346   3.832
17216TIP3    H273064   5.277   0.347   3.782
17217TIP3   OH273065   5.317   0.544   4.261
17217TIP3    H173066   5.349   0.453   4.277
17217TIP3    H273067   5.400   0.585   4.231
17218TIP3   OH273068   5.383   0.600   4.809
17218TIP3    H173069   5.480   0.621   4.808
17218TIP3    H273070   5.365   0.611   4.904
17219TIP3   OH273071   5.389   0.672   5.084
17219TIP3    H173072   5.303   0.700   5.122
17219TIP3    H273073   5.434   0.757   5.065
17220TIP3   OH273074   3.818   0.521   5.436
17220TIP3    H173075   3.910   0.498   5.457
17220TIP3    H273076   3.770   0.442   5.469
17221TIP3   OH273077   5.621   0.073   5.621
17221TIP3    H173078   5.646   0.006   5.555
17221TIP3    H273079   5.621   0.158   5.572
17222TIP3   OH273080   5.386   0.275   4.271
17222TIP3    H173081   5.407   0.228   4.354
17222TIP3    H273082   5.328   0.210   4.224
17223TIP3   OH273083   3.932   0.358   4.722
17223TIP3    H173084   3.976   0.273   4.749
17223TIP3    H273085   3.990   0.423   4.764
17224TIP3   OH273086   3.764   0.652   4.829
17224TIP3    H173087   3.820   0.627   4.753
17224TIP3    H273088   3.810   0.733   4.857
17225TIP3   OH273089   5.572   0.282   5.455
17225TIP3    H173090   5.479   0.311   5.449
17225TIP3    H273091   5.576   0.229   5.374
17226TIP3   OH273092   5.571   0.276   3.926
17226TIP3    H173093   5.609   0.203   3.872
17226TIP3    H273094   5.642   0.341   3.929
17227TIP3   OH273095   3.801   0.276   4.240
17227TIP3    H173096   3.707   0.294   4.222
17227TIP3    H273097   3.843   0.324   4.166
17228TIP3   OH273098   5.273   1.776   4.434
17228TIP3    H173099   5.341   1.744   4.371
17228TIP3    H273100   5.328   1.823   4.498
17229TIP3   OH273101   3.796   0.152   5.068
17229TIP3    H173102   3.728   0.128   5.133
17229TIP3    H273103   3.747   0.212   5.008
17230TIP3   OH273104   4.308   1.565   5.111
17230TIP3    H173105   4.276   1.652   5.081
17230TIP3    H273106   4.401   1.572   5.080
17231TIP3   OH273107   4.742   1.702   5.406
17231TIP3    H173108   4.760   1.669   5.496
17231TIP3    H273109   4.829   1.736   5.377
17232TIP3   OH273110   4.968   1.830   5.339
17232TIP3    H173111   5.041   1.776   5.305
17232TIP3    H273112   5.012   1.880   5.408
17233TIP3   OH273113   5.473   0.098   5.232
17233TIP3    H173114   5.387   0.127   5.196
17233TIP3    H273115   5.487   0.012   5.188
17234TIP3   OH273116   4.051   1.887   5.109
17234TIP3    H173117   3.977   1.937   5.070
17234TIP3    H273118   4.020   1.870   5.198
17235TIP3   OH273119   4.299   1.845   5.017
17235TIP3    H173120   4.209   1.860   5.056
17235TIP3    H273121   4.293   1.904   4.940
17236TIP3   OH273122   4.775   1.840   4.930
17236TIP3    H173123   4.717   1.891   4.871
17236TIP3    H273124   4.779   1.898   5.011
17237TIP3   OH273125   4.997   1.717   5.036
17237TIP3    H173126   4.911   1.745   5.001
17237TIP3    H273127   5.046   1.800   5.029
17238TIP3   OH273128   5.251   1.876   5.059
17238TIP3    H173129   5.256   1.972   5.038
17238TIP3    H273130   5.279   1.837   4.974
17239TIP3   OH273131   3.998   1.753   4.805
17239TIP3    H173132   3.989   1.706   4.891
17239TIP3    H273133   4.079   1.715   4.766
17240TIP3   OH273134   4.205   1.624   4.670
17240TIP3    H173135   4.189   1.531   4.693
17240TIP3    H273136   4.291   1.639   4.715
17241TIP3   OH273137   4.466   1.673   4.757
17241TIP3    H173138   4.481   1.580   4.731
17241TIP3    H273139   4.470   1.667   4.854
17242TIP3   OH273140   4.799   0.244   4.670
17242TIP3    H173141   4.740   0.172   4.698
17242TIP3    H273142   4.867   0.195   4.620
17243TIP3   OH273143   5.325   0.045   4.681
17243TIP3    H173144   5.387   0.100   4.628
17243TIP3    H273145   5.238   0.079   4.657
17244TIP3   OH273146   5.494   0.170   4.505
17244TIP3    H173147   5.557   0.111   4.464
17244TIP3    H273148   5.544   0.254   4.514
17245TIP3   OH273149   4.044   0.103   4.458
17245TIP3    H173150   3.968   0.080   4.404
17245TIP3    H273151   4.092   0.019   4.461
17246TIP3   OH273152   3.927   0.076   4.029
17246TIP3    H173153   3.969   0.141   3.972
17246TIP3    H273154   3.864   0.130   4.077
17247TIP3   OH273155   4.501   0.086   4.434
17247TIP3    H173156   4.586   0.132   4.430
17247TIP3    H273157   4.491   0.070   4.528
17248TIP3   OH273158   5.040   0.131   4.613
17248TIP3    H173159   5.053   0.127   4.518
17248TIP3    H273160   5.031   0.034   4.626
17249TIP3   OH273161   5.194   0.102   4.169
17249TIP3    H173162   5.118   0.158   4.147
17249TIP3    H273163   5.153   0.015   4.184
17250TIP3   OH273164   3.916   1.670   4.131
17250TIP3    H173165   3.850   1.669   4.059
17250TIP3    H273166   3.916   1.766   4.148
17251TIP3   OH273167   4.105   0.264   3.880
17251TIP3    H173168   4.162   0.207   3.827
17251TIP3    H273169   4.168   0.301   3.944
17252TIP3   OH273170   4.602   0.294   4.125
17252TIP3    H173171   4.638   0.237   4.195
17252TIP3    H273172   4.618   0.381   4.167
17253TIP3   OH273173   4.803   1.801   3.964
17253TIP3    H173174   4.895   1.824   3.942
17253TIP3    H273175   4.781   1.749   3.884
17254TIP3   OH273176   5.474   1.752   4.236
17254TIP3    H173177   5.454   1.674   4.179
17254TIP3    H273178   5.463   1.825   4.172
17255TIP3   OH273179   4.029   0.150   5.385
17255TIP3    H173180   3.993   0.080   5.440
17255TIP3    H273181   4.117   0.154   5.430
17256TIP3   OH273182   4.211   0.111   5.552
17256TIP3    H173183   4.305   0.092   5.539
17256TIP3    H273184   4.193   0.029   5.601
17257TIP3   OH273185   4.095   1.769   3.825
17257TIP3    H173186   4.069   1.795   3.915
17257TIP3    H273187   4.174   1.713   3.841
17258TIP3   OH273188   5.070   7.362   5.568
17258TIP3    H173189   5.071   7.307   5.650
17258TIP3    H273190   5.159   7.336   5.540
17259TIP3   OH273191   5.398   1.626   5.440
17259TIP3    H173192   5.317   1.613   5.387
17259TIP3    H273193   5.391   1.719   5.463
17260TIP3   OH273194   6.842   1.012   4.442
17260TIP3    H173195   6.842   1.111   4.439
17260TIP3    H273196   6.769   0.990   4.381
17261TIP3   OH273197   6.728   0.939   4.792
17261TIP3    H173198   6.726   0.875   4.864
17261TIP3    H273199   6.695   0.888   4.716
17262TIP3   OH273200   5.963   0.907   4.947
17262TIP3    H173201   5.971   0.838   5.016
17262TIP3    H273202   6.038   0.964   4.969
17263TIP3   OH273203   7.098   1.232   4.621
17263TIP3    H173204   7.056   1.161   4.670
17263TIP3    H273205   7.099   1.304   4.687
17264TIP3   OH273206   6.055   1.352   4.796
17264TIP3    H173207   6.024   1.265   4.765
17264TIP3    H273208   6.151   1.334   4.802
17265TIP3   OH273209   5.719   0.707   4.346
17265TIP3    H173210   5.675   0.794   4.340
17265TIP3    H273211   5.663   0.653   4.289
17266TIP3   OH273212   5.791   0.932   4.561
17266TIP3    H173213   5.818   0.849   4.606
17266TIP3    H273214   5.860   0.941   4.494
17267TIP3   OH273215   6.809   1.750   4.643
17267TIP3    H173216   6.873   1.680   4.615
17267TIP3    H273217   6.785   1.717   4.730
17268TIP3   OH273218   6.566   1.179   4.839
17268TIP3    H173219   6.599   1.117   4.773
17268TIP3    H273220   6.647   1.195   4.891
17269TIP3   OH273221   6.883   0.627   4.871
17269TIP3    H173222   6.898   0.530   4.870
17269TIP3    H273223   6.873   0.642   4.775
17270TIP3   OH273224   6.194   0.437   4.592
17270TIP3    H173225   6.204   0.520   4.542
17270TIP3    H273226   6.153   0.379   4.524
17271TIP3   OH273227   6.968   0.447   4.431
17271TIP3    H173228   7.033   0.413   4.498
17271TIP3    H273229   7.027   0.499   4.375
17272TIP3   OH273230   5.855   0.676   4.666
17272TIP3    H173231   5.922   0.622   4.711
17272TIP3    H273232   5.866   0.645   4.574
17273TIP3   OH273233   6.371   0.832   4.597
17273TIP3    H173234   6.439   0.774   4.637
17273TIP3    H273235   6.320   0.766   4.547
17274TIP3   OH273236   6.085   0.331   4.994
17274TIP3    H173237   6.053   0.384   4.919
17274TIP3    H273238   6.015   0.348   5.062
17275TIP3   OH273239   6.811   1.271   4.350
17275TIP3    H173240   6.786   1.245   4.261
17275TIP3    H273241   6.782   1.365   4.356
17276TIP3   OH273242   6.335   1.089   5.020
17276TIP3    H173243   6.265   1.154   5.042
17276TIP3    H273244   6.406   1.149   4.991
17277TIP3   OH273245   7.118   0.370   4.638
17277TIP3    H173246   7.119   0.292   4.694
17277TIP3    H273247   7.194   0.419   4.678
17278TIP3   OH273248   6.040   0.516   4.797
17278TIP3    H173249   6.105   0.580   4.831
17278TIP3    H273250   6.092   0.471   4.725
17279TIP3   OH273251   6.181   1.290   5.103
17279TIP3    H173252   6.176   1.381   5.068
17279TIP3    H273253   6.092   1.282   5.146
17280TIP3   OH273254   5.788   1.251   4.181
17280TIP3    H173255   5.763   1.285   4.093
17280TIP3    H273256   5.796   1.334   4.232
17281TIP3   OH273257   7.132   1.412   4.866
17281TIP3    H173258   7.035   1.430   4.871
17281TIP3    H273259   7.165   1.498   4.835
17282TIP3   OH273260   7.159   0.262   4.970
17282TIP3    H173261   7.091   0.330   4.979
17282TIP3    H273262   7.238   0.308   4.940
17283TIP3   OH273263   6.476   0.059   4.725
17283TIP3    H173264   6.474  -0.037   4.741
17283TIP3    H273265   6.397   0.086   4.775
17284TIP3   OH273266   6.967   1.589   4.518
17284TIP3    H173267   7.016   1.521   4.467
17284TIP3    H273268   7.012   1.670   4.482
17285TIP3   OH273269   7.095   1.388   4.368
17285TIP3    H173270   7.070   1.317   4.307
17285TIP3    H273271   7.101   1.337   4.451
17286TIP3   OH273272   7.232   1.262   5.229
17286TIP3    H173273   7.260   1.193   5.166
17286TIP3    H273274   7.272   1.339   5.184
17287TIP3   OH273275   6.707   0.936   4.192
17287TIP3    H173276   6.638   0.995   4.157
17287TIP3    H273277   6.778   0.947   4.127
17288TIP3   OH273278   6.715   0.795   3.894
17288TIP3    H173279   6.787   0.793   3.959
17288TIP3    H273280   6.746   0.723   3.837
17289TIP3   OH273281   7.049   0.959   4.282
17289TIP3    H173282   6.977   0.985   4.344
17289TIP3    H273283   7.097   0.895   4.339
17290TIP3   OH273284   7.047   0.776   5.195
17290TIP3    H173285   7.042   0.856   5.250
17290TIP3    H273286   6.983   0.804   5.126
17291TIP3   OH273287   6.214   1.025   4.477
17291TIP3    H173288   6.182   0.986   4.392
17291TIP3    H273289   6.275   0.956   4.510
17292TIP3   OH273290   6.345   1.363   4.745
17292TIP3    H173291   6.345   1.311   4.664
17292TIP3    H273292   6.424   1.328   4.791
17293TIP3   OH273293   6.246   0.899   4.843
17293TIP3    H173294   6.301   0.909   4.763
17293TIP3    H273295   6.285   0.966   4.904
17294TIP3   OH273296   6.882   1.458   4.912
17294TIP3    H173297   6.861   1.520   4.983
17294TIP3    H273298   6.863   1.371   4.955
17295TIP3   OH273299   6.342   1.343   5.313
17295TIP3    H173300   6.301   1.416   5.363
17295TIP3    H273301   6.274   1.323   5.244
17296TIP3   OH273302   6.939   0.877   4.053
17296TIP3    H173303   6.995   0.899   4.132
17296TIP3    H273304   6.979   0.930   3.981
17297TIP3   OH273305   6.036   0.958   5.230
17297TIP3    H173306   6.041   1.025   5.301
17297TIP3    H273307   5.943   0.968   5.205
17298TIP3   OH273308   6.710   1.551   4.398
17298TIP3    H173309   6.754   1.581   4.479
17298TIP3    H273310   6.655   1.626   4.375
17299TIP3   OH273311   6.167   1.546   5.388
17299TIP3    H173312   6.161   1.536   5.291
17299TIP3    H273313   6.075   1.533   5.416
17300TIP3   OH273314   6.109   0.926   4.240
17300TIP3    H173315   6.082   1.005   4.188
17300TIP3    H273316   6.045   0.860   4.215
17301TIP3   OH273317   5.720   1.170   5.128
17301TIP3    H173318   5.674   1.162   5.042
17301TIP3    H273319   5.728   1.076   5.150
17302TIP3   OH273320   5.695   1.444   4.805
17302TIP3    H173321   5.791   1.432   4.804
17302TIP3    H273322   5.687   1.526   4.857
17303TIP3   OH273323   6.614   1.469   5.257
17303TIP3    H173324   6.623   1.550   5.313
17303TIP3    H273325   6.530   1.432   5.289
17304TIP3   OH273326   6.663   1.842   4.241
17304TIP3    H173327   6.650   1.834   4.145
17304TIP3    H273328   6.661   1.939   4.256
17305TIP3   OH273329   6.021   1.732   4.423
17305TIP3    H173330   6.038   1.690   4.510
17305TIP3    H273331   5.938   1.687   4.400
17306TIP3   OH273332   6.967   1.764   3.937
17306TIP3    H173333   7.010   1.687   3.893
17306TIP3    H273334   6.968   1.737   4.031
17307TIP3   OH273335   6.932   1.755   4.217
17307TIP3    H173336   6.836   1.764   4.234
17307TIP3    H273337   6.955   1.681   4.275
17308TIP3   OH273338   7.189   0.682   5.419
17308TIP3    H173339   7.180   0.712   5.329
17308TIP3    H273340   7.238   0.596   5.410
17309TIP3   OH273341   5.947   1.301   5.221
17309TIP3    H173342   5.970   1.265   5.310
17309TIP3    H273343   5.860   1.261   5.201
17310TIP3   OH273344   6.214   0.145   4.821
17310TIP3    H173345   6.125   0.139   4.781
17310TIP3    H273346   6.203   0.231   4.865
17311TIP3   OH273347   6.678   0.119   5.160
17311TIP3    H173348   6.721   0.078   5.235
17311TIP3    H273349   6.583   0.108   5.177
17312TIP3   OH273350   7.001   0.493   5.242
17312TIP3    H173351   6.952   0.483   5.326
17312TIP3    H273352   6.996   0.588   5.223
17313TIP3   OH273353   7.089   0.973   3.834
17313TIP3    H173354   7.082   0.957   3.737
17313TIP3    H273355   7.166   1.030   3.836
17314TIP3   OH273356   6.646   0.373   3.886
17314TIP3    H173357   6.612   0.366   3.977
17314TIP3    H273358   6.613   0.287   3.854
17315TIP3   OH273359   6.227   0.647   4.944
17315TIP3    H173360   6.152   0.645   5.007
17315TIP3    H273361   6.222   0.737   4.906
17316TIP3   OH273362   6.222   0.658   4.429
17316TIP3    H173363   6.128   0.634   4.416
17316TIP3    H273364   6.260   0.629   4.344
17317TIP3   OH273365   6.777   0.710   4.307
17317TIP3    H173366   6.735   0.791   4.269
17317TIP3    H273367   6.845   0.692   4.240
17318TIP3   OH273368   6.682   0.728   5.451
17318TIP3    H173369   6.629   0.650   5.481
17318TIP3    H273370   6.766   0.718   5.497
17319TIP3   OH273371   6.875   0.659   4.593
17319TIP3    H173372   6.851   0.713   4.516
17319TIP3    H273373   6.887   0.574   4.547
17320TIP3   OH273374   5.988   0.672   5.111
17320TIP3    H173375   5.998   0.711   5.200
17320TIP3    H273376   5.943   0.588   5.132
17321TIP3   OH273377   6.325   0.413   3.798
17321TIP3    H173378   6.279   0.369   3.871
17321TIP3    H273379   6.255   0.452   3.745
17322TIP3   OH273380   5.655   0.385   4.508
17322TIP3    H173381   5.723   0.382   4.578
17322TIP3    H273382   5.700   0.346   4.431
17323TIP3   OH273383   5.781   0.456   4.047
17323TIP3    H173384   5.832   0.514   3.988
17323TIP3    H273385   5.711   0.518   4.077
17324TIP3   OH273386   6.796   0.815   5.045
17324TIP3    H173387   6.836   0.745   4.988
17324TIP3    H273388   6.750   0.762   5.113
17325TIP3   OH273389   6.478   0.413   4.528
17325TIP3    H173390   6.385   0.413   4.560
17325TIP3    H273391   6.529   0.397   4.610
17326TIP3   OH273392   5.959   0.569   4.416
17326TIP3    H173393   5.870   0.583   4.377
17326TIP3    H273394   5.989   0.486   4.375
17327TIP3   OH273395   6.323   0.573   4.179
17327TIP3    H173396   6.419   0.583   4.195
17327TIP3    H273397   6.299   0.642   4.114
17328TIP3   OH273398   6.911   0.337   4.855
17328TIP3    H173399   6.843   0.343   4.924
17328TIP3    H273400   6.863   0.310   4.775
17329TIP3   OH273401   6.194   0.691   3.938
17329TIP3    H173402   6.140   0.653   3.866
17329TIP3    H273403   6.276   0.711   3.891
17330TIP3   OH273404   7.232   1.908   5.490
17330TIP3    H173405   7.263   1.939   5.403
17330TIP3    H273406   7.306   1.933   5.547
17331TIP3   OH273407   6.007   1.147   5.443
17331TIP3    H173408   6.078   1.174   5.505
17331TIP3    H273409   5.929   1.160   5.501
17332TIP3   OH273410   6.606   0.688   4.719
17332TIP3    H173411   6.667   0.634   4.666
17332TIP3    H273412   6.591   0.634   4.797
17333TIP3   OH273413   6.106   0.307   4.363
17333TIP3    H173414   6.075   0.215   4.365
17333TIP3    H273415   6.184   0.298   4.307
17334TIP3   OH273416   6.471   0.527   4.959
17334TIP3    H173417   6.387   0.575   4.970
17334TIP3    H273418   6.525   0.558   5.034
17335TIP3   OH273419   6.529   1.144   4.130
17335TIP3    H173420   6.449   1.097   4.097
17335TIP3    H273421   6.506   1.156   4.225
17336TIP3   OH273422   7.216   1.066   5.010
17336TIP3    H173423   7.288   1.079   4.945
17336TIP3    H273424   7.139   1.066   4.949
17337TIP3   OH273425   6.915   0.428   3.948
17337TIP3    H173426   6.819   0.439   3.932
17337TIP3    H273427   6.942   0.514   3.985
17338TIP3   OH273428   6.678   1.169   5.253
17338TIP3    H173429   6.645   1.128   5.333
17338TIP3    H273430   6.656   1.262   5.265
17339TIP3   OH273431   6.985   0.619   4.108
17339TIP3    H173432   7.072   0.605   4.151
17339TIP3    H273433   6.995   0.703   4.059
17340TIP3   OH273434   6.040   1.084   4.710
17340TIP3    H173435   6.108   1.075   4.640
17340TIP3    H273436   6.046   0.998   4.756
17341TIP3   OH273437   6.736   1.291   4.033
17341TIP3    H173438   6.704   1.376   4.070
17341TIP3    H273439   6.664   1.229   4.056
17342TIP3   OH273440   5.738   0.925   5.237
17342TIP3    H173441   5.757   0.879   5.320
17342TIP3    H273442   5.676   0.863   5.194
17343TIP3   OH273443   6.440   0.876   5.455
17343TIP3    H173444   6.408   0.850   5.367
17343TIP3    H273445   6.534   0.851   5.451
17344TIP3   OH273446   6.909   1.414   5.248
17344TIP3    H173447   6.816   1.430   5.226
17344TIP3    H273448   6.906   1.442   5.342
17345TIP3   OH273449   7.020   0.994   4.839
17345TIP3    H173450   6.926   0.971   4.825
17345TIP3    H273451   7.067   0.920   4.797
17346TIP3   OH273452   6.277   1.429   4.449
17346TIP3    H173453   6.327   1.510   4.428
17346TIP3    H273454   6.189   1.452   4.416
17347TIP3   OH273455   5.854   0.913   3.906
17347TIP3    H173456   5.912   0.979   3.947
17347TIP3    H273457   5.765   0.944   3.931
17348TIP3   OH273458   6.418   1.196   4.400
17348TIP3    H173459   6.387   1.288   4.410
17348TIP3    H273460   6.347   1.146   4.445
17349TIP3   OH273461   6.464   1.614   5.042
17349TIP3    H173462   6.510   1.694   5.013
17349TIP3    H273463   6.525   1.579   5.109
17350TIP3   OH273464   6.286   1.694   4.353
17350TIP3    H173465   6.190   1.709   4.366
17350TIP3    H273466   6.323   1.778   4.387
17351TIP3   OH273467   6.817   1.214   5.002
17351TIP3    H173468   6.784   1.195   5.093
17351TIP3    H273469   6.880   1.142   4.986
17352TIP3   OH273470   7.047   1.319   3.911
17352TIP3    H173471   7.080   1.275   3.993
17352TIP3    H273472   6.952   1.302   3.920
17353TIP3   OH273473   7.097   1.670   5.252
17353TIP3    H173474   7.026   1.623   5.204
17353TIP3    H273475   7.119   1.741   5.188
17354TIP3   OH273476   5.903   0.394   5.193
17354TIP3    H173477   5.812   0.429   5.188
17354TIP3    H273478   5.891   0.309   5.237
17355TIP3   OH273479   7.128   1.180   4.134
17355TIP3    H173480   7.105   1.103   4.191
17355TIP3    H273481   7.221   1.192   4.157
17356TIP3   OH273482   5.865   1.575   5.034
17356TIP3    H173483   5.896   1.483   5.035
17356TIP3    H273484   5.891   1.605   5.122
17357TIP3   OH273485   6.463   1.428   3.762
17357TIP3    H173486   6.473   1.352   3.703
17357TIP3    H273487   6.418   1.385   3.838
17358TIP3   OH273488   6.340   1.381   4.007
17358TIP3    H173489   6.367   1.330   4.084
17358TIP3    H273490   6.349   1.474   4.039
17359TIP3   OH273491   5.994   1.106   4.056
17359TIP3    H173492   5.923   1.145   4.109
17359TIP3    H273493   6.045   1.184   4.026
17360TIP3   OH273494   6.774   0.374   5.088
17360TIP3    H173495   6.851   0.378   5.147
17360TIP3    H273496   6.740   0.284   5.104
17361TIP3   OH273497   6.859   0.330   4.197
17361TIP3    H173498   6.875   0.378   4.113
17361TIP3    H273499   6.910   0.382   4.261
17362TIP3   OH273500   6.620   1.547   4.077
17362TIP3    H173501   6.538   1.601   4.084
17362TIP3    H273502   6.674   1.602   4.018
17363TIP3   OH273503   6.576   0.504   4.279
17363TIP3    H173504   6.652   0.565   4.282
17363TIP3    H273505   6.549   0.495   4.373
17364TIP3   OH273506   6.634   0.611   5.193
17364TIP3    H173507   6.642   0.666   5.273
17364TIP3    H273508   6.698   0.539   5.204
17365TIP3   OH273509   6.658   0.213   4.370
17365TIP3    H173510   6.628   0.280   4.433
17365TIP3    H273511   6.727   0.266   4.322
17366TIP3   OH273512   6.360   1.650   4.080
17366TIP3    H173513   6.370   1.732   4.025
17366TIP3    H273514   6.333   1.687   4.167
17367TIP3   OH273515   6.223   0.322   4.036
17367TIP3    H173516   6.218   0.411   4.075
17367TIP3    H273517   6.316   0.302   4.061
17368TIP3   OH273518   7.234   0.373   5.264
17368TIP3    H173519   7.152   0.427   5.265
17368TIP3    H273520   7.275   0.398   5.181
17369TIP3   OH273521   7.108   0.775   4.687
17369TIP3    H173522   7.026   0.731   4.656
17369TIP3    H273523   7.152   0.704   4.734
17370TIP3   OH273524   6.048   1.367   3.941
17370TIP3    H173525   6.115   1.430   3.973
17370TIP3    H273526   6.100   1.321   3.873
17371TIP3   OH273527   5.882   0.636   3.857
17371TIP3    H173528   5.884   0.732   3.877
17371TIP3    H273529   5.793   0.618   3.825
17372TIP3   OH273530   7.224   1.701   4.847
17372TIP3    H173531   7.204   1.770   4.781
17372TIP3    H273532   7.317   1.714   4.866
17373TIP3   OH273533   5.940   0.129   4.736
17373TIP3    H173534   5.947   0.119   4.639
17373TIP3    H273535   5.926   0.036   4.759
17374TIP3   OH273536   5.861   1.505   4.345
17374TIP3    H173537   5.775   1.549   4.341
17374TIP3    H273538   5.907   1.552   4.275
17375TIP3   OH273539   5.788   1.765   5.468
17375TIP3    H173540   5.840   1.750   5.549
17375TIP3    H273541   5.738   1.683   5.456
17376TIP3   OH273542   6.249   1.663   5.632
17376TIP3    H173543   6.323   1.612   5.668
17376TIP3    H273544   6.244   1.630   5.540
17377TIP3   OH273545   6.663   1.613   3.774
17377TIP3    H173546   6.593   1.548   3.797
17377TIP3    H273547   6.735   1.553   3.750
17378TIP3   OH273548   6.912   1.493   5.501
17378TIP3    H173549   6.866   1.415   5.540
17378TIP3    H273550   6.976   1.513   5.571
17379TIP3   OH273551   7.115   1.590   3.798
17379TIP3    H173552   7.146   1.510   3.843
17379TIP3    H273553   7.190   1.608   3.738
17380TIP3   OH273554   5.774   1.143   5.569
17380TIP3    H173555   5.786   1.055   5.533
17380TIP3    H273556   5.696   1.175   5.519
17381TIP3   OH273557   6.206   1.182   3.774
17381TIP3    H173558   6.220   1.106   3.833
17381TIP3    H273559   6.281   1.170   3.713
17382TIP3   OH273560   6.448   1.147   5.511
17382TIP3    H173561   6.410   1.178   5.426
17382TIP3    H273562   6.450   1.050   5.501
17383TIP3   OH273563   6.749   1.293   3.752
17383TIP3    H173564   6.721   1.302   3.845
17383TIP3    H273565   6.730   1.197   3.738
17384TIP3   OH273566   7.009   1.130   5.248
17384TIP3    H173567   7.089   1.188   5.245
17384TIP3    H273568   6.942   1.199   5.256
17385TIP3   OH273569   5.867   0.872   5.512
17385TIP3    H173570   5.903   0.783   5.495
17385TIP3    H273571   5.832   0.863   5.600
17386TIP3   OH273572   6.328   0.984   4.018
17386TIP3    H173573   6.276   0.930   4.080
17386TIP3    H273574   6.357   0.917   3.952
17387TIP3   OH273575   6.253   0.763   5.247
17387TIP3    H173576   6.194   0.836   5.273
17387TIP3    H273577   6.293   0.800   5.166
17388TIP3   OH273578   6.434   0.806   3.837
17388TIP3    H173579   6.419   0.797   3.741
17388TIP3    H273580   6.532   0.811   3.844
17389TIP3   OH273581   6.759   1.021   5.579
17389TIP3    H173582   6.856   1.020   5.572
17389TIP3    H273583   6.744   0.948   5.641
17390TIP3   OH273584   6.296   0.502   5.356
17390TIP3    H173585   6.304   0.432   5.289
17390TIP3    H273586   6.288   0.582   5.300
17391TIP3   OH273587   6.335   0.344   5.106
17391TIP3    H173588   6.386   0.389   5.036
17391TIP3    H273589   6.245   0.332   5.067
17392TIP3   OH273590   6.488   0.889   5.132
17392TIP3    H173591   6.563   0.873   5.075
17392TIP3    H273592   6.453   0.973   5.098
17393TIP3   OH273593   7.065   0.951   5.441
17393TIP3    H173594   7.035   1.019   5.378
17393TIP3    H273595   7.157   0.936   5.420
17394TIP3   OH273596   6.135   0.631   5.544
17394TIP3    H173597   6.063   0.567   5.527
17394TIP3    H273598   6.204   0.591   5.488
17395TIP3   OH273599   6.399   0.103   5.172
17395TIP3    H173600   6.393   0.197   5.143
17395TIP3    H273601   6.340   0.062   5.109
17396TIP3   OH273602   6.539   0.517   5.506
17396TIP3    H173603   6.507   0.494   5.593
17396TIP3    H273604   6.459   0.499   5.451
17397TIP3   OH273605   6.808   0.434   5.422
17397TIP3    H173606   6.712   0.433   5.432
17397TIP3    H273607   6.841   0.368   5.485
17398TIP3   OH273608   5.947   0.423   5.514
17398TIP3    H173609   5.975   0.348   5.457
17398TIP3    H273610   5.950   0.378   5.602
17399TIP3   OH273611   6.441   7.331   5.421
17399TIP3    H173612   6.498   7.254   5.425
17399TIP3    H273613   6.419   7.343   5.327
17400TIP3   OH273614   6.418   1.876   3.945
17400TIP3    H173615   6.515   1.884   3.952
17400TIP3    H273616   6.405   1.935   3.870
17401TIP3   OH273617   5.773   1.333   3.892
17401TIP3    H173618   5.870   1.343   3.910
17401TIP3    H273619   5.778   1.269   3.817
17402TIP3   OH273620   5.652   1.872   4.387
17402TIP3    H173621   5.579   1.823   4.343
17402TIP3    H273622   5.678   1.807   4.456
17403TIP3   OH273623   5.733   1.686   4.577
17403TIP3    H173624   5.698   1.598   4.597
17403TIP3    H273625   5.758   1.718   4.665
17404TIP3   OH273626   7.282   1.494   5.092
17404TIP3    H173627   7.215   1.533   5.150
17404TIP3    H273628   7.227   1.454   5.022
17405TIP3   OH273629   7.188   0.792   4.428
17405TIP3    H173630   7.214   0.699   4.432
17405TIP3    H273631   7.200   0.817   4.522
17406TIP3   OH273632   5.739   0.993   4.826
17406TIP3    H173633   5.757   0.985   4.730
17406TIP3    H273634   5.829   0.976   4.861
17407TIP3   OH273635   7.245   0.388   3.768
17407TIP3    H173636   7.305   0.347   3.830
17407TIP3    H273637   7.159   0.345   3.786
17408TIP3   OH273638   7.202   0.536   4.249
17408TIP3    H173639   7.232   0.453   4.290
17408TIP3    H273640   7.287   0.572   4.220
17409TIP3   OH273641  -0.055   0.515   4.807
17409TIP3    H173642   0.035   0.548   4.796
17409TIP3    H273643  -0.075   0.576   4.880
17410TIP3   OH273644   7.278   0.675   5.112
17410TIP3    H173645   7.184   0.702   5.122
17410TIP3    H273646   7.314   0.744   5.054
17411TIP3   OH273647   5.702   0.522   5.439
17411TIP3    H173648   5.795   0.499   5.458
17411TIP3    H273649   5.656   0.441   5.468
17412TIP3   OH273650   7.182   0.239   4.336
17412TIP3    H173651   7.275   0.226   4.358
17412TIP3    H273652   7.184   0.198   4.246
17413TIP3   OH273653   5.818   0.358   4.722
17413TIP3    H173654   5.861   0.274   4.750
17413TIP3    H273655   5.875   0.423   4.764
17414TIP3   OH273656   5.649   0.652   4.830
17414TIP3    H173657   5.706   0.627   4.754
17414TIP3    H273658   5.696   0.733   4.856
17415TIP3   OH273659   5.687   0.276   4.240
17415TIP3    H173660   5.593   0.294   4.222
17415TIP3    H273661   5.728   0.324   4.166
17416TIP3   OH273662   7.141   1.755   4.442
17416TIP3    H173663   7.208   1.723   4.380
17416TIP3    H273664   7.193   1.814   4.499
17417TIP3   OH273665   5.681   0.152   5.068
17417TIP3    H173666   5.614   0.126   5.133
17417TIP3    H273667   5.633   0.211   5.009
17418TIP3   OH273668   5.902   1.465   5.483
17418TIP3    H173669   5.818   1.485   5.441
17418TIP3    H273670   5.877   1.458   5.575
17419TIP3   OH273671   6.194   1.564   5.110
17419TIP3    H173672   6.161   1.651   5.084
17419TIP3    H273673   6.287   1.573   5.080
17420TIP3   OH273674   6.628   1.706   5.403
17420TIP3    H173675   6.644   1.672   5.494
17420TIP3    H273676   6.717   1.737   5.378
17421TIP3   OH273677   6.859   1.834   5.330
17421TIP3    H173678   6.931   1.774   5.309
17421TIP3    H273679   6.896   1.877   5.409
17422TIP3   OH273680   5.937   1.888   5.109
17422TIP3    H173681   5.862   1.938   5.072
17422TIP3    H273682   5.906   1.869   5.199
17423TIP3   OH273683   6.184   1.846   5.017
17423TIP3    H173684   6.095   1.861   5.056
17423TIP3    H273685   6.178   1.905   4.940
17424TIP3   OH273686   6.651   1.835   4.935
17424TIP3    H173687   6.608   1.893   4.869
17424TIP3    H273688   6.667   1.899   5.007
17425TIP3   OH273689   6.883   1.717   5.037
17425TIP3    H173690   6.798   1.745   5.001
17425TIP3    H273691   6.929   1.803   5.030
17426TIP3   OH273692   7.128   1.875   5.058
17426TIP3    H173693   7.127   1.970   5.036
17426TIP3    H273694   7.162   1.838   4.975
17427TIP3   OH273695   5.883   1.753   4.804
17427TIP3    H173696   5.874   1.707   4.891
17427TIP3    H273697   5.964   1.715   4.766
17428TIP3   OH273698   6.090   1.624   4.669
17428TIP3    H173699   6.074   1.531   4.693
17428TIP3    H273700   6.176   1.640   4.715
17429TIP3   OH273701   6.348   1.673   4.757
17429TIP3    H173702   6.366   1.581   4.731
17429TIP3    H273703   6.355   1.667   4.854
17430TIP3   OH273704   6.682   0.244   4.669
17430TIP3    H173705   6.625   0.172   4.697
17430TIP3    H273706   6.752   0.195   4.621
17431TIP3   OH273707   7.210   0.047   4.685
17431TIP3    H173708   7.270   0.101   4.634
17431TIP3    H273709   7.123   0.079   4.661
17432TIP3   OH273710   5.930   0.103   4.458
17432TIP3    H173711   5.853   0.080   4.404
17432TIP3    H273712   5.978   0.019   4.461
17433TIP3   OH273713   5.812   0.076   4.029
17433TIP3    H173714   5.855   0.141   3.972
17433TIP3    H273715   5.749   0.130   4.077
17434TIP3   OH273716   6.387   0.086   4.433
17434TIP3    H173717   6.472   0.132   4.430
17434TIP3    H273718   6.377   0.070   4.528
17435TIP3   OH273719   6.921   0.130   4.612
17435TIP3    H173720   6.940   0.129   4.518
17435TIP3    H273721   6.915   0.032   4.625
17436TIP3   OH273722   7.075   0.092   4.153
17436TIP3    H173723   7.002   0.156   4.148
17436TIP3    H273724   7.034   0.010   4.182
17437TIP3   OH273725   5.803   1.670   4.130
17437TIP3    H173726   5.735   1.667   4.060
17437TIP3    H273727   5.799   1.765   4.149
17438TIP3   OH273728   5.990   0.263   3.881
17438TIP3    H173729   6.047   0.208   3.825
17438TIP3    H273730   6.055   0.301   3.943
17439TIP3   OH273731   6.488   0.294   4.124
17439TIP3    H173732   6.524   0.237   4.195
17439TIP3    H273733   6.503   0.381   4.167
17440TIP3   OH273734   6.688   1.801   3.964
17440TIP3    H173735   6.780   1.824   3.942
17440TIP3    H273736   6.667   1.749   3.884
17441TIP3   OH273737   5.921   0.155   5.404
17441TIP3    H173738   5.887   0.076   5.447
17441TIP3    H273739   6.014   0.149   5.434
17442TIP3   OH273740   6.140   0.097   5.534
17442TIP3    H173741   6.226   0.054   5.534
17442TIP3    H273742   6.096   0.036   5.599
17443TIP3   OH273743   5.983   1.773   3.826
17443TIP3    H173744   5.955   1.791   3.916
17443TIP3    H273745   6.058   1.712   3.838
17444TIP3   OH273746   6.961   7.370   5.571
17444TIP3    H173747   6.960   7.311   5.650
17444TIP3    H273748   7.047   7.341   5.540
17445TIP3   OH273749   7.264   1.615   5.455
17445TIP3    H173750   7.193   1.607   5.387
17445TIP3    H273751   7.260   1.713   5.465
17446TIP3   OH273752   1.186   2.900   4.441
17446TIP3    H173753   1.184   2.998   4.439
17446TIP3    H273754   1.112   2.876   4.381
17447TIP3   OH273755   1.070   2.825   4.792
17447TIP3    H173756   1.069   2.760   4.863
17447TIP3    H273757   1.036   2.775   4.715
17448TIP3   OH273758   0.310   2.794   4.947
17448TIP3    H173759   0.319   2.722   5.014
17448TIP3    H273760   0.384   2.851   4.970
17449TIP3   OH273761   1.439   3.120   4.620
17449TIP3    H173762   1.397   3.049   4.669
17449TIP3    H273763   1.442   3.191   4.687
17450TIP3   OH273764   0.398   3.236   4.799
17450TIP3    H173765   0.367   3.150   4.764
17450TIP3    H273766   0.494   3.219   4.801
17451TIP3   OH273767   0.089   2.593   4.304
17451TIP3    H173768   0.045   2.673   4.342
17451TIP3    H273769   0.010   2.539   4.304
17452TIP3   OH273770   0.131   2.809   4.555
17452TIP3    H173771   0.160   2.733   4.608
17452TIP3    H273772   0.205   2.826   4.495
17453TIP3   OH273773   1.151   3.636   4.644
17453TIP3    H173774   1.216   3.567   4.615
17453TIP3    H273775   1.130   3.602   4.731
17454TIP3   OH273776   0.908   3.065   4.839
17454TIP3    H173777   0.942   3.003   4.773
17454TIP3    H273778   0.989   3.081   4.891
17455TIP3   OH273779   1.768   2.233   4.912
17455TIP3    H173780   1.786   2.291   4.989
17455TIP3    H273781   1.825   2.273   4.845
17456TIP3   OH273782   1.225   2.512   4.871
17456TIP3    H173783   1.241   2.416   4.871
17456TIP3    H273784   1.215   2.526   4.774
17457TIP3   OH273785   0.537   2.321   4.593
17457TIP3    H173786   0.548   2.404   4.544
17457TIP3    H273787   0.499   2.263   4.525
17458TIP3   OH273788   1.310   2.328   4.429
17458TIP3    H173789   1.375   2.297   4.496
17458TIP3    H273790   1.366   2.387   4.376
17459TIP3   OH273791   0.195   2.554   4.660
17459TIP3    H173792   0.268   2.506   4.706
17459TIP3    H273793   0.214   2.526   4.569
17460TIP3   OH273794   0.714   2.717   4.597
17460TIP3    H173795   0.781   2.659   4.637
17460TIP3    H273796   0.663   2.651   4.546
17461TIP3   OH273797   1.812   2.372   5.139
17461TIP3    H173798   1.751   2.448   5.127
17461TIP3    H273799   1.815   2.364   5.235
17462TIP3   OH273800   0.428   2.210   4.995
17462TIP3    H173801   0.402   2.269   4.922
17462TIP3    H273802   0.363   2.235   5.064
17463TIP3   OH273803   1.156   3.159   4.350
17463TIP3    H173804   1.130   3.132   4.261
17463TIP3    H273805   1.125   3.252   4.355
17464TIP3   OH273806   0.681   2.975   5.021
17464TIP3    H173807   0.610   3.040   5.040
17464TIP3    H273808   0.751   3.034   4.989
17465TIP3   OH273809   1.491   2.264   4.628
17465TIP3    H173810   1.469   2.187   4.681
17465TIP3    H273811   1.558   2.307   4.684
17466TIP3   OH273812   0.380   2.398   4.795
17466TIP3    H173813   0.444   2.463   4.832
17466TIP3    H273814   0.437   2.355   4.727
17467TIP3   OH273815   0.522   3.173   5.102
17467TIP3    H173816   0.519   3.265   5.068
17467TIP3    H273817   0.433   3.168   5.143
17468TIP3   OH273818   0.128   3.140   4.176
17468TIP3    H173819   0.108   3.174   4.087
17468TIP3    H273820   0.140   3.221   4.230
17469TIP3   OH273821   1.492   3.303   4.857
17469TIP3    H173822   1.396   3.315   4.869
17469TIP3    H273823   1.521   3.394   4.838
17470TIP3   OH273824   1.524   2.133   4.995
17470TIP3    H173825   1.451   2.196   4.987
17470TIP3    H273826   1.596   2.174   4.943
17471TIP3   OH273827   0.822   1.946   4.738
17471TIP3    H173828   0.810   1.849   4.735
17471TIP3    H273829   0.736   1.977   4.774
17472TIP3   OH273830   1.318   3.482   4.515
17472TIP3    H173831   1.361   3.410   4.465
17472TIP3    H273832   1.362   3.561   4.477
17473TIP3   OH273833   1.440   3.275   4.368
17473TIP3    H173834   1.409   3.205   4.307
17473TIP3    H273835   1.443   3.226   4.452
17474TIP3   OH273836   1.607   3.133   5.216
17474TIP3    H173837   1.615   3.069   5.142
17474TIP3    H273838   1.619   3.219   5.173
17475TIP3   OH273839   1.051   2.823   4.193
17475TIP3    H173840   0.981   2.881   4.157
17475TIP3    H273841   1.122   2.833   4.127
17476TIP3   OH273842   1.059   2.680   3.894
17476TIP3    H173843   1.129   2.678   3.961
17476TIP3    H273844   1.090   2.608   3.837
17477TIP3   OH273845   1.793   2.767   5.021
17477TIP3    H173846   1.723   2.837   5.025
17477TIP3    H273847   1.837   2.788   4.937
17478TIP3   OH273848   1.397   2.844   4.285
17478TIP3    H173849   1.322   2.868   4.345
17478TIP3    H273850   1.443   2.777   4.337
17479TIP3   OH273851   1.389   2.661   5.196
17479TIP3    H173852   1.388   2.742   5.250
17479TIP3    H273853   1.324   2.690   5.128
17480TIP3   OH273854   0.559   2.912   4.476
17480TIP3    H173855   0.524   2.871   4.393
17480TIP3    H273856   0.619   2.841   4.510
17481TIP3   OH273857   0.689   3.248   4.745
17481TIP3    H173858   0.689   3.196   4.664
17481TIP3    H273859   0.767   3.213   4.791
17482TIP3   OH273860   0.593   2.785   4.844
17482TIP3    H173861   0.646   2.794   4.763
17482TIP3    H273862   0.629   2.855   4.903
17483TIP3   OH273863   1.232   3.343   4.915
17483TIP3    H173864   1.201   3.407   4.980
17483TIP3    H273865   1.205   3.257   4.956
17484TIP3   OH273866   0.680   3.226   5.317
17484TIP3    H173867   0.644   3.307   5.359
17484TIP3    H273868   0.619   3.210   5.242
17485TIP3   OH273869   1.283   2.765   4.052
17485TIP3    H173870   1.339   2.782   4.132
17485TIP3    H273871   1.329   2.814   3.980
17486TIP3   OH273872   0.379   2.846   5.236
17486TIP3    H173873   0.374   2.923   5.295
17486TIP3    H273874   0.287   2.851   5.202
17487TIP3   OH273875   1.055   3.437   4.399
17487TIP3    H173876   1.098   3.467   4.480
17487TIP3    H273877   0.999   3.512   4.375
17488TIP3   OH273878   0.509   3.427   5.387
17488TIP3    H173879   0.502   3.423   5.290
17488TIP3    H273880   0.414   3.420   5.412
17489TIP3   OH273881   1.656   1.938   4.042
17489TIP3    H173882   1.561   1.949   4.066
17489TIP3    H273883   1.676   2.022   3.998
17490TIP3   OH273884   0.455   2.812   4.240
17490TIP3    H173885   0.426   2.890   4.188
17490TIP3    H273886   0.390   2.746   4.216
17491TIP3   OH273887   1.767   3.373   3.877
17491TIP3    H173888   1.784   3.467   3.894
17491TIP3    H273889   1.859   3.342   3.877
17492TIP3   OH273890   0.123   3.042   5.104
17492TIP3    H173891   0.047   3.056   5.044
17492TIP3    H273892   0.084   2.963   5.148
17493TIP3   OH273893   0.069   3.353   4.778
17493TIP3    H173894   0.151   3.312   4.807
17493TIP3    H273895   0.040   3.399   4.858
17494TIP3   OH273896   1.866   3.398   5.373
17494TIP3    H173897   1.846   3.304   5.375
17494TIP3    H273898   1.779   3.427   5.413
17495TIP3   OH273899   0.958   3.355   5.259
17495TIP3    H173900   0.964   3.437   5.314
17495TIP3    H273901   0.872   3.317   5.285
17496TIP3   OH273902   1.003   3.728   4.240
17496TIP3    H173903   0.992   3.720   4.144
17496TIP3    H273904   1.003   3.824   4.256
17497TIP3   OH273905   0.365   3.616   4.421
17497TIP3    H173906   0.380   3.575   4.510
17497TIP3    H273907   0.282   3.573   4.398
17498TIP3   OH273908   1.308   3.649   3.939
17498TIP3    H173909   1.354   3.573   3.895
17498TIP3    H273910   1.312   3.623   4.033
17499TIP3   OH273911   1.278   3.642   4.216
17499TIP3    H173912   1.181   3.650   4.233
17499TIP3    H273913   1.301   3.568   4.274
17500TIP3   OH273914   1.581   2.547   5.421
17500TIP3    H173915   1.531   2.594   5.352
17500TIP3    H273916   1.575   2.455   5.392
17501TIP3   OH273917   0.294   3.192   5.229
17501TIP3    H173918   0.308   3.152   5.316
17501TIP3    H273919   0.209   3.152   5.200
17502TIP3   OH273920   0.560   2.036   4.812
17502TIP3    H173921   0.468   2.026   4.779
17502TIP3    H273922   0.549   2.115   4.868
17503TIP3   OH273923   1.018   2.005   5.158
17503TIP3    H173924   1.060   1.962   5.235
17503TIP3    H273925   0.923   1.990   5.171
17504TIP3   OH273926   1.353   2.387   5.245
17504TIP3    H173927   1.294   2.366   5.322
17504TIP3    H273928   1.334   2.479   5.221
17505TIP3   OH273929   1.428   2.868   3.833
17505TIP3    H173930   1.426   2.848   3.737
17505TIP3    H273931   1.514   2.912   3.838
17506TIP3   OH273932   0.988   2.260   3.884
17506TIP3    H173933   0.956   2.254   3.976
17506TIP3    H273934   0.957   2.172   3.854
17507TIP3   OH273935   0.566   2.532   4.940
17507TIP3    H173936   0.496   2.529   5.006
17507TIP3    H273937   0.566   2.624   4.906
17508TIP3   OH273938   0.567   2.544   4.429
17508TIP3    H173939   0.474   2.519   4.415
17508TIP3    H273940   0.605   2.514   4.344
17509TIP3   OH273941   1.117   2.594   4.307
17509TIP3    H173942   1.078   2.676   4.270
17509TIP3    H273943   1.186   2.577   4.240
17510TIP3   OH273944   1.028   2.600   5.440
17510TIP3    H173945   0.964   2.548   5.488
17510TIP3    H273946   1.101   2.607   5.502
17511TIP3   OH273947   1.221   2.543   4.591
17511TIP3    H173948   1.193   2.599   4.517
17511TIP3    H273949   1.230   2.458   4.544
17512TIP3   OH273950   0.331   2.558   5.112
17512TIP3    H173951   0.337   2.593   5.201
17512TIP3    H273952   0.286   2.474   5.128
17513TIP3   OH273953   0.669   2.297   3.796
17513TIP3    H173954   0.624   2.254   3.872
17513TIP3    H273955   0.598   2.340   3.747
17514TIP3   OH273956   0.035   2.300   4.490
17514TIP3    H173957   0.069   2.265   4.576
17514TIP3    H273958   0.049   2.224   4.433
17515TIP3   OH273959   0.123   2.354   4.042
17515TIP3    H173960   0.179   2.410   3.983
17515TIP3    H273961   0.050   2.410   4.066
17516TIP3   OH273962   1.140   2.703   5.045
17516TIP3    H173963   1.178   2.632   4.989
17516TIP3    H273964   1.097   2.653   5.116
17517TIP3   OH273965   0.821   2.299   4.530
17517TIP3    H173966   0.728   2.299   4.559
17517TIP3    H273967   0.869   2.282   4.613
17518TIP3   OH273968   0.303   2.453   4.416
17518TIP3    H173969   0.216   2.471   4.376
17518TIP3    H273970   0.327   2.368   4.376
17519TIP3   OH273971   0.666   2.458   4.179
17519TIP3    H173972   0.762   2.470   4.195
17519TIP3    H273973   0.641   2.527   4.115
17520TIP3   OH273974   1.262   2.223   4.853
17520TIP3    H173975   1.195   2.229   4.924
17520TIP3    H273976   1.210   2.197   4.776
17521TIP3   OH273977   0.538   2.576   3.937
17521TIP3    H173978   0.484   2.539   3.865
17521TIP3    H273979   0.620   2.597   3.890
17522TIP3   OH273980   1.579   3.791   5.488
17522TIP3    H173981   1.610   3.826   5.402
17522TIP3    H273982   1.653   3.814   5.548
17523TIP3   OH273983   0.354   3.022   5.449
17523TIP3    H173984   0.420   3.066   5.503
17523TIP3    H273985   0.271   3.048   5.496
17524TIP3   OH273986   0.948   2.573   4.720
17524TIP3    H173987   1.008   2.521   4.666
17524TIP3    H273988   0.933   2.518   4.798
17525TIP3   OH273989   0.449   2.190   4.362
17525TIP3    H173990   0.418   2.098   4.362
17525TIP3    H273991   0.529   2.182   4.308
17526TIP3   OH273992   0.815   2.409   4.957
17526TIP3    H173993   0.729   2.454   4.968
17526TIP3    H273994   0.865   2.440   5.033
17527TIP3   OH273995   0.872   3.030   4.130
17527TIP3    H173996   0.792   2.983   4.097
17527TIP3    H273997   0.849   3.042   4.225
17528TIP3   OH273998   1.593   2.949   5.010
17528TIP3    H173999   1.646   2.999   4.945
17528TIP3    H274000   1.506   2.954   4.966
17529TIP3   OH274001   1.255   2.311   3.948
17529TIP3    H174002   1.160   2.326   3.934
17529TIP3    H274003   1.289   2.396   3.983
17530TIP3   OH274004   1.021   3.055   5.251
17530TIP3    H174005   0.991   3.012   5.333
17530TIP3    H274006   0.995   3.146   5.265
17531TIP3   OH274007   1.329   2.503   4.110
17531TIP3    H174008   1.417   2.490   4.151
17531TIP3    H274009   1.339   2.585   4.059
17532TIP3   OH274010   0.383   2.969   4.709
17532TIP3    H174011   0.450   2.961   4.640
17532TIP3    H274012   0.392   2.885   4.757
17533TIP3   OH274013   1.081   3.176   4.033
17533TIP3    H174014   1.047   3.261   4.069
17533TIP3    H274015   1.008   3.115   4.055
17534TIP3   OH274016   0.077   2.808   5.239
17534TIP3    H174017   0.105   2.762   5.320
17534TIP3    H274018   0.022   2.743   5.192
17535TIP3   OH274019   1.250   3.299   5.252
17535TIP3    H174020   1.158   3.316   5.228
17535TIP3    H274021   1.249   3.324   5.345
17536TIP3   OH274022   1.819   2.516   4.088
17536TIP3    H174023   1.762   2.488   4.014
17536TIP3    H274024   1.826   2.611   4.063
17537TIP3   OH274025   1.823   3.098   5.366
17537TIP3    H174026   1.730   3.121   5.339
17537TIP3    H274027   1.866   3.104   5.281
17538TIP3   OH274028   1.644   3.400   4.127
17538TIP3    H174029   1.611   3.316   4.162
17538TIP3    H274030   1.680   3.378   4.040
17539TIP3   OH274031   1.369   2.881   4.838
17539TIP3    H174032   1.275   2.861   4.826
17539TIP3    H274033   1.411   2.805   4.795
17540TIP3   OH274034   0.619   3.315   4.450
17540TIP3    H174035   0.670   3.395   4.428
17540TIP3    H274036   0.531   3.338   4.417
17541TIP3   OH274037   0.192   2.799   3.909
17541TIP3    H174038   0.256   2.865   3.945
17541TIP3    H274039   0.106   2.834   3.936
17542TIP3   OH274040   0.761   3.082   4.399
17542TIP3    H174041   0.730   3.173   4.410
17542TIP3    H274042   0.690   3.032   4.444
17543TIP3   OH274043   0.807   3.500   5.040
17543TIP3    H174044   0.853   3.581   5.012
17543TIP3    H274045   0.869   3.466   5.107
17544TIP3   OH274046   0.629   3.580   4.353
17544TIP3    H174047   0.533   3.594   4.366
17544TIP3    H274048   0.666   3.664   4.387
17545TIP3   OH274049   1.161   3.100   5.003
17545TIP3    H174050   1.126   3.079   5.092
17545TIP3    H274051   1.223   3.028   4.986
17546TIP3   OH274052   1.393   3.207   3.912
17546TIP3    H174053   1.423   3.160   3.993
17546TIP3    H274054   1.298   3.189   3.920
17547TIP3   OH274055   1.440   3.558   5.251
17547TIP3    H174056   1.371   3.508   5.204
17547TIP3    H274057   1.459   3.628   5.186
17548TIP3   OH274058   1.839   3.642   3.938
17548TIP3    H174059   1.908   3.709   3.917
17548TIP3    H274060   1.768   3.703   3.966
17549TIP3   OH274061   0.245   2.286   5.190
17549TIP3    H174062   0.154   2.320   5.191
17549TIP3    H274063   0.236   2.198   5.232
17550TIP3   OH274064   1.470   3.070   4.136
17550TIP3    H174065   1.447   2.992   4.190
17550TIP3    H274066   1.566   3.075   4.154
17551TIP3   OH274067   0.225   3.466   5.029
17551TIP3    H174068   0.237   3.371   5.035
17551TIP3    H274069   0.233   3.490   5.122
17552TIP3   OH274070   0.806   3.314   3.762
17552TIP3    H174071   0.816   3.238   3.703
17552TIP3    H274072   0.762   3.271   3.838
17553TIP3   OH274073   0.683   3.267   4.007
17553TIP3    H174074   0.710   3.215   4.084
17553TIP3    H274075   0.692   3.359   4.039
17554TIP3   OH274076   0.332   2.991   4.055
17554TIP3    H174077   0.261   3.030   4.110
17554TIP3    H274078   0.385   3.069   4.027
17555TIP3   OH274079   1.120   2.261   5.088
17555TIP3    H174080   1.189   2.267   5.155
17555TIP3    H274081   1.082   2.173   5.105
17556TIP3   OH274082   1.194   2.217   4.196
17556TIP3    H174083   1.218   2.263   4.113
17556TIP3    H274084   1.252   2.261   4.259
17557TIP3   OH274085   0.964   3.433   4.077
17557TIP3    H174086   0.882   3.486   4.084
17557TIP3    H274087   1.017   3.488   4.018
17558TIP3   OH274088   0.918   2.392   4.278
17558TIP3    H174089   0.996   2.451   4.283
17558TIP3    H274090   0.891   2.380   4.371
17559TIP3   OH274091   1.002   2.098   4.366
17559TIP3    H174092   0.970   2.162   4.431
17559TIP3    H274093   1.072   2.152   4.322
17560TIP3   OH274094   0.704   3.536   4.079
17560TIP3    H174095   0.713   3.617   4.024
17560TIP3    H274096   0.676   3.573   4.166
17561TIP3   OH274097   0.569   2.208   4.037
17561TIP3    H174098   0.563   2.298   4.076
17561TIP3    H274099   0.660   2.184   4.064
17562TIP3   OH274100   1.591   2.279   5.281
17562TIP3    H174101   1.498   2.312   5.269
17562TIP3    H274102   1.621   2.280   5.189
17563TIP3   OH274103   1.452   2.660   4.682
17563TIP3    H174104   1.370   2.616   4.655
17563TIP3    H274105   1.500   2.592   4.734
17564TIP3   OH274106   0.390   3.254   3.941
17564TIP3    H174107   0.457   3.317   3.972
17564TIP3    H274108   0.443   3.206   3.874
17565TIP3   OH274109   0.221   2.519   3.855
17565TIP3    H174110   0.228   2.614   3.875
17565TIP3    H274111   0.133   2.502   3.821
17566TIP3   OH274112   1.558   3.586   4.848
17566TIP3    H174113   1.550   3.655   4.779
17566TIP3    H274114   1.654   3.592   4.867
17567TIP3   OH274115   0.310   1.996   4.727
17567TIP3    H174116   0.288   2.002   4.632
17567TIP3    H274117   0.263   1.916   4.755
17568TIP3   OH274118   0.205   3.391   4.347
17568TIP3    H174119   0.119   3.434   4.341
17568TIP3    H274120   0.252   3.437   4.276
17569TIP3   OH274121   0.155   3.659   5.472
17569TIP3    H174122   0.195   3.636   5.557
17569TIP3    H274123   0.101   3.578   5.456
17570TIP3   OH274124   0.588   3.543   5.633
17570TIP3    H174125   0.669   3.502   5.665
17570TIP3    H274126   0.589   3.523   5.538
17571TIP3   OH274127   1.005   3.499   3.774
17571TIP3    H174128   0.936   3.433   3.797
17571TIP3    H274129   1.077   3.439   3.749
17572TIP3   OH274130   1.461   3.473   3.793
17572TIP3    H174131   1.491   3.396   3.843
17572TIP3    H274132   1.537   3.496   3.738
17573TIP3   OH274133   0.116   3.033   5.571
17573TIP3    H174134   0.130   2.943   5.537
17573TIP3    H274135   0.042   3.064   5.516
17574TIP3   OH274136   0.550   3.068   3.774
17574TIP3    H174137   0.563   2.991   3.833
17574TIP3    H274138   0.625   3.056   3.713
17575TIP3   OH274139   1.093   3.178   3.752
17575TIP3    H174140   1.066   3.187   3.845
17575TIP3    H274141   1.074   3.083   3.738
17576TIP3   OH274142   1.356   3.018   5.249
17576TIP3    H174143   1.435   3.077   5.246
17576TIP3    H274144   1.286   3.084   5.257
17577TIP3   OH274145   0.208   2.755   5.510
17577TIP3    H174146   0.247   2.666   5.500
17577TIP3    H274147   0.182   2.756   5.604
17578TIP3   OH274148   0.670   2.869   4.018
17578TIP3    H174149   0.620   2.815   4.080
17578TIP3    H274150   0.700   2.802   3.952
17579TIP3   OH274151   0.596   2.654   5.247
17579TIP3    H174152   0.529   2.720   5.252
17579TIP3    H274153   0.642   2.681   5.166
17580TIP3   OH274154   0.777   2.692   3.838
17580TIP3    H174155   0.762   2.683   3.741
17580TIP3    H274156   0.875   2.697   3.844
17581TIP3   OH274157   1.104   2.909   5.582
17581TIP3    H174158   1.200   2.904   5.571
17581TIP3    H274159   1.080   2.831   5.635
17582TIP3   OH274160   1.711   2.923   3.778
17582TIP3    H174161   1.691   2.886   3.691
17582TIP3    H274162   1.719   3.020   3.760
17583TIP3   OH274163   0.830   2.768   5.126
17583TIP3    H174164   0.909   2.760   5.073
17583TIP3    H274165   0.797   2.856   5.102
17584TIP3   OH274166   1.270   2.549   5.629
17584TIP3    H174167   1.295   2.457   5.621
17584TIP3    H274168   1.356   2.595   5.626
17585TIP3   OH274169   1.406   2.828   5.441
17585TIP3    H174170   1.380   2.903   5.386
17585TIP3    H274171   1.502   2.831   5.424
17586TIP3   OH274172   0.471   2.523   5.528
17586TIP3    H174173   0.407   2.450   5.532
17586TIP3    H274174   0.550   2.480   5.492
17587TIP3   OH274175   1.157   2.314   5.416
17587TIP3    H174176   1.062   2.324   5.427
17587TIP3    H274177   1.182   2.250   5.485
17588TIP3   OH274178   1.313   2.181   5.610
17588TIP3    H174179   1.310   2.083   5.610
17588TIP3    H274180   1.289   2.206   5.701
17589TIP3   OH274181   0.299   2.306   5.522
17589TIP3    H174182   0.319   2.233   5.461
17589TIP3    H274183   0.295   2.259   5.609
17590TIP3   OH274184   0.761   3.762   3.945
17590TIP3    H174185   0.857   3.770   3.952
17590TIP3    H274186   0.746   3.822   3.871
17591TIP3   OH274187   0.120   3.219   3.894
17591TIP3    H174188   0.216   3.230   3.911
17591TIP3    H274189   0.124   3.155   3.820
17592TIP3   OH274190   7.338   3.774   4.373
17592TIP3    H174191   7.248   3.753   4.340
17592TIP3    H274192   7.347   3.710   4.447
17593TIP3   OH274193   0.079   3.575   4.572
17593TIP3    H174194   0.044   3.486   4.595
17593TIP3    H274195   0.105   3.603   4.662
17594TIP3   OH274196   1.830   3.651   4.869
17594TIP3    H174197   1.834   3.667   4.965
17594TIP3    H274198   1.901   3.709   4.839
17595TIP3   OH274199   1.790   3.611   5.162
17595TIP3    H174200   1.740   3.535   5.127
17595TIP3    H274201   1.838   3.566   5.233
17596TIP3   OH274202   1.764   3.016   4.174
17596TIP3    H174203   1.850   3.054   4.193
17596TIP3    H274204   1.762   2.943   4.240
17597TIP3   OH274205   1.800   2.823   4.363
17597TIP3    H174206   1.725   2.773   4.402
17597TIP3    H274207   1.859   2.836   4.439
17598TIP3   OH274208   1.778   3.092   4.865
17598TIP3    H174209   1.857   3.055   4.820
17598TIP3    H274210   1.789   3.187   4.844
17599TIP3   OH274211   1.631   3.383   5.089
17599TIP3    H174212   1.562   3.417   5.148
17599TIP3    H274213   1.577   3.343   5.017
17600TIP3   OH274214   1.830   2.805   4.002
17600TIP3    H174215   1.773   2.840   3.930
17600TIP3    H274216   1.820   2.877   4.068
17601TIP3   OH274217   1.667   2.528   3.853
17601TIP3    H174218   1.675   2.595   3.784
17601TIP3    H274219   1.649   2.446   3.804
17602TIP3   OH274220   1.582   2.670   4.420
17602TIP3    H174221   1.567   2.575   4.416
17602TIP3    H274222   1.549   2.692   4.509
17603TIP3   OH274223   0.084   2.878   4.818
17603TIP3    H174224   0.104   2.873   4.723
17603TIP3    H274225   0.172   2.867   4.860
17604TIP3   OH274226   1.668   2.866   5.379
17604TIP3    H174227   1.726   2.792   5.410
17604TIP3    H274228   1.724   2.944   5.392
17605TIP3   OH274229   1.821   2.656   5.449
17605TIP3    H174230   1.730   2.618   5.441
17605TIP3    H274231   1.873   2.574   5.447
17606TIP3   OH274232   1.592   2.276   3.767
17606TIP3    H174233   1.651   2.232   3.831
17606TIP3    H274234   1.506   2.234   3.782
17607TIP3   OH274235   1.546   2.428   4.261
17607TIP3    H174236   1.578   2.336   4.277
17607TIP3    H274237   1.629   2.469   4.231
17608TIP3   OH274238   1.612   2.483   4.810
17608TIP3    H174239   1.709   2.506   4.809
17608TIP3    H274240   1.594   2.497   4.904
17609TIP3   OH274241   1.617   2.554   5.086
17609TIP3    H174242   1.530   2.584   5.121
17609TIP3    H274243   1.661   2.640   5.066
17610TIP3   OH274244   0.067   2.396   5.461
17610TIP3    H174245   0.160   2.368   5.465
17610TIP3    H274246   0.013   2.315   5.468
17611TIP3   OH274247   1.853   1.961   5.623
17611TIP3    H174248   1.879   1.894   5.558
17611TIP3    H274249   1.855   2.043   5.570
17612TIP3   OH274250   1.616   2.157   4.270
17612TIP3    H174251   1.637   2.114   4.355
17612TIP3    H274252   1.556   2.093   4.226
17613TIP3   OH274253   0.168   2.233   4.721
17613TIP3    H174254   0.214   2.154   4.754
17613TIP3    H274255   0.218   2.304   4.765
17614TIP3   OH274256   0.050   2.613   4.866
17614TIP3    H174257   0.054   2.571   4.778
17614TIP3    H274258   0.057   2.705   4.838
17615TIP3   OH274259   1.800   2.168   5.458
17615TIP3    H174260   1.707   2.198   5.454
17615TIP3    H274261   1.802   2.116   5.377
17616TIP3   OH274262   1.797   2.161   3.926
17616TIP3    H174263   1.839   2.090   3.872
17616TIP3    H274264   1.868   2.227   3.931
17617TIP3   OH274265   0.076   2.159   4.194
17617TIP3    H174266  -0.019   2.178   4.206
17617TIP3    H274267   0.098   2.235   4.136
17618TIP3   OH274268   1.503   3.659   4.432
17618TIP3    H174269   1.571   3.629   4.370
17618TIP3    H274270   1.555   3.709   4.497
17619TIP3   OH274271   7.355   2.027   5.089
17619TIP3    H174272   7.276   2.004   5.140
17619TIP3    H274273   7.307   2.078   5.021
17620TIP3   OH274274   0.243   3.351   5.486
17620TIP3    H174275   0.159   3.371   5.443
17620TIP3    H274276   0.217   3.346   5.578
17621TIP3   OH274277   0.540   3.452   5.112
17621TIP3    H174278   0.501   3.536   5.083
17621TIP3    H274279   0.632   3.460   5.080
17622TIP3   OH274280   0.972   3.587   5.398
17622TIP3    H174281   0.987   3.561   5.492
17622TIP3    H274282   1.060   3.624   5.374
17623TIP3   OH274283   1.199   3.718   5.333
17623TIP3    H174284   1.274   3.660   5.308
17623TIP3    H274285   1.237   3.760   5.413
17624TIP3   OH274286   1.701   1.980   5.243
17624TIP3    H174287   1.618   2.011   5.202
17624TIP3    H274288   1.717   1.898   5.191
17625TIP3   OH274289   0.283   3.774   5.112
17625TIP3    H174290   0.208   3.823   5.073
17625TIP3    H274291   0.248   3.755   5.201
17626TIP3   OH274292   0.528   3.732   5.016
17626TIP3    H174293   0.439   3.745   5.055
17626TIP3    H274294   0.523   3.792   4.939
17627TIP3   OH274295   0.998   3.722   4.934
17627TIP3    H174296   0.952   3.778   4.869
17627TIP3    H274297   1.011   3.785   5.008
17628TIP3   OH274298   1.226   3.604   5.038
17628TIP3    H174299   1.141   3.632   4.998
17628TIP3    H274300   1.275   3.687   5.027
17629TIP3   OH274301   1.484   3.760   5.059
17629TIP3    H174302   1.480   3.856   5.036
17629TIP3    H274303   1.507   3.723   4.971
17630TIP3   OH274304   0.221   3.639   4.803
17630TIP3    H174305   0.221   3.594   4.891
17630TIP3    H274306   0.302   3.601   4.765
17631TIP3   OH274307   0.431   3.510   4.670
17631TIP3    H174308   0.415   3.416   4.694
17631TIP3    H274309   0.517   3.525   4.714
17632TIP3   OH274310   0.693   3.557   4.758
17632TIP3    H174311   0.710   3.465   4.731
17632TIP3    H274312   0.699   3.553   4.854
17633TIP3   OH274313   1.039   2.123   4.673
17633TIP3    H174314   0.971   2.059   4.699
17633TIP3    H274315   1.094   2.070   4.614
17634TIP3   OH274316   1.553   1.928   4.677
17634TIP3    H174317   1.614   1.987   4.627
17634TIP3    H274318   1.465   1.964   4.654
17635TIP3   OH274319   1.720   2.053   4.505
17635TIP3    H174320   1.789   1.995   4.464
17635TIP3    H274321   1.771   2.136   4.516
17636TIP3   OH274322   0.277   1.985   4.459
17636TIP3    H174323   0.200   1.965   4.403
17636TIP3    H274324   0.327   1.901   4.449
17637TIP3   OH274325   0.155   1.959   4.023
17637TIP3    H174326   0.206   2.026   3.975
17637TIP3    H274327   0.099   2.016   4.080
17638TIP3   OH274328   0.723   1.977   4.436
17638TIP3    H174329   0.813   2.014   4.427
17638TIP3    H274330   0.720   1.957   4.529
17639TIP3   OH274331   1.295   1.980   4.597
17639TIP3    H174332   1.290   1.991   4.501
17639TIP3    H274333   1.257   1.890   4.610
17640TIP3   OH274334   1.422   1.983   4.165
17640TIP3    H174335   1.347   2.042   4.150
17640TIP3    H274336   1.378   1.898   4.189
17641TIP3   OH274337   0.145   3.560   4.134
17641TIP3    H174338   0.085   3.557   4.058
17641TIP3    H274339   0.147   3.655   4.148
17642TIP3   OH274340   0.335   2.156   3.882
17642TIP3    H174341   0.388   2.095   3.827
17642TIP3    H274342   0.405   2.187   3.943
17643TIP3   OH274343   0.839   2.180   4.120
17643TIP3    H174344   0.864   2.122   4.193
17643TIP3    H274345   0.846   2.266   4.165
17644TIP3   OH274346   1.032   3.687   3.964
17644TIP3    H174347   1.124   3.710   3.942
17644TIP3    H274348   1.010   3.635   3.884
17645TIP3   OH274349   1.701   3.637   4.236
17645TIP3    H174350   1.683   3.559   4.179
17645TIP3    H274351   1.695   3.711   4.172
17646TIP3   OH274352   0.267   2.043   5.407
17646TIP3    H174353   0.230   1.958   5.439
17646TIP3    H274354   0.359   2.035   5.433
17647TIP3   OH274355   0.324   3.651   3.824
17647TIP3    H174356   0.299   3.679   3.913
17647TIP3    H274357   0.405   3.599   3.840
17648TIP3   OH274358   1.307   1.908   5.580
17648TIP3    H174359   1.318   1.861   5.665
17648TIP3    H274360   1.398   1.904   5.544
17649TIP3   OH274361   1.633   3.515   5.438
17649TIP3    H174362   1.547   3.496   5.396
17649TIP3    H274363   1.615   3.606   5.469
17650TIP3   OH274364   3.071   2.900   4.440
17650TIP3    H174365   3.069   2.998   4.439
17650TIP3    H274366   2.998   2.876   4.381
17651TIP3   OH274367   2.957   2.825   4.792
17651TIP3    H174368   2.955   2.760   4.863
17651TIP3    H274369   2.921   2.774   4.717
17652TIP3   OH274370   2.188   2.797   4.955
17652TIP3    H174371   2.203   2.721   5.015
17652TIP3    H274372   2.270   2.848   4.965
17653TIP3   OH274373   3.325   3.120   4.620
17653TIP3    H174374   3.284   3.048   4.669
17653TIP3    H274375   3.327   3.191   4.687
17654TIP3   OH274376   2.284   3.236   4.801
17654TIP3    H174377   2.254   3.151   4.763
17654TIP3    H274378   2.380   3.220   4.800
17655TIP3   OH274379   1.948   2.593   4.346
17655TIP3    H174380   1.904   2.680   4.340
17655TIP3    H274381   1.892   2.539   4.289
17656TIP3   OH274382   2.019   2.816   4.562
17656TIP3    H174383   2.047   2.733   4.606
17656TIP3    H274384   2.088   2.827   4.494
17657TIP3   OH274385   3.037   3.636   4.644
17657TIP3    H174386   3.102   3.567   4.615
17657TIP3    H274387   3.015   3.602   4.731
17658TIP3   OH274388   2.794   3.065   4.839
17658TIP3    H174389   2.828   3.002   4.773
17658TIP3    H274390   2.875   3.081   4.890
17659TIP3   OH274391   3.656   2.232   4.910
17659TIP3    H174392   3.671   2.289   4.988
17659TIP3    H274393   3.712   2.275   4.844
17660TIP3   OH274394   3.111   2.511   4.871
17660TIP3    H174395   3.128   2.415   4.872
17660TIP3    H274396   3.100   2.525   4.775
17661TIP3   OH274397   2.422   2.321   4.592
17661TIP3    H174398   2.433   2.404   4.542
17661TIP3    H274399   2.382   2.264   4.523
17662TIP3   OH274400   3.196   2.328   4.429
17662TIP3    H174401   3.261   2.297   4.496
17662TIP3    H274402   3.252   2.387   4.376
17663TIP3   OH274403   2.085   2.562   4.665
17663TIP3    H174404   2.151   2.507   4.710
17663TIP3    H274405   2.095   2.531   4.574
17664TIP3   OH274406   2.600   2.718   4.597
17664TIP3    H174407   2.667   2.659   4.637
17664TIP3    H274408   2.549   2.652   4.547
17665TIP3   OH274409   3.702   2.374   5.139
17665TIP3    H174410   3.636   2.446   5.128
17665TIP3    H274411   3.701   2.362   5.235
17666TIP3   OH274412   2.313   2.212   4.996
17666TIP3    H174413   2.285   2.268   4.921
17666TIP3    H274414   2.245   2.234   5.063
17667TIP3   OH274415   3.042   3.159   4.351
17667TIP3    H174416   3.016   3.132   4.262
17667TIP3    H274417   3.011   3.252   4.356
17668TIP3   OH274418   2.562   2.975   5.019
17668TIP3    H174419   2.493   3.041   5.042
17668TIP3    H274420   2.634   3.034   4.991
17669TIP3   OH274421   3.376   2.264   4.628
17669TIP3    H174422   3.355   2.186   4.681
17669TIP3    H274423   3.445   2.307   4.682
17670TIP3   OH274424   2.270   2.397   4.799
17670TIP3    H174425   2.333   2.465   4.830
17670TIP3    H274426   2.321   2.355   4.725
17671TIP3   OH274427   2.408   3.174   5.100
17671TIP3    H174428   2.407   3.267   5.069
17671TIP3    H274429   2.321   3.171   5.146
17672TIP3   OH274430   2.017   3.136   4.181
17672TIP3    H174431   1.992   3.170   4.093
17672TIP3    H274432   2.025   3.219   4.232
17673TIP3   OH274433   3.378   3.304   4.857
17673TIP3    H174434   3.281   3.315   4.869
17673TIP3    H274435   3.405   3.395   4.837
17674TIP3   OH274436   3.410   2.131   4.989
17674TIP3    H174437   3.337   2.194   4.991
17674TIP3    H274438   3.482   2.178   4.942
17675TIP3   OH274439   2.707   1.944   4.742
17675TIP3    H174440   2.692   1.848   4.735
17675TIP3    H274441   2.619   1.975   4.773
17676TIP3   OH274442   3.204   3.482   4.516
17676TIP3    H174443   3.247   3.410   4.465
17676TIP3    H274444   3.247   3.561   4.476
17677TIP3   OH274445   3.326   3.275   4.367
17677TIP3    H174446   3.294   3.205   4.309
17677TIP3    H274447   3.329   3.226   4.452
17678TIP3   OH274448   3.485   3.134   5.218
17678TIP3    H174449   3.501   3.069   5.146
17678TIP3    H274450   3.509   3.218   5.174
17679TIP3   OH274451   2.935   2.823   4.194
17679TIP3    H174452   2.867   2.881   4.157
17679TIP3    H274453   3.007   2.832   4.128
17680TIP3   OH274454   2.947   2.683   3.892
17680TIP3    H174455   3.014   2.677   3.962
17680TIP3    H274456   2.973   2.607   3.838
17681TIP3   OH274457   3.675   2.765   5.020
17681TIP3    H174458   3.610   2.838   5.026
17681TIP3    H274459   3.725   2.789   4.940
17682TIP3   OH274460   3.281   2.845   4.285
17682TIP3    H174461   3.207   2.869   4.345
17682TIP3    H274462   3.328   2.777   4.337
17683TIP3   OH274463   3.273   2.661   5.196
17683TIP3    H174464   3.275   2.741   5.251
17683TIP3    H274465   3.210   2.691   5.129
17684TIP3   OH274466   2.442   2.910   4.477
17684TIP3    H174467   2.410   2.871   4.392
17684TIP3    H274468   2.504   2.841   4.510
17685TIP3   OH274469   2.574   3.248   4.745
17685TIP3    H174470   2.574   3.196   4.664
17685TIP3    H274471   2.652   3.213   4.791
17686TIP3   OH274472   2.475   2.785   4.843
17686TIP3    H174473   2.530   2.794   4.763
17686TIP3    H274474   2.515   2.851   4.904
17687TIP3   OH274475   3.118   3.342   4.914
17687TIP3    H174476   3.088   3.406   4.980
17687TIP3    H274477   3.092   3.257   4.956
17688TIP3   OH274478   2.568   3.223   5.316
17688TIP3    H174479   2.533   3.302   5.363
17688TIP3    H274480   2.505   3.210   5.242
17689TIP3   OH274481   3.168   2.766   4.052
17689TIP3    H174482   3.223   2.782   4.133
17689TIP3    H274483   3.215   2.813   3.980
17690TIP3   OH274484   2.268   2.845   5.231
17690TIP3    H174485   2.275   2.909   5.304
17690TIP3    H274486   2.177   2.836   5.202
17691TIP3   OH274487   2.940   3.437   4.399
17691TIP3    H174488   2.983   3.467   4.480
17691TIP3    H274489   2.884   3.512   4.375
17692TIP3   OH274490   2.390   3.418   5.386
17692TIP3    H174491   2.391   3.424   5.289
17692TIP3    H274492   2.297   3.421   5.411
17693TIP3   OH274493   3.541   1.938   4.042
17693TIP3    H174494   3.447   1.949   4.066
17693TIP3    H274495   3.562   2.022   3.998
17694TIP3   OH274496   2.338   2.812   4.240
17694TIP3    H174497   2.311   2.891   4.188
17694TIP3    H274498   2.274   2.746   4.215
17695TIP3   OH274499   3.652   3.372   3.876
17695TIP3    H174500   3.669   3.467   3.894
17695TIP3    H274501   3.745   3.342   3.877
17696TIP3   OH274502   1.936   3.061   5.109
17696TIP3    H174503   1.891   3.054   5.022
17696TIP3    H274504   1.930   2.967   5.129
17697TIP3   OH274505   1.925   3.328   4.807
17697TIP3    H174506   2.021   3.319   4.802
17697TIP3    H274507   1.916   3.411   4.856
17698TIP3   OH274508   3.745   3.401   5.371
17698TIP3    H174509   3.738   3.304   5.373
17698TIP3    H274510   3.659   3.423   5.412
17699TIP3   OH274511   2.844   3.356   5.259
17699TIP3    H174512   2.849   3.438   5.314
17699TIP3    H274513   2.759   3.318   5.289
17700TIP3   OH274514   2.888   3.728   4.240
17700TIP3    H174515   2.877   3.720   4.144
17700TIP3    H274516   2.888   3.824   4.256
17701TIP3   OH274517   2.252   3.616   4.423
17701TIP3    H174518   2.266   3.574   4.510
17701TIP3    H274519   2.167   3.575   4.399
17702TIP3   OH274520   3.193   3.651   3.939
17702TIP3    H174521   3.239   3.575   3.895
17702TIP3    H274522   3.197   3.623   4.033
17703TIP3   OH274523   3.163   3.643   4.216
17703TIP3    H174524   3.067   3.650   4.233
17703TIP3    H274525   3.187   3.569   4.274
17704TIP3   OH274526   3.461   2.545   5.421
17704TIP3    H174527   3.415   2.591   5.349
17704TIP3    H274528   3.463   2.453   5.389
17705TIP3   OH274529   2.179   3.182   5.218
17705TIP3    H174530   2.200   3.161   5.312
17705TIP3    H274531   2.085   3.169   5.198
17706TIP3   OH274532   2.445   2.035   4.817
17706TIP3    H174533   2.355   2.022   4.781
17706TIP3    H274534   2.432   2.118   4.866
17707TIP3   OH274535   2.907   2.001   5.154
17707TIP3    H174536   2.951   1.961   5.231
17707TIP3    H274537   2.811   1.989   5.171
17708TIP3   OH274538   3.239   2.387   5.244
17708TIP3    H174539   3.180   2.364   5.320
17708TIP3    H274540   3.219   2.479   5.221
17709TIP3   OH274541   3.316   2.858   3.836
17709TIP3    H174542   3.313   2.830   3.740
17709TIP3    H274543   3.409   2.888   3.847
17710TIP3   OH274544   2.873   2.260   3.884
17710TIP3    H174545   2.842   2.254   3.976
17710TIP3    H274546   2.843   2.172   3.854
17711TIP3   OH274547   2.455   2.532   4.943
17711TIP3    H174548   2.382   2.531   5.007
17711TIP3    H274549   2.451   2.623   4.906
17712TIP3   OH274550   2.451   2.543   4.429
17712TIP3    H174551   2.357   2.519   4.416
17712TIP3    H274552   2.489   2.514   4.344
17713TIP3   OH274553   3.003   2.594   4.307
17713TIP3    H174554   2.964   2.676   4.270
17713TIP3    H274555   3.072   2.577   4.240
17714TIP3   OH274556   2.910   2.615   5.449
17714TIP3    H174557   2.857   2.538   5.480
17714TIP3    H274558   2.993   2.602   5.499
17715TIP3   OH274559   3.107   2.543   4.591
17715TIP3    H174560   3.078   2.599   4.517
17715TIP3    H274561   3.116   2.458   4.544
17716TIP3   OH274562   2.214   2.559   5.112
17716TIP3    H174563   2.227   2.594   5.201
17716TIP3    H274564   2.175   2.472   5.131
17717TIP3   OH274565   2.554   2.297   3.796
17717TIP3    H174566   2.509   2.254   3.872
17717TIP3    H274567   2.483   2.340   3.747
17718TIP3   OH274568   1.883   2.268   4.510
17718TIP3    H174569   1.952   2.264   4.580
17718TIP3    H274570   1.928   2.230   4.432
17719TIP3   OH274571   2.010   2.340   4.044
17719TIP3    H174572   2.061   2.401   3.988
17719TIP3    H274573   1.941   2.402   4.076
17720TIP3   OH274574   3.026   2.701   5.046
17720TIP3    H174575   3.064   2.633   4.988
17720TIP3    H274576   2.980   2.648   5.113
17721TIP3   OH274577   2.706   2.299   4.530
17721TIP3    H174578   2.613   2.299   4.559
17721TIP3    H274579   2.755   2.282   4.612
17722TIP3   OH274580   2.187   2.454   4.417
17722TIP3    H174581   2.099   2.470   4.377
17722TIP3    H274582   2.216   2.371   4.376
17723TIP3   OH274583   2.552   2.459   4.179
17723TIP3    H174584   2.647   2.470   4.195
17723TIP3    H274585   2.528   2.527   4.114
17724TIP3   OH274586   3.147   2.225   4.851
17724TIP3    H174587   3.081   2.226   4.925
17724TIP3    H274588   3.095   2.195   4.776
17725TIP3   OH274589   2.422   2.576   3.938
17725TIP3    H174590   2.369   2.538   3.866
17725TIP3    H274591   2.504   2.597   3.891
17726TIP3   OH274592   3.469   3.785   5.489
17726TIP3    H174593   3.493   3.823   5.402
17726TIP3    H274594   3.542   3.822   5.542
17727TIP3   OH274595   2.226   3.035   5.442
17727TIP3    H174596   2.305   3.058   5.495
17727TIP3    H274597   2.158   3.045   5.509
17728TIP3   OH274598   2.835   2.575   4.719
17728TIP3    H174599   2.895   2.521   4.666
17728TIP3    H274600   2.820   2.520   4.797
17729TIP3   OH274601   2.336   2.189   4.363
17729TIP3    H174602   2.305   2.097   4.362
17729TIP3    H274603   2.415   2.182   4.308
17730TIP3   OH274604   2.699   2.407   4.961
17730TIP3    H174605   2.616   2.459   4.969
17730TIP3    H274606   2.754   2.443   5.032
17731TIP3   OH274607   2.758   3.030   4.130
17731TIP3    H174608   2.678   2.983   4.097
17731TIP3    H274609   2.735   3.042   4.225
17732TIP3   OH274610   3.476   2.950   5.009
17732TIP3    H174611   3.533   2.998   4.947
17732TIP3    H274612   3.390   2.955   4.963
17733TIP3   OH274613   3.141   2.312   3.947
17733TIP3    H174614   3.046   2.327   3.934
17733TIP3    H274615   3.175   2.397   3.983
17734TIP3   OH274616   2.906   3.056   5.251
17734TIP3    H174617   2.872   3.014   5.332
17734TIP3    H274618   2.880   3.148   5.265
17735TIP3   OH274619   3.214   2.503   4.111
17735TIP3    H174620   3.302   2.489   4.151
17735TIP3    H274621   3.224   2.584   4.059
17736TIP3   OH274622   2.269   2.969   4.713
17736TIP3    H174623   2.335   2.962   4.641
17736TIP3    H274624   2.275   2.882   4.754
17737TIP3   OH274625   2.967   3.177   4.033
17737TIP3    H174626   2.931   3.261   4.070
17737TIP3    H274627   2.894   3.115   4.056
17738TIP3   OH274628   1.970   2.801   5.236
17738TIP3    H174629   1.976   2.757   5.324
17738TIP3    H274630   1.903   2.743   5.192
17739TIP3   OH274631   2.668   2.765   5.453
17739TIP3    H174632   2.637   2.735   5.366
17739TIP3    H274633   2.761   2.734   5.454
17740TIP3   OH274634   3.137   3.298   5.251
17740TIP3    H174635   3.046   3.317   5.225
17740TIP3    H274636   3.134   3.328   5.343
17741TIP3   OH274637   3.705   2.516   4.088
17741TIP3    H174638   3.647   2.488   4.014
17741TIP3    H274639   3.712   2.611   4.063
17742TIP3   OH274640   3.705   3.102   5.370
17742TIP3    H174641   3.616   3.125   5.333
17742TIP3    H274642   3.758   3.098   5.288
17743TIP3   OH274643   3.526   3.400   4.126
17743TIP3    H174644   3.498   3.316   4.164
17743TIP3    H274645   3.567   3.378   4.040
17744TIP3   OH274646   3.254   2.881   4.839
17744TIP3    H174647   3.160   2.860   4.828
17744TIP3    H274648   3.297   2.805   4.795
17745TIP3   OH274649   2.506   3.315   4.449
17745TIP3    H174650   2.556   3.395   4.428
17745TIP3    H274651   2.418   3.338   4.416
17746TIP3   OH274652   2.083   2.798   3.906
17746TIP3    H174653   2.141   2.865   3.947
17746TIP3    H274654   1.994   2.830   3.930
17747TIP3   OH274655   2.647   3.081   4.400
17747TIP3    H174656   2.616   3.173   4.410
17747TIP3    H274657   2.576   3.032   4.445
17748TIP3   OH274658   2.692   3.499   5.041
17748TIP3    H174659   2.738   3.580   5.014
17748TIP3    H274660   2.753   3.465   5.109
17749TIP3   OH274661   2.515   3.580   4.353
17749TIP3    H174662   2.419   3.594   4.366
17749TIP3    H274663   2.552   3.663   4.387
17750TIP3   OH274664   3.044   3.099   5.003
17750TIP3    H174665   3.012   3.080   5.094
17750TIP3    H274666   3.109   3.028   4.986
17751TIP3   OH274667   3.276   3.200   3.910
17751TIP3    H174668   3.306   3.166   3.998
17751TIP3    H274669   3.180   3.195   3.926
17752TIP3   OH274670   3.324   3.560   5.255
17752TIP3    H174671   3.257   3.509   5.205
17752TIP3    H274672   3.346   3.627   5.187
17753TIP3   OH274673   3.725   3.642   3.938
17753TIP3    H174674   3.794   3.708   3.917
17753TIP3    H274675   3.654   3.704   3.966
17754TIP3   OH274676   2.132   2.283   5.191
17754TIP3    H174677   2.041   2.319   5.188
17754TIP3    H274678   2.120   2.199   5.236
17755TIP3   OH274679   3.357   3.067   4.131
17755TIP3    H174680   3.332   2.993   4.191
17755TIP3    H274681   3.450   3.075   4.156
17756TIP3   OH274682   2.093   3.460   5.035
17756TIP3    H174683   2.126   3.369   5.034
17756TIP3    H274684   2.122   3.492   5.122
17757TIP3   OH274685   2.692   3.314   3.762
17757TIP3    H174686   2.701   3.237   3.703
17757TIP3    H274687   2.647   3.271   3.838
17758TIP3   OH274688   2.569   3.267   4.007
17758TIP3    H174689   2.596   3.215   4.084
17758TIP3    H274690   2.578   3.359   4.039
17759TIP3   OH274691   2.223   2.991   4.055
17759TIP3    H174692   2.151   3.031   4.109
17759TIP3    H274693   2.273   3.069   4.026
17760TIP3   OH274694   3.003   2.263   5.089
17760TIP3    H174695   3.080   2.262   5.148
17760TIP3    H274696   2.970   2.172   5.105
17761TIP3   OH274697   3.080   2.217   4.196
17761TIP3    H174698   3.103   2.263   4.113
17761TIP3    H274699   3.138   2.261   4.259
17762TIP3   OH274700   2.849   3.433   4.076
17762TIP3    H174701   2.767   3.486   4.084
17762TIP3    H274702   2.903   3.488   4.018
17763TIP3   OH274703   2.803   2.392   4.278
17763TIP3    H174704   2.881   2.451   4.283
17763TIP3    H274705   2.776   2.380   4.371
17764TIP3   OH274706   2.859   2.496   5.194
17764TIP3    H174707   2.865   2.550   5.276
17764TIP3    H274708   2.924   2.425   5.206
17765TIP3   OH274709   2.888   2.098   4.366
17765TIP3    H174710   2.856   2.163   4.430
17765TIP3    H274711   2.957   2.152   4.322
17766TIP3   OH274712   2.589   3.536   4.080
17766TIP3    H174713   2.598   3.618   4.024
17766TIP3    H274714   2.562   3.573   4.167
17767TIP3   OH274715   2.454   2.208   4.037
17767TIP3    H174716   2.449   2.298   4.076
17767TIP3    H274717   2.545   2.184   4.064
17768TIP3   OH274718   3.478   2.284   5.285
17768TIP3    H174719   3.383   2.308   5.269
17768TIP3    H274720   3.505   2.276   5.191
17769TIP3   OH274721   3.338   2.660   4.682
17769TIP3    H174722   3.255   2.616   4.655
17769TIP3    H274723   3.386   2.592   4.734
17770TIP3   OH274724   2.277   3.253   3.941
17770TIP3    H174725   2.344   3.315   3.973
17770TIP3    H274726   2.330   3.206   3.873
17771TIP3   OH274727   2.112   2.520   3.856
17771TIP3    H174728   2.113   2.616   3.877
17771TIP3    H274729   2.022   2.503   3.825
17772TIP3   OH274730   3.444   3.587   4.850
17772TIP3    H174731   3.435   3.655   4.780
17772TIP3    H274732   3.540   3.592   4.867
17773TIP3   OH274733   2.193   1.999   4.731
17773TIP3    H174734   2.174   2.000   4.634
17773TIP3    H274735   2.152   1.913   4.756
17774TIP3   OH274736   2.089   3.391   4.345
17774TIP3    H174737   2.004   3.435   4.340
17774TIP3    H274738   2.136   3.437   4.275
17775TIP3   OH274739   2.012   3.657   5.473
17775TIP3    H174740   2.068   3.632   5.547
17775TIP3    H274741   1.968   3.573   5.450
17776TIP3   OH274742   2.890   3.500   3.775
17776TIP3    H174743   2.821   3.433   3.797
17776TIP3    H274744   2.962   3.441   3.749
17777TIP3   OH274745   3.131   3.387   5.508
17777TIP3    H174746   3.094   3.300   5.535
17777TIP3    H274747   3.205   3.393   5.568
17778TIP3   OH274748   3.344   3.471   3.791
17778TIP3    H174749   3.379   3.400   3.847
17778TIP3    H274750   3.422   3.498   3.739
17779TIP3   OH274751   2.436   3.068   3.775
17779TIP3    H174752   2.449   2.991   3.833
17779TIP3    H274753   2.510   3.056   3.713
17780TIP3   OH274754   2.678   3.028   5.513
17780TIP3    H174755   2.640   3.066   5.430
17780TIP3    H274756   2.677   2.931   5.498
17781TIP3   OH274757   2.988   3.176   3.754
17781TIP3    H174758   2.948   3.189   3.843
17781TIP3    H274759   2.956   3.084   3.738
17782TIP3   OH274760   3.242   3.018   5.253
17782TIP3    H174761   3.321   3.076   5.243
17782TIP3    H274762   3.172   3.085   5.254
17783TIP3   OH274763   2.101   2.757   5.512
17783TIP3    H174764   2.132   2.667   5.502
17783TIP3    H274765   2.058   2.754   5.599
17784TIP3   OH274766   2.556   2.869   4.018
17784TIP3    H174767   2.505   2.815   4.080
17784TIP3    H274768   2.585   2.802   3.952
17785TIP3   OH274769   2.481   2.649   5.244
17785TIP3    H174770   2.425   2.722   5.273
17785TIP3    H274771   2.524   2.687   5.166
17786TIP3   OH274772   2.663   2.691   3.837
17786TIP3    H174773   2.646   2.681   3.741
17786TIP3    H274774   2.761   2.697   3.843
17787TIP3   OH274775   2.990   2.909   5.587
17787TIP3    H174776   3.084   2.903   5.563
17787TIP3    H274777   2.973   2.828   5.636
17788TIP3   OH274778   3.584   2.926   3.778
17788TIP3    H174779   3.584   2.883   3.690
17788TIP3    H274780   3.614   3.018   3.758
17789TIP3   OH274781   2.523   2.388   5.352
17789TIP3    H174782   2.535   2.318   5.285
17789TIP3    H274783   2.519   2.470   5.297
17790TIP3   OH274784   2.563   2.226   5.108
17790TIP3    H174785   2.615   2.272   5.038
17790TIP3    H274786   2.474   2.218   5.067
17791TIP3   OH274787   2.716   2.774   5.131
17791TIP3    H174788   2.793   2.759   5.074
17791TIP3    H274789   2.681   2.858   5.099
17792TIP3   OH274790   3.158   2.551   5.628
17792TIP3    H174791   3.181   2.460   5.616
17792TIP3    H274792   3.244   2.595   5.627
17793TIP3   OH274793   3.290   2.831   5.444
17793TIP3    H174794   3.267   2.903   5.382
17793TIP3    H274795   3.386   2.827   5.427
17794TIP3   OH274796   2.371   2.510   5.547
17794TIP3    H174797   2.292   2.455   5.527
17794TIP3    H274798   2.435   2.478   5.481
17795TIP3   OH274799   2.641   1.970   5.149
17795TIP3    H174800   2.624   2.066   5.136
17795TIP3    H274801   2.568   1.933   5.097
17796TIP3   OH274802   2.770   2.399   5.505
17796TIP3    H174803   2.738   2.382   5.596
17796TIP3    H274804   2.689   2.383   5.454
17797TIP3   OH274805   3.043   2.323   5.426
17797TIP3    H174806   2.945   2.324   5.426
17797TIP3    H274807   3.062   2.246   5.479
17798TIP3   OH274808   2.178   2.306   5.521
17798TIP3    H174809   2.202   2.234   5.460
17798TIP3    H274810   2.170   2.260   5.607
17799TIP3   OH274811   2.663   1.909   5.417
17799TIP3    H174812   2.733   1.840   5.417
17799TIP3    H274813   2.653   1.925   5.322
17800TIP3   OH274814   2.646   3.762   3.945
17800TIP3    H174815   2.743   3.770   3.952
17800TIP3    H274816   2.632   3.822   3.871
17801TIP3   OH274817   2.002   3.219   3.892
17801TIP3    H174818   2.098   3.228   3.910
17801TIP3    H274819   2.007   3.155   3.817
17802TIP3   OH274820   1.880   3.757   4.389
17802TIP3    H174821   1.808   3.709   4.343
17802TIP3    H274822   1.908   3.691   4.456
17803TIP3   OH274823   1.962   3.571   4.576
17803TIP3    H174824   1.927   3.483   4.597
17803TIP3    H274825   1.985   3.604   4.665
17804TIP3   OH274826   3.716   3.651   4.869
17804TIP3    H174827   3.719   3.666   4.965
17804TIP3    H274828   3.786   3.709   4.839
17805TIP3   OH274829   3.676   3.611   5.162
17805TIP3    H174830   3.625   3.535   5.125
17805TIP3    H274831   3.723   3.564   5.233
17806TIP3   OH274832   3.518   3.179   5.637
17806TIP3    H174833   3.427   3.180   5.668
17806TIP3    H274834   3.553   3.264   5.670
17807TIP3   OH274835   3.649   3.015   4.172
17807TIP3    H174836   3.735   3.055   4.192
17807TIP3    H274837   3.648   2.944   4.241
17808TIP3   OH274838   3.685   2.824   4.361
17808TIP3    H174839   3.610   2.773   4.401
17808TIP3    H274840   3.745   2.836   4.438
17809TIP3   OH274841   3.661   3.092   4.861
17809TIP3    H174842   3.742   3.055   4.823
17809TIP3    H274843   3.676   3.188   4.844
17810TIP3   OH274844   3.516   3.383   5.086
17810TIP3    H174845   3.450   3.417   5.147
17810TIP3    H274846   3.460   3.343   5.016
17811TIP3   OH274847   3.716   2.805   4.001
17811TIP3    H174848   3.659   2.839   3.930
17811TIP3    H274849   3.707   2.875   4.068
17812TIP3   OH274850   3.551   2.530   3.852
17812TIP3    H174851   3.562   2.594   3.781
17812TIP3    H274852   3.534   2.446   3.804
17813TIP3   OH274853   3.467   2.670   4.420
17813TIP3    H174854   3.453   2.575   4.416
17813TIP3    H274855   3.434   2.692   4.509
17814TIP3   OH274856   1.969   2.880   4.826
17814TIP3    H174857   1.984   2.871   4.729
17814TIP3    H274858   2.058   2.860   4.859
17815TIP3   OH274859   3.552   2.867   5.392
17815TIP3    H174860   3.614   2.792   5.404
17815TIP3    H274861   3.613   2.944   5.387
17816TIP3   OH274862   3.703   2.655   5.453
17816TIP3    H174863   3.616   2.614   5.435
17816TIP3    H274864   3.761   2.577   5.447
17817TIP3   OH274865   3.478   2.276   3.767
17817TIP3    H174866   3.537   2.232   3.831
17817TIP3    H274867   3.391   2.234   3.782
17818TIP3   OH274868   3.432   2.428   4.261
17818TIP3    H174869   3.464   2.337   4.277
17818TIP3    H274870   3.514   2.470   4.230
17819TIP3   OH274871   3.498   2.483   4.810
17819TIP3    H174872   3.594   2.506   4.808
17819TIP3    H274873   3.480   2.497   4.904
17820TIP3   OH274874   3.504   2.556   5.088
17820TIP3    H174875   3.416   2.584   5.121
17820TIP3    H274876   3.548   2.642   5.067
17821TIP3   OH274877   1.931   2.404   5.436
17821TIP3    H174878   2.024   2.386   5.460
17821TIP3    H274879   1.883   2.326   5.470
17822TIP3   OH274880   3.502   2.157   4.270
17822TIP3    H174881   3.523   2.114   4.355
17822TIP3    H274882   3.442   2.093   4.226
17823TIP3   OH274883   2.050   2.238   4.726
17823TIP3    H174884   2.096   2.155   4.752
17823TIP3    H274885   2.105   2.307   4.765
17824TIP3   OH274886   1.878   2.536   4.828
17824TIP3    H174887   1.935   2.512   4.753
17824TIP3    H274888   1.924   2.617   4.855
17825TIP3   OH274889   3.681   2.163   5.463
17825TIP3    H174890   3.590   2.197   5.450
17825TIP3    H274891   3.690   2.116   5.378
17826TIP3   OH274892   3.683   2.161   3.925
17826TIP3    H174893   3.724   2.090   3.872
17826TIP3    H274894   3.754   2.227   3.931
17827TIP3   OH274895   1.915   2.166   4.238
17827TIP3    H174896   1.821   2.182   4.222
17827TIP3    H274897   1.957   2.213   4.164
17828TIP3   OH274898   3.388   3.659   4.432
17828TIP3    H174899   3.457   3.629   4.370
17828TIP3    H274900   3.440   3.709   4.497
17829TIP3   OH274901   1.909   2.029   5.066
17829TIP3    H174902   1.843   2.010   5.135
17829TIP3    H274903   1.864   2.097   5.013
17830TIP3   OH274904   2.127   3.344   5.484
17830TIP3    H174905   2.046   3.375   5.440
17830TIP3    H274906   2.104   3.349   5.577
17831TIP3   OH274907   2.420   3.448   5.106
17831TIP3    H174908   2.390   3.537   5.082
17831TIP3    H274909   2.515   3.457   5.083
17832TIP3   OH274910   2.858   3.589   5.398
17832TIP3    H174911   2.869   3.560   5.493
17832TIP3    H274912   2.947   3.624   5.379
17833TIP3   OH274913   3.084   3.719   5.332
17833TIP3    H174914   3.156   3.660   5.308
17833TIP3    H274915   3.120   3.762   5.412
17834TIP3   OH274916   3.589   1.981   5.240
17834TIP3    H174917   3.500   2.009   5.206
17834TIP3    H274918   3.600   1.898   5.190
17835TIP3   OH274919   2.164   3.772   5.108
17835TIP3    H174920   2.092   3.824   5.069
17835TIP3    H274921   2.133   3.756   5.198
17836TIP3   OH274922   2.412   3.732   5.017
17836TIP3    H174923   2.324   3.748   5.057
17836TIP3    H274924   2.407   3.791   4.939
17837TIP3   OH274925   2.884   3.723   4.934
17837TIP3    H174926   2.837   3.778   4.870
17837TIP3    H274927   2.896   3.786   5.009
17838TIP3   OH274928   3.112   3.603   5.037
17838TIP3    H174929   3.027   3.631   5.000
17838TIP3    H274930   3.161   3.687   5.028
17839TIP3   OH274931   3.369   3.760   5.059
17839TIP3    H174932   3.364   3.856   5.038
17839TIP3    H274933   3.392   3.723   4.971
17840TIP3   OH274934   2.112   3.638   4.805
17840TIP3    H174935   2.103   3.591   4.891
17840TIP3    H274936   2.193   3.600   4.766
17841TIP3   OH274937   2.319   3.510   4.670
17841TIP3    H174938   2.303   3.416   4.693
17841TIP3    H274939   2.405   3.525   4.715
17842TIP3   OH274940   2.580   3.558   4.757
17842TIP3    H174941   2.595   3.466   4.731
17842TIP3    H274942   2.584   3.552   4.854
17843TIP3   OH274943   2.925   2.123   4.671
17843TIP3    H174944   2.857   2.059   4.699
17843TIP3    H274945   2.980   2.070   4.613
17844TIP3   OH274946   3.439   1.928   4.677
17844TIP3    H174947   3.500   1.987   4.627
17844TIP3    H274948   3.350   1.964   4.654
17845TIP3   OH274949   3.606   2.053   4.505
17845TIP3    H174950   3.674   1.996   4.463
17845TIP3    H274951   3.656   2.137   4.515
17846TIP3   OH274952   2.162   1.986   4.456
17846TIP3    H174953   2.083   1.966   4.403
17846TIP3    H274954   2.208   1.899   4.450
17847TIP3   OH274955   2.039   1.961   4.028
17847TIP3    H174956   2.088   2.026   3.974
17847TIP3    H274957   1.982   2.018   4.082
17848TIP3   OH274958   2.609   1.978   4.435
17848TIP3    H174959   2.699   2.014   4.427
17848TIP3    H274960   2.606   1.956   4.528
17849TIP3   OH274961   3.181   1.980   4.597
17849TIP3    H174962   3.176   1.991   4.502
17849TIP3    H274963   3.143   1.889   4.610
17850TIP3   OH274964   3.307   1.983   4.165
17850TIP3    H174965   3.232   2.042   4.150
17850TIP3    H274966   3.263   1.898   4.189
17851TIP3   OH274967   2.030   3.556   4.131
17851TIP3    H174968   1.965   3.554   4.059
17851TIP3    H274969   2.030   3.651   4.148
17852TIP3   OH274970   2.222   2.155   3.879
17852TIP3    H174971   2.275   2.094   3.826
17852TIP3    H274972   2.288   2.188   3.943
17853TIP3   OH274973   2.724   2.180   4.120
17853TIP3    H174974   2.749   2.122   4.193
17853TIP3    H274975   2.731   2.266   4.165
17854TIP3   OH274976   2.918   3.687   3.964
17854TIP3    H174977   3.009   3.710   3.942
17854TIP3    H274978   2.896   3.635   3.884
17855TIP3   OH274979   3.587   3.637   4.236
17855TIP3    H174980   3.568   3.559   4.179
17855TIP3    H274981   3.580   3.710   4.172
17856TIP3   OH274982   2.154   2.042   5.409
17856TIP3    H174983   2.113   1.960   5.442
17856TIP3    H274984   2.247   2.036   5.435
17857TIP3   OH274985   2.210   3.655   3.825
17857TIP3    H174986   2.184   3.680   3.915
17857TIP3    H274987   2.288   3.598   3.841
17858TIP3   OH274988   3.512   3.513   5.449
17858TIP3    H174989   3.434   3.496   5.391
17858TIP3    H274990   3.501   3.608   5.463
17859TIP3   OH274991   4.957   2.900   4.440
17859TIP3    H174992   4.955   2.998   4.439
17859TIP3    H274993   4.883   2.876   4.381
17860TIP3   OH274994   4.842   2.824   4.792
17860TIP3    H174995   4.841   2.759   4.864
17860TIP3    H274996   4.807   2.774   4.717
17861TIP3   OH274997   4.077   2.793   4.947
17861TIP3    H174998   4.086   2.724   5.016
17861TIP3    H274999   4.152   2.850   4.969
17862TIP3   OH275000   5.210   3.120   4.620
17862TIP3    H175001   5.169   3.048   4.669
17862TIP3    H275002   5.213   3.191   4.687
17863TIP3   OH275003   4.170   3.238   4.796
17863TIP3    H175004   4.139   3.151   4.765
17863TIP3    H275005   4.265   3.219   4.801
17864TIP3   OH275006   3.834   2.593   4.346
17864TIP3    H175007   3.790   2.680   4.340
17864TIP3    H275008   3.777   2.539   4.289
17865TIP3   OH275009   3.905   2.816   4.561
17865TIP3    H175010   3.932   2.734   4.606
17865TIP3    H275011   3.974   2.826   4.494
17866TIP3   OH275012   4.922   3.636   4.644
17866TIP3    H175013   4.987   3.567   4.615
17866TIP3    H275014   4.901   3.602   4.731
17867TIP3   OH275015   4.679   3.065   4.839
17867TIP3    H175016   4.713   3.002   4.773
17867TIP3    H275017   4.760   3.081   4.890
17868TIP3   OH275018   5.536   2.232   4.910
17868TIP3    H175019   5.557   2.289   4.988
17868TIP3    H275020   5.596   2.273   4.845
17869TIP3   OH275021   4.993   2.515   4.870
17869TIP3    H175022   5.015   2.420   4.874
17869TIP3    H275023   4.986   2.529   4.773
17870TIP3   OH275024   4.308   2.321   4.592
17870TIP3    H175025   4.318   2.404   4.542
17870TIP3    H275026   4.268   2.264   4.523
17871TIP3   OH275027   5.081   2.327   4.432
17871TIP3    H175028   5.150   2.299   4.495
17871TIP3    H275029   5.135   2.386   4.376
17872TIP3   OH275030   3.970   2.562   4.665
17872TIP3    H175031   4.037   2.508   4.711
17872TIP3    H275032   3.981   2.530   4.574
17873TIP3   OH275033   4.486   2.718   4.597
17873TIP3    H175034   4.553   2.659   4.637
17873TIP3    H275035   4.434   2.652   4.547
17874TIP3   OH275036   5.582   2.371   5.137
17874TIP3    H175037   5.520   2.447   5.128
17874TIP3    H275038   5.588   2.363   5.234
17875TIP3   OH275039   4.198   2.209   4.993
17875TIP3    H175040   4.170   2.268   4.920
17875TIP3    H275041   4.132   2.233   5.063
17876TIP3   OH275042   4.927   3.159   4.350
17876TIP3    H175043   4.901   3.132   4.261
17876TIP3    H275044   4.897   3.252   4.355
17877TIP3   OH275045   4.450   2.975   5.020
17877TIP3    H175046   4.379   3.040   5.042
17877TIP3    H275047   4.520   3.035   4.991
17878TIP3   OH275048   5.256   2.264   4.634
17878TIP3    H175049   5.252   2.184   4.684
17878TIP3    H275050   5.330   2.309   4.680
17879TIP3   OH275051   4.155   2.397   4.799
17879TIP3    H175052   4.218   2.465   4.830
17879TIP3    H275053   4.207   2.355   4.725
17880TIP3   OH275054   4.295   3.176   5.102
17880TIP3    H175055   4.290   3.267   5.068
17880TIP3    H275056   4.206   3.167   5.145
17881TIP3   OH275057   3.903   3.136   4.181
17881TIP3    H175058   3.877   3.170   4.093
17881TIP3    H275059   3.911   3.219   4.232
17882TIP3   OH275060   5.263   3.304   4.857
17882TIP3    H175061   5.166   3.315   4.869
17882TIP3    H275062   5.290   3.396   4.838
17883TIP3   OH275063   5.291   2.131   4.987
17883TIP3    H175064   5.225   2.202   4.990
17883TIP3    H275065   5.369   2.176   4.948
17884TIP3   OH275066   4.593   1.944   4.744
17884TIP3    H175067   4.575   1.848   4.734
17884TIP3    H275068   4.503   1.974   4.772
17885TIP3   OH275069   5.089   3.482   4.515
17885TIP3    H175070   5.132   3.410   4.465
17885TIP3    H275071   5.133   3.561   4.476
17886TIP3   OH275072   5.211   3.275   4.368
17886TIP3    H175073   5.181   3.205   4.307
17886TIP3    H275074   5.214   3.226   4.452
17887TIP3   OH275075   5.372   3.135   5.217
17887TIP3    H175076   5.387   3.069   5.146
17887TIP3    H275077   5.393   3.219   5.172
17888TIP3   OH275078   4.822   2.823   4.193
17888TIP3    H175079   4.753   2.881   4.156
17888TIP3    H275080   4.893   2.833   4.127
17889TIP3   OH275081   4.830   2.680   3.894
17889TIP3    H175082   4.901   2.678   3.961
17889TIP3    H275083   4.861   2.608   3.837
17890TIP3   OH275084   5.561   2.766   5.021
17890TIP3    H175085   5.495   2.838   5.025
17890TIP3    H275086   5.610   2.789   4.941
17891TIP3   OH275087   5.168   2.844   4.285
17891TIP3    H175088   5.093   2.868   4.345
17891TIP3    H275089   5.214   2.777   4.338
17892TIP3   OH275090   5.159   2.660   5.195
17892TIP3    H175091   5.162   2.740   5.252
17892TIP3    H275092   5.095   2.692   5.129
17893TIP3   OH275093   4.328   2.910   4.477
17893TIP3    H175094   4.296   2.871   4.392
17893TIP3    H275095   4.389   2.841   4.510
17894TIP3   OH275096   4.460   3.248   4.746
17894TIP3    H175097   4.459   3.197   4.664
17894TIP3    H275098   4.539   3.213   4.790
17895TIP3   OH275099   4.361   2.785   4.843
17895TIP3    H175100   4.416   2.795   4.763
17895TIP3    H275101   4.400   2.851   4.904
17896TIP3   OH275102   5.003   3.342   4.914
17896TIP3    H175103   4.974   3.406   4.979
17896TIP3    H275104   4.976   3.257   4.955
17897TIP3   OH275105   4.455   3.227   5.316
17897TIP3    H175106   4.415   3.303   5.363
17897TIP3    H275107   4.390   3.208   5.245
17898TIP3   OH275108   5.055   2.765   4.052
17898TIP3    H175109   5.110   2.782   4.132
17898TIP3    H275110   5.100   2.814   3.980
17899TIP3   OH275111   4.150   2.846   5.232
17899TIP3    H175112   4.153   2.912   5.304
17899TIP3    H275113   4.056   2.852   5.206
17900TIP3   OH275114   4.826   3.437   4.399
17900TIP3    H175115   4.869   3.467   4.480
17900TIP3    H275116   4.770   3.512   4.376
17901TIP3   OH275117   4.278   3.433   5.384
17901TIP3    H175118   4.278   3.420   5.287
17901TIP3    H275119   4.187   3.417   5.405
17902TIP3   OH275120   5.429   1.939   4.043
17902TIP3    H175121   5.333   1.947   4.066
17902TIP3    H275122   5.445   2.022   3.997
17903TIP3   OH275123   4.224   2.812   4.240
17903TIP3    H175124   4.196   2.891   4.188
17903TIP3    H275125   4.159   2.746   4.215
17904TIP3   OH275126   5.538   3.374   3.876
17904TIP3    H175127   5.555   3.468   3.894
17904TIP3    H275128   5.630   3.341   3.877
17905TIP3   OH275129   3.836   3.055   5.125
17905TIP3    H175130   3.789   3.046   5.040
17905TIP3    H275131   3.842   2.961   5.150
17906TIP3   OH275132   3.810   3.329   4.806
17906TIP3    H175133   3.906   3.317   4.804
17906TIP3    H275134   3.802   3.411   4.858
17907TIP3   OH275135   5.637   3.397   5.373
17907TIP3    H175136   5.619   3.302   5.372
17907TIP3    H275137   5.550   3.428   5.411
17908TIP3   OH275138   4.729   3.353   5.260
17908TIP3    H175139   4.736   3.437   5.311
17908TIP3    H275140   4.642   3.317   5.287
17909TIP3   OH275141   4.774   3.728   4.240
17909TIP3    H175142   4.763   3.720   4.144
17909TIP3    H275143   4.774   3.824   4.256
17910TIP3   OH275144   4.137   3.616   4.423
17910TIP3    H175145   4.152   3.574   4.510
17910TIP3    H275146   4.053   3.575   4.399
17911TIP3   OH275147   5.080   3.650   3.937
17911TIP3    H175148   5.124   3.572   3.896
17911TIP3    H275149   5.083   3.624   4.032
17912TIP3   OH275150   5.049   3.643   4.216
17912TIP3    H175151   4.953   3.650   4.233
17912TIP3    H275152   5.072   3.568   4.274
17913TIP3   OH275153   5.355   2.546   5.412
17913TIP3    H175154   5.297   2.590   5.349
17913TIP3    H275155   5.347   2.452   5.394
17914TIP3   OH275156   4.061   3.190   5.225
17914TIP3    H175157   4.084   3.147   5.311
17914TIP3    H275158   3.976   3.147   5.200
17915TIP3   OH275159   4.331   2.034   4.817
17915TIP3    H175160   4.240   2.022   4.781
17915TIP3    H275161   4.317   2.117   4.866
17916TIP3   OH275162   4.795   2.000   5.152
17916TIP3    H175163   4.832   1.959   5.233
17916TIP3    H275164   4.697   1.991   5.168
17917TIP3   OH275165   5.117   2.382   5.234
17917TIP3    H175166   5.068   2.364   5.319
17917TIP3    H275167   5.110   2.478   5.223
17918TIP3   OH275168   5.199   2.868   3.833
17918TIP3    H175169   5.197   2.848   3.737
17918TIP3    H275170   5.285   2.912   3.838
17919TIP3   OH275171   4.759   2.260   3.884
17919TIP3    H175172   4.727   2.254   3.976
17919TIP3    H275173   4.728   2.172   3.854
17920TIP3   OH275174   4.341   2.532   4.943
17920TIP3    H175175   4.266   2.530   5.006
17920TIP3    H275176   4.336   2.623   4.906
17921TIP3   OH275177   4.337   2.543   4.429
17921TIP3    H175178   4.243   2.518   4.416
17921TIP3    H275179   4.374   2.514   4.344
17922TIP3   OH275180   4.889   2.594   4.307
17922TIP3    H175181   4.849   2.676   4.270
17922TIP3    H275182   4.957   2.577   4.240
17923TIP3   OH275183   4.791   2.617   5.452
17923TIP3    H175184   4.741   2.538   5.481
17923TIP3    H275185   4.877   2.603   5.493
17924TIP3   OH275186   4.992   2.541   4.591
17924TIP3    H175187   4.964   2.600   4.519
17924TIP3    H275188   5.002   2.459   4.540
17925TIP3   OH275189   4.103   2.557   5.111
17925TIP3    H175190   4.112   2.596   5.200
17925TIP3    H275191   4.059   2.473   5.132
17926TIP3   OH275192   4.440   2.297   3.796
17926TIP3    H175193   4.395   2.254   3.872
17926TIP3    H275194   4.369   2.340   3.747
17927TIP3   OH275195   3.769   2.268   4.510
17927TIP3    H175196   3.837   2.264   4.580
17927TIP3    H275197   3.814   2.230   4.432
17928TIP3   OH275198   3.895   2.340   4.044
17928TIP3    H175199   3.947   2.401   3.988
17928TIP3    H275200   3.826   2.402   4.076
17929TIP3   OH275201   4.912   2.702   5.046
17929TIP3    H175202   4.950   2.633   4.987
17929TIP3    H275203   4.865   2.648   5.113
17930TIP3   OH275204   4.593   2.298   4.530
17930TIP3    H175205   4.499   2.300   4.558
17930TIP3    H275206   4.639   2.283   4.614
17931TIP3   OH275207   4.073   2.454   4.417
17931TIP3    H175208   3.985   2.470   4.377
17931TIP3    H275209   4.101   2.371   4.376
17932TIP3   OH275210   4.438   2.459   4.179
17932TIP3    H175211   4.533   2.470   4.195
17932TIP3    H275212   4.414   2.527   4.114
17933TIP3   OH275213   5.045   2.253   4.874
17933TIP3    H175214   4.972   2.245   4.942
17933TIP3    H275215   4.995   2.264   4.792
17934TIP3   OH275216   4.308   2.576   3.938
17934TIP3    H175217   4.255   2.538   3.866
17934TIP3    H275218   4.390   2.597   3.891
17935TIP3   OH275219   5.345   3.801   5.487
17935TIP3    H175220   5.384   3.825   5.402
17935TIP3    H275221   5.424   3.808   5.546
17936TIP3   OH275222   4.120   3.039   5.444
17936TIP3    H175223   4.191   3.055   5.510
17936TIP3    H275224   4.043   3.046   5.504
17937TIP3   OH275225   4.720   2.574   4.719
17937TIP3    H175226   4.780   2.522   4.665
17937TIP3    H275227   4.705   2.520   4.798
17938TIP3   OH275228   4.221   2.189   4.363
17938TIP3    H175229   4.190   2.097   4.362
17938TIP3    H275230   4.300   2.183   4.307
17939TIP3   OH275231   4.586   2.408   4.959
17939TIP3    H175232   4.502   2.458   4.969
17939TIP3    H275233   4.638   2.444   5.034
17940TIP3   OH275234   4.643   3.030   4.130
17940TIP3    H175235   4.563   2.983   4.097
17940TIP3    H275236   4.621   3.042   4.224
17941TIP3   OH275237   5.362   2.950   5.010
17941TIP3    H175238   5.418   2.998   4.947
17941TIP3    H275239   5.276   2.954   4.964
17942TIP3   OH275240   5.025   2.311   3.949
17942TIP3    H175241   4.931   2.327   3.934
17942TIP3    H275242   5.060   2.396   3.983
17943TIP3   OH275243   4.790   3.058   5.253
17943TIP3    H175244   4.758   3.015   5.333
17943TIP3    H275245   4.768   3.150   5.266
17944TIP3   OH275246   5.098   2.504   4.110
17944TIP3    H175247   5.186   2.491   4.151
17944TIP3    H275248   5.110   2.586   4.059
17945TIP3   OH275249   4.154   2.969   4.710
17945TIP3    H175250   4.222   2.961   4.640
17945TIP3    H275251   4.160   2.883   4.756
17946TIP3   OH275252   4.853   3.176   4.033
17946TIP3    H175253   4.818   3.261   4.069
17946TIP3    H275254   4.779   3.115   4.055
17947TIP3   OH275255   3.853   2.809   5.237
17947TIP3    H175256   3.870   2.765   5.323
17947TIP3    H275257   3.792   2.747   5.193
17948TIP3   OH275258   4.557   2.766   5.452
17948TIP3    H175259   4.523   2.733   5.368
17948TIP3    H275260   4.648   2.732   5.454
17949TIP3   OH275261   5.023   3.299   5.251
17949TIP3    H175262   4.931   3.317   5.226
17949TIP3    H275263   5.019   3.329   5.344
17950TIP3   OH275264   5.593   2.514   4.085
17950TIP3    H175265   5.530   2.491   4.014
17950TIP3    H275266   5.597   2.610   4.064
17951TIP3   OH275267   5.588   3.099   5.368
17951TIP3    H175268   5.501   3.126   5.331
17951TIP3    H275269   5.644   3.099   5.288
17952TIP3   OH275270   5.415   3.400   4.127
17952TIP3    H175271   5.382   3.316   4.162
17952TIP3    H275272   5.451   3.378   4.040
17953TIP3   OH275273   5.140   2.881   4.839
17953TIP3    H175274   5.045   2.860   4.828
17953TIP3    H275275   5.182   2.805   4.796
17954TIP3   OH275276   4.392   3.315   4.449
17954TIP3    H175277   4.441   3.396   4.428
17954TIP3    H275278   4.304   3.338   4.416
17955TIP3   OH275279   3.968   2.798   3.906
17955TIP3    H175280   4.026   2.865   3.947
17955TIP3    H275281   3.879   2.830   3.931
17956TIP3   OH275282   4.532   3.081   4.399
17956TIP3    H175283   4.501   3.173   4.410
17956TIP3    H275284   4.461   3.032   4.445
17957TIP3   OH275285   4.578   3.499   5.042
17957TIP3    H175286   4.624   3.580   5.013
17957TIP3    H275287   4.640   3.465   5.109
17958TIP3   OH275288   4.401   3.580   4.353
17958TIP3    H175289   4.304   3.594   4.366
17958TIP3    H275290   4.437   3.664   4.387
17959TIP3   OH275291   4.930   3.099   5.003
17959TIP3    H175292   4.898   3.080   5.094
17959TIP3    H275293   4.994   3.028   4.986
17960TIP3   OH275294   5.164   3.207   3.912
17960TIP3    H175295   5.194   3.160   3.992
17960TIP3    H275296   5.069   3.189   3.920
17961TIP3   OH275297   5.198   3.563   5.252
17961TIP3    H175298   5.140   3.506   5.200
17961TIP3    H275299   5.230   3.627   5.185
17962TIP3   OH275300   5.609   3.643   3.935
17962TIP3    H175301   5.680   3.708   3.919
17962TIP3    H275302   5.539   3.703   3.968
17963TIP3   OH275303   4.019   2.283   5.190
17963TIP3    H175304   3.928   2.317   5.188
17963TIP3    H275305   4.008   2.199   5.238
17964TIP3   OH275306   5.242   3.070   4.136
17964TIP3    H175307   5.218   2.992   4.190
17964TIP3    H275308   5.337   3.074   4.154
17965TIP3   OH275309   3.980   3.461   5.035
17965TIP3    H175310   4.010   3.369   5.035
17965TIP3    H275311   4.005   3.490   5.123
17966TIP3   OH275312   4.577   3.314   3.762
17966TIP3    H175313   4.587   3.238   3.703
17966TIP3    H275314   4.533   3.271   3.838
17967TIP3   OH275315   4.454   3.267   4.007
17967TIP3    H175316   4.481   3.215   4.084
17967TIP3    H275317   4.463   3.359   4.039
17968TIP3   OH275318   4.109   2.991   4.056
17968TIP3    H175319   4.037   3.031   4.109
17968TIP3    H275320   4.159   3.069   4.026
17969TIP3   OH275321   4.892   2.255   5.084
17969TIP3    H175322   4.962   2.267   5.150
17969TIP3    H275323   4.850   2.172   5.111
17970TIP3   OH275324   4.965   2.216   4.199
17970TIP3    H175325   4.987   2.262   4.115
17970TIP3    H275326   5.025   2.263   4.258
17971TIP3   OH275327   4.735   3.433   4.077
17971TIP3    H175328   4.653   3.486   4.084
17971TIP3    H275329   4.788   3.488   4.018
17972TIP3   OH275330   4.689   2.392   4.277
17972TIP3    H175331   4.767   2.451   4.283
17972TIP3    H275332   4.661   2.380   4.370
17973TIP3   OH275333   4.749   2.497   5.192
17973TIP3    H175334   4.752   2.550   5.274
17973TIP3    H275335   4.809   2.424   5.209
17974TIP3   OH275336   4.777   2.097   4.371
17974TIP3    H175337   4.738   2.164   4.428
17974TIP3    H275338   4.842   2.153   4.320
17975TIP3   OH275339   4.475   3.536   4.080
17975TIP3    H175340   4.484   3.618   4.024
17975TIP3    H275341   4.447   3.573   4.167
17976TIP3   OH275342   4.339   2.209   4.037
17976TIP3    H175343   4.334   2.298   4.076
17976TIP3    H275344   4.430   2.184   4.064
17977TIP3   OH275345   5.359   2.278   5.282
17977TIP3    H175346   5.268   2.314   5.270
17977TIP3    H275347   5.392   2.282   5.192
17978TIP3   OH275348   5.224   2.662   4.682
17978TIP3    H175349   5.142   2.619   4.655
17978TIP3    H275350   5.272   2.593   4.734
17979TIP3   OH275351   4.163   3.253   3.941
17979TIP3    H175352   4.229   3.315   3.973
17979TIP3    H275353   4.215   3.206   3.873
17980TIP3   OH275354   3.997   2.520   3.856
17980TIP3    H175355   3.999   2.616   3.877
17980TIP3    H275356   3.908   2.502   3.825
17981TIP3   OH275357   5.329   3.586   4.847
17981TIP3    H175358   5.321   3.656   4.779
17981TIP3    H275359   5.425   3.592   4.866
17982TIP3   OH275360   4.079   1.998   4.730
17982TIP3    H175361   4.059   2.000   4.634
17982TIP3    H275362   4.037   1.913   4.756
17983TIP3   OH275363   3.974   3.391   4.345
17983TIP3    H175364   3.889   3.436   4.340
17983TIP3    H275365   4.022   3.437   4.275
17984TIP3   OH275366   4.361   3.551   5.629
17984TIP3    H175367   4.430   3.494   5.669
17984TIP3    H275368   4.363   3.519   5.537
17985TIP3   OH275369   4.776   3.499   3.774
17985TIP3    H175370   4.707   3.433   3.797
17985TIP3    H275371   4.848   3.439   3.749
17986TIP3   OH275372   5.013   3.385   5.509
17986TIP3    H175373   4.981   3.296   5.537
17986TIP3    H275374   5.093   3.399   5.564
17987TIP3   OH275375   5.233   3.475   3.792
17987TIP3    H175376   5.261   3.397   3.843
17987TIP3    H275377   5.310   3.493   3.737
17988TIP3   OH275378   3.885   3.030   5.573
17988TIP3    H175379   3.904   2.940   5.543
17988TIP3    H275380   3.813   3.061   5.516
17989TIP3   OH275381   4.321   3.068   3.775
17989TIP3    H175382   4.335   2.991   3.833
17989TIP3    H275383   4.396   3.056   3.713
17990TIP3   OH275384   4.566   3.031   5.509
17990TIP3    H175385   4.525   3.063   5.427
17990TIP3    H275386   4.564   2.933   5.501
17991TIP3   OH275387   4.864   3.178   3.752
17991TIP3    H175388   4.837   3.187   3.845
17991TIP3    H275389   4.845   3.083   3.738
17992TIP3   OH275390   5.127   3.020   5.252
17992TIP3    H175391   5.206   3.076   5.241
17992TIP3    H275392   5.057   3.087   5.253
17993TIP3   OH275393   3.974   2.758   5.513
17993TIP3    H175394   4.017   2.673   5.500
17993TIP3    H275395   3.955   2.755   5.608
17994TIP3   OH275396   4.441   2.869   4.018
17994TIP3    H175397   4.391   2.815   4.080
17994TIP3    H275398   4.471   2.802   3.952
17995TIP3   OH275399   4.368   2.650   5.245
17995TIP3    H175400   4.309   2.721   5.273
17995TIP3    H275401   4.408   2.687   5.165
17996TIP3   OH275402   4.549   2.692   3.837
17996TIP3    H175403   4.534   2.683   3.741
17996TIP3    H275404   4.646   2.697   3.844
17997TIP3   OH275405   4.878   2.911   5.587
17997TIP3    H175406   4.971   2.902   5.563
17997TIP3    H275407   4.855   2.831   5.636
17998TIP3   OH275408   5.482   2.924   3.778
17998TIP3    H175409   5.463   2.886   3.691
17998TIP3    H275410   5.491   3.020   3.760
17999TIP3   OH275411   4.410   2.389   5.354
17999TIP3    H175412   4.417   2.318   5.288
17999TIP3    H275413   4.399   2.470   5.302
18000TIP3   OH275414   4.449   2.226   5.109
18000TIP3    H175415   4.499   2.273   5.038
18000TIP3    H275416   4.360   2.218   5.070
18001TIP3   OH275417   4.603   2.775   5.131
18001TIP3    H175418   4.679   2.759   5.074
18001TIP3    H275419   4.566   2.858   5.098
18002TIP3   OH275420   5.174   2.832   5.442
18002TIP3    H175421   5.154   2.904   5.379
18002TIP3    H275422   5.272   2.825   5.430
18003TIP3   OH275423   4.527   1.969   5.147
18003TIP3    H175424   4.509   2.065   5.137
18003TIP3    H275425   4.453   1.933   5.096
18004TIP3   OH275426   4.654   2.398   5.508
18004TIP3    H175427   4.623   2.383   5.598
18004TIP3    H275428   4.572   2.382   5.455
18005TIP3   OH275429   4.922   2.311   5.413
18005TIP3    H175430   4.828   2.321   5.432
18005TIP3    H275431   4.955   2.254   5.485
18006TIP3   OH275432   5.076   2.178   5.608
18006TIP3    H175433   5.082   2.083   5.613
18006TIP3    H275434   5.061   2.211   5.698
18007TIP3   OH275435   4.053   2.300   5.517
18007TIP3    H175436   4.095   2.232   5.462
18007TIP3    H275437   4.061   2.266   5.608
18008TIP3   OH275438   4.549   1.907   5.418
18008TIP3    H175439   4.618   1.839   5.415
18008TIP3    H275440   4.537   1.927   5.323
18009TIP3   OH275441   4.532   3.762   3.945
18009TIP3    H175442   4.629   3.770   3.952
18009TIP3    H275443   4.517   3.822   3.871
18010TIP3   OH275444   3.886   3.218   3.892
18010TIP3    H175445   3.982   3.229   3.911
18010TIP3    H275446   3.894   3.154   3.817
18011TIP3   OH275447   3.765   3.757   4.388
18011TIP3    H175448   3.693   3.709   4.343
18011TIP3    H275449   3.793   3.692   4.455
18012TIP3   OH275450   3.848   3.571   4.576
18012TIP3    H175451   3.812   3.483   4.597
18012TIP3    H275452   3.870   3.604   4.665
18013TIP3   OH275453   5.602   3.652   4.867
18013TIP3    H175454   5.605   3.666   4.964
18013TIP3    H275455   5.673   3.710   4.839
18014TIP3   OH275456   5.562   3.611   5.159
18014TIP3    H175457   5.511   3.533   5.128
18014TIP3    H275458   5.606   3.568   5.235
18015TIP3   OH275459   5.404   3.186   5.631
18015TIP3    H175460   5.316   3.179   5.667
18015TIP3    H275461   5.440   3.265   5.674
18016TIP3   OH275462   5.535   3.016   4.174
18016TIP3    H175463   5.622   3.055   4.193
18016TIP3    H275464   5.533   2.944   4.241
18017TIP3   OH275465   5.571   2.823   4.363
18017TIP3    H175466   5.496   2.773   4.402
18017TIP3    H275467   5.631   2.836   4.439
18018TIP3   OH275468   5.547   3.092   4.861
18018TIP3    H175469   5.628   3.055   4.823
18018TIP3    H275470   5.561   3.188   4.844
18019TIP3   OH275471   5.403   3.383   5.088
18019TIP3    H175472   5.336   3.417   5.149
18019TIP3    H275473   5.347   3.343   5.018
18020TIP3   OH275474   5.601   2.805   4.002
18020TIP3    H175475   5.544   2.840   3.929
18020TIP3    H275476   5.591   2.877   4.068
18021TIP3   OH275477   5.438   2.528   3.853
18021TIP3    H175478   5.446   2.595   3.784
18021TIP3    H275479   5.420   2.446   3.803
18022TIP3   OH275480   5.353   2.670   4.420
18022TIP3    H175481   5.338   2.575   4.415
18022TIP3    H275482   5.320   2.692   4.509
18023TIP3   OH275483   3.853   2.879   4.826
18023TIP3    H175484   3.871   2.871   4.729
18023TIP3    H275485   3.943   2.861   4.861
18024TIP3   OH275486   5.437   2.867   5.388
18024TIP3    H175487   5.497   2.791   5.404
18024TIP3    H275488   5.500   2.942   5.388
18025TIP3   OH275489   5.592   2.657   5.437
18025TIP3    H175490   5.502   2.617   5.444
18025TIP3    H275491   5.646   2.578   5.450
18026TIP3   OH275492   5.363   2.275   3.766
18026TIP3    H175493   5.420   2.232   3.831
18026TIP3    H275494   5.276   2.234   3.781
18027TIP3   OH275495   5.318   2.428   4.261
18027TIP3    H175496   5.349   2.336   4.277
18027TIP3    H275497   5.400   2.469   4.231
18028TIP3   OH275498   5.382   2.481   4.810
18028TIP3    H175499   5.478   2.505   4.808
18028TIP3    H275500   5.365   2.498   4.904
18029TIP3   OH275501   5.389   2.554   5.084
18029TIP3    H175502   5.304   2.584   5.125
18029TIP3    H275503   5.433   2.640   5.064
18030TIP3   OH275504   3.815   2.408   5.438
18030TIP3    H175505   3.909   2.387   5.461
18030TIP3    H275506   3.769   2.328   5.470
18031TIP3   OH275507   5.390   2.156   4.268
18031TIP3    H175508   5.408   2.114   4.354
18031TIP3    H275509   5.326   2.094   4.227
18032TIP3   OH275510   3.937   2.238   4.724
18032TIP3    H175511   3.982   2.155   4.752
18032TIP3    H275512   3.991   2.307   4.765
18033TIP3   OH275513   3.764   2.538   4.829
18033TIP3    H175514   3.820   2.513   4.753
18033TIP3    H275515   3.810   2.618   4.857
18034TIP3   OH275516   5.572   2.172   5.460
18034TIP3    H175517   5.478   2.199   5.454
18034TIP3    H275518   5.575   2.113   5.384
18035TIP3   OH275519   5.572   2.157   3.930
18035TIP3    H175520   5.607   2.089   3.868
18035TIP3    H275521   5.635   2.230   3.923
18036TIP3   OH275522   3.800   2.166   4.238
18036TIP3    H175523   3.706   2.182   4.221
18036TIP3    H275524   3.842   2.213   4.164
18037TIP3   OH275525   5.274   3.659   4.432
18037TIP3    H175526   5.342   3.629   4.370
18037TIP3    H275527   5.325   3.709   4.497
18038TIP3   OH275528   3.795   2.030   5.067
18038TIP3    H175529   3.726   2.010   5.133
18038TIP3    H275530   3.749   2.097   5.013
18039TIP3   OH275531   4.309   3.450   5.111
18039TIP3    H175532   4.276   3.537   5.082
18039TIP3    H275533   4.401   3.458   5.080
18040TIP3   OH275534   4.742   3.592   5.403
18040TIP3    H175535   4.758   3.559   5.495
18040TIP3    H275536   4.831   3.623   5.376
18041TIP3   OH275537   4.971   3.717   5.333
18041TIP3    H175538   5.045   3.660   5.307
18041TIP3    H275539   5.009   3.761   5.411
18042TIP3   OH275540   5.474   1.981   5.239
18042TIP3    H175541   5.389   2.009   5.204
18042TIP3    H275542   5.489   1.897   5.190
18043TIP3   OH275543   4.051   3.773   5.111
18043TIP3    H175544   3.979   3.823   5.070
18043TIP3    H275545   4.018   3.755   5.199
18044TIP3   OH275546   4.298   3.731   5.017
18044TIP3    H175547   4.209   3.746   5.057
18044TIP3    H275548   4.293   3.790   4.940
18045TIP3   OH275549   4.769   3.722   4.934
18045TIP3    H175550   4.722   3.778   4.869
18045TIP3    H275551   4.782   3.785   5.008
18046TIP3   OH275552   4.997   3.603   5.037
18046TIP3    H175553   4.912   3.631   5.000
18046TIP3    H275554   5.046   3.687   5.028
18047TIP3   OH275555   5.256   3.760   5.059
18047TIP3    H175556   5.251   3.856   5.036
18047TIP3    H275557   5.278   3.723   4.971
18048TIP3   OH275558   3.998   3.638   4.805
18048TIP3    H175559   3.989   3.592   4.891
18048TIP3    H275560   4.079   3.600   4.765
18049TIP3   OH275561   4.205   3.510   4.670
18049TIP3    H175562   4.189   3.416   4.693
18049TIP3    H275563   4.291   3.525   4.715
18050TIP3   OH275564   4.466   3.558   4.757
18050TIP3    H175565   4.481   3.466   4.731
18050TIP3    H275566   4.470   3.552   4.854
18051TIP3   OH275567   4.802   2.118   4.666
18051TIP3    H175568   4.729   2.057   4.693
18051TIP3    H275569   4.847   2.068   4.596
18052TIP3   OH275570   5.324   1.932   4.680
18052TIP3    H175571   5.389   1.985   4.627
18052TIP3    H275572   5.238   1.963   4.649
18053TIP3   OH275573   5.489   2.053   4.507
18053TIP3    H175574   5.557   1.995   4.466
18053TIP3    H275575   5.541   2.136   4.518
18054TIP3   OH275576   4.048   1.986   4.456
18054TIP3    H175577   3.968   1.966   4.403
18054TIP3    H275578   4.094   1.899   4.450
18055TIP3   OH275579   3.924   1.961   4.028
18055TIP3    H175580   3.974   2.026   3.975
18055TIP3    H275581   3.868   2.018   4.082
18056TIP3   OH275582   4.494   1.978   4.434
18056TIP3    H175583   4.584   2.014   4.427
18056TIP3    H275584   4.490   1.956   4.527
18057TIP3   OH275585   5.069   1.975   4.589
18057TIP3    H175586   5.064   1.987   4.493
18057TIP3    H275587   5.032   1.883   4.601
18058TIP3   OH275588   5.193   1.983   4.165
18058TIP3    H175589   5.118   2.042   4.150
18058TIP3    H275590   5.149   1.898   4.189
18059TIP3   OH275591   3.916   3.556   4.131
18059TIP3    H175592   3.850   3.554   4.059
18059TIP3    H275593   3.916   3.651   4.148
18060TIP3   OH275594   4.107   2.155   3.879
18060TIP3    H175595   4.160   2.094   3.826
18060TIP3    H275596   4.174   2.188   3.943
18061TIP3   OH275597   4.610   2.180   4.120
18061TIP3    H175598   4.635   2.122   4.194
18061TIP3    H275599   4.617   2.266   4.165
18062TIP3   OH275600   4.803   3.687   3.965
18062TIP3    H175601   4.895   3.709   3.944
18062TIP3    H275602   4.781   3.635   3.884
18063TIP3   OH275603   5.473   3.637   4.236
18063TIP3    H175604   5.454   3.559   4.179
18063TIP3    H275605   5.466   3.711   4.172
18064TIP3   OH275606   4.037   2.037   5.396
18064TIP3    H175607   4.000   1.966   5.447
18064TIP3    H275608   4.127   2.040   5.438
18065TIP3   OH275609   4.233   1.971   5.551
18065TIP3    H175610   4.328   1.951   5.542
18065TIP3    H275611   4.208   1.901   5.611
18066TIP3   OH275612   4.095   3.655   3.825
18066TIP3    H175613   4.069   3.680   3.915
18066TIP3    H275614   4.174   3.598   3.841
18067TIP3   OH275615   5.394   3.505   5.408
18067TIP3    H175616   5.300   3.498   5.385
18067TIP3    H275617   5.395   3.587   5.463
18068TIP3   OH275618   6.842   2.898   4.442
18068TIP3    H175619   6.842   2.997   4.439
18068TIP3    H275620   6.769   2.876   4.381
18069TIP3   OH275621   6.729   2.824   4.793
18069TIP3    H175622   6.725   2.758   4.863
18069TIP3    H275623   6.695   2.775   4.716
18070TIP3   OH275624   5.963   2.793   4.947
18070TIP3    H175625   5.971   2.724   5.016
18070TIP3    H275626   6.038   2.850   4.969
18071TIP3   OH275627   7.098   3.117   4.621
18071TIP3    H175628   7.056   3.047   4.670
18071TIP3    H275629   7.099   3.190   4.685
18072TIP3   OH275630   6.055   3.238   4.796
18072TIP3    H175631   6.024   3.151   4.765
18072TIP3    H275632   6.151   3.219   4.802
18073TIP3   OH275633   5.720   2.592   4.344
18073TIP3    H175634   5.678   2.679   4.340
18073TIP3    H275635   5.661   2.540   4.289
18074TIP3   OH275636   5.791   2.816   4.561
18074TIP3    H175637   5.818   2.734   4.606
18074TIP3    H275638   5.860   2.826   4.494
18075TIP3   OH275639   6.802   3.633   4.639
18075TIP3    H175640   6.874   3.567   4.618
18075TIP3    H275641   6.787   3.605   4.731
18076TIP3   OH275642   6.565   3.065   4.839
18076TIP3    H175643   6.599   3.002   4.773
18076TIP3    H275644   6.646   3.082   4.889
18077TIP3   OH275645   6.883   2.514   4.872
18077TIP3    H175646   6.899   2.418   4.870
18077TIP3    H275647   6.873   2.528   4.776
18078TIP3   OH275648   6.194   2.321   4.592
18078TIP3    H175649   6.204   2.404   4.542
18078TIP3    H275650   6.154   2.264   4.524
18079TIP3   OH275651   6.970   2.333   4.430
18079TIP3    H175652   7.034   2.297   4.496
18079TIP3    H275653   7.029   2.385   4.376
18080TIP3   OH275654   5.856   2.562   4.665
18080TIP3    H175655   5.922   2.508   4.711
18080TIP3    H275656   5.866   2.531   4.574
18081TIP3   OH275657   6.371   2.718   4.597
18081TIP3    H175658   6.439   2.659   4.637
18081TIP3    H275659   6.320   2.652   4.547
18082TIP3   OH275660   6.084   2.211   4.996
18082TIP3    H175661   6.056   2.268   4.921
18082TIP3    H275662   6.016   2.234   5.064
18083TIP3   OH275663   6.811   3.158   4.351
18083TIP3    H175664   6.787   3.130   4.261
18083TIP3    H275665   6.781   3.251   4.355
18084TIP3   OH275666   6.335   2.975   5.018
18084TIP3    H175667   6.265   3.039   5.043
18084TIP3    H275668   6.406   3.035   4.991
18085TIP3   OH275669   7.117   2.261   4.640
18085TIP3    H175670   7.121   2.178   4.687
18085TIP3    H275671   7.195   2.307   4.679
18086TIP3   OH275672   6.041   2.396   4.799
18086TIP3    H175673   6.104   2.465   4.831
18086TIP3    H275674   6.093   2.356   4.726
18087TIP3   OH275675   6.180   3.176   5.102
18087TIP3    H175676   6.176   3.267   5.069
18087TIP3    H275677   6.091   3.168   5.145
18088TIP3   OH275678   5.788   3.136   4.181
18088TIP3    H175679   5.763   3.170   4.093
18088TIP3    H275680   5.796   3.219   4.232
18089TIP3   OH275681   7.130   3.296   4.867
18089TIP3    H175682   7.034   3.317   4.871
18089TIP3    H275683   7.168   3.381   4.836
18090TIP3   OH275684   7.162   2.146   4.973
18090TIP3    H175685   7.092   2.213   4.981
18090TIP3    H275686   7.237   2.195   4.937
18091TIP3   OH275687   6.478   1.944   4.742
18091TIP3    H175688   6.464   1.848   4.735
18091TIP3    H275689   6.390   1.975   4.773
18092TIP3   OH275690   6.963   3.478   4.514
18092TIP3    H175691   7.015   3.407   4.469
18092TIP3    H275692   7.015   3.555   4.482
18093TIP3   OH275693   7.091   3.276   4.369
18093TIP3    H175694   7.070   3.204   4.307
18093TIP3    H275695   7.101   3.223   4.451
18094TIP3   OH275696   7.229   3.148   5.228
18094TIP3    H175697   7.261   3.079   5.166
18094TIP3    H275698   7.272   3.224   5.184
18095TIP3   OH275699   6.707   2.823   4.193
18095TIP3    H175700   6.638   2.881   4.157
18095TIP3    H275701   6.778   2.832   4.127
18096TIP3   OH275702   6.715   2.680   3.894
18096TIP3    H175703   6.787   2.678   3.960
18096TIP3    H275704   6.746   2.608   3.837
18097TIP3   OH275705   7.049   2.845   4.282
18097TIP3    H175706   6.977   2.870   4.344
18097TIP3    H275707   7.097   2.781   4.339
18098TIP3   OH275708   7.036   2.662   5.203
18098TIP3    H175709   7.057   2.748   5.241
18098TIP3    H275710   6.987   2.687   5.122
18099TIP3   OH275711   6.213   2.910   4.477
18099TIP3    H175712   6.181   2.871   4.392
18099TIP3    H275713   6.275   2.841   4.510
18100TIP3   OH275714   6.345   3.248   4.745
18100TIP3    H175715   6.345   3.196   4.664
18100TIP3    H275716   6.424   3.214   4.791
18101TIP3   OH275717   6.248   2.784   4.844
18101TIP3    H175718   6.301   2.795   4.763
18101TIP3    H275719   6.285   2.852   4.904
18102TIP3   OH275720   6.881   3.344   4.912
18102TIP3    H175721   6.861   3.406   4.982
18102TIP3    H275722   6.863   3.257   4.956
18103TIP3   OH275723   6.342   3.228   5.314
18103TIP3    H175724   6.301   3.302   5.362
18103TIP3    H275725   6.276   3.208   5.245
18104TIP3   OH275726   6.939   2.762   4.053
18104TIP3    H175727   6.995   2.784   4.132
18104TIP3    H275728   6.979   2.815   3.981
18105TIP3   OH275729   6.036   2.846   5.226
18105TIP3    H175730   6.041   2.908   5.301
18105TIP3    H275731   5.941   2.853   5.207
18106TIP3   OH275732   6.716   3.440   4.394
18106TIP3    H175733   6.754   3.461   4.482
18106TIP3    H275734   6.647   3.500   4.368
18107TIP3   OH275735   6.167   3.431   5.391
18107TIP3    H175736   6.163   3.422   5.294
18107TIP3    H275737   6.073   3.418   5.413
18108TIP3   OH275738   6.109   2.812   4.240
18108TIP3    H175739   6.082   2.891   4.188
18108TIP3    H275740   6.045   2.746   4.215
18109TIP3   OH275741   5.719   3.055   5.128
18109TIP3    H175742   5.674   3.047   5.042
18109TIP3    H275743   5.727   2.960   5.150
18110TIP3   OH275744   5.695   3.329   4.806
18110TIP3    H175745   5.791   3.317   4.804
18110TIP3    H275746   5.687   3.411   4.856
18111TIP3   OH275747   6.615   3.354   5.259
18111TIP3    H175748   6.621   3.436   5.314
18111TIP3    H275749   6.529   3.317   5.286
18112TIP3   OH275750   6.663   3.730   4.240
18112TIP3    H175751   6.650   3.719   4.143
18112TIP3    H275752   6.661   3.828   4.247
18113TIP3   OH275753   6.023   3.615   4.422
18113TIP3    H175754   6.038   3.574   4.510
18113TIP3    H275755   5.938   3.575   4.399
18114TIP3   OH275756   6.965   3.650   3.939
18114TIP3    H175757   7.008   3.573   3.895
18114TIP3    H275758   6.970   3.622   4.032
18115TIP3   OH275759   6.933   3.644   4.223
18115TIP3    H175760   6.836   3.646   4.228
18115TIP3    H275761   6.958   3.565   4.273
18116TIP3   OH275762   7.185   2.563   5.424
18116TIP3    H175763   7.182   2.598   5.334
18116TIP3    H275764   7.236   2.480   5.405
18117TIP3   OH275765   5.949   3.186   5.223
18117TIP3    H175766   5.970   3.150   5.312
18117TIP3    H275767   5.861   3.147   5.200
18118TIP3   OH275768   6.216   2.035   4.816
18118TIP3    H175769   6.126   2.022   4.781
18118TIP3    H275770   6.203   2.118   4.866
18119TIP3   OH275771   6.681   2.001   5.154
18119TIP3    H175772   6.720   1.959   5.233
18119TIP3    H275773   6.584   1.989   5.168
18120TIP3   OH275774   7.005   2.383   5.240
18120TIP3    H175775   6.952   2.363   5.321
18120TIP3    H275776   6.992   2.477   5.223
18121TIP3   OH275777   7.089   2.858   3.834
18121TIP3    H175778   7.082   2.843   3.737
18121TIP3    H275779   7.166   2.915   3.837
18122TIP3   OH275780   6.645   2.260   3.885
18122TIP3    H175781   6.613   2.253   3.976
18122TIP3    H275782   6.614   2.173   3.854
18123TIP3   OH275783   6.227   2.532   4.943
18123TIP3    H175784   6.152   2.531   5.007
18123TIP3    H275785   6.220   2.623   4.905
18124TIP3   OH275786   6.223   2.544   4.430
18124TIP3    H175787   6.129   2.520   4.417
18124TIP3    H275788   6.261   2.516   4.344
18125TIP3   OH275789   6.776   2.595   4.308
18125TIP3    H175790   6.735   2.676   4.270
18125TIP3    H275791   6.844   2.577   4.241
18126TIP3   OH275792   6.691   2.613   5.441
18126TIP3    H175793   6.629   2.545   5.478
18126TIP3    H275794   6.761   2.601   5.508
18127TIP3   OH275795   6.875   2.545   4.593
18127TIP3    H175796   6.851   2.599   4.516
18127TIP3    H275797   6.887   2.459   4.547
18128TIP3   OH275798   5.988   2.557   5.111
18128TIP3    H175799   5.997   2.597   5.199
18128TIP3    H275800   5.944   2.473   5.132
18129TIP3   OH275801   6.326   2.296   3.796
18129TIP3    H175802   6.281   2.255   3.872
18129TIP3    H275803   6.256   2.341   3.746
18130TIP3   OH275804   5.655   2.268   4.509
18130TIP3    H175805   5.721   2.264   4.581
18130TIP3    H275806   5.701   2.229   4.433
18131TIP3   OH275807   5.783   2.340   4.045
18131TIP3    H175808   5.830   2.404   3.987
18131TIP3    H275809   5.712   2.403   4.074
18132TIP3   OH275810   6.803   2.700   5.056
18132TIP3    H175811   6.835   2.635   4.988
18132TIP3    H275812   6.745   2.643   5.109
18133TIP3   OH275813   6.477   2.299   4.530
18133TIP3    H175814   6.383   2.300   4.560
18133TIP3    H275815   6.527   2.282   4.612
18134TIP3   OH275816   5.959   2.454   4.416
18134TIP3    H175817   5.870   2.470   4.378
18134TIP3    H275818   5.988   2.370   4.378
18135TIP3   OH275819   6.321   2.457   4.177
18135TIP3    H175820   6.417   2.468   4.196
18135TIP3    H275821   6.300   2.528   4.114
18136TIP3   OH275822   6.911   2.219   4.855
18136TIP3    H175823   6.844   2.227   4.926
18136TIP3    H275824   6.862   2.198   4.775
18137TIP3   OH275825   6.193   2.572   3.938
18137TIP3    H175826   6.140   2.539   3.864
18137TIP3    H275827   6.275   2.597   3.892
18138TIP3   OH275828   7.229   3.792   5.490
18138TIP3    H175829   7.263   3.824   5.405
18138TIP3    H275830   7.304   3.817   5.546
18139TIP3   OH275831   6.007   3.036   5.440
18139TIP3    H175832   6.077   3.056   5.502
18139TIP3    H275833   5.928   3.041   5.499
18140TIP3   OH275834   6.606   2.575   4.719
18140TIP3    H175835   6.667   2.521   4.666
18140TIP3    H275836   6.592   2.520   4.797
18141TIP3   OH275837   6.101   2.189   4.352
18141TIP3    H175838   6.080   2.095   4.367
18141TIP3    H275839   6.188   2.182   4.311
18142TIP3   OH275840   6.469   2.407   4.960
18142TIP3    H175841   6.387   2.459   4.969
18142TIP3    H275842   6.525   2.442   5.032
18143TIP3   OH275843   6.529   3.030   4.130
18143TIP3    H175844   6.449   2.983   4.097
18143TIP3    H275845   6.506   3.042   4.225
18144TIP3   OH275846   7.215   2.951   5.011
18144TIP3    H175847   7.288   2.964   4.947
18144TIP3    H275848   7.141   2.953   4.948
18145TIP3   OH275849   6.915   2.312   3.947
18145TIP3    H175850   6.819   2.324   3.933
18145TIP3    H275851   6.943   2.398   3.984
18146TIP3   OH275852   6.685   3.054   5.256
18146TIP3    H175853   6.637   3.017   5.331
18146TIP3    H275854   6.656   3.146   5.261
18147TIP3   OH275855   6.985   2.505   4.107
18147TIP3    H175856   7.072   2.491   4.150
18147TIP3    H275857   6.995   2.589   4.059
18148TIP3   OH275858   6.040   2.969   4.710
18148TIP3    H175859   6.108   2.961   4.640
18148TIP3    H275860   6.046   2.883   4.756
18149TIP3   OH275861   6.737   3.176   4.033
18149TIP3    H175862   6.704   3.261   4.068
18149TIP3    H275863   6.664   3.114   4.056
18150TIP3   OH275864   5.739   2.809   5.236
18150TIP3    H175865   5.754   2.765   5.322
18150TIP3    H275866   5.676   2.748   5.194
18151TIP3   OH275867   6.442   2.774   5.447
18151TIP3    H175868   6.406   2.732   5.367
18151TIP3    H275869   6.527   2.730   5.461
18152TIP3   OH275870   6.906   3.292   5.252
18152TIP3    H175871   6.817   3.318   5.225
18152TIP3    H275872   6.906   3.330   5.343
18153TIP3   OH275873   7.017   2.876   4.843
18153TIP3    H175874   6.924   2.857   4.821
18153TIP3    H275875   7.067   2.807   4.796
18154TIP3   OH275876   6.279   3.316   4.449
18154TIP3    H175877   6.326   3.397   4.427
18154TIP3    H275878   6.190   3.337   4.416
18155TIP3   OH275879   5.854   2.798   3.906
18155TIP3    H175880   5.912   2.865   3.947
18155TIP3    H275881   5.765   2.830   3.931
18156TIP3   OH275882   6.418   3.081   4.399
18156TIP3    H175883   6.386   3.172   4.409
18156TIP3    H275884   6.347   3.031   4.445
18157TIP3   OH275885   6.463   3.499   5.042
18157TIP3    H175886   6.509   3.580   5.015
18157TIP3    H275887   6.526   3.464   5.108
18158TIP3   OH275888   6.288   3.581   4.354
18158TIP3    H175889   6.190   3.591   4.366
18158TIP3    H275890   6.319   3.667   4.388
18159TIP3   OH275891   6.819   3.099   5.003
18159TIP3    H175892   6.783   3.081   5.092
18159TIP3    H275893   6.881   3.027   4.985
18160TIP3   OH275894   7.048   3.205   3.911
18160TIP3    H175895   7.080   3.161   3.993
18160TIP3    H275896   6.953   3.187   3.920
18161TIP3   OH275897   7.097   3.555   5.251
18161TIP3    H175898   7.026   3.509   5.203
18161TIP3    H275899   7.119   3.627   5.187
18162TIP3   OH275900   5.904   2.283   5.190
18162TIP3    H175901   5.813   2.318   5.188
18162TIP3    H275902   5.893   2.199   5.237
18163TIP3   OH275903   7.128   3.066   4.134
18163TIP3    H175904   7.105   2.989   4.191
18163TIP3    H275905   7.221   3.078   4.157
18164TIP3   OH275906   5.865   3.461   5.034
18164TIP3    H175907   5.896   3.369   5.035
18164TIP3    H275908   5.891   3.490   5.122
18165TIP3   OH275909   6.463   3.314   3.762
18165TIP3    H175910   6.473   3.238   3.703
18165TIP3    H275911   6.418   3.271   3.838
18166TIP3   OH275912   6.339   3.267   4.007
18166TIP3    H175913   6.367   3.215   4.084
18166TIP3    H275914   6.349   3.359   4.040
18167TIP3   OH275915   5.994   2.991   4.056
18167TIP3    H175916   5.923   3.031   4.109
18167TIP3    H275917   6.045   3.069   4.026
18168TIP3   OH275918   6.774   2.259   5.089
18168TIP3    H175919   6.849   2.264   5.148
18168TIP3    H275920   6.737   2.171   5.109
18169TIP3   OH275921   6.857   2.215   4.196
18169TIP3    H175922   6.875   2.264   4.114
18169TIP3    H275923   6.912   2.262   4.260
18170TIP3   OH275924   6.623   3.436   4.081
18170TIP3    H175925   6.537   3.484   4.080
18170TIP3    H275926   6.674   3.486   4.015
18171TIP3   OH275927   6.575   2.392   4.278
18171TIP3    H175928   6.653   2.451   4.283
18171TIP3    H275929   6.548   2.380   4.371
18172TIP3   OH275930   6.638   2.500   5.192
18172TIP3    H175931   6.639   2.548   5.277
18172TIP3    H275932   6.694   2.422   5.206
18173TIP3   OH275933   6.655   2.099   4.364
18173TIP3    H175934   6.628   2.163   4.431
18173TIP3    H275935   6.727   2.152   4.322
18174TIP3   OH275936   6.364   3.537   4.081
18174TIP3    H175937   6.369   3.617   4.023
18174TIP3    H275938   6.331   3.573   4.166
18175TIP3   OH275939   6.220   2.208   4.041
18175TIP3    H175940   6.223   2.300   4.076
18175TIP3    H275941   6.313   2.183   4.062
18176TIP3   OH275942   7.241   2.268   5.270
18176TIP3    H175943   7.151   2.309   5.265
18176TIP3    H275944   7.275   2.286   5.182
18177TIP3   OH275945   7.108   2.661   4.687
18177TIP3    H175946   7.026   2.617   4.656
18177TIP3    H275947   7.151   2.589   4.735
18178TIP3   OH275948   6.048   3.253   3.942
18178TIP3    H175949   6.116   3.315   3.973
18178TIP3    H275950   6.100   3.206   3.873
18179TIP3   OH275951   5.880   2.517   3.859
18179TIP3    H175952   5.886   2.614   3.876
18179TIP3    H275953   5.792   2.505   3.823
18180TIP3   OH275954   7.222   3.589   4.848
18180TIP3    H175955   7.206   3.656   4.779
18180TIP3    H275956   7.316   3.598   4.865
18181TIP3   OH275957   5.964   1.998   4.731
18181TIP3    H175958   5.945   2.000   4.635
18181TIP3    H275959   5.923   1.913   4.756
18182TIP3   OH275960   5.860   3.391   4.345
18182TIP3    H175961   5.774   3.435   4.341
18182TIP3    H275962   5.907   3.437   4.275
18183TIP3   OH275963   5.790   3.651   5.468
18183TIP3    H175964   5.841   3.632   5.548
18183TIP3    H275965   5.733   3.573   5.458
18184TIP3   OH275966   6.245   3.546   5.635
18184TIP3    H175967   6.326   3.500   5.666
18184TIP3    H275968   6.244   3.518   5.541
18185TIP3   OH275969   6.663   3.499   3.775
18185TIP3    H175970   6.593   3.433   3.797
18185TIP3    H275971   6.735   3.439   3.750
18186TIP3   OH275972   6.907   3.385   5.503
18186TIP3    H175973   6.866   3.303   5.539
18186TIP3    H275974   6.981   3.398   5.566
18187TIP3   OH275975   7.115   3.475   3.798
18187TIP3    H175976   7.146   3.395   3.843
18187TIP3    H275977   7.190   3.493   3.738
18188TIP3   OH275978   5.776   3.039   5.571
18188TIP3    H175979   5.788   2.944   5.546
18188TIP3    H275980   5.697   3.059   5.517
18189TIP3   OH275981   6.206   3.067   3.774
18189TIP3    H175982   6.220   2.992   3.833
18189TIP3    H275983   6.281   3.056   3.713
18190TIP3   OH275984   6.458   3.035   5.504
18190TIP3    H175985   6.405   3.062   5.426
18190TIP3    H275986   6.446   2.936   5.506
18191TIP3   OH275987   6.749   3.178   3.752
18191TIP3    H175988   6.722   3.186   3.845
18191TIP3    H275989   6.730   3.083   3.738
18192TIP3   OH275990   7.004   3.013   5.255
18192TIP3    H175991   7.086   3.070   5.244
18192TIP3    H275992   6.943   3.089   5.254
18193TIP3   OH275993   5.862   2.755   5.509
18193TIP3    H175994   5.902   2.668   5.501
18193TIP3    H275995   5.840   2.756   5.604
18194TIP3   OH275996   6.328   2.869   4.018
18194TIP3    H175997   6.276   2.815   4.080
18194TIP3    H275998   6.357   2.802   3.952
18195TIP3   OH275999   6.253   2.650   5.245
18195TIP3    H176000   6.195   2.723   5.273
18195TIP3    H276001   6.293   2.688   5.165
18196TIP3   OH276002   6.434   2.692   3.837
18196TIP3    H176003   6.419   2.683   3.741
18196TIP3    H276004   6.531   2.697   3.844
18197TIP3   OH276005   6.293   2.387   5.354
18197TIP3    H176006   6.304   2.317   5.287
18197TIP3    H276007   6.289   2.468   5.299
18198TIP3   OH276008   6.334   2.226   5.107
18198TIP3    H176009   6.385   2.272   5.036
18198TIP3    H276010   6.245   2.218   5.067
18199TIP3   OH276011   6.493   2.778   5.135
18199TIP3    H176012   6.562   2.758   5.070
18199TIP3    H276013   6.450   2.857   5.097
18200TIP3   OH276014   6.933   2.551   5.624
18200TIP3    H176015   6.954   2.457   5.621
18200TIP3    H276016   7.020   2.594   5.627
18201TIP3   OH276017   7.072   2.835   5.439
18201TIP3    H176018   7.050   2.915   5.386
18201TIP3    H276019   7.167   2.826   5.425
18202TIP3   OH276020   6.135   2.514   5.544
18202TIP3    H176021   6.062   2.453   5.527
18202TIP3    H276022   6.205   2.481   5.487
18203TIP3   OH276023   6.414   1.970   5.145
18203TIP3    H176024   6.395   2.066   5.136
18203TIP3    H276025   6.338   1.933   5.096
18204TIP3   OH276026   6.544   2.400   5.508
18204TIP3    H176027   6.508   2.384   5.597
18204TIP3    H276028   6.463   2.387   5.456
18205TIP3   OH276029   6.810   2.319   5.418
18205TIP3    H176030   6.713   2.321   5.429
18205TIP3    H276031   6.840   2.252   5.483
18206TIP3   OH276032   6.968   2.184   5.605
18206TIP3    H176033   6.966   2.085   5.606
18206TIP3    H276034   6.949   2.205   5.699
18207TIP3   OH276035   5.952   2.307   5.518
18207TIP3    H176036   5.972   2.232   5.458
18207TIP3    H276037   5.937   2.261   5.603
18208TIP3   OH276038   6.435   1.912   5.413
18208TIP3    H176039   6.501   1.839   5.414
18208TIP3    H276040   6.423   1.924   5.317
18209TIP3   OH276041   6.472   2.071   5.625
18209TIP3    H176042   6.454   2.018   5.544
18209TIP3    H276043   6.412   2.148   5.616
18210TIP3   OH276044   6.419   3.763   3.948
18210TIP3    H176045   6.516   3.771   3.950
18210TIP3    H276046   6.402   3.821   3.873
18211TIP3   OH276047   5.773   3.219   3.892
18211TIP3    H176048   5.869   3.228   3.910
18211TIP3    H276049   5.778   3.155   3.817
18212TIP3   OH276050   5.651   3.757   4.388
18212TIP3    H176051   5.579   3.709   4.343
18212TIP3    H276052   5.679   3.692   4.455
18213TIP3   OH276053   5.733   3.571   4.576
18213TIP3    H176054   5.698   3.483   4.597
18213TIP3    H276055   5.756   3.604   4.665
18214TIP3   OH276056   7.280   3.375   5.096
18214TIP3    H176057   7.214   3.420   5.150
18214TIP3    H276058   7.228   3.340   5.021
18215TIP3   OH276059   7.188   2.677   4.429
18215TIP3    H176060   7.214   2.585   4.432
18215TIP3    H276061   7.199   2.702   4.523
18216TIP3   OH276062   5.739   2.879   4.826
18216TIP3    H176063   5.757   2.871   4.729
18216TIP3    H276064   5.829   2.861   4.861
18217TIP3   OH276065   7.247   2.272   3.766
18217TIP3    H176066   7.305   2.230   3.829
18217TIP3    H276067   7.160   2.231   3.785
18218TIP3   OH276068   7.202   2.422   4.249
18218TIP3    H176069   7.230   2.338   4.289
18218TIP3    H276070   7.287   2.457   4.220
18219TIP3   OH276071  -0.053   2.399   4.810
18219TIP3    H176072   0.035   2.435   4.795
18219TIP3    H276073  -0.076   2.464   4.879
18220TIP3   OH276074   7.277   2.562   5.116
18220TIP3    H176075   7.183   2.586   5.120
18220TIP3    H276076   7.314   2.627   5.053
18221TIP3   OH276077   5.700   2.408   5.437
18221TIP3    H176078   5.792   2.387   5.462
18221TIP3    H276079   5.654   2.329   5.472
18222TIP3   OH276080   7.183   2.127   4.335
18222TIP3    H176081   7.276   2.109   4.357
18222TIP3    H276082   7.184   2.085   4.247
18223TIP3   OH276083   5.821   2.238   4.726
18223TIP3    H176084   5.867   2.155   4.752
18223TIP3    H276085   5.876   2.307   4.765
18224TIP3   OH276086   5.649   2.538   4.830
18224TIP3    H176087   5.706   2.513   4.754
18224TIP3    H276088   5.695   2.619   4.858
18225TIP3   OH276089   5.690   2.161   4.230
18225TIP3    H176090   5.594   2.177   4.227
18225TIP3    H276091   5.719   2.226   4.166
18226TIP3   OH276092   7.140   3.641   4.442
18226TIP3    H176093   7.208   3.608   4.381
18226TIP3    H276094   7.194   3.699   4.499
18227TIP3   OH276095   5.681   2.029   5.066
18227TIP3    H176096   5.615   2.010   5.135
18227TIP3    H276097   5.634   2.097   5.014
18228TIP3   OH276098   5.903   3.351   5.483
18228TIP3    H176099   5.819   3.370   5.438
18228TIP3    H276100   5.874   3.340   5.574
18229TIP3   OH276101   6.194   3.450   5.111
18229TIP3    H176102   6.161   3.537   5.084
18229TIP3    H276103   6.287   3.459   5.080
18230TIP3   OH276104   6.627   3.594   5.404
18230TIP3    H176105   6.644   3.555   5.492
18230TIP3    H276106   6.717   3.622   5.377
18231TIP3   OH276107   6.857   3.719   5.333
18231TIP3    H176108   6.932   3.661   5.309
18231TIP3    H276109   6.895   3.763   5.412
18232TIP3   OH276110   5.937   3.774   5.110
18232TIP3    H176111   5.864   3.823   5.070
18232TIP3    H276112   5.906   3.755   5.200
18233TIP3   OH276113   6.184   3.731   5.017
18233TIP3    H176114   6.095   3.747   5.057
18233TIP3    H276115   6.178   3.790   4.940
18234TIP3   OH276116   6.653   3.722   4.933
18234TIP3    H176117   6.606   3.780   4.871
18234TIP3    H276118   6.668   3.784   5.009
18235TIP3   OH276119   6.883   3.603   5.037
18235TIP3    H176120   6.797   3.630   5.003
18235TIP3    H276121   6.929   3.688   5.030
18236TIP3   OH276122   7.128   3.760   5.058
18236TIP3    H176123   7.127   3.855   5.037
18236TIP3    H276124   7.162   3.723   4.975
18237TIP3   OH276125   5.884   3.639   4.804
18237TIP3    H176126   5.874   3.593   4.890
18237TIP3    H276127   5.965   3.600   4.765
18238TIP3   OH276128   6.090   3.510   4.670
18238TIP3    H176129   6.074   3.416   4.692
18238TIP3    H276130   6.175   3.525   4.716
18239TIP3   OH276131   6.355   3.559   4.756
18239TIP3    H176132   6.364   3.465   4.732
18239TIP3    H276133   6.354   3.553   4.853
18240TIP3   OH276134   6.694   2.123   4.671
18240TIP3    H176135   6.628   2.058   4.700
18240TIP3    H276136   6.751   2.071   4.613
18241TIP3   OH276137   7.211   1.927   4.679
18241TIP3    H176138   7.269   1.989   4.634
18241TIP3    H276139   7.122   1.963   4.657
18242TIP3   OH276140   5.935   1.987   4.453
18242TIP3    H176141   5.852   1.963   4.407
18242TIP3    H276142   5.980   1.899   4.452
18243TIP3   OH276143   5.807   1.948   4.029
18243TIP3    H176144   5.845   2.002   3.958
18243TIP3    H276145   5.738   1.999   4.075
18244TIP3   OH276146   6.380   1.978   4.435
18244TIP3    H176147   6.470   2.014   4.427
18244TIP3    H276148   6.377   1.956   4.527
18245TIP3   OH276149   6.954   1.976   4.597
18245TIP3    H176150   6.948   1.994   4.503
18245TIP3    H276151   6.911   1.888   4.608
18246TIP3   OH276152   7.075   1.974   4.154
18246TIP3    H176153   7.005   2.041   4.149
18246TIP3    H276154   7.028   1.895   4.186
18247TIP3   OH276155   5.801   3.556   4.131
18247TIP3    H176156   5.736   3.554   4.059
18247TIP3    H276157   5.801   3.651   4.148
18248TIP3   OH276158   5.995   2.152   3.884
18248TIP3    H176159   6.046   2.095   3.821
18248TIP3    H276160   6.071   2.190   3.934
18249TIP3   OH276161   6.495   2.180   4.119
18249TIP3    H176162   6.520   2.122   4.193
18249TIP3    H276163   6.502   2.266   4.165
18250TIP3   OH276164   6.689   3.686   3.966
18250TIP3    H176165   6.780   3.710   3.941
18250TIP3    H276166   6.666   3.635   3.885
18251TIP3   OH276167   5.922   2.040   5.401
18251TIP3    H176168   5.880   1.963   5.443
18251TIP3    H276169   6.012   2.034   5.440
18252TIP3   OH276170   6.124   1.976   5.562
18252TIP3    H176171   6.211   1.939   5.538
18252TIP3    H276172   6.082   1.898   5.605
18253TIP3   OH276173   5.980   3.655   3.825
18253TIP3    H176174   5.955   3.680   3.915
18253TIP3    H276175   6.059   3.598   3.840
18254TIP3   OH276176   6.967   1.913   5.577
18254TIP3    H176177   6.968   1.858   5.657
18254TIP3    H276178   7.058   1.906   5.541
18255TIP3   OH276179   7.263   3.500   5.458
18255TIP3    H176180   7.196   3.494   5.386
18255TIP3    H276181   7.263   3.598   5.466
18256TIP3   OH276182   1.183   4.784   4.440
18256TIP3    H176183   1.185   4.882   4.440
18256TIP3    H276184   1.111   4.763   4.380
18257TIP3   OH276185   1.066   4.712   4.792
18257TIP3    H176186   1.071   4.646   4.864
18257TIP3    H276187   1.037   4.659   4.716
18258TIP3   OH276188   0.312   4.678   4.946
18258TIP3    H176189   0.317   4.610   5.017
18258TIP3    H276190   0.383   4.739   4.973
18259TIP3   OH276191   1.426   5.014   4.618
18259TIP3    H176192   1.409   4.933   4.668
18259TIP3    H276193   1.444   5.075   4.690
18260TIP3   OH276194   0.398   5.122   4.796
18260TIP3    H176195   0.367   5.035   4.764
18260TIP3    H276196   0.494   5.105   4.803
18261TIP3   OH276197   0.089   4.479   4.303
18261TIP3    H176198   0.045   4.558   4.343
18261TIP3    H276199   0.012   4.423   4.304
18262TIP3   OH276200   0.128   4.694   4.554
18262TIP3    H176201   0.160   4.619   4.609
18262TIP3    H276202   0.205   4.712   4.497
18263TIP3   OH276203   1.151   5.522   4.644
18263TIP3    H176204   1.216   5.453   4.615
18263TIP3    H276205   1.130   5.488   4.731
18264TIP3   OH276206   0.908   4.951   4.839
18264TIP3    H176207   0.942   4.888   4.774
18264TIP3    H276208   0.989   4.966   4.891
18265TIP3   OH276209   1.768   4.117   4.911
18265TIP3    H176210   1.786   4.175   4.988
18265TIP3    H276211   1.824   4.159   4.845
18266TIP3   OH276212   1.221   4.395   4.871
18266TIP3    H176213   1.242   4.300   4.870
18266TIP3    H276214   1.216   4.413   4.775
18267TIP3   OH276215   0.537   4.207   4.592
18267TIP3    H176216   0.548   4.289   4.542
18267TIP3    H276217   0.498   4.149   4.523
18268TIP3   OH276218   1.310   4.214   4.429
18268TIP3    H176219   1.375   4.183   4.496
18268TIP3    H276220   1.367   4.273   4.376
18269TIP3   OH276221   0.196   4.439   4.659
18269TIP3    H176222   0.268   4.392   4.706
18269TIP3    H276223   0.214   4.411   4.568
18270TIP3   OH276224   0.714   4.603   4.597
18270TIP3    H176225   0.782   4.545   4.637
18270TIP3    H276226   0.663   4.537   4.547
18271TIP3   OH276227   1.812   4.256   5.137
18271TIP3    H176228   1.752   4.335   5.127
18271TIP3    H276229   1.816   4.249   5.233
18272TIP3   OH276230   0.432   4.096   4.995
18272TIP3    H176231   0.401   4.153   4.922
18272TIP3    H276232   0.363   4.119   5.063
18273TIP3   OH276233   1.156   5.044   4.351
18273TIP3    H176234   1.130   5.017   4.262
18273TIP3    H276235   1.126   5.137   4.356
18274TIP3   OH276236   0.678   4.860   5.018
18274TIP3    H176237   0.608   4.925   5.042
18274TIP3    H276238   0.749   4.921   4.993
18275TIP3   OH276239   1.492   4.150   4.628
18275TIP3    H176240   1.470   4.073   4.682
18275TIP3    H276241   1.557   4.195   4.685
18276TIP3   OH276242   0.381   4.280   4.798
18276TIP3    H176243   0.443   4.349   4.831
18276TIP3    H276244   0.437   4.241   4.725
18277TIP3   OH276245   0.517   5.058   5.099
18277TIP3    H176246   0.518   5.153   5.074
18277TIP3    H276247   0.435   5.051   5.151
18278TIP3   OH276248   0.119   5.026   4.178
18278TIP3    H176249   0.111   5.060   4.087
18278TIP3    H276250   0.140   5.107   4.229
18279TIP3   OH276251   1.492   5.191   4.859
18279TIP3    H176252   1.395   5.200   4.868
18279TIP3    H276253   1.519   5.282   4.836
18280TIP3   OH276254   1.524   4.017   4.995
18280TIP3    H176255   1.452   4.081   4.986
18280TIP3    H276256   1.596   4.060   4.943
18281TIP3   OH276257   0.821   3.830   4.742
18281TIP3    H176258   0.808   3.734   4.735
18281TIP3    H276259   0.733   3.860   4.773
18282TIP3   OH276260   1.318   5.368   4.516
18282TIP3    H176261   1.361   5.296   4.465
18282TIP3    H276262   1.362   5.447   4.476
18283TIP3   OH276263   1.439   5.161   4.367
18283TIP3    H176264   1.410   5.090   4.308
18283TIP3    H276265   1.443   5.112   4.452
18284TIP3   OH276266   1.604   5.022   5.218
18284TIP3    H176267   1.614   4.955   5.146
18284TIP3    H276268   1.622   5.105   5.171
18285TIP3   OH276269   1.051   4.708   4.193
18285TIP3    H176270   0.981   4.766   4.157
18285TIP3    H276271   1.122   4.718   4.127
18286TIP3   OH276272   1.059   4.566   3.894
18286TIP3    H176273   1.129   4.564   3.961
18286TIP3    H276274   1.090   4.494   3.837
18287TIP3   OH276275   1.791   4.653   5.023
18287TIP3    H176276   1.723   4.723   5.023
18287TIP3    H276277   1.834   4.675   4.938
18288TIP3   OH276278   1.394   4.727   4.284
18288TIP3    H176279   1.323   4.754   4.347
18288TIP3    H276280   1.444   4.664   4.339
18289TIP3   OH276281   1.387   4.546   5.198
18289TIP3    H176282   1.389   4.628   5.252
18289TIP3    H276283   1.326   4.578   5.128
18290TIP3   OH276284   0.559   4.797   4.477
18290TIP3    H176285   0.524   4.757   4.394
18290TIP3    H276286   0.619   4.727   4.510
18291TIP3   OH276287   0.689   5.134   4.745
18291TIP3    H176288   0.688   5.081   4.664
18291TIP3    H276289   0.767   5.099   4.791
18292TIP3   OH276290   0.592   4.671   4.843
18292TIP3    H176291   0.646   4.681   4.762
18292TIP3    H276292   0.629   4.739   4.904
18293TIP3   OH276293   1.231   5.228   4.913
18293TIP3    H176294   1.202   5.291   4.980
18293TIP3    H276295   1.207   5.143   4.956
18294TIP3   OH276296   0.702   5.128   5.290
18294TIP3    H176297   0.655   5.181   5.356
18294TIP3    H276298   0.626   5.092   5.239
18295TIP3   OH276299   1.283   4.650   4.051
18295TIP3    H176300   1.339   4.668   4.132
18295TIP3    H276301   1.329   4.700   3.980
18296TIP3   OH276302   1.054   5.322   4.399
18296TIP3    H176303   1.098   5.353   4.480
18296TIP3    H276304   0.999   5.397   4.375
18297TIP3   OH276305   1.656   3.823   4.042
18297TIP3    H176306   1.561   3.835   4.066
18297TIP3    H276307   1.676   3.907   3.998
18298TIP3   OH276308   0.455   4.697   4.240
18298TIP3    H176309   0.426   4.775   4.188
18298TIP3    H276310   0.390   4.631   4.216
18299TIP3   OH276311   1.768   5.259   3.877
18299TIP3    H176312   1.785   5.354   3.895
18299TIP3    H276313   1.861   5.229   3.879
18300TIP3   OH276314   0.122   4.930   5.102
18300TIP3    H176315   0.044   4.940   5.044
18300TIP3    H276316   0.089   4.851   5.151
18301TIP3   OH276317   0.069   5.238   4.779
18301TIP3    H176318   0.151   5.198   4.806
18301TIP3    H276319   0.040   5.285   4.858
18302TIP3   OH276320   1.865   5.287   5.379
18302TIP3    H176321   1.850   5.191   5.373
18302TIP3    H276322   1.775   5.312   5.411
18303TIP3   OH276323   0.960   5.239   5.260
18303TIP3    H176324   0.963   5.322   5.312
18303TIP3    H276325   0.871   5.202   5.283
18304TIP3   OH276326   1.005   5.613   4.240
18304TIP3    H176327   0.990   5.606   4.144
18304TIP3    H276328   1.002   5.709   4.256
18305TIP3   OH276329   0.365   5.502   4.421
18305TIP3    H176330   0.380   5.461   4.510
18305TIP3    H276331   0.282   5.458   4.398
18306TIP3   OH276332   1.308   5.535   3.939
18306TIP3    H176333   1.353   5.459   3.895
18306TIP3    H276334   1.312   5.508   4.033
18307TIP3   OH276335   1.277   5.528   4.216
18307TIP3    H176336   1.181   5.536   4.233
18307TIP3    H276337   1.301   5.454   4.274
18308TIP3   OH276338   1.577   4.429   5.419
18308TIP3    H176339   1.533   4.480   5.350
18308TIP3    H276340   1.577   4.338   5.387
18309TIP3   OH276341   0.560   3.921   4.817
18309TIP3    H176342   0.470   3.909   4.780
18309TIP3    H276343   0.546   4.004   4.867
18310TIP3   OH276344   1.024   3.890   5.156
18310TIP3    H176345   1.062   3.846   5.233
18310TIP3    H276346   0.927   3.876   5.169
18311TIP3   OH276347   1.347   4.270   5.239
18311TIP3    H176348   1.297   4.253   5.321
18311TIP3    H276349   1.337   4.366   5.222
18312TIP3   OH276350   1.428   4.754   3.833
18312TIP3    H176351   1.426   4.734   3.737
18312TIP3    H276352   1.514   4.798   3.838
18313TIP3   OH276353   0.988   4.146   3.884
18313TIP3    H176354   0.956   4.139   3.976
18313TIP3    H276355   0.957   4.058   3.854
18314TIP3   OH276356   0.566   4.416   4.939
18314TIP3    H176357   0.496   4.416   5.007
18314TIP3    H276358   0.566   4.509   4.907
18315TIP3   OH276359   0.568   4.430   4.429
18315TIP3    H176360   0.474   4.405   4.415
18315TIP3    H276361   0.605   4.400   4.344
18316TIP3   OH276362   1.118   4.480   4.308
18316TIP3    H176363   1.078   4.562   4.270
18316TIP3    H276364   1.186   4.463   4.241
18317TIP3   OH276365   1.029   4.491   5.445
18317TIP3    H176366   0.968   4.428   5.484
18317TIP3    H276367   1.111   4.491   5.494
18318TIP3   OH276368   1.214   4.426   4.591
18318TIP3    H176369   1.195   4.486   4.517
18318TIP3    H276370   1.231   4.343   4.542
18319TIP3   OH276371   0.333   4.444   5.115
18319TIP3    H176372   0.332   4.482   5.204
18319TIP3    H276373   0.285   4.361   5.130
18320TIP3   OH276374   0.669   4.182   3.796
18320TIP3    H176375   0.624   4.140   3.872
18320TIP3    H276376   0.598   4.225   3.747
18321TIP3   OH276377   0.035   4.186   4.490
18321TIP3    H176378   0.069   4.151   4.576
18321TIP3    H276379   0.049   4.110   4.433
18322TIP3   OH276380   0.123   4.240   4.042
18322TIP3    H176381   0.179   4.296   3.983
18322TIP3    H276382   0.050   4.296   4.066
18323TIP3   OH276383   1.139   4.587   5.046
18323TIP3    H176384   1.179   4.519   4.988
18323TIP3    H276385   1.093   4.534   5.113
18324TIP3   OH276386   0.820   4.185   4.530
18324TIP3    H176387   0.727   4.185   4.559
18324TIP3    H276388   0.869   4.167   4.612
18325TIP3   OH276389   0.301   4.340   4.416
18325TIP3    H176390   0.214   4.357   4.376
18325TIP3    H276391   0.326   4.255   4.375
18326TIP3   OH276392   0.666   4.344   4.179
18326TIP3    H176393   0.762   4.356   4.195
18326TIP3    H276394   0.641   4.413   4.115
18327TIP3   OH276395   1.262   4.108   4.854
18327TIP3    H176396   1.193   4.113   4.924
18327TIP3    H276397   1.211   4.083   4.775
18328TIP3   OH276398   0.538   4.461   3.937
18328TIP3    H176399   0.484   4.425   3.865
18328TIP3    H276400   0.620   4.483   3.890
18329TIP3   OH276401   1.582   5.674   5.486
18329TIP3    H176402   1.611   5.713   5.402
18329TIP3    H276403   1.654   5.701   5.547
18330TIP3   OH276404   0.948   4.460   4.719
18330TIP3    H176405   1.009   4.407   4.666
18330TIP3    H276406   0.935   4.405   4.797
18331TIP3   OH276407   0.449   4.076   4.362
18331TIP3    H176408   0.418   3.984   4.362
18331TIP3    H276409   0.529   4.067   4.308
18332TIP3   OH276410   0.813   4.292   4.959
18332TIP3    H176411   0.731   4.344   4.967
18332TIP3    H276412   0.868   4.328   5.031
18333TIP3   OH276413   0.872   4.915   4.130
18333TIP3    H176414   0.792   4.869   4.097
18333TIP3    H276415   0.849   4.928   4.225
18334TIP3   OH276416   1.586   4.847   5.020
18334TIP3    H176417   1.645   4.876   4.947
18334TIP3    H276418   1.507   4.836   4.963
18335TIP3   OH276419   1.255   4.196   3.947
18335TIP3    H176420   1.160   4.212   3.934
18335TIP3    H276421   1.289   4.281   3.983
18336TIP3   OH276422   1.024   4.943   5.249
18336TIP3    H176423   0.989   4.899   5.329
18336TIP3    H276424   0.996   5.034   5.264
18337TIP3   OH276425   1.329   4.388   4.107
18337TIP3    H176426   1.416   4.376   4.151
18337TIP3    H276427   1.339   4.471   4.059
18338TIP3   OH276428   0.383   4.855   4.711
18338TIP3    H176429   0.450   4.847   4.641
18338TIP3    H276430   0.392   4.770   4.757
18339TIP3   OH276431   1.081   5.062   4.033
18339TIP3    H176432   1.047   5.147   4.069
18339TIP3    H276433   1.008   5.000   4.055
18340TIP3   OH276434   0.077   4.693   5.237
18340TIP3    H176435   0.104   4.651   5.321
18340TIP3    H276436   0.020   4.628   5.194
18341TIP3   OH276437   1.253   5.186   5.249
18341TIP3    H176438   1.160   5.201   5.227
18341TIP3    H276439   1.252   5.211   5.343
18342TIP3   OH276440   1.819   4.402   4.088
18342TIP3    H176441   1.762   4.374   4.014
18342TIP3    H276442   1.826   4.497   4.063
18343TIP3   OH276443   1.817   4.990   5.372
18343TIP3    H176444   1.728   5.008   5.334
18343TIP3    H276445   1.871   4.983   5.291
18344TIP3   OH276446   1.643   5.286   4.127
18344TIP3    H176447   1.611   5.202   4.162
18344TIP3    H276448   1.680   5.263   4.040
18345TIP3   OH276449   1.349   4.762   4.851
18345TIP3    H176450   1.261   4.739   4.820
18345TIP3    H276451   1.410   4.705   4.798
18346TIP3   OH276452   0.619   5.201   4.450
18346TIP3    H176453   0.670   5.281   4.428
18346TIP3    H276454   0.531   5.224   4.417
18347TIP3   OH276455   0.192   4.684   3.909
18347TIP3    H176456   0.256   4.750   3.945
18347TIP3    H276457   0.107   4.720   3.935
18348TIP3   OH276458   0.761   4.967   4.399
18348TIP3    H176459   0.730   5.059   4.410
18348TIP3    H276460   0.690   4.917   4.445
18349TIP3   OH276461   0.809   5.386   5.039
18349TIP3    H176462   0.853   5.467   5.012
18349TIP3    H276463   0.869   5.351   5.107
18350TIP3   OH276464   0.630   5.466   4.353
18350TIP3    H176465   0.534   5.482   4.366
18350TIP3    H276466   0.666   5.549   4.387
18351TIP3   OH276467   1.158   4.985   5.002
18351TIP3    H176468   1.126   4.965   5.093
18351TIP3    H276469   1.224   4.915   4.985
18352TIP3   OH276470   1.393   5.092   3.912
18352TIP3    H176471   1.423   5.045   3.993
18352TIP3    H276472   1.298   5.074   3.920
18353TIP3   OH276473   1.440   5.443   5.253
18353TIP3    H176474   1.371   5.394   5.204
18353TIP3    H276475   1.459   5.513   5.187
18354TIP3   OH276476   1.835   5.529   3.931
18354TIP3    H176477   1.908   5.594   3.920
18354TIP3    H276478   1.768   5.591   3.968
18355TIP3   OH276479   0.246   4.168   5.183
18355TIP3    H176480   0.158   4.205   5.195
18355TIP3    H276481   0.237   4.087   5.235
18356TIP3   OH276482   1.471   4.955   4.137
18356TIP3    H176483   1.447   4.877   4.192
18356TIP3    H276484   1.566   4.960   4.154
18357TIP3   OH276485   0.225   5.353   5.030
18357TIP3    H176486   0.236   5.257   5.034
18357TIP3    H276487   0.234   5.377   5.122
18358TIP3   OH276488   0.806   5.200   3.762
18358TIP3    H176489   0.816   5.124   3.703
18358TIP3    H276490   0.762   5.157   3.838
18359TIP3   OH276491   0.681   5.152   4.007
18359TIP3    H176492   0.710   5.101   4.084
18359TIP3    H276493   0.692   5.245   4.039
18360TIP3   OH276494   0.332   4.877   4.054
18360TIP3    H176495   0.262   4.916   4.110
18360TIP3    H276496   0.385   4.955   4.027
18361TIP3   OH276497   1.119   4.145   5.088
18361TIP3    H176498   1.193   4.150   5.150
18361TIP3    H276499   1.081   4.057   5.107
18362TIP3   OH276500   1.195   4.103   4.196
18362TIP3    H176501   1.218   4.149   4.113
18362TIP3    H276502   1.252   4.148   4.260
18363TIP3   OH276503   0.964   5.319   4.076
18363TIP3    H176504   0.882   5.371   4.084
18363TIP3    H276505   1.017   5.375   4.017
18364TIP3   OH276506   0.918   4.278   4.278
18364TIP3    H176507   0.996   4.336   4.283
18364TIP3    H276508   0.891   4.266   4.371
18365TIP3   OH276509   0.971   4.377   5.193
18365TIP3    H176510   0.981   4.440   5.268
18365TIP3    H276511   1.040   4.311   5.204
18366TIP3   OH276512   1.002   3.983   4.366
18366TIP3    H176513   0.970   4.048   4.431
18366TIP3    H276514   1.072   4.038   4.322
18367TIP3   OH276515   0.703   5.422   4.079
18367TIP3    H176516   0.714   5.504   4.024
18367TIP3    H276517   0.677   5.460   4.166
18368TIP3   OH276518   0.569   4.094   4.037
18368TIP3    H176519   0.563   4.184   4.076
18368TIP3    H276520   0.660   4.070   4.064
18369TIP3   OH276521   1.589   4.164   5.281
18369TIP3    H176522   1.498   4.198   5.268
18369TIP3    H276523   1.622   4.167   5.190
18370TIP3   OH276524   1.444   4.532   4.675
18370TIP3    H176525   1.361   4.490   4.656
18370TIP3    H276526   1.496   4.475   4.735
18371TIP3   OH276527   0.390   5.139   3.941
18371TIP3    H176528   0.457   5.202   3.972
18371TIP3    H276529   0.443   5.091   3.874
18372TIP3   OH276530   0.221   4.404   3.855
18372TIP3    H176531   0.229   4.500   3.875
18372TIP3    H276532   0.133   4.387   3.820
18373TIP3   OH276533   1.558   5.472   4.848
18373TIP3    H176534   1.550   5.541   4.779
18373TIP3    H276535   1.655   5.477   4.867
18374TIP3   OH276536   0.310   3.883   4.728
18374TIP3    H176537   0.288   3.886   4.632
18374TIP3    H276538   0.266   3.800   4.755
18375TIP3   OH276539   0.205   5.277   4.347
18375TIP3    H176540   0.120   5.321   4.341
18375TIP3    H276541   0.252   5.323   4.276
18376TIP3   OH276542   0.157   5.546   5.478
18376TIP3    H176543   0.198   5.508   5.557
18376TIP3    H276544   0.103   5.467   5.454
18377TIP3   OH276545   1.005   5.385   3.774
18377TIP3    H176546   0.936   5.319   3.797
18377TIP3    H276547   1.077   5.325   3.749
18378TIP3   OH276548   1.239   5.269   5.508
18378TIP3    H176549   1.217   5.180   5.537
18378TIP3    H276550   1.320   5.283   5.562
18379TIP3   OH276551   1.462   5.359   3.793
18379TIP3    H176552   1.492   5.282   3.844
18379TIP3    H276553   1.538   5.382   3.739
18380TIP3   OH276554   0.550   4.953   3.774
18380TIP3    H176555   0.563   4.877   3.833
18380TIP3    H276556   0.625   4.941   3.713
18381TIP3   OH276557   1.093   5.064   3.752
18381TIP3    H176558   1.066   5.072   3.845
18381TIP3    H276559   1.074   4.968   3.738
18382TIP3   OH276560   1.356   4.904   5.246
18382TIP3    H176561   1.436   4.961   5.243
18382TIP3    H276562   1.286   4.971   5.258
18383TIP3   OH276563   0.203   4.642   5.507
18383TIP3    H176564   0.247   4.555   5.501
18383TIP3    H276565   0.180   4.639   5.601
18384TIP3   OH276566   0.670   4.755   4.018
18384TIP3    H176567   0.621   4.700   4.080
18384TIP3    H276568   0.700   4.688   3.952
18385TIP3   OH276569   0.591   4.534   5.243
18385TIP3    H176570   0.544   4.609   5.281
18385TIP3    H276571   0.639   4.573   5.168
18386TIP3   OH276572   0.778   4.577   3.837
18386TIP3    H176573   0.762   4.568   3.741
18386TIP3    H276574   0.875   4.582   3.844
18387TIP3   OH276575   1.102   4.785   5.574
18387TIP3    H176576   1.198   4.801   5.571
18387TIP3    H276577   1.090   4.723   5.644
18388TIP3   OH276578   1.710   4.809   3.778
18388TIP3    H176579   1.691   4.771   3.691
18388TIP3    H276580   1.719   4.905   3.760
18389TIP3   OH276581   0.637   4.273   5.353
18389TIP3    H176582   0.649   4.202   5.287
18389TIP3    H276583   0.631   4.354   5.299
18390TIP3   OH276584   0.678   4.110   5.108
18390TIP3    H176585   0.729   4.158   5.037
18390TIP3    H276586   0.588   4.104   5.067
18391TIP3   OH276587   0.830   4.658   5.130
18391TIP3    H176588   0.908   4.644   5.074
18391TIP3    H276589   0.796   4.744   5.100
18392TIP3   OH276590   1.404   4.712   5.439
18392TIP3    H176591   1.380   4.790   5.385
18392TIP3    H276592   1.501   4.716   5.429
18393TIP3   OH276593   0.479   4.404   5.536
18393TIP3    H176594   0.405   4.339   5.531
18393TIP3    H276595   0.547   4.358   5.482
18394TIP3   OH276596   0.756   3.855   5.150
18394TIP3    H176597   0.739   3.951   5.137
18394TIP3    H276598   0.682   3.819   5.097
18395TIP3   OH276599   1.155   4.208   5.428
18395TIP3    H176600   1.059   4.200   5.420
18395TIP3    H276601   1.180   4.131   5.480
18396TIP3   OH276602   0.306   4.189   5.519
18396TIP3    H176603   0.317   4.115   5.458
18396TIP3    H276604   0.288   4.144   5.604
18397TIP3   OH276605   0.778   3.794   5.416
18397TIP3    H176606   0.846   3.724   5.414
18397TIP3    H276607   0.766   3.809   5.320
18398TIP3   OH276608   0.819   3.965   5.621
18398TIP3    H176609   0.797   3.901   5.548
18398TIP3    H276610   0.746   4.027   5.614
18399TIP3   OH276611   0.761   5.642   3.941
18399TIP3    H176612   0.856   5.659   3.953
18399TIP3    H276613   0.746   5.711   3.875
18400TIP3   OH276614   0.121   5.104   3.894
18400TIP3    H176615   0.217   5.116   3.910
18400TIP3    H276616   0.125   5.041   3.820
18401TIP3   OH276617   7.338   5.659   4.372
18401TIP3    H176618   7.247   5.638   4.341
18401TIP3    H276619   7.347   5.596   4.447
18402TIP3   OH276620   0.079   5.461   4.572
18402TIP3    H176621   0.044   5.372   4.595
18402TIP3    H276622   0.104   5.489   4.662
18403TIP3   OH276623   1.830   5.537   4.869
18403TIP3    H176624   1.833   5.552   4.965
18403TIP3    H276625   1.901   5.595   4.839
18404TIP3   OH276626   1.790   5.496   5.163
18404TIP3    H176627   1.740   5.420   5.126
18404TIP3    H276628   1.836   5.451   5.235
18405TIP3   OH276629   1.764   4.898   4.172
18405TIP3    H176630   1.850   4.939   4.191
18405TIP3    H276631   1.761   4.829   4.242
18406TIP3   OH276632   1.801   4.706   4.362
18406TIP3    H176633   1.724   4.662   4.404
18406TIP3    H276634   1.858   4.723   4.440
18407TIP3   OH276635   1.785   4.984   4.874
18407TIP3    H176636   1.853   4.938   4.821
18407TIP3    H276637   1.791   5.075   4.842
18408TIP3   OH276638   1.631   5.269   5.089
18408TIP3    H176639   1.562   5.304   5.147
18408TIP3    H276640   1.577   5.227   5.017
18409TIP3   OH276641   1.830   4.691   4.002
18409TIP3    H176642   1.773   4.725   3.930
18409TIP3    H276643   1.820   4.762   4.068
18410TIP3   OH276644   1.668   4.413   3.852
18410TIP3    H176645   1.675   4.480   3.783
18410TIP3    H276646   1.649   4.331   3.803
18411TIP3   OH276647   1.581   4.555   4.419
18411TIP3    H176648   1.567   4.460   4.419
18411TIP3    H276649   1.553   4.581   4.510
18412TIP3   OH276650   0.084   4.762   4.818
18412TIP3    H176651   0.106   4.759   4.723
18412TIP3    H276652   0.172   4.752   4.861
18413TIP3   OH276653   1.668   4.751   5.378
18413TIP3    H176654   1.727   4.678   5.407
18413TIP3    H276655   1.724   4.829   5.392
18414TIP3   OH276656   1.819   4.541   5.448
18414TIP3    H176657   1.728   4.503   5.443
18414TIP3    H276658   1.873   4.461   5.447
18415TIP3   OH276659   1.592   4.161   3.767
18415TIP3    H176660   1.651   4.117   3.831
18415TIP3    H276661   1.506   4.120   3.782
18416TIP3   OH276662   1.546   4.314   4.261
18416TIP3    H176663   1.578   4.222   4.277
18416TIP3    H276664   1.629   4.355   4.231
18417TIP3   OH276665   1.614   4.362   4.811
18417TIP3    H176666   1.707   4.395   4.806
18417TIP3    H276667   1.593   4.386   4.903
18418TIP3   OH276668   1.620   4.441   5.090
18418TIP3    H176669   1.532   4.471   5.122
18418TIP3    H276670   1.662   4.527   5.064
18419TIP3   OH276671   0.071   4.281   5.439
18419TIP3    H176672   0.159   4.263   5.474
18419TIP3    H276673   0.014   4.212   5.481
18420TIP3   OH276674   1.850   3.844   5.623
18420TIP3    H176675   1.880   3.778   5.559
18420TIP3    H276676   1.855   3.927   5.571
18421TIP3   OH276677   1.616   4.043   4.270
18421TIP3    H176678   1.637   3.999   4.355
18421TIP3    H276679   1.556   3.979   4.226
18422TIP3   OH276680   0.168   4.119   4.722
18422TIP3    H176681   0.214   4.040   4.755
18422TIP3    H276682   0.218   4.191   4.766
18423TIP3   OH276683   0.052   4.499   4.866
18423TIP3    H176684   0.054   4.456   4.778
18423TIP3    H276685   0.057   4.591   4.838
18424TIP3   OH276686   1.799   4.053   5.457
18424TIP3    H176687   1.707   4.085   5.451
18424TIP3    H276688   1.803   4.002   5.375
18425TIP3   OH276689   1.797   4.046   3.926
18425TIP3    H176690   1.839   3.975   3.872
18425TIP3    H276691   1.868   4.113   3.931
18426TIP3   OH276692   0.076   4.046   4.194
18426TIP3    H176693  -0.019   4.064   4.206
18426TIP3    H276694   0.098   4.121   4.136
18427TIP3   OH276695   1.503   5.544   4.432
18427TIP3    H176696   1.572   5.515   4.370
18427TIP3    H276697   1.555   5.594   4.497
18428TIP3   OH276698   7.355   3.912   5.088
18428TIP3    H176699   7.276   3.891   5.140
18428TIP3    H276700   7.307   3.964   5.021
18429TIP3   OH276701   0.538   5.337   5.107
18429TIP3    H176702   0.500   5.422   5.083
18429TIP3    H276703   0.631   5.346   5.079
18430TIP3   OH276704   0.970   5.476   5.402
18430TIP3    H176705   0.988   5.443   5.494
18430TIP3    H276706   1.059   5.506   5.375
18431TIP3   OH276707   1.199   5.604   5.332
18431TIP3    H176708   1.272   5.545   5.306
18431TIP3    H276709   1.239   5.646   5.409
18432TIP3   OH276710   1.701   3.866   5.243
18432TIP3    H176711   1.618   3.895   5.201
18432TIP3    H276712   1.717   3.783   5.192
18433TIP3   OH276713   0.283   5.657   5.113
18433TIP3    H176714   0.209   5.707   5.072
18433TIP3    H276715   0.247   5.640   5.200
18434TIP3   OH276716   0.529   5.622   5.013
18434TIP3    H176717   0.439   5.632   5.054
18434TIP3    H276718   0.522   5.680   4.936
18435TIP3   OH276719   0.997   5.608   4.935
18435TIP3    H176720   0.952   5.664   4.870
18435TIP3    H276721   1.011   5.672   5.009
18436TIP3   OH276722   1.226   5.490   5.040
18436TIP3    H176723   1.141   5.517   5.001
18436TIP3    H276724   1.275   5.573   5.027
18437TIP3   OH276725   1.483   5.646   5.060
18437TIP3    H176726   1.480   5.742   5.036
18437TIP3    H276727   1.506   5.608   4.973
18438TIP3   OH276728   0.221   5.524   4.804
18438TIP3    H176729   0.221   5.479   4.890
18438TIP3    H276730   0.303   5.486   4.765
18439TIP3   OH276731   0.431   5.397   4.670
18439TIP3    H176732   0.416   5.303   4.691
18439TIP3    H276733   0.517   5.411   4.715
18440TIP3   OH276734   0.693   5.443   4.757
18440TIP3    H176735   0.709   5.351   4.731
18440TIP3    H276736   0.699   5.439   4.853
18441TIP3   OH276737   1.040   4.009   4.671
18441TIP3    H176738   0.972   3.945   4.699
18441TIP3    H276739   1.094   3.955   4.613
18442TIP3   OH276740   1.553   3.813   4.678
18442TIP3    H176741   1.614   3.872   4.627
18442TIP3    H276742   1.465   3.849   4.655
18443TIP3   OH276743   1.720   3.938   4.505
18443TIP3    H176744   1.789   3.881   4.464
18443TIP3    H276745   1.770   4.022   4.516
18444TIP3   OH276746   0.278   3.870   4.459
18444TIP3    H176747   0.200   3.850   4.402
18444TIP3    H276748   0.326   3.786   4.449
18445TIP3   OH276749   0.155   3.844   4.023
18445TIP3    H176750   0.206   3.912   3.975
18445TIP3    H276751   0.099   3.901   4.080
18446TIP3   OH276752   0.723   3.864   4.435
18446TIP3    H176753   0.814   3.900   4.427
18446TIP3    H276754   0.720   3.842   4.528
18447TIP3   OH276755   1.295   3.866   4.597
18447TIP3    H176756   1.290   3.877   4.501
18447TIP3    H276757   1.257   3.775   4.610
18448TIP3   OH276758   1.422   3.869   4.165
18448TIP3    H176759   1.347   3.928   4.150
18448TIP3    H276760   1.378   3.783   4.189
18449TIP3   OH276761   0.145   5.445   4.134
18449TIP3    H176762   0.084   5.442   4.058
18449TIP3    H276763   0.147   5.541   4.148
18450TIP3   OH276764   0.335   4.041   3.882
18450TIP3    H176765   0.388   3.981   3.827
18450TIP3    H276766   0.405   4.072   3.943
18451TIP3   OH276767   0.839   4.065   4.120
18451TIP3    H176768   0.864   4.007   4.193
18451TIP3    H276769   0.846   4.152   4.165
18452TIP3   OH276770   1.033   5.569   3.966
18452TIP3    H176771   1.122   5.598   3.942
18452TIP3    H276772   1.009   5.522   3.883
18453TIP3   OH276773   1.699   5.523   4.238
18453TIP3    H176774   1.685   5.445   4.180
18453TIP3    H276775   1.698   5.596   4.173
18454TIP3   OH276776   0.260   3.928   5.404
18454TIP3    H176777   0.227   3.844   5.442
18454TIP3    H276778   0.353   3.923   5.438
18455TIP3   OH276779   0.464   3.859   5.562
18455TIP3    H176780   0.553   3.827   5.541
18455TIP3    H276781   0.427   3.781   5.608
18456TIP3   OH276782   0.324   5.537   3.824
18456TIP3    H176783   0.299   5.565   3.913
18456TIP3    H276784   0.405   5.485   3.840
18457TIP3   OH276785   1.306   3.796   5.580
18457TIP3    H176786   1.316   3.744   5.661
18457TIP3    H276787   1.397   3.792   5.546
18458TIP3   OH276788   1.631   5.399   5.439
18458TIP3    H176789   1.546   5.382   5.394
18458TIP3    H276790   1.616   5.492   5.466
18459TIP3   OH276791   3.071   4.785   4.440
18459TIP3    H176792   3.069   4.883   4.439
18459TIP3    H276793   2.998   4.762   4.381
18460TIP3   OH276794   2.956   4.711   4.792
18460TIP3    H176795   2.955   4.646   4.864
18460TIP3    H276796   2.921   4.660   4.717
18461TIP3   OH276797   2.192   4.678   4.947
18461TIP3    H176798   2.200   4.610   5.016
18461TIP3    H276799   2.266   4.736   4.969
18462TIP3   OH276800   3.325   5.006   4.620
18462TIP3    H176801   3.284   4.934   4.669
18462TIP3    H276802   3.327   5.076   4.687
18463TIP3   OH276803   2.284   5.123   4.797
18463TIP3    H176804   2.253   5.036   4.765
18463TIP3    H276805   2.380   5.105   4.802
18464TIP3   OH276806   1.951   4.479   4.342
18464TIP3    H176807   1.904   4.565   4.342
18464TIP3    H276808   1.892   4.424   4.288
18465TIP3   OH276809   2.021   4.702   4.560
18465TIP3    H176810   2.045   4.620   4.606
18465TIP3    H276811   2.090   4.711   4.493
18466TIP3   OH276812   3.037   5.522   4.644
18466TIP3    H176813   3.102   5.453   4.615
18466TIP3    H276814   3.015   5.488   4.731
18467TIP3   OH276815   2.794   4.950   4.839
18467TIP3    H176816   2.828   4.888   4.773
18467TIP3    H276817   2.875   4.966   4.890
18468TIP3   OH276818   3.653   4.117   4.911
18468TIP3    H176819   3.671   4.175   4.988
18468TIP3    H276820   3.710   4.159   4.845
18469TIP3   OH276821   3.111   4.398   4.870
18469TIP3    H176822   3.127   4.302   4.871
18469TIP3    H276823   3.100   4.412   4.774
18470TIP3   OH276824   2.422   4.206   4.592
18470TIP3    H176825   2.433   4.290   4.542
18470TIP3    H276826   2.382   4.149   4.523
18471TIP3   OH276827   3.196   4.214   4.429
18471TIP3    H176828   3.261   4.183   4.496
18471TIP3    H276829   3.252   4.272   4.376
18472TIP3   OH276830   2.086   4.447   4.665
18472TIP3    H176831   2.152   4.392   4.711
18472TIP3    H276832   2.096   4.415   4.574
18473TIP3   OH276833   2.600   4.603   4.597
18473TIP3    H176834   2.667   4.545   4.637
18473TIP3    H276835   2.548   4.537   4.547
18474TIP3   OH276836   3.697   4.256   5.140
18474TIP3    H176837   3.638   4.334   5.129
18474TIP3    H276838   3.702   4.249   5.236
18475TIP3   OH276839   2.313   4.096   4.996
18475TIP3    H176840   2.285   4.153   4.921
18475TIP3    H276841   2.245   4.119   5.064
18476TIP3   OH276842   3.042   5.044   4.350
18476TIP3    H176843   3.015   5.017   4.261
18476TIP3    H276844   3.011   5.138   4.355
18477TIP3   OH276845   2.564   4.861   5.020
18477TIP3    H176846   2.494   4.925   5.042
18477TIP3    H276847   2.635   4.920   4.991
18478TIP3   OH276848   3.377   4.149   4.628
18478TIP3    H176849   3.355   4.072   4.681
18478TIP3    H276850   3.443   4.193   4.683
18479TIP3   OH276851   2.270   4.281   4.800
18479TIP3    H176852   2.332   4.351   4.830
18479TIP3    H276853   2.321   4.241   4.725
18480TIP3   OH276854   2.409   5.062   5.102
18480TIP3    H176855   2.404   5.153   5.068
18480TIP3    H276856   2.321   5.053   5.146
18481TIP3   OH276857   2.016   5.023   4.181
18481TIP3    H176858   1.992   5.058   4.093
18481TIP3    H276859   2.026   5.106   4.232
18482TIP3   OH276860   3.378   5.189   4.857
18482TIP3    H176861   3.281   5.201   4.869
18482TIP3    H276862   3.405   5.281   4.837
18483TIP3   OH276863   3.410   4.017   4.996
18483TIP3    H176864   3.338   4.081   4.987
18483TIP3    H276865   3.481   4.059   4.943
18484TIP3   OH276866   2.707   3.830   4.742
18484TIP3    H176867   2.692   3.734   4.735
18484TIP3    H276868   2.619   3.860   4.773
18485TIP3   OH276869   3.204   5.368   4.515
18485TIP3    H176870   3.247   5.296   4.465
18485TIP3    H276871   3.247   5.447   4.476
18486TIP3   OH276872   3.325   5.160   4.368
18486TIP3    H176873   3.295   5.091   4.307
18486TIP3    H276874   3.328   5.111   4.452
18487TIP3   OH276875   3.486   5.020   5.217
18487TIP3    H176876   3.501   4.954   5.146
18487TIP3    H276877   3.507   5.104   5.172
18488TIP3   OH276878   2.936   4.708   4.193
18488TIP3    H176879   2.867   4.767   4.157
18488TIP3    H276880   3.007   4.718   4.127
18489TIP3   OH276881   2.945   4.566   3.894
18489TIP3    H176882   3.015   4.564   3.961
18489TIP3    H276883   2.975   4.494   3.837
18490TIP3   OH276884   3.675   4.651   5.020
18490TIP3    H176885   3.610   4.723   5.025
18490TIP3    H276886   3.725   4.675   4.940
18491TIP3   OH276887   3.282   4.730   4.285
18491TIP3    H176888   3.208   4.754   4.345
18491TIP3    H276889   3.329   4.662   4.337
18492TIP3   OH276890   3.273   4.546   5.197
18492TIP3    H176891   3.276   4.627   5.251
18492TIP3    H276892   3.211   4.577   5.129
18493TIP3   OH276893   2.442   4.796   4.477
18493TIP3    H176894   2.410   4.757   4.392
18493TIP3    H276895   2.504   4.727   4.510
18494TIP3   OH276896   2.574   5.134   4.745
18494TIP3    H176897   2.574   5.082   4.664
18494TIP3    H276898   2.653   5.098   4.791
18495TIP3   OH276899   2.475   4.671   4.843
18495TIP3    H176900   2.530   4.680   4.763
18495TIP3    H276901   2.514   4.737   4.904
18496TIP3   OH276902   3.118   5.228   4.914
18496TIP3    H176903   3.088   5.291   4.980
18496TIP3    H276904   3.091   5.143   4.956
18497TIP3   OH276905   2.569   5.112   5.316
18497TIP3    H176906   2.529   5.190   5.359
18497TIP3    H276907   2.504   5.093   5.244
18498TIP3   OH276908   3.169   4.650   4.052
18498TIP3    H176909   3.225   4.668   4.132
18498TIP3    H276910   3.214   4.700   3.980
18499TIP3   OH276911   2.264   4.731   5.227
18499TIP3    H176912   2.270   4.796   5.300
18499TIP3    H276913   2.170   4.739   5.207
18500TIP3   OH276914   2.940   5.322   4.399
18500TIP3    H176915   2.983   5.353   4.480
18500TIP3    H276916   2.884   5.397   4.375
18501TIP3   OH276917   2.393   5.313   5.386
18501TIP3    H176918   2.388   5.305   5.289
18501TIP3    H276919   2.299   5.303   5.412
18502TIP3   OH276920   3.541   3.823   4.042
18502TIP3    H176921   3.447   3.835   4.066
18502TIP3    H276922   3.562   3.907   3.998
18503TIP3   OH276923   2.338   4.698   4.240
18503TIP3    H176924   2.311   4.776   4.188
18503TIP3    H276925   2.274   4.631   4.215
18504TIP3   OH276926   3.653   5.259   3.877
18504TIP3    H176927   3.669   5.353   3.894
18504TIP3    H276928   3.745   5.227   3.877
18505TIP3   OH276929   1.952   4.941   5.126
18505TIP3    H176930   1.904   4.933   5.041
18505TIP3    H276931   1.955   4.846   5.149
18506TIP3   OH276932   1.926   5.218   4.804
18506TIP3    H176933   2.021   5.203   4.804
18506TIP3    H276934   1.917   5.298   4.858
18507TIP3   OH276935   3.749   5.284   5.368
18507TIP3    H176936   3.736   5.189   5.374
18507TIP3    H276937   3.665   5.312   5.413
18508TIP3   OH276938   2.843   5.239   5.260
18508TIP3    H176939   2.850   5.323   5.312
18508TIP3    H276940   2.757   5.203   5.287
18509TIP3   OH276941   2.889   5.613   4.240
18509TIP3    H176942   2.877   5.605   4.144
18509TIP3    H276943   2.889   5.709   4.256
18510TIP3   OH276944   2.269   5.488   4.455
18510TIP3    H176945   2.260   5.444   4.541
18510TIP3    H276946   2.186   5.471   4.406
18511TIP3   OH276947   3.194   5.535   3.939
18511TIP3    H176948   3.239   5.459   3.895
18511TIP3    H276949   3.198   5.508   4.033
18512TIP3   OH276950   3.164   5.528   4.217
18512TIP3    H176951   3.068   5.536   4.233
18512TIP3    H276952   3.187   5.454   4.274
18513TIP3   OH276953   3.466   4.430   5.417
18513TIP3    H176954   3.414   4.478   5.351
18513TIP3    H276955   3.461   4.338   5.389
18514TIP3   OH276956   2.177   5.072   5.223
18514TIP3    H176957   2.198   5.036   5.312
18514TIP3    H276958   2.090   5.032   5.201
18515TIP3   OH276959   2.445   3.920   4.817
18515TIP3    H176960   2.355   3.907   4.781
18515TIP3    H276961   2.432   4.003   4.866
18516TIP3   OH276962   2.910   3.886   5.155
18516TIP3    H176963   2.948   3.844   5.234
18516TIP3    H276964   2.812   3.875   5.168
18517TIP3   OH276965   3.234   4.270   5.237
18517TIP3    H176966   3.184   4.250   5.320
18517TIP3    H276967   3.222   4.365   5.221
18518TIP3   OH276968   3.314   4.754   3.833
18518TIP3    H176969   3.312   4.734   3.737
18518TIP3    H276970   3.400   4.798   3.838
18519TIP3   OH276971   2.873   4.146   3.884
18519TIP3    H176972   2.842   4.139   3.976
18519TIP3    H276973   2.843   4.058   3.854
18520TIP3   OH276974   2.456   4.418   4.944
18520TIP3    H176975   2.381   4.417   5.007
18520TIP3    H276976   2.450   4.508   4.906
18521TIP3   OH276977   2.451   4.429   4.429
18521TIP3    H176978   2.357   4.404   4.416
18521TIP3    H276979   2.489   4.400   4.344
18522TIP3   OH276980   3.003   4.480   4.307
18522TIP3    H176981   2.964   4.562   4.270
18522TIP3    H276982   3.072   4.463   4.240
18523TIP3   OH276983   2.912   4.500   5.448
18523TIP3    H176984   2.855   4.426   5.481
18523TIP3    H276985   2.993   4.486   5.498
18524TIP3   OH276986   3.107   4.429   4.591
18524TIP3    H176987   3.078   4.485   4.517
18524TIP3    H276988   3.116   4.344   4.544
18525TIP3   OH276989   2.218   4.442   5.111
18525TIP3    H176990   2.226   4.483   5.199
18525TIP3    H276991   2.173   4.359   5.132
18526TIP3   OH276992   2.554   4.182   3.796
18526TIP3    H176993   2.509   4.140   3.872
18526TIP3    H276994   2.483   4.225   3.747
18527TIP3   OH276995   1.883   4.154   4.510
18527TIP3    H176996   1.952   4.149   4.580
18527TIP3    H276997   1.928   4.116   4.432
18528TIP3   OH276998   2.009   4.225   4.044
18528TIP3    H176999   2.061   4.286   3.988
18528TIP3    H277000   1.941   4.288   4.076
18529TIP3   OH277001   3.026   4.587   5.046
18529TIP3    H177002   3.064   4.518   4.988
18529TIP3    H277003   2.980   4.534   5.113
18530TIP3   OH277004   2.706   4.185   4.530
18530TIP3    H177005   2.613   4.185   4.559
18530TIP3    H277006   2.755   4.167   4.612
18531TIP3   OH277007   2.187   4.339   4.417
18531TIP3    H177008   2.099   4.355   4.377
18531TIP3    H277009   2.216   4.256   4.376
18532TIP3   OH277010   2.552   4.344   4.179
18532TIP3    H177011   2.647   4.355   4.195
18532TIP3    H277012   2.528   4.413   4.114
18533TIP3   OH277013   3.147   4.108   4.853
18533TIP3    H177014   3.079   4.113   4.924
18533TIP3    H277015   3.096   4.083   4.775
18534TIP3   OH277016   2.423   4.462   3.938
18534TIP3    H177017   2.369   4.424   3.866
18534TIP3    H277018   2.505   4.482   3.891
18535TIP3   OH277019   3.467   5.674   5.487
18535TIP3    H177020   3.497   5.709   5.402
18535TIP3    H277021   3.539   5.700   5.546
18536TIP3   OH277022   2.234   4.920   5.444
18536TIP3    H177023   2.306   4.946   5.504
18536TIP3    H277024   2.157   4.928   5.504
18537TIP3   OH277025   2.835   4.460   4.719
18537TIP3    H177026   2.895   4.407   4.666
18537TIP3    H277027   2.820   4.405   4.797
18538TIP3   OH277028   2.336   4.075   4.363
18538TIP3    H177029   2.305   3.982   4.362
18538TIP3    H277030   2.415   4.068   4.308
18539TIP3   OH277031   2.699   4.293   4.960
18539TIP3    H177032   2.616   4.345   4.969
18539TIP3    H277033   2.754   4.328   5.033
18540TIP3   OH277034   2.758   4.915   4.130
18540TIP3    H177035   2.678   4.869   4.097
18540TIP3    H277036   2.735   4.928   4.225
18541TIP3   OH277037   3.476   4.836   5.009
18541TIP3    H177038   3.533   4.884   4.947
18541TIP3    H277039   3.390   4.840   4.963
18542TIP3   OH277040   3.140   4.197   3.948
18542TIP3    H177041   3.045   4.212   3.934
18542TIP3    H277042   3.174   4.282   3.983
18543TIP3   OH277043   2.905   4.942   5.253
18543TIP3    H177044   2.873   4.900   5.334
18543TIP3    H277045   2.881   5.035   5.265
18544TIP3   OH277046   3.214   4.389   4.110
18544TIP3    H177047   3.302   4.375   4.151
18544TIP3    H277048   3.225   4.471   4.059
18545TIP3   OH277049   2.269   4.855   4.710
18545TIP3    H177050   2.337   4.846   4.640
18545TIP3    H277051   2.274   4.769   4.756
18546TIP3   OH277052   2.967   5.062   4.033
18546TIP3    H177053   2.932   5.147   4.069
18546TIP3    H277054   2.894   5.000   4.055
18547TIP3   OH277055   1.967   4.694   5.233
18547TIP3    H177056   1.983   4.652   5.320
18547TIP3    H277057   1.903   4.635   5.191
18548TIP3   OH277058   2.669   4.652   5.455
18548TIP3    H177059   2.638   4.620   5.369
18548TIP3    H277060   2.761   4.621   5.456
18549TIP3   OH277061   3.136   5.183   5.250
18549TIP3    H177062   3.044   5.202   5.226
18549TIP3    H277063   3.134   5.213   5.344
18550TIP3   OH277064   3.705   4.402   4.088
18550TIP3    H177065   3.647   4.374   4.014
18550TIP3    H277066   3.712   4.497   4.063
18551TIP3   OH277067   3.704   4.987   5.368
18551TIP3    H177068   3.615   5.009   5.332
18551TIP3    H277069   3.758   4.982   5.287
18552TIP3   OH277070   3.530   5.285   4.127
18552TIP3    H177071   3.497   5.202   4.162
18552TIP3    H277072   3.565   5.263   4.040
18553TIP3   OH277073   3.254   4.767   4.839
18553TIP3    H177074   3.160   4.746   4.828
18553TIP3    H277075   3.297   4.691   4.795
18554TIP3   OH277076   2.506   5.200   4.449
18554TIP3    H177077   2.554   5.282   4.428
18554TIP3    H277078   2.418   5.224   4.416
18555TIP3   OH277079   2.083   4.684   3.906
18555TIP3    H177080   2.140   4.750   3.947
18555TIP3    H277081   1.993   4.715   3.931
18556TIP3   OH277082   2.647   4.967   4.399
18556TIP3    H177083   2.616   5.059   4.410
18556TIP3    H277084   2.576   4.917   4.445
18557TIP3   OH277085   2.693   5.385   5.042
18557TIP3    H177086   2.738   5.466   5.013
18557TIP3    H277087   2.754   5.351   5.109
18558TIP3   OH277088   2.517   5.464   4.354
18558TIP3    H177089   2.420   5.478   4.366
18558TIP3    H277090   2.550   5.549   4.387
18559TIP3   OH277091   3.044   4.984   5.003
18559TIP3    H177092   3.012   4.966   5.094
18559TIP3    H277093   3.109   4.914   4.986
18560TIP3   OH277094   3.279   5.093   3.912
18560TIP3    H177095   3.308   5.045   3.993
18560TIP3    H277096   3.183   5.074   3.920
18561TIP3   OH277097   3.326   5.443   5.251
18561TIP3    H177098   3.257   5.394   5.205
18561TIP3    H277099   3.344   5.514   5.185
18562TIP3   OH277100   3.725   5.528   3.938
18562TIP3    H177101   3.794   5.594   3.917
18562TIP3    H277102   3.653   5.589   3.966
18563TIP3   OH277103   2.132   4.168   5.190
18563TIP3    H177104   2.042   4.204   5.189
18563TIP3    H277105   2.122   4.084   5.238
18564TIP3   OH277106   3.356   4.956   4.136
18564TIP3    H177107   3.332   4.877   4.190
18564TIP3    H277108   3.451   4.960   4.154
18565TIP3   OH277109   2.094   5.346   5.034
18565TIP3    H177110   2.124   5.254   5.035
18565TIP3    H277111   2.120   5.376   5.122
18566TIP3   OH277112   2.691   5.200   3.762
18566TIP3    H177113   2.701   5.123   3.703
18566TIP3    H277114   2.647   5.157   3.838
18567TIP3   OH277115   2.569   5.153   4.007
18567TIP3    H177116   2.596   5.101   4.084
18567TIP3    H277117   2.578   5.245   4.040
18568TIP3   OH277118   2.224   4.875   4.056
18568TIP3    H177119   2.152   4.915   4.109
18568TIP3    H277120   2.273   4.954   4.026
18569TIP3   OH277121   3.006   4.146   5.085
18569TIP3    H177122   3.077   4.152   5.151
18569TIP3    H277123   2.967   4.058   5.107
18570TIP3   OH277124   3.080   4.102   4.196
18570TIP3    H177125   3.103   4.149   4.113
18570TIP3    H277126   3.138   4.147   4.259
18571TIP3   OH277127   2.849   5.318   4.077
18571TIP3    H177128   2.767   5.372   4.084
18571TIP3    H277129   2.903   5.374   4.018
18572TIP3   OH277130   2.803   4.278   4.278
18572TIP3    H177131   2.881   4.336   4.283
18572TIP3    H277132   2.776   4.265   4.371
18573TIP3   OH277133   2.860   4.382   5.193
18573TIP3    H177134   2.866   4.437   5.274
18573TIP3    H277135   2.924   4.311   5.205
18574TIP3   OH277136   2.888   3.983   4.366
18574TIP3    H177137   2.856   4.048   4.431
18574TIP3    H277138   2.957   4.038   4.322
18575TIP3   OH277139   2.593   5.421   4.079
18575TIP3    H177140   2.598   5.504   4.025
18575TIP3    H277141   2.560   5.458   4.165
18576TIP3   OH277142   2.454   4.094   4.037
18576TIP3    H177143   2.449   4.184   4.076
18576TIP3    H277144   2.545   4.070   4.064
18577TIP3   OH277145   3.476   4.167   5.283
18577TIP3    H177146   3.383   4.198   5.270
18577TIP3    H277147   3.506   4.167   5.191
18578TIP3   OH277148   3.338   4.546   4.682
18578TIP3    H177149   3.255   4.502   4.655
18578TIP3    H277150   3.386   4.477   4.734
18579TIP3   OH277151   2.278   5.136   3.941
18579TIP3    H177152   2.343   5.201   3.974
18579TIP3    H277153   2.331   5.091   3.872
18580TIP3   OH277154   2.112   4.406   3.856
18580TIP3    H177155   2.113   4.501   3.877
18580TIP3    H277156   2.022   4.388   3.825
18581TIP3   OH277157   3.444   5.472   4.849
18581TIP3    H177158   3.435   5.540   4.780
18581TIP3    H277159   3.540   5.477   4.868
18582TIP3   OH277160   2.193   3.884   4.731
18582TIP3    H177161   2.174   3.886   4.634
18582TIP3    H277162   2.152   3.799   4.756
18583TIP3   OH277163   2.087   5.274   4.342
18583TIP3    H177164   2.005   5.324   4.339
18583TIP3    H277165   2.138   5.326   4.278
18584TIP3   OH277166   2.009   5.543   5.471
18584TIP3    H177167   2.067   5.518   5.544
18584TIP3    H277168   1.967   5.458   5.451
18585TIP3   OH277169   2.478   5.433   5.635
18585TIP3    H177170   2.553   5.380   5.665
18585TIP3    H277171   2.473   5.406   5.541
18586TIP3   OH277172   2.891   5.385   3.774
18586TIP3    H177173   2.822   5.319   3.797
18586TIP3    H277174   2.963   5.325   3.749
18587TIP3   OH277175   3.132   5.271   5.508
18587TIP3    H177176   3.097   5.184   5.537
18587TIP3    H277177   3.208   5.282   5.568
18588TIP3   OH277178   3.347   5.359   3.793
18588TIP3    H177179   3.376   5.281   3.843
18588TIP3    H277180   3.423   5.382   3.738
18589TIP3   OH277181   2.004   4.919   5.572
18589TIP3    H177182   2.017   4.828   5.539
18589TIP3    H277183   1.927   4.945   5.518
18590TIP3   OH277184   2.435   4.953   3.775
18590TIP3    H177185   2.449   4.877   3.833
18590TIP3    H277186   2.510   4.942   3.713
18591TIP3   OH277187   2.673   4.918   5.511
18591TIP3    H177188   2.639   4.948   5.425
18591TIP3    H277189   2.680   4.819   5.501
18592TIP3   OH277190   2.978   5.064   3.752
18592TIP3    H177191   2.951   5.072   3.845
18592TIP3    H277192   2.959   4.968   3.738
18593TIP3   OH277193   3.242   4.904   5.253
18593TIP3    H177194   3.321   4.962   5.242
18593TIP3    H277195   3.172   4.971   5.254
18594TIP3   OH277196   2.086   4.641   5.509
18594TIP3    H177197   2.133   4.557   5.498
18594TIP3    H277198   2.069   4.640   5.604
18595TIP3   OH277199   2.556   4.755   4.018
18595TIP3    H177200   2.505   4.701   4.080
18595TIP3    H277201   2.585   4.688   3.952
18596TIP3   OH277202   2.482   4.535   5.247
18596TIP3    H177203   2.424   4.607   5.274
18596TIP3    H277204   2.521   4.572   5.166
18597TIP3   OH277205   2.663   4.577   3.837
18597TIP3    H177206   2.648   4.568   3.741
18597TIP3    H277207   2.761   4.582   3.844
18598TIP3   OH277208   2.988   4.799   5.585
18598TIP3    H177209   3.082   4.790   5.563
18598TIP3    H277210   2.969   4.717   5.633
18599TIP3   OH277211   3.596   4.809   3.778
18599TIP3    H177212   3.577   4.771   3.691
18599TIP3    H277213   3.605   4.905   3.760
18600TIP3   OH277214   2.525   4.274   5.351
18600TIP3    H177215   2.533   4.202   5.287
18600TIP3    H277216   2.518   4.355   5.296
18601TIP3   OH277217   2.564   4.112   5.109
18601TIP3    H177218   2.615   4.158   5.038
18601TIP3    H277219   2.474   4.104   5.070
18602TIP3   OH277220   2.717   4.660   5.132
18602TIP3    H177221   2.793   4.644   5.075
18602TIP3    H277222   2.681   4.744   5.099
18603TIP3   OH277223   3.290   4.715   5.441
18603TIP3    H177224   3.267   4.789   5.382
18603TIP3    H277225   3.387   4.715   5.427
18604TIP3   OH277226   2.368   4.401   5.545
18604TIP3    H177227   2.294   4.339   5.532
18604TIP3    H277228   2.433   4.361   5.484
18605TIP3   OH277229   2.642   3.855   5.146
18605TIP3    H177230   2.624   3.952   5.136
18605TIP3    H277231   2.567   3.818   5.097
18606TIP3   OH277232   2.768   4.287   5.508
18606TIP3    H177233   2.739   4.268   5.599
18606TIP3    H277234   2.688   4.268   5.457
18607TIP3   OH277235   3.039   4.196   5.410
18607TIP3    H177236   2.945   4.207   5.430
18607TIP3    H277237   3.071   4.142   5.485
18608TIP3   OH277238   3.192   4.066   5.610
18608TIP3    H177239   3.188   3.969   5.614
18608TIP3    H277240   3.173   4.095   5.701
18609TIP3   OH277241   2.176   4.190   5.516
18609TIP3    H177242   2.206   4.116   5.461
18609TIP3    H277243   2.177   4.149   5.605
18610TIP3   OH277244   2.663   3.795   5.418
18610TIP3    H177245   2.729   3.723   5.421
18610TIP3    H277246   2.653   3.810   5.323
18611TIP3   OH277247   2.648   5.646   3.944
18611TIP3    H177248   2.745   5.657   3.951
18611TIP3    H277249   2.631   5.708   3.872
18612TIP3   OH277250   2.002   5.105   3.892
18612TIP3    H177251   2.098   5.116   3.911
18612TIP3    H277252   2.007   5.040   3.818
18613TIP3   OH277253   1.874   5.645   4.392
18613TIP3    H177254   1.811   5.592   4.340
18613TIP3    H277255   1.912   5.578   4.452
18614TIP3   OH277256   1.960   5.457   4.577
18614TIP3    H177257   1.928   5.368   4.596
18614TIP3    H277258   1.986   5.490   4.665
18615TIP3   OH277259   3.716   5.537   4.869
18615TIP3    H177260   3.719   5.552   4.965
18615TIP3    H277261   3.786   5.595   4.839
18616TIP3   OH277262   3.675   5.496   5.162
18616TIP3    H177263   3.626   5.419   5.126
18616TIP3    H277264   3.724   5.452   5.233
18617TIP3   OH277265   3.522   5.067   5.639
18617TIP3    H177266   3.429   5.068   5.665
18617TIP3    H277267   3.550   5.153   5.670
18618TIP3   OH277268   3.649   4.901   4.174
18618TIP3    H177269   3.736   4.940   4.192
18618TIP3    H277270   3.648   4.829   4.241
18619TIP3   OH277271   3.685   4.709   4.363
18619TIP3    H177272   3.610   4.659   4.402
18619TIP3    H277273   3.745   4.722   4.439
18620TIP3   OH277274   3.661   4.978   4.860
18620TIP3    H177275   3.743   4.940   4.823
18620TIP3    H277276   3.676   5.073   4.845
18621TIP3   OH277277   3.517   5.269   5.087
18621TIP3    H177278   3.448   5.303   5.147
18621TIP3    H277279   3.462   5.228   5.017
18622TIP3   OH277280   3.715   4.691   4.002
18622TIP3    H177281   3.659   4.725   3.930
18622TIP3    H277282   3.705   4.762   4.068
18623TIP3   OH277283   3.553   4.414   3.853
18623TIP3    H177284   3.561   4.480   3.784
18623TIP3    H277285   3.534   4.331   3.804
18624TIP3   OH277286   3.467   4.556   4.420
18624TIP3    H177287   3.453   4.460   4.416
18624TIP3    H277288   3.435   4.577   4.509
18625TIP3   OH277289   1.969   4.764   4.826
18625TIP3    H177290   1.983   4.757   4.729
18625TIP3    H277291   2.058   4.746   4.860
18626TIP3   OH277292   3.552   4.753   5.385
18626TIP3    H177293   3.612   4.679   5.406
18626TIP3    H277294   3.613   4.829   5.389
18627TIP3   OH277295   3.707   4.543   5.445
18627TIP3    H177296   3.617   4.504   5.438
18627TIP3    H277297   3.760   4.462   5.448
18628TIP3   OH277298   3.478   4.161   3.767
18628TIP3    H177299   3.537   4.117   3.831
18628TIP3    H277300   3.391   4.120   3.782
18629TIP3   OH277301   3.432   4.314   4.261
18629TIP3    H177302   3.464   4.222   4.277
18629TIP3    H277303   3.514   4.355   4.231
18630TIP3   OH277304   3.498   4.369   4.810
18630TIP3    H177305   3.594   4.392   4.808
18630TIP3    H277306   3.479   4.383   4.904
18631TIP3   OH277307   3.504   4.441   5.086
18631TIP3    H177308   3.418   4.471   5.123
18631TIP3    H277309   3.549   4.527   5.066
18632TIP3   OH277310   1.930   4.292   5.440
18632TIP3    H177311   2.024   4.272   5.460
18632TIP3    H277312   1.884   4.211   5.470
18633TIP3   OH277313   3.732   3.837   5.619
18633TIP3    H177314   3.765   3.780   5.551
18633TIP3    H277315   3.739   3.927   5.578
18634TIP3   OH277316   3.502   4.043   4.270
18634TIP3    H177317   3.523   3.999   4.355
18634TIP3    H277318   3.442   3.979   4.226
18635TIP3   OH277319   2.050   4.124   4.726
18635TIP3    H177320   2.096   4.041   4.752
18635TIP3    H277321   2.105   4.193   4.765
18636TIP3   OH277322   1.882   4.420   4.833
18636TIP3    H177323   1.933   4.400   4.752
18636TIP3    H277324   1.921   4.506   4.855
18637TIP3   OH277325   3.684   4.053   5.458
18637TIP3    H177326   3.592   4.083   5.446
18637TIP3    H277327   3.690   4.003   5.376
18638TIP3   OH277328   3.683   4.047   3.926
18638TIP3    H177329   3.724   3.975   3.872
18638TIP3    H277330   3.754   4.113   3.931
18639TIP3   OH277331   1.915   4.051   4.238
18639TIP3    H177332   1.821   4.067   4.222
18639TIP3    H277333   1.957   4.099   4.164
18640TIP3   OH277334   3.388   5.545   4.432
18640TIP3    H177335   3.457   5.515   4.370
18640TIP3    H277336   3.440   5.595   4.497
18641TIP3   OH277337   1.909   3.914   5.066
18641TIP3    H177338   1.843   3.895   5.135
18641TIP3    H277339   1.864   3.982   5.013
18642TIP3   OH277340   2.133   5.239   5.484
18642TIP3    H177341   2.048   5.256   5.441
18642TIP3    H277342   2.107   5.228   5.575
18643TIP3   OH277343   2.423   5.336   5.110
18643TIP3    H177344   2.390   5.423   5.083
18643TIP3    H277345   2.516   5.344   5.080
18644TIP3   OH277346   2.858   5.473   5.400
18644TIP3    H177347   2.874   5.445   5.494
18644TIP3    H277348   2.946   5.509   5.376
18645TIP3   OH277349   3.084   5.606   5.331
18645TIP3    H177350   3.156   5.546   5.308
18645TIP3    H277351   3.121   5.646   5.412
18646TIP3   OH277352   3.587   3.866   5.242
18646TIP3    H177353   3.503   3.895   5.200
18646TIP3    H277354   3.603   3.783   5.190
18647TIP3   OH277355   2.166   5.660   5.109
18647TIP3    H177356   2.093   5.709   5.070
18647TIP3    H277357   2.135   5.640   5.198
18648TIP3   OH277358   2.413   5.618   5.019
18648TIP3    H177359   2.323   5.632   5.057
18648TIP3    H277360   2.407   5.675   4.940
18649TIP3   OH277361   2.883   5.609   4.935
18649TIP3    H177362   2.837   5.664   4.870
18649TIP3    H277363   2.896   5.672   5.009
18650TIP3   OH277364   3.112   5.489   5.037
18650TIP3    H177365   3.027   5.517   5.000
18650TIP3    H277366   3.161   5.573   5.028
18651TIP3   OH277367   3.370   5.646   5.059
18651TIP3    H177368   3.365   5.742   5.037
18651TIP3    H277369   3.392   5.609   4.971
18652TIP3   OH277370   2.112   5.525   4.805
18652TIP3    H177371   2.105   5.477   4.890
18652TIP3    H277372   2.193   5.487   4.764
18653TIP3   OH277373   2.315   5.393   4.689
18653TIP3    H177374   2.305   5.297   4.695
18653TIP3    H277375   2.408   5.408   4.717
18654TIP3   OH277376   2.580   5.444   4.757
18654TIP3    H177377   2.595   5.351   4.731
18654TIP3    H277378   2.584   5.438   4.854
18655TIP3   OH277379   2.925   4.009   4.671
18655TIP3    H177380   2.857   3.945   4.699
18655TIP3    H277381   2.980   3.955   4.613
18656TIP3   OH277382   3.439   3.814   4.677
18656TIP3    H177383   3.500   3.873   4.626
18656TIP3    H277384   3.350   3.850   4.654
18657TIP3   OH277385   3.606   3.938   4.505
18657TIP3    H177386   3.674   3.881   4.464
18657TIP3    H277387   3.656   4.022   4.516
18658TIP3   OH277388   2.162   3.871   4.456
18658TIP3    H177389   2.083   3.852   4.403
18658TIP3    H277390   2.208   3.785   4.450
18659TIP3   OH277391   2.039   3.847   4.028
18659TIP3    H177392   2.088   3.912   3.975
18659TIP3    H277393   1.982   3.904   4.082
18660TIP3   OH277394   2.609   3.864   4.435
18660TIP3    H177395   2.699   3.900   4.427
18660TIP3    H277396   2.606   3.842   4.528
18661TIP3   OH277397   3.181   3.866   4.597
18661TIP3    H177398   3.175   3.877   4.501
18661TIP3    H277399   3.143   3.775   4.610
18662TIP3   OH277400   3.307   3.869   4.165
18662TIP3    H177401   3.232   3.928   4.150
18662TIP3    H277402   3.263   3.783   4.189
18663TIP3   OH277403   1.992   5.417   4.112
18663TIP3    H177404   1.939   5.447   4.037
18663TIP3    H277405   2.031   5.504   4.142
18664TIP3   OH277406   2.222   4.041   3.879
18664TIP3    H177407   2.275   3.979   3.826
18664TIP3    H277408   2.288   4.073   3.943
18665TIP3   OH277409   2.724   4.065   4.120
18665TIP3    H177410   2.749   4.008   4.194
18665TIP3    H277411   2.731   4.152   4.165
18666TIP3   OH277412   2.918   5.573   3.964
18666TIP3    H177413   3.010   5.595   3.942
18666TIP3    H277414   2.896   5.521   3.884
18667TIP3   OH277415   3.587   5.523   4.236
18667TIP3    H177416   3.568   5.444   4.179
18667TIP3    H277417   3.580   5.596   4.172
18668TIP3   OH277418   2.150   3.925   5.402
18668TIP3    H177419   2.113   3.847   5.445
18668TIP3    H277420   2.242   3.923   5.438
18669TIP3   OH277421   2.350   3.862   5.563
18669TIP3    H177422   2.441   3.834   5.540
18669TIP3    H277423   2.320   3.781   5.604
18670TIP3   OH277424   2.210   5.540   3.825
18670TIP3    H177425   2.184   5.566   3.916
18670TIP3    H277426   2.288   5.484   3.842
18671TIP3   OH277427   3.191   3.786   5.569
18671TIP3    H177428   3.185   3.755   5.661
18671TIP3    H277429   3.284   3.794   5.541
18672TIP3   OH277430   3.516   5.398   5.440
18672TIP3    H177431   3.432   5.384   5.392
18672TIP3    H277432   3.502   5.490   5.467
18673TIP3   OH277433   4.957   4.785   4.440
18673TIP3    H177434   4.955   4.884   4.439
18673TIP3    H277435   4.883   4.762   4.381
18674TIP3   OH277436   4.842   4.710   4.792
18674TIP3    H177437   4.840   4.646   4.864
18674TIP3    H277438   4.807   4.660   4.717
18675TIP3   OH277439   4.078   4.678   4.947
18675TIP3    H177440   4.086   4.610   5.017
18675TIP3    H277441   4.153   4.735   4.970
18676TIP3   OH277442   5.210   5.006   4.620
18676TIP3    H177443   5.169   4.934   4.669
18676TIP3    H277444   5.213   5.076   4.687
18677TIP3   OH277445   4.170   5.124   4.796
18677TIP3    H177446   4.139   5.036   4.765
18677TIP3    H277447   4.265   5.105   4.802
18678TIP3   OH277448   3.834   4.479   4.346
18678TIP3    H177449   3.790   4.566   4.340
18678TIP3    H277450   3.777   4.425   4.289
18679TIP3   OH277451   3.905   4.701   4.561
18679TIP3    H177452   3.932   4.619   4.606
18679TIP3    H277453   3.974   4.712   4.494
18680TIP3   OH277454   4.922   5.521   4.644
18680TIP3    H177455   4.987   5.453   4.615
18680TIP3    H277456   4.901   5.488   4.731
18681TIP3   OH277457   4.679   4.951   4.839
18681TIP3    H177458   4.713   4.888   4.773
18681TIP3    H277459   4.760   4.967   4.890
18682TIP3   OH277460   5.539   4.117   4.910
18682TIP3    H177461   5.556   4.175   4.988
18682TIP3    H277462   5.596   4.159   4.845
18683TIP3   OH277463   4.995   4.398   4.870
18683TIP3    H177464   5.013   4.302   4.871
18683TIP3    H277465   4.986   4.411   4.773
18684TIP3   OH277466   4.307   4.207   4.592
18684TIP3    H177467   4.318   4.290   4.542
18684TIP3    H277468   4.268   4.149   4.523
18685TIP3   OH277469   5.081   4.214   4.429
18685TIP3    H177470   5.146   4.183   4.496
18685TIP3    H277471   5.138   4.272   4.376
18686TIP3   OH277472   3.970   4.448   4.665
18686TIP3    H177473   4.037   4.393   4.711
18686TIP3    H277474   3.981   4.416   4.574
18687TIP3   OH277475   4.486   4.603   4.597
18687TIP3    H177476   4.553   4.545   4.637
18687TIP3    H277477   4.434   4.537   4.547
18688TIP3   OH277478   5.582   4.256   5.140
18688TIP3    H177479   5.522   4.333   5.128
18688TIP3    H277480   5.587   4.248   5.237
18689TIP3   OH277481   4.198   4.096   4.996
18689TIP3    H177482   4.170   4.154   4.921
18689TIP3    H277483   4.131   4.119   5.064
18690TIP3   OH277484   4.927   5.044   4.350
18690TIP3    H177485   4.901   5.017   4.262
18690TIP3    H277486   4.897   5.138   4.356
18691TIP3   OH277487   4.450   4.861   5.020
18691TIP3    H177488   4.379   4.925   5.041
18691TIP3    H277489   4.520   4.921   4.990
18692TIP3   OH277490   5.262   4.149   4.628
18692TIP3    H177491   5.240   4.072   4.681
18692TIP3    H277492   5.330   4.193   4.682
18693TIP3   OH277493   4.155   4.282   4.799
18693TIP3    H177494   4.218   4.351   4.830
18693TIP3    H277495   4.207   4.241   4.725
18694TIP3   OH277496   4.294   5.061   5.101
18694TIP3    H177497   4.290   5.153   5.069
18694TIP3    H277498   4.207   5.053   5.147
18695TIP3   OH277499   3.903   5.022   4.181
18695TIP3    H177500   3.878   5.056   4.093
18695TIP3    H277501   3.911   5.105   4.232
18696TIP3   OH277502   5.262   5.186   4.855
18696TIP3    H177503   5.167   5.201   4.870
18696TIP3    H277504   5.291   5.279   4.836
18697TIP3   OH277505   5.295   4.017   4.994
18697TIP3    H177506   5.223   4.081   4.987
18697TIP3    H277507   5.367   4.061   4.945
18698TIP3   OH277508   4.592   3.830   4.742
18698TIP3    H177509   4.578   3.733   4.735
18698TIP3    H277510   4.504   3.860   4.773
18699TIP3   OH277511   5.089   5.368   4.515
18699TIP3    H177512   5.132   5.296   4.465
18699TIP3    H277513   5.133   5.447   4.477
18700TIP3   OH277514   5.211   5.160   4.368
18700TIP3    H177515   5.181   5.091   4.307
18700TIP3    H277516   5.214   5.111   4.452
18701TIP3   OH277517   5.374   5.022   5.217
18701TIP3    H177518   5.386   4.955   5.145
18701TIP3    H277519   5.392   5.105   5.170
18702TIP3   OH277520   4.822   4.709   4.193
18702TIP3    H177521   4.753   4.767   4.157
18702TIP3    H277522   4.893   4.718   4.127
18703TIP3   OH277523   4.830   4.566   3.894
18703TIP3    H177524   4.900   4.564   3.961
18703TIP3    H277525   4.861   4.494   3.837
18704TIP3   OH277526   5.561   4.651   5.021
18704TIP3    H177527   5.496   4.724   5.026
18704TIP3    H277528   5.611   4.675   4.940
18705TIP3   OH277529   5.168   4.729   4.285
18705TIP3    H177530   5.093   4.754   4.345
18705TIP3    H277531   5.215   4.662   4.338
18706TIP3   OH277532   5.158   4.547   5.198
18706TIP3    H177533   5.160   4.628   5.251
18706TIP3    H277534   5.096   4.576   5.128
18707TIP3   OH277535   4.328   4.796   4.477
18707TIP3    H177536   4.296   4.757   4.392
18707TIP3    H277537   4.389   4.727   4.510
18708TIP3   OH277538   4.460   5.134   4.745
18708TIP3    H177539   4.459   5.082   4.664
18708TIP3    H277540   4.538   5.099   4.791
18709TIP3   OH277541   4.360   4.671   4.842
18709TIP3    H177542   4.416   4.680   4.762
18709TIP3    H277543   4.399   4.737   4.903
18710TIP3   OH277544   5.003   5.227   4.914
18710TIP3    H177545   4.974   5.292   4.979
18710TIP3    H277546   4.976   5.142   4.956
18711TIP3   OH277547   4.454   5.113   5.315
18711TIP3    H177548   4.414   5.189   5.362
18711TIP3    H277549   4.389   5.094   5.244
18712TIP3   OH277550   5.055   4.650   4.052
18712TIP3    H177551   5.110   4.668   4.132
18712TIP3    H277552   5.100   4.700   3.980
18713TIP3   OH277553   4.150   4.731   5.227
18713TIP3    H177554   4.156   4.794   5.301
18713TIP3    H277555   4.055   4.739   5.207
18714TIP3   OH277556   4.826   5.323   4.400
18714TIP3    H177557   4.871   5.354   4.480
18714TIP3    H277558   4.770   5.397   4.376
18715TIP3   OH277559   4.279   5.315   5.387
18715TIP3    H177560   4.275   5.306   5.291
18715TIP3    H277561   4.186   5.302   5.413
18716TIP3   OH277562   5.426   3.823   4.039
18716TIP3    H177563   5.332   3.835   4.068
18716TIP3    H277564   5.448   3.909   4.001
18717TIP3   OH277565   4.224   4.698   4.240
18717TIP3    H177566   4.196   4.776   4.188
18717TIP3    H277567   4.159   4.631   4.215
18718TIP3   OH277568   5.537   5.260   3.876
18718TIP3    H177569   5.555   5.354   3.894
18718TIP3    H277570   5.629   5.227   3.876
18719TIP3   OH277571   3.835   4.941   5.126
18719TIP3    H177572   3.789   4.932   5.041
18719TIP3    H277573   3.842   4.846   5.150
18720TIP3   OH277574   3.810   5.215   4.806
18720TIP3    H177575   3.906   5.203   4.804
18720TIP3    H277576   3.802   5.296   4.857
18721TIP3   OH277577   5.635   5.286   5.380
18721TIP3    H177578   5.623   5.190   5.367
18721TIP3    H277579   5.547   5.307   5.411
18722TIP3   OH277580   4.730   5.242   5.260
18722TIP3    H177581   4.736   5.323   5.313
18722TIP3    H277582   4.645   5.203   5.287
18723TIP3   OH277583   4.774   5.613   4.240
18723TIP3    H177584   4.763   5.605   4.144
18723TIP3    H277585   4.774   5.709   4.256
18724TIP3   OH277586   4.137   5.501   4.423
18724TIP3    H177587   4.152   5.460   4.510
18724TIP3    H277588   4.053   5.460   4.399
18725TIP3   OH277589   5.079   5.535   3.939
18725TIP3    H177590   5.125   5.459   3.895
18725TIP3    H277591   5.083   5.508   4.033
18726TIP3   OH277592   5.049   5.528   4.216
18726TIP3    H177593   4.953   5.536   4.235
18726TIP3    H277594   5.073   5.454   4.274
18727TIP3   OH277595   4.061   5.071   5.222
18727TIP3    H177596   4.083   5.036   5.311
18727TIP3    H277597   3.973   5.032   5.201
18728TIP3   OH277598   4.331   3.920   4.817
18728TIP3    H177599   4.240   3.908   4.781
18728TIP3    H277600   4.317   4.003   4.866
18729TIP3   OH277601   4.795   3.887   5.155
18729TIP3    H177602   4.834   3.845   5.234
18729TIP3    H277603   4.698   3.874   5.168
18730TIP3   OH277604   5.121   4.271   5.239
18730TIP3    H177605   5.066   4.250   5.318
18730TIP3    H277606   5.107   4.365   5.221
18731TIP3   OH277607   5.199   4.754   3.833
18731TIP3    H177608   5.197   4.735   3.736
18731TIP3    H277609   5.285   4.798   3.839
18732TIP3   OH277610   4.762   4.144   3.884
18732TIP3    H177611   4.729   4.140   3.975
18732TIP3    H277612   4.726   4.058   3.854
18733TIP3   OH277613   4.340   4.417   4.942
18733TIP3    H177614   4.267   4.416   5.006
18733TIP3    H277615   4.337   4.509   4.907
18734TIP3   OH277616   4.337   4.429   4.429
18734TIP3    H177617   4.243   4.404   4.416
18734TIP3    H277618   4.374   4.400   4.344
18735TIP3   OH277619   4.889   4.480   4.307
18735TIP3    H177620   4.849   4.562   4.270
18735TIP3    H277621   4.957   4.463   4.240
18736TIP3   OH277622   4.801   4.496   5.443
18736TIP3    H177623   4.737   4.430   5.479
18736TIP3    H277624   4.877   4.486   5.498
18737TIP3   OH277625   4.992   4.429   4.591
18737TIP3    H177626   4.964   4.485   4.517
18737TIP3    H277627   5.002   4.344   4.544
18738TIP3   OH277628   4.101   4.442   5.110
18738TIP3    H177629   4.111   4.484   5.198
18738TIP3    H277630   4.059   4.358   5.133
18739TIP3   OH277631   4.440   4.182   3.796
18739TIP3    H177632   4.395   4.140   3.872
18739TIP3    H277633   4.369   4.225   3.747
18740TIP3   OH277634   3.769   4.153   4.510
18740TIP3    H177635   3.837   4.149   4.580
18740TIP3    H277636   3.814   4.116   4.432
18741TIP3   OH277637   3.895   4.225   4.044
18741TIP3    H177638   3.947   4.286   3.988
18741TIP3    H277639   3.826   4.288   4.076
18742TIP3   OH277640   4.914   4.587   5.048
18742TIP3    H177641   4.949   4.518   4.988
18742TIP3    H277642   4.864   4.534   5.113
18743TIP3   OH277643   4.592   4.185   4.530
18743TIP3    H177644   4.499   4.185   4.559
18743TIP3    H277645   4.640   4.167   4.612
18744TIP3   OH277646   4.073   4.340   4.417
18744TIP3    H177647   3.985   4.355   4.377
18744TIP3    H277648   4.101   4.256   4.376
18745TIP3   OH277649   4.437   4.344   4.179
18745TIP3    H177650   4.533   4.355   4.195
18745TIP3    H277651   4.414   4.413   4.114
18746TIP3   OH277652   5.033   4.108   4.854
18746TIP3    H177653   4.964   4.113   4.924
18746TIP3    H277654   4.982   4.083   4.775
18747TIP3   OH277655   4.308   4.462   3.938
18747TIP3    H177656   4.255   4.424   3.866
18747TIP3    H277657   4.390   4.483   3.891
18748TIP3   OH277658   5.351   5.674   5.492
18748TIP3    H177659   5.378   5.708   5.404
18748TIP3    H277660   5.426   5.704   5.546
18749TIP3   OH277661   4.123   4.921   5.443
18749TIP3    H177662   4.192   4.944   5.507
18749TIP3    H277663   4.043   4.930   5.500
18750TIP3   OH277664   4.720   4.460   4.719
18750TIP3    H177665   4.780   4.407   4.666
18750TIP3    H277666   4.706   4.405   4.797
18751TIP3   OH277667   4.221   4.075   4.363
18751TIP3    H177668   4.190   3.982   4.362
18751TIP3    H277669   4.300   4.068   4.308
18752TIP3   OH277670   4.584   4.292   4.959
18752TIP3    H177671   4.502   4.344   4.969
18752TIP3    H277672   4.640   4.327   5.031
18753TIP3   OH277673   4.643   4.915   4.130
18753TIP3    H177674   4.563   4.869   4.097
18753TIP3    H277675   4.620   4.928   4.225
18754TIP3   OH277676   5.362   4.835   5.012
18754TIP3    H177677   5.417   4.884   4.948
18754TIP3    H277678   5.276   4.839   4.966
18755TIP3   OH277679   5.027   4.196   3.947
18755TIP3    H177680   4.931   4.212   3.936
18755TIP3    H277681   5.059   4.281   3.984
18756TIP3   OH277682   4.793   4.941   5.253
18756TIP3    H177683   4.758   4.898   5.332
18756TIP3    H277684   4.766   5.033   5.264
18757TIP3   OH277685   5.100   4.389   4.110
18757TIP3    H177686   5.188   4.375   4.151
18757TIP3    H277687   5.110   4.471   4.059
18758TIP3   OH277688   4.154   4.855   4.710
18758TIP3    H177689   4.222   4.846   4.640
18758TIP3    H277690   4.160   4.769   4.756
18759TIP3   OH277691   4.853   5.062   4.033
18759TIP3    H177692   4.818   5.147   4.069
18759TIP3    H277693   4.779   5.000   4.055
18760TIP3   OH277694   3.853   4.695   5.235
18760TIP3    H177695   3.871   4.651   5.320
18760TIP3    H277696   3.790   4.633   5.194
18761TIP3   OH277697   5.023   5.187   5.252
18761TIP3    H177698   4.931   5.201   5.224
18761TIP3    H277699   5.015   5.211   5.345
18762TIP3   OH277700   5.588   4.401   4.088
18762TIP3    H177701   5.533   4.374   4.013
18762TIP3    H277702   5.598   4.496   4.063
18763TIP3   OH277703   5.589   4.990   5.369
18763TIP3    H177704   5.500   5.008   5.329
18763TIP3    H277705   5.644   4.981   5.288
18764TIP3   OH277706   5.415   5.285   4.127
18764TIP3    H177707   5.382   5.201   4.162
18764TIP3    H277708   5.451   5.264   4.040
18765TIP3   OH277709   5.140   4.767   4.840
18765TIP3    H177710   5.046   4.746   4.828
18765TIP3    H277711   5.183   4.691   4.795
18766TIP3   OH277712   4.392   5.200   4.449
18766TIP3    H177713   4.441   5.281   4.428
18766TIP3    H277714   4.304   5.223   4.416
18767TIP3   OH277715   3.968   4.684   3.906
18767TIP3    H177716   4.026   4.751   3.947
18767TIP3    H277717   3.879   4.715   3.931
18768TIP3   OH277718   4.532   4.967   4.400
18768TIP3    H177719   4.501   5.059   4.410
18768TIP3    H277720   4.461   4.917   4.445
18769TIP3   OH277721   4.578   5.386   5.041
18769TIP3    H177722   4.624   5.466   5.013
18769TIP3    H277723   4.640   5.350   5.107
18770TIP3   OH277724   4.401   5.466   4.353
18770TIP3    H177725   4.304   5.480   4.366
18770TIP3    H277726   4.437   5.549   4.387
18771TIP3   OH277727   4.931   4.986   5.005
18771TIP3    H177728   4.897   4.964   5.093
18771TIP3    H277729   4.994   4.914   4.986
18772TIP3   OH277730   5.164   5.093   3.912
18772TIP3    H177731   5.194   5.045   3.993
18772TIP3    H277732   5.069   5.074   3.920
18773TIP3   OH277733   5.210   5.442   5.255
18773TIP3    H177734   5.143   5.395   5.202
18773TIP3    H277735   5.231   5.513   5.190
18774TIP3   OH277736   5.610   5.528   3.938
18774TIP3    H177737   5.679   5.594   3.917
18774TIP3    H277738   5.539   5.589   3.966
18775TIP3   OH277739   4.018   4.167   5.193
18775TIP3    H177740   3.928   4.203   5.189
18775TIP3    H277741   4.006   4.082   5.237
18776TIP3   OH277742   5.242   4.956   4.136
18776TIP3    H177743   5.218   4.877   4.190
18776TIP3    H277744   5.337   4.960   4.154
18777TIP3   OH277745   3.979   5.347   5.034
18777TIP3    H177746   4.010   5.255   5.035
18777TIP3    H277747   4.006   5.376   5.122
18778TIP3   OH277748   4.577   5.200   3.762
18778TIP3    H177749   4.587   5.123   3.703
18778TIP3    H277750   4.533   5.157   3.838
18779TIP3   OH277751   4.454   5.152   4.007
18779TIP3    H177752   4.481   5.101   4.084
18779TIP3    H277753   4.463   5.245   4.039
18780TIP3   OH277754   4.109   4.877   4.056
18780TIP3    H177755   4.037   4.916   4.109
18780TIP3    H277756   4.159   4.955   4.026
18781TIP3   OH277757   4.890   4.144   5.085
18781TIP3    H177758   4.962   4.151   5.148
18781TIP3    H277759   4.852   4.057   5.108
18782TIP3   OH277760   4.965   4.103   4.197
18782TIP3    H177761   4.988   4.150   4.115
18782TIP3    H277762   5.023   4.147   4.261
18783TIP3   OH277763   4.735   5.319   4.077
18783TIP3    H177764   4.653   5.372   4.084
18783TIP3    H277765   4.789   5.374   4.018
18784TIP3   OH277766   4.689   4.278   4.278
18784TIP3    H177767   4.767   4.336   4.283
18784TIP3    H277768   4.662   4.265   4.371
18785TIP3   OH277769   4.744   4.380   5.193
18785TIP3    H177770   4.749   4.438   5.272
18785TIP3    H277771   4.810   4.311   5.207
18786TIP3   OH277772   4.773   3.983   4.366
18786TIP3    H177773   4.741   4.048   4.431
18786TIP3    H277774   4.843   4.038   4.322
18787TIP3   OH277775   4.475   5.422   4.080
18787TIP3    H177776   4.484   5.503   4.024
18787TIP3    H277777   4.447   5.458   4.167
18788TIP3   OH277778   4.339   4.094   4.037
18788TIP3    H177779   4.334   4.184   4.076
18788TIP3    H277780   4.430   4.070   4.064
18789TIP3   OH277781   5.362   4.169   5.285
18789TIP3    H177782   5.270   4.201   5.270
18789TIP3    H277783   5.392   4.167   5.192
18790TIP3   OH277784   5.224   4.546   4.682
18790TIP3    H177785   5.141   4.502   4.655
18790TIP3    H277786   5.272   4.477   4.734
18791TIP3   OH277787   4.163   5.138   3.941
18791TIP3    H177788   4.229   5.201   3.973
18791TIP3    H277789   4.215   5.092   3.873
18792TIP3   OH277790   3.997   4.406   3.856
18792TIP3    H177791   3.999   4.501   3.877
18792TIP3    H277792   3.908   4.388   3.825
18793TIP3   OH277793   5.322   5.450   4.827
18793TIP3    H177794   5.314   5.537   4.782
18793TIP3    H277795   5.407   5.471   4.869
18794TIP3   OH277796   4.079   3.884   4.730
18794TIP3    H177797   4.060   3.886   4.634
18794TIP3    H277798   4.037   3.799   4.755
18795TIP3   OH277799   3.974   5.276   4.345
18795TIP3    H177800   3.889   5.321   4.340
18795TIP3    H277801   4.022   5.323   4.275
18796TIP3   OH277802   3.899   5.541   5.468
18796TIP3    H177803   3.952   5.521   5.547
18796TIP3    H277804   3.852   5.456   5.455
18797TIP3   OH277805   4.776   5.385   3.774
18797TIP3    H177806   4.707   5.319   3.797
18797TIP3    H277807   4.848   5.325   3.749
18798TIP3   OH277808   5.232   5.359   3.793
18798TIP3    H177809   5.262   5.281   3.843
18798TIP3    H277810   5.308   5.382   3.738
18799TIP3   OH277811   3.887   4.916   5.572
18799TIP3    H177812   3.905   4.827   5.537
18799TIP3    H277813   3.812   4.944   5.516
18800TIP3   OH277814   4.321   4.953   3.775
18800TIP3    H177815   4.335   4.877   3.833
18800TIP3    H277816   4.396   4.941   3.713
18801TIP3   OH277817   4.562   4.920   5.506
18801TIP3    H177818   4.522   4.946   5.422
18801TIP3    H277819   4.570   4.823   5.504
18802TIP3   OH277820   4.864   5.064   3.752
18802TIP3    H177821   4.837   5.072   3.845
18802TIP3    H277822   4.845   4.968   3.738
18803TIP3   OH277823   5.130   4.905   5.253
18803TIP3    H177824   5.206   4.964   5.241
18803TIP3    H277825   5.057   4.969   5.255
18804TIP3   OH277826   3.973   4.642   5.511
18804TIP3    H177827   4.017   4.557   5.498
18804TIP3    H277828   3.956   4.641   5.606
18805TIP3   OH277829   4.441   4.755   4.018
18805TIP3    H177830   4.391   4.701   4.080
18805TIP3    H277831   4.471   4.688   3.952
18806TIP3   OH277832   4.362   4.533   5.241
18806TIP3    H177833   4.312   4.609   5.274
18806TIP3    H277834   4.410   4.573   5.167
18807TIP3   OH277835   4.549   4.577   3.837
18807TIP3    H177836   4.534   4.568   3.741
18807TIP3    H277837   4.646   4.582   3.844
18808TIP3   OH277838   4.878   4.797   5.581
18808TIP3    H177839   4.973   4.795   5.570
18808TIP3    H277840   4.849   4.720   5.631
18809TIP3   OH277841   5.481   4.809   3.779
18809TIP3    H177842   5.463   4.771   3.692
18809TIP3    H277843   5.491   4.905   3.760
18810TIP3   OH277844   4.407   4.272   5.353
18810TIP3    H177845   4.419   4.203   5.287
18810TIP3    H277846   4.405   4.355   5.300
18811TIP3   OH277847   4.449   4.110   5.107
18811TIP3    H177848   4.500   4.159   5.037
18811TIP3    H277849   4.359   4.104   5.066
18812TIP3   OH277850   4.600   4.659   5.128
18812TIP3    H177851   4.679   4.645   5.074
18812TIP3    H277852   4.566   4.745   5.098
18813TIP3   OH277853   5.175   4.718   5.443
18813TIP3    H177854   5.150   4.789   5.381
18813TIP3    H277855   5.270   4.714   5.420
18814TIP3   OH277856   4.251   4.400   5.541
18814TIP3    H177857   4.178   4.338   5.526
18814TIP3    H277858   4.320   4.364   5.482
18815TIP3   OH277859   4.528   3.855   5.146
18815TIP3    H177860   4.510   3.952   5.136
18815TIP3    H277861   4.453   3.819   5.096
18816TIP3   OH277862   4.658   4.278   5.510
18816TIP3    H177863   4.616   4.270   5.597
18816TIP3    H277864   4.579   4.271   5.453
18817TIP3   OH277865   4.927   4.204   5.420
18817TIP3    H177866   4.829   4.207   5.426
18817TIP3    H277867   4.952   4.137   5.485
18818TIP3   OH277868   5.077   4.066   5.611
18818TIP3    H177869   5.083   3.967   5.606
18818TIP3    H277870   5.062   4.084   5.703
18819TIP3   OH277871   4.065   4.191   5.518
18819TIP3    H177872   4.091   4.119   5.459
18819TIP3    H277873   4.059   4.149   5.606
18820TIP3   OH277874   4.548   3.794   5.418
18820TIP3    H177875   4.615   3.722   5.415
18820TIP3    H277876   4.537   3.809   5.322
18821TIP3   OH277877   4.589   3.957   5.626
18821TIP3    H177878   4.569   3.905   5.544
18821TIP3    H277879   4.526   4.032   5.620
18822TIP3   OH277880   4.532   5.647   3.945
18822TIP3    H177881   4.629   5.656   3.952
18822TIP3    H277882   4.517   5.708   3.871
18823TIP3   OH277883   3.887   5.105   3.892
18823TIP3    H177884   3.984   5.114   3.910
18823TIP3    H277885   3.892   5.040   3.817
18824TIP3   OH277886   3.765   5.643   4.389
18824TIP3    H177887   3.693   5.595   4.343
18824TIP3    H277888   3.793   5.578   4.455
18825TIP3   OH277889   3.848   5.457   4.576
18825TIP3    H177890   3.812   5.369   4.597
18825TIP3    H277891   3.870   5.490   4.665
18826TIP3   OH277892   5.664   5.486   4.872
18826TIP3    H177893   5.613   5.527   4.946
18826TIP3    H277894   5.672   5.576   4.834
18827TIP3   OH277895   5.557   5.492   5.175
18827TIP3    H177896   5.514   5.421   5.123
18827TIP3    H277897   5.616   5.443   5.232
18828TIP3   OH277898   5.532   4.903   4.175
18828TIP3    H177899   5.620   4.940   4.191
18828TIP3    H277900   5.533   4.829   4.240
18829TIP3   OH277901   5.571   4.709   4.363
18829TIP3    H177902   5.497   4.658   4.402
18829TIP3    H277903   5.631   4.722   4.439
18830TIP3   OH277904   5.547   4.980   4.863
18830TIP3    H177905   5.627   4.942   4.823
18830TIP3    H277906   5.561   5.074   4.844
18831TIP3   OH277907   5.401   5.263   5.093
18831TIP3    H177908   5.332   5.306   5.146
18831TIP3    H277909   5.349   5.231   5.016
18832TIP3   OH277910   5.600   4.690   4.003
18832TIP3    H177911   5.546   4.726   3.930
18832TIP3    H277912   5.592   4.762   4.068
18833TIP3   OH277913   5.437   4.413   3.852
18833TIP3    H177914   5.446   4.482   3.785
18833TIP3    H277915   5.422   4.332   3.801
18834TIP3   OH277916   5.353   4.556   4.420
18834TIP3    H177917   5.338   4.460   4.416
18834TIP3    H277918   5.320   4.577   4.509
18835TIP3   OH277919   3.854   4.764   4.826
18835TIP3    H177920   3.871   4.756   4.729
18835TIP3    H277921   3.943   4.747   4.861
18836TIP3   OH277922   5.439   4.754   5.398
18836TIP3    H177923   5.500   4.678   5.401
18836TIP3    H277924   5.500   4.829   5.383
18837TIP3   OH277925   5.589   4.542   5.452
18837TIP3    H177926   5.504   4.503   5.431
18837TIP3    H277927   5.645   4.462   5.447
18838TIP3   OH277928   5.363   4.148   3.761
18838TIP3    H177929   5.424   4.121   3.833
18838TIP3    H277930   5.275   4.129   3.800
18839TIP3   OH277931   5.317   4.314   4.261
18839TIP3    H177932   5.349   4.222   4.277
18839TIP3    H277933   5.400   4.355   4.231
18840TIP3   OH277934   5.384   4.368   4.808
18840TIP3    H177935   5.480   4.392   4.809
18840TIP3    H277936   5.364   4.382   4.902
18841TIP3   OH277937   5.390   4.441   5.088
18841TIP3    H177938   5.302   4.469   5.123
18841TIP3    H277939   5.433   4.527   5.065
18842TIP3   OH277940   3.816   4.290   5.434
18842TIP3    H177941   3.909   4.273   5.460
18842TIP3    H277942   3.770   4.213   5.473
18843TIP3   OH277943   5.632   3.852   5.622
18843TIP3    H177944   5.647   3.778   5.562
18843TIP3    H277945   5.629   3.932   5.570
18844TIP3   OH277946   5.387   4.043   4.270
18844TIP3    H177947   5.408   3.999   4.355
18844TIP3    H277948   5.327   3.979   4.226
18845TIP3   OH277949   3.935   4.124   4.726
18845TIP3    H177950   3.981   4.041   4.752
18845TIP3    H277951   3.991   4.193   4.765
18846TIP3   OH277952   3.764   4.424   4.830
18846TIP3    H177953   3.820   4.399   4.754
18846TIP3    H277954   3.810   4.504   4.857
18847TIP3   OH277955   5.569   4.060   5.453
18847TIP3    H177956   5.475   4.081   5.450
18847TIP3    H277957   5.574   3.999   5.378
18848TIP3   OH277958   5.567   4.048   3.923
18848TIP3    H177959   5.611   3.975   3.874
18848TIP3    H277960   5.640   4.113   3.933
18849TIP3   OH277961   3.801   4.051   4.238
18849TIP3    H177962   3.706   4.067   4.222
18849TIP3    H277963   3.842   4.099   4.164
18850TIP3   OH277964   5.273   5.545   4.430
18850TIP3    H177965   5.344   5.514   4.371
18850TIP3    H277966   5.324   5.594   4.499
18851TIP3   OH277967   3.795   3.915   5.066
18851TIP3    H177968   3.727   3.896   5.133
18851TIP3    H277969   3.749   3.983   5.011
18852TIP3   OH277970   4.018   5.239   5.487
18852TIP3    H177971   3.935   5.256   5.440
18852TIP3    H277972   3.988   5.229   5.577
18853TIP3   OH277973   4.311   5.337   5.113
18853TIP3    H177974   4.274   5.421   5.081
18853TIP3    H277975   4.402   5.345   5.079
18854TIP3   OH277976   4.970   5.604   5.332
18854TIP3    H177977   5.044   5.548   5.305
18854TIP3    H277978   5.007   5.648   5.411
18855TIP3   OH277979   5.473   3.867   5.239
18855TIP3    H177980   5.388   3.893   5.201
18855TIP3    H277981   5.489   3.781   5.192
18856TIP3   OH277982   4.052   5.660   5.110
18856TIP3    H177983   3.978   5.709   5.070
18856TIP3    H277984   4.019   5.640   5.199
18857TIP3   OH277985   4.298   5.617   5.016
18857TIP3    H177986   4.210   5.633   5.057
18857TIP3    H277987   4.292   5.676   4.939
18858TIP3   OH277988   4.769   5.608   4.934
18858TIP3    H177989   4.723   5.664   4.869
18858TIP3    H277990   4.782   5.671   5.008
18859TIP3   OH277991   4.996   5.486   5.036
18859TIP3    H177992   4.913   5.518   4.998
18859TIP3    H277993   5.047   5.570   5.030
18860TIP3   OH277994   5.223   5.648   5.063
18860TIP3    H177995   5.248   5.742   5.043
18860TIP3    H277996   5.277   5.615   4.988
18861TIP3   OH277997   3.998   5.524   4.804
18861TIP3    H177998   3.989   5.478   4.890
18861TIP3    H277999   4.079   5.486   4.765
18862TIP3   OH278000   4.205   5.395   4.670
18862TIP3    H178001   4.189   5.302   4.693
18862TIP3    H278002   4.291   5.411   4.715
18863TIP3   OH278003   4.466   5.444   4.758
18863TIP3    H178004   4.481   5.351   4.731
18863TIP3    H278005   4.470   5.438   4.855
18864TIP3   OH278006   4.811   4.009   4.671
18864TIP3    H178007   4.743   3.945   4.699
18864TIP3    H278008   4.866   3.955   4.613
18865TIP3   OH278009   5.324   3.813   4.677
18865TIP3    H178010   5.385   3.873   4.627
18865TIP3    H278011   5.236   3.850   4.654
18866TIP3   OH278012   5.491   3.938   4.505
18866TIP3    H178013   5.560   3.881   4.464
18866TIP3    H278014   5.542   4.022   4.516
18867TIP3   OH278015   4.048   3.871   4.456
18867TIP3    H178016   3.968   3.852   4.403
18867TIP3    H278017   4.094   3.785   4.450
18868TIP3   OH278018   3.924   3.846   4.028
18868TIP3    H178019   3.974   3.912   3.975
18868TIP3    H278020   3.868   3.904   4.082
18869TIP3   OH278021   4.495   3.864   4.435
18869TIP3    H178022   4.585   3.900   4.427
18869TIP3    H278023   4.491   3.842   4.528
18870TIP3   OH278024   5.066   3.866   4.597
18870TIP3    H178025   5.061   3.877   4.501
18870TIP3    H278026   5.028   3.775   4.610
18871TIP3   OH278027   5.193   3.869   4.162
18871TIP3    H178028   5.117   3.928   4.152
18871TIP3    H278029   5.150   3.784   4.187
18872TIP3   OH278030   3.916   5.441   4.131
18872TIP3    H178031   3.850   5.440   4.059
18872TIP3    H278032   3.916   5.537   4.148
18873TIP3   OH278033   4.107   4.041   3.879
18873TIP3    H178034   4.160   3.979   3.826
18873TIP3    H278035   4.174   4.073   3.943
18874TIP3   OH278036   4.610   4.065   4.119
18874TIP3    H178037   4.635   4.008   4.193
18874TIP3    H278038   4.617   4.152   4.165
18875TIP3   OH278039   4.803   5.573   3.964
18875TIP3    H178040   4.895   5.595   3.942
18875TIP3    H278041   4.781   5.521   3.884
18876TIP3   OH278042   5.473   5.523   4.237
18876TIP3    H178043   5.453   5.444   4.179
18876TIP3    H278044   5.466   5.596   4.172
18877TIP3   OH278045   4.034   3.925   5.403
18877TIP3    H178046   3.999   3.848   5.446
18877TIP3    H278047   4.127   3.924   5.436
18878TIP3   OH278048   4.236   3.858   5.563
18878TIP3    H178049   4.327   3.832   5.539
18878TIP3    H278050   4.207   3.778   5.608
18879TIP3   OH278051   4.095   5.540   3.825
18879TIP3    H178052   4.069   5.566   3.915
18879TIP3    H278053   4.174   5.484   3.841
18880TIP3   OH278054   5.078   3.797   5.581
18880TIP3    H178055   5.088   3.742   5.659
18880TIP3    H278056   5.168   3.789   5.542
18881TIP3   OH278057   6.850   4.789   4.432
18881TIP3    H178058   6.826   4.883   4.447
18881TIP3    H278059   6.768   4.758   4.387
18882TIP3   OH278060   6.734   4.709   4.790
18882TIP3    H178061   6.727   4.647   4.864
18882TIP3    H278062   6.693   4.659   4.717
18883TIP3   OH278063   5.961   4.681   4.952
18883TIP3    H178064   5.973   4.609   5.016
18883TIP3    H278065   6.040   4.735   4.967
18884TIP3   OH278066   7.090   5.001   4.615
18884TIP3    H178067   7.058   4.932   4.675
18884TIP3    H278068   7.100   5.073   4.681
18885TIP3   OH278069   6.057   5.123   4.797
18885TIP3    H178070   6.024   5.037   4.766
18885TIP3    H278071   6.152   5.103   4.801
18886TIP3   OH278072   5.718   4.478   4.348
18886TIP3    H178073   5.676   4.566   4.339
18886TIP3    H278074   5.663   4.425   4.289
18887TIP3   OH278075   5.790   4.702   4.562
18887TIP3    H178076   5.819   4.619   4.605
18887TIP3    H278077   5.859   4.712   4.493
18888TIP3   OH278078   6.809   5.521   4.643
18888TIP3    H178079   6.873   5.451   4.615
18888TIP3    H278080   6.785   5.488   4.730
18889TIP3   OH278081   6.564   4.950   4.839
18889TIP3    H178082   6.597   4.887   4.773
18889TIP3    H278083   6.645   4.966   4.889
18890TIP3   OH278084   6.883   4.399   4.869
18890TIP3    H178085   6.899   4.303   4.868
18890TIP3    H278086   6.873   4.414   4.773
18891TIP3   OH278087   6.192   4.204   4.593
18891TIP3    H178088   6.204   4.289   4.543
18891TIP3    H278089   6.153   4.149   4.523
18892TIP3   OH278090   6.970   4.219   4.430
18892TIP3    H178091   7.034   4.182   4.496
18892TIP3    H278092   7.029   4.271   4.376
18893TIP3   OH278093   5.857   4.448   4.665
18893TIP3    H178094   5.921   4.392   4.712
18893TIP3    H278095   5.868   4.417   4.574
18894TIP3   OH278096   6.371   4.601   4.603
18894TIP3    H178097   6.440   4.542   4.636
18894TIP3    H278098   6.322   4.542   4.543
18895TIP3   OH278099   6.083   4.095   4.993
18895TIP3    H178100   6.056   4.154   4.920
18895TIP3    H278101   6.017   4.119   5.063
18896TIP3   OH278102   6.821   5.043   4.346
18896TIP3    H178103   6.779   5.017   4.262
18896TIP3    H278104   6.783   5.134   4.358
18897TIP3   OH278105   6.334   4.860   5.021
18897TIP3    H178106   6.265   4.926   5.041
18897TIP3    H278107   6.405   4.920   4.991
18898TIP3   OH278108   7.117   4.145   4.640
18898TIP3    H178109   7.121   4.064   4.690
18898TIP3    H278110   7.194   4.193   4.679
18899TIP3   OH278111   6.041   4.282   4.800
18899TIP3    H178112   6.104   4.350   4.831
18899TIP3    H278113   6.092   4.241   4.725
18900TIP3   OH278114   6.180   5.060   5.101
18900TIP3    H178115   6.177   5.153   5.070
18900TIP3    H278116   6.091   5.056   5.144
18901TIP3   OH278117   5.785   5.023   4.183
18901TIP3    H178118   5.764   5.055   4.093
18901TIP3    H278119   5.796   5.107   4.233
18902TIP3   OH278120   7.129   5.180   4.862
18902TIP3    H178121   7.034   5.203   4.873
18902TIP3    H278122   7.168   5.265   4.837
18903TIP3   OH278123   7.162   4.031   4.970
18903TIP3    H178124   7.092   4.099   4.982
18903TIP3    H278125   7.238   4.080   4.939
18904TIP3   OH278126   6.478   3.828   4.737
18904TIP3    H178127   6.461   3.732   4.739
18904TIP3    H278128   6.392   3.862   4.773
18905TIP3   OH278129   6.967   5.360   4.517
18905TIP3    H178130   7.018   5.296   4.466
18905TIP3    H278131   7.011   5.442   4.484
18906TIP3   OH278132   7.094   5.160   4.369
18906TIP3    H178133   7.073   5.096   4.300
18906TIP3    H278134   7.104   5.113   4.454
18907TIP3   OH278135   7.228   5.036   5.226
18907TIP3    H178136   7.262   4.964   5.169
18907TIP3    H278137   7.278   5.109   5.187
18908TIP3   OH278138   6.707   4.711   4.194
18908TIP3    H178139   6.636   4.767   4.159
18908TIP3    H278140   6.776   4.718   4.126
18909TIP3   OH278141   6.711   4.560   3.884
18909TIP3    H178142   6.778   4.566   3.957
18909TIP3    H278143   6.756   4.489   3.838
18910TIP3   OH278144   7.050   4.710   4.279
18910TIP3    H178145   6.972   4.724   4.338
18910TIP3    H278146   7.104   4.651   4.339
18911TIP3   OH278147   7.044   4.546   5.195
18911TIP3    H178148   7.043   4.627   5.250
18911TIP3    H278149   6.981   4.575   5.127
18912TIP3   OH278150   6.208   4.811   4.528
18912TIP3    H178151   6.176   4.790   4.438
18912TIP3    H278152   6.277   4.740   4.525
18913TIP3   OH278153   6.346   5.133   4.744
18913TIP3    H178154   6.344   5.079   4.663
18913TIP3    H278155   6.424   5.098   4.790
18914TIP3   OH278156   6.247   4.669   4.847
18914TIP3    H178157   6.300   4.680   4.765
18914TIP3    H278158   6.286   4.738   4.905
18915TIP3   OH278159   6.882   5.229   4.913
18915TIP3    H178160   6.860   5.292   4.983
18915TIP3    H278161   6.862   5.142   4.955
18916TIP3   OH278162   6.341   5.110   5.314
18916TIP3    H178163   6.304   5.187   5.363
18916TIP3    H278164   6.274   5.095   5.243
18917TIP3   OH278165   6.933   4.652   4.049
18917TIP3    H178166   6.992   4.662   4.127
18917TIP3    H278167   6.981   4.699   3.978
18918TIP3   OH278168   6.033   4.726   5.237
18918TIP3    H178169   6.043   4.801   5.295
18918TIP3    H278170   5.943   4.739   5.201
18919TIP3   OH278171   6.713   5.320   4.398
18919TIP3    H178172   6.753   5.353   4.480
18919TIP3    H278173   6.656   5.394   4.374
18920TIP3   OH278174   6.163   5.309   5.387
18920TIP3    H178175   6.160   5.308   5.290
18920TIP3    H278176   6.071   5.307   5.414
18921TIP3   OH278177   6.017   4.677   4.168
18921TIP3    H178178   6.076   4.754   4.181
18921TIP3    H278179   6.055   4.619   4.233
18922TIP3   OH278180   5.720   4.941   5.128
18922TIP3    H178181   5.674   4.937   5.041
18922TIP3    H278182   5.724   4.845   5.148
18923TIP3   OH278183   5.697   5.212   4.807
18923TIP3    H178184   5.792   5.205   4.804
18923TIP3    H278185   5.687   5.299   4.852
18924TIP3   OH278186   6.618   5.236   5.268
18924TIP3    H178187   6.618   5.324   5.311
18924TIP3    H278188   6.526   5.204   5.284
18925TIP3   OH278189   6.664   5.613   4.241
18925TIP3    H178190   6.650   5.605   4.145
18925TIP3    H278191   6.661   5.709   4.256
18926TIP3   OH278192   6.025   5.500   4.421
18926TIP3    H178193   6.038   5.460   4.510
18926TIP3    H278194   5.939   5.461   4.399
18927TIP3   OH278195   6.967   5.536   3.937
18927TIP3    H178196   7.010   5.459   3.894
18927TIP3    H278197   6.968   5.509   4.031
18928TIP3   OH278198   6.932   5.527   4.217
18928TIP3    H178199   6.836   5.536   4.234
18928TIP3    H278200   6.956   5.454   4.275
18929TIP3   OH278201   7.188   4.452   5.426
18929TIP3    H178202   7.179   4.483   5.335
18929TIP3    H278203   7.239   4.368   5.410
18930TIP3   OH278204   5.950   5.069   5.221
18930TIP3    H178205   5.967   5.042   5.312
18930TIP3    H278206   5.860   5.036   5.198
18931TIP3   OH278207   6.216   3.920   4.817
18931TIP3    H178208   6.126   3.907   4.781
18931TIP3    H278209   6.203   4.003   4.866
18932TIP3   OH278210   6.680   3.886   5.153
18932TIP3    H178211   6.720   3.845   5.232
18932TIP3    H278212   6.583   3.875   5.168
18933TIP3   OH278213   7.003   4.269   5.240
18933TIP3    H178214   6.953   4.252   5.323
18933TIP3    H278215   6.994   4.365   5.227
18934TIP3   OH278216   7.087   4.746   3.836
18934TIP3    H178217   7.081   4.728   3.739
18934TIP3    H278218   7.166   4.800   3.835
18935TIP3   OH278219   6.642   4.148   3.883
18935TIP3    H178220   6.614   4.138   3.976
18935TIP3    H278221   6.614   4.059   3.854
18936TIP3   OH278222   6.227   4.417   4.943
18936TIP3    H178223   6.153   4.416   5.007
18936TIP3    H278224   6.222   4.508   4.906
18937TIP3   OH278225   6.222   4.416   4.434
18937TIP3    H178226   6.127   4.406   4.414
18937TIP3    H278227   6.260   4.406   4.344
18938TIP3   OH278228   6.782   4.484   4.311
18938TIP3    H178229   6.732   4.559   4.272
18938TIP3    H278230   6.843   4.461   4.239
18939TIP3   OH278231   6.680   4.503   5.449
18939TIP3    H178232   6.630   4.425   5.482
18939TIP3    H278233   6.763   4.489   5.498
18940TIP3   OH278234   6.876   4.432   4.592
18940TIP3    H178235   6.850   4.483   4.514
18940TIP3    H278236   6.888   4.345   4.548
18941TIP3   OH278237   5.987   4.446   5.113
18941TIP3    H178238   5.997   4.482   5.202
18941TIP3    H278239   5.946   4.359   5.131
18942TIP3   OH278240   6.327   4.187   3.797
18942TIP3    H178241   6.283   4.142   3.872
18942TIP3    H278242   6.253   4.221   3.746
18943TIP3   OH278243   5.654   4.153   4.509
18943TIP3    H178244   5.722   4.150   4.579
18943TIP3    H278245   5.699   4.116   4.431
18944TIP3   OH278246   5.778   4.223   4.042
18944TIP3    H178247   5.832   4.285   3.989
18944TIP3    H278248   5.712   4.287   4.076
18945TIP3   OH278249   6.796   4.586   5.047
18945TIP3    H178250   6.835   4.517   4.989
18945TIP3    H278251   6.749   4.533   5.113
18946TIP3   OH278252   6.477   4.180   4.529
18946TIP3    H178253   6.383   4.189   4.559
18946TIP3    H278254   6.526   4.170   4.613
18947TIP3   OH278255   5.956   4.337   4.420
18947TIP3    H178256   5.871   4.357   4.376
18947TIP3    H278257   5.987   4.257   4.374
18948TIP3   OH278258   6.324   4.340   4.175
18948TIP3    H178259   6.417   4.359   4.199
18948TIP3    H278260   6.296   4.416   4.119
18949TIP3   OH278261   6.912   4.105   4.856
18949TIP3    H178262   6.844   4.112   4.925
18949TIP3    H278263   6.863   4.086   4.775
18950TIP3   OH278264   6.192   4.455   3.938
18950TIP3    H178265   6.137   4.423   3.866
18950TIP3    H278266   6.273   4.483   3.895
18951TIP3   OH278267   7.227   5.680   5.435
18951TIP3    H178268   7.274   5.726   5.366
18951TIP3    H278269   7.290   5.700   5.507
18952TIP3   OH278270   6.608   4.460   4.720
18952TIP3    H178271   6.667   4.406   4.667
18952TIP3    H278272   6.591   4.405   4.798
18953TIP3   OH278273   6.107   4.075   4.363
18953TIP3    H178274   6.076   3.982   4.362
18953TIP3    H278275   6.186   4.068   4.308
18954TIP3   OH278276   6.471   4.293   4.961
18954TIP3    H178277   6.388   4.344   4.970
18954TIP3    H278278   6.525   4.328   5.034
18955TIP3   OH278279   6.530   4.913   4.130
18955TIP3    H178280   6.448   4.868   4.099
18955TIP3    H278281   6.504   4.926   4.224
18956TIP3   OH278282   7.215   4.836   5.009
18956TIP3    H178283   7.289   4.851   4.946
18956TIP3    H278284   7.140   4.838   4.948
18957TIP3   OH278285   6.915   4.200   3.946
18957TIP3    H178286   6.818   4.209   3.935
18957TIP3    H278287   6.944   4.284   3.985
18958TIP3   OH278288   6.682   4.942   5.255
18958TIP3    H178289   6.640   4.898   5.330
18958TIP3    H278290   6.652   5.033   5.263
18959TIP3   OH278291   6.984   4.393   4.110
18959TIP3    H178292   7.072   4.374   4.150
18959TIP3    H278293   6.998   4.473   4.058
18960TIP3   OH278294   6.035   4.855   4.716
18960TIP3    H178295   6.104   4.848   4.645
18960TIP3    H278296   6.045   4.768   4.757
18961TIP3   OH278297   6.738   5.060   4.039
18961TIP3    H178298   6.703   5.148   4.067
18961TIP3    H278299   6.661   5.001   4.057
18962TIP3   OH278300   5.739   4.694   5.237
18962TIP3    H178301   5.753   4.647   5.320
18962TIP3    H278302   5.677   4.634   5.191
18963TIP3   OH278303   6.439   4.653   5.454
18963TIP3    H178304   6.411   4.620   5.367
18963TIP3    H278305   6.531   4.619   5.457
18964TIP3   OH278306   6.907   5.181   5.253
18964TIP3    H178307   6.817   5.202   5.223
18964TIP3    H278308   6.906   5.213   5.342
18965TIP3   OH278309   7.019   4.768   4.833
18965TIP3    H178310   6.925   4.741   4.826
18965TIP3    H278311   7.067   4.690   4.800
18966TIP3   OH278312   6.276   5.200   4.449
18966TIP3    H178313   6.327   5.280   4.427
18966TIP3    H278314   6.189   5.224   4.415
18967TIP3   OH278315   5.851   4.686   3.898
18967TIP3    H178316   5.912   4.744   3.949
18967TIP3    H278317   5.765   4.715   3.931
18968TIP3   OH278318   6.422   4.970   4.405
18968TIP3    H178319   6.384   5.060   4.409
18968TIP3    H278320   6.350   4.916   4.442
18969TIP3   OH278321   6.464   5.385   5.039
18969TIP3    H178322   6.510   5.466   5.013
18969TIP3    H278323   6.524   5.351   5.108
18970TIP3   OH278324   6.288   5.466   4.351
18970TIP3    H178325   6.191   5.479   4.366
18970TIP3    H278326   6.322   5.549   4.388
18971TIP3   OH278327   6.818   4.985   5.001
18971TIP3    H178328   6.783   4.965   5.090
18971TIP3    H278329   6.881   4.913   4.986
18972TIP3   OH278330   7.048   5.090   3.912
18972TIP3    H178331   7.080   5.047   3.993
18972TIP3    H278332   6.952   5.073   3.919
18973TIP3   OH278333   7.094   5.442   5.253
18973TIP3    H178334   7.027   5.394   5.201
18973TIP3    H278335   7.118   5.512   5.188
18974TIP3   OH278336   5.904   4.170   5.193
18974TIP3    H178337   5.813   4.202   5.187
18974TIP3    H278338   5.893   4.085   5.238
18975TIP3   OH278339   7.125   4.954   4.149
18975TIP3    H178340   7.115   4.861   4.176
18975TIP3    H278341   7.223   4.964   4.151
18976TIP3   OH278342   5.868   5.345   5.035
18976TIP3    H178343   5.896   5.253   5.036
18976TIP3    H278344   5.893   5.378   5.121
18977TIP3   OH278345   6.463   5.201   3.762
18977TIP3    H178346   6.472   5.125   3.702
18977TIP3    H278347   6.418   5.157   3.838
18978TIP3   OH278348   6.341   5.154   4.006
18978TIP3    H178349   6.365   5.100   4.083
18978TIP3    H278350   6.348   5.246   4.041
18979TIP3   OH278351   5.981   4.896   4.029
18979TIP3    H178352   5.927   4.915   4.108
18979TIP3    H278353   6.049   4.964   4.030
18980TIP3   OH278354   6.774   4.145   5.088
18980TIP3    H178355   6.849   4.152   5.149
18980TIP3    H278356   6.738   4.057   5.109
18981TIP3   OH278357   6.857   4.099   4.198
18981TIP3    H178358   6.874   4.148   4.115
18981TIP3    H278359   6.912   4.149   4.260
18982TIP3   OH278360   6.620   5.318   4.076
18982TIP3    H178361   6.539   5.372   4.084
18982TIP3    H278362   6.674   5.374   4.018
18983TIP3   OH278363   6.578   4.276   4.278
18983TIP3    H178364   6.652   4.338   4.284
18983TIP3    H278365   6.546   4.266   4.370
18984TIP3   OH278366   6.634   4.382   5.196
18984TIP3    H178367   6.641   4.437   5.276
18984TIP3    H278368   6.697   4.310   5.207
18985TIP3   OH278369   6.659   3.980   4.370
18985TIP3    H178370   6.627   4.048   4.431
18985TIP3    H278371   6.725   4.037   4.322
18986TIP3   OH278372   6.360   5.422   4.079
18986TIP3    H178373   6.370   5.503   4.024
18986TIP3    H278374   6.333   5.459   4.167
18987TIP3   OH278375   6.226   4.096   4.036
18987TIP3    H178376   6.221   4.186   4.076
18987TIP3    H278377   6.316   4.070   4.064
18988TIP3   OH278378   7.235   4.144   5.262
18988TIP3    H178379   7.152   4.197   5.266
18988TIP3    H278380   7.275   4.173   5.180
18989TIP3   OH278381   7.108   4.547   4.686
18989TIP3    H178382   7.026   4.501   4.656
18989TIP3    H278383   7.152   4.476   4.735
18990TIP3   OH278384   6.049   5.142   3.940
18990TIP3    H178385   6.117   5.203   3.972
18990TIP3    H278386   6.100   5.090   3.875
18991TIP3   OH278387   5.883   4.405   3.855
18991TIP3    H178388   5.886   4.501   3.877
18991TIP3    H278389   5.793   4.389   3.826
18992TIP3   OH278390   7.222   5.476   4.850
18992TIP3    H178391   7.207   5.542   4.780
18992TIP3    H278392   7.317   5.482   4.865
18993TIP3   OH278393   5.964   3.884   4.730
18993TIP3    H178394   5.945   3.886   4.634
18993TIP3    H278395   5.923   3.799   4.756
18994TIP3   OH278396   5.861   5.275   4.345
18994TIP3    H178397   5.776   5.320   4.340
18994TIP3    H278398   5.908   5.323   4.275
18995TIP3   OH278399   5.782   5.543   5.473
18995TIP3    H178400   5.844   5.518   5.543
18995TIP3    H278401   5.741   5.458   5.448
18996TIP3   OH278402   6.663   5.385   3.774
18996TIP3    H178403   6.593   5.319   3.797
18996TIP3    H278404   6.735   5.325   3.749
18997TIP3   OH278405   7.115   5.361   3.798
18997TIP3    H178406   7.146   5.281   3.843
18997TIP3    H278407   7.190   5.379   3.738
18998TIP3   OH278408   6.207   4.953   3.774
18998TIP3    H178409   6.218   4.879   3.836
18998TIP3    H278410   6.282   4.941   3.713
18999TIP3   OH278411   6.461   4.920   5.506
18999TIP3    H178412   6.406   4.951   5.431
18999TIP3    H278413   6.448   4.823   5.503
19000TIP3   OH278414   6.748   5.062   3.751
19000TIP3    H178415   6.722   5.073   3.844
19000TIP3    H278416   6.729   4.967   3.739
19001TIP3   OH278417   7.006   4.902   5.257
19001TIP3    H178418   7.088   4.956   5.242
19001TIP3    H278419   6.941   4.972   5.251
19002TIP3   OH278420   6.326   4.763   4.006
19002TIP3    H178421   6.284   4.714   4.082
19002TIP3    H278422   6.353   4.685   3.954
19003TIP3   OH278423   6.254   4.537   5.246
19003TIP3    H178424   6.195   4.609   5.269
19003TIP3    H278425   6.296   4.571   5.164
19004TIP3   OH278426   6.417   4.573   3.862
19004TIP3    H178427   6.381   4.569   3.771
19004TIP3    H278428   6.513   4.589   3.873
19005TIP3   OH278429   6.293   4.275   5.354
19005TIP3    H178430   6.303   4.203   5.290
19005TIP3    H278431   6.290   4.354   5.298
19006TIP3   OH278432   6.334   4.111   5.107
19006TIP3    H178433   6.385   4.159   5.037
19006TIP3    H278434   6.245   4.104   5.067
19007TIP3   OH278435   6.489   4.661   5.132
19007TIP3    H178436   6.564   4.644   5.074
19007TIP3    H278437   6.452   4.743   5.097
19008TIP3   OH278438   6.932   4.435   5.630
19008TIP3    H178439   6.956   4.342   5.619
19008TIP3    H278440   7.017   4.480   5.625
19009TIP3   OH278441   7.068   4.718   5.435
19009TIP3    H178442   7.038   4.790   5.374
19009TIP3    H278443   7.161   4.710   5.419
19010TIP3   OH278444   6.412   3.855   5.148
19010TIP3    H178445   6.395   3.952   5.138
19010TIP3    H278446   6.338   3.819   5.096
19011TIP3   OH278447   6.542   4.286   5.508
19011TIP3    H178448   6.510   4.266   5.598
19011TIP3    H278449   6.461   4.270   5.456
19012TIP3   OH278450   6.807   4.202   5.416
19012TIP3    H178451   6.712   4.208   5.432
19012TIP3    H278452   6.840   4.140   5.484
19013TIP3   OH278453   6.973   4.064   5.611
19013TIP3    H178454   6.966   3.966   5.610
19013TIP3    H278455   6.944   4.092   5.700
19014TIP3   OH278456   5.950   4.193   5.521
19014TIP3    H178457   5.975   4.121   5.460
19014TIP3    H278458   5.942   4.143   5.604
19015TIP3   OH278459   6.435   3.795   5.416
19015TIP3    H178460   6.503   3.724   5.415
19015TIP3    H278461   6.423   3.809   5.320
19016TIP3   OH278462   6.470   3.955   5.627
19016TIP3    H178463   6.455   3.904   5.544
19016TIP3    H278464   6.412   4.034   5.615
19017TIP3   OH278465   6.418   5.647   3.945
19017TIP3    H178466   6.515   5.656   3.952
19017TIP3    H278467   6.403   5.708   3.871
19018TIP3   OH278468   5.772   5.108   3.890
19018TIP3    H178469   5.869   5.113   3.911
19018TIP3    H278470   5.778   5.039   3.819
19019TIP3   OH278471   5.652   5.642   4.388
19019TIP3    H178472   5.580   5.594   4.342
19019TIP3    H278473   5.678   5.578   4.457
19020TIP3   OH278474   5.737   5.456   4.576
19020TIP3    H178475   5.697   5.370   4.597
19020TIP3    H278476   5.753   5.491   4.665
19021TIP3   OH278477   7.277   5.265   5.091
19021TIP3    H178478   7.212   5.304   5.151
19021TIP3    H278479   7.226   5.225   5.019
19022TIP3   OH278480   7.192   4.563   4.432
19022TIP3    H178481   7.215   4.470   4.432
19022TIP3    H278482   7.202   4.584   4.527
19023TIP3   OH278483   5.739   4.764   4.825
19023TIP3    H178484   5.757   4.756   4.729
19023TIP3    H278485   5.829   4.747   4.861
19024TIP3   OH278486   7.245   4.158   3.766
19024TIP3    H178487   7.305   4.116   3.829
19024TIP3    H278488   7.160   4.116   3.785
19025TIP3   OH278489   7.202   4.308   4.249
19025TIP3    H178490   7.231   4.224   4.290
19025TIP3    H278491   7.287   4.343   4.220
19026TIP3   OH278492  -0.053   4.286   4.809
19026TIP3    H178493   0.035   4.320   4.796
19026TIP3    H278494  -0.075   4.350   4.880
19027TIP3   OH278495   7.277   4.447   5.113
19027TIP3    H178496   7.183   4.473   5.122
19027TIP3    H278497   7.313   4.518   5.056
19028TIP3   OH278498   5.700   4.292   5.441
19028TIP3    H178499   5.794   4.273   5.457
19028TIP3    H278500   5.656   4.210   5.472
19029TIP3   OH278501   7.183   4.013   4.335
19029TIP3    H178502   7.276   3.995   4.357
19029TIP3    H278503   7.184   3.970   4.247
19030TIP3   OH278504   5.821   4.124   4.726
19030TIP3    H178505   5.867   4.041   4.752
19030TIP3    H278506   5.876   4.193   4.765
19031TIP3   OH278507   5.649   4.424   4.830
19031TIP3    H178508   5.706   4.399   4.753
19031TIP3    H278509   5.696   4.504   4.856
19032TIP3   OH278510   5.686   4.051   4.238
19032TIP3    H178511   5.592   4.067   4.222
19032TIP3    H278512   5.728   4.099   4.164
19033TIP3   OH278513   7.141   5.526   4.442
19033TIP3    H178514   7.207   5.492   4.380
19033TIP3    H278515   7.193   5.585   4.499
19034TIP3   OH278516   5.680   3.915   5.066
19034TIP3    H178517   5.613   3.897   5.135
19034TIP3    H278518   5.635   3.983   5.013
19035TIP3   OH278519   5.897   5.232   5.486
19035TIP3    H178520   5.817   5.258   5.438
19035TIP3    H278521   5.873   5.230   5.578
19036TIP3   OH278522   6.194   5.335   5.110
19036TIP3    H178523   6.159   5.421   5.082
19036TIP3    H278524   6.287   5.344   5.081
19037TIP3   OH278525   6.630   5.477   5.398
19037TIP3    H178526   6.641   5.447   5.490
19037TIP3    H278527   6.718   5.512   5.374
19038TIP3   OH278528   6.857   5.601   5.337
19038TIP3    H178529   6.933   5.548   5.306
19038TIP3    H278530   6.895   5.649   5.412
19039TIP3   OH278531   5.939   5.661   5.111
19039TIP3    H178532   5.865   5.707   5.068
19039TIP3    H278533   5.902   5.641   5.198
19040TIP3   OH278534   6.187   5.618   5.018
19040TIP3    H178535   6.097   5.632   5.057
19040TIP3    H278536   6.179   5.675   4.940
19041TIP3   OH278537   6.651   5.607   4.935
19041TIP3    H178538   6.608   5.664   4.869
19041TIP3    H278539   6.667   5.671   5.008
19042TIP3   OH278540   6.882   5.489   5.035
19042TIP3    H178541   6.796   5.517   4.998
19042TIP3    H278542   6.929   5.574   5.028
19043TIP3   OH278543   7.128   5.646   5.059
19043TIP3    H178544   7.127   5.741   5.037
19043TIP3    H278545   7.162   5.609   4.976
19044TIP3   OH278546   5.906   5.536   4.805
19044TIP3    H178547   5.872   5.482   4.880
19044TIP3    H278548   5.973   5.480   4.762
19045TIP3   OH278549   6.090   5.394   4.668
19045TIP3    H178550   6.074   5.302   4.694
19045TIP3    H278551   6.174   5.411   4.715
19046TIP3   OH278552   6.350   5.444   4.757
19046TIP3    H178553   6.365   5.351   4.729
19046TIP3    H278554   6.356   5.438   4.853
19047TIP3   OH278555   6.693   4.009   4.669
19047TIP3    H178556   6.628   3.945   4.701
19047TIP3    H278557   6.754   3.958   4.615
19048TIP3   OH278558   7.209   3.811   4.677
19048TIP3    H178559   7.268   3.874   4.635
19048TIP3    H278560   7.122   3.851   4.658
19049TIP3   OH278561   5.934   3.871   4.456
19049TIP3    H178562   5.854   3.852   4.403
19049TIP3    H278563   5.979   3.785   4.450
19050TIP3   OH278564   5.810   3.846   4.028
19050TIP3    H178565   5.859   3.912   3.975
19050TIP3    H278566   5.754   3.904   4.082
19051TIP3   OH278567   6.388   3.852   4.435
19051TIP3    H178568   6.468   3.907   4.429
19051TIP3    H278569   6.372   3.846   4.529
19052TIP3   OH278570   6.946   3.864   4.597
19052TIP3    H178571   6.954   3.881   4.502
19052TIP3    H278572   6.916   3.772   4.609
19053TIP3   OH278573   7.075   3.860   4.155
19053TIP3    H178574   7.005   3.928   4.148
19053TIP3    H278575   7.029   3.780   4.185
19054TIP3   OH278576   5.801   5.443   4.132
19054TIP3    H178577   5.736   5.440   4.059
19054TIP3    H278578   5.801   5.539   4.148
19055TIP3   OH278579   5.993   4.041   3.879
19055TIP3    H178580   6.046   3.980   3.826
19055TIP3    H278581   6.060   4.073   3.943
19056TIP3   OH278582   6.497   4.064   4.120
19056TIP3    H178583   6.520   4.009   4.195
19056TIP3    H278584   6.501   4.153   4.163
19057TIP3   OH278585   6.688   5.572   3.964
19057TIP3    H178586   6.780   5.595   3.942
19057TIP3    H278587   6.667   5.520   3.884
19058TIP3   OH278588   5.922   3.927   5.402
19058TIP3    H178589   5.880   3.848   5.442
19058TIP3    H278590   6.012   3.921   5.440
19059TIP3   OH278591   6.124   3.861   5.565
19059TIP3    H178592   6.211   3.829   5.539
19059TIP3    H278593   6.086   3.782   5.606
19060TIP3   OH278594   5.981   5.540   3.824
19060TIP3    H178595   5.955   5.566   3.914
19060TIP3    H278596   6.059   5.484   3.840
19061TIP3   OH278597   6.965   3.794   5.576
19061TIP3    H178598   6.971   3.747   5.662
19061TIP3    H278599   7.057   3.792   5.543
19062TIP3   OH278600   7.260   5.391   5.460
19062TIP3    H178601   7.198   5.379   5.385
19062TIP3    H278602   7.263   5.488   5.457
19063TIP3   OH278603   1.181   6.669   4.443
19063TIP3    H178604   1.185   6.767   4.438
19063TIP3    H278605   1.113   6.646   4.378
19064TIP3   OH278606   1.065   6.598   4.792
19064TIP3    H178607   1.072   6.532   4.863
19064TIP3    H278608   1.039   6.543   4.716
19065TIP3   OH278609   0.313   6.565   4.944
19065TIP3    H178610   0.317   6.496   5.014
19065TIP3    H278611   0.382   6.625   4.974
19066TIP3   OH278612   1.439   6.890   4.621
19066TIP3    H178613   1.397   6.819   4.670
19066TIP3    H278614   1.443   6.962   4.687
19067TIP3   OH278615   0.399   7.009   4.800
19067TIP3    H178616   0.365   6.924   4.766
19067TIP3    H278617   0.494   6.991   4.803
19068TIP3   OH278618   0.089   6.364   4.304
19068TIP3    H178619   0.045   6.443   4.342
19068TIP3    H278620   0.010   6.311   4.304
19069TIP3   OH278621   0.130   6.579   4.556
19069TIP3    H178622   0.160   6.504   4.609
19069TIP3    H278623   0.203   6.596   4.495
19070TIP3   OH278624   0.905   6.833   4.832
19070TIP3    H178625   0.953   6.769   4.777
19070TIP3    H278626   0.981   6.855   4.891
19071TIP3   OH278627   1.768   6.003   4.911
19071TIP3    H178628   1.785   6.061   4.988
19071TIP3    H278629   1.825   6.044   4.845
19072TIP3   OH278630   1.225   6.283   4.870
19072TIP3    H178631   1.242   6.187   4.871
19072TIP3    H278632   1.215   6.297   4.774
19073TIP3   OH278633   0.536   6.092   4.593
19073TIP3    H178634   0.548   6.175   4.542
19073TIP3    H278635   0.499   6.034   4.523
19074TIP3   OH278636   1.311   6.100   4.428
19074TIP3    H178637   1.375   6.069   4.496
19074TIP3    H278638   1.367   6.158   4.376
19075TIP3   OH278639   0.196   6.325   4.659
19075TIP3    H178640   0.268   6.278   4.706
19075TIP3    H278641   0.214   6.297   4.568
19076TIP3   OH278642   0.715   6.491   4.599
19076TIP3    H178643   0.781   6.430   4.636
19076TIP3    H278644   0.665   6.425   4.546
19077TIP3   OH278645   1.812   6.142   5.139
19077TIP3    H178646   1.751   6.220   5.129
19077TIP3    H278647   1.817   6.135   5.236
19078TIP3   OH278648   0.433   5.981   4.994
19078TIP3    H178649   0.401   6.039   4.921
19078TIP3    H278650   0.364   6.004   5.062
19079TIP3   OH278651   1.149   6.926   4.352
19079TIP3    H178652   1.133   6.905   4.259
19079TIP3    H278653   1.128   7.022   4.356
19080TIP3   OH278654   0.678   6.745   5.012
19080TIP3    H178655   0.609   6.807   5.045
19080TIP3    H278656   0.751   6.807   4.997
19081TIP3   OH278657   1.489   6.037   4.629
19081TIP3    H178658   1.469   5.958   4.681
19081TIP3    H278659   1.559   6.079   4.682
19082TIP3   OH278660   0.382   6.166   4.799
19082TIP3    H178661   0.444   6.235   4.832
19082TIP3    H278662   0.437   6.127   4.725
19083TIP3   OH278663   0.524   6.946   5.096
19083TIP3    H178664   0.518   7.038   5.066
19083TIP3    H278665   0.436   6.937   5.140
19084TIP3   OH278666   0.129   6.914   4.178
19084TIP3    H178667   0.106   6.947   4.090
19084TIP3    H278668   0.140   6.995   4.231
19085TIP3   OH278669   1.493   7.077   4.862
19085TIP3    H178670   1.395   7.085   4.871
19085TIP3    H278671   1.521   7.166   4.835
19086TIP3   OH278672   1.524   5.903   4.995
19086TIP3    H178673   1.452   5.967   4.987
19086TIP3    H278674   1.596   5.945   4.943
19087TIP3   OH278675   0.822   5.716   4.743
19087TIP3    H178676   0.808   5.619   4.736
19087TIP3    H278677   0.734   5.746   4.773
19088TIP3   OH278678   1.321   7.223   4.497
19088TIP3    H178679   1.378   7.161   4.447
19088TIP3    H278680   1.361   7.306   4.474
19089TIP3   OH278681   1.443   7.036   4.367
19089TIP3    H178682   1.408   6.970   4.307
19089TIP3    H278683   1.443   6.991   4.453
19090TIP3   OH278684   1.603   6.908   5.217
19090TIP3    H178685   1.616   6.841   5.146
19090TIP3    H278686   1.624   6.992   5.172
19091TIP3   OH278687   1.051   6.596   4.194
19091TIP3    H178688   0.982   6.651   4.155
19091TIP3    H278689   1.122   6.604   4.127
19092TIP3   OH278690   1.059   6.451   3.894
19092TIP3    H178691   1.130   6.449   3.960
19092TIP3    H278692   1.089   6.379   3.837
19093TIP3   OH278693   1.790   6.537   5.021
19093TIP3    H178694   1.724   6.609   5.025
19093TIP3    H278695   1.839   6.560   4.941
19094TIP3   OH278696   1.396   6.615   4.286
19094TIP3    H178697   1.321   6.639   4.345
19094TIP3    H278698   1.443   6.548   4.338
19095TIP3   OH278699   1.389   6.432   5.196
19095TIP3    H178700   1.390   6.513   5.251
19095TIP3    H278701   1.325   6.462   5.128
19096TIP3   OH278702   0.564   6.684   4.479
19096TIP3    H178703   0.522   6.646   4.397
19096TIP3    H278704   0.616   6.606   4.508
19097TIP3   OH278705   0.685   7.016   4.750
19097TIP3    H178706   0.688   6.988   4.658
19097TIP3    H278707   0.770   6.993   4.793
19098TIP3   OH278708   0.590   6.559   4.841
19098TIP3    H178709   0.648   6.561   4.764
19098TIP3    H278710   0.629   6.622   4.907
19099TIP3   OH278711   1.235   7.113   4.917
19099TIP3    H178712   1.198   7.176   4.978
19099TIP3    H278713   1.207   7.028   4.956
19100TIP3   OH278714   0.683   7.000   5.318
19100TIP3    H178715   0.640   7.078   5.359
19100TIP3    H278716   0.620   6.976   5.246
19101TIP3   OH278717   1.283   6.538   4.052
19101TIP3    H178718   1.339   6.553   4.132
19101TIP3    H278719   1.329   6.585   3.979
19102TIP3   OH278720   0.379   6.619   5.229
19102TIP3    H178721   0.385   6.684   5.299
19102TIP3    H278722   0.285   6.625   5.206
19103TIP3   OH278723   1.048   7.203   4.403
19103TIP3    H178724   1.101   7.237   4.475
19103TIP3    H278725   0.999   7.281   4.373
19104TIP3   OH278726   0.507   7.191   5.385
19104TIP3    H178727   0.499   7.193   5.287
19104TIP3    H278728   0.412   7.190   5.410
19105TIP3   OH278729   1.654   5.708   4.041
19105TIP3    H178730   1.560   5.721   4.066
19105TIP3    H278731   1.678   5.792   3.999
19106TIP3   OH278732   0.454   6.586   4.245
19106TIP3    H178733   0.426   6.661   4.187
19106TIP3    H278734   0.392   6.517   4.218
19107TIP3   OH278735   1.772   7.141   3.876
19107TIP3    H178736   1.780   7.237   3.892
19107TIP3    H278737   1.865   7.113   3.878
19108TIP3   OH278738   0.123   6.813   5.104
19108TIP3    H178739   0.046   6.826   5.044
19108TIP3    H278740   0.084   6.734   5.149
19109TIP3   OH278741   0.068   7.120   4.783
19109TIP3    H178742   0.153   7.087   4.810
19109TIP3    H278743   0.045   7.177   4.857
19110TIP3   OH278744   1.861   7.169   5.381
19110TIP3    H178745   1.849   7.074   5.371
19110TIP3    H278746   1.773   7.197   5.414
19111TIP3   OH278747   0.957   7.127   5.262
19111TIP3    H178748   0.965   7.208   5.312
19111TIP3    H278749   0.871   7.087   5.286
19112TIP3   OH278750   1.573   6.318   5.419
19112TIP3    H178751   1.530   6.364   5.345
19112TIP3    H278752   1.580   6.226   5.390
19113TIP3   OH278753   0.299   6.959   5.230
19113TIP3    H178754   0.308   6.924   5.319
19113TIP3    H278755   0.212   6.924   5.199
19114TIP3   OH278756   0.560   5.807   4.816
19114TIP3    H178757   0.470   5.794   4.780
19114TIP3    H278758   0.546   5.889   4.867
19115TIP3   OH278759   1.024   5.774   5.157
19115TIP3    H178760   1.062   5.728   5.234
19115TIP3    H278761   0.927   5.761   5.167
19116TIP3   OH278762   1.351   6.156   5.242
19116TIP3    H178763   1.294   6.138   5.320
19116TIP3    H278764   1.336   6.250   5.220
19117TIP3   OH278765   1.429   6.638   3.834
19117TIP3    H178766   1.426   6.618   3.738
19117TIP3    H278767   1.514   6.683   3.838
19118TIP3   OH278768   1.060   6.032   3.857
19118TIP3    H178769   1.007   6.045   3.941
19118TIP3    H278770   0.996   5.959   3.839
19119TIP3   OH278771   0.567   6.303   4.942
19119TIP3    H178772   0.495   6.303   5.008
19119TIP3    H278773   0.565   6.394   4.906
19120TIP3   OH278774   0.568   6.319   4.429
19120TIP3    H178775   0.475   6.291   4.415
19120TIP3    H278776   0.607   6.285   4.346
19121TIP3   OH278777   1.118   6.366   4.307
19121TIP3    H178778   1.078   6.448   4.270
19121TIP3    H278779   1.187   6.349   4.241
19122TIP3   OH278780   1.024   6.384   5.449
19122TIP3    H178781   0.970   6.309   5.482
19122TIP3    H278782   1.107   6.377   5.498
19123TIP3   OH278783   1.221   6.315   4.591
19123TIP3    H178784   1.192   6.370   4.517
19123TIP3    H278785   1.231   6.229   4.544
19124TIP3   OH278786   0.333   6.328   5.112
19124TIP3    H178787   0.335   6.369   5.200
19124TIP3    H278788   0.285   6.246   5.131
19125TIP3   OH278789   0.638   6.077   3.758
19125TIP3    H178790   0.633   6.041   3.850
19125TIP3    H278791   0.557   6.122   3.741
19126TIP3   OH278792   0.036   6.072   4.490
19126TIP3    H178793   0.068   6.036   4.576
19126TIP3    H278794   0.049   5.996   4.433
19127TIP3   OH278795   0.122   6.126   4.042
19127TIP3    H178796   0.178   6.181   3.984
19127TIP3    H278797   0.048   6.181   4.066
19128TIP3   OH278798   1.141   6.473   5.046
19128TIP3    H178799   1.179   6.403   4.988
19128TIP3    H278800   1.094   6.420   5.114
19129TIP3   OH278801   0.820   6.073   4.533
19129TIP3    H178802   0.726   6.070   4.560
19129TIP3    H278803   0.869   6.052   4.614
19130TIP3   OH278804   0.304   6.224   4.416
19130TIP3    H178805   0.216   6.241   4.376
19130TIP3    H278806   0.328   6.139   4.373
19131TIP3   OH278807   0.664   6.237   4.185
19131TIP3    H178808   0.761   6.236   4.193
19131TIP3    H278809   0.643   6.297   4.112
19132TIP3   OH278810   1.261   5.994   4.854
19132TIP3    H178811   1.192   5.998   4.923
19132TIP3    H278812   1.211   5.968   4.775
19133TIP3   OH278813   0.537   6.351   3.936
19133TIP3    H178814   0.483   6.312   3.866
19133TIP3    H278815   0.621   6.367   3.891
19134TIP3   OH278816   0.948   6.347   4.719
19134TIP3    H178817   1.008   6.292   4.665
19134TIP3    H278818   0.935   6.291   4.797
19135TIP3   OH278819   0.449   5.961   4.363
19135TIP3    H178820   0.420   5.869   4.360
19135TIP3    H278821   0.529   5.955   4.307
19136TIP3   OH278822   0.813   6.178   4.960
19136TIP3    H178823   0.731   6.230   4.969
19136TIP3    H278824   0.869   6.214   5.032
19137TIP3   OH278825   0.871   6.799   4.132
19137TIP3    H178826   0.792   6.753   4.096
19137TIP3    H278827   0.850   6.811   4.225
19138TIP3   OH278828   1.591   6.721   5.010
19138TIP3    H178829   1.647   6.771   4.948
19138TIP3    H278830   1.505   6.726   4.964
19139TIP3   OH278831   1.279   6.085   3.956
19139TIP3    H178832   1.182   6.090   3.933
19139TIP3    H278833   1.295   6.175   3.987
19140TIP3   OH278834   1.021   6.829   5.252
19140TIP3    H178835   0.985   6.785   5.330
19140TIP3    H278836   0.996   6.922   5.265
19141TIP3   OH278837   1.325   6.279   4.116
19141TIP3    H178838   1.415   6.261   4.151
19141TIP3    H278839   1.339   6.356   4.059
19142TIP3   OH278840   0.387   6.741   4.711
19142TIP3    H178841   0.446   6.729   4.636
19142TIP3    H278842   0.389   6.656   4.757
19143TIP3   OH278843   1.081   6.946   4.033
19143TIP3    H178844   1.048   7.032   4.066
19143TIP3    H278845   1.007   6.886   4.057
19144TIP3   OH278846   0.081   6.578   5.238
19144TIP3    H178847   0.103   6.532   5.321
19144TIP3    H278848   0.020   6.516   5.194
19145TIP3   OH278849   0.780   6.540   5.455
19145TIP3    H178850   0.752   6.509   5.368
19145TIP3    H278851   0.872   6.510   5.458
19146TIP3   OH278852   1.251   7.076   5.247
19146TIP3    H178853   1.157   7.084   5.225
19146TIP3    H278854   1.248   7.098   5.342
19147TIP3   OH278855   1.820   6.289   4.088
19147TIP3    H178856   1.762   6.260   4.015
19147TIP3    H278857   1.826   6.384   4.062
19148TIP3   OH278858   1.819   6.872   5.371
19148TIP3    H178859   1.730   6.897   5.335
19148TIP3    H278860   1.872   6.867   5.288
19149TIP3   OH278861   1.661   7.146   4.149
19149TIP3    H178862   1.605   7.072   4.162
19149TIP3    H278863   1.672   7.155   4.053
19150TIP3   OH278864   1.369   6.652   4.839
19150TIP3    H178865   1.276   6.631   4.829
19150TIP3    H278866   1.412   6.577   4.795
19151TIP3   OH278867   0.624   7.081   4.444
19151TIP3    H178868   0.669   7.166   4.431
19151TIP3    H278869   0.533   7.106   4.421
19152TIP3   OH278870   0.191   6.570   3.910
19152TIP3    H178871   0.256   6.634   3.946
19152TIP3    H278872   0.106   6.606   3.936
19153TIP3   OH278873   0.766   6.852   4.422
19153TIP3    H178874   0.732   6.943   4.405
19153TIP3    H278875   0.683   6.802   4.433
19154TIP3   OH278876   0.839   7.237   5.005
19154TIP3    H178877   0.851   7.333   5.002
19154TIP3    H278878   0.868   7.223   5.097
19155TIP3   OH278879   1.156   6.868   5.000
19155TIP3    H178880   1.128   6.851   5.092
19155TIP3    H278881   1.225   6.801   4.987
19156TIP3   OH278882   1.393   6.976   3.911
19156TIP3    H178883   1.423   6.932   3.993
19156TIP3    H278884   1.298   6.960   3.921
19157TIP3   OH278885   0.247   6.055   5.185
19157TIP3    H178886   0.158   6.092   5.194
19157TIP3    H278887   0.237   5.971   5.233
19158TIP3   OH278888   1.470   6.835   4.135
19158TIP3    H178889   1.447   6.760   4.193
19158TIP3    H278890   1.564   6.847   4.155
19159TIP3   OH278891   0.233   7.233   5.026
19159TIP3    H178892   0.236   7.138   5.036
19159TIP3    H278893   0.226   7.265   5.117
19160TIP3   OH278894   0.807   7.083   3.760
19160TIP3    H178895   0.815   7.006   3.702
19160TIP3    H278896   0.763   7.042   3.837
19161TIP3   OH278897   0.681   7.034   4.005
19161TIP3    H178898   0.709   6.985   4.084
19161TIP3    H278899   0.693   7.127   4.033
19162TIP3   OH278900   0.333   6.763   4.055
19162TIP3    H178901   0.261   6.802   4.109
19162TIP3    H278902   0.384   6.841   4.027
19163TIP3   OH278903   1.119   6.033   5.088
19163TIP3    H178904   1.193   6.037   5.149
19163TIP3    H278905   1.081   5.945   5.105
19164TIP3   OH278906   1.196   5.987   4.196
19164TIP3    H178907   1.219   6.035   4.114
19164TIP3    H278908   1.252   6.033   4.260
19165TIP3   OH278909   0.968   7.207   4.079
19165TIP3    H178910   0.883   7.255   4.083
19165TIP3    H278911   1.015   7.258   4.011
19166TIP3   OH278912   0.919   6.175   4.278
19166TIP3    H178913   1.001   6.225   4.285
19166TIP3    H278914   0.892   6.150   4.369
19167TIP3   OH278915   0.973   6.265   5.194
19167TIP3    H178916   0.980   6.323   5.273
19167TIP3    H278917   1.039   6.196   5.205
19168TIP3   OH278918   1.014   5.866   4.376
19168TIP3    H178919   0.967   5.935   4.427
19168TIP3    H278920   1.071   5.924   4.321
19169TIP3   OH278921   0.708   0.005   4.082
19169TIP3    H178922   0.711   0.084   4.025
19169TIP3    H278923   0.679   0.042   4.167
19170TIP3   OH278924   0.550   5.978   4.052
19170TIP3    H178925   0.563   6.071   4.077
19170TIP3    H278926   0.647   5.955   4.057
19171TIP3   OH278927   1.588   6.051   5.286
19171TIP3    H178928   1.498   6.086   5.268
19171TIP3    H278929   1.622   6.051   5.194
19172TIP3   OH278930   1.452   6.432   4.682
19172TIP3    H178931   1.370   6.387   4.655
19172TIP3    H278932   1.500   6.363   4.734
19173TIP3   OH278933   0.391   7.026   3.939
19173TIP3    H178934   0.459   7.089   3.968
19173TIP3    H278935   0.443   6.977   3.873
19174TIP3   OH278936   0.222   6.290   3.855
19174TIP3    H178937   0.228   6.385   3.875
19174TIP3    H278938   0.133   6.273   3.820
19175TIP3   OH278939   0.310   5.768   4.728
19175TIP3    H178940   0.289   5.772   4.633
19175TIP3    H278941   0.266   5.685   4.755
19176TIP3   OH278942   0.207   7.162   4.339
19176TIP3    H178943   0.120   7.203   4.342
19176TIP3    H278944   0.255   7.213   4.274
19177TIP3   OH278945   0.619   7.283   5.654
19177TIP3    H178946   0.706   7.252   5.676
19177TIP3    H278947   0.615   7.276   5.557
19178TIP3   OH278948   1.007   7.263   3.785
19178TIP3    H178949   0.933   7.201   3.793
19178TIP3    H278950   1.078   7.210   3.747
19179TIP3   OH278951   1.240   7.155   5.510
19179TIP3    H178952   1.212   7.065   5.539
19179TIP3    H278953   1.320   7.168   5.565
19180TIP3   OH278954   1.476   7.239   3.806
19180TIP3    H178955   1.502   7.156   3.846
19180TIP3    H278956   1.548   7.261   3.744
19181TIP3   OH278957   0.121   6.806   5.566
19181TIP3    H178958   0.135   6.714   5.539
19181TIP3    H278959   0.043   6.830   5.515
19182TIP3   OH278960   0.549   6.836   3.774
19182TIP3    H178961   0.564   6.761   3.833
19182TIP3    H278962   0.625   6.826   3.713
19183TIP3   OH278963   1.095   6.951   3.752
19183TIP3    H178964   1.064   6.960   3.844
19183TIP3    H278965   1.074   6.856   3.738
19184TIP3   OH278966   1.356   6.790   5.250
19184TIP3    H178967   1.435   6.848   5.244
19184TIP3    H278968   1.286   6.856   5.256
19185TIP3   OH278969   0.198   6.527   5.506
19185TIP3    H178970   0.248   6.444   5.499
19185TIP3    H278971   0.184   6.530   5.603
19186TIP3   OH278972   0.670   6.640   4.018
19186TIP3    H178973   0.620   6.586   4.080
19186TIP3    H278974   0.700   6.573   3.952
19187TIP3   OH278975   0.596   6.421   5.248
19187TIP3    H178976   0.537   6.493   5.274
19187TIP3    H278977   0.636   6.457   5.166
19188TIP3   OH278978   0.778   6.464   3.838
19188TIP3    H178979   0.761   6.449   3.742
19188TIP3    H278980   0.875   6.467   3.843
19189TIP3   OH278981   1.105   6.679   5.582
19189TIP3    H178982   1.201   6.675   5.568
19189TIP3    H278983   1.085   6.604   5.639
19190TIP3   OH278984   1.711   6.694   3.778
19190TIP3    H178985   1.691   6.656   3.691
19190TIP3    H278986   1.718   6.791   3.760
19191TIP3   OH278987   0.638   6.158   5.354
19191TIP3    H178988   0.647   6.088   5.287
19191TIP3    H278989   0.631   6.239   5.299
19192TIP3   OH278990   0.678   5.998   5.109
19192TIP3    H178991   0.729   6.044   5.038
19192TIP3    H278992   0.589   5.989   5.068
19193TIP3   OH278993   0.829   6.544   5.129
19193TIP3    H178994   0.908   6.528   5.076
19193TIP3    H278995   0.797   6.630   5.100
19194TIP3   OH278996   1.272   6.320   5.630
19194TIP3    H178997   1.299   6.230   5.614
19194TIP3    H278998   1.357   6.368   5.630
19195TIP3   OH278999   1.404   6.600   5.441
19195TIP3    H179000   1.379   6.674   5.382
19195TIP3    H279001   1.500   6.599   5.423
19196TIP3   OH279002   0.478   6.284   5.549
19196TIP3    H179003   0.408   6.221   5.524
19196TIP3    H279004   0.547   6.252   5.487
19197TIP3   OH279005   0.756   5.740   5.148
19197TIP3    H179006   0.739   5.836   5.136
19197TIP3    H279007   0.681   5.703   5.097
19198TIP3   OH279008   0.886   6.165   5.508
19198TIP3    H179009   0.851   6.158   5.598
19198TIP3    H279010   0.804   6.158   5.454
19199TIP3   OH279011   1.157   6.086   5.417
19199TIP3    H179012   1.059   6.094   5.425
19199TIP3    H279013   1.177   6.019   5.482
19200TIP3   OH279014   0.302   6.076   5.525
19200TIP3    H179015   0.318   6.006   5.458
19200TIP3    H279016   0.291   6.025   5.606
19201TIP3   OH279017   0.777   5.677   5.417
19201TIP3    H179018   0.844   5.606   5.414
19201TIP3    H279019   0.765   5.693   5.321
19202TIP3   OH279020   0.814   5.847   5.624
19202TIP3    H179021   0.800   5.791   5.544
19202TIP3    H279022   0.751   5.917   5.613
19203TIP3   OH279023   0.120   6.992   3.892
19203TIP3    H179024   0.215   7.003   3.912
19203TIP3    H279025   0.125   6.926   3.820
19204TIP3   OH279026   1.630   6.958   5.626
19204TIP3    H179027   1.545   6.948   5.672
19204TIP3    H279028   1.673   7.031   5.677
19205TIP3   OH279029   1.764   6.783   4.173
19205TIP3    H179030   1.849   6.827   4.194
19205TIP3    H279031   1.762   6.714   4.242
19206TIP3   OH279032   1.800   6.594   4.363
19206TIP3    H179033   1.725   6.544   4.402
19206TIP3    H279034   1.860   6.607   4.440
19207TIP3   OH279035   1.776   6.863   4.864
19207TIP3    H179036   1.857   6.826   4.824
19207TIP3    H279037   1.790   6.958   4.846
19208TIP3   OH279038   1.625   7.151   5.093
19208TIP3    H179039   1.556   7.190   5.147
19208TIP3    H279040   1.575   7.116   5.016
19209TIP3   OH279041   1.831   6.576   4.002
19209TIP3    H179042   1.774   6.612   3.931
19209TIP3    H279043   1.820   6.647   4.068
19210TIP3   OH279044   1.667   6.299   3.853
19210TIP3    H179045   1.675   6.366   3.784
19210TIP3    H279046   1.649   6.217   3.804
19211TIP3   OH279047   1.582   6.441   4.420
19211TIP3    H179048   1.567   6.346   4.416
19211TIP3    H279049   1.549   6.463   4.509
19212TIP3   OH279050   0.084   6.648   4.817
19212TIP3    H179051   0.105   6.644   4.722
19212TIP3    H279052   0.172   6.637   4.860
19213TIP3   OH279053   1.669   6.636   5.388
19213TIP3    H179054   1.730   6.561   5.407
19213TIP3    H279055   1.728   6.715   5.389
19214TIP3   OH279056   1.819   6.428   5.439
19214TIP3    H179057   1.730   6.387   5.438
19214TIP3    H279058   1.874   6.349   5.449
19215TIP3   OH279059   1.593   6.048   3.765
19215TIP3    H179060   1.650   6.003   3.831
19215TIP3    H279061   1.507   6.006   3.781
19216TIP3   OH279062   1.546   6.200   4.261
19216TIP3    H179063   1.578   6.108   4.277
19216TIP3    H279064   1.628   6.241   4.230
19217TIP3   OH279065   1.613   6.254   4.810
19217TIP3    H179066   1.709   6.277   4.808
19217TIP3    H279067   1.594   6.268   4.904
19218TIP3   OH279068   1.619   6.326   5.085
19218TIP3    H179069   1.532   6.355   5.121
19218TIP3    H279070   1.663   6.412   5.065
19219TIP3   OH279071   0.078   6.170   5.431
19219TIP3    H179072   0.163   6.147   5.469
19219TIP3    H279073   0.014   6.107   5.474
19220TIP3   OH279074   1.843   5.729   5.623
19220TIP3    H179075   1.877   5.663   5.560
19220TIP3    H279076   1.859   5.812   5.576
19221TIP3   OH279077   1.615   5.929   4.270
19221TIP3    H179078   1.637   5.885   4.355
19221TIP3    H279079   1.556   5.865   4.226
19222TIP3   OH279080   0.168   6.005   4.722
19222TIP3    H179081   0.214   5.925   4.755
19222TIP3    H279082   0.218   6.075   4.766
19223TIP3   OH279083   0.051   6.385   4.865
19223TIP3    H179084   0.053   6.342   4.777
19223TIP3    H279085   0.058   6.477   4.837
19224TIP3   OH279086   1.797   5.939   5.460
19224TIP3    H179087   1.705   5.971   5.451
19224TIP3    H279088   1.805   5.889   5.377
19225TIP3   OH279089   1.796   5.933   3.924
19225TIP3    H179090   1.840   5.860   3.874
19225TIP3    H279091   1.868   5.997   3.932
19226TIP3   OH279092   0.076   5.931   4.194
19226TIP3    H179093  -0.018   5.949   4.206
19226TIP3    H279094   0.099   6.006   4.136
19227TIP3   OH279095   7.355   5.798   5.091
19227TIP3    H179096   7.274   5.776   5.140
19227TIP3    H279097   7.308   5.848   5.021
19228TIP3   OH279098   0.242   7.128   5.484
19228TIP3    H179099   0.157   7.144   5.442
19228TIP3    H279100   0.218   7.112   5.576
19229TIP3   OH279101   0.544   7.220   5.118
19229TIP3    H179102   0.497   7.297   5.081
19229TIP3    H279103   0.631   7.220   5.076
19230TIP3   OH279104   1.699   5.752   5.242
19230TIP3    H179105   1.617   5.781   5.199
19230TIP3    H279106   1.718   5.670   5.191
19231TIP3   OH279107   0.463   7.251   4.646
19231TIP3    H179108   0.414   7.182   4.695
19231TIP3    H279109   0.515   7.293   4.717
19232TIP3   OH279110   1.040   5.894   4.672
19232TIP3    H179111   0.971   5.831   4.697
19232TIP3    H279112   1.094   5.842   4.612
19233TIP3   OH279113   1.552   5.699   4.678
19233TIP3    H179114   1.614   5.758   4.627
19233TIP3    H279115   1.464   5.735   4.654
19234TIP3   OH279116   1.719   5.825   4.505
19234TIP3    H179117   1.788   5.766   4.464
19234TIP3    H279118   1.771   5.908   4.516
19235TIP3   OH279119   0.277   5.756   4.459
19235TIP3    H179120   0.199   5.736   4.402
19235TIP3    H279121   0.327   5.673   4.448
19236TIP3   OH279122   0.155   5.730   4.023
19236TIP3    H179123   0.206   5.797   3.975
19236TIP3    H279124   0.099   5.787   4.080
19237TIP3   OH279125   0.723   5.741   4.438
19237TIP3    H179126   0.809   5.786   4.424
19237TIP3    H279127   0.722   5.728   4.532
19238TIP3   OH279128   1.293   5.752   4.596
19238TIP3    H179129   1.288   5.763   4.500
19238TIP3    H279130   1.258   5.661   4.609
19239TIP3   OH279131   1.421   5.755   4.165
19239TIP3    H179132   1.346   5.814   4.149
19239TIP3    H279133   1.377   5.670   4.188
19240TIP3   OH279134   0.334   5.926   3.882
19240TIP3    H179135   0.391   5.868   3.828
19240TIP3    H279136   0.404   5.958   3.943
19241TIP3   OH279137   0.807   5.948   4.230
19241TIP3    H179138   0.879   5.888   4.209
19241TIP3    H279139   0.843   6.026   4.179
19242TIP3   OH279140   0.257   5.816   5.410
19242TIP3    H179141   0.227   5.728   5.440
19242TIP3    H279142   0.353   5.808   5.434
19243TIP3   OH279143   0.464   5.747   5.564
19243TIP3    H179144   0.555   5.718   5.540
19243TIP3    H279145   0.431   5.668   5.608
19244TIP3   OH279146   1.615  -0.024   5.456
19244TIP3    H179147   1.545  -0.037   5.391
19244TIP3    H279148   1.622   0.072   5.461
19245TIP3   OH279149   3.070   6.668   4.440
19245TIP3    H179150   3.069   6.767   4.440
19245TIP3    H279151   2.997   6.647   4.381
19246TIP3   OH279152   2.957   6.596   4.792
19246TIP3    H179153   2.955   6.531   4.863
19246TIP3    H279154   2.921   6.545   4.717
19247TIP3   OH279155   2.191   6.564   4.947
19247TIP3    H179156   2.200   6.495   5.016
19247TIP3    H279157   2.267   6.621   4.969
19248TIP3   OH279158   3.325   6.890   4.621
19248TIP3    H179159   3.283   6.818   4.671
19248TIP3    H279160   3.329   6.962   4.687
19249TIP3   OH279161   2.286   7.009   4.800
19249TIP3    H179162   2.253   6.924   4.766
19249TIP3    H279163   2.381   6.990   4.800
19250TIP3   OH279164   1.948   6.364   4.346
19250TIP3    H179165   1.904   6.451   4.340
19250TIP3    H279166   1.892   6.310   4.289
19251TIP3   OH279167   2.019   6.587   4.561
19251TIP3    H179168   2.047   6.505   4.606
19251TIP3    H279169   2.089   6.598   4.494
19252TIP3   OH279170   2.792   6.834   4.840
19252TIP3    H179171   2.827   6.773   4.773
19252TIP3    H279172   2.874   6.854   4.889
19253TIP3   OH279173   3.653   6.003   4.911
19253TIP3    H179174   3.671   6.061   4.988
19253TIP3    H279175   3.710   6.045   4.845
19254TIP3   OH279176   3.111   6.283   4.870
19254TIP3    H179177   3.127   6.187   4.871
19254TIP3    H279178   3.100   6.297   4.774
19255TIP3   OH279179   2.421   6.091   4.591
19255TIP3    H179180   2.432   6.175   4.542
19255TIP3    H279181   2.382   6.033   4.522
19256TIP3   OH279182   3.196   6.100   4.429
19256TIP3    H179183   3.261   6.068   4.496
19256TIP3    H279184   3.252   6.158   4.376
19257TIP3   OH279185   2.084   6.333   4.665
19257TIP3    H179186   2.151   6.279   4.711
19257TIP3    H279187   2.095   6.302   4.574
19258TIP3   OH279188   2.600   6.489   4.597
19258TIP3    H179189   2.667   6.431   4.637
19258TIP3    H279190   2.549   6.423   4.546
19259TIP3   OH279191   3.696   6.142   5.140
19259TIP3    H179192   3.637   6.220   5.127
19259TIP3    H279193   3.701   6.135   5.236
19260TIP3   OH279194   2.314   5.983   4.997
19260TIP3    H179195   2.285   6.039   4.922
19260TIP3    H279196   2.245   6.005   5.064
19261TIP3   OH279197   3.040   6.927   4.351
19261TIP3    H179198   3.016   6.904   4.260
19261TIP3    H279199   3.011   7.021   4.357
19262TIP3   OH279200   2.563   6.744   5.019
19262TIP3    H179201   2.494   6.809   5.043
19262TIP3    H279202   2.635   6.804   4.991
19263TIP3   OH279203   3.377   6.035   4.628
19263TIP3    H179204   3.355   5.958   4.681
19263TIP3    H279205   3.444   6.078   4.682
19264TIP3   OH279206   2.270   6.168   4.799
19264TIP3    H179207   2.333   6.236   4.830
19264TIP3    H279208   2.321   6.126   4.725
19265TIP3   OH279209   2.410   6.947   5.101
19265TIP3    H179210   2.404   7.037   5.066
19265TIP3    H279211   2.321   6.938   5.143
19266TIP3   OH279212   2.016   6.913   4.181
19266TIP3    H179213   1.990   6.945   4.093
19266TIP3    H279214   2.025   6.996   4.232
19267TIP3   OH279215   3.379   7.077   4.862
19267TIP3    H179216   3.280   7.085   4.871
19267TIP3    H279217   3.407   7.166   4.835
19268TIP3   OH279218   3.410   5.903   4.995
19268TIP3    H179219   3.338   5.967   4.986
19268TIP3    H279220   3.482   5.945   4.943
19269TIP3   OH279221   2.707   5.716   4.743
19269TIP3    H179222   2.693   5.619   4.735
19269TIP3    H279223   2.619   5.746   4.773
19270TIP3   OH279224   3.207   7.223   4.498
19270TIP3    H179225   3.264   7.161   4.447
19270TIP3    H279226   3.247   7.306   4.474
19271TIP3   OH279227   3.329   7.036   4.367
19271TIP3    H179228   3.293   6.970   4.307
19271TIP3    H279229   3.328   6.991   4.453
19272TIP3   OH279230   3.487   6.910   5.218
19272TIP3    H179231   3.500   6.842   5.148
19272TIP3    H279232   3.509   6.992   5.170
19273TIP3   OH279233   2.936   6.594   4.193
19273TIP3    H179234   2.867   6.652   4.157
19273TIP3    H279235   3.007   6.604   4.127
19274TIP3   OH279236   2.944   6.451   3.894
19274TIP3    H179237   3.015   6.449   3.961
19274TIP3    H279238   2.975   6.380   3.837
19275TIP3   OH279239   3.674   6.535   5.018
19275TIP3    H179240   3.611   6.609   5.026
19275TIP3    H279241   3.725   6.561   4.939
19276TIP3   OH279242   3.282   6.615   4.285
19276TIP3    H179243   3.207   6.639   4.345
19276TIP3    H279244   3.329   6.548   4.338
19277TIP3   OH279245   3.274   6.432   5.197
19277TIP3    H179246   3.275   6.514   5.250
19277TIP3    H279247   3.211   6.461   5.128
19278TIP3   OH279248   2.442   6.681   4.477
19278TIP3    H179249   2.410   6.642   4.392
19278TIP3    H279250   2.504   6.612   4.510
19279TIP3   OH279251   2.575   7.022   4.744
19279TIP3    H179252   2.575   6.967   4.664
19279TIP3    H279253   2.651   6.985   4.792
19280TIP3   OH279254   2.475   6.556   4.843
19280TIP3    H179255   2.530   6.566   4.763
19280TIP3    H279256   2.514   6.622   4.904
19281TIP3   OH279257   3.120   7.113   4.916
19281TIP3    H179258   3.083   7.176   4.977
19281TIP3    H279259   3.091   7.027   4.955
19282TIP3   OH279260   2.569   6.999   5.317
19282TIP3    H179261   2.528   7.076   5.362
19282TIP3    H279262   2.505   6.977   5.245
19283TIP3   OH279263   3.169   6.536   4.052
19283TIP3    H179264   3.224   6.552   4.132
19283TIP3    H279265   3.214   6.585   3.979
19284TIP3   OH279266   2.264   6.615   5.228
19284TIP3    H179267   2.270   6.682   5.299
19284TIP3    H279268   2.170   6.625   5.205
19285TIP3   OH279269   2.936   7.205   4.400
19285TIP3    H179270   2.985   7.237   4.476
19285TIP3    H279271   2.885   7.282   4.373
19286TIP3   OH279272   2.393   7.195   5.388
19286TIP3    H179273   2.387   7.193   5.290
19286TIP3    H279274   2.298   7.188   5.412
19287TIP3   OH279275   3.541   5.709   4.042
19287TIP3    H179276   3.447   5.720   4.066
19287TIP3    H279277   3.562   5.793   3.998
19288TIP3   OH279278   2.338   6.583   4.240
19288TIP3    H179279   2.311   6.662   4.188
19288TIP3    H279280   2.274   6.517   4.215
19289TIP3   OH279281   3.657   7.141   3.876
19289TIP3    H179282   3.666   7.237   3.892
19289TIP3    H279283   3.750   7.113   3.878
19290TIP3   OH279284   1.947   6.827   5.129
19290TIP3    H179285   1.904   6.818   5.042
19290TIP3    H279286   1.956   6.732   5.150
19291TIP3   OH279287   1.927   7.096   4.810
19291TIP3    H179288   2.023   7.091   4.801
19291TIP3    H279289   1.918   7.179   4.859
19292TIP3   OH279290   3.744   7.171   5.377
19292TIP3    H179291   3.736   7.074   5.373
19292TIP3    H279292   3.658   7.196   5.417
19293TIP3   OH279293   2.841   7.128   5.258
19293TIP3    H179294   2.853   7.205   5.313
19293TIP3    H279295   2.759   7.086   5.289
19294TIP3   OH279296   3.460   6.315   5.420
19294TIP3    H179297   3.416   6.364   5.348
19294TIP3    H279298   3.463   6.225   5.386
19295TIP3   OH279299   2.178   6.960   5.223
19295TIP3    H179300   2.198   6.921   5.311
19295TIP3    H279301   2.091   6.921   5.200
19296TIP3   OH279302   2.445   5.806   4.816
19296TIP3    H179303   2.354   5.793   4.781
19296TIP3    H279304   2.431   5.888   4.865
19297TIP3   OH279305   2.910   5.773   5.156
19297TIP3    H179306   2.948   5.730   5.235
19297TIP3    H279307   2.813   5.761   5.169
19298TIP3   OH279308   3.238   6.158   5.244
19298TIP3    H179309   3.179   6.137   5.321
19298TIP3    H279310   3.220   6.250   5.220
19299TIP3   OH279311   3.314   6.638   3.834
19299TIP3    H179312   3.312   6.620   3.737
19299TIP3    H279313   3.400   6.683   3.839
19300TIP3   OH279314   2.873   6.031   3.884
19300TIP3    H179315   2.842   6.025   3.976
19300TIP3    H279316   2.843   5.943   3.854
19301TIP3   OH279317   2.456   6.303   4.944
19301TIP3    H179318   2.381   6.302   5.007
19301TIP3    H279319   2.450   6.394   4.906
19302TIP3   OH279320   2.451   6.315   4.429
19302TIP3    H179321   2.357   6.290   4.416
19302TIP3    H279322   2.489   6.286   4.344
19303TIP3   OH279323   3.003   6.365   4.307
19303TIP3    H179324   2.964   6.447   4.270
19303TIP3    H279325   3.072   6.348   4.240
19304TIP3   OH279326   2.912   6.384   5.451
19304TIP3    H179327   2.855   6.311   5.484
19304TIP3    H279328   2.993   6.375   5.504
19305TIP3   OH279329   3.107   6.314   4.591
19305TIP3    H179330   3.078   6.370   4.517
19305TIP3    H279331   3.116   6.229   4.544
19306TIP3   OH279332   2.217   6.328   5.111
19306TIP3    H179333   2.225   6.369   5.198
19306TIP3    H279334   2.173   6.244   5.132
19307TIP3   OH279335   2.555   6.068   3.796
19307TIP3    H179336   2.509   6.026   3.872
19307TIP3    H279337   2.483   6.111   3.747
19308TIP3   OH279338   1.884   6.038   4.508
19308TIP3    H179339   1.951   6.035   4.579
19308TIP3    H279340   1.928   6.001   4.430
19309TIP3   OH279341   2.009   6.114   4.043
19309TIP3    H179342   2.061   6.174   3.988
19309TIP3    H279343   1.940   6.175   4.076
19310TIP3   OH279344   3.026   6.472   5.046
19310TIP3    H179345   3.064   6.404   4.988
19310TIP3    H279346   2.980   6.420   5.113
19311TIP3   OH279347   2.707   6.071   4.530
19311TIP3    H179348   2.613   6.071   4.559
19311TIP3    H279349   2.755   6.053   4.612
19312TIP3   OH279350   2.188   6.224   4.416
19312TIP3    H179351   2.099   6.241   4.377
19312TIP3    H279352   2.216   6.140   4.376
19313TIP3   OH279353   2.552   6.230   4.179
19313TIP3    H179354   2.647   6.241   4.195
19313TIP3    H279355   2.528   6.298   4.114
19314TIP3   OH279356   3.147   5.994   4.854
19314TIP3    H179357   3.079   5.999   4.924
19314TIP3    H279358   3.096   5.968   4.775
19315TIP3   OH279359   2.422   6.348   3.938
19315TIP3    H179360   2.369   6.309   3.867
19315TIP3    H279361   2.504   6.368   3.891
19316TIP3   OH279362   2.235   6.812   5.443
19316TIP3    H179363   2.306   6.829   5.506
19316TIP3    H279364   2.155   6.812   5.501
19317TIP3   OH279365   2.835   6.346   4.719
19317TIP3    H179366   2.895   6.292   4.666
19317TIP3    H279367   2.820   6.291   4.797
19318TIP3   OH279368   2.337   5.960   4.364
19318TIP3    H179369   2.303   5.868   4.361
19318TIP3    H279370   2.414   5.951   4.307
19319TIP3   OH279371   2.699   6.178   4.960
19319TIP3    H179372   2.616   6.230   4.969
19319TIP3    H279373   2.754   6.214   5.033
19320TIP3   OH279374   2.757   6.799   4.131
19320TIP3    H179375   2.677   6.753   4.097
19320TIP3    H279376   2.735   6.812   4.225
19321TIP3   OH279377   3.477   6.721   5.011
19321TIP3    H179378   3.532   6.771   4.948
19321TIP3    H279379   3.391   6.726   4.964
19322TIP3   OH279380   3.140   6.082   3.948
19322TIP3    H179381   3.045   6.098   3.934
19322TIP3    H279382   3.174   6.167   3.983
19323TIP3   OH279383   2.905   6.829   5.251
19323TIP3    H179384   2.873   6.785   5.332
19323TIP3    H279385   2.882   6.921   5.265
19324TIP3   OH279386   3.214   6.274   4.110
19324TIP3    H179387   3.302   6.261   4.151
19324TIP3    H279388   3.225   6.356   4.059
19325TIP3   OH279389   2.268   6.740   4.710
19325TIP3    H179390   2.337   6.733   4.641
19325TIP3    H279391   2.275   6.654   4.756
19326TIP3   OH279392   2.966   6.946   4.033
19326TIP3    H179393   2.934   7.032   4.066
19326TIP3    H279394   2.893   6.886   4.057
19327TIP3   OH279395   1.968   6.581   5.237
19327TIP3    H179396   1.984   6.536   5.322
19327TIP3    H279397   1.906   6.520   5.195
19328TIP3   OH279398   2.668   6.538   5.452
19328TIP3    H179399   2.639   6.504   5.367
19328TIP3    H279400   2.760   6.505   5.457
19329TIP3   OH279401   3.136   7.076   5.242
19329TIP3    H179402   3.042   7.084   5.225
19329TIP3    H279403   3.134   7.094   5.339
19330TIP3   OH279404   3.705   6.287   4.088
19330TIP3    H179405   3.647   6.259   4.014
19330TIP3    H279406   3.712   6.382   4.063
19331TIP3   OH279407   3.704   6.872   5.367
19331TIP3    H179408   3.615   6.896   5.332
19331TIP3    H279409   3.759   6.867   5.287
19332TIP3   OH279410   3.547   7.146   4.149
19332TIP3    H179411   3.490   7.072   4.162
19332TIP3    H279412   3.558   7.155   4.053
19333TIP3   OH279413   3.254   6.652   4.839
19333TIP3    H179414   3.160   6.631   4.827
19333TIP3    H279415   3.297   6.577   4.795
19334TIP3   OH279416   2.510   7.082   4.440
19334TIP3    H179417   2.556   7.166   4.432
19334TIP3    H279418   2.418   7.106   4.420
19335TIP3   OH279419   2.083   6.569   3.906
19335TIP3    H179420   2.141   6.635   3.947
19335TIP3    H279421   1.994   6.601   3.931
19336TIP3   OH279422   2.650   6.851   4.400
19336TIP3    H179423   2.618   6.943   4.409
19336TIP3    H279424   2.577   6.803   4.444
19337TIP3   OH279425   2.723   7.238   5.010
19337TIP3    H179426   2.738   7.333   5.002
19337TIP3    H279427   2.753   7.224   5.101
19338TIP3   OH279428   3.045   6.871   5.002
19338TIP3    H179429   3.011   6.849   5.092
19338TIP3    H279430   3.108   6.800   4.986
19339TIP3   OH279431   3.279   6.976   3.911
19339TIP3    H179432   3.308   6.932   3.993
19339TIP3    H279433   3.183   6.961   3.920
19340TIP3   OH279434   2.133   6.054   5.193
19340TIP3    H179435   2.042   6.089   5.188
19340TIP3    H279436   2.121   5.969   5.237
19341TIP3   OH279437   3.356   6.835   4.134
19341TIP3    H179438   3.333   6.760   4.193
19341TIP3    H279439   3.450   6.847   4.155
19342TIP3   OH279440   2.094   7.229   5.033
19342TIP3    H179441   2.123   7.138   5.038
19342TIP3    H279442   2.113   7.263   5.122
19343TIP3   OH279443   2.692   7.083   3.760
19343TIP3    H179444   2.700   7.006   3.702
19343TIP3    H279445   2.649   7.042   3.838
19344TIP3   OH279446   2.567   7.034   4.006
19344TIP3    H179447   2.595   6.985   4.084
19344TIP3    H279448   2.579   7.127   4.033
19345TIP3   OH279449   2.223   6.763   4.055
19345TIP3    H179450   2.151   6.803   4.109
19345TIP3    H279451   2.273   6.841   4.026
19346TIP3   OH279452   3.005   6.032   5.088
19346TIP3    H179453   3.078   6.037   5.151
19346TIP3    H279454   2.968   5.943   5.106
19347TIP3   OH279455   3.080   5.988   4.196
19347TIP3    H179456   3.103   6.034   4.113
19347TIP3    H279457   3.138   6.032   4.259
19348TIP3   OH279458   2.853   7.207   4.079
19348TIP3    H179459   2.768   7.255   4.083
19348TIP3    H279460   2.901   7.258   4.011
19349TIP3   OH279461   2.803   6.163   4.278
19349TIP3    H179462   2.881   6.222   4.283
19349TIP3    H279463   2.777   6.151   4.371
19350TIP3   OH279464   2.858   6.267   5.195
19350TIP3    H179465   2.865   6.322   5.275
19350TIP3    H279466   2.924   6.197   5.205
19351TIP3   OH279467   2.888   5.869   4.366
19351TIP3    H179468   2.856   5.934   4.431
19351TIP3    H279469   2.957   5.924   4.322
19352TIP3   OH279470   2.594   0.005   4.082
19352TIP3    H179471   2.597   0.084   4.025
19352TIP3    H279472   2.565   0.042   4.167
19353TIP3   OH279473   2.455   5.982   4.035
19353TIP3    H179474   2.448   6.070   4.077
19353TIP3    H279475   2.544   5.954   4.065
19354TIP3   OH279476   3.475   6.052   5.284
19354TIP3    H179477   3.383   6.084   5.268
19354TIP3    H279478   3.508   6.052   5.192
19355TIP3   OH279479   3.338   6.431   4.682
19355TIP3    H179480   3.255   6.387   4.656
19355TIP3    H279481   3.386   6.363   4.734
19356TIP3   OH279482   2.279   7.024   3.941
19356TIP3    H179483   2.346   7.088   3.969
19356TIP3    H279484   2.330   6.977   3.873
19357TIP3   OH279485   2.112   6.291   3.856
19357TIP3    H179486   2.113   6.387   3.877
19357TIP3    H279487   2.022   6.274   3.825
19358TIP3   OH279488   2.192   5.771   4.733
19358TIP3    H179489   2.175   5.771   4.635
19358TIP3    H279490   2.152   5.684   4.755
19359TIP3   OH279491   2.090   7.162   4.342
19359TIP3    H179492   2.003   7.205   4.341
19359TIP3    H279493   2.139   7.211   4.275
19360TIP3   OH279494   2.517   7.300   5.639
19360TIP3    H179495   2.589   7.242   5.667
19360TIP3    H279496   2.500   7.269   5.548
19361TIP3   OH279497   2.893   7.263   3.785
19361TIP3    H179498   2.819   7.201   3.793
19361TIP3    H279499   2.964   7.210   3.747
19362TIP3   OH279500   3.141   7.117   5.494
19362TIP3    H179501   3.088   7.053   5.546
19362TIP3    H279502   3.197   7.158   5.561
19363TIP3   OH279503   3.361   7.239   3.806
19363TIP3    H179504   3.388   7.156   3.846
19363TIP3    H279505   3.433   7.261   3.744
19364TIP3   OH279506   2.004   6.803   5.571
19364TIP3    H179507   2.015   6.711   5.541
19364TIP3    H279508   1.926   6.829   5.519
19365TIP3   OH279509   2.435   6.837   3.775
19365TIP3    H179510   2.450   6.761   3.834
19365TIP3    H279511   2.511   6.826   3.713
19366TIP3   OH279512   2.677   6.803   5.512
19366TIP3    H179513   2.638   6.834   5.428
19366TIP3    H279514   2.679   6.705   5.501
19367TIP3   OH279515   2.980   6.951   3.752
19367TIP3    H179516   2.949   6.960   3.844
19367TIP3    H279517   2.960   6.856   3.738
19368TIP3   OH279518   3.242   6.789   5.250
19368TIP3    H179519   3.321   6.847   5.243
19368TIP3    H279520   3.172   6.856   5.255
19369TIP3   OH279521   2.095   6.529   5.513
19369TIP3    H179522   2.129   6.440   5.501
19369TIP3    H279523   2.065   6.523   5.605
19370TIP3   OH279524   2.555   6.640   4.018
19370TIP3    H179525   2.505   6.587   4.080
19370TIP3    H279526   2.585   6.573   3.952
19371TIP3   OH279527   2.481   6.421   5.246
19371TIP3    H179528   2.423   6.495   5.272
19371TIP3    H279529   2.522   6.458   5.166
19372TIP3   OH279530   2.663   6.463   3.837
19372TIP3    H179531   2.648   6.454   3.741
19372TIP3    H279532   2.761   6.468   3.844
19373TIP3   OH279533   2.988   6.678   5.580
19373TIP3    H179534   3.085   6.675   5.573
19373TIP3    H279535   2.971   6.603   5.639
19374TIP3   OH279536   3.597   6.694   3.778
19374TIP3    H179537   3.577   6.656   3.691
19374TIP3    H279538   3.604   6.791   3.760
19375TIP3   OH279539   2.524   6.159   5.354
19375TIP3    H179540   2.533   6.089   5.287
19375TIP3    H279541   2.519   6.240   5.298
19376TIP3   OH279542   2.564   5.997   5.108
19376TIP3    H179543   2.615   6.043   5.037
19376TIP3    H279544   2.474   5.989   5.068
19377TIP3   OH279545   2.716   6.545   5.131
19377TIP3    H179546   2.793   6.530   5.074
19377TIP3    H279547   2.681   6.629   5.100
19378TIP3   OH279548   3.154   6.326   5.628
19378TIP3    H179549   3.173   6.234   5.613
19378TIP3    H279550   3.241   6.371   5.629
19379TIP3   OH279551   3.291   6.601   5.439
19379TIP3    H179552   3.266   6.675   5.379
19379TIP3    H279553   3.386   6.600   5.423
19380TIP3   OH279554   2.369   6.282   5.552
19380TIP3    H179555   2.291   6.228   5.527
19380TIP3    H279556   2.431   6.252   5.483
19381TIP3   OH279557   2.642   5.740   5.146
19381TIP3    H179558   2.624   5.837   5.137
19381TIP3    H279559   2.567   5.704   5.096
19382TIP3   OH279560   2.773   6.170   5.511
19382TIP3    H179561   2.735   6.153   5.599
19382TIP3    H279562   2.693   6.156   5.455
19383TIP3   OH279563   3.044   6.086   5.416
19383TIP3    H179564   2.946   6.095   5.426
19383TIP3    H279565   3.062   6.020   5.484
19384TIP3   OH279566   2.182   6.077   5.521
19384TIP3    H179567   2.203   6.005   5.459
19384TIP3    H279568   2.170   6.030   5.605
19385TIP3   OH279569   2.658   5.675   5.417
19385TIP3    H179570   2.731   5.611   5.416
19385TIP3    H279571   2.652   5.695   5.322
19386TIP3   OH279572   2.005   6.990   3.889
19386TIP3    H179573   2.100   7.000   3.912
19386TIP3    H279574   2.010   6.923   3.818
19387TIP3   OH279575   3.516   6.958   5.629
19387TIP3    H179576   3.430   6.948   5.673
19387TIP3    H279577   3.558   7.031   5.676
19388TIP3   OH279578   3.650   6.783   4.173
19388TIP3    H179579   3.734   6.827   4.194
19388TIP3    H279580   3.648   6.714   4.242
19389TIP3   OH279581   3.685   6.594   4.363
19389TIP3    H179582   3.610   6.544   4.402
19389TIP3    H279583   3.746   6.607   4.440
19390TIP3   OH279584   3.662   6.863   4.864
19390TIP3    H179585   3.742   6.826   4.824
19390TIP3    H279586   3.676   6.958   4.846
19391TIP3   OH279587   3.511   7.152   5.093
19391TIP3    H179588   3.441   7.190   5.147
19391TIP3    H279589   3.461   7.116   5.016
19392TIP3   OH279590   3.716   6.576   4.002
19392TIP3    H179591   3.659   6.612   3.931
19392TIP3    H279592   3.706   6.647   4.068
19393TIP3   OH279593   3.553   6.299   3.853
19393TIP3    H179594   3.561   6.366   3.784
19393TIP3    H279595   3.534   6.217   3.804
19394TIP3   OH279596   3.467   6.441   4.420
19394TIP3    H179597   3.453   6.346   4.416
19394TIP3    H279598   3.434   6.463   4.509
19395TIP3   OH279599   1.968   6.651   4.826
19395TIP3    H179600   1.986   6.642   4.729
19395TIP3    H279601   2.058   6.632   4.861
19396TIP3   OH279602   3.553   6.636   5.383
19396TIP3    H179603   3.617   6.564   5.404
19396TIP3    H279604   3.612   6.714   5.384
19397TIP3   OH279605   3.703   6.425   5.452
19397TIP3    H179606   3.614   6.386   5.438
19397TIP3    H279607   3.760   6.347   5.444
19398TIP3   OH279608   3.478   6.047   3.767
19398TIP3    H179609   3.537   6.003   3.831
19398TIP3    H279610   3.391   6.005   3.782
19399TIP3   OH279611   3.432   6.200   4.261
19399TIP3    H179612   3.464   6.108   4.277
19399TIP3    H279613   3.514   6.241   4.230
19400TIP3   OH279614   3.498   6.254   4.810
19400TIP3    H179615   3.594   6.277   4.808
19400TIP3    H279616   3.480   6.268   4.904
19401TIP3   OH279617   3.505   6.327   5.086
19401TIP3    H179618   3.417   6.355   5.121
19401TIP3    H279619   3.548   6.413   5.065
19402TIP3   OH279620   1.930   6.178   5.437
19402TIP3    H179621   2.023   6.160   5.461
19402TIP3    H279622   1.884   6.099   5.470
19403TIP3   OH279623   3.735   5.731   5.622
19403TIP3    H179624   3.769   5.665   5.560
19403TIP3    H279625   3.743   5.814   5.571
19404TIP3   OH279626   3.502   5.929   4.270
19404TIP3    H179627   3.523   5.885   4.355
19404TIP3    H279628   3.442   5.865   4.226
19405TIP3   OH279629   2.050   6.009   4.726
19405TIP3    H179630   2.096   5.926   4.751
19405TIP3    H279631   2.105   6.078   4.765
19406TIP3   OH279632   1.878   6.310   4.830
19406TIP3    H179633   1.935   6.284   4.754
19406TIP3    H279634   1.924   6.390   4.858
19407TIP3   OH279635   3.685   5.941   5.457
19407TIP3    H179636   3.592   5.968   5.449
19407TIP3    H279637   3.690   5.887   5.377
19408TIP3   OH279638   3.683   5.932   3.926
19408TIP3    H179639   3.724   5.861   3.872
19408TIP3    H279640   3.754   5.998   3.931
19409TIP3   OH279641   1.915   5.940   4.241
19409TIP3    H179642   1.821   5.950   4.221
19409TIP3    H279643   1.958   5.981   4.164
19410TIP3   OH279644   1.909   5.801   5.067
19410TIP3    H179645   1.843   5.781   5.134
19410TIP3    H279646   1.864   5.868   5.012
19411TIP3   OH279647   2.132   7.127   5.485
19411TIP3    H179648   2.047   7.137   5.438
19411TIP3    H279649   2.103   7.111   5.576
19412TIP3   OH279650   2.427   7.221   5.117
19412TIP3    H179651   2.383   7.299   5.080
19412TIP3    H279652   2.513   7.219   5.073
19413TIP3   OH279653   3.585   5.753   5.242
19413TIP3    H179654   3.503   5.780   5.200
19413TIP3    H279655   3.603   5.670   5.193
19414TIP3   OH279656   2.343   7.255   4.647
19414TIP3    H179657   2.305   7.179   4.694
19414TIP3    H279658   2.401   7.292   4.716
19415TIP3   OH279659   2.925   5.894   4.671
19415TIP3    H179660   2.857   5.830   4.699
19415TIP3    H279661   2.980   5.841   4.613
19416TIP3   OH279662   3.439   5.699   4.677
19416TIP3    H179663   3.500   5.759   4.627
19416TIP3    H279664   3.350   5.735   4.654
19417TIP3   OH279665   3.605   5.824   4.505
19417TIP3    H179666   3.674   5.767   4.464
19417TIP3    H279667   3.656   5.908   4.516
19418TIP3   OH279668   2.158   5.756   4.466
19418TIP3    H179669   2.089   5.739   4.399
19418TIP3    H279670   2.209   5.675   4.447
19419TIP3   OH279671   2.019   5.741   4.004
19419TIP3    H179672   2.092   5.798   3.976
19419TIP3    H279673   1.987   5.786   4.084
19420TIP3   OH279674   2.611   5.751   4.435
19420TIP3    H179675   2.701   5.786   4.428
19420TIP3    H279676   2.605   5.727   4.527
19421TIP3   OH279677   3.181   5.751   4.597
19421TIP3    H179678   3.175   5.763   4.501
19421TIP3    H279679   3.143   5.661   4.610
19422TIP3   OH279680   3.307   5.754   4.165
19422TIP3    H179681   3.232   5.814   4.150
19422TIP3    H279682   3.263   5.669   4.189
19423TIP3   OH279683   2.222   5.929   3.877
19423TIP3    H179684   2.274   5.863   3.828
19423TIP3    H279685   2.287   5.956   3.944
19424TIP3   OH279686   2.724   5.951   4.120
19424TIP3    H179687   2.750   5.893   4.194
19424TIP3    H279688   2.731   6.037   4.165
19425TIP3   OH279689   2.151   5.814   5.404
19425TIP3    H179690   2.113   5.732   5.442
19425TIP3    H279691   2.244   5.807   5.437
19426TIP3   OH279692   2.351   5.746   5.567
19426TIP3    H179693   2.439   5.715   5.538
19426TIP3    H279694   2.315   5.665   5.604
19427TIP3   OH279695   3.193   5.683   5.576
19427TIP3    H179696   3.199   5.634   5.660
19427TIP3    H279697   3.285   5.675   5.544
19428TIP3   OH279698   3.490  -0.025   5.460
19428TIP3    H179699   3.429  -0.036   5.387
19428TIP3    H279700   3.511   0.071   5.464
19429TIP3   OH279701   4.957   6.668   4.440
19429TIP3    H179702   4.954   6.767   4.440
19429TIP3    H279703   4.883   6.647   4.381
19430TIP3   OH279704   4.842   6.596   4.792
19430TIP3    H179705   4.841   6.531   4.864
19430TIP3    H279706   4.807   6.545   4.717
19431TIP3   OH279707   4.077   6.564   4.947
19431TIP3    H179708   4.085   6.495   5.017
19431TIP3    H279709   4.152   6.621   4.969
19432TIP3   OH279710   5.210   6.890   4.621
19432TIP3    H179711   5.170   6.818   4.670
19432TIP3    H279712   5.214   6.962   4.687
19433TIP3   OH279713   4.172   7.009   4.800
19433TIP3    H179714   4.138   6.924   4.766
19433TIP3    H279715   4.267   6.990   4.800
19434TIP3   OH279716   3.834   6.364   4.346
19434TIP3    H179717   3.790   6.451   4.340
19434TIP3    H279718   3.777   6.310   4.289
19435TIP3   OH279719   3.905   6.587   4.561
19435TIP3    H179720   3.932   6.505   4.606
19435TIP3    H279721   3.974   6.598   4.494
19436TIP3   OH279722   4.678   6.834   4.840
19436TIP3    H179723   4.713   6.773   4.773
19436TIP3    H279724   4.759   6.854   4.889
19437TIP3   OH279725   5.537   6.006   4.911
19437TIP3    H179726   5.557   6.061   4.989
19437TIP3    H279727   5.597   6.043   4.845
19438TIP3   OH279728   4.996   6.284   4.871
19438TIP3    H179729   5.013   6.188   4.871
19438TIP3    H279730   4.986   6.297   4.774
19439TIP3   OH279731   4.307   6.092   4.592
19439TIP3    H179732   4.318   6.176   4.542
19439TIP3    H279733   4.268   6.035   4.523
19440TIP3   OH279734   5.081   6.100   4.429
19440TIP3    H179735   5.146   6.069   4.496
19440TIP3    H279736   5.138   6.158   4.376
19441TIP3   OH279737   3.970   6.333   4.665
19441TIP3    H179738   4.037   6.279   4.711
19441TIP3    H279739   3.981   6.302   4.574
19442TIP3   OH279740   4.486   6.489   4.597
19442TIP3    H179741   4.553   6.431   4.637
19442TIP3    H279742   4.434   6.423   4.546
19443TIP3   OH279743   5.586   6.145   5.138
19443TIP3    H179744   5.522   6.219   5.129
19443TIP3    H279745   5.586   6.131   5.233
19444TIP3   OH279746   4.198   5.982   4.995
19444TIP3    H179747   4.170   6.040   4.921
19444TIP3    H279748   4.131   6.005   5.064
19445TIP3   OH279749   4.926   6.928   4.350
19445TIP3    H179750   4.902   6.904   4.260
19445TIP3    H279751   4.897   7.021   4.357
19446TIP3   OH279752   4.449   6.744   5.019
19446TIP3    H179753   4.379   6.809   5.043
19446TIP3    H279754   4.520   6.803   4.991
19447TIP3   OH279755   5.261   6.036   4.627
19447TIP3    H179756   5.240   5.959   4.680
19447TIP3    H279757   5.330   6.077   4.682
19448TIP3   OH279758   4.155   6.168   4.799
19448TIP3    H179759   4.218   6.236   4.830
19448TIP3    H279760   4.207   6.127   4.725
19449TIP3   OH279761   4.296   6.946   5.101
19449TIP3    H179762   4.290   7.037   5.066
19449TIP3    H279763   4.207   6.938   5.143
19450TIP3   OH279764   3.902   6.913   4.181
19450TIP3    H179765   3.876   6.945   4.093
19450TIP3    H279766   3.910   6.996   4.232
19451TIP3   OH279767   5.265   7.077   4.862
19451TIP3    H179768   5.167   7.085   4.871
19451TIP3    H279769   5.294   7.165   4.836
19452TIP3   OH279770   5.290   5.914   5.006
19452TIP3    H179771   5.218   5.973   4.982
19452TIP3    H279772   5.364   5.938   4.945
19453TIP3   OH279773   4.592   5.716   4.741
19453TIP3    H179774   4.578   5.619   4.736
19453TIP3    H279775   4.505   5.746   4.774
19454TIP3   OH279776   5.093   7.222   4.497
19454TIP3    H179777   5.150   7.161   4.447
19454TIP3    H279778   5.132   7.306   4.474
19455TIP3   OH279779   5.220   7.034   4.366
19455TIP3    H179780   5.176   6.971   4.307
19455TIP3    H279781   5.214   6.991   4.453
19456TIP3   OH279782   5.367   6.910   5.217
19456TIP3    H179783   5.390   6.841   5.151
19456TIP3    H279784   5.399   6.990   5.172
19457TIP3   OH279785   4.822   6.594   4.193
19457TIP3    H179786   4.753   6.652   4.157
19457TIP3    H279787   4.893   6.604   4.127
19458TIP3   OH279788   4.830   6.451   3.894
19458TIP3    H179789   4.901   6.449   3.961
19458TIP3    H279790   4.861   6.380   3.837
19459TIP3   OH279791   5.554   6.531   5.011
19459TIP3    H179792   5.498   6.610   5.027
19459TIP3    H279793   5.612   6.562   4.939
19460TIP3   OH279794   5.170   6.617   4.286
19460TIP3    H179795   5.093   6.640   4.344
19460TIP3    H279796   5.213   6.547   4.338
19461TIP3   OH279797   5.155   6.431   5.199
19461TIP3    H179798   5.160   6.514   5.250
19461TIP3    H279799   5.096   6.462   5.127
19462TIP3   OH279800   4.328   6.682   4.477
19462TIP3    H179801   4.296   6.642   4.392
19462TIP3    H279802   4.389   6.612   4.510
19463TIP3   OH279803   4.460   7.022   4.744
19463TIP3    H179804   4.460   6.967   4.664
19463TIP3    H279805   4.537   6.985   4.792
19464TIP3   OH279806   4.361   6.556   4.843
19464TIP3    H179807   4.416   6.566   4.763
19464TIP3    H279808   4.400   6.623   4.904
19465TIP3   OH279809   5.005   7.114   4.916
19465TIP3    H179810   4.969   7.176   4.978
19465TIP3    H279811   4.978   7.027   4.955
19466TIP3   OH279812   4.456   7.001   5.315
19466TIP3    H179813   4.412   7.075   5.360
19466TIP3    H279814   4.390   6.976   5.245
19467TIP3   OH279815   5.054   6.536   4.052
19467TIP3    H179816   5.110   6.553   4.132
19467TIP3    H279817   5.099   6.584   3.979
19468TIP3   OH279818   4.149   6.615   5.231
19468TIP3    H179819   4.153   6.682   5.302
19468TIP3    H279820   4.056   6.625   5.205
19469TIP3   OH279821   4.821   7.205   4.400
19469TIP3    H179822   4.871   7.237   4.476
19469TIP3    H279823   4.770   7.282   4.373
19470TIP3   OH279824   4.275   7.192   5.386
19470TIP3    H179825   4.270   7.193   5.288
19470TIP3    H279826   4.181   7.187   5.412
19471TIP3   OH279827   5.427   5.709   4.042
19471TIP3    H179828   5.332   5.720   4.067
19471TIP3    H279829   5.447   5.793   3.998
19472TIP3   OH279830   4.224   6.583   4.240
19472TIP3    H179831   4.196   6.662   4.188
19472TIP3    H279832   4.159   6.517   4.215
19473TIP3   OH279833   5.544   7.140   3.879
19473TIP3    H179834   5.551   7.237   3.891
19473TIP3    H279835   5.637   7.115   3.876
19474TIP3   OH279836   3.833   6.827   5.127
19474TIP3    H179837   3.789   6.818   5.041
19474TIP3    H279838   3.842   6.733   5.151
19475TIP3   OH279839   3.813   7.096   4.810
19475TIP3    H179840   3.909   7.091   4.802
19475TIP3    H279841   3.803   7.179   4.859
19476TIP3   OH279842   5.630   7.172   5.383
19476TIP3    H179843   5.623   7.075   5.369
19476TIP3    H279844   5.541   7.196   5.415
19477TIP3   OH279845   4.728   7.128   5.258
19477TIP3    H179846   4.738   7.207   5.312
19477TIP3    H279847   4.644   7.086   5.287
19478TIP3   OH279848   5.346   6.317   5.420
19478TIP3    H179849   5.301   6.364   5.348
19478TIP3    H279850   5.349   6.225   5.390
19479TIP3   OH279851   4.064   6.959   5.222
19479TIP3    H179852   4.082   6.923   5.312
19479TIP3    H279853   3.976   6.920   5.199
19480TIP3   OH279854   4.330   5.807   4.815
19480TIP3    H179855   4.240   5.793   4.780
19480TIP3    H279856   4.317   5.888   4.867
19481TIP3   OH279857   4.794   5.775   5.156
19481TIP3    H179858   4.834   5.730   5.232
19481TIP3    H279859   4.697   5.760   5.169
19482TIP3   OH279860   5.118   6.156   5.239
19482TIP3    H179861   5.068   6.137   5.323
19482TIP3    H279862   5.109   6.252   5.224
19483TIP3   OH279863   5.199   6.638   3.833
19483TIP3    H179864   5.197   6.619   3.736
19483TIP3    H279865   5.284   6.683   3.838
19484TIP3   OH279866   4.759   6.031   3.884
19484TIP3    H179867   4.727   6.025   3.976
19484TIP3    H279868   4.728   5.943   3.854
19485TIP3   OH279869   4.341   6.303   4.943
19485TIP3    H179870   4.268   6.302   5.007
19485TIP3    H279871   4.336   6.394   4.905
19486TIP3   OH279872   4.337   6.315   4.429
19486TIP3    H179873   4.243   6.290   4.416
19486TIP3    H279874   4.374   6.286   4.344
19487TIP3   OH279875   4.889   6.365   4.307
19487TIP3    H179876   4.849   6.447   4.270
19487TIP3    H279877   4.957   6.348   4.240
19488TIP3   OH279878   4.992   6.314   4.591
19488TIP3    H179879   4.964   6.370   4.517
19488TIP3    H279880   5.002   6.229   4.544
19489TIP3   OH279881   4.103   6.328   5.111
19489TIP3    H179882   4.112   6.370   5.199
19489TIP3    H279883   4.059   6.245   5.132
19490TIP3   OH279884   4.440   6.068   3.796
19490TIP3    H179885   4.395   6.026   3.872
19490TIP3    H279886   4.369   6.111   3.747
19491TIP3   OH279887   3.769   6.039   4.510
19491TIP3    H179888   3.837   6.035   4.580
19491TIP3    H279889   3.814   6.002   4.432
19492TIP3   OH279890   3.895   6.111   4.044
19492TIP3    H179891   3.947   6.172   3.988
19492TIP3    H279892   3.826   6.173   4.076
19493TIP3   OH279893   4.911   6.473   5.046
19493TIP3    H179894   4.950   6.404   4.987
19493TIP3    H279895   4.865   6.419   5.111
19494TIP3   OH279896   4.592   6.071   4.530
19494TIP3    H179897   4.499   6.071   4.559
19494TIP3    H279898   4.640   6.053   4.612
19495TIP3   OH279899   4.073   6.225   4.417
19495TIP3    H179900   3.985   6.241   4.377
19495TIP3    H279901   4.102   6.141   4.377
19496TIP3   OH279902   4.437   6.230   4.179
19496TIP3    H179903   4.533   6.241   4.195
19496TIP3    H279904   4.414   6.298   4.114
19497TIP3   OH279905   5.033   5.995   4.853
19497TIP3    H179906   4.965   5.999   4.924
19497TIP3    H279907   4.983   5.967   4.775
19498TIP3   OH279908   4.308   6.348   3.938
19498TIP3    H179909   4.255   6.309   3.867
19498TIP3    H279910   4.390   6.368   3.891
19499TIP3   OH279911   4.116   6.809   5.446
19499TIP3    H179912   4.191   6.832   5.503
19499TIP3    H279913   4.040   6.812   5.505
19500TIP3   OH279914   4.720   6.346   4.719
19500TIP3    H179915   4.780   6.292   4.666
19500TIP3    H279916   4.706   6.291   4.797
19501TIP3   OH279917   4.221   5.960   4.363
19501TIP3    H179918   4.190   5.868   4.362
19501TIP3    H279919   4.300   5.954   4.308
19502TIP3   OH279920   4.584   6.178   4.961
19502TIP3    H179921   4.501   6.230   4.968
19502TIP3    H279922   4.640   6.214   5.033
19503TIP3   OH279923   4.643   6.799   4.131
19503TIP3    H179924   4.563   6.753   4.097
19503TIP3    H279925   4.620   6.812   4.225
19504TIP3   OH279926   5.359   6.720   5.009
19504TIP3    H179927   5.419   6.770   4.949
19504TIP3    H279928   5.275   6.727   4.961
19505TIP3   OH279929   5.026   6.082   3.948
19505TIP3    H179930   4.931   6.098   3.934
19505TIP3    H279931   5.060   6.167   3.983
19506TIP3   OH279932   4.790   6.831   5.250
19506TIP3    H179933   4.758   6.786   5.329
19506TIP3    H279934   4.766   6.923   5.267
19507TIP3   OH279935   5.101   6.275   4.110
19507TIP3    H179936   5.189   6.261   4.151
19507TIP3    H279937   5.112   6.358   4.059
19508TIP3   OH279938   4.154   6.740   4.710
19508TIP3    H179939   4.222   6.733   4.641
19508TIP3    H279940   4.160   6.654   4.756
19509TIP3   OH279941   4.852   6.946   4.033
19509TIP3    H179942   4.819   7.032   4.066
19509TIP3    H279943   4.779   6.885   4.057
19510TIP3   OH279944   3.854   6.580   5.235
19510TIP3    H179945   3.870   6.539   5.323
19510TIP3    H279946   3.790   6.519   5.194
19511TIP3   OH279947   4.553   6.532   5.455
19511TIP3    H179948   4.522   6.507   5.367
19511TIP3    H279949   4.647   6.513   5.452
19512TIP3   OH279950   5.022   7.076   5.242
19512TIP3    H179951   4.928   7.082   5.224
19512TIP3    H279952   5.019   7.094   5.339
19513TIP3   OH279953   5.590   6.288   4.088
19513TIP3    H179954   5.533   6.257   4.015
19513TIP3    H279955   5.597   6.381   4.061
19514TIP3   OH279956   5.591   6.873   5.371
19514TIP3    H179957   5.503   6.894   5.333
19514TIP3    H279958   5.642   6.864   5.288
19515TIP3   OH279959   5.442   7.138   4.148
19515TIP3    H179960   5.371   7.077   4.161
19515TIP3    H279961   5.442   7.157   4.052
19516TIP3   OH279962   5.139   6.652   4.839
19516TIP3    H179963   5.045   6.631   4.827
19516TIP3    H279964   5.182   6.577   4.795
19517TIP3   OH279965   4.395   7.082   4.440
19517TIP3    H179966   4.442   7.166   4.432
19517TIP3    H279967   4.304   7.106   4.420
19518TIP3   OH279968   3.968   6.569   3.906
19518TIP3    H179969   4.026   6.635   3.948
19518TIP3    H279970   3.879   6.601   3.931
19519TIP3   OH279971   4.535   6.851   4.400
19519TIP3    H179972   4.503   6.943   4.409
19519TIP3    H279973   4.462   6.803   4.444
19520TIP3   OH279974   4.608   7.239   5.009
19520TIP3    H179975   4.623   7.334   5.003
19520TIP3    H279976   4.640   7.223   5.100
19521TIP3   OH279977   4.931   6.871   5.003
19521TIP3    H179978   4.896   6.850   5.091
19521TIP3    H279979   4.994   6.799   4.986
19522TIP3   OH279980   5.164   6.976   3.911
19522TIP3    H179981   5.193   6.932   3.993
19522TIP3    H279982   5.068   6.961   3.920
19523TIP3   OH279983   4.018   6.054   5.192
19523TIP3    H179984   3.928   6.089   5.189
19523TIP3    H279985   4.007   5.969   5.237
19524TIP3   OH279986   5.241   6.836   4.134
19524TIP3    H179987   5.215   6.761   4.192
19524TIP3    H279988   5.335   6.846   4.155
19525TIP3   OH279989   3.979   7.229   5.033
19525TIP3    H179990   4.009   7.138   5.037
19525TIP3    H279991   4.000   7.263   5.121
19526TIP3   OH279992   4.577   7.083   3.760
19526TIP3    H179993   4.586   7.006   3.702
19526TIP3    H279994   4.535   7.041   3.838
19527TIP3   OH279995   4.452   7.034   4.006
19527TIP3    H179996   4.480   6.985   4.084
19527TIP3    H279997   4.465   7.127   4.033
19528TIP3   OH279998   4.108   6.763   4.055
19528TIP3    H179999   4.037   6.803   4.109
19528TIP3    H280000   4.159   6.841   4.026
19529TIP3   OH280001   4.891   6.032   5.088
19529TIP3    H180002   4.963   6.035   5.151
19529TIP3    H280003   4.853   5.943   5.105
19530TIP3   OH280004   4.966   5.988   4.196
19530TIP3    H180005   4.989   6.034   4.113
19530TIP3    H280006   5.023   6.032   4.259
19531TIP3   OH280007   4.739   7.207   4.079
19531TIP3    H180008   4.654   7.255   4.083
19531TIP3    H280009   4.786   7.258   4.011
19532TIP3   OH280010   4.689   6.163   4.278
19532TIP3    H180011   4.767   6.222   4.283
19532TIP3    H280012   4.662   6.151   4.371
19533TIP3   OH280013   4.746   6.265   5.192
19533TIP3    H180014   4.750   6.321   5.271
19533TIP3    H280015   4.811   6.195   5.205
19534TIP3   OH280016   4.773   5.869   4.366
19534TIP3    H180017   4.741   5.934   4.431
19534TIP3    H280018   4.843   5.924   4.322
19535TIP3   OH280019   4.480   0.005   4.082
19535TIP3    H180020   4.482   0.084   4.025
19535TIP3    H280021   4.450   0.042   4.167
19536TIP3   OH280022   4.339   5.980   4.037
19536TIP3    H180023   4.334   6.070   4.076
19536TIP3    H280024   4.430   5.955   4.064
19537TIP3   OH280025   5.362   6.056   5.284
19537TIP3    H180026   5.268   6.082   5.268
19537TIP3    H280027   5.392   6.050   5.192
19538TIP3   OH280028   5.223   6.431   4.681
19538TIP3    H180029   5.141   6.387   4.655
19538TIP3    H280030   5.271   6.363   4.735
19539TIP3   OH280031   4.165   7.024   3.941
19539TIP3    H180032   4.232   7.088   3.969
19539TIP3    H280033   4.215   6.976   3.873
19540TIP3   OH280034   3.997   6.291   3.856
19540TIP3    H180035   3.999   6.387   3.877
19540TIP3    H280036   3.908   6.274   3.825
19541TIP3   OH280037   4.079   5.770   4.730
19541TIP3    H180038   4.059   5.771   4.634
19541TIP3    H280039   4.037   5.684   4.755
19542TIP3   OH280040   3.975   7.162   4.342
19542TIP3    H180041   3.888   7.205   4.341
19542TIP3    H280042   4.025   7.211   4.275
19543TIP3   OH280043   4.392   7.287   5.659
19543TIP3    H180044   4.476   7.245   5.675
19543TIP3    H280045   4.381   7.273   5.562
19544TIP3   OH280046   4.779   7.263   3.785
19544TIP3    H180047   4.705   7.201   3.793
19544TIP3    H280048   4.849   7.210   3.747
19545TIP3   OH280049   5.021   7.120   5.495
19545TIP3    H180050   4.978   7.052   5.548
19545TIP3    H280051   5.082   7.163   5.558
19546TIP3   OH280052   5.247   7.239   3.806
19546TIP3    H180053   5.274   7.156   3.846
19546TIP3    H280054   5.319   7.261   3.744
19547TIP3   OH280055   4.321   6.837   3.774
19547TIP3    H180056   4.336   6.761   3.834
19547TIP3    H280057   4.396   6.826   3.713
19548TIP3   OH280058   4.559   6.801   5.506
19548TIP3    H180059   4.522   6.835   5.423
19548TIP3    H280060   4.563   6.704   5.498
19549TIP3   OH280061   4.865   6.952   3.752
19549TIP3    H180062   4.835   6.960   3.844
19549TIP3    H280063   4.845   6.856   3.738
19550TIP3   OH280064   5.126   6.790   5.255
19550TIP3    H180065   5.206   6.846   5.240
19550TIP3    H280066   5.057   6.857   5.254
19551TIP3   OH280067   3.982   6.529   5.513
19551TIP3    H180068   4.017   6.440   5.500
19551TIP3    H280069   3.944   6.527   5.601
19552TIP3   OH280070   4.441   6.640   4.018
19552TIP3    H180071   4.391   6.587   4.080
19552TIP3    H280072   4.471   6.573   3.952
19553TIP3   OH280073   4.369   6.423   5.248
19553TIP3    H180074   4.307   6.493   5.272
19553TIP3    H280075   4.406   6.458   5.165
19554TIP3   OH280076   4.549   6.463   3.837
19554TIP3    H180077   4.534   6.454   3.741
19554TIP3    H280078   4.646   6.468   3.844
19555TIP3   OH280079   4.877   6.672   5.574
19555TIP3    H180080   4.972   6.679   5.567
19555TIP3    H280081   4.858   6.606   5.639
19556TIP3   OH280082   5.484   6.694   3.780
19556TIP3    H180083   5.463   6.656   3.693
19556TIP3    H280084   5.489   6.791   3.759
19557TIP3   OH280085   4.409   6.161   5.350
19557TIP3    H180086   4.418   6.089   5.285
19557TIP3    H280087   4.403   6.242   5.296
19558TIP3   OH280088   4.448   5.997   5.108
19558TIP3    H180089   4.500   6.043   5.038
19558TIP3    H280090   4.359   5.989   5.067
19559TIP3   OH280091   4.605   6.545   5.133
19559TIP3    H180092   4.678   6.530   5.072
19559TIP3    H280093   4.566   6.628   5.101
19560TIP3   OH280094   5.173   6.604   5.443
19560TIP3    H180095   5.156   6.676   5.380
19560TIP3    H280096   5.271   6.600   5.428
19561TIP3   OH280097   4.258   6.283   5.546
19561TIP3    H180098   4.178   6.229   5.527
19561TIP3    H280099   4.321   6.248   5.480
19562TIP3   OH280100   4.528   5.741   5.148
19562TIP3    H180101   4.510   5.837   5.137
19562TIP3    H280102   4.454   5.704   5.098
19563TIP3   OH280103   4.926   6.091   5.421
19563TIP3    H180104   4.830   6.086   5.424
19563TIP3    H280105   4.956   6.023   5.484
19564TIP3   OH280106   5.080   5.957   5.614
19564TIP3    H180107   5.082   5.858   5.608
19564TIP3    H280108   5.057   5.975   5.704
19565TIP3   OH280109   4.067   6.079   5.520
19565TIP3    H180110   4.088   6.006   5.460
19565TIP3    H280111   4.058   6.031   5.605
19566TIP3   OH280112   3.890   6.990   3.889
19566TIP3    H180113   3.985   7.000   3.912
19566TIP3    H280114   3.895   6.923   3.818
19567TIP3   OH280115   5.398   6.965   5.624
19567TIP3    H180116   5.319   6.946   5.675
19567TIP3    H280117   5.444   7.030   5.678
19568TIP3   OH280118   5.514   6.771   4.169
19568TIP3    H180119   5.566   6.848   4.194
19568TIP3    H280120   5.513   6.707   4.245
19569TIP3   OH280121   5.574   6.599   4.363
19569TIP3    H180122   5.498   6.545   4.398
19569TIP3    H280123   5.630   6.603   4.443
19570TIP3   OH280124   5.542   6.863   4.853
19570TIP3    H180125   5.627   6.826   4.825
19570TIP3    H280126   5.562   6.959   4.848
19571TIP3   OH280127   5.396   7.153   5.093
19571TIP3    H180128   5.326   7.190   5.147
19571TIP3    H280129   5.347   7.116   5.016
19572TIP3   OH280130   5.606   6.581   4.002
19572TIP3    H180131   5.545   6.608   3.928
19572TIP3    H280132   5.580   6.646   4.067
19573TIP3   OH280133   5.439   6.299   3.854
19573TIP3    H180134   5.446   6.366   3.784
19573TIP3    H280135   5.420   6.217   3.804
19574TIP3   OH280136   5.357   6.443   4.420
19574TIP3    H180137   5.339   6.348   4.415
19574TIP3    H280138   5.319   6.464   4.508
19575TIP3   OH280139   3.854   6.650   4.826
19575TIP3    H180140   3.871   6.642   4.729
19575TIP3    H280141   3.943   6.632   4.861
19576TIP3   OH280142   5.436   6.638   5.392
19576TIP3    H180143   5.501   6.566   5.402
19576TIP3    H280144   5.497   6.714   5.388
19577TIP3   OH280145   5.585   6.421   5.472
19577TIP3    H180146   5.499   6.387   5.438
19577TIP3    H280147   5.645   6.350   5.442
19578TIP3   OH280148   5.363   6.047   3.767
19578TIP3    H180149   5.422   6.003   3.831
19578TIP3    H280150   5.277   6.005   3.782
19579TIP3   OH280151   5.317   6.199   4.261
19579TIP3    H180152   5.348   6.107   4.278
19579TIP3    H280153   5.400   6.240   4.231
19580TIP3   OH280154   5.383   6.256   4.810
19580TIP3    H180155   5.480   6.278   4.808
19580TIP3    H280156   5.365   6.268   4.904
19581TIP3   OH280157   5.388   6.327   5.087
19581TIP3    H180158   5.303   6.357   5.123
19581TIP3    H280159   5.435   6.413   5.067
19582TIP3   OH280160   3.815   6.179   5.442
19582TIP3    H180161   3.909   6.159   5.458
19582TIP3    H280162   3.771   6.097   5.471
19583TIP3   OH280163   5.620   5.727   5.622
19583TIP3    H180164   5.652   5.663   5.558
19583TIP3    H280165   5.625   5.811   5.571
19584TIP3   OH280166   5.387   5.929   4.270
19584TIP3    H180167   5.409   5.885   4.355
19584TIP3    H280168   5.327   5.865   4.226
19585TIP3   OH280169   3.935   6.009   4.726
19585TIP3    H180170   3.981   5.927   4.752
19585TIP3    H280171   3.991   6.078   4.765
19586TIP3   OH280172   3.764   6.309   4.830
19586TIP3    H180173   3.820   6.284   4.754
19586TIP3    H280174   3.810   6.390   4.857
19587TIP3   OH280175   5.573   5.940   5.459
19587TIP3    H180176   5.479   5.970   5.452
19587TIP3    H280177   5.574   5.887   5.377
19588TIP3   OH280178   5.569   5.932   3.925
19588TIP3    H180179   5.610   5.861   3.872
19588TIP3    H280180   5.639   5.998   3.930
19589TIP3   OH280181   3.801   5.937   4.238
19589TIP3    H180182   3.706   5.953   4.222
19589TIP3    H280183   3.842   5.985   4.164
19590TIP3   OH280184   3.795   5.801   5.066
19590TIP3    H180185   3.728   5.781   5.134
19590TIP3    H280186   3.749   5.868   5.012
19591TIP3   OH280187   4.018   7.127   5.485
19591TIP3    H180188   3.934   7.141   5.438
19591TIP3    H280189   3.985   7.116   5.576
19592TIP3   OH280190   4.312   7.221   5.117
19592TIP3    H180191   4.269   7.299   5.080
19592TIP3    H280192   4.399   7.218   5.074
19593TIP3   OH280193   5.469   5.750   5.246
19593TIP3    H180194   5.391   5.782   5.199
19593TIP3    H280195   5.490   5.673   5.187
19594TIP3   OH280196   4.229   7.255   4.647
19594TIP3    H180197   4.191   7.179   4.694
19594TIP3    H280198   4.287   7.292   4.716
19595TIP3   OH280199   4.811   5.894   4.671
19595TIP3    H180200   4.743   5.830   4.699
19595TIP3    H280201   4.866   5.841   4.613
19596TIP3   OH280202   5.319   5.690   4.661
19596TIP3    H180203   5.385   5.757   4.630
19596TIP3    H280204   5.235   5.737   4.655
19597TIP3   OH280205   5.490   5.826   4.503
19597TIP3    H180206   5.559   5.767   4.465
19597TIP3    H280207   5.543   5.908   4.518
19598TIP3   OH280208   4.048   5.757   4.456
19598TIP3    H180209   3.968   5.737   4.403
19598TIP3    H280210   4.094   5.671   4.450
19599TIP3   OH280211   3.924   5.732   4.028
19599TIP3    H180212   3.974   5.797   3.975
19599TIP3    H280213   3.868   5.790   4.082
19600TIP3   OH280214   4.495   5.749   4.435
19600TIP3    H180215   4.585   5.785   4.427
19600TIP3    H280216   4.491   5.728   4.528
19601TIP3   OH280217   5.060   5.753   4.597
19601TIP3    H180218   5.064   5.761   4.501
19601TIP3    H280219   5.031   5.660   4.611
19602TIP3   OH280220   5.193   5.754   4.165
19602TIP3    H180221   5.118   5.814   4.150
19602TIP3    H280222   5.149   5.669   4.189
19603TIP3   OH280223   4.107   5.927   3.879
19603TIP3    H180224   4.160   5.865   3.826
19603TIP3    H280225   4.174   5.959   3.943
19604TIP3   OH280226   4.610   5.951   4.120
19604TIP3    H180227   4.635   5.893   4.194
19604TIP3    H280228   4.617   6.037   4.165
19605TIP3   OH280229   4.038   5.809   5.403
19605TIP3    H180230   3.996   5.731   5.443
19605TIP3    H280231   4.129   5.806   5.440
19606TIP3   OH280232   4.239   5.748   5.571
19606TIP3    H180233   4.321   5.712   5.535
19606TIP3    H280234   4.195   5.668   5.605
19607TIP3   OH280235   5.077   5.680   5.580
19607TIP3    H180236   5.086   5.635   5.666
19607TIP3    H280237   5.168   5.676   5.543
19608TIP3   OH280238   5.382  -0.023   5.459
19608TIP3    H180239   5.317  -0.037   5.390
19608TIP3    H280240   5.393   0.073   5.463
19609TIP3   OH280241   6.842   6.669   4.442
19609TIP3    H180242   6.842   6.767   4.439
19609TIP3    H280243   6.769   6.647   4.381
19610TIP3   OH280244   6.728   6.596   4.792
19610TIP3    H180245   6.726   6.532   4.864
19610TIP3    H280246   6.695   6.545   4.716
19611TIP3   OH280247   5.979   6.546   4.928
19611TIP3    H180248   5.967   6.498   5.012
19611TIP3    H280249   6.026   6.622   4.967
19612TIP3   OH280250   7.098   6.889   4.620
19612TIP3    H180251   7.056   6.818   4.670
19612TIP3    H280252   7.100   6.961   4.685
19613TIP3   OH280253   6.058   7.011   4.797
19613TIP3    H180254   6.023   6.924   4.767
19613TIP3    H280255   6.153   6.990   4.800
19614TIP3   OH280256   5.721   6.368   4.341
19614TIP3    H180257   5.672   6.450   4.342
19614TIP3    H280258   5.663   6.309   4.291
19615TIP3   OH280259   5.790   6.586   4.557
19615TIP3    H180260   5.816   6.507   4.608
19615TIP3    H280261   5.865   6.595   4.497
19616TIP3   OH280262   6.564   6.834   4.840
19616TIP3    H180263   6.599   6.773   4.773
19616TIP3    H280264   6.646   6.854   4.889
19617TIP3   OH280265   6.883   6.284   4.870
19617TIP3    H180266   6.899   6.188   4.869
19617TIP3    H280267   6.873   6.298   4.774
19618TIP3   OH280268   6.192   6.093   4.592
19618TIP3    H180269   6.203   6.177   4.544
19618TIP3    H280270   6.153   6.035   4.523
19619TIP3   OH280271   6.969   6.104   4.431
19619TIP3    H180272   7.033   6.068   4.497
19619TIP3    H280273   7.028   6.156   4.376
19620TIP3   OH280274   5.855   6.332   4.666
19620TIP3    H180275   5.923   6.278   4.710
19620TIP3    H280276   5.866   6.301   4.575
19621TIP3   OH280277   6.372   6.489   4.597
19621TIP3    H180278   6.438   6.431   4.637
19621TIP3    H280279   6.320   6.423   4.546
19622TIP3   OH280280   6.084   5.982   4.996
19622TIP3    H180281   6.055   6.039   4.921
19622TIP3    H280282   6.016   6.004   5.064
19623TIP3   OH280283   6.813   6.928   4.350
19623TIP3    H180284   6.787   6.903   4.260
19623TIP3    H280285   6.782   7.021   4.357
19624TIP3   OH280286   6.337   6.743   5.019
19624TIP3    H180287   6.265   6.806   5.043
19624TIP3    H280288   6.405   6.806   4.992
19625TIP3   OH280289   7.118   6.032   4.640
19625TIP3    H180290   7.121   5.950   4.690
19625TIP3    H280291   7.195   6.079   4.680
19626TIP3   OH280292   6.041   6.168   4.800
19626TIP3    H180293   6.104   6.237   4.830
19626TIP3    H280294   6.092   6.127   4.726
19627TIP3   OH280295   6.180   6.946   5.101
19627TIP3    H180296   6.172   7.038   5.069
19627TIP3    H280297   6.091   6.934   5.143
19628TIP3   OH280298   5.826   6.947   4.169
19628TIP3    H180299   5.775   6.967   4.087
19628TIP3    H280300   5.800   7.018   4.232
19629TIP3   OH280301   7.130   7.069   4.871
19629TIP3    H180302   7.033   7.087   4.873
19629TIP3    H280303   7.169   7.151   4.836
19630TIP3   OH280304   7.162   5.915   4.973
19630TIP3    H180305   7.092   5.983   4.983
19630TIP3    H280306   7.238   5.965   4.941
19631TIP3   OH280307   6.478   5.715   4.742
19631TIP3    H180308   6.463   5.619   4.735
19631TIP3    H280309   6.390   5.746   4.773
19632TIP3   OH280310   6.981   7.224   4.498
19632TIP3    H180311   7.036   7.161   4.447
19632TIP3    H280312   7.019   7.308   4.474
19633TIP3   OH280313   7.102   7.039   4.366
19633TIP3    H180314   7.068   6.971   4.307
19633TIP3    H280315   7.101   6.991   4.452
19634TIP3   OH280316   7.233   6.921   5.229
19634TIP3    H180317   7.259   6.850   5.168
19634TIP3    H280318   7.276   6.995   5.183
19635TIP3   OH280319   6.706   6.593   4.193
19635TIP3    H180320   6.638   6.653   4.156
19635TIP3    H280321   6.778   6.603   4.128
19636TIP3   OH280322   6.715   6.452   3.894
19636TIP3    H180323   6.787   6.449   3.960
19636TIP3    H280324   6.746   6.380   3.837
19637TIP3   OH280325   7.049   6.616   4.282
19637TIP3    H180326   6.977   6.641   4.344
19637TIP3    H280327   7.097   6.552   4.339
19638TIP3   OH280328   7.047   6.435   5.194
19638TIP3    H180329   7.041   6.513   5.252
19638TIP3    H280330   6.982   6.462   5.126
19639TIP3   OH280331   6.214   6.682   4.477
19639TIP3    H180332   6.182   6.642   4.393
19639TIP3    H280333   6.275   6.613   4.511
19640TIP3   OH280334   6.346   7.021   4.745
19640TIP3    H180335   6.346   6.968   4.665
19640TIP3    H280336   6.423   6.985   4.791
19641TIP3   OH280337   6.250   6.554   4.842
19641TIP3    H180338   6.303   6.567   4.762
19641TIP3    H280339   6.283   6.622   4.904
19642TIP3   OH280340   6.882   7.114   4.914
19642TIP3    H180341   6.857   7.176   4.980
19642TIP3    H280342   6.860   7.027   4.955
19643TIP3   OH280343   6.346   7.002   5.312
19643TIP3    H180344   6.297   7.072   5.363
19643TIP3    H280345   6.277   6.977   5.246
19644TIP3   OH280346   6.939   6.534   4.053
19644TIP3    H180347   6.995   6.556   4.132
19644TIP3    H280348   6.979   6.586   3.981
19645TIP3   OH280349   6.083   6.578   5.279
19645TIP3    H180350   6.059   6.670   5.303
19645TIP3    H280351   6.004   6.577   5.220
19646TIP3   OH280352   6.707   7.205   4.401
19646TIP3    H180353   6.759   7.239   4.475
19646TIP3    H280354   6.657   7.283   4.373
19647TIP3   OH280355   6.166   7.188   5.382
19647TIP3    H180356   6.155   7.193   5.285
19647TIP3    H280357   6.073   7.187   5.413
19648TIP3   OH280358   6.107   6.585   4.244
19648TIP3    H180359   6.085   6.661   4.186
19648TIP3    H280360   6.048   6.515   4.214
19649TIP3   OH280361   5.647   6.839   5.112
19649TIP3    H180362   5.665   6.821   5.019
19649TIP3    H280363   5.711   6.770   5.144
19650TIP3   OH280364   5.699   7.099   4.807
19650TIP3    H180365   5.794   7.090   4.803
19650TIP3    H280366   5.690   7.178   4.861
19651TIP3   OH280367   6.614   7.126   5.264
19651TIP3    H180368   6.621   7.209   5.312
19651TIP3    H280369   6.527   7.088   5.288
19652TIP3   OH280370   7.188   6.334   5.424
19652TIP3    H180371   7.179   6.371   5.335
19652TIP3    H280372   7.238   6.251   5.405
19653TIP3   OH280373   5.944   6.995   5.237
19653TIP3    H180374   5.973   6.930   5.306
19653TIP3    H280375   5.879   6.932   5.198
19654TIP3   OH280376   6.217   5.806   4.817
19654TIP3    H180377   6.126   5.793   4.781
19654TIP3    H280378   6.203   5.889   4.866
19655TIP3   OH280379   6.679   5.772   5.152
19655TIP3    H180380   6.720   5.732   5.231
19655TIP3    H280381   6.582   5.761   5.168
19656TIP3   OH280382   7.003   6.155   5.239
19656TIP3    H180383   6.951   6.138   5.321
19656TIP3    H280384   6.993   6.250   5.224
19657TIP3   OH280385   7.089   6.629   3.834
19657TIP3    H180386   7.082   6.615   3.737
19657TIP3    H280387   7.166   6.686   3.837
19658TIP3   OH280388   6.645   6.031   3.885
19658TIP3    H180389   6.613   6.025   3.976
19658TIP3    H280390   6.614   5.944   3.854
19659TIP3   OH280391   6.227   6.303   4.943
19659TIP3    H180392   6.153   6.303   5.006
19659TIP3    H280393   6.221   6.394   4.906
19660TIP3   OH280394   6.222   6.315   4.429
19660TIP3    H180395   6.128   6.290   4.416
19660TIP3    H280396   6.260   6.285   4.344
19661TIP3   OH280397   6.776   6.366   4.307
19661TIP3    H180398   6.735   6.447   4.270
19661TIP3    H280399   6.844   6.349   4.241
19662TIP3   OH280400   6.684   6.384   5.446
19662TIP3    H180401   6.630   6.311   5.482
19662TIP3    H280402   6.764   6.376   5.500
19663TIP3   OH280403   6.875   6.316   4.593
19663TIP3    H180404   6.851   6.370   4.516
19663TIP3    H280405   6.887   6.230   4.547
19664TIP3   OH280406   5.987   6.330   5.111
19664TIP3    H180407   5.998   6.369   5.199
19664TIP3    H280408   5.944   6.245   5.132
19665TIP3   OH280409   6.326   6.068   3.796
19665TIP3    H180410   6.280   6.026   3.872
19665TIP3    H280411   6.255   6.111   3.747
19666TIP3   OH280412   5.655   6.042   4.508
19666TIP3    H180413   5.722   6.035   4.580
19666TIP3    H280414   5.700   6.001   4.431
19667TIP3   OH280415   5.780   6.111   4.044
19667TIP3    H180416   5.832   6.172   3.988
19667TIP3    H280417   5.712   6.173   4.076
19668TIP3   OH280418   6.796   6.472   5.047
19668TIP3    H180419   6.835   6.403   4.988
19668TIP3    H280420   6.749   6.419   5.114
19669TIP3   OH280421   6.478   6.071   4.530
19669TIP3    H180422   6.384   6.071   4.560
19669TIP3    H280423   6.527   6.053   4.612
19670TIP3   OH280424   5.959   6.225   4.417
19670TIP3    H180425   5.870   6.239   4.378
19670TIP3    H280426   5.987   6.142   4.376
19671TIP3   OH280427   6.323   6.230   4.179
19671TIP3    H180428   6.419   6.241   4.195
19671TIP3    H280429   6.299   6.298   4.114
19672TIP3   OH280430   6.911   5.991   4.855
19672TIP3    H180431   6.844   5.998   4.926
19672TIP3    H280432   6.862   5.969   4.775
19673TIP3   OH280433   6.194   6.348   3.938
19673TIP3    H180434   6.141   6.309   3.867
19673TIP3    H280435   6.276   6.368   3.891
19674TIP3   OH280436   6.009   6.813   5.444
19674TIP3    H180437   6.078   6.829   5.510
19674TIP3    H280438   5.929   6.815   5.501
19675TIP3   OH280439   6.606   6.346   4.719
19675TIP3    H180440   6.666   6.293   4.666
19675TIP3    H280441   6.591   6.291   4.797
19676TIP3   OH280442   6.107   5.960   4.363
19676TIP3    H180443   6.076   5.868   4.362
19676TIP3    H280444   6.186   5.954   4.308
19677TIP3   OH280445   6.470   6.178   4.960
19677TIP3    H180446   6.388   6.230   4.969
19677TIP3    H280447   6.526   6.214   5.033
19678TIP3   OH280448   6.529   6.799   4.131
19678TIP3    H180449   6.449   6.753   4.097
19678TIP3    H280450   6.506   6.812   4.225
19679TIP3   OH280451   7.216   6.723   5.010
19679TIP3    H180452   7.288   6.736   4.945
19679TIP3    H280453   7.139   6.723   4.949
19680TIP3   OH280454   6.915   6.083   3.947
19680TIP3    H180455   6.819   6.095   3.933
19680TIP3    H280456   6.943   6.170   3.984
19681TIP3   OH280457   6.676   6.830   5.252
19681TIP3    H180458   6.644   6.787   5.332
19681TIP3    H280459   6.656   6.923   5.267
19682TIP3   OH280460   6.985   6.276   4.107
19682TIP3    H180461   7.072   6.262   4.150
19682TIP3    H280462   6.995   6.360   4.059
19683TIP3   OH280463   6.038   6.740   4.706
19683TIP3    H180464   6.111   6.732   4.643
19683TIP3    H280465   6.045   6.656   4.756
19684TIP3   OH280466   6.736   6.946   4.033
19684TIP3    H180467   6.705   7.032   4.067
19684TIP3    H280468   6.663   6.885   4.058
19685TIP3   OH280469   5.684   6.565   5.264
19685TIP3    H180470   5.758   6.532   5.316
19685TIP3    H280471   5.677   6.505   5.189
19686TIP3   OH280472   6.439   6.538   5.452
19686TIP3    H180473   6.407   6.506   5.366
19686TIP3    H280474   6.531   6.504   5.455
19687TIP3   OH280475   6.909   7.073   5.244
19687TIP3    H180476   6.816   7.084   5.223
19687TIP3    H280477   6.904   7.092   5.341
19688TIP3   OH280478   7.019   6.650   4.839
19688TIP3    H180479   6.926   6.628   4.825
19688TIP3    H280480   7.067   6.576   4.797
19689TIP3   OH280481   6.281   7.082   4.440
19689TIP3    H180482   6.327   7.166   4.431
19689TIP3    H280483   6.189   7.105   4.420
19690TIP3   OH280484   5.855   6.568   3.909
19690TIP3    H180485   5.914   6.637   3.944
19690TIP3    H280486   5.764   6.601   3.926
19691TIP3   OH280487   6.421   6.851   4.400
19691TIP3    H180488   6.389   6.943   4.409
19691TIP3    H280489   6.347   6.804   4.444
19692TIP3   OH280490   6.495   7.237   5.009
19692TIP3    H180491   6.508   7.333   5.004
19692TIP3    H280492   6.524   7.223   5.100
19693TIP3   OH280493   6.820   6.871   5.003
19693TIP3    H180494   6.782   6.849   5.090
19693TIP3    H280495   6.881   6.798   4.987
19694TIP3   OH280496   7.048   6.971   3.911
19694TIP3    H180497   7.080   6.934   3.995
19694TIP3    H280498   6.953   6.959   3.921
19695TIP3   OH280499   5.904   6.056   5.196
19695TIP3    H180500   5.812   6.087   5.186
19695TIP3    H280501   5.891   5.967   5.233
19696TIP3   OH280502   7.128   6.833   4.133
19696TIP3    H180503   7.106   6.759   4.194
19696TIP3    H280504   7.220   6.852   4.157
19697TIP3   OH280505   5.867   7.231   5.033
19697TIP3    H180506   5.893   7.139   5.037
19697TIP3    H280507   5.886   7.261   5.123
19698TIP3   OH280508   6.463   7.083   3.760
19698TIP3    H180509   6.470   7.005   3.702
19698TIP3    H280510   6.420   7.042   3.838
19699TIP3   OH280511   6.338   7.033   4.006
19699TIP3    H180512   6.367   6.985   4.084
19699TIP3    H280513   6.349   7.127   4.033
19700TIP3   OH280514   5.992   6.763   4.055
19700TIP3    H180515   5.930   6.814   4.108
19700TIP3    H280516   6.048   6.837   4.023
19701TIP3   OH280517   6.774   6.030   5.089
19701TIP3    H180518   6.849   6.037   5.149
19701TIP3    H280519   6.737   5.943   5.109
19702TIP3   OH280520   6.857   5.986   4.197
19702TIP3    H180521   6.875   6.035   4.114
19702TIP3    H280522   6.912   6.034   4.260
19703TIP3   OH280523   6.625   7.208   4.079
19703TIP3    H180524   6.540   7.255   4.083
19703TIP3    H280525   6.673   7.258   4.012
19704TIP3   OH280526   6.575   6.163   4.278
19704TIP3    H180527   6.653   6.222   4.283
19704TIP3    H280528   6.548   6.151   4.371
19705TIP3   OH280529   6.632   6.266   5.196
19705TIP3    H180530   6.640   6.322   5.276
19705TIP3    H280531   6.697   6.196   5.207
19706TIP3   OH280532   6.655   5.870   4.364
19706TIP3    H180533   6.628   5.935   4.431
19706TIP3    H280534   6.727   5.923   4.322
19707TIP3   OH280535   6.366   0.005   4.082
19707TIP3    H180536   6.368   0.084   4.025
19707TIP3    H280537   6.336   0.042   4.167
19708TIP3   OH280538   6.225   5.980   4.037
19708TIP3    H180539   6.220   6.070   4.076
19708TIP3    H280540   6.316   5.955   4.064
19709TIP3   OH280541   7.235   6.030   5.263
19709TIP3    H180542   7.151   6.084   5.264
19709TIP3    H280543   7.275   6.059   5.181
19710TIP3   OH280544   7.108   6.432   4.687
19710TIP3    H180545   7.026   6.388   4.656
19710TIP3    H280546   7.151   6.360   4.735
19711TIP3   OH280547   6.050   7.022   3.942
19711TIP3    H180548   6.117   7.088   3.968
19711TIP3    H280549   6.101   6.977   3.872
19712TIP3   OH280550   5.883   6.290   3.856
19712TIP3    H180551   5.886   6.386   3.876
19712TIP3    H280552   5.793   6.274   3.825
19713TIP3   OH280553   5.967   5.773   4.728
19713TIP3    H180554   5.944   5.772   4.633
19713TIP3    H280555   5.925   5.687   4.756
19714TIP3   OH280556   5.858   7.161   4.341
19714TIP3    H180557   5.774   7.209   4.343
19714TIP3    H280558   5.912   7.212   4.278
19715TIP3   OH280559   6.665   7.264   3.784
19715TIP3    H180560   6.590   7.201   3.792
19715TIP3    H280561   6.735   7.210   3.748
19716TIP3   OH280562   6.909   7.123   5.498
19716TIP3    H180563   6.864   7.053   5.547
19716TIP3    H280564   6.970   7.162   5.562
19717TIP3   OH280565   7.140   7.244   3.814
19717TIP3    H180566   7.156   7.154   3.846
19717TIP3    H280567   7.204   7.258   3.742
19718TIP3   OH280568   5.772   6.802   5.574
19718TIP3    H180569   5.790   6.712   5.541
19718TIP3    H280570   5.700   6.831   5.514
19719TIP3   OH280571   6.206   6.836   3.774
19719TIP3    H180572   6.221   6.761   3.834
19719TIP3    H280573   6.282   6.826   3.713
19720TIP3   OH280574   6.446   6.804   5.508
19720TIP3    H180575   6.408   6.833   5.424
19720TIP3    H280576   6.447   6.706   5.501
19721TIP3   OH280577   6.750   6.951   3.752
19721TIP3    H180578   6.720   6.960   3.844
19721TIP3    H280579   6.730   6.856   3.738
19722TIP3   OH280580   7.012   6.786   5.248
19722TIP3    H180581   7.090   6.846   5.241
19722TIP3    H280582   6.943   6.853   5.255
19723TIP3   OH280583   5.863   6.525   5.516
19723TIP3    H180584   5.908   6.442   5.499
19723TIP3    H280585   5.837   6.524   5.608
19724TIP3   OH280586   6.328   6.640   4.018
19724TIP3    H180587   6.278   6.586   4.080
19724TIP3    H280588   6.357   6.573   3.952
19725TIP3   OH280589   6.268   6.411   5.244
19725TIP3    H180590   6.204   6.481   5.275
19725TIP3    H280591   6.297   6.456   5.164
19726TIP3   OH280592   6.434   6.463   3.837
19726TIP3    H180593   6.420   6.454   3.741
19726TIP3    H280594   6.532   6.468   3.844
19727TIP3   OH280595   6.289   6.160   5.354
19727TIP3    H180596   6.306   6.089   5.289
19727TIP3    H280597   6.290   6.241   5.299
19728TIP3   OH280598   6.334   5.997   5.107
19728TIP3    H180599   6.385   6.044   5.037
19728TIP3    H280600   6.245   5.990   5.067
19729TIP3   OH280601   6.489   6.548   5.133
19729TIP3    H180602   6.563   6.530   5.074
19729TIP3    H280603   6.448   6.628   5.096
19730TIP3   OH280604   6.933   6.317   5.630
19730TIP3    H180605   6.957   6.226   5.614
19730TIP3    H280606   7.014   6.369   5.621
19731TIP3   OH280607   7.063   6.603   5.437
19731TIP3    H180608   7.035   6.677   5.380
19731TIP3    H280609   7.157   6.595   5.424
19732TIP3   OH280610   6.134   6.284   5.544
19732TIP3    H180611   6.063   6.222   5.521
19732TIP3    H280612   6.206   6.250   5.486
19733TIP3   OH280613   6.413   5.742   5.147
19733TIP3    H180614   6.395   5.838   5.136
19733TIP3    H280615   6.338   5.704   5.097
19734TIP3   OH280616   6.540   6.173   5.509
19734TIP3    H180617   6.510   6.150   5.599
19734TIP3    H280618   6.459   6.155   5.458
19735TIP3   OH280619   6.809   6.085   5.416
19735TIP3    H180620   6.713   6.094   5.432
19735TIP3    H280621   6.839   6.024   5.485
19736TIP3   OH280622   6.979   5.950   5.613
19736TIP3    H180623   6.957   5.855   5.608
19736TIP3    H280624   6.938   5.980   5.697
19737TIP3   OH280625   5.947   6.077   5.521
19737TIP3    H180626   5.976   6.007   5.458
19737TIP3    H280627   5.944   6.023   5.600
19738TIP3   OH280628   6.433   5.677   5.417
19738TIP3    H180629   6.503   5.609   5.413
19738TIP3    H280630   6.422   5.696   5.322
19739TIP3   OH280631   6.480   5.847   5.618
19739TIP3    H180632   6.452   5.789   5.544
19739TIP3    H280633   6.411   5.916   5.621
19740TIP3   OH280634   5.775   6.984   3.895
19740TIP3    H180635   5.871   7.002   3.911
19740TIP3    H280636   5.782   6.925   3.815
19741TIP3   OH280637   7.276   7.148   5.096
19741TIP3    H180638   7.208   7.191   5.147
19741TIP3    H280639   7.227   7.110   5.020
19742TIP3   OH280640   7.188   6.448   4.429
19742TIP3    H180641   7.214   6.356   4.433
19742TIP3    H280642   7.199   6.474   4.522
19743TIP3   OH280643   5.739   6.649   4.825
19743TIP3    H180644   5.758   6.642   4.730
19743TIP3    H280645   5.828   6.634   4.863
19744TIP3   OH280646   7.246   6.042   3.767
19744TIP3    H180647   7.306   6.001   3.830
19744TIP3    H280648   7.160   6.002   3.786
19745TIP3   OH280649   7.202   6.193   4.249
19745TIP3    H180650   7.231   6.109   4.289
19745TIP3    H280651   7.287   6.228   4.220
19746TIP3   OH280652  -0.053   6.171   4.810
19746TIP3    H180653   0.035   6.206   4.796
19746TIP3    H280654  -0.075   6.235   4.880
19747TIP3   OH280655   7.277   6.332   5.111
19747TIP3    H180656   7.184   6.358   5.124
19747TIP3    H280657   7.312   6.403   5.054
19748TIP3   OH280658   5.702   6.180   5.446
19748TIP3    H180659   5.795   6.155   5.456
19748TIP3    H280660   5.654   6.096   5.466
19749TIP3   OH280661   7.183   5.898   4.335
19749TIP3    H180662   7.276   5.880   4.357
19749TIP3    H280663   7.184   5.856   4.247
19750TIP3   OH280664   5.822   6.009   4.723
19750TIP3    H180665   5.865   5.926   4.752
19750TIP3    H280666   5.876   6.078   4.766
19751TIP3   OH280667   5.649   6.308   4.828
19751TIP3    H180668   5.706   6.284   4.753
19751TIP3    H280669   5.694   6.390   4.856
19752TIP3   OH280670   5.686   5.937   4.238
19752TIP3    H180671   5.592   5.953   4.222
19752TIP3    H280672   5.728   5.985   4.164
19753TIP3   OH280673   5.691   5.815   5.077
19753TIP3    H180674   5.616   5.777   5.128
19753TIP3    H280675   5.635   5.861   5.010
19754TIP3   OH280676   5.904   7.129   5.488
19754TIP3    H180677   5.821   7.134   5.437
19754TIP3    H280678   5.876   7.110   5.578
19755TIP3   OH280679   6.199   7.222   5.115
19755TIP3    H180680   6.155   7.300   5.080
19755TIP3    H280681   6.286   7.220   5.073
19756TIP3   OH280682   6.115   7.256   4.647
19756TIP3    H180683   6.076   7.179   4.693
19756TIP3    H280684   6.172   7.292   4.716
19757TIP3   OH280685   6.694   5.894   4.672
19757TIP3    H180686   6.628   5.829   4.699
19757TIP3    H280687   6.751   5.842   4.613
19758TIP3   OH280688   7.211   5.698   4.679
19758TIP3    H180689   7.269   5.761   4.634
19758TIP3    H280690   7.122   5.734   4.657
19759TIP3   OH280691   5.933   5.757   4.456
19759TIP3    H180692   5.854   5.737   4.403
19759TIP3    H280693   5.980   5.671   4.450
19760TIP3   OH280694   5.810   5.733   4.028
19760TIP3    H180695   5.859   5.797   3.975
19760TIP3    H280696   5.753   5.790   4.082
19761TIP3   OH280697   6.380   5.749   4.435
19761TIP3    H180698   6.470   5.785   4.427
19761TIP3    H280699   6.375   5.727   4.528
19762TIP3   OH280700   6.954   5.747   4.597
19762TIP3    H180701   6.948   5.765   4.503
19762TIP3    H280702   6.910   5.659   4.609
19763TIP3   OH280703   7.075   5.746   4.154
19763TIP3    H180704   7.005   5.812   4.149
19763TIP3    H280705   7.028   5.666   4.186
19764TIP3   OH280706   5.993   5.927   3.879
19764TIP3    H180707   6.046   5.865   3.826
19764TIP3    H280708   6.059   5.959   3.943
19765TIP3   OH280709   6.496   5.951   4.119
19765TIP3    H180710   6.521   5.893   4.194
19765TIP3    H280711   6.503   6.037   4.165
19766TIP3   OH280712   5.919   5.813   5.408
19766TIP3    H180713   5.883   5.730   5.442
19766TIP3    H280714   6.013   5.805   5.437
19767TIP3   OH280715   6.125   5.749   5.548
19767TIP3    H180716   6.218   5.721   5.541
19767TIP3    H280717   6.092   5.680   5.606
19768TIP3   OH280718   6.963   5.683   5.579
19768TIP3    H180719   6.969   5.630   5.662
19768TIP3    H280720   7.049   5.675   5.534
19769TIP3   OH280721   7.273  -0.021   5.458
19769TIP3    H180722   7.208  -0.039   5.389
19769TIP3    H280723   7.277   0.076   5.461
19770TIP3   OH280724   1.106   0.705   5.823
19770TIP3    H180725   1.127   0.795   5.848
19770TIP3    H280726   1.082   0.726   5.732
19771TIP3   OH280727   1.765   1.491   5.758
19771TIP3    H180728   1.782   1.584   5.783
19771TIP3    H280729   1.857   1.459   5.765
19772TIP3   OH280730   1.311   1.764   5.827
19772TIP3    H180731   1.354   1.689   5.782
19772TIP3    H280732   1.310   1.740   5.922
19773TIP3   OH280733   1.432   0.980   5.716
19773TIP3    H180734   1.425   0.960   5.619
19773TIP3    H280735   1.517   1.025   5.719
19774TIP3   OH280736   0.672   0.409   5.681
19774TIP3    H180737   0.630   0.368   5.759
19774TIP3    H280738   0.601   0.451   5.632
19775TIP3   OH280739   0.520   0.683   5.826
19775TIP3    H180740   0.482   0.652   5.744
19775TIP3    H280741   0.608   0.712   5.789
19776TIP3   OH280742   1.088   1.292   5.915
19776TIP3    H180743   1.050   1.368   5.959
19776TIP3    H280744   1.015   1.229   5.937
19777TIP3   OH280745   1.826   0.635   5.968
19777TIP3    H180746   1.763   0.602   5.902
19777TIP3    H280747   1.830   0.729   5.942
19778TIP3   OH280748   1.391   1.320   5.799
19778TIP3    H180749   1.421   1.275   5.877
19778TIP3    H280750   1.295   1.304   5.805
19779TIP3   OH280751   1.835   1.754   5.820
19779TIP3    H180752   1.909   1.815   5.807
19779TIP3    H280753   1.769   1.816   5.854
19780TIP3   OH280754   0.570   0.324   5.921
19780TIP3    H180755   0.566   0.413   5.959
19780TIP3    H280756   0.659   0.295   5.948
19781TIP3   OH280757   1.460   1.586   5.676
19781TIP3    H180758   1.493   1.510   5.725
19781TIP3    H280759   1.538   1.612   5.624
19782TIP3   OH280760   0.742   0.758   5.716
19782TIP3    H180761   0.749   0.793   5.626
19782TIP3    H280762   0.829   0.796   5.746
19783TIP3   OH280763   1.714   1.041   5.668
19783TIP3    H180764   1.696   1.000   5.582
19783TIP3    H280765   1.724   1.135   5.644
19784TIP3   OH280766   0.125   1.336   5.780
19784TIP3    H180767   0.218   1.346   5.803
19784TIP3    H280768   0.124   1.273   5.705
19785TIP3   OH280769   1.818   0.916   5.894
19785TIP3    H180770   1.784   0.956   5.810
19785TIP3    H280771   1.833   0.992   5.949
19786TIP3   OH280772   1.668   0.645   5.740
19786TIP3    H180773   1.673   0.710   5.669
19786TIP3    H280774   1.648   0.562   5.692
19787TIP3   OH280775   1.591   0.392   5.654
19787TIP3    H180776   1.652   0.349   5.717
19787TIP3    H280777   1.508   0.344   5.669
19788TIP3   OH280778   1.797   0.274   5.809
19788TIP3    H180779   1.839   0.202   5.759
19788TIP3    H280780   1.864   0.342   5.817
19789TIP3   OH280781   0.135   0.085   5.887
19789TIP3    H180782   0.203   0.148   5.860
19789TIP3    H280783   0.093   0.130   5.962
19790TIP3   OH280784   0.339   0.272   5.766
19790TIP3    H180785   0.390   0.210   5.710
19790TIP3    H280786   0.407   0.301   5.831
19791TIP3   OH280787   1.031   1.797   5.843
19791TIP3    H180788   1.122   1.828   5.831
19791TIP3    H280789   1.013   1.747   5.765
19792TIP3   OH280790   2.946   0.786   5.775
19792TIP3    H180791   3.011   0.787   5.847
19792TIP3    H280792   2.979   0.716   5.719
19793TIP3   OH280793   3.531   0.051   5.916
19793TIP3    H180794   3.446   0.067   5.954
19793TIP3    H280795   3.567   0.137   5.889
19794TIP3   OH280796   2.870   0.372   5.772
19794TIP3    H180797   2.846   0.364   5.863
19794TIP3    H280798   2.845   0.283   5.739
19795TIP3   OH280799   2.426   0.679   5.827
19795TIP3    H180800   2.367   0.657   5.752
19795TIP3    H280801   2.501   0.717   5.778
19796TIP3   OH280802   2.967   1.287   5.919
19796TIP3    H180803   2.943   1.375   5.958
19796TIP3    H280804   2.891   1.236   5.942
19797TIP3   OH280805   2.690   1.425   5.642
19797TIP3    H180806   2.701   1.347   5.587
19797TIP3    H280807   2.655   1.388   5.723
19798TIP3   OH280808   2.114   0.637   5.741
19798TIP3    H180809   2.110   0.730   5.765
19798TIP3    H280810   2.023   0.614   5.719
19799TIP3   OH280811   2.442   1.181   5.662
19799TIP3    H180812   2.447   1.103   5.717
19799TIP3    H280813   2.513   1.170   5.598
19800TIP3   OH280814   2.987   1.289   5.639
19800TIP3    H180815   2.955   1.305   5.730
19800TIP3    H280816   2.955   1.198   5.626
19801TIP3   OH280817   2.662   0.800   5.723
19801TIP3    H180818   2.646   0.798   5.626
19801TIP3    H280819   2.758   0.815   5.728
19802TIP3   OH280820   2.042   0.078   5.916
19802TIP3    H180821   2.081   0.141   5.858
19802TIP3    H280822   1.979   0.132   5.965
19803TIP3   OH280823   5.541   1.496   5.745
19803TIP3    H180824   5.552   1.581   5.788
19803TIP3    H280825   5.627   1.454   5.765
19804TIP3   OH280826   4.439   0.411   5.682
19804TIP3    H180827   4.395   0.371   5.758
19804TIP3    H280828   4.368   0.450   5.629
19805TIP3   OH280829   4.328   1.186   5.667
19805TIP3    H180830   4.330   1.107   5.720
19805TIP3    H280831   4.396   1.172   5.599
19806TIP3   OH280832   5.499   1.037   5.665
19806TIP3    H180833   5.460   1.002   5.583
19806TIP3    H280834   5.491   1.134   5.649
19807TIP3   OH280835   6.719   0.800   5.768
19807TIP3    H180836   6.780   0.792   5.846
19807TIP3    H280837   6.749   0.721   5.723
19808TIP3   OH280838   7.085   0.985   5.712
19808TIP3    H180839   7.082   0.954   5.619
19808TIP3    H280840   7.170   1.024   5.719
19809TIP3   OH280841   7.051   1.306   5.797
19809TIP3    H180842   7.076   1.271   5.882
19809TIP3    H280843   6.954   1.303   5.803
19810TIP3   OH280844   6.457   1.428   5.636
19810TIP3    H180845   6.473   1.346   5.590
19810TIP3    H280846   6.425   1.393   5.723
19811TIP3   OH280847   6.347   1.377   5.888
19811TIP3    H180848   6.364   1.329   5.969
19811TIP3    H280849   6.350   1.470   5.918
19812TIP3   OH280850   7.119   1.592   5.682
19812TIP3    H180851   7.144   1.512   5.730
19812TIP3    H280852   7.191   1.606   5.619
19813TIP3   OH280853   6.203   1.175   5.660
19813TIP3    H180854   6.227   1.109   5.726
19813TIP3    H280855   6.282   1.172   5.603
19814TIP3   OH280856   6.758   1.291   5.642
19814TIP3    H180857   6.716   1.308   5.728
19814TIP3    H280858   6.728   1.198   5.626
19815TIP3   OH280859   6.312   0.980   5.895
19815TIP3    H180860   6.282   0.924   5.967
19815TIP3    H280861   6.354   0.915   5.836
19816TIP3   OH280862   6.428   0.802   5.723
19816TIP3    H180863   6.415   0.793   5.627
19816TIP3    H280864   6.525   0.812   5.729
19817TIP3   OH280865   6.419   1.883   5.833
19817TIP3    H180866   6.516   1.879   5.838
19817TIP3    H280867   6.405   1.935   5.754
19818TIP3   OH280868   5.778   1.333   5.770
19818TIP3    H180869   5.871   1.345   5.799
19818TIP3    H280870   5.782   1.267   5.698
19819TIP3   OH280871   7.246   0.372   5.644
19819TIP3    H180872   7.303   0.357   5.720
19819TIP3    H280873   7.159   0.350   5.681
19820TIP3   OH280874   5.820   0.187   6.015
19820TIP3    H180875   5.879   0.151   5.947
19820TIP3    H280876   5.730   0.151   6.002
19821TIP3   OH280877   6.013   0.330   5.755
19821TIP3    H180878   6.026   0.239   5.717
19821TIP3    H280879   6.057   0.315   5.840
19822TIP3   OH280880   5.985   1.774   5.711
19822TIP3    H180881   5.953   1.791   5.800
19822TIP3    H280882   6.058   1.712   5.726
19823TIP3   OH280883   1.065   2.679   5.785
19823TIP3    H180884   1.135   2.678   5.852
19823TIP3    H280885   1.089   2.612   5.721
19824TIP3   OH280886   1.282   2.758   5.946
19824TIP3    H180887   1.343   2.777   6.017
19824TIP3    H280888   1.321   2.806   5.870
19825TIP3   OH280889   1.770   3.370   5.766
19825TIP3    H180890   1.773   3.466   5.776
19825TIP3    H280891   1.861   3.347   5.757
19826TIP3   OH280892   1.423   2.871   5.710
19826TIP3    H180893   1.431   2.846   5.616
19826TIP3    H280894   1.514   2.904   5.724
19827TIP3   OH280895   0.164   2.343   5.879
19827TIP3    H180896   0.213   2.424   5.877
19827TIP3    H280897   0.093   2.365   5.945
19828TIP3   OH280898   1.254   2.314   5.834
19828TIP3    H180899   1.158   2.326   5.823
19828TIP3    H280900   1.287   2.400   5.863
19829TIP3   OH280901   0.190   2.802   5.787
19829TIP3    H180902   0.254   2.858   5.835
19829TIP3    H280903   0.106   2.837   5.819
19830TIP3   OH280904   0.795   3.309   5.644
19830TIP3    H180905   0.825   3.235   5.589
19830TIP3    H280906   0.774   3.268   5.729
19831TIP3   OH280907   0.394   3.249   5.827
19831TIP3    H180908   0.452   3.320   5.861
19831TIP3    H280909   0.446   3.214   5.756
19832TIP3   OH280910   0.274   2.543   5.738
19832TIP3    H180911   0.242   2.629   5.769
19832TIP3    H280912   0.199   2.496   5.703
19833TIP3   OH280913   1.002   3.499   5.650
19833TIP3    H180914   0.938   3.433   5.683
19833TIP3    H280915   1.080   3.442   5.639
19834TIP3   OH280916   1.081   3.176   5.636
19834TIP3    H180917   1.068   3.185   5.730
19834TIP3    H280918   1.074   3.078   5.625
19835TIP3   OH280919   0.121   3.221   5.779
19835TIP3    H180920   0.215   3.232   5.803
19835TIP3    H280921   0.125   3.158   5.706
19836TIP3   OH280922   1.665   2.525   5.740
19836TIP3    H180923   1.675   2.598   5.677
19836TIP3    H280924   1.649   2.447   5.687
19837TIP3   OH280925   1.590   2.271   5.652
19837TIP3    H180926   1.652   2.232   5.718
19837TIP3    H280927   1.506   2.227   5.671
19838TIP3   OH280928   1.799   2.159   5.810
19838TIP3    H180929   1.839   2.087   5.757
19838TIP3    H280930   1.869   2.225   5.818
19839TIP3   OH280931   0.349   2.166   5.753
19839TIP3    H180932   0.395   2.091   5.719
19839TIP3    H280933   0.403   2.186   5.832
19840TIP3   OH280934   1.033   3.683   5.852
19840TIP3    H180935   1.120   3.713   5.827
19840TIP3    H280936   1.008   3.635   5.771
19841TIP3   OH280937   0.322   3.652   5.709
19841TIP3    H180938   0.297   3.679   5.798
19841TIP3    H280939   0.405   3.601   5.726
19842TIP3   OH280940   3.653   3.372   5.759
19842TIP3    H180941   3.658   3.465   5.782
19842TIP3    H280942   3.744   3.342   5.767
19843TIP3   OH280943   2.877   2.254   5.769
19843TIP3    H180944   2.847   2.257   5.862
19843TIP3    H280945   2.841   2.170   5.742
19844TIP3   OH280946   2.558   2.295   5.683
19844TIP3    H180947   2.510   2.257   5.759
19844TIP3    H280948   2.487   2.339   5.634
19845TIP3   OH280949   2.007   2.345   5.929
19845TIP3    H180950   2.058   2.404   5.871
19845TIP3    H280951   1.938   2.403   5.962
19846TIP3   OH280952   2.422   2.570   5.825
19846TIP3    H180953   2.368   2.541   5.750
19846TIP3    H280954   2.503   2.597   5.780
19847TIP3   OH280955   2.455   2.208   5.922
19847TIP3    H180956   2.445   2.298   5.958
19847TIP3    H280957   2.545   2.187   5.949
19848TIP3   OH280958   2.112   2.522   5.741
19848TIP3    H180959   2.108   2.615   5.764
19848TIP3    H280960   2.023   2.498   5.716
19849TIP3   OH280961   2.893   3.498   5.646
19849TIP3    H180962   2.821   3.443   5.684
19849TIP3    H280963   2.966   3.437   5.639
19850TIP3   OH280964   2.986   3.178   5.638
19850TIP3    H180965   2.957   3.188   5.728
19850TIP3    H280966   2.958   3.085   5.621
19851TIP3   OH280967   2.548   2.873   5.898
19851TIP3    H180968   2.515   2.814   5.966
19851TIP3    H280969   2.584   2.805   5.836
19852TIP3   OH280970   2.660   2.692   5.723
19852TIP3    H180971   2.647   2.678   5.627
19852TIP3    H280972   2.757   2.700   5.729
19853TIP3   OH280973   3.543   2.534   5.738
19853TIP3    H180974   3.568   2.594   5.668
19853TIP3    H280975   3.541   2.448   5.693
19854TIP3   OH280976   3.477   2.273   5.650
19854TIP3    H180977   3.541   2.239   5.718
19854TIP3    H280978   3.395   2.241   5.681
19855TIP3   OH280979   3.684   2.166   5.795
19855TIP3    H180980   3.731   2.089   5.761
19855TIP3    H280981   3.754   2.227   5.819
19856TIP3   OH280982   2.230   2.163   5.760
19856TIP3    H180983   2.277   2.096   5.711
19856TIP3    H280984   2.291   2.191   5.831
19857TIP3   OH280985   4.829   2.673   5.777
19857TIP3    H180986   4.898   2.672   5.844
19857TIP3    H280987   4.860   2.604   5.718
19858TIP3   OH280988   5.548   3.343   5.803
19858TIP3    H180989   5.536   3.438   5.778
19858TIP3    H280990   5.634   3.330   5.760
19859TIP3   OH280991   4.758   2.251   5.767
19859TIP3    H180992   4.732   2.256   5.859
19859TIP3    H280993   4.724   2.164   5.743
19860TIP3   OH280994   4.848   3.178   5.915
19860TIP3    H180995   4.820   3.263   5.955
19860TIP3    H280996   4.774   3.121   5.939
19861TIP3   OH280997   4.573   3.315   5.646
19861TIP3    H180998   4.589   3.238   5.588
19861TIP3    H280999   4.533   3.270   5.723
19862TIP3   OH281000   4.734   3.433   5.965
19862TIP3    H181001   4.649   3.483   5.968
19862TIP3    H281002   4.786   3.484   5.902
19863TIP3   OH281003   4.487   3.546   5.960
19863TIP3    H181004   4.474   3.625   5.908
19863TIP3    H281005   4.450   3.570   6.047
19864TIP3   OH281006   4.780   3.499   5.664
19864TIP3    H181007   4.707   3.435   5.683
19864TIP3    H281008   4.849   3.440   5.631
19865TIP3   OH281009   5.223   3.465   5.668
19865TIP3    H181010   5.264   3.403   5.730
19865TIP3    H281011   5.306   3.504   5.631
19866TIP3   OH281012   4.322   3.062   5.651
19866TIP3    H181013   4.335   2.996   5.723
19866TIP3    H281014   4.403   3.052   5.600
19867TIP3   OH281015   4.869   3.179   5.639
19867TIP3    H181016   4.837   3.188   5.731
19867TIP3    H281017   4.844   3.085   5.623
19868TIP3   OH281018   4.446   2.867   5.899
19868TIP3    H181019   4.393   2.817   5.961
19868TIP3    H281020   4.466   2.797   5.834
19869TIP3   OH281021   4.551   2.695   5.723
19869TIP3    H181022   4.528   2.678   5.630
19869TIP3    H281023   4.648   2.698   5.724
19870TIP3   OH281024   5.492   2.928   5.665
19870TIP3    H181025   5.461   2.882   5.585
19870TIP3    H281026   5.490   3.023   5.643
19871TIP3   OH281027   5.610   2.815   5.887
19871TIP3    H181028   5.545   2.834   5.816
19871TIP3    H281029   5.588   2.874   5.958
19872TIP3   OH281030   5.366   2.260   5.645
19872TIP3    H181031   5.423   2.236   5.719
19872TIP3    H281032   5.278   2.237   5.674
19873TIP3   OH281033   6.951   2.749   5.934
19873TIP3    H181034   6.996   2.785   6.009
19873TIP3    H281035   6.975   2.810   5.862
19874TIP3   OH281036   6.976   3.653   5.829
19874TIP3    H181037   7.008   3.574   5.779
19874TIP3    H281038   6.967   3.622   5.919
19875TIP3   OH281039   7.091   2.862   5.716
19875TIP3    H181040   7.083   2.851   5.619
19875TIP3    H281041   7.169   2.916   5.723
19876TIP3   OH281042   6.332   2.295   5.680
19876TIP3    H181043   6.287   2.263   5.759
19876TIP3    H281044   6.260   2.343   5.634
19877TIP3   OH281045   6.912   2.312   5.839
19877TIP3    H181046   6.821   2.330   5.816
19877TIP3    H281047   6.945   2.399   5.864
19878TIP3   OH281048   6.738   3.179   5.922
19878TIP3    H181049   6.704   3.263   5.954
19878TIP3    H281050   6.667   3.114   5.937
19879TIP3   OH281051   5.852   2.804   5.785
19879TIP3    H181052   5.913   2.860   5.833
19879TIP3    H281053   5.763   2.824   5.820
19880TIP3   OH281054   7.049   3.208   5.803
19880TIP3    H181055   7.079   3.157   5.876
19880TIP3    H281056   6.953   3.189   5.802
19881TIP3   OH281057   6.456   3.311   5.641
19881TIP3    H181058   6.474   3.233   5.588
19881TIP3    H281059   6.429   3.271   5.724
19882TIP3   OH281060   6.347   3.536   5.960
19882TIP3    H181061   6.367   3.616   5.908
19882TIP3    H281062   6.338   3.571   6.049
19883TIP3   OH281063   7.115   3.474   5.685
19883TIP3    H181064   7.148   3.394   5.728
19883TIP3    H281065   7.188   3.493   5.622
19884TIP3   OH281066   6.755   3.171   5.639
19884TIP3    H181067   6.726   3.190   5.730
19884TIP3    H281068   6.726   3.079   5.630
19885TIP3   OH281069   6.425   3.761   5.830
19885TIP3    H181070   6.520   3.779   5.834
19885TIP3    H281071   6.402   3.820   5.756
19886TIP3   OH281072   5.785   3.228   5.769
19886TIP3    H181073   5.878   3.222   5.795
19886TIP3    H281074   5.780   3.153   5.704
19887TIP3   OH281075   6.003   2.166   5.759
19887TIP3    H181076   6.044   2.094   5.707
19887TIP3    H281077   6.066   2.180   5.829
19888TIP3   OH281078   5.976   3.638   5.718
19888TIP3    H181079   5.962   3.696   5.795
19888TIP3    H281080   6.068   3.603   5.725
19889TIP3   OH281081   1.773   5.253   5.765
19889TIP3    H181082   1.776   5.350   5.780
19889TIP3    H281083   1.865   5.235   5.755
19890TIP3   OH281084   0.115   4.227   5.921
19890TIP3    H181085   0.180   4.290   5.881
19890TIP3    H281086   0.059   4.289   5.969
19891TIP3   OH281087   1.071   5.067   5.911
19891TIP3    H181088   1.049   5.147   5.959
19891TIP3    H281089   1.008   5.002   5.943
19892TIP3   OH281090   1.836   5.527   5.819
19892TIP3    H181091   1.909   5.590   5.806
19892TIP3    H281092   1.767   5.585   5.856
19893TIP3   OH281093   0.565   4.081   5.928
19893TIP3    H181094   0.553   4.174   5.959
19893TIP3    H281095   0.657   4.065   5.947
19894TIP3   OH281096   0.223   4.408   5.725
19894TIP3    H181097   0.227   4.491   5.777
19894TIP3    H281098   0.131   4.382   5.717
19895TIP3   OH281099   0.996   5.378   5.649
19895TIP3    H181100   0.937   5.316   5.694
19895TIP3    H281101   1.076   5.325   5.636
19896TIP3   OH281102   1.457   5.355   5.670
19896TIP3    H181103   1.492   5.286   5.729
19896TIP3    H281104   1.536   5.386   5.624
19897TIP3   OH281105   1.586   4.159   5.653
19897TIP3    H181106   1.652   4.122   5.715
19897TIP3    H281107   1.507   4.111   5.675
19898TIP3   OH281108   1.798   4.046   5.811
19898TIP3    H181109   1.835   3.974   5.756
19898TIP3    H281110   1.869   4.111   5.813
19899TIP3   OH281111   0.154   3.849   5.912
19899TIP3    H181112   0.205   3.915   5.862
19899TIP3    H281113   0.095   3.906   5.962
19900TIP3   OH281114   0.338   4.043   5.764
19900TIP3    H181115   0.393   3.985   5.709
19900TIP3    H281116   0.405   4.072   5.829
19901TIP3   OH281117   2.936   4.555   5.781
19901TIP3    H181118   3.011   4.558   5.842
19901TIP3    H281119   2.970   4.488   5.720
19902TIP3   OH281120   2.418   4.470   5.818
19902TIP3    H181121   2.368   4.422   5.751
19902TIP3    H281122   2.502   4.478   5.773
19903TIP3   OH281123   2.970   5.064   5.920
19903TIP3    H181124   2.940   5.148   5.955
19903TIP3    H281125   2.896   5.007   5.934
19904TIP3   OH281126   2.079   4.684   5.793
19904TIP3    H181127   2.143   4.745   5.833
19904TIP3    H281128   1.994   4.722   5.817
19905TIP3   OH281129   2.685   5.200   5.646
19905TIP3    H181130   2.702   5.123   5.588
19905TIP3    H281131   2.653   5.155   5.724
19906TIP3   OH281132   2.276   5.143   5.824
19906TIP3    H181133   2.340   5.207   5.857
19906TIP3    H281134   2.327   5.090   5.761
19907TIP3   OH281135   2.114   4.408   5.739
19907TIP3    H181136   2.111   4.503   5.764
19907TIP3    H281137   2.024   4.385   5.716
19908TIP3   OH281138   2.890   5.384   5.658
19908TIP3    H181139   2.824   5.318   5.686
19908TIP3    H281140   2.964   5.327   5.636
19909TIP3   OH281141   2.441   4.956   5.667
19909TIP3    H181142   2.447   4.873   5.716
19909TIP3    H281143   2.510   4.941   5.599
19910TIP3   OH281144   2.973   5.063   5.637
19910TIP3    H181145   2.954   5.074   5.731
19910TIP3    H281146   2.958   4.967   5.625
19911TIP3   OH281147   2.229   4.043   5.762
19911TIP3    H181148   2.281   3.982   5.709
19911TIP3    H281149   2.292   4.073   5.829
19912TIP3   OH281150   5.088   5.539   5.826
19912TIP3    H181151   5.113   5.458   5.782
19912TIP3    H281152   5.079   5.513   5.919
19913TIP3   OH281153   5.195   4.757   5.710
19913TIP3    H181154   5.202   4.742   5.614
19913TIP3    H281155   5.283   4.796   5.727
19914TIP3   OH281156   4.439   4.177   5.680
19914TIP3    H181157   4.396   4.148   5.761
19914TIP3    H281158   4.371   4.229   5.635
19915TIP3   OH281159   4.853   5.062   5.912
19915TIP3    H181160   4.824   5.143   5.956
19915TIP3    H281161   4.782   5.002   5.943
19916TIP3   OH281162   3.963   4.686   5.796
19916TIP3    H181163   4.029   4.744   5.834
19916TIP3    H281164   3.879   4.726   5.814
19917TIP3   OH281165   4.568   5.189   5.637
19917TIP3    H181166   4.588   5.110   5.587
19917TIP3    H281167   4.545   5.154   5.724
19918TIP3   OH281168   4.163   5.142   5.822
19918TIP3    H181169   4.229   5.200   5.862
19918TIP3    H281170   4.217   5.089   5.760
19919TIP3   OH281171   4.319   4.954   5.660
19919TIP3    H181172   4.335   4.878   5.720
19919TIP3    H281173   4.398   4.942   5.603
19920TIP3   OH281174   4.869   5.062   5.638
19920TIP3    H181175   4.840   5.076   5.731
19920TIP3    H281176   4.839   4.970   5.626
19921TIP3   OH281177   5.482   4.806   5.662
19921TIP3    H181178   5.463   4.770   5.574
19921TIP3    H281179   5.497   4.899   5.650
19922TIP3   OH281180   3.893   5.104   5.775
19922TIP3    H181181   3.987   5.117   5.797
19922TIP3    H281182   3.894   5.040   5.701
19923TIP3   OH281183   3.927   3.851   5.911
19923TIP3    H181184   3.973   3.921   5.864
19923TIP3    H281185   3.865   3.901   5.969
19924TIP3   OH281186   4.112   4.039   5.760
19924TIP3    H181187   4.168   3.979   5.710
19924TIP3    H281188   4.169   4.075   5.830
19925TIP3   OH281189   4.106   5.543   5.706
19925TIP3    H181190   4.067   5.565   5.793
19925TIP3    H281191   4.170   5.476   5.730
19926TIP3   OH281192   6.713   4.562   5.780
19926TIP3    H181193   6.782   4.562   5.848
19926TIP3    H281194   6.749   4.496   5.719
19927TIP3   OH281195   6.937   4.648   5.944
19927TIP3    H181196   6.998   4.663   6.018
19927TIP3    H281197   6.975   4.692   5.867
19928TIP3   OH281198   6.948   5.529   5.817
19928TIP3    H181199   7.008   5.461   5.781
19928TIP3    H281200   6.967   5.514   5.911
19929TIP3   OH281201   7.016   4.720   5.681
19929TIP3    H181202   7.050   4.704   5.589
19929TIP3    H281203   7.099   4.754   5.709
19930TIP3   OH281204   6.648   4.140   5.771
19930TIP3    H181205   6.615   4.143   5.861
19930TIP3    H281206   6.613   4.056   5.739
19931TIP3   OH281207   6.327   4.181   5.685
19931TIP3    H181208   6.278   4.142   5.759
19931TIP3    H281209   6.258   4.224   5.632
19932TIP3   OH281210   5.783   4.231   5.927
19932TIP3    H181211   5.828   4.294   5.873
19932TIP3    H281212   5.708   4.279   5.966
19933TIP3   OH281213   6.916   4.200   5.839
19933TIP3    H181214   6.822   4.212   5.817
19933TIP3    H281215   6.943   4.288   5.865
19934TIP3   OH281216   6.226   4.095   5.923
19934TIP3    H181217   6.219   4.183   5.961
19934TIP3    H281218   6.314   4.068   5.949
19935TIP3   OH281219   7.110   5.353   5.675
19935TIP3    H181220   7.150   5.292   5.738
19935TIP3    H281221   7.189   5.379   5.622
19936TIP3   OH281222   6.430   4.571   5.722
19936TIP3    H181223   6.420   4.565   5.627
19936TIP3    H281224   6.526   4.586   5.733
19937TIP3   OH281225   5.781   5.110   5.761
19937TIP3    H181226   5.870   5.108   5.798
19937TIP3    H281227   5.779   5.033   5.705
19938TIP3   OH281228   7.248   4.157   5.653
19938TIP3    H181229   7.308   4.122   5.720
19938TIP3    H281230   7.163   4.116   5.672
19939TIP3   OH281231   5.813   3.846   5.919
19939TIP3    H181232   5.857   3.911   5.862
19939TIP3    H281233   5.751   3.906   5.963
19940TIP3   OH281234   6.002   4.045   5.760
19940TIP3    H181235   6.049   3.979   5.709
19940TIP3    H281236   6.062   4.066   5.833
19941TIP3   OH281237   6.686   5.577   5.844
19941TIP3    H181238   6.780   5.594   5.830
19941TIP3    H281239   6.661   5.520   5.773
19942TIP3   OH281240   1.059   6.443   5.779
19942TIP3    H181241   1.127   6.446   5.848
19942TIP3    H281242   1.094   6.378   5.718
19943TIP3   OH281243   1.770   7.144   5.754
19943TIP3    H181244   1.780   7.237   5.779
19943TIP3    H281245   1.862   7.113   5.763
19944TIP3   OH281246   1.424   6.641   5.710
19944TIP3    H181247   1.429   6.616   5.615
19944TIP3    H281248   1.512   6.679   5.726
19945TIP3   OH281249   0.532   6.343   5.823
19945TIP3    H181250   0.483   6.308   5.748
19945TIP3    H281251   0.615   6.365   5.779
19946TIP3   OH281252   0.195   6.577   5.782
19946TIP3    H181253   0.251   6.629   5.841
19946TIP3    H281254   0.108   6.597   5.822
19947TIP3   OH281255   1.393   6.964   5.790
19947TIP3    H181256   1.428   6.940   5.878
19947TIP3    H281257   1.299   6.961   5.807
19948TIP3   OH281258   1.005   7.261   5.660
19948TIP3    H181259   0.938   7.201   5.692
19948TIP3    H281260   1.076   7.206   5.627
19949TIP3   OH281261   1.453   7.243   5.673
19949TIP3    H181262   1.490   7.173   5.730
19949TIP3    H281263   1.534   7.269   5.625
19950TIP3   OH281264   1.095   6.949   5.641
19950TIP3    H181265   1.058   6.957   5.729
19950TIP3    H281266   1.077   6.854   5.622
19951TIP3   OH281267   1.712   6.696   5.667
19951TIP3    H181268   1.692   6.656   5.582
19951TIP3    H281269   1.722   6.791   5.649
19952TIP3   OH281270   0.122   6.998   5.769
19952TIP3    H181271   0.212   6.999   5.803
19952TIP3    H281272   0.124   6.923   5.706
19953TIP3   OH281273   1.593   6.051   5.656
19953TIP3    H181274   1.657   6.011   5.714
19953TIP3    H281275   1.511   6.007   5.676
19954TIP3   OH281276   0.340   5.933   5.762
19954TIP3    H181277   0.391   5.868   5.709
19954TIP3    H281278   0.403   5.957   5.829
19955TIP3   OH281279   2.950   6.451   5.769
19955TIP3    H181280   3.005   6.449   5.850
19955TIP3    H281281   2.981   6.375   5.720
19956TIP3   OH281282   3.311   6.640   5.708
19956TIP3    H181283   3.315   6.620   5.612
19956TIP3    H281284   3.398   6.680   5.721
19957TIP3   OH281285   2.557   6.064   5.683
19957TIP3    H181286   2.508   6.030   5.759
19957TIP3    H281287   2.489   6.108   5.630
19958TIP3   OH281288   2.429   6.339   5.825
19958TIP3    H181289   2.367   6.311   5.756
19958TIP3    H281290   2.504   6.363   5.771
19959TIP3   OH281291   2.972   6.943   5.921
19959TIP3    H181292   2.937   7.031   5.946
19959TIP3    H281293   2.899   6.886   5.945
19960TIP3   OH281294   3.277   6.973   5.795
19960TIP3    H181295   3.304   6.932   5.879
19960TIP3    H281296   3.182   6.958   5.806
19961TIP3   OH281297   2.677   7.079   5.635
19961TIP3    H181298   2.702   7.000   5.585
19961TIP3    H281299   2.661   7.042   5.723
19962TIP3   OH281300   2.807   7.144   5.844
19962TIP3    H181301   2.758   7.192   5.912
19962TIP3    H281302   2.885   7.206   5.859
19963TIP3   OH281303   2.442  -0.048   5.875
19963TIP3    H181304   2.475   0.024   5.815
19963TIP3    H281305   2.502  -0.023   5.949
19964TIP3   OH281306   2.456   5.986   5.923
19964TIP3    H181307   2.451   6.076   5.960
19964TIP3    H281308   2.539   5.954   5.957
19965TIP3   OH281309   2.280   7.026   5.828
19965TIP3    H181310   2.341   7.098   5.856
19965TIP3    H281311   2.329   6.985   5.757
19966TIP3   OH281312   2.894   7.272   5.647
19966TIP3    H181313   2.828   7.209   5.686
19966TIP3    H281314   2.966   7.211   5.632
19967TIP3   OH281315   3.364   7.242   5.695
19967TIP3    H181316   3.386   7.156   5.732
19967TIP3    H281317   3.436   7.262   5.631
19968TIP3   OH281318   2.980   6.950   5.640
19968TIP3    H181319   2.951   6.962   5.732
19968TIP3    H281320   2.959   6.855   5.627
19969TIP3   OH281321   3.595   6.695   5.667
19969TIP3    H181322   3.578   6.657   5.579
19969TIP3    H281323   3.608   6.790   5.648
19970TIP3   OH281324   2.007   6.997   5.766
19970TIP3    H181325   2.099   6.997   5.799
19970TIP3    H281326   2.007   6.919   5.706
19971TIP3   OH281327   3.713   6.574   5.885
19971TIP3    H181328   3.667   6.617   5.810
19971TIP3    H281329   3.712   6.645   5.951
19972TIP3   OH281330   3.686   5.939   5.804
19972TIP3    H181331   3.723   5.858   5.763
19972TIP3    H281332   3.762   5.997   5.819
19973TIP3   OH281333   2.226   5.928   5.768
19973TIP3    H181334   2.274   5.869   5.709
19973TIP3    H281335   2.297   5.961   5.827
19974TIP3   OH281336   5.422   5.706   5.920
19974TIP3    H181337   5.333   5.722   5.953
19974TIP3    H281338   5.448   5.793   5.886
19975TIP3   OH281339   4.444   6.069   5.686
19975TIP3    H181340   4.393   6.030   5.758
19975TIP3    H281341   4.374   6.109   5.631
19976TIP3   OH281342   3.893   6.115   5.927
19976TIP3    H181343   3.949   6.174   5.873
19976TIP3    H281344   3.827   6.172   5.965
19977TIP3   OH281345   4.343   5.984   5.917
19977TIP3    H181346   4.332   6.068   5.963
19977TIP3    H281347   4.426   5.953   5.956
19978TIP3   OH281348   4.000   6.293   5.742
19978TIP3    H181349   3.993   6.386   5.760
19978TIP3    H281350   3.912   6.267   5.715
19979TIP3   OH281351   4.777   7.264   5.667
19979TIP3    H181352   4.710   7.197   5.690
19979TIP3    H281353   4.850   7.211   5.636
19980TIP3   OH281354   5.243   7.236   5.689
19980TIP3    H181355   5.277   7.162   5.739
19980TIP3    H281356   5.318   7.261   5.630
19981TIP3   OH281357   5.362   6.047   5.655
19981TIP3    H181358   5.421   6.002   5.716
19981TIP3    H281359   5.278   6.001   5.667
19982TIP3   OH281360   5.569   5.932   5.812
19982TIP3    H181361   5.608   5.858   5.759
19982TIP3    H281362   5.638   5.997   5.815
19983TIP3   OH281363   4.115   5.931   5.760
19983TIP3    H181364   4.163   5.866   5.708
19983TIP3    H281365   4.176   5.956   5.831
19984TIP3   OH281366   7.091   6.631   5.711
19984TIP3    H181367   7.083   6.622   5.614
19984TIP3    H281368   7.169   6.684   5.724
19985TIP3   OH281369   6.648   6.024   5.770
19985TIP3    H181370   6.614   6.023   5.860
19985TIP3    H281371   6.609   5.940   5.739
19986TIP3   OH281372   6.330   6.065   5.679
19986TIP3    H181373   6.288   6.022   5.757
19986TIP3    H281374   6.258   6.108   5.632
19987TIP3   OH281375   6.916   6.087   5.834
19987TIP3    H181376   6.819   6.091   5.819
19987TIP3    H281377   6.934   6.176   5.865
19988TIP3   OH281378   6.471   7.079   5.643
19988TIP3    H181379   6.470   7.000   5.588
19988TIP3    H281380   6.424   7.045   5.722
19989TIP3   OH281381   6.356   7.038   5.888
19989TIP3    H181382   6.364   6.993   5.971
19989TIP3    H281383   6.337   7.129   5.916
19990TIP3   OH281384   6.620   7.207   5.972
19990TIP3    H181385   6.541   7.259   5.968
19990TIP3    H281386   6.675   7.248   5.902
19991TIP3   OH281387   6.665   7.268   5.670
19991TIP3    H181388   6.592   7.203   5.681
19991TIP3    H281389   6.737   7.215   5.636
19992TIP3   OH281390   7.133   7.236   5.693
19992TIP3    H181391   7.160   7.154   5.733
19992TIP3    H281392   7.203   7.260   5.629
19993TIP3   OH281393   6.206   6.836   5.660
19993TIP3    H181394   6.217   6.761   5.720
19993TIP3    H281395   6.281   6.827   5.600
19994TIP3   OH281396   6.437   6.460   5.726
19994TIP3    H181397   6.417   6.454   5.632
19994TIP3    H281398   6.532   6.470   5.727
19995TIP3   OH281399   5.780   6.996   5.760
19995TIP3    H181400   5.869   6.994   5.799
19995TIP3    H281401   5.780   6.916   5.704
19996TIP3   OH281402   7.237   6.103   5.629
19996TIP3    H181403   7.304   6.055   5.680
19996TIP3    H281404   7.159   6.046   5.650
   7.30356   7.30356  16.00000   0.00000   0.00000   0.00000   0.00000   0.00000   0.00000
