Title
81404
    1CHL1    C3    1   3.891   3.991   9.116  0.5647 -0.1849 -0.3116
    1CHL1    H3    2   3.875   4.092   9.071 -0.1712  0.3036  0.9867
    1CHL1    O3    3   3.935   4.025   9.243  0.4039  0.0669  0.6848
    1CHL1   H3'    4   3.983   3.949   9.278 -1.9229 -1.7211  0.2224
    1CHL1    C4    5   3.749   3.922   9.140  0.0930 -0.2983 -0.5677
    1CHL1   H4A    6   3.762   3.839   9.212  1.7362  1.0628  0.8134
    1CHL1   H4B    7   3.678   3.991   9.190  0.6758  1.0683 -1.5370
    1CHL1    C5    8   3.682   3.874   9.018 -0.5950  0.5081  0.5044
    1CHL1    C6    9   3.562   3.922   8.980 -0.4250  0.0907 -0.3108
    1CHL1    H6   10   3.514   3.999   9.043  0.8814  1.2826 -0.7027
    1CHL1    C7   11   3.491   3.900   8.854 -0.4081  0.3586  0.0130
    1CHL1   H7A   12   3.383   3.889   8.876 -0.4046 -0.6348 -0.4187
    1CHL1   H7B   13   3.494   3.984   8.782 -0.9889  0.4626  0.1076
    1CHL1    C8   14   3.550   3.778   8.777 -0.3891  0.1654  0.1654
    1CHL1    H8   15   3.519   3.689   8.836  0.9054 -0.5688 -0.2425
    1CHL1   C14   16   3.492   3.783   8.636 -0.7117  0.4230  0.4440
    1CHL1   H14   17   3.529   3.872   8.582 -1.0955 -0.4455 -1.3025
    1CHL1   C15   18   3.342   3.774   8.629  0.3393  0.5660 -0.3105
    1CHL1  H15A   19   3.294   3.700   8.697 -0.4064  0.9012 -0.4551
    1CHL1  H15B   20   3.292   3.871   8.649  1.1591  0.3486  3.3478
    1CHL1   C16   21   3.321   3.732   8.481 -0.5707 -0.0424  0.4135
    1CHL1  H16A   22   3.236   3.662   8.494  0.4778 -1.1235  1.7596
    1CHL1  H16B   23   3.287   3.810   8.410  0.8126 -1.1846 -1.6027
    1CHL1   C17   24   3.454   3.678   8.432  0.3740 -0.1851  0.0124
    1CHL1   H17   25   3.502   3.763   8.379 -2.7215  2.2455  0.8160
    1CHL1   C13   26   3.540   3.665   8.561  0.0113 -0.2868 -0.5256
    1CHL1   C18   27   3.497   3.532   8.623 -0.2779 -0.5508 -0.2656
    1CHL1  H18A   28   3.545   3.515   8.722  1.4172 -1.9235 -1.2741
    1CHL1  H18B   29   3.386   3.522   8.633 -0.0308 -5.9513  0.0823
    1CHL1  H18C   30   3.523   3.455   8.548  3.2214  0.9859 -0.7924
    1CHL1   C12   31   3.699   3.677   8.544  0.2071 -0.3455  0.6264
    1CHL1  H12A   32   3.739   3.604   8.471 -1.7380  1.0243 -1.9985
    1CHL1  H12B   33   3.728   3.776   8.501 -1.2119 -0.0878  0.1990
    1CHL1   C11   34   3.757   3.664   8.686 -0.6503  0.0012 -0.1220
    1CHL1  H11A   35   3.734   3.564   8.727 -2.0001 -0.3312 -1.5611
    1CHL1  H11B   36   3.867   3.677   8.680 -0.7636  2.0545  1.1770
    1CHL1    C9   37   3.703   3.774   8.781 -0.7481  0.4515  0.0936
    1CHL1    H9   38   3.731   3.866   8.725  1.5306 -0.2347  0.0262
    1CHL1   C10   39   3.773   3.792   8.919  0.1237 -0.0784 -0.7084
    1CHL1   C19   40   3.770   3.655   8.995 -0.1371  0.1396  0.2717
    1CHL1  H19A   41   3.827   3.577   8.942  0.6072 -0.1059  1.4022
    1CHL1  H19B   42   3.826   3.659   9.091  1.6671 -2.8682 -0.5261
    1CHL1  H19C   43   3.668   3.618   9.018  0.4296 -1.8309 -0.2406
    1CHL1    C1   44   3.912   3.847   8.908 -0.5359 -0.0104 -0.0966
    1CHL1   H1A   45   3.962   3.755   8.870 -0.4062  0.4945 -1.1595
    1CHL1   H1B   46   3.927   3.931   8.837 -1.5910  3.5519  3.5102
    1CHL1    C2   47   3.981   3.890   9.040  0.2066  0.3701  0.0737
    1CHL1   H2A   48   4.080   3.932   9.013 -0.9335  1.6056 -2.4842
    1CHL1   H2B   49   4.004   3.797   9.097 -0.1337 -1.2368 -2.2533
    1CHL1   C20   50   3.430   3.553   8.342 -0.1963 -0.5930  1.0332
    1CHL1   H20   51   3.376   3.479   8.404  2.6545 -1.1104  3.0587
    1CHL1   C21   52   3.562   3.501   8.278  0.0077  0.0556  0.7931
    1CHL1  H21A   53   3.619   3.588   8.239  1.2971 -1.6304 -1.2939
    1CHL1  H21B   54   3.566   3.442   8.184  2.2295  1.1174  0.1607
    1CHL1  H21C   55   3.627   3.454   8.354  0.5701 -0.5035 -0.0262
    1CHL1   C22   56   3.324   3.584   8.227  0.6904 -0.2948 -0.2303
    1CHL1  H22A   57   3.231   3.614   8.280 -0.3712 -1.0026 -1.6287
    1CHL1  H22B   58   3.363   3.664   8.161  0.8569 -1.0520 -1.0622
    1CHL1   C23   59   3.292   3.472   8.122 -0.0494  0.3377  0.4611
    1CHL1  H23A   60   3.380   3.447   8.060 -1.2523  0.1983 -1.2729
    1CHL1  H23B   61   3.262   3.379   8.174  0.2897 -0.0988 -0.1175
    1CHL1   C24   62   3.162   3.493   8.034 -0.0526 -0.2277  0.7977
    1CHL1  H24A   63   3.071   3.517   8.093  0.3056 -0.9388  1.6729
    1CHL1  H24B   64   3.182   3.584   7.973 -3.8404 -0.1264 -0.5597
    1CHL1   C25   65   3.125   3.387   7.931 -0.2450  0.1388  0.4233
    1CHL1   H25   66   3.116   3.293   7.989 -0.6388 -1.0126 -1.4138
    1CHL1   C26   67   2.995   3.430   7.874  0.2241  1.3470  0.1874
    1CHL1  H26A   68   3.001   3.518   7.806  0.0122  0.3984 -1.1015
    1CHL1  H26B   69   2.959   3.352   7.803  0.8222  2.5220 -1.4616
    1CHL1  H26C   70   2.917   3.436   7.952  1.9015  1.8920  1.8894
    1CHL1   C27   71   3.229   3.359   7.820 -0.4895  0.0625 -0.2324
    1CHL1  H27A   72   3.266   3.449   7.766  0.9696 -1.8622 -2.6722
    1CHL1  H27B   73   3.328   3.322   7.856 -0.6558  1.3856  1.7874
    1CHL1  H27C   74   3.190   3.281   7.751  0.6897 -0.9894  0.2559
    2CHL1    C3   75   3.036   2.517   9.171  0.3003  0.3253  0.1226
    2CHL1    H3   76   2.983   2.421   9.152  0.4035  0.6487 -2.0360
    2CHL1    O3   77   3.011   2.558   9.305  0.2971  0.1909 -0.1204
    2CHL1   H3'   78   2.940   2.621   9.290  0.6461  0.4223 -0.8208
    2CHL1    C4   79   3.188   2.496   9.164 -0.1178  0.3930  0.5837
    2CHL1   H4A   80   3.230   2.593   9.197 -0.1302  0.2144  1.1353
    2CHL1   H4B   81   3.218   2.422   9.242 -1.7600 -0.2218  0.6733
    2CHL1    C5   82   3.229   2.454   9.020  0.4730 -0.1354 -0.6840
    2CHL1    C6   83   3.297   2.341   8.991  0.8637  0.1099 -0.1493
    2CHL1    H6   84   3.320   2.266   9.068  0.5712  0.9653  0.7938
    2CHL1    C7   85   3.343   2.294   8.857  0.3037  0.1832 -0.6233
    2CHL1   H7A   86   3.448   2.258   8.862  0.2809  0.2541  3.0753
    2CHL1   H7B   87   3.285   2.203   8.831  0.5581 -0.2003  0.1485
    2CHL1    C8   88   3.321   2.395   8.749 -0.3209  0.0159 -0.8326
    2CHL1    H8   89   3.402   2.471   8.749  0.0159 -0.2634  1.5707
    2CHL1   C14   90   3.322   2.323   8.616  0.5098 -0.1581  0.3369
    2CHL1   H14   91   3.241   2.248   8.623  0.9313 -0.8127 -1.3299
    2CHL1   C15   92   3.439   2.231   8.576  0.0614  0.4114  0.6589
    2CHL1  H15A   93   3.522   2.301   8.599 -0.5397  0.5195  2.6886
    2CHL1  H15B   94   3.437   2.143   8.645  2.2885  0.0360  0.3189
    2CHL1   C16   95   3.407   2.198   8.429 -0.0958 -0.3005  0.3702
    2CHL1  H16A   96   3.504   2.219   8.379 -0.0657 -0.4743  0.3558
    2CHL1  H16B   97   3.381   2.092   8.411 -0.5069 -0.0789 -0.3687
    2CHL1   C17   98   3.293   2.300   8.389 -0.0411  0.2370  0.6351
    2CHL1   H17   99   3.202   2.237   8.403 -0.2882  0.1941 -0.9503
    2CHL1   C13  100   3.290   2.412   8.501 -0.8031 -0.1965 -0.9315
    2CHL1   C18  101   3.406   2.505   8.474  0.4065 -0.5075  0.0205
    2CHL1  H18A  102   3.482   2.449   8.417 -0.4541 -1.8179  0.1305
    2CHL1  H18B  103   3.365   2.579   8.401  2.4903 -0.2822 -0.9827
    2CHL1  H18C  104   3.455   2.546   8.565 -2.1321 -0.9493  1.7071
    2CHL1   C12  105   3.153   2.485   8.526 -0.6055  0.0929  0.3317
    2CHL1  H12A  106   3.119   2.551   8.443  0.0498 -0.4710 -0.4003
    2CHL1  H12B  107   3.072   2.411   8.543 -1.5676  1.1566  0.5174
    2CHL1   C11  108   3.172   2.576   8.648 -0.7826  0.4522  0.3906
    2CHL1  H11A  109   3.259   2.642   8.628 -0.0730 -1.1740 -2.3978
    2CHL1  H11B  110   3.082   2.639   8.666 -0.4161  1.2970 -0.6436
    2CHL1    C9  111   3.202   2.483   8.772  0.2233 -0.3099  0.5339
    2CHL1    H9  112   3.112   2.417   8.770  0.6650 -0.9570 -2.2201
    2CHL1   C10  113   3.197   2.554   8.914  0.0476 -0.2274  0.1787
    2CHL1   C19  114   3.300   2.676   8.923  0.0371  0.6576 -0.7060
    2CHL1  H19A  115   3.400   2.630   8.909  0.7183  2.0943 -0.7879
    2CHL1  H19B  116   3.285   2.732   8.828  1.5360  1.1919 -0.6712
    2CHL1  H19C  117   3.283   2.739   9.013  1.0543  0.8700 -0.6506
    2CHL1    C1  118   3.046   2.602   8.933  0.1478  0.2671  0.7389
    2CHL1   H1A  119   3.051   2.704   8.888  0.2059 -0.1093 -0.1134
    2CHL1   H1B  120   2.978   2.533   8.879  1.7366  2.5383 -4.9343
    2CHL1    C2  121   3.000   2.630   9.080  0.5160  0.0774  0.2232
    2CHL1   H2A  122   2.893   2.659   9.076  0.4670 -0.0522  0.5992
    2CHL1   H2B  123   3.053   2.721   9.115  1.5497  0.4651 -2.1580
    2CHL1   C20  124   3.293   2.346   8.238 -0.2260  0.9598 -0.1168
    2CHL1   H20  125   3.375   2.421   8.233 -0.8604  1.8662  1.9362
    2CHL1   C21  126   3.162   2.411   8.195 -0.2403 -0.0493 -0.3499
    2CHL1  H21A  127   3.171   2.466   8.099 -1.7918  1.2745  0.2164
    2CHL1  H21B  128   3.117   2.488   8.263 -3.2233 -0.2126 -1.9810
    2CHL1  H21C  129   3.080   2.337   8.189 -2.7141  2.4440  0.3989
    2CHL1   C22  130   3.333   2.240   8.128  0.3684  0.3241  0.1292
    2CHL1  H22A  131   3.438   2.214   8.150  0.2054 -0.1506  0.3671
    2CHL1  H22B  132   3.261   2.159   8.155  1.2326 -0.0440  1.4269
    2CHL1   C23  133   3.310   2.279   7.985 -0.0658 -0.0144  0.3469
    2CHL1  H23A  134   3.298   2.181   7.934 -0.8376  0.4592 -0.4224
    2CHL1  H23B  135   3.207   2.321   7.979 -0.8094 -1.6490  0.9605
    2CHL1   C24  136   3.419   2.361   7.912  0.9608 -0.6578 -1.0395
    2CHL1  H24A  137   3.417   2.461   7.961  0.7399 -1.3750  0.4806
    2CHL1  H24B  138   3.520   2.319   7.930 -0.2469 -2.4953  2.2035
    2CHL1   C25  139   3.382   2.384   7.765  0.3355 -0.0744 -0.9144
    2CHL1   H25  140   3.279   2.425   7.765  0.5134  0.5377  1.4160
    2CHL1   C26  141   3.464   2.496   7.701 -0.4668  0.3679  0.2818
    2CHL1  H26A  142   3.427   2.507   7.597  0.3528 -0.1080 -0.0653
    2CHL1  H26B  143   3.424   2.591   7.742 -0.6439  0.1146  0.7032
    2CHL1  H26C  144   3.573   2.487   7.719 -0.1466  0.4929 -1.4193
    2CHL1   C27  145   3.390   2.255   7.684 -1.0180  0.5960 -0.5929
    2CHL1  H27A  146   3.354   2.274   7.581  0.5194  0.7766 -1.1356
    2CHL1  H27B  147   3.495   2.217   7.687  0.1434  3.4178 -1.3541
    2CHL1  H27C  148   3.328   2.174   7.725  0.8937 -0.2173  0.8524
    3CHL1    C3  149   5.489   3.038   9.244  0.3720  0.2688 -0.4399
    3CHL1    H3  150   5.470   2.930   9.263  0.3589  0.1477 -1.1257
    3CHL1    O3  151   5.542   3.092   9.357 -0.1201  0.0727 -0.3095
    3CHL1   H3'  152   5.576   3.180   9.340  0.2885 -0.4405 -2.4939
    3CHL1    C4  153   5.581   3.059   9.124  0.2651 -0.3514 -0.1812
    3CHL1   H4A  154   5.601   3.168   9.110 -1.8772  0.2895  1.2876
    3CHL1   H4B  155   5.681   3.022   9.154  1.6219  1.4740 -2.0942
    3CHL1    C5  156   5.519   2.995   9.000  0.1601  0.3013 -0.6450
    3CHL1    C6  157   5.595   2.898   8.951  0.7676  0.1241  0.1920
    3CHL1    H6  158   5.699   2.878   8.982  0.2735 -2.7533  0.2784
    3CHL1    C7  159   5.551   2.819   8.831  0.5604 -0.2055  0.0684
    3CHL1   H7A  160   5.638   2.804   8.763 -0.4951  1.0647 -1.6548
    3CHL1   H7B  161   5.511   2.718   8.855 -0.1338 -0.7948 -3.0797
    3CHL1    C8  162   5.433   2.885   8.752 -0.2574 -0.5732  0.0648
    3CHL1    H8  163   5.483   2.966   8.694  0.2910 -1.0734 -0.1680
    3CHL1   C14  164   5.367   2.785   8.654  0.1618  0.4555 -0.3851
    3CHL1   H14  165   5.316   2.715   8.724  0.3376  2.2294  1.6223
    3CHL1   C15  166   5.472   2.712   8.568  0.2859  0.5465 -0.2783
    3CHL1  H15A  167   5.555   2.782   8.547  0.5006 -0.5950 -3.9339
    3CHL1  H15B  168   5.500   2.625   8.632 -2.4129  0.9631  1.6627
    3CHL1   C16  169   5.388   2.664   8.448 -0.0954  0.5513  0.3300
    3CHL1  H16A  170   5.433   2.689   8.349 -0.3584 -3.0909 -0.8345
    3CHL1  H16B  171   5.388   2.553   8.455  0.2961  0.3471 -2.0088
    3CHL1   C17  172   5.238   2.717   8.476  0.2881  0.4522  0.4811
    3CHL1   H17  173   5.196   2.641   8.544  0.7631  0.5074  0.8426
    3CHL1   C13  174   5.260   2.842   8.564  0.1955 -0.6917 -0.3292
    3CHL1   C18  175   5.334   2.940   8.474  0.1211 -0.2936  0.1120
    3CHL1  H18A  176   5.380   3.018   8.539  2.7171 -0.2055 -1.6787
    3CHL1  H18B  177   5.423   2.901   8.419  1.6206 -0.5074  2.5731
    3CHL1  H18C  178   5.277   3.005   8.403  1.4334  0.1643 -0.5639
    3CHL1   C12  179   5.151   2.907   8.650 -0.5296  0.0127 -0.1236
    3CHL1  H12A  180   5.079   2.972   8.596  0.6800  0.1453 -1.6643
    3CHL1  H12B  181   5.100   2.833   8.715  0.3133  0.7124  1.3927
    3CHL1   C11  182   5.210   3.010   8.751  0.1088  0.8834  0.1448
    3CHL1  H11A  183   5.243   3.103   8.698  0.1768  0.5403 -0.4295
    3CHL1  H11B  184   5.122   3.027   8.816 -0.6420 -1.0319 -0.2987
    3CHL1    C9  185   5.326   2.947   8.836  0.8753 -0.4263  0.2420
    3CHL1    H9  186   5.272   2.864   8.884 -0.3862  1.0638  1.5105
    3CHL1   C10  187   5.377   3.031   8.951 -0.2269 -0.3502 -0.5452
    3CHL1   C19  188   5.376   3.188   8.914  0.4768 -0.2034  0.0755
    3CHL1  H19A  189   5.418   3.257   8.991 -2.5959  3.7956 -1.4373
    3CHL1  H19B  190   5.410   3.207   8.810  0.3629 -0.8402 -0.0825
    3CHL1  H19C  191   5.266   3.205   8.912  0.3059 -1.2876 -0.2793
    3CHL1    C1  192   5.287   3.013   9.081  0.1705  0.3744  0.2913
    3CHL1   H1A  193   5.188   3.050   9.048  1.3496  1.3790 -2.3373
    3CHL1   H1B  194   5.266   2.908   9.109 -1.2481  1.1280  2.2865
    3CHL1    C2  195   5.343   3.081   9.208 -0.3117 -0.1696  0.5929
    3CHL1   H2A  196   5.282   3.063   9.299  0.6618 -0.1675  1.2648
    3CHL1   H2B  197   5.333   3.191   9.193 -1.8603 -0.3399  0.1622
    3CHL1   C20  198   5.152   2.719   8.349  0.0348  0.5018 -0.8476
    3CHL1   H20  199   5.194   2.787   8.272  2.4428 -3.0538 -2.9493
    3CHL1   C21  200   5.004   2.757   8.396  0.2853  0.3642  0.0139
    3CHL1  H21A  201   4.987   2.865   8.418 -2.7099  0.3912 -1.8152
    3CHL1  H21B  202   4.968   2.697   8.482 -1.8124 -2.1082 -2.4116
    3CHL1  H21C  203   4.933   2.734   8.314 -0.3905 -1.5480  1.0878
    3CHL1   C22  204   5.145   2.578   8.277 -0.4823  0.1745  0.4929
    3CHL1  H22A  205   5.247   2.539   8.259 -0.9527 -0.3965 -1.1108
    3CHL1  H22B  206   5.083   2.507   8.335 -1.6094  2.6420  2.4838
    3CHL1   C23  207   5.087   2.591   8.137 -0.0505 -0.0699 -0.3058
    3CHL1  H23A  208   4.978   2.615   8.137 -0.6708 -2.5534 -1.3718
    3CHL1  H23B  209   5.147   2.669   8.086 -0.8675  1.0908  0.4534
    3CHL1   C24  210   5.097   2.464   8.049  0.5080  0.7118  0.4573
    3CHL1  H24A  211   5.098   2.482   7.940 -0.2550 -0.8006  0.1831
    3CHL1  H24B  212   5.184   2.397   8.068 -2.5029 -3.4169  0.8776
    3CHL1   C25  213   4.968   2.374   8.052 -0.0507 -0.0549 -0.4733
    3CHL1   H25  214   4.926   2.386   8.154 -0.6558 -1.2968 -0.5566
    3CHL1   C26  215   4.863   2.417   7.950  0.3662  0.4104  0.1889
    3CHL1  H26A  216   4.825   2.515   7.985 -0.3822 -0.5064  2.1252
    3CHL1  H26B  217   4.900   2.420   7.845 -0.5414 -1.5808 -0.2413
    3CHL1  H26C  218   4.773   2.351   7.949  1.5177 -1.2606 -1.9583
    3CHL1   C27  219   4.992   2.228   8.019  0.3156  0.5685 -0.6614
    3CHL1  H27A  220   5.075   2.175   8.072 -0.4532  1.1968  1.2382
    3CHL1  H27B  221   4.898   2.172   8.034  0.7433  0.3398  1.5433
    3CHL1  H27C  222   5.016   2.208   7.912  3.4076 -2.1010  0.3309
    4CHL1    C3  223   4.915   3.356   9.286 -0.5825 -0.3372  0.3290
    4CHL1    H3  224   4.808   3.330   9.271 -0.8972 -0.7854  2.9527
    4CHL1    O3  225   4.960   3.331   9.419  0.2159  0.1388  0.2437
    4CHL1   H3'  226   5.005   3.248   9.403 -2.6044 -0.9992 -3.3165
    4CHL1    C4  227   5.002   3.281   9.185 -0.0899  0.3282  0.8459
    4CHL1   H4A  228   5.106   3.266   9.219  0.3391  0.3730 -0.4158
    4CHL1   H4B  229   4.958   3.180   9.198  1.4649 -0.2109  2.3503
    4CHL1    C5  230   4.992   3.329   9.038 -0.5790 -0.7888 -0.2171
    4CHL1    C6  231   4.967   3.246   8.938 -0.0407 -0.2616 -0.3107
    4CHL1    H6  232   4.941   3.142   8.965  1.6553 -0.5569  0.3228
    4CHL1    C7  233   4.962   3.289   8.788  0.3167  0.0999 -0.1342
    4CHL1   H7A  234   5.019   3.223   8.720  1.2854 -1.4968  2.1120
    4CHL1   H7B  235   4.857   3.283   8.753  0.6398 -0.7578 -0.9848
    4CHL1    C8  236   5.017   3.432   8.772 -0.0440 -0.3221  0.0045
    4CHL1    H8  237   5.126   3.429   8.791 -0.2781 -0.1397  1.5064
    4CHL1   C14  238   4.972   3.477   8.628  0.5613  0.2433 -0.2133
    4CHL1   H14  239   4.861   3.477   8.623  0.5614  0.2639 -0.2178
    4CHL1   C15  240   5.013   3.388   8.512  0.1975  0.1995 -0.9167
    4CHL1  H15A  241   5.121   3.361   8.504  0.9610  1.2483  3.1497
    4CHL1  H15B  242   4.958   3.294   8.528 -0.6474  0.9827  1.1532
    4CHL1   C16  243   4.980   3.472   8.392 -0.2670  0.0849  0.2966
    4CHL1  H16A  244   5.068   3.460   8.326 -0.1542 -1.1510  0.6506
    4CHL1  H16B  245   4.888   3.444   8.337 -0.0992 -0.9089  0.5006
    4CHL1   C17  246   4.953   3.624   8.448  0.2399  1.0761  0.0403
    4CHL1   H17  247   4.844   3.642   8.442  0.5043  3.7919  1.6085
    4CHL1   C13  248   4.999   3.624   8.598  0.2687  1.1320  0.0115
    4CHL1   C18  249   5.159   3.639   8.596  0.7906  0.0152  0.1373
    4CHL1  H18A  250   5.179   3.747   8.581  1.8094 -0.2817 -0.7422
    4CHL1  H18B  251   5.192   3.616   8.700 -1.1550  0.5058  0.9136
    4CHL1  H18C  252   5.207   3.572   8.522  0.7780  2.2501 -2.0215
    4CHL1   C12  253   4.926   3.710   8.702  0.0787 -0.5833  0.5193
    4CHL1  H12A  254   4.952   3.814   8.674 -0.6317 -0.0098  1.8569
    4CHL1  H12B  255   4.817   3.694   8.690  0.3392 -0.6945 -2.5373
    4CHL1   C11  256   4.975   3.672   8.844 -0.6726 -0.7978  0.5126
    4CHL1  H11A  257   5.081   3.702   8.856 -0.8723 -0.5469  1.7197
    4CHL1  H11B  258   4.926   3.741   8.917 -0.9187 -1.7987  1.3156
    4CHL1    C9  259   4.957   3.523   8.877  0.1769 -0.1345 -1.2109
    4CHL1    H9  260   4.847   3.510   8.881  0.2157 -0.3873  1.4260
    4CHL1   C10  261   5.000   3.482   9.021 -0.3569  0.0620  0.1186
    4CHL1   C19  262   5.143   3.536   9.046 -0.1204 -0.3347 -0.3775
    4CHL1  H19A  263   5.223   3.492   8.983  0.4473 -1.6182  1.1762
    4CHL1  H19B  264   5.149   3.647   9.046 -0.9152 -0.2754  0.3306
    4CHL1  H19C  265   5.170   3.512   9.151  0.8310 -0.1009 -0.5621
    4CHL1    C1  266   4.909   3.543   9.130 -0.6880 -0.0107  0.4161
    4CHL1   H1A  267   4.905   3.653   9.115  1.6183 -0.0491 -1.1669
    4CHL1   H1B  268   4.808   3.506   9.101 -1.0204  0.6829  0.6884
    4CHL1    C2  269   4.935   3.505   9.272 -0.2312  0.3228  0.3542
    4CHL1   H2A  270   4.872   3.572   9.335 -1.9546  1.0396 -1.9939
    4CHL1   H2B  271   5.040   3.531   9.297  0.2999 -1.6479  0.3215
    4CHL1   C20  272   5.009   3.731   8.355  0.2676 -0.3347 -0.2779
    4CHL1   H20  273   5.118   3.739   8.370  0.4888 -0.8117 -1.5117
    4CHL1   C21  274   4.944   3.864   8.397  0.3923 -0.1379 -0.7953
    4CHL1  H21A  275   4.979   3.892   8.498  1.0738  0.6974 -1.2492
    4CHL1  H21B  276   4.833   3.860   8.408  0.4959  0.6541  0.7176
    4CHL1  H21C  277   4.973   3.948   8.330  0.3078  0.9438  0.4924
    4CHL1   C22  278   4.977   3.705   8.210  0.1758 -0.1531  0.4900
    4CHL1  H22A  279   5.027   3.618   8.162  3.9832  2.7670 -1.4285
    4CHL1  H22B  280   4.870   3.686   8.187  0.2879  1.4861 -1.7564
    4CHL1   C23  281   5.009   3.823   8.106  0.5068  0.2501  0.3121
    4CHL1  H23A  282   4.937   3.903   8.134  0.8177  0.4527  0.5345
    4CHL1  H23B  283   5.108   3.872   8.116  0.1588  1.0594 -0.1245
    4CHL1   C24  284   4.974   3.775   7.966  0.8866 -0.1583 -0.2827
    4CHL1  H24A  285   5.056   3.706   7.934  1.2833  0.2812 -0.2244
    4CHL1  H24B  286   4.876   3.725   7.977  0.0409  1.4889 -0.1806
    4CHL1   C25  287   4.947   3.890   7.868  0.1841  0.0204  0.0276
    4CHL1   H25  288   4.889   3.967   7.923  1.0717 -0.4724  1.7224
    4CHL1   C26  289   5.075   3.955   7.817  0.2640 -0.2765  0.0882
    4CHL1  H26A  290   5.142   3.874   7.779  1.1698  0.9701 -1.0745
    4CHL1  H26B  291   5.049   4.031   7.741 -1.2441 -1.6204 -0.8134
    4CHL1  H26C  292   5.131   4.007   7.898 -1.4160 -0.0549  1.1543
    4CHL1   C27  293   4.852   3.852   7.751 -0.1893  0.2196 -0.7887
    4CHL1  H27A  294   4.906   3.775   7.691 -0.8336  0.7287 -2.0724
    4CHL1  H27B  295   4.757   3.816   7.797 -0.1552 -0.1319 -0.9880
    4CHL1  H27C  296   4.832   3.944   7.692 -1.1563 -1.3047 -2.9822
    5CHL1    C3  297   4.818   2.834   9.304  0.0854  0.0959  0.0317
    5CHL1    H3  298   4.742   2.766   9.347  0.1425 -0.5327 -0.8324
    5CHL1    O3  299   4.826   2.952   9.380 -0.4902 -0.5095 -0.1990
    5CHL1   H3'  300   4.914   2.985   9.362 -0.3521  1.3243  3.1047
    5CHL1    C4  301   4.955   2.763   9.296  0.5966 -0.6423 -0.7264
    5CHL1   H4A  302   5.041   2.829   9.271 -0.3156 -0.0119 -2.3459
    5CHL1   H4B  303   4.980   2.724   9.397 -1.6250  1.8304  0.8916
    5CHL1    C5  304   4.940   2.650   9.200 -0.3044 -0.1178  0.0175
    5CHL1    C6  305   4.973   2.525   9.232  0.3222 -0.5435  0.4779
    5CHL1    H6  306   5.018   2.507   9.331  3.0009 -1.8853 -0.8714
    5CHL1    C7  307   4.968   2.408   9.144  0.2845 -0.1555  0.8582
    5CHL1   H7A  308   5.056   2.342   9.156  0.2264 -0.2795  0.6096
    5CHL1   H7B  309   4.873   2.354   9.164  1.7619 -2.3827  2.1842
    5CHL1    C8  310   4.973   2.453   8.993 -0.0930 -0.3348  0.1219
    5CHL1    H8  311   5.076   2.493   8.986  0.8768 -2.5645  1.0182
    5CHL1   C14  312   4.937   2.332   8.910 -0.0725  0.4755  0.8223
    5CHL1   H14  313   4.835   2.303   8.943  0.1245  2.7223  3.8048
    5CHL1   C15  314   5.024   2.208   8.928 -0.0983 -0.5745 -0.1246
    5CHL1  H15A  315   5.127   2.250   8.926 -0.0360 -0.7535 -0.7381
    5CHL1  H15B  316   5.015   2.146   9.020  0.3363 -0.4539  0.0024
    5CHL1   C16  317   5.004   2.135   8.793 -0.3540 -0.4975  0.2178
    5CHL1  H16A  318   5.109   2.119   8.760  0.1261  2.2638  0.1650
    5CHL1  H16B  319   4.955   2.037   8.812 -2.6688  0.6374  0.4832
    5CHL1   C17  320   4.931   2.228   8.693  0.0004 -0.5353 -0.8281
    5CHL1   H17  321   4.824   2.197   8.702 -0.0084 -1.5588 -3.5157
    5CHL1   C13  322   4.934   2.364   8.758  0.0341  0.3845  0.5015
    5CHL1   C18  323   5.073   2.425   8.709 -0.2687 -0.0486  0.2424
    5CHL1  H18A  324   5.157   2.355   8.728 -1.2410 -2.2989 -2.9437
    5CHL1  H18B  325   5.073   2.439   8.599  0.5946 -3.1526 -0.2484
    5CHL1  H18C  326   5.101   2.519   8.762  1.6874  0.3364 -1.3521
    5CHL1   C12  327   4.813   2.458   8.726 -0.2320  0.8871  0.3055
    5CHL1  H12A  328   4.807   2.493   8.621  0.3620 -0.2649 -0.1240
    5CHL1  H12B  329   4.718   2.403   8.746 -1.0986 -0.3598 -5.4124
    5CHL1   C11  330   4.820   2.580   8.817 -0.3587  0.1265  0.8628
    5CHL1  H11A  331   4.903   2.635   8.769 -1.5529  0.4028 -1.0107
    5CHL1  H11B  332   4.724   2.637   8.807  0.7791  1.7069 -3.3130
    5CHL1    C9  333   4.858   2.558   8.966 -0.1008 -0.4800 -0.6866
    5CHL1    H9  334   4.769   2.512   9.014  0.2246  1.6166  2.1993
    5CHL1   C10  335   4.888   2.681   9.057 -0.5538 -0.3883  0.2278
    5CHL1   C19  336   4.978   2.780   8.981 -0.1962 -0.0629  0.1142
    5CHL1  H19A  337   5.068   2.719   8.959  0.8191  0.9524  1.3325
    5CHL1  H19B  338   4.928   2.805   8.884  0.2699 -2.0460 -0.6977
    5CHL1  H19C  339   4.991   2.876   9.036  4.1794 -2.1408  3.3304
    5CHL1    C1  340   4.752   2.756   9.078  0.4489 -0.6862 -0.0488
    5CHL1   H1A  341   4.712   2.784   8.979 -0.3952  1.6199  0.8573
    5CHL1   H1B  342   4.674   2.690   9.122 -1.4636  0.7239 -1.1795
    5CHL1    C2  343   4.759   2.884   9.169 -0.3591 -0.4020  0.5714
    5CHL1   H2A  344   4.661   2.933   9.186 -1.4469 -1.8592 -1.1193
    5CHL1   H2B  345   4.830   2.964   9.139  0.8894 -1.2191  1.2414
    5CHL1   C20  346   4.970   2.202   8.549 -0.4441 -0.0836  0.7217
    5CHL1   H20  347   5.079   2.224   8.550 -1.0493  3.4983  2.2735
    5CHL1   C21  348   4.896   2.289   8.444  0.1061  0.1600  0.4058
    5CHL1  H21A  349   4.792   2.258   8.416 -0.5860  0.9442  2.0151
    5CHL1  H21B  350   4.952   2.273   8.349 -0.0308 -1.0979  0.5209
    5CHL1  H21C  351   4.903   2.395   8.475 -2.1147  0.4301  0.1339
    5CHL1   C22  352   4.950   2.057   8.504 -0.6500  0.0447  0.5129
    5CHL1  H22A  353   4.997   1.985   8.574 -0.4538 -0.2236  0.1101
    5CHL1  H22B  354   4.840   2.051   8.502 -0.7920  0.8118  3.1262
    5CHL1   C23  355   5.012   2.020   8.363 -0.1676 -0.5037 -0.1902
    5CHL1  H23A  356   4.945   2.056   8.282  0.2810  0.3955 -0.1739
    5CHL1  H23B  357   5.106   2.077   8.346 -0.3434  0.0287  0.5648
    5CHL1   C24  358   5.049   1.874   8.344  0.3125 -0.6143 -0.3715
    5CHL1  H24A  359   5.138   1.845   8.404  0.5747  1.0320  0.0901
    5CHL1  H24B  360   4.961   1.812   8.371  0.2844 -1.9146 -3.1281
    5CHL1   C25  361   5.086   1.827   8.201  1.0734 -0.8635  0.6474
    5CHL1   H25  362   5.108   1.718   8.194  2.0682 -0.6537  0.3904
    5CHL1   C26  363   4.976   1.852   8.095  0.1420 -0.4314 -0.6540
    5CHL1  H26A  364   4.968   1.959   8.064 -2.6571  0.1466  1.6600
    5CHL1  H26B  365   4.986   1.796   7.999 -0.8437  0.6076 -1.3949
    5CHL1  H26C  366   4.877   1.826   8.138 -0.2802  0.7279 -0.8742
    5CHL1   C27  367   5.222   1.897   8.167  0.7398  1.1571  0.2231
    5CHL1  H27A  368   5.247   1.856   8.067 -2.6922  0.2413 -0.3736
    5CHL1  H27B  369   5.222   2.007   8.182  0.1038  1.0389  1.2142
    5CHL1  H27C  370   5.292   1.846   8.236  0.5467 -1.3718 -1.3276
    6CHL1    C3  371   2.847   5.966   9.170  0.0875  0.4335  0.1535
    6CHL1    H3  372   2.906   5.872   9.169 -0.8037 -0.2557  3.2059
    6CHL1    O3  373   2.819   5.973   9.306 -0.5162 -0.8739  0.5975
    6CHL1   H3'  374   2.793   6.064   9.321  1.7209 -0.7116  4.5376
    6CHL1    C4  375   2.921   6.091   9.130 -0.1745 -0.0398  0.1111
    6CHL1   H4A  376   2.870   6.186   9.158 -0.9856 -0.4622  0.0741
    6CHL1   H4B  377   3.017   6.096   9.186 -0.3984  0.7752  0.4363
    6CHL1    C5  378   2.953   6.097   8.979 -0.4724  0.3644 -0.0373
    6CHL1    C6  379   3.081   6.115   8.938 -0.1748 -0.1421  0.4366
    6CHL1    H6  380   3.159   6.139   9.012  0.9249  2.4193 -1.3963
    6CHL1    C7  381   3.116   6.111   8.791 -0.2446 -0.7630  0.1481
    6CHL1   H7A  382   3.198   6.184   8.773  0.8484 -1.8689  0.4877
    6CHL1   H7B  383   3.161   6.011   8.774 -0.4834 -0.9379  0.5316
    6CHL1    C8  384   2.994   6.134   8.698  0.2843  0.4813  0.5473
    6CHL1    H8  385   2.965   6.241   8.706 -1.7856 -0.0143  0.0071
    6CHL1   C14  386   3.035   6.093   8.553  0.1113  0.0138 -0.9572
    6CHL1   H14  387   3.051   5.983   8.559  0.9891  0.2019  2.0543
    6CHL1   C15  388   3.166   6.148   8.500 -0.1716 -0.6771 -0.4699
    6CHL1  H15A  389   3.200   6.247   8.539  0.7482 -2.0511  2.4654
    6CHL1  H15B  390   3.245   6.077   8.530 -1.9489 -1.9640  1.4636
    6CHL1   C16  391   3.139   6.145   8.348  0.0735  0.3403 -0.1591
    6CHL1  H16A  392   3.147   6.249   8.310  2.1066  0.6653  1.0020
    6CHL1  H16B  393   3.218   6.084   8.297  1.5960  1.7547  0.4209
    6CHL1   C17  394   3.000   6.070   8.331 -0.3034 -0.6724 -0.3714
    6CHL1   H17  395   3.033   5.964   8.330  2.0862 -0.0113  1.4410
    6CHL1   C13  396   2.918   6.105   8.461 -0.3102  0.3532 -0.3238
    6CHL1   C18  397   2.868   6.257   8.450 -0.7820  0.4348  0.3486
    6CHL1  H18A  398   2.936   6.314   8.383 -0.6762  0.3795  0.4093
    6CHL1  H18B  399   2.768   6.268   8.402 -0.3003 -0.3808 -0.8981
    6CHL1  H18C  400   2.860   6.310   8.548 -0.0290 -1.3341  1.3958
    6CHL1   C12  401   2.804   6.021   8.503 -0.2053  0.6621 -0.0443
    6CHL1  H12A  402   2.714   6.031   8.439 -1.6222 -1.1332  1.5382
    6CHL1  H12B  403   2.832   5.913   8.501  2.4515  1.2922 -0.3996
    6CHL1   C11  404   2.751   6.050   8.644 -0.1895 -0.1160 -0.3189
    6CHL1  H11A  405   2.687   6.140   8.652  0.3587  0.2144  0.5641
    6CHL1  H11B  406   2.681   5.968   8.670  3.0813 -3.4402 -1.2449
    6CHL1    C9  407   2.874   6.046   8.741  0.4442  0.4196 -0.0799
    6CHL1    H9  408   2.899   5.938   8.734 -2.1949 -0.2586 -0.2075
    6CHL1   C10  409   2.829   6.068   8.889 -0.1227  0.7717 -0.2330
    6CHL1   C19  410   2.746   6.198   8.894  0.1274  0.4904 -0.0934
    6CHL1  H19A  411   2.647   6.183   8.845  0.1797 -0.3460  0.0486
    6CHL1  H19B  412   2.729   6.249   8.991 -0.4994  3.8634 -1.8067
    6CHL1  H19C  413   2.789   6.278   8.830 -1.9235  1.5833 -0.2170
    6CHL1    C1  414   2.738   5.946   8.942 -0.7822  0.5273  0.6665
    6CHL1   H1A  415   2.638   5.949   8.893 -0.8852 -1.7375  0.5941
    6CHL1   H1B  416   2.789   5.851   8.914 -0.4937  0.4588  1.3998
    6CHL1    C2  417   2.714   5.946   9.090 -0.2924 -0.0677  0.0571
    6CHL1   H2A  418   2.659   5.853   9.113  1.5468 -1.4265 -0.7974
    6CHL1   H2B  419   2.648   6.030   9.119 -0.5976 -0.2915  0.0079
    6CHL1   C20  420   2.932   6.110   8.193 -0.1719  0.2967 -0.2002
    6CHL1   H20  421   2.869   6.198   8.219 -0.6341 -0.2977  0.7133
    6CHL1   C21  422   2.828   6.003   8.157  0.5595 -0.2300 -0.4411
    6CHL1  H21A  423   2.749   6.056   8.100 -0.4367  1.5307  2.3624
    6CHL1  H21B  424   2.784   5.956   8.248 -3.3085  1.5792 -1.1735
    6CHL1  H21C  425   2.876   5.919   8.102  0.7992  0.2495 -0.9725
    6CHL1   C22  426   3.023   6.128   8.076 -0.3468  0.4222  0.8402
    6CHL1  H22A  427   3.111   6.191   8.102  1.2751 -1.9186  1.3334
    6CHL1  H22B  428   3.057   6.025   8.052  3.0478  1.3250  1.2094
    6CHL1   C23  429   2.952   6.182   7.949 -0.0230  0.0687 -0.2691
    6CHL1  H23A  430   2.868   6.116   7.918  0.3358  0.2369 -1.6544
    6CHL1  H23B  431   2.918   6.284   7.976 -0.1339  0.0637 -0.3910
    6CHL1   C24  432   3.047   6.180   7.824 -0.0386  0.1444  0.9925
    6CHL1  H24A  433   3.120   6.263   7.835 -1.5662  1.5340  0.9510
    6CHL1  H24B  434   3.104   6.084   7.825 -0.4502 -0.1162  0.1252
    6CHL1   C25  435   2.973   6.194   7.688  0.0533 -0.0217  0.7128
    6CHL1   H25  436   2.922   6.100   7.659  1.0826 -0.8250  1.4602
    6CHL1   C26  437   2.877   6.311   7.681  1.0836 -0.6633 -0.0154
    6CHL1  H26A  438   2.855   6.335   7.574  0.6316  0.6998  0.3607
    6CHL1  H26B  439   2.781   6.285   7.731  2.0476 -3.0839  0.7134
    6CHL1  H26C  440   2.928   6.402   7.719  1.4845 -1.1094  0.5247
    6CHL1   C27  441   3.074   6.208   7.571  0.4661 -0.1203  0.4873
    6CHL1  H27A  442   3.160   6.138   7.578 -1.1958 -2.3688 -0.0509
    6CHL1  H27B  443   3.022   6.180   7.477 -0.4566  1.2101  0.5772
    6CHL1  H27C  444   3.119   6.309   7.571  0.2532 -0.0065  1.6008
    7CHL1    C3  445   4.849   1.514   9.387  0.4008 -0.6008 -1.3231
    7CHL1    H3  446   4.776   1.430   9.395 -0.0679 -0.1093 -0.2784
    7CHL1    O3  447   4.896   1.539   9.521 -0.1500  0.0981  0.7752
    7CHL1   H3'  448   4.944   1.463   9.557 -0.9415  0.6251  3.1680
    7CHL1    C4  449   4.957   1.485   9.297 -0.1315  0.2450  0.1694
    7CHL1   H4A  450   5.023   1.574   9.288  2.2550 -1.5564 -1.1929
    7CHL1   H4B  451   5.011   1.394   9.331 -2.1522 -1.6439 -1.3945
    7CHL1    C5  452   4.912   1.454   9.156 -0.2684  0.0110 -0.3121
    7CHL1    C6  453   4.941   1.335   9.098 -0.0097 -0.7894  0.7243
    7CHL1    H6  454   5.006   1.262   9.147 -0.3031 -1.7194 -0.2274
    7CHL1    C7  455   4.902   1.302   8.952 -0.4753 -0.2165 -0.1711
    7CHL1   H7A  456   4.984   1.250   8.898  0.1299  0.0115  0.5107
    7CHL1   H7B  457   4.813   1.236   8.951 -1.0014  0.3964  1.8502
    7CHL1    C8  458   4.873   1.434   8.870 -0.3752  0.4582 -0.3705
    7CHL1    H8  459   4.972   1.482   8.851  0.7212 -0.8663  1.6079
    7CHL1   C14  460   4.805   1.401   8.735 -0.4676 -0.5422  0.2430
    7CHL1   H14  461   4.708   1.349   8.752 -1.0080 -0.0463 -1.1651
    7CHL1   C15  462   4.870   1.300   8.645  0.5224 -0.2737  0.2862
    7CHL1  H15A  463   4.981   1.311   8.640  0.5425 -0.8896 -1.1696
    7CHL1  H15B  464   4.855   1.197   8.682 -0.2157 -0.3740 -0.2645
    7CHL1   C16  465   4.814   1.333   8.504 -0.2488  0.1793 -0.5253
    7CHL1  H16A  466   4.891   1.352   8.426 -0.6954 -1.1984 -1.3267
    7CHL1  H16B  467   4.751   1.251   8.464 -1.8031  1.7916 -1.5547
    7CHL1   C17  468   4.719   1.457   8.520  0.1762  0.4050  0.8877
    7CHL1   H17  469   4.617   1.417   8.536  0.0909 -0.9446 -2.3045
    7CHL1   C13  470   4.769   1.525   8.654 -0.0024  0.1944 -0.0070
    7CHL1   C18  471   4.892   1.610   8.622  0.4427 -0.6951  0.4153
    7CHL1  H18A  472   4.947   1.649   8.710  1.4391  0.5404 -0.7033
    7CHL1  H18B  473   4.954   1.555   8.547  0.1429  0.2590 -0.5457
    7CHL1  H18C  474   4.856   1.700   8.568  1.7050  0.7607  1.9070
    7CHL1   C12  475   4.657   1.596   8.734  0.3017  0.3486  0.6529
    7CHL1  H12A  476   4.618   1.682   8.675  1.5967 -0.5791 -1.7122
    7CHL1  H12B  477   4.569   1.530   8.748  1.0872 -0.3321  2.6270
    7CHL1   C11  478   4.725   1.639   8.864  0.0687 -0.7396  0.2441
    7CHL1  H11A  479   4.793   1.725   8.845 -2.1076  0.7667 -1.2337
    7CHL1  H11B  480   4.640   1.681   8.923  0.7834 -2.0657  2.3152
    7CHL1    C9  481   4.780   1.525   8.952 -0.4328  0.2283 -0.4146
    7CHL1    H9  482   4.695   1.457   8.973  0.4305 -0.7524  0.0210
    7CHL1   C10  483   4.836   1.568   9.087  0.7650  0.1974 -0.3821
    7CHL1   C19  484   4.928   1.689   9.059 -0.0687 -0.9446  0.0596
    7CHL1  H19A  485   4.878   1.779   9.016  1.5082 -0.2810 -0.4250
    7CHL1  H19B  486   4.973   1.727   9.153 -0.2486  0.3939 -0.3795
    7CHL1  H19C  487   5.009   1.667   8.986  0.1420  1.0159 -0.3434
    7CHL1    C1  488   4.725   1.599   9.184 -0.1989 -0.4511  0.2369
    7CHL1   H1A  489   4.672   1.685   9.138 -0.0439  0.7196  2.1783
    7CHL1   H1B  490   4.656   1.512   9.190 -1.0687  0.2046  0.0246
    7CHL1    C2  491   4.757   1.622   9.334  0.0447 -1.4557  0.0815
    7CHL1   H2A  492   4.667   1.631   9.397  0.0813 -0.6364  0.0338
    7CHL1   H2B  493   4.807   1.721   9.347 -1.3727 -0.8974  1.5913
    7CHL1   C20  494   4.703   1.542   8.384 -0.4126  0.1544 -0.1491
    7CHL1   H20  495   4.798   1.598   8.374 -0.6269  0.6638  0.5867
    7CHL1   C21  496   4.583   1.636   8.393 -0.3375 -0.1931 -0.4521
    7CHL1  H21A  497   4.596   1.708   8.477 -0.8751 -1.5534  0.8479
    7CHL1  H21B  498   4.497   1.570   8.417  2.0808 -2.5187  2.8866
    7CHL1  H21C  499   4.558   1.681   8.295 -0.5406 -1.6569 -1.0905
    7CHL1   C22  500   4.691   1.448   8.257 -0.3802 -0.4886 -0.0970
    7CHL1  H22A  501   4.779   1.381   8.246  1.6800  1.9930  0.2777
    7CHL1  H22B  502   4.599   1.387   8.272 -0.8485  0.0996 -0.5503
    7CHL1   C23  503   4.674   1.515   8.124  0.4568  0.7824  0.2356
    7CHL1  H23A  504   4.576   1.566   8.112 -1.4073 -2.3264  0.9426
    7CHL1  H23B  505   4.764   1.572   8.093  3.0655 -2.9822  0.0815
    7CHL1   C24  506   4.656   1.401   8.016 -0.1001 -0.0114  0.3635
    7CHL1  H24A  507   4.756   1.352   8.010 -0.4768 -1.1091  2.1520
    7CHL1  H24B  508   4.581   1.323   8.043 -0.3671 -0.4161 -1.4286
    7CHL1   C25  509   4.617   1.449   7.875 -0.4125  0.6105  0.0829
    7CHL1   H25  510   4.516   1.495   7.884 -1.3141 -1.5622  1.8090
    7CHL1   C26  511   4.720   1.551   7.833 -0.3187 -0.1079  0.5212
    7CHL1  H26A  512   4.827   1.520   7.836  0.2267  0.7800 -3.7502
    7CHL1  H26B  513   4.699   1.566   7.725 -2.8950 -0.8835  0.8460
    7CHL1  H26C  514   4.715   1.646   7.891  0.3457  0.7110 -0.7123
    7CHL1   C27  515   4.604   1.337   7.764  0.3743  0.3001  0.1230
    7CHL1  H27A  516   4.583   1.396   7.672  0.9807  4.0243  2.1311
    7CHL1  H27B  517   4.704   1.291   7.761  1.1684  1.9353  0.1009
    7CHL1  H27C  518   4.518   1.269   7.783 -0.1265  0.7441 -0.4892
    8CHL1    C3  519   5.691   3.669   9.143 -0.4896  0.3292 -0.1573
    8CHL1    H3  520   5.789   3.635   9.102  0.2283 -0.1474  1.8634
    8CHL1    O3  521   5.678   3.651   9.288  0.3922 -0.2259  0.3248
    8CHL1   H3'  522   5.743   3.714   9.318 -0.0689 -0.7361  2.5439
    8CHL1    C4  523   5.690   3.826   9.112  0.6870  0.1029  0.8520
    8CHL1   H4A  524   5.597   3.867   9.158  1.3905  0.9361  1.5701
    8CHL1   H4B  525   5.763   3.879   9.176 -1.2466  2.1584  1.5213
    8CHL1    C5  526   5.688   3.856   8.966  0.3211  0.1710 -0.3637
    8CHL1    C6  527   5.773   3.943   8.917 -0.4916  1.1818  0.4251
    8CHL1    H6  528   5.824   4.003   8.994 -1.9084  0.7983  1.7251
    8CHL1    C7  529   5.775   3.987   8.774 -0.3591 -0.1787  0.3700
    8CHL1   H7A  530   5.765   4.097   8.787 -1.3599 -0.2226 -0.0053
    8CHL1   H7B  531   5.870   3.967   8.720 -0.8531  0.9768 -0.9976
    8CHL1    C8  532   5.653   3.940   8.691 -0.0482  0.3970  0.1104
    8CHL1    H8  533   5.575   4.011   8.724  1.2133  2.4099 -1.0057
    8CHL1   C14  534   5.677   3.958   8.541  0.3284 -0.6885 -0.6222
    8CHL1   H14  535   5.758   3.887   8.513 -0.5353 -1.2150 -1.8347
    8CHL1   C15  536   5.712   4.101   8.489  0.5633 -0.6291  0.6217
    8CHL1  H15A  537   5.670   4.185   8.547  4.0059  0.3043  2.0413
    8CHL1  H15B  538   5.822   4.111   8.502  0.5668 -1.4852  1.3592
    8CHL1   C16  539   5.661   4.103   8.343  0.6031  0.0020 -0.3207
    8CHL1  H16A  540   5.576   4.174   8.336 -0.8286 -1.5179  0.7798
    8CHL1  H16B  541   5.734   4.134   8.266  1.0698 -1.4412 -0.4798
    8CHL1   C17  542   5.609   3.953   8.322  0.6929 -0.2446  0.3031
    8CHL1   H17  543   5.701   3.895   8.301  2.7813  2.2846  1.8051
    8CHL1   C13  544   5.561   3.902   8.455  0.3067 -0.2344  0.5377
    8CHL1   C18  545   5.431   3.986   8.490  0.3830 -0.3058 -0.0274
    8CHL1  H18A  546   5.352   3.946   8.422 -0.8568 -1.0179  1.7742
    8CHL1  H18B  547   5.387   3.961   8.589 -2.6852 -0.1388 -1.2257
    8CHL1  H18C  548   5.430   4.097   8.481  0.4056 -0.3162 -0.1620
    8CHL1   C12  549   5.542   3.759   8.487 -0.3161  0.3607  0.4091
    8CHL1  H12A  550   5.458   3.723   8.425  0.9746  3.0516 -3.3100
    8CHL1  H12B  551   5.632   3.700   8.460 -0.2326 -1.2958  3.8091
    8CHL1   C11  552   5.504   3.738   8.632  0.5975  0.2187  0.3313
    8CHL1  H11A  553   5.399   3.769   8.648  1.4019  1.9188  2.7678
    8CHL1  H11B  554   5.494   3.628   8.648  0.7035  0.3323  1.2009
    8CHL1    C9  555   5.614   3.799   8.723  0.7520  0.2590  0.0234
    8CHL1    H9  556   5.708   3.745   8.705  0.8036  0.0392  0.9245
    8CHL1   C10  557   5.580   3.781   8.877  0.1316  0.7452  0.2756
    8CHL1   C19  558   5.436   3.846   8.901  0.0556  0.7774 -0.0907
    8CHL1  H19A  559   5.412   3.854   9.010  1.7705  3.1635  0.1997
    8CHL1  H19B  560   5.427   3.955   8.880  0.3368  1.0603  1.1497
    8CHL1  H19C  561   5.362   3.790   8.840  3.1160 -0.8558 -2.5467
    8CHL1    C1  562   5.576   3.622   8.920 -0.3596  0.3456  0.2042
    8CHL1   H1A  563   5.484   3.594   8.865  0.3984  0.5292 -1.2181
    8CHL1   H1B  564   5.669   3.575   8.882 -1.0369 -0.7903 -0.0893
    8CHL1    C2  565   5.572   3.604   9.072 -0.1315  0.0135 -0.2784
    8CHL1   H2A  566   5.576   3.496   9.095  0.1578  0.6258  3.0369
    8CHL1   H2B  567   5.477   3.638   9.117  0.2739 -1.7335  2.0935
    8CHL1   C20  568   5.520   3.938   8.200  0.4402  0.4293 -0.6192
    8CHL1   H20  569   5.411   3.952   8.219 -0.3286 -1.6825 -2.9455
    8CHL1   C21  570   5.535   3.796   8.140  0.0414 -0.7290  0.3927
    8CHL1  H21A  571   5.635   3.777   8.094 -0.2480 -2.5930  0.4669
    8CHL1  H21B  572   5.450   3.774   8.072 -1.8867  3.2542  1.2461
    8CHL1  H21C  573   5.525   3.723   8.223  2.3872 -1.9586 -0.2924
    8CHL1   C22  574   5.556   4.038   8.089 -0.6640  0.0340  0.2688
    8CHL1  H22A  575   5.564   4.144   8.121  0.6928  0.2766 -0.7455
    8CHL1  H22B  576   5.657   4.024   8.044 -0.2434  2.4820  0.3342
    8CHL1   C23  577   5.460   4.039   7.968 -0.3768 -0.4811 -0.3047
    8CHL1  H23A  578   5.469   3.943   7.913 -2.0258  0.0964 -1.6447
    8CHL1  H23B  579   5.357   4.062   8.001  0.2976  1.5813  0.5080
    8CHL1   C24  580   5.510   4.159   7.884 -0.3632 -0.2275 -1.1954
    8CHL1  H24A  581   5.479   4.251   7.938  0.5538 -0.8205  0.4079
    8CHL1  H24B  582   5.620   4.174   7.881 -0.6933  3.1935 -0.6172
    8CHL1   C25  583   5.438   4.173   7.750  0.6749  0.0564  0.5647
    8CHL1   H25  584   5.329   4.192   7.766  1.0948  0.8088  3.0170
    8CHL1   C26  585   5.497   4.277   7.653  0.3595 -0.2641 -0.3306
    8CHL1  H26A  586   5.601   4.251   7.625  0.9978 -1.8347  2.9536
    8CHL1  H26B  587   5.435   4.283   7.561 -1.3785  3.0811  0.8945
    8CHL1  H26C  588   5.490   4.379   7.696  1.4315 -0.9965  1.7711
    8CHL1   C27  589   5.454   4.039   7.672 -0.5550 -0.5305 -0.1308
    8CHL1  H27A  590   5.403   3.952   7.719  0.7625 -0.3179  1.7998
    8CHL1  H27B  591   5.431   4.050   7.564  2.6798  2.5147 -0.6993
    8CHL1  H27C  592   5.562   4.012   7.681 -0.3362  0.0650 -0.9262
    9CHL1    C3  593   3.135   6.461   9.133 -1.1055  0.2356 -1.3257
    9CHL1    H3  594   3.125   6.360   9.088 -1.7972 -0.7247  0.8488
    9CHL1    O3  595   3.128   6.451   9.273 -0.3570  0.1477  0.3798
    9CHL1   H3'  596   3.070   6.375   9.285 -1.6017  0.9068 -0.6102
    9CHL1    C4  597   3.275   6.516   9.097 -0.5660 -0.3548  0.1782
    9CHL1   H4A  598   3.298   6.616   9.140  0.1897 -0.2159 -0.5377
    9CHL1   H4B  599   3.359   6.459   9.142  0.1894 -0.7156 -1.6166
    9CHL1    C5  600   3.292   6.522   8.947  0.3651  0.5319  0.3825
    9CHL1    C6  601   3.391   6.465   8.875  0.5739  0.3758  0.3879
    9CHL1    H6  602   3.466   6.408   8.931 -0.4860 -1.5848 -0.0987
    9CHL1    C7  603   3.404   6.476   8.726  0.1921  0.5960  0.4429
    9CHL1   H7A  604   3.502   6.524   8.703  0.8628 -1.2654 -0.8035
    9CHL1   H7B  605   3.419   6.374   8.684  0.8128  0.1790  1.6448
    9CHL1    C8  606   3.310   6.577   8.658  0.5239 -0.7910  0.4030
    9CHL1    H8  607   3.351   6.678   8.678 -1.2155 -0.1128  0.7162
    9CHL1   C14  608   3.296   6.547   8.509  0.5791  0.3676  0.6908
    9CHL1   H14  609   3.249   6.446   8.504 -1.2818  1.2465 -1.1897
    9CHL1   C15  610   3.430   6.543   8.426 -0.1860  0.3574 -0.0003
    9CHL1  H15A  611   3.492   6.634   8.433  0.4588 -0.0827  0.1435
    9CHL1  H15B  612   3.506   6.466   8.453  0.3256  0.6724 -0.5090
    9CHL1   C16  613   3.374   6.526   8.284  0.3707 -0.1737  0.2991
    9CHL1  H16A  614   3.427   6.606   8.228 -2.1764  1.4289 -0.0070
    9CHL1  H16B  615   3.394   6.427   8.238 -1.2110 -0.3881  0.0082
    9CHL1   C17  616   3.218   6.559   8.288 -0.5325  0.4343 -0.6379
    9CHL1   H17  617   3.171   6.461   8.314  2.7745 -0.9673  0.6425
    9CHL1   C13  618   3.199   6.633   8.426 -0.1449 -0.4902  0.1440
    9CHL1   C18  619   3.246   6.784   8.420 -0.6236  0.7152  0.7181
    9CHL1  H18A  620   3.169   6.840   8.362  1.0258  1.0297 -1.2956
    9CHL1  H18B  621   3.249   6.825   8.523 -1.0913 -0.7555  1.3502
    9CHL1  H18C  622   3.336   6.801   8.358 -0.7699  2.8902  1.0363
    9CHL1   C12  623   3.055   6.616   8.491  0.0303 -0.6557  0.3466
    9CHL1  H12A  624   2.990   6.686   8.434  0.4789 -0.1544  0.4533
    9CHL1  H12B  625   3.014   6.513   8.480  1.3519 -1.0880 -0.7840
    9CHL1   C11  626   3.058   6.649   8.639  0.4008  0.0370 -0.2500
    9CHL1  H11A  627   3.084   6.757   8.647 -0.5999  0.2343  0.4525
    9CHL1  H11B  628   2.959   6.633   8.687 -0.3502  1.5848 -1.2081
    9CHL1    C9  629   3.165   6.568   8.725  0.4176 -0.1544  0.5242
    9CHL1    H9  630   3.136   6.461   8.712  1.2519 -0.2337 -0.9236
    9CHL1   C10  631   3.173   6.589   8.878  1.1062  0.5911  0.1467
    9CHL1   C19  632   3.189   6.736   8.903 -0.0452  0.3185  0.1818
    9CHL1  H19A  633   3.289   6.780   8.882 -0.6507  1.4689 -0.3869
    9CHL1  H19B  634   3.114   6.788   8.840  1.5370 -1.7395 -3.6884
    9CHL1  H19C  635   3.169   6.755   9.011 -3.6581 -0.1988 -0.2702
    9CHL1    C1  636   3.033   6.550   8.928  0.2381 -0.2104  0.3122
    9CHL1   H1A  637   2.971   6.638   8.898  1.4929  0.1942 -1.2595
    9CHL1   H1B  638   3.005   6.460   8.869  1.7254 -0.8318  0.5223
    9CHL1    C2  639   3.025   6.542   9.079  0.3890 -0.3067 -0.0910
    9CHL1   H2A  640   2.926   6.504   9.113 -0.5613  1.4727 -0.7312
    9CHL1   H2B  641   3.034   6.641   9.128  0.0947 -0.3683  0.0919
    9CHL1   C20  642   3.146   6.623   8.170 -0.5611 -0.9565 -0.3729
    9CHL1   H20  643   3.075   6.695   8.216  2.2220 -0.3702  3.5372
    9CHL1   C21  644   3.062   6.514   8.099 -0.4261 -0.8666  0.7638
    9CHL1  H21A  645   3.001   6.464   8.177  0.0646 -1.1694  0.9573
    9CHL1  H21B  646   3.129   6.429   8.077 -0.1618 -0.3307 -0.5829
    9CHL1  H21C  647   3.002   6.556   8.016  1.8473  1.3495  0.1231
    9CHL1   C22  648   3.245   6.704   8.080  0.0706  0.2434 -0.3128
    9CHL1  H22A  649   3.294   6.791   8.130 -1.7350  1.7758 -1.0826
    9CHL1  H22B  650   3.311   6.630   8.030 -1.6549  0.0956 -2.4964
    9CHL1   C23  651   3.183   6.764   7.949 -0.3775  0.6092 -0.7137
    9CHL1  H23A  652   3.265   6.812   7.890 -0.1942 -0.5698 -1.4599
    9CHL1  H23B  653   3.143   6.681   7.887 -1.9013  1.2681 -0.6439
    9CHL1   C24  654   3.069   6.869   7.970 -0.4884 -0.2773  0.4119
    9CHL1  H24A  655   2.975   6.814   7.992 -1.6739  1.1934 -0.7924
    9CHL1  H24B  656   3.091   6.926   8.063 -0.0227  1.3318 -0.6525
    9CHL1   C25  657   3.029   6.962   7.855 -0.2418 -0.0172 -0.1625
    9CHL1   H25  658   3.108   7.024   7.808 -0.0966  0.5411  0.7897
    9CHL1   C26  659   2.975   6.871   7.744 -0.4610  0.7172 -0.5462
    9CHL1  H26A  660   2.935   6.928   7.657 -1.0464  0.0712 -0.7102
    9CHL1  H26B  661   3.051   6.800   7.705 -0.1857  0.2398  0.8073
    9CHL1  H26C  662   2.884   6.818   7.780 -1.1268  1.5015 -1.0250
    9CHL1   C27  663   2.924   7.066   7.887 -0.1840 -0.3616 -0.2645
    9CHL1  H27A  664   2.845   7.001   7.929  1.6661 -2.0857  0.7271
    9CHL1  H27B  665   2.960   7.146   7.956  0.0626 -0.8924  0.2312
    9CHL1  H27C  666   2.883   7.117   7.797  0.0755 -1.0790 -0.7986
   10CHL1    C3  667   0.926   4.422   9.342  0.2215  0.5875  0.0881
   10CHL1    H3  668   0.832   4.362   9.346  1.6314 -2.1528 -2.9481
   10CHL1    O3  669   0.956   4.464   9.476  0.6461  0.5168 -0.4514
   10CHL1   H3'  670   1.047   4.436   9.492 -0.2284 -0.8555  3.1683
   10CHL1    C4  671   1.039   4.332   9.282 -0.2869  0.0531 -0.0895
   10CHL1   H4A  672   1.141   4.368   9.305  0.7400 -2.7603  0.1851
   10CHL1   H4B  673   1.039   4.243   9.348 -1.6489 -0.0792 -0.2307
   10CHL1    C5  674   1.005   4.294   9.132 -0.4851 -0.0820 -0.3690
   10CHL1    C6  675   1.001   4.170   9.079  0.2628  0.3686  0.6190
   10CHL1    H6  676   1.034   4.083   9.137  1.6413  2.1908  2.7371
   10CHL1    C7  677   0.965   4.136   8.938  0.5605 -0.3714 -0.3833
   10CHL1   H7A  678   1.033   4.058   8.898  0.9099  0.4487 -1.4291
   10CHL1   H7B  679   0.856   4.113   8.930  0.1880  0.3777  1.8069
   10CHL1    C8  680   0.993   4.259   8.842 -0.0947  0.0924 -0.4560
   10CHL1    H8  681   1.103   4.269   8.845  0.0679 -1.5050  2.2806
   10CHL1   C14  682   0.931   4.231   8.703 -0.2261  0.8741  0.0724
   10CHL1   H14  683   0.823   4.227   8.726 -0.7678 -1.2307 -2.3780
   10CHL1   C15  684   0.964   4.094   8.634 -0.2586  0.8370 -0.2657
   10CHL1  H15A  685   1.074   4.080   8.646 -0.7083 -2.2316  1.2763
   10CHL1  H15B  686   0.914   4.006   8.678  0.0774  1.0939  0.6480
   10CHL1   C16  687   0.922   4.126   8.493  0.4890 -0.8030 -0.2671
   10CHL1  H16A  688   1.015   4.119   8.433  1.3316  0.6203  0.7934
   10CHL1  H16B  689   0.853   4.049   8.454  0.5021 -1.9260  1.7941
   10CHL1   C17  690   0.882   4.282   8.481  0.4794  0.1575  0.6541
   10CHL1   H17  691   0.772   4.287   8.494  0.2742  0.8563 -1.0258
   10CHL1   C13  692   0.952   4.346   8.609 -0.5828 -0.5155  0.5596
   10CHL1   C18  693   1.108   4.372   8.583 -0.0926  0.1799 -0.4335
   10CHL1  H18A  694   1.120   4.472   8.536  0.9378  1.1681  1.7941
   10CHL1  H18B  695   1.165   4.387   8.677  1.0272 -0.0075 -1.0546
   10CHL1  H18C  696   1.148   4.285   8.526  0.2392 -0.7996  1.2422
   10CHL1   C12  697   0.876   4.462   8.658  0.3799 -0.6523 -0.6867
   10CHL1  H12A  698   0.899   4.550   8.594 -1.4955  0.0654 -0.4212
   10CHL1  H12B  699   0.765   4.458   8.658  0.2888  0.9663  0.6737
   10CHL1   C11  700   0.926   4.493   8.805  0.5415  0.1012  0.3674
   10CHL1  H11A  701   1.034   4.506   8.786  0.3843  1.2634  0.1815
   10CHL1  H11B  702   0.888   4.591   8.840  0.0513  0.0678 -0.0599
   10CHL1    C9  703   0.921   4.376   8.906  0.0620 -0.3279  0.5074
   10CHL1    H9  704   0.814   4.352   8.925 -0.7573  2.6302  0.1827
   10CHL1   C10  705   0.976   4.412   9.041 -0.0958  0.2284 -0.5458
   10CHL1   C19  706   1.115   4.484   9.027 -0.4229 -0.4205  0.2746
   10CHL1  H19A  707   1.185   4.423   8.966 -0.8106 -1.6532  1.0306
   10CHL1  H19B  708   1.096   4.579   8.972  0.6912 -0.5684 -0.3931
   10CHL1  H19C  709   1.161   4.512   9.124  0.6719  1.9243 -0.8319
   10CHL1    C1  710   0.872   4.506   9.105  0.0557  0.6830 -0.0091
   10CHL1   H1A  711   0.859   4.597   9.042 -2.6137  0.4393  0.0614
   10CHL1   H1B  712   0.775   4.452   9.095  0.0486  0.7517 -0.3435
   10CHL1    C2  713   0.902   4.534   9.249  0.1337 -0.1144 -0.7837
   10CHL1   H2A  714   0.821   4.594   9.297 -1.5637 -1.7335 -1.4679
   10CHL1   H2B  715   0.995   4.594   9.260 -0.7375  1.2151 -0.3231
   10CHL1   C20  716   0.917   4.339   8.350 -0.3270 -0.7650 -0.4870
   10CHL1   H20  717   1.027   4.340   8.335 -0.3836  1.3320 -1.1005
   10CHL1   C21  718   0.866   4.489   8.332  0.2628  0.1336  0.1213
   10CHL1  H21A  719   0.837   4.522   8.230  1.3635  0.0662 -0.2321
   10CHL1  H21B  720   0.944   4.560   8.368 -0.6126  1.2924 -0.2118
   10CHL1  H21C  721   0.777   4.501   8.397  2.3787 -0.4912  3.3807
   10CHL1   C22  722   0.858   4.264   8.230  0.5916  0.4103  0.2094
   10CHL1  H22A  723   0.893   4.308   8.134 -1.6594 -0.3169 -1.0319
   10CHL1  H22B  724   0.898   4.160   8.227 -0.8569 -0.1936 -2.7002
   10CHL1   C23  725   0.703   4.251   8.221 -0.3578 -0.5927  0.0061
   10CHL1  H23A  726   0.669   4.202   8.315  0.0396  1.5822  1.3651
   10CHL1  H23B  727   0.652   4.347   8.203 -1.1616 -0.8914  0.6170
   10CHL1   C24  728   0.656   4.167   8.101 -0.5853  0.6604 -0.0513
   10CHL1  H24A  729   0.698   4.066   8.120  0.4325  0.8880 -1.0169
   10CHL1  H24B  730   0.545   4.158   8.102 -0.6419 -0.0454 -3.1243
   10CHL1   C25  731   0.706   4.222   7.957  0.5209 -0.3280  0.5083
   10CHL1   H25  732   0.814   4.248   7.959  0.3800  0.2480  0.6074
   10CHL1   C26  733   0.704   4.105   7.856 -0.6263 -0.1385  0.2024
   10CHL1  H26A  734   0.721   4.134   7.750 -0.3513  0.3094  0.3642
   10CHL1  H26B  735   0.789   4.033   7.866  1.3810  1.7892 -1.7941
   10CHL1  H26C  736   0.611   4.045   7.855 -0.9697  0.3963 -0.1157
   10CHL1   C27  737   0.629   4.343   7.906  0.3783 -0.2063  0.7957
   10CHL1  H27A  738   0.649   4.377   7.802 -2.6404 -0.3456  0.0608
   10CHL1  H27B  739   0.521   4.318   7.899  0.0742  0.2579  3.0382
   10CHL1  H27C  740   0.639   4.433   7.969 -0.5383  1.4497 -1.2908
   11CHL1    C3  741   2.524   1.087   9.249  0.5488 -0.5100 -0.2815
   11CHL1    H3  742   2.459   1.161   9.199  0.0861 -1.9630 -1.9127
   11CHL1    O3  743   2.525   1.095   9.393 -0.4748  0.0735  0.1678
   11CHL1   H3'  744   2.580   1.018   9.412  0.3845  1.0412  1.7724
   11CHL1    C4  745   2.469   0.955   9.191  0.2000 -1.0584 -0.6721
   11CHL1   H4A  746   2.527   0.871   9.234  4.0061  2.0369  0.8134
   11CHL1   H4B  747   2.364   0.952   9.229 -0.2283  1.9222 -1.3594
   11CHL1    C5  748   2.468   0.947   9.042  0.2674 -0.3862  0.1175
   11CHL1    C6  749   2.351   0.919   8.983 -0.5755  0.1083 -0.0684
   11CHL1    H6  750   2.264   0.894   9.045 -0.8450 -0.7736 -0.7728
   11CHL1    C7  751   2.337   0.896   8.835  0.4479  0.1945 -0.0262
   11CHL1   H7A  752   2.279   0.803   8.817 -0.8980  0.7742  1.0980
   11CHL1   H7B  753   2.279   0.979   8.789  0.6399 -0.0758 -0.7692
   11CHL1    C8  754   2.478   0.892   8.769  0.2049  0.3534 -0.3111
   11CHL1    H8  755   2.512   0.788   8.788  0.3867  0.3141 -0.8224
   11CHL1   C14  756   2.465   0.908   8.617 -0.3018 -0.0735 -0.1276
   11CHL1   H14  757   2.435   1.015   8.619 -0.0474  0.0320  2.6625
   11CHL1   C15  758   2.368   0.823   8.544 -0.3498 -0.6300 -0.9086
   11CHL1  H15A  759   2.390   0.719   8.575  1.2253 -0.0707  0.0148
   11CHL1  H15B  760   2.265   0.848   8.577  1.1204  0.2619  3.8877
   11CHL1   C16  761   2.396   0.846   8.391 -0.2065 -0.0781  0.1548
   11CHL1  H16A  762   2.415   0.750   8.339 -1.3565  0.0328 -0.5126
   11CHL1  H16B  763   2.308   0.896   8.345 -0.6665 -1.3171 -0.3563
   11CHL1   C17  764   2.524   0.934   8.389  0.6475 -0.3420 -0.0981
   11CHL1   H17  765   2.491   1.038   8.368  0.3290 -0.6376 -1.1476
   11CHL1   C13  766   2.593   0.926   8.530  0.1755 -0.0103 -0.6565
   11CHL1   C18  767   2.673   0.789   8.527 -0.1491 -0.3915 -0.5911
   11CHL1  H18A  768   2.613   0.706   8.485 -0.4482 -0.0530 -0.8421
   11CHL1  H18B  769   2.765   0.800   8.467  1.4467 -1.5012  1.5181
   11CHL1  H18C  770   2.695   0.768   8.634 -0.4415  2.4296  0.1199
   11CHL1   C12  771   2.674   1.034   8.593 -0.0698  0.3838  0.4843
   11CHL1  H12A  772   2.771   1.039   8.538 -0.5593  0.3597 -0.4147
   11CHL1  H12B  773   2.632   1.131   8.558  2.2924  0.9240 -1.1257
   11CHL1   C11  774   2.707   1.017   8.738 -0.2281  0.1569 -0.0370
   11CHL1  H11A  775   2.772   0.928   8.749  2.2112  1.9430  0.7782
   11CHL1  H11B  776   2.779   1.092   8.775  1.2784 -0.6515 -1.1976
   11CHL1    C9  777   2.571   0.999   8.821 -0.2343 -0.4745 -0.4761
   11CHL1    H9  778   2.518   1.096   8.808 -2.6060 -1.4991  0.9463
   11CHL1   C10  779   2.601   0.988   8.973  0.2462  0.7434 -0.1876
   11CHL1   C19  780   2.712   0.884   8.989 -0.9188  0.3024  0.0355
   11CHL1  H19A  781   2.808   0.925   8.951 -1.4919 -0.6718 -2.7161
   11CHL1  H19B  782   2.736   0.859   9.094  1.5946 -1.3364 -0.8359
   11CHL1  H19C  783   2.690   0.791   8.932  0.7032 -1.2763  1.8248
   11CHL1    C1  784   2.657   1.124   9.037 -0.2964  1.2526 -0.5314
   11CHL1   H1A  785   2.758   1.144   8.996 -0.3974  0.9000 -0.9574
   11CHL1   H1B  786   2.603   1.213   8.998 -0.7500 -0.1079 -3.2436
   11CHL1    C2  787   2.665   1.119   9.195  0.2846  0.4366 -0.4678
   11CHL1   H2A  788   2.711   1.206   9.245 -0.3566  0.7145 -0.3489
   11CHL1   H2B  789   2.734   1.035   9.220 -1.1082 -0.7139 -0.3492
   11CHL1   C20  790   2.606   0.902   8.263 -0.6816  0.5324  1.2922
   11CHL1   H20  791   2.658   0.805   8.279 -3.8251 -1.7873 -1.0834
   11CHL1   C21  792   2.710   1.017   8.249  0.4164  0.9082  0.1414
   11CHL1  H21A  793   2.771   0.992   8.160 -1.4243 -1.2489 -0.6244
   11CHL1  H21B  794   2.768   1.018   8.343  1.0824  0.5825 -0.2592
   11CHL1  H21C  795   2.657   1.115   8.248 -1.8166 -0.2116  1.0356
   11CHL1   C22  796   2.511   0.884   8.138 -1.0749  0.0696 -0.0667
   11CHL1  H22A  797   2.460   0.785   8.130  0.5122 -0.7961 -0.0164
   11CHL1  H22B  798   2.426   0.955   8.145 -2.1357 -1.1921  0.3191
   11CHL1   C23  799   2.578   0.899   8.000  0.4161 -0.4317  0.6934
   11CHL1  H23A  800   2.599   1.006   7.981  0.1582 -0.2999  1.1299
   11CHL1  H23B  801   2.674   0.843   8.005  1.2149  0.4095 -2.7919
   11CHL1   C24  802   2.509   0.832   7.879  0.7266 -0.3165 -0.3984
   11CHL1  H24A  803   2.480   0.725   7.887  1.8731 -0.6937 -1.0934
   11CHL1  H24B  804   2.409   0.879   7.866  0.2819 -0.4405  2.1270
   11CHL1   C25  805   2.588   0.858   7.753  0.1024  0.8678  0.8079
   11CHL1   H25  806   2.694   0.830   7.771 -0.2088 -1.3894 -0.4886
   11CHL1   C26  807   2.553   0.755   7.642  0.1127 -0.6300 -0.2336
   11CHL1  H26A  808   2.581   0.651   7.671 -0.4718 -0.5055  0.7998
   11CHL1  H26B  809   2.443   0.763   7.628 -0.1881  0.5295  2.2613
   11CHL1  H26C  810   2.595   0.788   7.544  0.3239 -2.1787 -0.6920
   11CHL1   C27  811   2.570   1.008   7.701 -0.8572 -0.0532  0.3194
   11CHL1  H27A  812   2.464   1.021   7.668 -0.4686  0.5129 -0.7577
   11CHL1  H27B  813   2.605   1.079   7.779 -0.3395  1.3116 -1.0831
   11CHL1  H27C  814   2.642   1.022   7.618  0.5877 -1.4942  1.2653
   12CHL1    C3  815   0.499   2.740   9.391  0.2864 -0.2289  0.1784
   12CHL1    H3  816   0.478   2.845   9.420 -0.7651  0.5912 -3.0550
   12CHL1    O3  817   0.555   2.661   9.495  0.4693 -0.2881  0.5083
   12CHL1   H3'  818   0.644   2.689   9.515  0.3971 -0.1454  0.6307
   12CHL1    C4  819   0.359   2.685   9.359 -1.0565 -0.2039 -0.1562
   12CHL1   H4A  820   0.361   2.574   9.355  2.2554 -0.2382 -0.5341
   12CHL1   H4B  821   0.288   2.700   9.443 -1.4986 -0.0795 -0.5429
   12CHL1    C5  822   0.308   2.737   9.227  0.7187  0.7546  0.1247
   12CHL1    C6  823   0.188   2.789   9.215 -0.2209  0.2024 -0.7003
   12CHL1    H6  824   0.123   2.798   9.304  2.5730  0.0576  1.4938
   12CHL1    C7  825   0.131   2.824   9.083  0.5298  0.0507 -0.0663
   12CHL1   H7A  826   0.024   2.794   9.076  0.2472  0.5501  1.5838
   12CHL1   H7B  827   0.130   2.935   9.074 -3.3732  0.2257  0.6816
   12CHL1    C8  828   0.201   2.779   8.949  0.2923 -0.4197  0.1829
   12CHL1    H8  829   0.169   2.672   8.955  0.5900 -0.6508 -1.5589
   12CHL1   C14  830   0.152   2.853   8.824 -0.8088  0.4280 -0.4298
   12CHL1   H14  831   0.188   2.957   8.841  1.2024 -0.3013  0.0427
   12CHL1   C15  832  -0.003   2.848   8.788 -0.6353 -0.3649  0.0174
   12CHL1  H15A  833  -0.037   2.745   8.811  0.3903 -0.3610  1.6833
   12CHL1  H15B  834  -0.073   2.920   8.836 -1.3290 -0.2300 -1.1432
   12CHL1   C16  835   0.006   2.884   8.637  0.5543 -0.0810  0.2626
   12CHL1  H16A  836  -0.059   2.805   8.594 -0.4673 -0.2010  1.9053
   12CHL1  H16B  837  -0.028   2.989   8.621 -2.0968 -0.9195 -0.1860
   12CHL1   C17  838   0.151   2.866   8.583 -0.2493  0.0019 -0.0809
   12CHL1   H17  839   0.196   2.967   8.585 -0.1558 -0.0297 -0.4633
   12CHL1   C13  840   0.218   2.794   8.697 -0.9915 -0.4730  0.0371
   12CHL1   C18  841   0.197   2.645   8.686  0.6006 -0.1287  0.5849
   12CHL1  H18A  842   0.215   2.583   8.776 -1.0343  1.4498  2.0862
   12CHL1  H18B  843   0.089   2.627   8.666  0.6581 -0.4538  0.5609
   12CHL1  H18C  844   0.262   2.612   8.602  0.6816 -0.5441  0.8087
   12CHL1   C12  845   0.366   2.823   8.721 -0.1295 -0.2161  0.4582
   12CHL1  H12A  846   0.433   2.789   8.639 -1.0481 -0.3540 -0.2452
   12CHL1  H12B  847   0.384   2.933   8.726  1.2005 -0.4753  2.0305
   12CHL1   C11  848   0.423   2.757   8.841 -0.2542  0.8463 -0.3334
   12CHL1  H11A  849   0.421   2.647   8.821 -0.1872  1.0064 -1.2587
   12CHL1  H11B  850   0.527   2.795   8.854 -0.2034 -0.0378  2.6948
   12CHL1    C9  851   0.343   2.792   8.970  0.6181 -0.7721 -0.2333
   12CHL1    H9  852   0.368   2.900   8.980  0.5349 -0.7501 -0.2630
   12CHL1   C10  853   0.397   2.720   9.102  0.4043  0.2884 -0.8067
   12CHL1   C19  854   0.414   2.565   9.067  0.7672  0.6580 -0.0012
   12CHL1  H19A  855   0.492   2.536   8.992 -0.2462  0.6465 -1.0814
   12CHL1  H19B  856   0.430   2.499   9.154  1.3982 -0.8839 -1.2297
   12CHL1  H19C  857   0.319   2.524   9.028  1.4754 -2.9514  1.6875
   12CHL1    C1  858   0.538   2.778   9.136 -0.2372  0.0716  0.1446
   12CHL1   H1A  859   0.621   2.767   9.062 -0.7072  0.3565 -0.4355
   12CHL1   H1B  860   0.531   2.888   9.150 -0.5842 -0.2927  3.4575
   12CHL1    C2  861   0.595   2.731   9.267  0.4629 -0.5189 -1.0410
   12CHL1   H2A  862   0.694   2.776   9.291  0.0133 -0.2219  0.2959
   12CHL1   H2B  863   0.616   2.622   9.257  2.9249 -0.1093 -1.1673
   12CHL1   C20  864   0.155   2.804   8.442 -0.1084  0.3307  0.1394
   12CHL1   H20  865   0.126   2.697   8.449  3.2947 -0.7574 -0.4725
   12CHL1   C21  866   0.299   2.815   8.395 -0.0207 -0.7747 -0.1790
   12CHL1  H21A  867   0.310   2.761   8.299  1.9890 -1.5473  0.4380
   12CHL1  H21B  868   0.384   2.773   8.452  1.8060  2.9339  0.1204
   12CHL1  H21C  869   0.325   2.920   8.370  1.6852 -0.7014  1.6038
   12CHL1   C22  870   0.061   2.870   8.334  0.3121  0.0628 -0.3200
   12CHL1  H22A  871  -0.037   2.868   8.387  0.1492 -1.0883 -0.6268
   12CHL1  H22B  872   0.095   2.972   8.310  1.1873 -0.0382  0.4586
   12CHL1   C23  873   0.046   2.793   8.205  0.1920  1.1578  0.1147
   12CHL1  H23A  874   0.143   2.790   8.152  0.8426 -0.4256  1.3550
   12CHL1  H23B  875   0.010   2.689   8.222  1.1169  0.7070 -0.6180
   12CHL1   C24  876  -0.055   2.852   8.111  0.0874  0.2980 -0.3910
   12CHL1  H24A  877  -0.157   2.850   8.155 -1.0039  3.4254 -2.4325
   12CHL1  H24B  878  -0.023   2.958   8.101 -1.5377  0.9708  0.9362
   12CHL1   C25  879  -0.067   2.795   7.975  0.0059 -0.1596 -0.1485
   12CHL1   H25  880  -0.054   2.685   7.986  0.4884 -0.0870  0.0264
   12CHL1   C26  881  -0.205   2.819   7.906  0.0493  0.9224  0.2587
   12CHL1  H26A  882  -0.222   2.928   7.895  1.4778  0.9467 -3.0727
   12CHL1  H26B  883  -0.207   2.772   7.805 -0.1743  0.3105  0.5398
   12CHL1  H26C  884  -0.287   2.781   7.970 -0.3690 -1.0918 -1.3550
   12CHL1   C27  885   0.042   2.846   7.876 -0.3725 -0.2336  0.3854
   12CHL1  H27A  886   0.140   2.801   7.903  0.4717  1.9318  1.1185
   12CHL1  H27B  887   0.016   2.821   7.771 -0.4105  0.8230  0.1379
   12CHL1  H27C  888   0.045   2.956   7.885 -1.2582 -0.0438 -1.2580
   13CHL1    C3  889   6.152   4.224   9.298 -1.2440  1.0609 -0.2802
   13CHL1    H3  890   6.199   4.317   9.336  0.8144 -0.7373  1.9332
   13CHL1    O3  891   6.119   4.135   9.405  0.4853  1.0872 -0.2703
   13CHL1   H3'  892   6.181   4.063   9.388 -1.7500 -0.3570 -3.1411
   13CHL1    C4  893   6.018   4.254   9.230  0.1706  0.0700  0.0825
   13CHL1   H4A  894   5.959   4.162   9.210  0.4898  0.0041 -0.5847
   13CHL1   H4B  895   5.971   4.319   9.307  2.3852  0.2498  1.3646
   13CHL1    C5  896   6.035   4.321   9.096  0.2869 -0.1773  0.3270
   13CHL1    C6  897   5.964   4.429   9.065 -0.1755 -0.4981 -0.0382
   13CHL1    H6  898   5.901   4.480   9.139 -0.7536  0.9713 -1.4833
   13CHL1    C7  899   5.960   4.492   8.925 -0.4410 -0.2337 -0.1401
   13CHL1   H7A  900   5.851   4.489   8.907 -0.6760 -0.5445  1.2426
   13CHL1   H7B  901   5.996   4.594   8.950  0.7426 -0.6250 -0.1464
   13CHL1    C8  902   6.037   4.414   8.818  0.6395 -0.4156  0.2785
   13CHL1    H8  903   5.975   4.332   8.779  0.7769 -0.3418 -0.1007
   13CHL1   C14  904   6.073   4.511   8.709 -0.7840  0.7784  0.2642
   13CHL1   H14  905   6.138   4.589   8.753 -2.9305  2.0446  1.2921
   13CHL1   C15  906   5.966   4.600   8.639  0.1472  0.5965 -0.8336
   13CHL1  H15A  907   5.873   4.544   8.617  0.4863 -0.3273  0.0194
   13CHL1  H15B  908   5.936   4.684   8.705 -1.6203 -1.3040  0.9202
   13CHL1   C16  909   6.034   4.653   8.515 -0.0100 -0.1413  0.2407
   13CHL1  H16A  910   5.985   4.622   8.421  1.4679 -2.0773  0.0444
   13CHL1  H16B  911   6.049   4.763   8.515 -0.0562 -0.1122  1.6625
   13CHL1   C17  912   6.179   4.585   8.511  0.7124  0.0546 -0.3080
   13CHL1   H17  913   6.249   4.647   8.572 -0.5194  0.3275  0.8895
   13CHL1   C13  914   6.158   4.455   8.596  0.0427  0.2636 -0.4282
   13CHL1   C18  915   6.076   4.350   8.521 -0.5710 -0.0415  0.0972
   13CHL1  H18A  916   6.065   4.259   8.584  0.8510 -1.0594 -1.0690
   13CHL1  H18B  917   5.981   4.392   8.482 -0.0812 -0.0137 -1.0984
   13CHL1  H18C  918   6.112   4.310   8.424 -2.4330  1.6769 -1.4023
   13CHL1   C12  919   6.285   4.402   8.663 -0.5727  0.0843 -0.1875
   13CHL1  H12A  920   6.344   4.345   8.588  0.8785  0.3535  0.7091
   13CHL1  H12B  921   6.344   4.489   8.699  0.5572  0.1630 -2.1008
   13CHL1   C11  922   6.263   4.297   8.777  0.3295  0.1366 -0.4449
   13CHL1  H11A  923   6.208   4.216   8.725  0.1867  0.0067 -0.0902
   13CHL1  H11B  924   6.363   4.271   8.818 -1.3396  0.2628  4.2323
   13CHL1    C9  925   6.162   4.353   8.884 -0.0227 -0.2887 -0.0227
   13CHL1    H9  926   6.216   4.435   8.936  0.3125 -0.0770 -0.6946
   13CHL1   C10  927   6.127   4.255   8.999 -0.2109 -0.4734 -0.3883
   13CHL1   C19  928   6.061   4.125   8.938 -0.1695 -0.7100 -0.2489
   13CHL1  H19A  929   6.042   4.049   9.017 -3.1561 -1.8156 -1.8766
   13CHL1  H19B  930   5.969   4.148   8.881 -0.5602 -0.2336  0.5630
   13CHL1  H19C  931   6.134   4.071   8.874  0.2483 -0.9564  0.4153
   13CHL1    C1  932   6.267   4.224   9.074 -0.2928  0.7435 -0.2220
   13CHL1   H1A  933   6.342   4.179   9.006 -1.5862 -0.7496 -0.7131
   13CHL1   H1B  934   6.314   4.320   9.104 -1.1414  0.6736  1.4098
   13CHL1    C2  935   6.250   4.150   9.207  0.3639  0.4865  0.3645
   13CHL1   H2A  936   6.345   4.119   9.255  1.6049  1.3525 -1.4105
   13CHL1   H2B  937   6.205   4.050   9.188  1.4247 -0.0186  0.4366
   13CHL1   C20  938   6.247   4.564   8.374  0.1052  0.1818  0.9572
   13CHL1   H20  939   6.318   4.479   8.369 -0.6539 -0.4825 -4.5293
   13CHL1   C21  940   6.335   4.697   8.356 -0.2140 -0.3924 -0.5294
   13CHL1  H21A  941   6.416   4.704   8.432  0.4859  0.8184 -1.3724
   13CHL1  H21B  942   6.262   4.780   8.353 -0.2956 -0.4932 -1.6794
   13CHL1  H21C  943   6.386   4.690   8.258  0.3366 -2.2084 -0.1548
   13CHL1   C22  944   6.155   4.554   8.247  0.0064 -0.3276  0.3801
   13CHL1  H22A  945   6.081   4.471   8.260  1.2018 -1.6350 -0.7555
   13CHL1  H22B  946   6.092   4.642   8.222  1.3898  0.2962 -1.1161
   13CHL1   C23  947   6.225   4.523   8.113 -0.2081  0.5849 -0.7100
   13CHL1  H23A  948   6.332   4.552   8.112 -0.0260  0.0548  0.9016
   13CHL1  H23B  949   6.237   4.413   8.103  2.2589  0.7463 -0.0056
   13CHL1   C24  950   6.146   4.567   7.984 -0.4171 -0.4124 -0.1869
   13CHL1  H24A  951   6.162   4.677   7.979 -1.6329 -0.2705 -1.9131
   13CHL1  H24B  952   6.195   4.532   7.891  0.5331  1.5927 -0.5000
   13CHL1   C25  953   6.003   4.525   7.965 -0.1391 -0.4220 -0.4207
   13CHL1   H25  954   5.937   4.563   8.046  0.7302  0.8076 -0.2481
   13CHL1   C26  955   5.950   4.579   7.831 -0.6319  0.3507 -0.2210
   13CHL1  H26A  956   6.018   4.561   7.745 -1.9309  1.3529 -1.4982
   13CHL1  H26B  957   5.853   4.529   7.811 -1.2023  0.2513  2.3602
   13CHL1  H26C  958   5.945   4.690   7.824  2.4605  0.6763  1.1034
   13CHL1   C27  959   5.998   4.372   7.966  0.5194  0.4708  0.2453
   13CHL1  H27A  960   6.040   4.334   8.062  0.7296  0.3914  0.1249
   13CHL1  H27B  961   5.893   4.339   7.957  1.1163 -1.5294  0.1367
   13CHL1  H27C  962   6.043   4.326   7.875 -1.9764  0.5339 -1.1067
   14CHL1    C3  963   4.399   0.766   9.454  0.2812  0.9790 -0.8832
   14CHL1    H3  964   4.508   0.750   9.464  0.1551  0.9327  0.7817
   14CHL1    O3  965   4.337   0.775   9.581  0.3807  0.2375 -0.1694
   14CHL1   H3'  966   4.346   0.869   9.599  0.3356 -0.0580  1.5647
   14CHL1    C4  967   4.371   0.894   9.381 -0.3136 -0.0685 -0.6487
   14CHL1   H4A  968   4.261   0.900   9.370 -0.3245  3.3484  0.3261
   14CHL1   H4B  969   4.403   0.976   9.447 -3.9579  1.1768 -0.2226
   14CHL1    C5  970   4.446   0.896   9.246  0.4479 -0.2492 -0.5596
   14CHL1    C6  971   4.542   0.988   9.221 -0.3744  0.5491 -0.6932
   14CHL1    H6  972   4.545   1.067   9.298 -1.1058  2.6423 -2.6811
   14CHL1    C7  973   4.600   1.005   9.082 -0.5200  0.1611  0.2046
   14CHL1   H7A  974   4.590   1.109   9.043  1.0548 -0.3155 -1.6452
   14CHL1   H7B  975   4.707   0.974   9.078 -0.2531  1.1245 -1.8440
   14CHL1    C8  976   4.527   0.919   8.969  0.7477  0.1869 -0.2077
   14CHL1    H8  977   4.430   0.970   8.956  0.2831 -0.4298  0.6912
   14CHL1   C14  978   4.605   0.904   8.844  0.0218 -1.1573  0.4892
   14CHL1   H14  979   4.693   0.839   8.863 -0.0995 -1.3073  0.5430
   14CHL1   C15  980   4.655   1.034   8.790 -0.0558 -0.5752  0.0812
   14CHL1  H15A  981   4.572   1.103   8.817 -0.1295 -0.7054  0.1913
   14CHL1  H15B  982   4.752   1.075   8.824 -0.2308  1.3143 -1.5286
   14CHL1   C16  983   4.667   1.006   8.640 -0.2309 -0.1881 -0.3242
   14CHL1  H16A  984   4.596   1.072   8.586 -0.8095  0.6173  1.3298
   14CHL1  H16B  985   4.769   1.020   8.599  0.4232 -1.5050  0.7560
   14CHL1   C17  986   4.634   0.856   8.620 -0.1463  0.1422  0.4166
   14CHL1   H17  987   4.733   0.806   8.634  0.1575  0.4909 -0.4148
   14CHL1   C13  988   4.539   0.829   8.733  0.0125 -0.8659 -0.3179
   14CHL1   C18  989   4.395   0.881   8.700  0.1823 -0.0156  0.7386
   14CHL1  H18A  990   4.395   0.981   8.651  0.8996 -0.7942 -0.9519
   14CHL1  H18B  991   4.341   0.806   8.638  1.3156  0.8115 -1.3460
   14CHL1  H18C  992   4.343   0.902   8.795  1.3382 -1.0031  1.6251
   14CHL1   C12  993   4.532   0.691   8.788 -0.2837  0.3019  0.0406
   14CHL1  H12A  994   4.482   0.629   8.711 -0.1630  0.8251 -0.4641
   14CHL1  H12B  995   4.636   0.654   8.799  0.5189  2.7315  1.2561
   14CHL1   C11  996   4.450   0.679   8.917 -0.3501 -0.9003  0.3585
   14CHL1  H11A  997   4.345   0.688   8.881 -0.1523 -0.5103 -0.1414
   14CHL1  H11B  998   4.462   0.576   8.956 -1.6633 -1.4253 -0.5234
   14CHL1    C9  999   4.490   0.783   9.025  0.0433  0.6658 -0.1089
   14CHL1    H9 1000   4.587   0.742   9.061 -0.6303 -1.2411 -0.3454
   14CHL1   C10 1001   4.395   0.787   9.148  0.1749  0.9379  0.3986
   14CHL1   C19 1002   4.252   0.820   9.101 -0.4775  0.1242 -0.0530
   14CHL1  H19A 1003   4.209   0.734   9.046 -0.5407  0.7904 -1.0790
   14CHL1  H19B 1004   4.177   0.841   9.181 -1.9253  0.0423 -1.3477
   14CHL1  H19C 1005   4.244   0.904   9.029  0.3465 -0.9090 -1.3917
   14CHL1    C1 1006   4.395   0.650   9.227  0.8127  0.5021  0.2985
   14CHL1   H1A 1007   4.349   0.573   9.161  1.9420 -0.8432  1.0114
   14CHL1   H1B 1008   4.501   0.622   9.246  0.7926  0.1193 -0.1504
   14CHL1    C2 1009   4.333   0.657   9.373  0.5254  0.2962  1.1519
   14CHL1   H2A 1010   4.352   0.559   9.422  0.0721 -1.1387 -1.3601
   14CHL1   H2B 1011   4.224   0.678   9.372  0.5878  0.8076 -1.2678
   14CHL1   C20 1012   4.585   0.828   8.476 -0.1492  0.6191 -0.0911
   14CHL1   H20 1013   4.479   0.861   8.477  0.2356  1.8982  0.3164
   14CHL1   C21 1014   4.579   0.675   8.464  0.3005 -1.1699 -0.2920
   14CHL1  H21A 1015   4.556   0.651   8.358  1.6269 -0.4456 -0.7775
   14CHL1  H21B 1016   4.498   0.628   8.523 -1.8840  2.2142 -0.3526
   14CHL1  H21C 1017   4.675   0.622   8.484  1.0049  0.3545  0.4689
   14CHL1   C22 1018   4.660   0.898   8.360 -0.3230  0.4168  0.2430
   14CHL1  H22A 1019   4.691   1.000   8.392  1.6247 -0.2080  0.4962
   14CHL1  H22B 1020   4.750   0.839   8.333 -1.3447 -0.6930 -0.8312
   14CHL1   C23 1021   4.576   0.914   8.234  0.0714 -0.2643 -1.3883
   14CHL1  H23A 1022   4.539   0.813   8.207 -1.3361 -0.8171  2.1400
   14CHL1  H23B 1023   4.484   0.970   8.257  0.2977 -0.5948  0.5186
   14CHL1   C24 1024   4.654   0.966   8.110 -0.4191  0.0530 -0.5796
   14CHL1  H24A 1025   4.692   1.069   8.124 -1.3171  0.4298 -0.8688
   14CHL1  H24B 1026   4.736   0.890   8.104 -0.6445 -0.4144  1.4656
   14CHL1   C25 1027   4.558   0.948   7.987 -1.1949  0.4152  0.2030
   14CHL1   H25 1028   4.519   0.844   7.978 -0.0693  0.0866 -1.2130
   14CHL1   C26 1029   4.440   1.039   7.989  0.8241 -0.0161  0.1894
   14CHL1  H26A 1030   4.385   1.027   7.894  1.0113  0.6415 -0.0069
   14CHL1  H26B 1031   4.380   1.018   8.079  1.2728 -1.6546  0.1376
   14CHL1  H26C 1032   4.470   1.146   7.989  2.1471 -0.3636  0.0340
   14CHL1   C27 1033   4.641   0.970   7.864 -0.1741 -0.0008  0.9246
   14CHL1  H27A 1034   4.582   0.975   7.770  2.8832  1.5032 -1.0931
   14CHL1  H27B 1035   4.676   1.075   7.868  0.9527 -0.1037 -2.6798
   14CHL1  H27C 1036   4.732   0.909   7.846  0.6563  1.3556  0.3577
   15CHL1    C3 1037   3.975   0.399   9.385 -0.3406  0.3976  0.5003
   15CHL1    H3 1038   3.966   0.510   9.380  0.6577  0.5059  0.8919
   15CHL1    O3 1039   3.967   0.341   9.517  0.0509 -0.0409  0.2049
   15CHL1   H3' 1040   3.980   0.247   9.506  0.8026  0.2323 -1.5189
   15CHL1    C4 1041   3.855   0.343   9.301  1.0370 -1.2401 -0.2180
   15CHL1   H4A 1042   3.861   0.232   9.308 -0.7640 -1.3069  4.9109
   15CHL1   H4B 1043   3.761   0.370   9.355  1.9978 -1.4918  1.6630
   15CHL1    C5 1044   3.854   0.390   9.150  0.3096  0.8348 -0.0899
   15CHL1    C6 1045   3.750   0.452   9.093  0.1993  0.5095 -0.4318
   15CHL1    H6 1046   3.655   0.456   9.148  0.1253  2.5923 -0.6286
   15CHL1    C7 1047   3.753   0.500   8.949  0.1360  0.3931 -0.0567
   15CHL1   H7A 1048   3.660   0.457   8.906  1.7112 -2.3755 -0.9187
   15CHL1   H7B 1049   3.753   0.611   8.936  0.4420  0.1046 -3.0141
   15CHL1    C8 1050   3.867   0.446   8.864 -0.5132  1.2636 -0.3533
   15CHL1    H8 1051   3.856   0.339   8.837 -2.6631  1.4935 -0.5656
   15CHL1   C14 1052   3.883   0.522   8.736 -0.0287  0.7444  0.8048
   15CHL1   H14 1053   3.912   0.624   8.770 -1.0776  0.8130  1.5248
   15CHL1   C15 1054   3.767   0.536   8.642  0.5850  0.7164 -0.5696
   15CHL1  H15A 1055   3.732   0.431   8.632  1.1965  0.4067  0.3876
   15CHL1  H15B 1056   3.678   0.585   8.688 -1.0070 -2.1581 -0.3094
   15CHL1   C16 1057   3.824   0.567   8.508 -0.1758  0.0704  0.7529
   15CHL1  H16A 1058   3.792   0.489   8.436  1.6611 -0.9874  1.0177
   15CHL1  H16B 1059   3.790   0.665   8.466  0.4095  0.5791  1.4343
   15CHL1   C17 1060   3.981   0.565   8.525 -0.0304 -0.1718 -0.0191
   15CHL1   H17 1061   4.017   0.659   8.572 -0.6152 -0.0455  0.1894
   15CHL1   C13 1062   4.000   0.472   8.642 -0.6458  0.7284 -0.2252
   15CHL1   C18 1063   3.980   0.329   8.595  0.3403  0.2316 -0.4487
   15CHL1  H18A 1064   4.074   0.292   8.549 -0.4191  0.5483 -2.3359
   15CHL1  H18B 1065   3.964   0.257   8.679 -0.9942  0.7839 -0.2054
   15CHL1  H18C 1066   3.910   0.309   8.511  1.1512 -3.1552 -0.4591
   15CHL1   C12 1067   4.131   0.483   8.725  0.1494 -0.6708 -0.1245
   15CHL1  H12A 1068   4.214   0.438   8.666 -0.7825 -0.5692 -1.5732
   15CHL1  H12B 1069   4.166   0.586   8.748  1.0169 -0.4130 -2.3529
   15CHL1   C11 1070   4.119   0.424   8.868  0.6770  0.0879 -0.7167
   15CHL1  H11A 1071   4.113   0.317   8.839 -3.2069  0.2301 -0.8587
   15CHL1  H11B 1072   4.215   0.442   8.922  0.4533  1.7814 -0.8356
   15CHL1    C9 1073   3.994   0.459   8.949  0.1707  0.9473  0.0770
   15CHL1    H9 1074   4.006   0.567   8.972 -2.9720  1.4674 -0.2959
   15CHL1   C10 1075   3.993   0.369   9.081  0.5554  0.0389 -0.1431
   15CHL1   C19 1076   4.019   0.218   9.042 -0.1783  0.3282 -0.9926
   15CHL1  H19A 1077   3.969   0.142   9.106 -1.2728  0.1553 -2.0301
   15CHL1  H19B 1078   3.984   0.198   8.939  0.7081  0.2908 -1.2946
   15CHL1  H19C 1079   4.129   0.201   9.034 -0.1118  0.1975 -0.0095
   15CHL1    C1 1080   4.111   0.414   9.178 -1.1199 -1.0256  0.1110
   15CHL1   H1A 1081   4.200   0.385   9.118 -0.3374 -0.1382  0.8149
   15CHL1   H1B 1082   4.114   0.524   9.186 -0.8272 -1.1332  1.6724
   15CHL1    C2 1083   4.105   0.350   9.316 -0.0990 -0.1024 -0.2375
   15CHL1   H2A 1084   4.192   0.389   9.372  1.3067 -2.2261 -0.8322
   15CHL1   H2B 1085   4.116   0.240   9.311  1.3999 -0.0129  0.6669
   15CHL1   C20 1086   4.059   0.544   8.394  0.1505  0.0012 -0.1706
   15CHL1   H20 1087   4.049   0.439   8.359  0.2322 -0.5241  1.3136
   15CHL1   C21 1088   4.213   0.562   8.424  0.3390  0.2483  0.5391
   15CHL1  H21A 1089   4.260   0.482   8.484 -0.0272 -0.1114  0.3485
   15CHL1  H21B 1090   4.228   0.652   8.487 -3.3805  0.1199  1.8713
   15CHL1  H21C 1091   4.271   0.566   8.330  2.3818  2.2160  1.7803
   15CHL1   C22 1092   4.006   0.642   8.285 -0.5318 -0.2317 -0.8174
   15CHL1  H22A 1093   3.907   0.603   8.253 -2.0796  2.3027  0.5968
   15CHL1  H22B 1094   3.996   0.742   8.332  1.6501 -0.7739  0.9501
   15CHL1   C23 1095   4.096   0.635   8.163 -0.1485 -0.3547 -1.4411
   15CHL1  H23A 1096   4.184   0.702   8.172 -1.2007  1.0382 -1.1467
   15CHL1  H23B 1097   4.126   0.529   8.155  0.5504 -0.5242  1.8859
   15CHL1   C24 1098   4.019   0.668   8.033  0.0535 -0.8383 -0.0924
   15CHL1  H24A 1099   3.941   0.594   8.004 -0.1654 -0.4289 -0.5655
   15CHL1  H24B 1100   3.974   0.769   8.025  2.0223  0.0901 -0.0011
   15CHL1   C25 1101   4.113   0.655   7.907  0.2147  0.2976 -0.4049
   15CHL1   H25 1102   4.209   0.706   7.932 -0.2838  0.4438  1.3570
   15CHL1   C26 1103   4.147   0.508   7.874  0.1570  0.0232  0.3362
   15CHL1  H26A 1104   4.204   0.512   7.779  1.7047 -0.3483  1.2110
   15CHL1  H26B 1105   4.210   0.451   7.946 -2.1760 -0.4012  2.1773
   15CHL1  H26C 1106   4.053   0.457   7.844 -0.8971  1.2443  1.4296
   15CHL1   C27 1107   4.063   0.731   7.787  0.3440 -0.2505 -0.5437
   15CHL1  H27A 1108   3.956   0.705   7.770  0.1177  0.4447 -0.2311
   15CHL1  H27B 1109   4.069   0.841   7.797 -2.0425 -0.1782  0.9563
   15CHL1  H27C 1110   4.128   0.713   7.699 -1.0746 -1.4587 -1.4190
   16CHL1    C3 1111   5.009   0.877   9.386  0.1212 -0.4863 -0.1009
   16CHL1    H3 1112   4.916   0.911   9.335  0.4124 -1.7812 -1.5604
   16CHL1    O3 1113   4.984   0.859   9.531 -1.0177  0.5641  0.3517
   16CHL1   H3' 1114   5.074   0.844   9.560 -0.9526 -0.7223 -0.3978
   16CHL1    C4 1115   5.047   0.741   9.333  0.1690 -0.0291  0.2338
   16CHL1   H4A 1116   5.149   0.730   9.375 -0.5442 -1.6005  1.6708
   16CHL1   H4B 1117   4.973   0.666   9.370 -2.2723  1.9870 -0.2331
   16CHL1    C5 1118   5.050   0.761   9.185 -1.0223  0.2583  0.4503
   16CHL1    C6 1119   4.978   0.675   9.106  0.3500  0.1490 -0.4465
   16CHL1    H6 1120   4.921   0.593   9.152  0.2037  0.0807 -0.7445
   16CHL1    C7 1121   4.970   0.687   8.955 -0.2051 -0.0446  0.0706
   16CHL1   H7A 1122   4.967   0.585   8.911 -0.5725 -0.3222  0.7190
   16CHL1   H7B 1123   4.868   0.721   8.927 -0.4804 -1.2566 -0.4421
   16CHL1    C8 1124   5.078   0.781   8.897 -0.5787  0.2345 -0.2817
   16CHL1    H8 1125   5.170   0.719   8.899 -0.6551  0.1056 -0.6860
   16CHL1   C14 1126   5.043   0.821   8.756 -0.6652 -0.6279  0.4169
   16CHL1   H14 1127   4.957   0.890   8.768 -2.1292 -2.4530  0.9226
   16CHL1   C15 1128   5.002   0.705   8.656 -0.8236 -0.1209 -0.5183
   16CHL1  H15A 1129   5.070   0.617   8.647  0.2305  0.7434 -1.2131
   16CHL1  H15B 1130   4.900   0.668   8.675 -0.3078 -1.9294 -1.0805
   16CHL1   C16 1131   5.010   0.774   8.515  0.2095  0.1750 -0.6079
   16CHL1  H16A 1132   5.069   0.716   8.441 -0.0192 -2.7832  1.3707
   16CHL1  H16B 1133   4.906   0.783   8.479  0.1946 -1.6832 -1.0863
   16CHL1   C17 1134   5.069   0.919   8.541 -0.6526 -0.2371 -0.5269
   16CHL1   H17 1135   4.973   0.972   8.559 -0.3134  0.7402 -1.5242
   16CHL1   C13 1136   5.146   0.912   8.679  0.9723 -0.1476 -0.2737
   16CHL1   C18 1137   5.272   0.830   8.659  0.0588 -0.5727 -0.0567
   16CHL1  H18A 1138   5.355   0.904   8.646 -0.4513 -0.3214 -2.3638
   16CHL1  H18B 1139   5.297   0.774   8.751 -0.3832 -2.2132 -0.9088
   16CHL1  H18C 1140   5.269   0.752   8.580  1.5422 -3.3707  2.4581
   16CHL1   C12 1141   5.180   1.040   8.769  0.5760 -0.5352  0.3216
   16CHL1  H12A 1142   5.260   1.097   8.717 -0.0458 -0.5169 -0.6478
   16CHL1  H12B 1143   5.081   1.090   8.776  1.8170  1.8468  2.3405
   16CHL1   C11 1144   5.222   0.997   8.910  0.3528  0.3348  1.0931
   16CHL1  H11A 1145   5.313   0.938   8.890 -0.4477 -0.7764  0.6066
   16CHL1  H11B 1146   5.249   1.083   8.975  1.4593  0.4202  0.5309
   16CHL1    C9 1147   5.114   0.907   8.977 -0.1273  0.1386 -0.4175
   16CHL1    H9 1148   5.017   0.959   8.991 -1.3642 -2.5103  1.7149
   16CHL1   C10 1149   5.145   0.870   9.128  0.4402  0.5156  0.3884
   16CHL1   C19 1150   5.292   0.841   9.124 -0.1393 -0.4237  0.0072
   16CHL1  H19A 1151   5.359   0.927   9.104 -0.0039 -0.5848 -0.2509
   16CHL1  H19B 1152   5.319   0.786   9.217 -0.5723 -1.0257 -0.2133
   16CHL1  H19C 1153   5.310   0.771   9.039  0.4412 -1.0189  0.5983
   16CHL1    C1 1154   5.117   1.003   9.210 -0.1412 -0.8161  0.2884
   16CHL1   H1A 1155   5.204   1.066   9.181 -1.1227 -0.0599 -1.1719
   16CHL1   H1B 1156   5.021   1.053   9.184 -0.2854 -0.9394  0.5842
   16CHL1    C2 1157   5.117   0.980   9.361 -0.1300  0.0775 -0.4636
   16CHL1   H2A 1158   5.106   1.079   9.410 -0.3347  0.6021 -1.5339
   16CHL1   H2B 1159   5.214   0.938   9.395  0.7311  1.0864 -1.5612
   16CHL1   C20 1160   5.134   0.981   8.416  0.1365 -0.5298  0.0751
   16CHL1   H20 1161   5.213   0.913   8.377 -2.1454 -2.2266 -1.9166
   16CHL1   C21 1162   5.183   1.127   8.444  0.2869  0.5529 -0.4220
   16CHL1  H21A 1163   5.210   1.181   8.351  3.1077  0.2132  0.1178
   16CHL1  H21B 1164   5.280   1.122   8.499 -0.2731 -0.5779  0.5120
   16CHL1  H21C 1165   5.106   1.185   8.499 -0.2961 -0.5895 -0.0197
   16CHL1   C22 1166   5.028   1.001   8.299  0.2355  0.7030  0.1150
   16CHL1  H22A 1167   4.978   0.903   8.280  1.6555 -0.2681  1.1828
   16CHL1  H22B 1168   4.947   1.071   8.326 -0.4052  0.0339 -0.0514
   16CHL1   C23 1169   5.093   1.041   8.165 -0.7345 -0.1338  0.3222
   16CHL1  H23A 1170   5.199   1.070   8.182 -0.7749  0.0452  0.2602
   16CHL1  H23B 1171   5.095   0.953   8.097 -0.4734  0.0823  0.0517
   16CHL1   C24 1172   5.033   1.161   8.101 -0.1915  0.0032  0.1150
   16CHL1  H24A 1173   4.932   1.135   8.063 -0.9437  1.1288  1.2544
   16CHL1  H24B 1174   5.022   1.239   8.180  0.2003  0.5898 -0.3975
   16CHL1   C25 1175   5.123   1.220   7.992 -0.3553 -0.3436  0.0996
   16CHL1   H25 1176   5.228   1.215   8.027  0.5389  0.7318 -2.2364
   16CHL1   C26 1177   5.120   1.141   7.859 -0.1498 -0.0668 -0.8012
   16CHL1  H26A 1178   5.018   1.130   7.817 -1.2953 -1.3968  1.9922
   16CHL1  H26B 1179   5.187   1.186   7.783  2.1800 -1.3408  0.3604
   16CHL1  H26C 1180   5.157   1.038   7.878  0.9481  0.5164  0.3740
   16CHL1   C27 1181   5.099   1.372   7.969  0.3072  0.8560  0.7357
   16CHL1  H27A 1182   5.166   1.392   7.882 -2.3563 -0.4685 -1.7724
   16CHL1  H27B 1183   4.996   1.394   7.933 -0.0468 -2.7811 -0.9327
   16CHL1  H27C 1184   5.128   1.426   8.062 -0.4870  2.3690  0.1315
   17CHL1    C3 1185   1.084   5.961   9.174  0.3900  0.6190  0.4879
   17CHL1    H3 1186   1.014   5.877   9.156  1.4564 -0.2270  0.1657
   17CHL1    O3 1187   1.061   6.009   9.296 -0.1776 -0.1675  0.5288
   17CHL1   H3' 1188   1.109   5.943   9.346 -1.3653 -0.7933  0.9090
   17CHL1    C4 1189   1.223   5.912   9.165 -0.1119  0.0056 -0.7034
   17CHL1   H4A 1190   1.299   5.988   9.194  1.2844 -1.2482 -0.8890
   17CHL1   H4B 1191   1.241   5.834   9.243 -1.2220  0.1585 -0.2853
   17CHL1    C5 1192   1.278   5.869   9.031 -0.0232  0.2992 -0.5357
   17CHL1    C6 1193   1.335   5.748   9.017 -0.8631  0.0844  0.1384
   17CHL1    H6 1194   1.346   5.683   9.104 -2.3763 -1.7831 -0.9930
   17CHL1    C7 1195   1.369   5.706   8.879  0.3342 -0.0959  0.0624
   17CHL1   H7A 1196   1.471   5.662   8.879 -0.1197 -1.4353  3.1231
   17CHL1   H7B 1197   1.305   5.619   8.850 -0.0773 -0.0446  0.7856
   17CHL1    C8 1198   1.349   5.804   8.761 -0.3506  0.2591  0.3523
   17CHL1    H8 1199   1.430   5.880   8.767 -0.0662  0.2134 -2.0069
   17CHL1   C14 1200   1.353   5.725   8.634 -0.9199  0.1107  0.1731
   17CHL1   H14 1201   1.265   5.659   8.644 -0.3866 -0.4658  1.3000
   17CHL1   C15 1202   1.476   5.629   8.603 -0.5419 -0.0359  0.1777
   17CHL1  H15A 1203   1.572   5.681   8.625 -0.9289  0.1296  1.5786
   17CHL1  H15B 1204   1.482   5.539   8.669  0.4431  1.5319  2.3365
   17CHL1   C16 1205   1.465   5.613   8.453 -0.2057  0.2410  0.0632
   17CHL1  H16A 1206   1.557   5.650   8.403 -0.1398  1.9082  1.3341
   17CHL1  H16B 1207   1.443   5.508   8.424 -1.2312  0.9166 -1.7933
   17CHL1   C17 1208   1.351   5.710   8.401  0.3470  0.3704  0.4022
   17CHL1   H17 1209   1.263   5.646   8.419 -0.0936  1.8496  4.6996
   17CHL1   C13 1210   1.345   5.819   8.512  0.1579  0.6289 -0.6420
   17CHL1   C18 1211   1.466   5.912   8.494  1.1325 -0.1075 -0.6536
   17CHL1  H18A 1212   1.438   5.986   8.416 -2.6104 -0.2361  0.3425
   17CHL1  H18B 1213   1.479   5.977   8.583  1.8700 -0.2744 -0.6358
   17CHL1  H18C 1214   1.557   5.853   8.471  1.9811  0.2065  1.6548
   17CHL1   C12 1215   1.211   5.901   8.520  0.2504 -0.3175 -0.3253
   17CHL1  H12A 1216   1.201   5.976   8.438  2.5106  2.2496  1.5501
   17CHL1  H12B 1217   1.129   5.826   8.510  0.6961 -1.5119  3.4959
   17CHL1   C11 1218   1.197   5.972   8.657  0.2073 -0.4477 -0.9066
   17CHL1  H11A 1219   1.263   6.060   8.646  1.8818 -1.3726  1.1689
   17CHL1  H11B 1220   1.095   6.018   8.657  0.2441 -0.2730 -2.9651
   17CHL1    C9 1221   1.229   5.880   8.783  0.7820 -0.0941 -0.0564
   17CHL1    H9 1222   1.144   5.808   8.790 -0.6749  1.4953 -0.6051
   17CHL1   C10 1223   1.231   5.966   8.916  0.7705  1.2429  0.8253
   17CHL1   C19 1224   1.328   6.085   8.912 -1.4044  0.4271  0.1448
   17CHL1  H19A 1225   1.307   6.155   8.828 -1.1914 -1.9377 -1.9887
   17CHL1  H19B 1226   1.335   6.140   9.009  0.0535 -2.5995  1.9080
   17CHL1  H19C 1227   1.430   6.050   8.883 -2.0983 -0.8136 -0.8730
   17CHL1    C1 1228   1.092   6.026   8.931 -0.1670  0.1381  0.2622
   17CHL1   H1A 1229   1.074   6.113   8.864 -0.3659 -0.5462 -0.5916
   17CHL1   H1B 1230   1.025   5.946   8.894 -1.0865  0.4323  1.2180
   17CHL1    C2 1231   1.063   6.072   9.073 -0.2536  0.2570  0.2638
   17CHL1   H2A 1232   0.953   6.088   9.066 -0.3727 -1.1055 -2.9605
   17CHL1   H2B 1233   1.125   6.160   9.102  1.7004 -0.8900 -0.2449
   17CHL1   C20 1234   1.344   5.745   8.251 -0.0063  0.0618  0.6926
   17CHL1   H20 1235   1.430   5.812   8.229 -1.5606  3.5095  4.0355
   17CHL1   C21 1236   1.210   5.804   8.212 -0.2808  0.5496 -0.2003
   17CHL1  H21A 1237   1.128   5.741   8.252 -1.6168  3.3277  1.8036
   17CHL1  H21B 1238   1.192   5.804   8.103 -0.5062 -1.0354 -0.1869
   17CHL1  H21C 1239   1.203   5.909   8.248 -0.9928  0.4342  0.0193
   17CHL1   C22 1240   1.381   5.627   8.153  0.0698  0.2241 -0.0600
   17CHL1  H22A 1241   1.360   5.671   8.053 -0.0475  1.7640  0.6085
   17CHL1  H22B 1242   1.491   5.611   8.155 -0.0640 -0.6494  0.7637
   17CHL1   C23 1243   1.306   5.498   8.156  0.0571  0.4389 -0.5405
   17CHL1  H23A 1244   1.328   5.453   8.256 -0.9575  0.0451 -0.4779
   17CHL1  H23B 1245   1.199   5.530   8.156 -0.2764 -0.6055 -2.0344
   17CHL1   C24 1246   1.345   5.408   8.035 -0.5878  0.3194 -0.1459
   17CHL1  H24A 1247   1.304   5.462   7.946 -1.5576  2.7521  1.6332
   17CHL1  H24B 1248   1.456   5.408   8.030 -0.5437  1.7140  0.3781
   17CHL1   C25 1249   1.292   5.264   8.033 -0.3227  0.2951  0.0079
   17CHL1   H25 1250   1.182   5.268   8.015 -0.3724 -2.7791 -0.9229
   17CHL1   C26 1251   1.337   5.173   7.919 -0.5856  0.3232 -0.1115
   17CHL1  H26A 1252   1.299   5.223   7.827  0.4178  0.1766 -0.6243
   17CHL1  H26B 1253   1.448   5.168   7.916 -0.5480  0.8844  0.3133
   17CHL1  H26C 1254   1.282   5.077   7.931 -2.6240  1.7387  3.1831
   17CHL1   C27 1255   1.319   5.189   8.162  0.4383  0.2410  0.1524
   17CHL1  H27A 1256   1.426   5.159   8.171  0.2393 -1.1498 -1.5505
   17CHL1  H27B 1257   1.288   5.247   8.252  0.4255 -0.7882  0.8308
   17CHL1  H27C 1258   1.266   5.092   8.162 -0.9700  0.9717  1.2994
   18CHL1    C3 1259   0.632   3.797   9.345  0.5276  0.0675  0.1062
   18CHL1    H3 1260   0.578   3.893   9.354  1.8039  0.7333  0.9711
   18CHL1    O3 1261   0.662   3.761   9.478 -0.1175  0.5617  0.4406
   18CHL1   H3' 1262   0.584   3.716   9.511 -2.4626  3.6482 -0.4259
   18CHL1    C4 1263   0.531   3.696   9.280 -0.1874  0.9239  0.0073
   18CHL1   H4A 1264   0.572   3.595   9.300 -0.1684  1.6262  4.4043
   18CHL1   H4B 1265   0.439   3.702   9.342 -0.1075  1.0236  0.1151
   18CHL1    C5 1266   0.493   3.698   9.132  0.5446 -0.9696 -0.6654
   18CHL1    C6 1267   0.367   3.694   9.082  0.1321 -0.3933 -0.3827
   18CHL1    H6 1268   0.282   3.667   9.146  0.3776 -1.1229 -0.3445
   18CHL1    C7 1269   0.329   3.709   8.933  0.4218  0.8925  0.9435
   18CHL1   H7A 1270   0.261   3.624   8.910  0.8739  1.1469 -1.6082
   18CHL1   H7B 1271   0.272   3.798   8.899  1.2287  1.1852  0.3182
   18CHL1    C8 1272   0.459   3.709   8.849 -0.1312 -0.2315  0.4409
   18CHL1    H8 1273   0.505   3.609   8.833  1.6561  0.8694 -1.9288
   18CHL1   C14 1274   0.420   3.765   8.709 -0.5551  0.2812  0.6731
   18CHL1   H14 1275   0.402   3.874   8.725 -0.4267  0.4269 -0.1526
   18CHL1   C15 1276   0.309   3.687   8.638  0.3443 -0.6561  0.4387
   18CHL1  H15A 1277   0.327   3.577   8.647  0.1726 -0.6954  0.3135
   18CHL1  H15B 1278   0.201   3.697   8.660  0.0977 -1.2632 -0.4203
   18CHL1   C16 1279   0.325   3.715   8.488 -0.2486  0.1537 -0.6203
   18CHL1  H16A 1280   0.320   3.622   8.426  0.3101  1.1643 -2.2546
   18CHL1  H16B 1281   0.240   3.780   8.457  0.5564  1.0362 -1.0194
   18CHL1   C17 1282   0.461   3.798   8.478  1.0991  0.2266 -0.1199
   18CHL1   H17 1283   0.429   3.904   8.483  1.2312  0.2261  0.8927
   18CHL1   C13 1284   0.541   3.766   8.609  0.0021 -0.3054  0.0303
   18CHL1   C18 1285   0.612   3.626   8.605 -0.0785 -0.7436 -0.1873
   18CHL1  H18A 1286   0.540   3.548   8.573  1.0640 -1.1215 -2.0459
   18CHL1  H18B 1287   0.696   3.626   8.532  0.2902  0.5911  0.2182
   18CHL1  H18C 1288   0.656   3.601   8.704  1.0124  2.8664  0.3919
   18CHL1   C12 1289   0.636   3.874   8.661 -0.4021  0.2220 -0.0521
   18CHL1  H12A 1290   0.725   3.878   8.594 -0.5032  0.2980 -0.1842
   18CHL1  H12B 1291   0.588   3.974   8.652  0.7517  0.6547 -2.0514
   18CHL1   C11 1292   0.689   3.824   8.799 -0.9773 -0.4676 -0.1898
   18CHL1  H11A 1293   0.762   3.741   8.786  1.1135  1.4308 -1.1738
   18CHL1  H11B 1294   0.749   3.898   8.857 -0.4272 -2.2983  1.7279
   18CHL1    C9 1295   0.571   3.802   8.901 -0.0182  0.0184 -0.4658
   18CHL1    H9 1296   0.520   3.897   8.925  1.2613  0.1588  2.0552
   18CHL1   C10 1297   0.613   3.745   9.043  0.5642 -0.0200  0.3124
   18CHL1   C19 1298   0.697   3.616   9.035 -0.0830 -0.0131  0.5873
   18CHL1  H19A 1299   0.653   3.545   8.962  2.5109 -1.6314  0.4468
   18CHL1  H19B 1300   0.793   3.650   8.990 -0.2870  0.9716  0.8667
   18CHL1  H19C 1301   0.724   3.551   9.121 -1.1218 -2.2407 -0.6972
   18CHL1    C1 1302   0.697   3.851   9.115 -0.5622  0.7737  0.3570
   18CHL1   H1A 1303   0.785   3.860   9.048 -1.2014  2.3328 -0.3120
   18CHL1   H1B 1304   0.647   3.950   9.105  0.7273  1.3203 -1.0925
   18CHL1    C2 1305   0.753   3.813   9.253  0.8419  0.0376  0.7010
   18CHL1   H2A 1306   0.808   3.900   9.295  0.9583 -0.1605  0.9566
   18CHL1   H2B 1307   0.819   3.727   9.232 -0.6481 -0.1784 -4.4985
   18CHL1   C20 1308   0.535   3.781   8.341  0.0609 -0.4748 -0.1479
   18CHL1   H20 1309   0.584   3.682   8.345  1.7899  0.3640  0.3415
   18CHL1   C21 1310   0.648   3.883   8.339 -0.1471  0.3440 -0.1508
   18CHL1  H21A 1311   0.728   3.848   8.407 -0.7257  0.2958  0.5126
   18CHL1  H21B 1312   0.614   3.986   8.362 -0.1736  0.5056 -0.8911
   18CHL1  H21C 1313   0.700   3.893   8.241  2.0262 -1.8045  0.6889
   18CHL1   C22 1314   0.446   3.794   8.223  0.4949 -0.0369  0.3438
   18CHL1  H22A 1315   0.387   3.700   8.217  1.9676 -0.9937  0.4187
   18CHL1  H22B 1316   0.373   3.876   8.243  1.6240  0.5757  2.2140
   18CHL1   C23 1317   0.515   3.814   8.091 -0.2692 -0.4189  0.1104
   18CHL1  H23A 1318   0.537   3.923   8.083  1.5557 -0.6933  0.7982
   18CHL1  H23B 1319   0.613   3.764   8.104 -1.2117 -1.8425  2.1418
   18CHL1   C24 1320   0.441   3.760   7.967  0.7013 -0.5343 -0.1684
   18CHL1  H24A 1321   0.503   3.779   7.876  0.3281 -0.5540 -0.4262
   18CHL1  H24B 1322   0.428   3.650   7.974 -2.3156 -0.2822 -0.4565
   18CHL1   C25 1323   0.299   3.823   7.944 -0.2495 -0.1609  0.3043
   18CHL1   H25 1324   0.251   3.826   8.044  2.0604  0.2408  1.4612
   18CHL1   C26 1325   0.310   3.974   7.899  0.5970 -0.1916 -0.0799
   18CHL1  H26A 1326   0.212   4.015   7.931  1.2460 -0.7393  2.8660
   18CHL1  H26B 1327   0.399   4.019   7.948  0.8853  0.2761 -0.9998
   18CHL1  H26C 1328   0.319   3.994   7.790  0.0416  1.3918  0.1329
   18CHL1   C27 1329   0.216   3.738   7.848 -0.4944  0.3628  0.0844
   18CHL1  H27A 1330   0.129   3.796   7.811 -0.6188  0.8389  1.0718
   18CHL1  H27B 1331   0.274   3.700   7.761 -2.8543  0.3251 -1.5709
   18CHL1  H27C 1332   0.168   3.649   7.893 -1.9648  0.7582 -0.6611
   19CHL1    C3 1333   4.394   6.406   9.415  0.3942  0.5727  0.8453
   19CHL1    H3 1334   4.365   6.513   9.406  0.0883  0.3773 -0.8109
   19CHL1    O3 1335   4.385   6.352   9.543  0.6906 -0.4412  0.0726
   19CHL1   H3' 1336   4.408   6.260   9.527 -0.4066 -0.4349 -1.7880
   19CHL1    C4 1337   4.303   6.326   9.326  0.8348  0.7889  0.4158
   19CHL1   H4A 1338   4.347   6.225   9.338 -3.6929 -1.2872  1.8039
   19CHL1   H4B 1339   4.197   6.328   9.359  1.0426 -1.0354  1.3439
   19CHL1    C5 1340   4.306   6.379   9.186 -0.0505 -0.0507  0.2563
   19CHL1    C6 1341   4.192   6.436   9.133 -0.6913 -0.7168 -0.3134
   19CHL1    H6 1342   4.101   6.429   9.195 -0.3317 -1.7037  0.1394
   19CHL1    C7 1343   4.190   6.486   8.993 -0.2581  1.3768 -0.4379
   19CHL1   H7A 1344   4.089   6.480   8.945 -0.0541  2.5765 -1.0546
   19CHL1   H7B 1345   4.213   6.594   9.007  2.1370  1.0318 -1.2475
   19CHL1    C8 1346   4.305   6.442   8.896 -0.7578 -0.2266  0.1493
   19CHL1    H8 1347   4.285   6.334   8.876 -1.3267  0.3673 -2.8977
   19CHL1   C14 1348   4.316   6.525   8.770  0.2329 -0.0992  0.7038
   19CHL1   H14 1349   4.350   6.627   8.799  1.4251 -0.2076 -0.2082
   19CHL1   C15 1350   4.198   6.534   8.677  0.2189 -0.2891  0.5497
   19CHL1  H15A 1351   4.145   6.436   8.677  0.6009 -0.5156 -1.0276
   19CHL1  H15B 1352   4.134   6.618   8.712 -1.4880 -1.9425  1.6122
   19CHL1   C16 1353   4.255   6.560   8.537  0.2850  0.1313 -0.6399
   19CHL1  H16A 1354   4.225   6.477   8.469  0.5091 -0.3010 -0.2150
   19CHL1  H16B 1355   4.206   6.650   8.494  1.7018  0.6417 -1.2699
   19CHL1   C17 1356   4.408   6.578   8.564  0.3667  0.1137  0.0273
   19CHL1   H17 1357   4.424   6.677   8.610  0.4113 -0.2787  0.8749
   19CHL1   C13 1358   4.427   6.481   8.682 -0.0067 -0.6890 -0.3458
   19CHL1   C18 1359   4.414   6.342   8.636  0.1270  0.4109  0.1665
   19CHL1  H18A 1360   4.406   6.263   8.714  0.8285 -0.3888 -0.5489
   19CHL1  H18B 1361   4.330   6.325   8.565  0.4333 -1.6261  0.2190
   19CHL1  H18C 1362   4.511   6.320   8.585  0.4180  1.8919  0.0307
   19CHL1   C12 1363   4.565   6.507   8.760 -0.3277  0.2467 -0.6926
   19CHL1  H12A 1364   4.652   6.477   8.698 -1.1199 -4.2100  0.0176
   19CHL1  H12B 1365   4.573   6.616   8.775 -1.0725  0.6408 -2.8254
   19CHL1   C11 1366   4.561   6.415   8.886 -0.1712  0.6197 -0.4880
   19CHL1  H11A 1367   4.559   6.311   8.848  1.3188 -0.3404  1.8316
   19CHL1  H11B 1368   4.650   6.436   8.949 -1.0709 -0.6430  1.2580
   19CHL1    C9 1369   4.436   6.443   8.972  0.0287 -1.0241 -1.0970
   19CHL1    H9 1370   4.462   6.546   9.007 -1.6650 -1.1319  0.5863
   19CHL1   C10 1371   4.439   6.373   9.112  0.1459  0.0228 -0.3380
   19CHL1   C19 1372   4.468   6.221   9.093 -0.0471 -0.2361  0.0592
   19CHL1  H19A 1373   4.563   6.209   9.038 -1.2938 -3.4733 -1.6642
   19CHL1  H19B 1374   4.486   6.162   9.185  1.6364  1.1988  0.7175
   19CHL1  H19C 1375   4.397   6.182   9.018 -1.5101  0.0957  1.2065
   19CHL1    C1 1376   4.541   6.447   9.210  0.0722  0.6702 -0.1987
   19CHL1   H1A 1377   4.645   6.434   9.173 -0.7534  0.4504 -2.5678
   19CHL1   H1B 1378   4.517   6.556   9.204 -1.3206  0.2954 -2.7734
   19CHL1    C2 1379   4.541   6.399   9.359  0.5517  0.2393 -0.6378
   19CHL1   H2A 1380   4.609   6.472   9.408  1.2944  0.9661 -2.6578
   19CHL1   H2B 1381   4.588   6.298   9.367  0.4900  0.2922  0.4734
   19CHL1   C20 1382   4.507   6.575   8.438  0.1381 -0.0246  0.7101
   19CHL1   H20 1383   4.608   6.572   8.484 -0.3377 -0.3265  1.7753
   19CHL1   C21 1384   4.483   6.712   8.368  0.0370  0.2602 -0.1577
   19CHL1  H21A 1385   4.565   6.738   8.298 -0.8910  1.2952 -0.9113
   19CHL1  H21B 1386   4.461   6.791   8.443  0.0187  0.4841 -0.3991
   19CHL1  H21C 1387   4.394   6.705   8.301  0.1081 -1.9438 -0.1001
   19CHL1   C22 1388   4.499   6.457   8.335 -0.5988 -0.4616  0.0415
   19CHL1  H22A 1389   4.549   6.374   8.389 -2.2343 -0.8084  1.0784
   19CHL1  H22B 1390   4.397   6.425   8.307 -1.1451  0.7458  0.5753
   19CHL1   C23 1391   4.563   6.475   8.200  0.3235 -0.3120 -0.0209
   19CHL1  H23A 1392   4.509   6.555   8.145  2.3112  0.1801 -1.3561
   19CHL1  H23B 1393   4.672   6.492   8.216  0.3119  0.8300 -1.0203
   19CHL1   C24 1394   4.557   6.339   8.121 -0.6252  0.3822 -0.1105
   19CHL1  H24A 1395   4.634   6.266   8.154  1.8000  1.4335 -2.9941
   19CHL1  H24B 1396   4.454   6.297   8.130 -0.3782 -0.0142  1.0311
   19CHL1   C25 1397   4.586   6.369   7.975  0.3061 -0.4181  0.4253
   19CHL1   H25 1398   4.513   6.445   7.940 -1.0548 -2.0284 -0.4055
   19CHL1   C26 1399   4.737   6.398   7.953  0.4548 -0.0259 -0.2090
   19CHL1  H26A 1400   4.758   6.499   7.994 -0.1887 -0.5861  1.5953
   19CHL1  H26B 1401   4.796   6.314   7.995 -0.3473  0.2587  1.5589
   19CHL1  H26C 1402   4.760   6.405   7.844 -0.3854  0.2361 -0.3768
   19CHL1   C27 1403   4.552   6.245   7.889 -0.3334  0.2620 -0.1509
   19CHL1  H27A 1404   4.592   6.149   7.929 -0.4214  0.0936 -0.4645
   19CHL1  H27B 1405   4.441   6.236   7.887 -0.3875  0.1844  1.5582
   19CHL1  H27C 1406   4.589   6.257   7.785 -1.2709  0.6364 -0.4475
   20CHL1    C3 1407   0.864   1.326   9.115  0.3700  0.2594  0.0196
   20CHL1    H3 1408   0.781   1.257   9.085  0.7744  0.5651 -1.9567
   20CHL1    O3 1409   0.898   1.325   9.252 -0.5087 -0.1330  0.1740
   20CHL1   H3' 1410   0.976   1.270   9.262  1.1349  1.6356 -1.9570
   20CHL1    C4 1411   0.977   1.285   9.021  0.6371  0.9944 -0.0403
   20CHL1   H4A 1412   1.070   1.339   9.049  2.4725 -2.3544  0.8822
   20CHL1   H4B 1413   1.009   1.183   9.053  0.9333  0.1893 -2.6651
   20CHL1    C5 1414   0.955   1.299   8.867 -0.2060  0.3244  0.7925
   20CHL1    C6 1415   0.977   1.197   8.782  0.4988  0.3015 -0.2886
   20CHL1    H6 1416   1.017   1.103   8.821 -1.0534  0.5109  2.0091
   20CHL1    C7 1417   0.964   1.214   8.633  0.2476 -0.0147 -0.6845
   20CHL1   H7A 1418   1.065   1.201   8.588 -0.1243  0.1153 -1.5681
   20CHL1   H7B 1419   0.894   1.138   8.595  1.2355 -1.1881 -0.2280
   20CHL1    C8 1420   0.935   1.358   8.582  1.1621  0.0885  0.9387
   20CHL1    H8 1421   1.031   1.415   8.577  0.8437  0.5668  0.2376
   20CHL1   C14 1422   0.885   1.348   8.446  0.0459  0.5888  0.3898
   20CHL1   H14 1423   0.784   1.302   8.443 -0.7256  2.2652 -1.1327
   20CHL1   C15 1424   0.968   1.272   8.337 -0.2839  0.0166  0.9683
   20CHL1  H15A 1425   1.078   1.288   8.345 -0.2805 -0.5820  2.3183
   20CHL1  H15B 1426   0.961   1.162   8.329  4.2023 -0.3133 -2.1347
   20CHL1   C16 1427   0.933   1.347   8.203  0.8173  0.1390 -0.6378
   20CHL1  H16A 1428   1.012   1.403   8.149 -0.4429  1.1941 -1.4447
   20CHL1  H16B 1429   0.889   1.274   8.132 -0.1855  0.4289 -0.3253
   20CHL1   C17 1430   0.809   1.447   8.241 -0.5588 -0.2617  0.2022
   20CHL1   H17 1431   0.712   1.392   8.244 -0.8183  0.2181  1.3457
   20CHL1   C13 1432   0.845   1.487   8.390 -1.1562 -0.2818 -0.2419
   20CHL1   C18 1433   0.970   1.581   8.389 -0.4663  0.1584 -1.0943
   20CHL1  H18A 1434   0.914   1.672   8.359 -2.5552 -0.5846  0.2680
   20CHL1  H18B 1435   1.022   1.589   8.487 -0.5854 -1.8934 -0.8210
   20CHL1  H18C 1436   1.044   1.550   8.313  0.9088 -2.9094  1.2504
   20CHL1   C12 1437   0.737   1.540   8.479  0.2079 -0.0462  0.2793
   20CHL1  H12A 1438   0.704   1.642   8.449  0.2605  0.6390  2.3736
   20CHL1  H12B 1439   0.657   1.464   8.470 -0.0091 -0.4534  3.8609
   20CHL1   C11 1440   0.773   1.555   8.629 -0.2568  0.5993  0.3810
   20CHL1  H11A 1441   0.840   1.642   8.643  0.0092  0.0907  2.7090
   20CHL1  H11B 1442   0.675   1.562   8.682 -0.7897  0.7215 -0.5946
   20CHL1    C9 1443   0.839   1.421   8.680  0.2978  0.4861 -0.1356
   20CHL1    H9 1444   0.751   1.354   8.686  0.9147 -0.3323 -0.0580
   20CHL1   C10 1445   0.893   1.435   8.826 -0.1304  0.7247 -0.4692
   20CHL1   C19 1446   1.007   1.528   8.828  0.1115 -0.3619 -0.1200
   20CHL1  H19A 1447   1.088   1.510   8.755 -0.9412  3.7486 -2.6384
   20CHL1  H19B 1448   0.969   1.628   8.801  0.2106 -0.4604 -0.6339
   20CHL1  H19C 1449   1.047   1.535   8.932  1.9832 -0.8976 -0.7630
   20CHL1    C1 1450   0.774   1.468   8.928 -0.0465  0.2566  0.1974
   20CHL1   H1A 1451   0.725   1.564   8.901 -0.3872 -0.0150 -0.1509
   20CHL1   H1B 1452   0.690   1.396   8.927  0.5947 -0.5060 -0.4801
   20CHL1    C2 1453   0.823   1.463   9.077  0.2945 -0.9911  0.2498
   20CHL1   H2A 1454   0.735   1.488   9.140  1.0481 -1.1868  1.4194
   20CHL1   H2B 1455   0.899   1.542   9.091  0.6030 -1.2569  0.0693
   20CHL1   C20 1456   0.783   1.561   8.141  0.7918 -0.5454  0.6850
   20CHL1   H20 1457   0.865   1.635   8.152 -1.5191  2.4215 -0.6124
   20CHL1   C21 1458   0.656   1.637   8.171 -0.3856 -0.3149  0.1412
   20CHL1  H21A 1459   0.663   1.692   8.267  1.2375  0.9667 -0.6558
   20CHL1  H21B 1460   0.570   1.567   8.181  0.8910 -1.8146  0.8936
   20CHL1  H21C 1461   0.634   1.717   8.097  0.9148 -0.1321 -0.0663
   20CHL1   C22 1462   0.782   1.515   7.992 -0.1919 -0.5403  0.3326
   20CHL1  H22A 1463   0.868   1.445   7.986  0.7943  0.7367 -1.0165
   20CHL1  H22B 1464   0.702   1.441   7.970 -0.9046  0.1919  0.4106
   20CHL1   C23 1465   0.778   1.624   7.884 -0.3782 -0.3330 -0.1514
   20CHL1  H23A 1466   0.678   1.674   7.880 -0.0025  0.6912  1.8910
   20CHL1  H23B 1467   0.843   1.710   7.912 -0.5011 -0.0889 -0.5951
   20CHL1   C24 1468   0.821   1.560   7.751  0.0004  0.1560 -0.2264
   20CHL1  H24A 1469   0.914   1.501   7.766  0.0458  0.0179 -1.0119
   20CHL1  H24B 1470   0.749   1.479   7.726 -0.5573  0.3721  0.6427
   20CHL1   C25 1471   0.829   1.659   7.641 -0.2050 -0.2974  1.0058
   20CHL1   H25 1472   0.751   1.733   7.668 -0.9165 -0.4771 -0.4279
   20CHL1   C26 1473   0.968   1.731   7.642  0.2602 -0.3882 -0.1583
   20CHL1  H26A 1474   1.044   1.651   7.627 -0.6068 -1.3947  0.6469
   20CHL1  H26B 1475   0.976   1.809   7.564  1.4590 -0.4422 -0.1092
   20CHL1  H26C 1476   0.984   1.771   7.744  0.3346  1.1910 -0.7708
   20CHL1   C27 1477   0.801   1.585   7.510 -0.2505 -0.2288  0.1237
   20CHL1  H27A 1478   0.886   1.519   7.484  1.3749  1.3607  1.1594
   20CHL1  H27B 1479   0.707   1.526   7.512 -0.5262  0.1303 -1.2614
   20CHL1  H27C 1480   0.784   1.660   7.430 -1.3644  0.2833  0.8037
   21CHL1    C3 1481   7.080   3.546   9.384 -0.9246  0.5141  0.2731
   21CHL1    H3 1482   7.186   3.521   9.362 -1.2370  1.3040 -2.4708
   21CHL1    O3 1483   7.071   3.541   9.522  0.3892  0.0402 -0.3844
   21CHL1   H3' 1484   7.005   3.605   9.551  1.1395  0.4614  0.4573
   21CHL1    C4 1485   7.033   3.687   9.330  0.4942  0.6129  0.0638
   21CHL1   H4A 1486   6.925   3.704   9.350 -0.1932 -2.6736 -0.1486
   21CHL1   H4B 1487   7.091   3.771   9.375  0.3163  1.4247 -1.1868
   21CHL1    C5 1488   7.051   3.679   9.177  0.2729  0.2931  0.3835
   21CHL1    C6 1489   7.130   3.768   9.116 -0.1045 -0.9278  0.3822
   21CHL1    H6 1490   7.175   3.853   9.168 -1.4364  0.2385 -0.3205
   21CHL1    C7 1491   7.144   3.778   8.964 -0.4590  0.1186  0.2062
   21CHL1   H7A 1492   7.131   3.883   8.929  0.7749  0.5307  0.9242
   21CHL1   H7B 1493   7.248   3.747   8.943 -0.0243  1.7432 -0.1590
   21CHL1    C8 1494   7.038   3.692   8.887  0.2784  0.0836 -1.0134
   21CHL1    H8 1495   6.946   3.754   8.889 -0.3016 -0.6267  2.7939
   21CHL1   C14 1496   7.080   3.678   8.747  0.0457  0.3695  0.1354
   21CHL1   H14 1497   7.172   3.616   8.742 -1.5789 -2.1493 -0.5538
   21CHL1   C15 1498   7.122   3.810   8.677  0.4281 -0.2131  0.6304
   21CHL1  H15A 1499   7.038   3.883   8.684  0.7422  0.6673 -3.0301
   21CHL1  H15B 1500   7.217   3.837   8.727  0.0709 -0.6251  1.5688
   21CHL1   C16 1501   7.118   3.790   8.529  0.4722  0.5340 -0.4562
   21CHL1  H16A 1502   7.041   3.859   8.488  0.2224  1.3080  1.2279
   21CHL1  H16B 1503   7.215   3.802   8.477  0.2049 -1.9047 -1.6627
   21CHL1   C17 1504   7.066   3.635   8.513 -0.8177 -0.3226 -0.9439
   21CHL1   H17 1505   7.161   3.577   8.516 -0.0563  0.9200  0.5167
   21CHL1   C13 1506   6.994   3.611   8.648  0.0149  0.4340  0.0282
   21CHL1   C18 1507   6.851   3.666   8.641  0.9095  0.0853 -0.8117
   21CHL1  H18A 1508   6.778   3.607   8.581  0.6174 -0.6041  0.1881
   21CHL1  H18B 1509   6.795   3.685   8.735 -0.2195  0.1641 -1.4888
   21CHL1  H18C 1510   6.859   3.769   8.602 -0.7717  0.9086  0.8667
   21CHL1   C12 1511   6.981   3.463   8.701 -0.1213 -0.5065  0.4109
   21CHL1  H12A 1512   6.915   3.408   8.631 -0.5238  1.7249 -1.0761
   21CHL1  H12B 1513   7.081   3.415   8.700 -0.5022 -1.5516  3.2107
   21CHL1   C11 1514   6.938   3.460   8.852  0.1511  0.7054  0.7512
   21CHL1  H11A 1515   6.835   3.503   8.850 -0.2216 -0.1743 -0.6126
   21CHL1  H11B 1516   6.944   3.354   8.886  1.6825  1.5979  3.5240
   21CHL1    C9 1517   7.022   3.552   8.948  0.5138 -0.1358 -0.7654
   21CHL1    H9 1518   7.124   3.510   8.955 -0.3614 -2.0628  3.0528
   21CHL1   C10 1519   6.976   3.565   9.101  0.7860  0.4468 -0.6697
   21CHL1   C19 1520   6.820   3.595   9.102  0.5208  0.9464  0.3038
   21CHL1  H19A 1521   6.787   3.619   9.206  1.4816  0.3238  0.7737
   21CHL1  H19B 1522   6.799   3.686   9.042 -2.1576  0.7014  0.7287
   21CHL1  H19C 1523   6.763   3.509   9.060 -1.8629  3.3833 -1.8058
   21CHL1    C1 1524   7.006   3.427   9.177 -0.7596  0.3799 -0.1273
   21CHL1   H1A 1525   6.946   3.352   9.122  0.1293 -0.8997  0.5901
   21CHL1   H1B 1526   7.109   3.390   9.159 -1.2088 -0.2318 -1.5507
   21CHL1    C2 1527   7.001   3.427   9.332  0.1250  0.1541  0.2019
   21CHL1   H2A 1528   7.041   3.332   9.373 -0.8244 -0.8997 -1.2017
   21CHL1   H2B 1529   6.892   3.438   9.353 -0.8321 -1.6528 -3.0617
   21CHL1   C20 1530   7.001   3.616   8.382  0.1326 -1.2912  0.3752
   21CHL1   H20 1531   6.902   3.667   8.384  1.4026  1.3783 -0.1572
   21CHL1   C21 1532   6.966   3.462   8.364  0.2287 -0.3894 -0.3556
   21CHL1  H21A 1533   7.058   3.401   8.374  2.2725  2.4526 -0.6811
   21CHL1  H21B 1534   6.919   3.437   8.267 -1.4281  3.9560 -0.9179
   21CHL1  H21C 1535   6.900   3.435   8.449  1.7801  2.0427  1.7511
   21CHL1   C22 1536   7.071   3.665   8.260 -0.7900  0.1088  0.0199
   21CHL1  H22A 1537   7.179   3.679   8.284 -0.0915 -0.6354 -2.3060
   21CHL1  H22B 1538   7.056   3.592   8.176  2.1215  0.1674 -0.6592
   21CHL1   C23 1539   7.022   3.799   8.205  0.3608  0.1306 -0.6807
   21CHL1  H23A 1540   6.995   3.875   8.282  1.5387  1.2973 -1.3791
   21CHL1  H23B 1541   7.102   3.852   8.149  1.0043  0.3946  0.4572
   21CHL1   C24 1542   6.902   3.792   8.111 -0.6876 -0.0674 -0.0758
   21CHL1  H24A 1543   6.823   3.738   8.168  0.3230  1.2332  2.7493
   21CHL1  H24B 1544   6.865   3.893   8.082  0.4131 -0.1513 -1.8655
   21CHL1   C25 1545   6.926   3.728   7.972  0.3454 -0.2361 -0.1299
   21CHL1   H25 1546   6.979   3.632   7.988  1.0940  0.3353  0.9176
   21CHL1   C26 1547   6.792   3.695   7.891 -0.9523  0.2653  0.4325
   21CHL1  H26A 1548   6.717   3.647   7.958 -1.6097 -1.6353 -1.5564
   21CHL1  H26B 1549   6.751   3.784   7.839 -0.2193  0.2943 -0.1052
   21CHL1  H26C 1550   6.821   3.615   7.819 -0.1015  1.2042 -0.2874
   21CHL1   C27 1551   7.025   3.805   7.886  0.3687 -0.2064  0.1586
   21CHL1  H27A 1552   7.041   3.747   7.793  2.4815  0.6330 -0.0373
   21CHL1  H27B 1553   6.986   3.907   7.865  2.9132  1.6348  3.3961
   21CHL1  H27C 1554   7.124   3.813   7.935 -0.1597 -1.7075  1.5848
   22CHL1    C3 1555   6.832   4.025   9.326  0.4037  0.5814 -0.1158
   22CHL1    H3 1556   6.913   3.955   9.294  0.7841  0.6578  0.6595
   22CHL1    O3 1557   6.815   3.987   9.456  0.0005  0.0264  0.4050
   22CHL1   H3' 1558   6.727   3.950   9.465 -0.0805 -0.0749 -0.6954
   22CHL1    C4 1559   6.870   4.171   9.320 -0.5020 -0.2504 -1.1007
   22CHL1   H4A 1560   6.810   4.245   9.377  1.5262  0.2924  0.4362
   22CHL1   H4B 1561   6.970   4.178   9.368 -1.0810 -0.5837  0.1956
   22CHL1    C5 1562   6.877   4.218   9.180  0.1891  0.1957  0.4114
   22CHL1    C6 1563   6.984   4.275   9.122 -0.0025 -0.7927  0.4784
   22CHL1    H6 1564   7.069   4.302   9.186  0.0341  0.4188 -0.0605
   22CHL1    C7 1565   7.001   4.326   8.974 -0.1689  0.2931  0.2093
   22CHL1   H7A 1566   7.031   4.433   8.970  1.1120 -0.0826 -0.9750
   22CHL1   H7B 1567   7.056   4.254   8.911  0.6347 -0.9272  2.1948
   22CHL1    C8 1568   6.863   4.336   8.912 -0.5607 -0.0656  0.0502
   22CHL1    H8 1569   6.809   4.429   8.941 -0.3367 -0.2247  1.0306
   22CHL1   C14 1570   6.881   4.341   8.759  0.0346  0.3094 -0.0734
   22CHL1   H14 1571   6.925   4.243   8.732 -2.3700 -1.0852  0.6937
   22CHL1   C15 1572   6.972   4.451   8.707 -0.3651  0.1164 -0.1109
   22CHL1  H15A 1573   6.949   4.542   8.766 -3.0789  0.1922 -1.1540
   22CHL1  H15B 1574   7.079   4.425   8.719 -0.7731 -0.7846  2.0600
   22CHL1   C16 1575   6.926   4.473   8.561  0.3654  0.2311  0.2279
   22CHL1  H16A 1576   6.906   4.579   8.536  1.0249  0.6136  1.2579
   22CHL1  H16B 1577   7.009   4.426   8.504  0.8811 -1.7303  2.4484
   22CHL1   C17 1578   6.800   4.393   8.545 -0.1657 -1.2644 -0.6240
   22CHL1   H17 1579   6.827   4.296   8.497 -0.5796 -2.0884  0.7570
   22CHL1   C13 1580   6.749   4.359   8.683  0.7737  0.9698  0.4437
   22CHL1   C18 1581   6.663   4.482   8.736  0.0041 -0.0064 -0.5733
   22CHL1  H18A 1582   6.720   4.577   8.740  1.8563 -1.1095  0.5521
   22CHL1  H18B 1583   6.562   4.483   8.690 -0.5985 -0.1135  0.6775
   22CHL1  H18C 1584   6.637   4.464   8.843 -0.5849  1.5194 -0.4204
   22CHL1   C12 1585   6.676   4.224   8.705  0.4746  1.0719  0.4641
   22CHL1  H12A 1586   6.579   4.234   8.651  1.0084 -0.8787 -0.9722
   22CHL1  H12B 1587   6.738   4.145   8.658  0.0773  1.2755 -0.4341
   22CHL1   C11 1588   6.648   4.195   8.853  0.1859 -0.7549  0.0059
   22CHL1  H11A 1589   6.581   4.275   8.892 -0.9884 -1.8705  0.3542
   22CHL1  H11B 1590   6.600   4.098   8.879 -0.8804  0.3469  2.4684
   22CHL1    C9 1591   6.776   4.216   8.940 -0.9673  0.0015 -0.3634
   22CHL1    H9 1592   6.837   4.132   8.900 -1.7909 -0.7500 -0.0900
   22CHL1   C10 1593   6.750   4.189   9.092  0.0148  0.2152  0.4815
   22CHL1   C19 1594   6.628   4.272   9.140  0.5323 -0.1109 -0.4283
   22CHL1  H19A 1595   6.598   4.258   9.246 -0.7126 -1.2789 -0.9103
   22CHL1  H19B 1596   6.628   4.380   9.112 -0.7423 -0.4053 -1.6498
   22CHL1  H19C 1597   6.532   4.243   9.093  1.7057 -2.1837 -1.6777
   22CHL1    C1 1598   6.714   4.039   9.105  1.1256  0.0145 -0.0492
   22CHL1   H1A 1599   6.617   4.011   9.059 -0.1699  2.2725  1.1444
   22CHL1   H1B 1600   6.792   3.985   9.047  2.1507  1.5934 -0.1789
   22CHL1    C2 1601   6.695   3.994   9.248 -0.2456 -0.6844 -1.0575
   22CHL1   H2A 1602   6.673   3.886   9.243 -0.3236 -0.8074  0.9776
   22CHL1   H2B 1603   6.607   4.044   9.293 -0.6830 -1.1251 -1.4232
   22CHL1   C20 1604   6.707   4.452   8.438 -0.3678 -0.5012 -0.2561
   22CHL1   H20 1605   6.657   4.541   8.482 -0.2160 -1.5551  2.1960
   22CHL1   C21 1606   6.601   4.345   8.405  0.9334 -0.5609 -0.3160
   22CHL1  H21A 1607   6.525   4.330   8.485 -0.9571  1.2950 -1.6827
   22CHL1  H21B 1608   6.648   4.250   8.372  1.3862 -0.2782 -0.4957
   22CHL1  H21C 1609   6.549   4.380   8.314  0.5783 -0.3043 -0.0171
   22CHL1   C22 1610   6.771   4.498   8.304  0.8809  0.3027  0.2592
   22CHL1  H22A 1611   6.688   4.535   8.240  0.4084  0.1452  0.7700
   22CHL1  H22B 1612   6.839   4.585   8.319  1.7549 -0.3882  0.3421
   22CHL1   C23 1613   6.843   4.388   8.220  0.0936  0.5055 -0.2806
   22CHL1  H23A 1614   6.944   4.383   8.266  0.7406  1.7202 -1.4981
   22CHL1  H23B 1615   6.789   4.291   8.221  0.9788 -0.0629 -2.5832
   22CHL1   C24 1616   6.858   4.423   8.072 -0.1537  0.5984 -0.3659
   22CHL1  H24A 1617   6.766   4.436   8.011  0.9006 -1.5917 -2.5788
   22CHL1  H24B 1618   6.905   4.524   8.063  0.2215  0.3852 -0.8891
   22CHL1   C25 1619   6.949   4.321   7.995 -1.1214 -0.5498 -0.2199
   22CHL1   H25 1620   7.052   4.319   8.038 -1.7203 -1.2340  1.2398
   22CHL1   C26 1621   6.903   4.177   8.004  0.3006 -0.4974  0.4174
   22CHL1  H26A 1622   6.793   4.167   7.995  0.1977  1.0966 -0.4136
   22CHL1  H26B 1623   6.956   4.112   7.932 -1.1817 -1.1616 -0.1060
   22CHL1  H26C 1624   6.931   4.128   8.100  0.0392 -0.0128  0.7466
   22CHL1   C27 1625   6.958   4.369   7.840 -0.0723 -0.2948 -0.6499
   22CHL1  H27A 1626   7.022   4.292   7.790  1.0800 -0.1995  0.6190
   22CHL1  H27B 1627   6.856   4.358   7.798 -0.7461  1.1456  0.5285
   22CHL1  H27C 1628   6.992   4.474   7.829 -1.6707  0.1397 -1.8382
   23CHL1    C3 1629   3.633   6.860   9.494  0.5658  0.2547  0.7075
   23CHL1    H3 1630   3.742   6.874   9.481  0.6614  0.0747  1.2897
   23CHL1    O3 1631   3.601   6.810   9.622  0.5659 -0.2305  0.0470
   23CHL1   H3' 1632   3.624   6.717   9.611 -0.1231 -0.3689 -0.3130
   23CHL1    C4 1633   3.563   6.995   9.477 -0.3101  0.1173 -0.1010
   23CHL1   H4A 1634   3.455   6.986   9.502  0.4756 -0.4446  3.8511
   23CHL1   H4B 1635   3.603   7.058   9.560 -0.7164 -1.7580  1.6132
   23CHL1    C5 1636   3.588   7.047   9.342 -0.1522 -0.0583 -0.3726
   23CHL1    C6 1637   3.645   7.163   9.312  0.2954  0.4812  0.2692
   23CHL1    H6 1638   3.671   7.231   9.394 -0.8682 -1.1853  2.0957
   23CHL1    C7 1639   3.670   7.221   9.173  0.7689  0.0125 -0.2013
   23CHL1   H7A 1640   3.633   7.326   9.173  0.5302 -0.0661  0.5353
   23CHL1   H7B 1641   3.779   7.212   9.158  0.7042 -0.1441 -0.5881
   23CHL1    C8 1642   3.592   7.145   9.061 -0.3341 -0.5674  0.2421
   23CHL1    H8 1643   3.483   7.162   9.063 -0.2338  0.5440  3.4618
   23CHL1   C14 1644   3.658   7.174   8.923 -0.1142  0.0665 -0.6489
   23CHL1   H14 1645   3.758   7.126   8.926  0.1149  0.4891  2.9677
   23CHL1   C15 1646   3.678   7.324   8.874 -0.5535 -0.1609 -0.7558
   23CHL1  H15A 1647   3.580   7.370   8.899 -0.1482  0.3110 -0.0000
   23CHL1  H15B 1648   3.758   7.375   8.932  0.1888 -0.2905 -1.6384
   23CHL1   C16 1649   3.701   7.315   8.727 -0.1284  0.0668 -0.0824
   23CHL1  H16A 1650   3.633   7.385   8.673 -0.1728  0.6628  0.7219
   23CHL1  H16B 1651   3.806   7.332   8.693 -0.4579  3.1458  0.1018
   23CHL1   C17 1652   3.670   7.171   8.689 -0.4615 -0.9251 -0.3939
   23CHL1   H17 1653   3.764   7.119   8.717  1.6157  2.3007 -0.9484
   23CHL1   C13 1654   3.578   7.116   8.805  0.4029  0.4086  0.9542
   23CHL1   C18 1655   3.440   7.172   8.788 -0.9441 -0.2625  0.0340
   23CHL1  H18A 1656   3.387   7.111   8.712  0.9490 -0.7201 -0.9833
   23CHL1  H18B 1657   3.385   7.167   8.885  1.8623  1.7458  1.8869
   23CHL1  H18C 1658   3.448   7.278   8.757 -1.1611  0.2104  1.4910
   23CHL1   C12 1659   3.570   6.967   8.823 -0.4389  0.2892  0.0412
   23CHL1  H12A 1660   3.514   6.913   8.743  1.6099  0.3915 -1.5519
   23CHL1  H12B 1661   3.668   6.917   8.814 -0.8790 -1.0612  2.1552
   23CHL1   C11 1662   3.529   6.922   8.963 -0.3271 -0.4241 -0.2020
   23CHL1  H11A 1663   3.420   6.941   8.970 -0.2681  0.0366 -0.4528
   23CHL1  H11B 1664   3.546   6.813   8.972  0.3445 -0.3507 -0.5157
   23CHL1    C9 1665   3.606   6.998   9.083  0.5371  0.5452 -0.0398
   23CHL1    H9 1666   3.715   6.976   9.086  0.4182 -0.3334 -1.1886
   23CHL1   C10 1667   3.555   6.947   9.224 -0.2593 -0.3876  0.6093
   23CHL1   C19 1668   3.401   6.943   9.223  0.0604  0.2699 -0.2375
   23CHL1  H19A 1669   3.369   6.869   9.146  1.2327 -2.3061  1.6054
   23CHL1  H19B 1670   3.359   6.890   9.312 -3.1249  0.6246 -1.4020
   23CHL1  H19C 1671   3.353   7.042   9.208  2.9435  1.8946  0.4014
   23CHL1    C1 1672   3.614   6.807   9.240 -0.1775  0.3529 -0.0718
   23CHL1   H1A 1673   3.583   6.725   9.172  4.0597 -0.3684 -1.4228
   23CHL1   H1B 1674   3.723   6.817   9.220  0.1532  1.5171  1.9807
   23CHL1    C2 1675   3.589   6.757   9.384  0.5524 -0.6956  0.6821
   23CHL1   H2A 1676   3.645   6.662   9.398  0.7078 -0.9338 -1.3161
   23CHL1   H2B 1677   3.484   6.723   9.392  0.2908  0.0033  0.2595
   23CHL1   C20 1678   3.620   7.141   8.550  0.0922  0.1134 -0.2325
   23CHL1   H20 1679   3.568   7.043   8.555  0.7549 -0.4880 -3.1646
   23CHL1   C21 1680   3.747   7.117   8.460  0.2043  0.2122 -0.6534
   23CHL1  H21A 1681   3.796   7.024   8.496  0.2241  0.5527  0.2359
   23CHL1  H21B 1682   3.817   7.204   8.458 -0.1697  0.4931 -2.2578
   23CHL1  H21C 1683   3.726   7.112   8.351 -0.5843  0.5791 -0.5258
   23CHL1   C22 1684   3.514   7.232   8.486 -0.1444 -0.4347  0.4206
   23CHL1  H22A 1685   3.437   7.268   8.559  1.3189  0.5525  1.5399
   23CHL1  H22B 1686   3.573   7.317   8.446  1.6009 -1.5543  0.5059
   23CHL1   C23 1687   3.420   7.168   8.376 -0.3425 -0.1371  0.8617
   23CHL1  H23A 1688   3.481   7.133   8.291 -0.3389  2.6604 -0.3858
   23CHL1  H23B 1689   3.380   7.083   8.436 -0.5940  0.2964  1.3217
   23CHL1   C24 1690   3.315   7.264   8.334  0.2854  0.2368  0.6636
   23CHL1  H24A 1691   3.257   7.296   8.423 -1.0985 -2.3791  0.8026
   23CHL1  H24B 1692   3.366   7.347   8.282 -0.7672 -0.4843 -1.6786
   23CHL1   C25 1693   3.213   7.204   8.232 -0.2112 -0.0317 -0.8008
   23CHL1   H25 1694   3.172   7.114   8.283  2.9518 -0.3281  1.5507
   23CHL1   C26 1695   3.109   7.314   8.187  0.3549  0.5053 -0.0041
   23CHL1  H26A 1696   3.057   7.362   8.273  0.7568  0.1840  0.4279
   23CHL1  H26B 1697   3.142   7.405   8.132 -0.4852  1.1150  0.4639
   23CHL1  H26C 1698   3.032   7.251   8.137  0.0751 -1.8123  3.0290
   23CHL1   C27 1699   3.289   7.148   8.109  0.1751 -0.4120 -0.1075
   23CHL1  H27A 1700   3.213   7.120   8.032  1.5140 -0.9281 -1.2909
   23CHL1  H27B 1701   3.357   7.228   8.072  0.0439  0.1484  0.8458
   23CHL1  H27C 1702   3.338   7.052   8.135 -1.7304 -1.7504 -1.1549
   24CHL1    C3 1703   4.166   6.784   9.338 -0.2761 -0.3137 -0.7995
   24CHL1    H3 1704   4.207   6.686   9.305  0.4192  0.0321 -0.9971
   24CHL1    O3 1705   4.155   6.788   9.477 -0.0035 -0.2047 -0.4681
   24CHL1   H3' 1706   4.076   6.737   9.496  1.3049 -1.9960  0.4559
   24CHL1    C4 1707   4.267   6.890   9.301  0.1586  0.0113 -0.1827
   24CHL1   H4A 1708   4.230   6.988   9.338  1.1500  0.0791  0.6826
   24CHL1   H4B 1709   4.366   6.869   9.346 -0.5435 -0.2104  1.3366
   24CHL1    C5 1710   4.273   6.906   9.153  0.3582 -0.0242 -0.2862
   24CHL1    C6 1711   4.390   6.906   9.090  0.0119 -0.0809  0.0719
   24CHL1    H6 1712   4.482   6.893   9.148  0.1840  4.7349  1.2889
   24CHL1    C7 1713   4.397   6.922   8.938  1.1941 -0.5284 -0.2653
   24CHL1   H7A 1714   4.485   6.989   8.924  0.9402  0.0487  0.8205
   24CHL1   H7B 1715   4.419   6.827   8.884  1.0588 -0.3561 -0.6228
   24CHL1    C8 1716   4.272   6.987   8.868  0.5634 -0.2779 -0.3368
   24CHL1    H8 1717   4.274   7.096   8.889  0.0473 -0.2831 -0.2528
   24CHL1   C14 1718   4.276   6.963   8.718  0.2180  0.6063  0.0684
   24CHL1   H14 1719   4.286   6.855   8.693  0.8082  0.6961 -0.0950
   24CHL1   C15 1720   4.390   7.023   8.637  0.5651 -0.2478  0.8110
   24CHL1  H15A 1721   4.413   7.124   8.676  1.2137 -0.3897  0.8065
   24CHL1  H15B 1722   4.489   6.974   8.645  0.6069 -0.1960  0.6025
   24CHL1   C16 1723   4.337   7.044   8.490 -0.1134 -0.3010  0.8875
   24CHL1  H16A 1724   4.357   7.146   8.450  3.7865 -1.1725  0.1709
   24CHL1  H16B 1725   4.396   6.991   8.411 -0.5541  0.8306 -0.2340
   24CHL1   C17 1726   4.196   6.991   8.493 -0.4182 -0.3504 -0.7411
   24CHL1   H17 1727   4.196   6.880   8.495 -2.3966 -0.4574  3.7337
   24CHL1   C13 1728   4.149   7.022   8.646 -0.5562  0.5059 -0.4011
   24CHL1   C18 1729   4.129   7.167   8.669 -0.1183 -0.5416 -0.3289
   24CHL1  H18A 1730   4.217   7.232   8.651 -0.7295  0.0740 -1.2093
   24CHL1  H18B 1731   4.041   7.199   8.609 -0.4987 -2.7028 -1.0125
   24CHL1  H18C 1732   4.113   7.187   8.777  2.2823 -2.4128  0.4472
   24CHL1   C12 1733   4.029   6.943   8.695  0.1449 -0.3569 -0.1439
   24CHL1  H12A 1734   3.938   6.988   8.652  0.8199  0.9872 -0.2120
   24CHL1  H12B 1735   4.032   6.837   8.662  0.0567 -0.4304  0.0851
   24CHL1   C11 1736   4.018   6.961   8.850 -0.9176  0.0408  0.4911
   24CHL1  H11A 1737   4.000   7.068   8.876 -0.6470  0.1015  0.4357
   24CHL1  H11B 1738   3.930   6.902   8.884 -0.0283 -1.2245  0.6694
   24CHL1    C9 1739   4.145   6.914   8.923 -0.0464 -0.6790  0.0625
   24CHL1    H9 1740   4.165   6.809   8.891  0.7659  0.1516 -2.3294
   24CHL1   C10 1741   4.133   6.924   9.079 -0.6064 -0.9103 -0.9377
   24CHL1   C19 1742   4.094   7.069   9.122  0.5807 -0.6171 -0.1376
   24CHL1  H19A 1743   4.165   7.147   9.085 -0.0894  0.8932  1.6063
   24CHL1  H19B 1744   3.992   7.092   9.082 -0.1041 -1.1858  1.2172
   24CHL1  H19C 1745   4.085   7.076   9.232 -0.7510  0.2736 -0.2765
   24CHL1    C1 1746   4.023   6.821   9.135  0.2194  0.2464  0.2148
   24CHL1   H1A 1747   3.922   6.857   9.104  0.6054 -0.1651 -1.6754
   24CHL1   H1B 1748   4.033   6.722   9.086 -1.2683 -0.3106  0.9672
   24CHL1    C2 1749   4.022   6.810   9.288  0.2457 -0.1516 -0.2199
   24CHL1   H2A 1750   3.957   6.732   9.332  2.0288 -1.0420  0.9949
   24CHL1   H2B 1751   4.004   6.906   9.341 -1.8128 -0.1647 -0.8272
   24CHL1   C20 1752   4.107   7.027   8.378 -0.0153  0.4984 -0.0482
   24CHL1   H20 1753   4.008   6.989   8.413  0.1705  0.0587  0.0048
   24CHL1   C21 1754   4.146   6.937   8.255 -0.1076  0.5774  0.2086
   24CHL1  H21A 1755   4.224   6.997   8.203  0.7364 -0.5128  0.1643
   24CHL1  H21B 1756   4.063   6.907   8.188 -0.2469  1.1339  0.1342
   24CHL1  H21C 1757   4.192   6.840   8.285 -1.6638  0.4724  2.4604
   24CHL1   C22 1758   4.098   7.174   8.342  0.4464 -0.8681  0.0468
   24CHL1  H22A 1759   4.054   7.234   8.424  0.7376 -0.2687 -0.2225
   24CHL1  H22B 1760   4.201   7.214   8.329  0.3170 -0.3168  0.7124
   24CHL1   C23 1761   4.012   7.206   8.214 -0.2171  0.8978  0.3789
   24CHL1  H23A 1762   4.066   7.193   8.118 -0.0398  1.1022  0.4523
   24CHL1  H23B 1763   3.921   7.142   8.213 -2.2268  3.4573  2.7556
   24CHL1   C24 1764   3.952   7.339   8.218  1.1664 -0.0295  0.7406
   24CHL1  H24A 1765   3.891   7.351   8.310  0.0544 -1.2328  0.1862
   24CHL1  H24B 1766   4.032   7.415   8.232 -0.5870  2.3812 -1.3878
   24CHL1   C25 1767   3.859   7.374   8.094 -0.0285 -0.3517 -0.1574
   24CHL1   H25 1768   3.789   7.291   8.074  0.4356 -0.2528 -2.4937
   24CHL1   C26 1769   3.761   7.494   8.116  0.1510  0.2957 -0.2356
   24CHL1  H26A 1770   3.682   7.455   8.185 -0.8298 -0.4400 -1.7353
   24CHL1  H26B 1771   3.813   7.582   8.159 -1.7443  1.4376 -0.1890
   24CHL1  H26C 1772   3.709   7.514   8.020  1.7697  0.7782 -1.0405
   24CHL1   C27 1773   3.944   7.397   7.971 -0.3092 -0.1722 -0.2796
   24CHL1  H27A 1774   3.874   7.429   7.892 -0.4716  1.3058  0.4254
   24CHL1  H27B 1775   4.024   7.470   7.996  0.2177 -0.8141 -0.0320
   24CHL1  H27C 1776   3.995   7.301   7.948 -1.1409 -0.7155  0.0790
   25CHL1    C3 1777   4.511   0.184   9.321  0.4422  0.2149  0.9583
   25CHL1    H3 1778   4.613   0.171   9.362 -0.3985 -2.5696  2.4672
   25CHL1    O3 1779   4.412   0.204   9.425  0.4067  0.2324 -0.1016
   25CHL1   H3' 1780   4.343   0.137   9.416  0.6379  0.0817 -0.8108
   25CHL1    C4 1781   4.509   0.312   9.236  1.0285 -0.1411 -0.0973
   25CHL1   H4A 1782   4.407   0.349   9.210  1.7051  1.2826 -0.7783
   25CHL1   H4B 1783   4.552   0.385   9.307  1.6383  0.0599 -0.6667
   25CHL1    C5 1784   4.596   0.309   9.113 -0.5653 -0.9585  0.5616
   25CHL1    C6 1785   4.691   0.399   9.075 -0.1883  0.6367  0.6671
   25CHL1    H6 1786   4.722   0.475   9.148  1.8150 -0.2879  0.8645
   25CHL1    C7 1787   4.761   0.386   8.938 -0.1050  0.3389 -0.2804
   25CHL1   H7A 1788   4.759   0.484   8.885 -0.0190 -0.1709 -1.2370
   25CHL1   H7B 1789   4.869   0.363   8.950 -0.3431 -0.3692  0.5630
   25CHL1    C8 1790   4.692   0.297   8.835  0.2109  0.3424 -0.0093
   25CHL1    H8 1791   4.611   0.361   8.795  1.7733  1.7719 -1.0507
   25CHL1   C14 1792   4.788   0.265   8.732 -0.2683  1.0098  1.0755
   25CHL1   H14 1793   4.873   0.205   8.771 -0.6549 -0.5360 -0.3020
   25CHL1   C15 1794   4.861   0.384   8.667 -0.1372  0.6258 -0.3294
   25CHL1  H15A 1795   4.787   0.465   8.645  1.1469  1.1682 -3.0949
   25CHL1  H15B 1796   4.938   0.436   8.729 -0.7870  1.6690 -0.3709
   25CHL1   C16 1797   4.920   0.324   8.535  0.2951 -0.3427 -0.8426
   25CHL1  H16A 1798   4.919   0.390   8.446 -1.7357 -2.5396 -2.5616
   25CHL1  H16B 1799   5.025   0.297   8.562  0.0730  1.8384  3.0224
   25CHL1   C17 1800   4.848   0.189   8.515  0.6154 -0.6102  0.0375
   25CHL1   H17 1801   4.907   0.106   8.560 -1.5170 -1.8456  0.7042
   25CHL1   C13 1802   4.732   0.183   8.614  0.6001 -0.4343 -0.1045
   25CHL1   C18 1803   4.605   0.262   8.551  0.5434  0.0770  0.2611
   25CHL1  H18A 1804   4.534   0.279   8.634  1.0869 -3.0330  1.4863
   25CHL1  H18B 1805   4.643   0.361   8.517  1.7840  0.1212  1.6718
   25CHL1  H18C 1806   4.554   0.212   8.466 -2.2602 -1.4666  2.6576
   25CHL1   C12 1807   4.683   0.051   8.669  0.0286  0.2451 -1.1754
   25CHL1  H12A 1808   4.629  -0.020   8.603 -0.3801 -0.4418 -0.1323
   25CHL1  H12B 1809   4.776   0.002   8.704  0.1333  0.6970 -0.8031
   25CHL1   C11 1810   4.600   0.063   8.797  0.4132  0.3247  0.2635
   25CHL1  H11A 1811   4.496   0.078   8.762  0.1307 -0.2097  0.8682
   25CHL1  H11B 1812   4.599  -0.034   8.852 -0.3729  0.2595  0.1489
   25CHL1    C9 1813   4.652   0.162   8.893 -0.0467 -0.1979  0.1581
   25CHL1    H9 1814   4.739   0.107   8.934 -1.0338 -2.7772 -1.0169
   25CHL1   C10 1815   4.562   0.190   9.020 -0.1334  0.1088 -0.2389
   25CHL1   C19 1816   4.414   0.217   8.965 -0.2049  0.3235 -0.6845
   25CHL1  H19A 1817   4.335   0.232   9.041 -1.4127 -1.9715 -1.3893
   25CHL1  H19B 1818   4.427   0.310   8.907  2.0732 -0.0389 -0.8399
   25CHL1  H19C 1819   4.378   0.128   8.910 -1.8209  0.1787  0.5434
   25CHL1    C1 1820   4.560   0.061   9.111 -0.5696 -0.4237 -0.0687
   25CHL1   H1A 1821   4.544  -0.032   9.052 -0.0684  0.0061 -0.8963
   25CHL1   H1B 1822   4.661   0.050   9.158 -1.6482 -0.3262  2.4427
   25CHL1    C2 1823   4.470   0.069   9.236 -0.2602  0.6899  0.9045
   25CHL1   H2A 1824   4.479  -0.024   9.297  0.5781 -0.5180 -0.9790
   25CHL1   H2B 1825   4.366   0.085   9.199  0.4182  1.4747 -0.7726
   25CHL1   C20 1826   4.818   0.156   8.364 -0.6129  0.2226 -0.0264
   25CHL1   H20 1827   4.777   0.253   8.329  1.8646  0.6287 -2.0473
   25CHL1   C21 1828   4.729   0.024   8.350 -0.8328 -0.2688  0.3045
   25CHL1  H21A 1829   4.758  -0.029   8.257 -0.0728 -0.6135  0.7314
   25CHL1  H21B 1830   4.619   0.035   8.364 -0.7166 -0.6635  1.7254
   25CHL1  H21C 1831   4.775  -0.040   8.429 -0.2356  0.6257  0.6991
   25CHL1   C22 1832   4.945   0.132   8.284  0.1970  0.3092 -0.7669
   25CHL1  H22A 1833   5.039   0.180   8.320  1.6478 -3.0289  0.3792
   25CHL1  H22B 1834   4.965   0.026   8.313 -0.2421  0.4506  0.0896
   25CHL1   C23 1835   4.933   0.133   8.132  0.1351  0.4099  0.0290
   25CHL1  H23A 1836   4.838   0.084   8.104  1.5410 -2.4664 -0.0343
   25CHL1  H23B 1837   4.946   0.235   8.088  1.7480 -0.1200 -0.8339
   25CHL1   C24 1838   5.055   0.053   8.073 -0.3187 -0.8794 -0.3900
   25CHL1  H24A 1839   5.142   0.080   8.136 -1.3867 -0.6212  1.0378
   25CHL1  H24B 1840   5.026  -0.054   8.089  0.1106 -1.2980 -2.1966
   25CHL1   C25 1841   5.089   0.089   7.930  0.2610 -0.2166 -0.0569
   25CHL1   H25 1842   5.117   0.197   7.930  0.8007 -0.3464  0.7378
   25CHL1   C26 1843   5.208   0.005   7.874 -0.6273 -0.0679  0.9794
   25CHL1  H26A 1844   5.237   0.034   7.771 -1.1020  1.6493  1.3001
   25CHL1  H26B 1845   5.299   0.019   7.935  1.6143  2.5940 -2.5553
   25CHL1  H26C 1846   5.175  -0.100   7.886 -0.0929 -0.4846 -0.7861
   25CHL1   C27 1847   4.969   0.085   7.840  0.2828 -0.3178 -0.0550
   25CHL1  H27A 1848   4.899   0.159   7.884  0.5046 -0.5721  0.7349
   25CHL1  H27B 1849   4.994   0.112   7.735  1.6037  1.3073  0.6389
   25CHL1  H27C 1850   4.934  -0.020   7.851  1.1390 -0.4087  2.2921
   26CHL1    C3 1851   0.296   4.121   9.264  0.8303  0.0110 -0.1847
   26CHL1    H3 1852   0.329   4.018   9.237  0.5718  0.0630 -0.7006
   26CHL1    O3 1853   0.314   4.123   9.400  0.0438  0.4768 -0.0121
   26CHL1   H3' 1854   0.390   4.179   9.421  2.6843 -3.2695  1.5295
   26CHL1    C4 1855   0.380   4.228   9.195  1.1672 -1.1598 -0.2068
   26CHL1   H4A 1856   0.346   4.331   9.219 -0.3068 -1.8648  0.9287
   26CHL1   H4B 1857   0.483   4.217   9.234  0.6009  0.6874  2.0770
   26CHL1    C5 1858   0.386   4.224   9.044  0.1097 -1.3464 -0.4413
   26CHL1    C6 1859   0.495   4.218   8.971 -0.0461 -0.1223  0.4204
   26CHL1    H6 1860   0.593   4.215   9.021  1.8598 -1.1685 -2.9898
   26CHL1    C7 1861   0.487   4.227   8.820 -0.3602 -0.1455  0.3420
   26CHL1   H7A 1862   0.572   4.295   8.796  0.1385 -0.6410  0.6767
   26CHL1   H7B 1863   0.509   4.125   8.782 -3.2515 -0.2478 -1.3422
   26CHL1    C8 1864   0.352   4.275   8.763 -0.1636  0.5408 -0.2812
   26CHL1    H8 1865   0.341   4.383   8.782 -0.8008  0.7147 -1.5150
   26CHL1   C14 1866   0.343   4.233   8.619  0.0230  0.0385  0.4358
   26CHL1   H14 1867   0.338   4.122   8.608  0.0973 -0.1028  1.6271
   26CHL1   C15 1868   0.456   4.262   8.524  0.1228 -0.1962  0.0674
   26CHL1  H15A 1869   0.494   4.364   8.545  2.0732 -1.0395  0.8851
   26CHL1  H15B 1870   0.545   4.196   8.533  1.2739  1.2242 -0.5651
   26CHL1   C16 1871   0.397   4.238   8.385 -0.0510  0.2898 -0.8170
   26CHL1  H16A 1872   0.427   4.319   8.315 -0.8166 -1.0431 -2.8000
   26CHL1  H16B 1873   0.427   4.145   8.333  1.2524  0.9889 -1.3654
   26CHL1   C17 1874   0.243   4.237   8.404 -0.4897 -0.4876 -0.0896
   26CHL1   H17 1875   0.217   4.130   8.393  0.4723 -0.6707 -0.6945
   26CHL1   C13 1876   0.217   4.282   8.550  0.6182 -0.4523 -0.0059
   26CHL1   C18 1877   0.221   4.441   8.554 -0.2763  0.0820 -0.5027
   26CHL1  H18A 1878   0.122   4.481   8.525  0.2183  0.7770 -1.2846
   26CHL1  H18B 1879   0.239   4.469   8.660 -1.0668 -0.3583 -0.2447
   26CHL1  H18C 1880   0.288   4.488   8.479 -1.5234  4.2111  0.7116
   26CHL1   C12 1881   0.097   4.219   8.621  0.1633  1.4545 -0.0247
   26CHL1  H12A 1882  -0.002   4.253   8.583 -1.1408  1.3924  3.0573
   26CHL1  H12B 1883   0.096   4.109   8.602 -1.0490  1.1887  1.4712
   26CHL1   C11 1884   0.103   4.240   8.774  0.9460 -0.7862 -0.2626
   26CHL1  H11A 1885   0.099   4.350   8.786  3.5061 -0.7054  0.2076
   26CHL1  H11B 1886   0.011   4.205   8.825 -0.1817  1.8413 -0.3419
   26CHL1    C9 1887   0.235   4.201   8.835 -0.6419  0.1709  0.3829
   26CHL1    H9 1888   0.250   4.092   8.823  3.4147  0.3203  2.3965
   26CHL1   C10 1889   0.234   4.227   8.983 -0.9109 -0.9653 -0.2013
   26CHL1   C19 1890   0.168   4.375   9.009  0.2766  0.3280 -0.3310
   26CHL1  H19A 1891   0.060   4.366   8.983  0.3835 -0.3833 -0.5526
   26CHL1  H19B 1892   0.182   4.388   9.118  2.9946  1.4421 -0.7417
   26CHL1  H19C 1893   0.222   4.457   8.957  1.6458 -0.2367  0.1596
   26CHL1    C1 1894   0.156   4.114   9.060  0.4747 -1.1367 -0.5279
   26CHL1   H1A 1895   0.054   4.093   9.023  0.8942 -4.0539 -0.2753
   26CHL1   H1B 1896   0.202   4.013   9.055  0.8566 -0.9532 -0.8007
   26CHL1    C2 1897   0.152   4.140   9.211 -0.2432 -0.4492 -0.1260
   26CHL1   H2A 1898   0.090   4.070   9.271 -0.0513 -0.0050  0.6071
   26CHL1   H2B 1899   0.121   4.242   9.242 -0.1618 -0.5787  0.3833
   26CHL1   C20 1900   0.180   4.320   8.293 -0.4738 -0.1632 -0.5006
   26CHL1   H20 1901   0.222   4.423   8.301 -0.4140 -0.1954 -0.4014
   26CHL1   C21 1902   0.023   4.316   8.314 -0.0255 -0.9504 -0.2556
   26CHL1  H21A 1903  -0.023   4.364   8.225 -0.3049  0.5447  0.6591
   26CHL1  H21B 1904   0.003   4.368   8.410  1.3234  1.3763 -1.1411
   26CHL1  H21C 1905  -0.009   4.209   8.317 -1.2768 -0.6426 -1.5834
   26CHL1   C22 1906   0.212   4.266   8.152 -0.6425  0.5583  1.7997
   26CHL1  H22A 1907   0.314   4.223   8.145 -0.1927  1.8209 -0.1587
   26CHL1  H22B 1908   0.131   4.192   8.142  0.2129 -0.2041  0.1678
   26CHL1   C23 1909   0.193   4.369   8.036 -0.2329 -0.5422  0.1243
   26CHL1  H23A 1910   0.091   4.412   8.042 -0.5434 -1.3419  0.6703
   26CHL1  H23B 1911   0.267   4.452   8.036 -0.0342 -0.7176  0.3715
   26CHL1   C24 1912   0.209   4.299   7.895  0.8452  0.1759 -0.2999
   26CHL1  H24A 1913   0.301   4.237   7.897  0.7193 -0.0242 -0.5577
   26CHL1  H24B 1914   0.128   4.224   7.884 -0.8247  1.9331 -0.6349
   26CHL1   C25 1915   0.217   4.400   7.773 -0.6332  0.1229  0.2358
   26CHL1   H25 1916   0.289   4.478   7.804 -0.2074 -0.3244  0.3919
   26CHL1   C26 1917   0.253   4.326   7.638 -0.2298 -0.3771 -0.4101
   26CHL1  H26A 1918   0.258   4.394   7.550  1.1646  0.5105  0.3304
   26CHL1  H26B 1919   0.355   4.285   7.649  0.2427  0.9415  0.3087
   26CHL1  H26C 1920   0.177   4.246   7.622 -0.8229 -0.1642  1.2024
   26CHL1   C27 1921   0.094   4.485   7.740 -0.7081 -0.8612 -0.0268
   26CHL1  H27A 1922   0.119   4.556   7.659 -1.1862  2.3070  2.4006
   26CHL1  H27B 1923   0.007   4.418   7.722 -1.5028  0.1173  0.0546
   26CHL1  H27C 1924   0.078   4.553   7.826  1.3107 -0.3984  0.0404
   27CHL1    C3 1925   0.293   1.468   9.355 -0.2647 -0.2731  0.1012
   27CHL1    H3 1926   0.229   1.379   9.339  0.5818 -0.6714 -1.1943
   27CHL1    O3 1927   0.316   1.470   9.500  0.6909 -1.2912  0.1010
   27CHL1   H3' 1928   0.367   1.551   9.510 -1.1539  0.1727 -1.4295
   27CHL1    C4 1929   0.421   1.466   9.260  0.7326  0.0439 -0.3334
   27CHL1   H4A 1930   0.478   1.561   9.268  0.7131 -0.0029  0.3901
   27CHL1   H4B 1931   0.494   1.389   9.293  0.3828 -0.5950 -1.0085
   27CHL1    C5 1932   0.381   1.445   9.120 -0.3784 -0.0781  0.7629
   27CHL1    C6 1933   0.416   1.343   9.047  0.2948  1.1808  0.0602
   27CHL1    H6 1934   0.483   1.266   9.091  0.6989  1.4222 -0.1260
   27CHL1    C7 1935   0.383   1.317   8.900  0.0668 -0.2268  0.6504
   27CHL1   H7A 1936   0.473   1.262   8.865 -0.9356 -1.8341  0.4945
   27CHL1   H7B 1937   0.298   1.247   8.887  0.1907 -0.8446  2.8275
   27CHL1    C8 1938   0.342   1.449   8.835 -0.3547  0.5574 -0.0582
   27CHL1    H8 1939   0.431   1.516   8.832  0.0413  0.0135 -0.7627
   27CHL1   C14 1940   0.290   1.419   8.695 -0.4038  0.2537  0.3812
   27CHL1   H14 1941   0.206   1.348   8.716  0.4624 -0.3279  2.0518
   27CHL1   C15 1942   0.388   1.350   8.597  0.2202  0.4548  0.2178
   27CHL1  H15A 1943   0.491   1.388   8.616  1.4731 -1.8052 -1.4972
   27CHL1  H15B 1944   0.404   1.241   8.611  0.1625  0.1816 -1.5780
   27CHL1   C16 1945   0.341   1.386   8.460 -0.7498  0.0023 -0.2538
   27CHL1  H16A 1946   0.423   1.439   8.408  0.2115  0.3955  1.5952
   27CHL1  H16B 1947   0.304   1.310   8.388  1.1980 -1.4035  0.1682
   27CHL1   C17 1948   0.223   1.488   8.483 -0.2703  0.6181 -0.2295
   27CHL1   H17 1949   0.135   1.420   8.494  0.0197  0.3210  0.2933
   27CHL1   C13 1950   0.242   1.545   8.619  0.2536 -0.8263  0.3600
   27CHL1   C18 1951   0.356   1.651   8.618  0.1333  0.2791 -0.2999
   27CHL1  H18A 1952   0.328   1.742   8.561 -0.3809 -0.2757 -0.9470
   27CHL1  H18B 1953   0.381   1.685   8.720 -1.4269  2.6303 -0.6376
   27CHL1  H18C 1954   0.452   1.616   8.574  1.6742  0.9450  2.3189
   27CHL1   C12 1955   0.116   1.596   8.701 -0.2234  0.2604 -0.5888
   27CHL1  H12A 1956   0.083   1.691   8.655  1.2177 -0.2879 -2.9060
   27CHL1  H12B 1957   0.034   1.522   8.692  0.5098 -0.6469 -0.1463
   27CHL1   C11 1958   0.161   1.627   8.846 -0.1834 -0.4427 -0.6664
   27CHL1  H11A 1959   0.225   1.717   8.840 -1.7000  0.6762 -0.7103
   27CHL1  H11B 1960   0.075   1.647   8.915  0.6870  0.3217  0.2257
   27CHL1    C9 1961   0.232   1.515   8.923 -0.5049 -0.0285  0.3278
   27CHL1    H9 1962   0.160   1.433   8.942  0.8584 -2.2216 -3.0585
   27CHL1   C10 1963   0.289   1.558   9.066 -0.1423 -0.2491  0.6504
   27CHL1   C19 1964   0.371   1.693   9.054  0.6649  0.4147  0.3684
   27CHL1  H19A 1965   0.412   1.719   9.154 -0.4660 -0.2268  1.0285
   27CHL1  H19B 1966   0.444   1.680   8.972 -1.1001  0.4642 -1.2836
   27CHL1  H19C 1967   0.297   1.772   9.029 -1.4633 -1.3711  0.7298
   27CHL1    C1 1968   0.174   1.572   9.158 -0.4334  0.3353 -0.3056
   27CHL1   H1A 1969   0.120   1.664   9.126 -1.2042 -0.5439 -1.6378
   27CHL1   H1B 1970   0.108   1.483   9.155 -0.8645  0.6543 -0.3833
   27CHL1    C2 1971   0.205   1.582   9.307 -1.0487 -0.1454 -0.1176
   27CHL1   H2A 1972   0.119   1.582   9.377 -1.7956 -1.8434 -0.9771
   27CHL1   H2B 1973   0.268   1.672   9.324 -0.9281  0.2557 -2.3554
   27CHL1   C20 1974   0.210   1.584   8.360  0.1191 -0.2655  0.0967
   27CHL1   H20 1975   0.305   1.641   8.366  0.6059 -0.5694 -3.2280
   27CHL1   C21 1976   0.091   1.683   8.375  0.3049 -0.2130 -0.3533
   27CHL1  H21A 1977  -0.007   1.634   8.390 -0.1483  0.9758  0.7606
   27CHL1  H21B 1978   0.077   1.752   8.289  0.7894  1.4794  0.8834
   27CHL1  H21C 1979   0.116   1.752   8.459 -1.0996  1.1079 -0.9755
   27CHL1   C22 1980   0.216   1.511   8.227  0.5209 -0.0875  0.2559
   27CHL1  H22A 1981   0.315   1.461   8.216  0.5928 -0.3882  2.0229
   27CHL1  H22B 1982   0.141   1.428   8.223  1.5468 -0.9998 -0.8914
   27CHL1   C23 1983   0.201   1.596   8.103  0.0031  0.3942  0.3723
   27CHL1  H23A 1984   0.101   1.641   8.112  0.2503  0.7101  1.8882
   27CHL1  H23B 1985   0.275   1.679   8.114 -3.2299  3.3058  1.7788
   27CHL1   C24 1986   0.222   1.528   7.963 -0.2664 -0.5141 -0.2960
   27CHL1  H24A 1987   0.303   1.452   7.975  0.1444  0.0964  0.9530
   27CHL1  H24B 1988   0.130   1.475   7.931  0.1997 -0.5027 -1.7494
   27CHL1   C25 1989   0.247   1.615   7.845 -0.3070 -0.0228 -0.0099
   27CHL1   H25 1990   0.181   1.704   7.845  0.8474  0.8520  0.2749
   27CHL1   C26 1991   0.393   1.667   7.832  0.0419  0.0233 -0.2451
   27CHL1  H26A 1992   0.410   1.696   7.726 -0.7191  0.9404 -0.1292
   27CHL1  H26B 1993   0.418   1.749   7.903 -0.8942  1.0383 -1.0554
   27CHL1  H26C 1994   0.457   1.577   7.839 -0.8963 -0.8531 -2.2997
   27CHL1   C27 1995   0.215   1.542   7.712  0.1062 -0.4733 -0.5689
   27CHL1  H27A 1996   0.241   1.606   7.625 -2.7688  0.2904 -0.9544
   27CHL1  H27B 1997   0.256   1.439   7.706  0.1675 -0.3721 -2.7526
   27CHL1  H27C 1998   0.105   1.530   7.712 -0.1048  0.6971  2.1879
   28CHL1    C3 1999   5.768   6.720   9.296 -0.6916  0.0856 -0.6998
   28CHL1    H3 2000   5.779   6.610   9.308  1.0513 -0.0272 -2.7177
   28CHL1    O3 2001   5.733   6.775   9.426 -0.0589  0.5629  0.1851
   28CHL1   H3' 2002   5.700   6.864   9.413 -1.6042  0.0653  0.5221
   28CHL1    C4 2003   5.905   6.781   9.255 -0.8705  0.2919 -0.4571
   28CHL1   H4A 2004   5.903   6.889   9.279  2.4788  0.8153 -1.9849
   28CHL1   H4B 2005   5.976   6.734   9.328 -2.0143 -1.0933 -0.1830
   28CHL1    C5 2006   5.942   6.744   9.114  0.4448 -0.5192  0.9689
   28CHL1    C6 2007   6.053   6.676   9.088  0.1790 -0.2404  0.0471
   28CHL1    H6 2008   6.121   6.652   9.171  1.3784 -2.7647 -1.5259
   28CHL1    C7 2009   6.106   6.643   8.955  0.2203 -0.8511 -0.2880
   28CHL1   H7A 2010   6.212   6.677   8.950  0.0882 -0.4496 -0.3573
   28CHL1   H7B 2011   6.106   6.532   8.947  0.7606 -0.8947  0.2630
   28CHL1    C8 2012   6.031   6.719   8.843 -0.6939  0.0357 -0.5946
   28CHL1    H8 2013   6.072   6.822   8.844  1.2242 -0.6673  0.8438
   28CHL1   C14 2014   6.063   6.663   8.702  0.4297 -0.0882  0.2959
   28CHL1   H14 2015   6.023   6.559   8.709  1.1351 -0.3399  0.6679
   28CHL1   C15 2016   6.211   6.646   8.660 -0.7858  0.2629  0.0494
   28CHL1  H15A 2017   6.268   6.728   8.708  0.3820 -2.3103  3.3770
   28CHL1  H15B 2018   6.253   6.545   8.680 -2.2099 -0.6347 -1.1855
   28CHL1   C16 2019   6.219   6.661   8.502  0.9826  0.3442 -0.3904
   28CHL1  H16A 2020   6.264   6.758   8.470  1.0693 -0.4756 -2.9336
   28CHL1  H16B 2021   6.270   6.575   8.453 -1.1998 -1.7283  0.7945
   28CHL1   C17 2022   6.063   6.679   8.456 -1.0299  0.3487 -0.2182
   28CHL1   H17 2023   6.023   6.575   8.451 -0.7010  0.1339  1.2094
   28CHL1   C13 2024   5.994   6.735   8.585 -0.4631 -1.3685  0.1372
   28CHL1   C18 2025   6.037   6.885   8.592  0.3854 -0.0980  0.0529
   28CHL1  H18A 2026   6.003   6.945   8.505  0.7799 -1.1371 -0.8395
   28CHL1  H18B 2027   5.998   6.926   8.687 -1.6461  0.3103 -0.8985
   28CHL1  H18C 2028   6.148   6.892   8.595  0.4471 -0.9397 -0.0329
   28CHL1   C12 2029   5.843   6.714   8.605  0.2178  0.2620 -1.0406
   28CHL1  H12A 2030   5.778   6.767   8.532 -3.1811 -1.3761  0.5826
   28CHL1  H12B 2031   5.812   6.607   8.603 -0.0066  0.3031 -0.0296
   28CHL1   C11 2032   5.793   6.759   8.742  0.9037 -0.4306  0.1645
   28CHL1  H11A 2033   5.780   6.870   8.735 -1.1075 -0.5503  1.1353
   28CHL1  H11B 2034   5.690   6.716   8.742  0.4479  0.5093 -2.5436
   28CHL1    C9 2035   5.878   6.710   8.864 -0.1504  0.2041  0.0220
   28CHL1    H9 2036   5.869   6.600   8.876  0.7796  0.2335  1.1784
   28CHL1   C10 2037   5.840   6.770   9.005 -0.8128 -0.8243  0.1042
   28CHL1   C19 2038   5.820   6.922   8.976 -0.1550 -0.0085  0.0497
   28CHL1  H19A 2039   5.895   6.965   8.906  0.2229 -0.6229  0.0771
   28CHL1  H19B 2040   5.725   6.947   8.924  0.1302  0.8541 -0.0751
   28CHL1  H19C 2041   5.826   6.971   9.076 -0.2817  0.9310 -0.3849
   28CHL1    C1 2042   5.706   6.707   9.055  0.0449  0.4979 -0.3159
   28CHL1   H1A 2043   5.619   6.730   8.990  0.2383 -0.7829 -1.0621
   28CHL1   H1B 2044   5.717   6.597   9.055 -0.1042  0.4734 -1.3777
   28CHL1    C2 2045   5.665   6.756   9.193  0.0736  0.1354  0.5808
   28CHL1   H2A 2046   5.569   6.701   9.209 -0.0012 -0.0741 -0.4939
   28CHL1   H2B 2047   5.642   6.864   9.183  1.6605  0.3404 -1.4857
   28CHL1   C20 2048   6.032   6.742   8.321 -0.7525  0.8850 -0.7635
   28CHL1   H20 2049   6.056   6.850   8.333  2.3814 -0.0218  3.7060
   28CHL1   C21 2050   5.895   6.718   8.268  0.6582  0.2890  0.7170
   28CHL1  H21A 2051   5.869   6.744   8.163 -1.2878  2.2081  1.5890
   28CHL1  H21B 2052   5.817   6.772   8.326 -0.3965  0.4119 -0.7690
   28CHL1  H21C 2053   5.864   6.612   8.276 -0.9894  0.7161  0.5000
   28CHL1   C22 2054   6.135   6.692   8.214 -0.2017 -0.4895 -0.0401
   28CHL1  H22A 2055   6.123   6.754   8.123  2.2113 -1.1753 -0.9023
   28CHL1  H22B 2056   6.240   6.720   8.239 -0.1579 -0.3363 -0.3962
   28CHL1   C23 2057   6.138   6.548   8.172 -0.8708 -0.1887 -1.0042
   28CHL1  H23A 2058   6.180   6.483   8.252 -1.0013  2.0658  1.0287
   28CHL1  H23B 2059   6.030   6.525   8.162 -1.6172  1.2034  2.2507
   28CHL1   C24 2060   6.208   6.541   8.035 -0.4623 -0.2636  0.3512
   28CHL1  H24A 2061   6.196   6.638   7.981  2.1585  0.1174  0.3541
   28CHL1  H24B 2062   6.317   6.541   8.055 -0.0609  3.3391 -0.9807
   28CHL1   C25 2063   6.172   6.423   7.946 -0.2157  0.3594 -0.1507
   28CHL1   H25 2064   6.063   6.420   7.926 -1.0682 -0.9565  3.8013
   28CHL1   C26 2065   6.260   6.426   7.816 -0.5323  0.3145  0.1221
   28CHL1  H26A 2066   6.225   6.502   7.743  2.2637  1.0723 -0.5828
   28CHL1  H26B 2067   6.366   6.442   7.845 -1.1987  4.1205  1.0506
   28CHL1  H26C 2068   6.267   6.323   7.775 -1.1970  0.9012 -1.5491
   28CHL1   C27 2069   6.201   6.295   8.031 -0.3854  0.5020  0.5162
   28CHL1  H27A 2070   6.296   6.309   8.087 -0.3260  0.7307  0.3611
   28CHL1  H27B 2071   6.124   6.282   8.110 -2.7079  1.5146 -1.4340
   28CHL1  H27C 2072   6.224   6.199   7.979 -0.6525 -1.9132  4.4473
   29CHL1    C3 2073   4.250   5.402   5.909  0.3188  0.5621 -0.2908
   29CHL1    H3 2074   4.142   5.397   5.934  0.6873 -2.3465  1.0413
   29CHL1    O3 2075   4.261   5.445   5.777  0.0054  0.2841  0.6483
   29CHL1   H3' 2076   4.352   5.442   5.748 -0.7029  0.1317 -1.8258
   29CHL1    C4 2077   4.320   5.498   5.999  0.4821  0.2956  0.4698
   29CHL1   H4A 2078   4.427   5.497   5.972  0.2676 -0.4500 -0.4028
   29CHL1   H4B 2079   4.274   5.599   5.987  2.0925  1.0476  0.4270
   29CHL1    C5 2080   4.298   5.447   6.139 -0.2485  0.4795 -0.2718
   29CHL1    C6 2081   4.237   5.526   6.228 -0.6279 -0.6275 -0.1520
   29CHL1    H6 2082   4.211   5.627   6.190 -1.6412 -0.3921  1.0882
   29CHL1    C7 2083   4.231   5.496   6.370  0.1080 -0.5860  0.2052
   29CHL1   H7A 2084   4.286   5.574   6.427  0.5696 -0.7519 -0.0076
   29CHL1   H7B 2085   4.126   5.500   6.407 -0.4182  1.0020 -1.3524
   29CHL1    C8 2086   4.283   5.362   6.417 -0.4930 -0.6773 -0.1196
   29CHL1    H8 2087   4.387   5.370   6.457 -0.6385  1.3303 -0.0370
   29CHL1   C14 2088   4.203   5.324   6.543 -0.2628  0.5547 -0.0736
   29CHL1   H14 2089   4.100   5.312   6.504 -0.2138  1.1307 -0.3939
   29CHL1   C15 2090   4.193   5.428   6.655 -0.2475 -0.8602 -0.5592
   29CHL1  H15A 2091   4.297   5.458   6.681 -0.6755 -1.8327  2.8257
   29CHL1  H15B 2092   4.132   5.512   6.616 -2.0957 -0.6498  2.4498
   29CHL1   C16 2093   4.144   5.346   6.774  0.1154 -0.1842  0.5996
   29CHL1  H16A 2094   4.222   5.355   6.852  1.1688  2.0106 -0.6291
   29CHL1  H16B 2095   4.054   5.393   6.819  0.2595  1.7059 -0.9860
   29CHL1   C17 2096   4.136   5.191   6.726 -0.1539 -0.6692  0.2052
   29CHL1   H17 2097   4.036   5.180   6.679 -0.0686 -0.1966 -0.0905
   29CHL1   C13 2098   4.234   5.191   6.612 -0.8576  0.0841 -0.3204
   29CHL1   C18 2099   4.380   5.196   6.661  0.0317  0.0045  0.1510
   29CHL1  H18A 2100   4.447   5.210   6.573 -1.1139 -1.1347 -0.9459
   29CHL1  H18B 2101   4.390   5.277   6.736 -2.6565  1.3031 -0.7885
   29CHL1  H18C 2102   4.422   5.105   6.709  2.1680 -0.3431 -2.1811
   29CHL1   C12 2103   4.221   5.080   6.505 -0.2097 -0.5728 -0.5884
   29CHL1  H12A 2104   4.275   4.992   6.548  0.8705  0.2281 -0.2380
   29CHL1  H12B 2105   4.114   5.055   6.492 -0.8135  0.8787  1.1981
   29CHL1   C11 2106   4.300   5.119   6.373 -0.3907  0.2480  0.1944
   29CHL1  H11A 2107   4.409   5.115   6.396 -0.2077  0.0861 -0.6767
   29CHL1  H11B 2108   4.283   5.037   6.299  1.4069 -0.9182  0.9884
   29CHL1    C9 2109   4.265   5.256   6.305 -0.0172  0.5358 -0.6303
   29CHL1    H9 2110   4.155   5.243   6.296  0.1646 -2.5807  0.4747
   29CHL1   C10 2111   4.335   5.300   6.177 -0.4036 -0.2238 -0.6756
   29CHL1   C19 2112   4.489   5.289   6.209  0.5011  0.0690 -0.2625
   29CHL1  H19A 2113   4.514   5.184   6.236 -0.8182  0.2119  1.6901
   29CHL1  H19B 2114   4.547   5.324   6.121 -0.0581 -0.5445 -0.8808
   29CHL1  H19C 2115   4.524   5.356   6.290 -1.5997  0.8034  0.0875
   29CHL1    C1 2116   4.297   5.198   6.068 -0.4591  0.0297  0.2875
   29CHL1   H1A 2117   4.361   5.108   6.074 -2.5073 -1.5036  0.3267
   29CHL1   H1B 2118   4.193   5.171   6.098  0.2515 -0.3584  2.5572
   29CHL1    C2 2119   4.297   5.250   5.922  0.6424  0.4210 -0.4862
   29CHL1   H2A 2120   4.236   5.186   5.855  1.4415  0.9593 -1.7900
   29CHL1   H2B 2121   4.404   5.239   5.894  1.1981  1.2541  1.1806
   29CHL1   C20 2122   4.148   5.091   6.844  0.3416 -0.1201  0.3921
   29CHL1   H20 2123   4.258   5.085   6.862  0.6937 -1.3197 -1.7208
   29CHL1   C21 2124   4.108   4.951   6.797  0.4296 -0.5526 -0.9894
   29CHL1  H21A 2125   4.147   4.924   6.697 -0.0719  0.1779 -1.3892
   29CHL1  H21B 2126   3.999   4.945   6.775 -0.6030  0.7235  2.8999
   29CHL1  H21C 2127   4.136   4.871   6.869  0.8172 -2.3266 -3.0280
   29CHL1   C22 2128   4.074   5.134   6.974  0.2213  0.0883 -0.3726
   29CHL1  H22A 2129   4.115   5.229   7.015 -0.7452  1.1430 -1.8000
   29CHL1  H22B 2130   3.968   5.139   6.943  0.1549 -3.2298 -1.0775
   29CHL1   C23 2131   4.075   5.038   7.088  0.4652  0.3873  0.1161
   29CHL1  H23A 2132   4.030   4.942   7.052  0.8286  0.3359 -0.2140
   29CHL1  H23B 2133   4.180   5.005   7.104  0.1191 -1.1947 -0.6519
   29CHL1   C24 2134   3.990   5.084   7.211 -0.0693  0.2417  0.5234
   29CHL1  H24A 2135   4.028   5.172   7.268 -3.1662  0.0278  3.1956
   29CHL1  H24B 2136   3.888   5.115   7.180  1.0812  2.2780 -1.6024
   29CHL1   C25 2137   3.971   4.969   7.313 -0.3430 -0.0218  0.4861
   29CHL1   H25 2138   3.910   4.884   7.276  0.9650 -0.7721 -0.0129
   29CHL1   C26 2139   4.116   4.925   7.357  0.0864  0.4992 -0.2055
   29CHL1  H26A 2140   4.186   5.011   7.365  0.5302  0.6267 -3.6250
   29CHL1  H26B 2141   4.109   4.865   7.450 -1.6004  1.1905  0.1542
   29CHL1  H26C 2142   4.160   4.867   7.273  0.6989  1.0685 -0.2883
   29CHL1   C27 2143   3.890   5.029   7.430 -0.5677 -0.3703 -0.4411
   29CHL1  H27A 2144   3.837   4.948   7.484 -1.8492 -0.0750 -1.2133
   29CHL1  H27B 2145   3.947   5.093   7.502  0.0950 -1.3309 -0.0866
   29CHL1  H27C 2146   3.812   5.091   7.382  1.6189  0.6552 -2.9169
   30CHL1    C3 2147   2.306   2.388   5.945 -0.3217  0.2779  0.4449
   30CHL1    H3 2148   2.377   2.472   5.962  1.2346 -1.0158  0.5877
   30CHL1    O3 2149   2.300   2.372   5.804 -0.3865  0.3237 -0.1345
   30CHL1   H3' 2150   2.232   2.304   5.794  0.3785 -0.4669 -0.1267
   30CHL1    C4 2151   2.364   2.266   6.020 -0.0229  0.2999 -0.0695
   30CHL1   H4A 2152   2.293   2.184   5.995 -0.7705  0.5794  1.0612
   30CHL1   H4B 2153   2.459   2.232   5.973 -0.4420 -2.6208  0.9822
   30CHL1    C5 2154   2.365   2.292   6.171  0.1713 -0.6468  0.1574
   30CHL1    C6 2155   2.483   2.275   6.234 -0.0111  0.7354  0.0522
   30CHL1    H6 2156   2.574   2.237   6.186  0.2087  4.8836 -3.4931
   30CHL1    C7 2157   2.491   2.303   6.391 -0.4364  0.6375 -0.8769
   30CHL1   H7A 2158   2.541   2.219   6.443 -1.3016  0.4957 -0.2550
   30CHL1   H7B 2159   2.549   2.398   6.398  2.0767 -0.7587 -1.6280
   30CHL1    C8 2160   2.348   2.323   6.460 -1.3959 -0.3499 -0.3944
   30CHL1    H8 2161   2.303   2.222   6.471 -0.3364 -0.5822  2.8810
   30CHL1   C14 2162   2.357   2.368   6.602 -0.1413  0.0736  0.5852
   30CHL1   H14 2163   2.409   2.467   6.598 -0.2970  0.1793  1.0776
   30CHL1   C15 2164   2.457   2.294   6.700  0.3929 -0.4191 -0.0225
   30CHL1  H15A 2165   2.445   2.186   6.678  0.6509 -0.2882 -0.8367
   30CHL1  H15B 2166   2.562   2.326   6.686  0.4454 -0.7522 -0.3922
   30CHL1   C16 2167   2.405   2.339   6.837 -0.5656  0.3771 -0.2011
   30CHL1  H16A 2168   2.399   2.245   6.896  2.7960  0.2256  0.1369
   30CHL1  H16B 2169   2.473   2.399   6.901  0.5827 -3.7434  2.8967
   30CHL1   C17 2170   2.276   2.422   6.817 -0.6372 -0.1159 -0.0630
   30CHL1   H17 2171   2.320   2.523   6.805  1.3882 -0.9384  0.0004
   30CHL1   C13 2172   2.229   2.388   6.674  0.4161 -0.8276 -0.5644
   30CHL1   C18 2173   2.147   2.254   6.682 -0.1603  0.0444 -1.0307
   30CHL1  H18A 2174   2.049   2.258   6.734  2.2210 -2.1102  4.4177
   30CHL1  H18B 2175   2.126   2.216   6.579 -0.7659  0.1058 -0.9334
   30CHL1  H18C 2176   2.212   2.186   6.741 -0.0599 -0.0117 -1.2062
   30CHL1   C12 2177   2.157   2.494   6.592  0.5318 -0.3500  0.7013
   30CHL1  H12A 2178   2.067   2.531   6.645  1.1339  0.9249  0.8904
   30CHL1  H12B 2179   2.230   2.575   6.616 -0.9002 -0.0176  4.6665
   30CHL1   C11 2180   2.136   2.472   6.443  1.1341  0.3586  0.5070
   30CHL1  H11A 2181   2.048   2.404   6.445  1.6336 -0.3396 -0.5933
   30CHL1  H11B 2182   2.105   2.566   6.393 -0.6721 -0.4854 -0.0608
   30CHL1    C9 2183   2.259   2.411   6.375  0.0137 -0.0665 -0.6016
   30CHL1    H9 2184   2.322   2.500   6.355 -0.4873  0.5001  0.2704
   30CHL1   C10 2185   2.239   2.348   6.237 -0.1131  0.0538  0.0909
   30CHL1   C19 2186   2.141   2.228   6.248  0.1397 -0.7195 -0.2932
   30CHL1  H19A 2187   2.128   2.174   6.152 -1.2663 -0.9930  0.0305
   30CHL1  H19B 2188   2.171   2.154   6.325 -0.6972 -1.0289 -0.2557
   30CHL1  H19C 2189   2.046   2.278   6.277  0.3109 -1.8314  2.4457
   30CHL1    C1 2190   2.184   2.467   6.147  0.4184  0.4697  0.0371
   30CHL1   H1A 2191   2.089   2.501   6.195 -0.0502 -1.9698  0.9390
   30CHL1   H1B 2192   2.254   2.553   6.158  0.1589  0.6476  0.3124
   30CHL1    C2 2193   2.172   2.431   5.999 -0.8621 -0.3231 -0.7568
   30CHL1   H2A 2194   2.136   2.522   5.947 -2.1323 -0.5990 -0.3927
   30CHL1   H2B 2195   2.095   2.353   5.984  0.2086 -1.9482  1.5768
   30CHL1   C20 2196   2.187   2.422   6.942  0.8998  0.0303  0.3668
   30CHL1   H20 2197   2.164   2.316   6.966  2.1491 -0.4228 -0.3489
   30CHL1   C21 2198   2.059   2.510   6.907 -0.5142  0.5981  0.3890
   30CHL1  H21A 2199   2.002   2.446   6.836  3.8339 -0.8020 -2.1867
   30CHL1  H21B 2200   2.095   2.602   6.857  2.5889 -0.0877  1.1335
   30CHL1  H21C 2201   1.997   2.535   6.997  1.0558  3.2575  0.8237
   30CHL1   C22 2202   2.268   2.489   7.055 -0.0925  0.0608 -0.0620
   30CHL1  H22A 2203   2.355   2.425   7.081 -0.7691 -0.6353  0.5232
   30CHL1  H22B 2204   2.299   2.593   7.030  0.0111  0.3177  1.0924
   30CHL1   C23 2205   2.189   2.502   7.186  0.1369 -0.4068  0.2254
   30CHL1  H23A 2206   2.122   2.590   7.176 -0.4533 -0.9669 -1.0072
   30CHL1  H23B 2207   2.124   2.413   7.191  1.1856 -1.1441  1.2943
   30CHL1   C24 2208   2.270   2.501   7.319  0.0904 -0.0567  0.3260
   30CHL1  H24A 2209   2.196   2.497   7.403 -0.7130  0.4965 -0.3425
   30CHL1  H24B 2210   2.331   2.409   7.323  0.8020  0.3740 -0.4614
   30CHL1   C25 2211   2.369   2.619   7.346 -0.1504 -0.1427  0.2356
   30CHL1   H25 2212   2.444   2.623   7.264  0.2410  0.8738  0.6234
   30CHL1   C26 2213   2.304   2.765   7.351 -0.1523  0.2438 -0.5137
   30CHL1  H26A 2214   2.201   2.758   7.392 -0.3488 -1.7430 -1.2043
   30CHL1  H26B 2215   2.372   2.837   7.400 -1.4961  1.1298  0.1093
   30CHL1  H26C 2216   2.281   2.799   7.248  0.0561  3.5760  0.4406
   30CHL1   C27 2217   2.452   2.596   7.470 -0.0811 -0.3441  0.0532
   30CHL1  H27A 2218   2.518   2.682   7.491  1.7081 -1.1925 -1.7623
   30CHL1  H27B 2219   2.383   2.594   7.557  0.5708  0.9357  0.6233
   30CHL1  H27C 2220   2.517   2.507   7.457  0.8282  0.6137 -2.7478
   31CHL1    C3 2221   2.558   4.678   5.849 -0.0852  0.0031 -0.1908
   31CHL1    H3 2222   2.567   4.567   5.852  0.0812 -0.0729 -2.2029
   31CHL1    O3 2223   2.507   4.711   5.719  0.3796  0.2649 -0.1803
   31CHL1   H3' 2224   2.521   4.806   5.713 -4.1367  1.2410  1.0145
   31CHL1    C4 2225   2.469   4.744   5.950  0.1856  0.1322  0.2171
   31CHL1   H4A 2226   2.460   4.852   5.927 -2.5668 -0.7559 -4.0860
   31CHL1   H4B 2227   2.367   4.706   5.928  0.1519  1.0855 -1.3404
   31CHL1    C5 2228   2.518   4.715   6.088  0.0900 -0.0159  0.0605
   31CHL1    C6 2229   2.438   4.643   6.168  0.2754 -0.6120 -0.3351
   31CHL1    H6 2230   2.335   4.616   6.139 -1.7667  3.4344  2.2296
   31CHL1    C7 2231   2.471   4.625   6.316 -0.1834  0.2351  1.1582
   31CHL1   H7A 2232   2.380   4.659   6.368 -0.5766 -2.1651  2.2050
   31CHL1   H7B 2233   2.497   4.521   6.347  0.8409 -0.4055 -1.5193
   31CHL1    C8 2234   2.596   4.700   6.357  0.5786  0.1832  0.1050
   31CHL1    H8 2235   2.568   4.806   6.373  2.0566  0.5413  0.4300
   31CHL1   C14 2236   2.647   4.648   6.490 -0.2356 -0.0757  0.0574
   31CHL1   H14 2237   2.691   4.552   6.458  1.8734  2.0012 -4.0876
   31CHL1   C15 2238   2.543   4.628   6.601  0.3946 -0.0119 -0.4051
   31CHL1  H15A 2239   2.475   4.715   6.594 -1.4608 -1.0981  2.5127
   31CHL1  H15B 2240   2.494   4.530   6.580 -0.0174 -0.1448  1.0819
   31CHL1   C16 2241   2.623   4.636   6.724 -1.2095  0.0638 -0.0388
   31CHL1  H16A 2242   2.575   4.705   6.796 -0.0656  0.2641  0.5578
   31CHL1  H16B 2243   2.627   4.536   6.772 -2.0289  0.2187  0.3721
   31CHL1   C17 2244   2.771   4.677   6.685 -0.1215  0.1531 -0.8885
   31CHL1   H17 2245   2.823   4.580   6.671 -1.0562 -0.5464  0.3319
   31CHL1   C13 2246   2.760   4.737   6.543 -0.1119  0.4717  0.8339
   31CHL1   C18 2247   2.719   4.883   6.559 -0.4150  0.7034  0.6504
   31CHL1  H18A 2248   2.691   4.925   6.460 -0.2645 -1.2781 -0.2755
   31CHL1  H18B 2249   2.636   4.884   6.632 -0.7723  2.7012  0.2707
   31CHL1  H18C 2250   2.805   4.938   6.604 -0.3403  0.8716  0.3112
   31CHL1   C12 2251   2.883   4.719   6.447  0.0133  0.2570  0.0923
   31CHL1  H12A 2252   2.969   4.779   6.485 -0.7457  1.9001 -0.7048
   31CHL1  H12B 2253   2.910   4.611   6.448  0.5409  0.3755 -0.5951
   31CHL1   C11 2254   2.853   4.752   6.305  0.1968 -0.0427  0.5972
   31CHL1  H11A 2255   2.848   4.863   6.309  1.2851  0.0449 -0.0074
   31CHL1  H11B 2256   2.934   4.725   6.234  0.0765  1.6801 -0.2459
   31CHL1    C9 2257   2.709   4.693   6.252 -0.0018 -0.0613  0.6104
   31CHL1    H9 2258   2.724   4.585   6.232  0.5508  0.1240 -0.0113
   31CHL1   C10 2259   2.663   4.757   6.113  0.2375  0.2221 -0.2637
   31CHL1   C19 2260   2.674   4.912   6.126  0.6231  0.2878 -0.2070
   31CHL1  H19A 2261   2.772   4.962   6.146  2.2894 -1.5425 -3.1583
   31CHL1  H19B 2262   2.648   4.964   6.032 -0.4948 -0.3847 -0.2898
   31CHL1  H19C 2263   2.609   4.945   6.210 -1.2118 -0.6944 -1.1954
   31CHL1    C1 2264   2.750   4.695   5.994 -0.2408 -0.5943  0.0425
   31CHL1   H1A 2265   2.855   4.728   6.008 -0.5499  1.1064 -1.2631
   31CHL1   H1B 2266   2.763   4.585   5.989 -1.3012 -0.7098 -0.3546
   31CHL1    C2 2267   2.698   4.739   5.859  0.5352 -0.1417  0.5612
   31CHL1   H2A 2268   2.768   4.709   5.779  2.2698 -1.2199  2.3959
   31CHL1   H2B 2269   2.687   4.849   5.869 -1.3477 -0.3662  1.5016
   31CHL1   C20 2270   2.838   4.765   6.794  0.3187  0.3862 -0.0908
   31CHL1   H20 2271   2.787   4.863   6.800  1.5124  1.0519 -0.4674
   31CHL1   C21 2272   2.993   4.795   6.765 -0.1205  0.5142 -0.2007
   31CHL1  H21A 2273   3.052   4.804   6.859 -0.2617  1.1329 -0.1682
   31CHL1  H21B 2274   2.997   4.877   6.690 -0.1041 -0.3072 -1.1247
   31CHL1  H21C 2275   3.036   4.706   6.715  0.6046  0.3322  0.7206
   31CHL1   C22 2276   2.832   4.698   6.931  0.7150  0.0085  0.3374
   31CHL1  H22A 2277   2.744   4.637   6.960  0.9085 -1.5423 -2.0208
   31CHL1  H22B 2278   2.907   4.616   6.925 -0.0249 -0.6194 -0.6487
   31CHL1   C23 2279   2.846   4.808   7.037  0.3054 -0.6864 -0.2146
   31CHL1  H23A 2280   2.933   4.872   7.012 -1.4177  1.1706 -1.8796
   31CHL1  H23B 2281   2.758   4.874   7.024  1.5511  0.8331 -1.2516
   31CHL1   C24 2282   2.854   4.752   7.182 -0.2176  0.3565 -0.2282
   31CHL1  H24A 2283   2.752   4.724   7.214 -0.3236  0.3292 -0.5879
   31CHL1  H24B 2284   2.914   4.659   7.190 -0.2511  0.4880  2.6607
   31CHL1   C25 2285   2.923   4.852   7.271 -0.1481 -0.2194 -0.2769
   31CHL1   H25 2286   3.027   4.858   7.234  0.0394 -1.9984 -0.1059
   31CHL1   C26 2287   2.859   4.989   7.269 -0.1917 -0.2513  0.7329
   31CHL1  H26A 2288   2.750   4.968   7.277 -0.5698  1.9037  2.2959
   31CHL1  H26B 2289   2.904   5.045   7.355  0.4138 -0.5471  0.6163
   31CHL1  H26C 2290   2.881   5.041   7.173 -2.4641 -0.0140  0.2820
   31CHL1   C27 2291   2.939   4.797   7.414 -0.2834  0.2139  0.1573
   31CHL1  H27A 2292   3.006   4.864   7.472  0.9333 -0.1442 -0.7886
   31CHL1  H27B 2293   2.976   4.692   7.412  0.4966  0.4791  0.3741
   31CHL1  H27C 2294   2.841   4.793   7.466 -1.5265 -1.5462 -2.1433
   32CHL1    C3 2295   2.888   3.118   5.994 -0.6415  0.1195  0.0078
   32CHL1    H3 2296   2.991   3.139   6.031 -0.9098 -2.1194  2.2501
   32CHL1    O3 2297   2.902   3.065   5.862  0.3483  0.3915  0.3537
   32CHL1   H3' 2298   2.974   3.111   5.817  0.4550 -0.2821 -0.1905
   32CHL1    C4 2299   2.836   3.005   6.085 -0.2937  0.5903 -0.2600
   32CHL1   H4A 2300   2.735   2.981   6.044 -0.2387  1.5507 -1.0081
   32CHL1   H4B 2301   2.909   2.923   6.073 -0.6407  0.1244  0.7509
   32CHL1    C5 2302   2.828   3.050   6.228 -0.3000 -0.2672  0.1613
   32CHL1    C6 2303   2.898   2.991   6.325 -0.0444 -0.3099  0.8178
   32CHL1    H6 2304   2.952   2.898   6.303 -0.0893  0.0596 -1.0725
   32CHL1    C7 2305   2.896   3.045   6.465 -0.5292 -0.2208  0.6826
   32CHL1   H7A 2306   2.866   2.967   6.538 -1.0955 -0.5690  0.0863
   32CHL1   H7B 2307   3.001   3.070   6.492  0.4542 -2.0554 -1.1710
   32CHL1    C8 2308   2.799   3.162   6.485 -0.0152 -0.3867 -0.0530
   32CHL1    H8 2309   2.696   3.121   6.486 -0.5072  0.7622 -1.1109
   32CHL1   C14 2310   2.827   3.221   6.616 -0.7550  0.1690  0.4569
   32CHL1   H14 2311   2.933   3.255   6.603 -0.8305  0.5314  0.7718
   32CHL1   C15 2312   2.827   3.124   6.741 -0.1600 -0.1179 -0.3279
   32CHL1  H15A 2313   2.729   3.072   6.736  0.0333 -0.4303 -1.0158
   32CHL1  H15B 2314   2.916   3.058   6.730  2.4401  3.1341 -0.5345
   32CHL1   C16 2315   2.844   3.225   6.850 -0.2068  0.1050  0.0672
   32CHL1  H16A 2316   2.780   3.194   6.935 -1.0140 -1.5660 -1.1017
   32CHL1  H16B 2317   2.952   3.230   6.874  0.7738 -1.0999 -3.5298
   32CHL1   C17 2318   2.805   3.362   6.793 -0.0147  0.0415  0.2743
   32CHL1   H17 2319   2.900   3.410   6.762 -0.8033  0.7695 -1.1590
   32CHL1   C13 2320   2.744   3.337   6.657 -0.8092  0.2572  0.4133
   32CHL1   C18 2321   2.592   3.300   6.675  0.8191  0.4179  0.7060
   32CHL1  H18A 2322   2.547   3.259   6.582  0.7399 -1.1779  1.4171
   32CHL1  H18B 2323   2.579   3.226   6.756  2.9018  0.2302  0.9159
   32CHL1  H18C 2324   2.535   3.387   6.714  0.3617  0.5860 -0.3152
   32CHL1   C12 2325   2.755   3.448   6.558 -1.2034  0.1414  0.2179
   32CHL1  H12A 2326   2.684   3.530   6.582 -0.2172  0.8139  0.9174
   32CHL1  H12B 2327   2.862   3.478   6.552 -1.0587 -0.6043 -1.4981
   32CHL1   C11 2328   2.731   3.393   6.413  0.6826 -0.2746  0.4495
   32CHL1  H11A 2329   2.621   3.383   6.403  0.4609  2.2279 -0.2823
   32CHL1  H11B 2330   2.761   3.467   6.336 -1.1585  2.6473  2.3099
   32CHL1    C9 2331   2.814   3.263   6.372  0.2256 -0.0870  0.4921
   32CHL1    H9 2332   2.919   3.292   6.354  0.5409 -1.2755  0.3403
   32CHL1   C10 2333   2.764   3.195   6.237  0.2665 -0.0296 -0.0070
   32CHL1   C19 2334   2.606   3.178   6.236 -0.1391  0.6809  0.2541
   32CHL1  H19A 2335   2.540   3.266   6.221  1.3795  1.7310 -0.5692
   32CHL1  H19B 2336   2.587   3.106   6.153  0.7835  0.7388 -0.0209
   32CHL1  H19C 2337   2.578   3.128   6.331  2.1176 -0.7804  0.2243
   32CHL1    C1 2338   2.786   3.291   6.121  0.7718  0.2150 -0.0283
   32CHL1   H1A 2339   2.708   3.371   6.119  0.8683  0.2941 -1.4569
   32CHL1   H1B 2340   2.884   3.335   6.149  1.6603 -2.2721  0.9617
   32CHL1    C2 2341   2.791   3.232   5.981  0.1079 -0.3620 -0.7323
   32CHL1   H2A 2342   2.822   3.308   5.906  0.9545 -0.6719 -0.7047
   32CHL1   H2B 2343   2.688   3.198   5.956  0.0106 -0.8645  0.2716
   32CHL1   C20 2344   2.739   3.454   6.902  0.3460 -0.3081 -0.4338
   32CHL1   H20 2345   2.644   3.406   6.934  1.6602 -0.3258  4.0905
   32CHL1   C21 2346   2.709   3.594   6.843 -1.1555  0.0886  0.3022
   32CHL1  H21A 2347   2.627   3.585   6.769  0.0615 -0.6666 -1.0193
   32CHL1  H21B 2348   2.795   3.646   6.796  0.0536 -1.7720  0.3440
   32CHL1  H21C 2349   2.672   3.661   6.923 -0.0500  1.2570 -0.1264
   32CHL1   C22 2350   2.836   3.479   7.022 -0.0345  0.1821 -0.4403
   32CHL1  H22A 2351   2.870   3.381   7.062 -2.6903 -0.0858  1.4603
   32CHL1  H22B 2352   2.920   3.536   6.977  1.3039 -0.0176  1.6469
   32CHL1   C23 2353   2.778   3.548   7.144 -0.2358 -0.7863 -0.8709
   32CHL1  H23A 2354   2.858   3.561   7.220 -1.4982  0.7909  0.2637
   32CHL1  H23B 2355   2.739   3.650   7.126 -1.0512 -0.9330 -0.0239
   32CHL1   C24 2356   2.678   3.475   7.229  0.0998  0.0736  0.1443
   32CHL1  H24A 2357   2.585   3.462   7.170 -0.7591 -0.8350  1.6435
   32CHL1  H24B 2358   2.715   3.376   7.263 -0.6982  0.0569  0.9709
   32CHL1   C25 2359   2.636   3.549   7.364  0.5283  0.3102  0.2685
   32CHL1   H25 2360   2.721   3.558   7.434 -1.0645  1.0989  2.1897
   32CHL1   C26 2361   2.585   3.692   7.338  0.3586 -0.8394  0.6113
   32CHL1  H26A 2362   2.536   3.718   7.434  1.5147 -0.8062  1.2062
   32CHL1  H26B 2363   2.663   3.770   7.325 -0.5628  0.0272  0.1447
   32CHL1  H26C 2364   2.520   3.709   7.249  0.1102  0.7072  1.0542
   32CHL1   C27 2365   2.541   3.455   7.439  0.7913 -0.0207  0.3632
   32CHL1  H27A 2366   2.461   3.423   7.369  0.4347  1.5172  0.0294
   32CHL1  H27B 2367   2.606   3.371   7.469 -0.6769 -1.4568 -0.3142
   32CHL1  H27C 2368   2.506   3.495   7.537  2.2859  1.4914  0.3383
   33CHL1    C3 2369   4.933   3.578   5.972  0.7218  0.7904  0.2090
   33CHL1    H3 2370   4.857   3.624   6.039  0.8383  0.0820  0.8499
   33CHL1    O3 2371   4.934   3.620   5.837 -0.0940 -0.4029  0.6038
   33CHL1   H3' 2372   4.961   3.541   5.789  1.4908  1.5012 -1.9260
   33CHL1    C4 2373   5.066   3.612   6.048  0.3231 -0.0221  0.3037
   33CHL1   H4A 2374   5.152   3.568   5.993 -1.9282 -1.1946 -2.5907
   33CHL1   H4B 2375   5.083   3.722   6.042  1.7437 -0.2277  0.1360
   33CHL1    C5 2376   5.070   3.571   6.196  1.0163 -0.0435 -0.8266
   33CHL1    C6 2377   5.083   3.661   6.301  1.1872 -0.5887 -0.5034
   33CHL1    H6 2378   5.096   3.768   6.280 -0.8619 -0.6165 -2.2550
   33CHL1    C7 2379   5.090   3.622   6.448 -0.1735 -0.3110 -0.3864
   33CHL1   H7A 2380   5.161   3.684   6.506  0.2111 -0.3698 -0.7881
   33CHL1   H7B 2381   4.992   3.637   6.499  0.2043 -1.6900  0.8300
   33CHL1    C8 2382   5.123   3.470   6.460 -0.3916 -0.0699  0.4039
   33CHL1    H8 2383   5.228   3.443   6.435 -0.0704 -0.2927  1.8943
   33CHL1   C14 2384   5.122   3.420   6.601  0.4030  0.3040  0.7694
   33CHL1   H14 2385   5.018   3.440   6.637 -0.8680  0.1551 -2.5238
   33CHL1   C15 2386   5.211   3.497   6.700 -0.2198 -0.3770  0.5362
   33CHL1  H15A 2387   5.311   3.514   6.656 -0.6058 -1.4055 -0.8407
   33CHL1  H15B 2388   5.167   3.592   6.738 -0.8670  0.0370 -1.1405
   33CHL1   C16 2389   5.224   3.394   6.813  0.1151  0.1185 -0.1835
   33CHL1  H16A 2390   5.331   3.364   6.815  0.9210  2.5525 -1.9051
   33CHL1  H16B 2391   5.169   3.426   6.905 -0.0782  0.4005 -0.3963
   33CHL1   C17 2392   5.150   3.264   6.772 -0.7144 -0.3360  1.2242
   33CHL1   H17 2393   5.046   3.281   6.806 -1.4221 -0.3238 -0.8456
   33CHL1   C13 2394   5.153   3.278   6.621  0.3447  0.0774 -0.3953
   33CHL1   C18 2395   5.286   3.246   6.561  0.4010  0.1497 -0.1436
   33CHL1  H18A 2396   5.375   3.298   6.602  2.0266 -1.5040 -1.4305
   33CHL1  H18B 2397   5.302   3.140   6.592  0.4815  0.7216  1.9493
   33CHL1  H18C 2398   5.299   3.261   6.452 -0.4186 -1.4162 -0.4812
   33CHL1   C12 2399   5.044   3.190   6.555 -0.8414 -1.0836 -0.7015
   33CHL1  H12A 2400   5.072   3.084   6.572 -0.3396 -0.9588 -0.7370
   33CHL1  H12B 2401   4.948   3.201   6.609 -0.7493 -0.2467 -0.6942
   33CHL1   C11 2402   5.033   3.235   6.401  0.5716 -0.0112  0.1785
   33CHL1  H11A 2403   5.112   3.180   6.346  1.9987  0.4445  1.6768
   33CHL1  H11B 2404   4.941   3.189   6.359  0.5068  0.4435 -0.1758
   33CHL1    C9 2405   5.032   3.383   6.368 -0.4033 -0.4824 -0.1570
   33CHL1    H9 2406   4.926   3.408   6.391 -0.2195  2.5642 -1.9862
   33CHL1   C10 2407   5.056   3.418   6.214  0.8649  0.2662  0.2844
   33CHL1   C19 2408   5.178   3.352   6.161 -0.4272 -0.6742  0.1531
   33CHL1  H19A 2409   5.161   3.244   6.146 -0.6439 -0.2690 -3.1272
   33CHL1  H19B 2410   5.206   3.390   6.060  2.6506 -0.4237  1.0007
   33CHL1  H19C 2411   5.277   3.363   6.211  0.0099  1.4723 -1.0590
   33CHL1    C1 2412   4.926   3.384   6.131  0.1313 -0.2706  0.1006
   33CHL1   H1A 2413   4.913   3.274   6.132  0.4421 -0.3208 -0.8800
   33CHL1   H1B 2414   4.839   3.430   6.183 -0.0208  1.3471 -1.4886
   33CHL1    C2 2415   4.919   3.431   5.985 -0.3678 -0.0658  1.2489
   33CHL1   H2A 2416   4.828   3.392   5.936  0.5399 -0.7952  0.0959
   33CHL1   H2B 2417   5.006   3.378   5.940  1.1112  1.1153  2.5828
   33CHL1   C20 2418   5.199   3.141   6.856 -0.2162  0.0176  0.5842
   33CHL1   H20 2419   5.296   3.104   6.817 -0.6059 -0.9628  0.5268
   33CHL1   C21 2420   5.088   3.036   6.862 -0.1506  0.7798 -0.8150
   33CHL1  H21A 2421   5.140   2.940   6.886  0.7045  2.0039  2.8644
   33CHL1  H21B 2422   5.034   3.029   6.766  1.0938 -3.6753 -1.4102
   33CHL1  H21C 2423   5.017   3.056   6.946 -0.7119  1.2498 -1.3927
   33CHL1   C22 2424   5.228   3.184   7.002 -0.6827 -0.4048 -0.2091
   33CHL1  H22A 2425   5.318   3.249   6.996 -1.2050  0.5850  1.7440
   33CHL1  H22B 2426   5.150   3.244   7.053 -2.0370 -1.2375 -1.2311
   33CHL1   C23 2427   5.274   3.063   7.091 -0.3164 -0.2077 -0.3254
   33CHL1  H23A 2428   5.182   3.015   7.132  0.4727 -0.6896  0.9440
   33CHL1  H23B 2429   5.340   2.994   7.034  1.1988  0.8633  0.0876
   33CHL1   C24 2430   5.360   3.112   7.213 -0.0293 -0.3308 -0.5897
   33CHL1  H24A 2431   5.465   3.128   7.180 -1.3898  3.0561 -4.0308
   33CHL1  H24B 2432   5.340   3.221   7.222  0.5980 -0.3385  1.3464
   33CHL1   C25 2433   5.356   3.027   7.337 -0.1893  0.4102  0.0577
   33CHL1   H25 2434   5.254   3.003   7.373 -0.9626 -0.6034 -2.6104
   33CHL1   C26 2435   5.422   2.881   7.312 -0.3025  0.3167  0.9569
   33CHL1  H26A 2436   5.421   2.820   7.405 -0.7160 -0.7799  0.2515
   33CHL1  H26B 2437   5.358   2.822   7.244  0.5877 -0.3407  0.6739
   33CHL1  H26C 2438   5.524   2.885   7.268  0.2256 -3.2271  1.5514
   33CHL1   C27 2439   5.433   3.095   7.446  0.1466 -0.0739  0.2185
   33CHL1  H27A 2440   5.462   3.026   7.528  0.1055 -1.8615 -1.2214
   33CHL1  H27B 2441   5.532   3.129   7.409 -0.5276  0.0049 -1.5961
   33CHL1  H27C 2442   5.375   3.177   7.494  0.2573  0.0477  0.1454
   34CHL1    C3 2443   4.897   2.351   6.025 -0.2640 -0.6500 -0.3436
   34CHL1    H3 2444   4.813   2.423   6.030  0.3397  0.1315 -1.0389
   34CHL1    O3 2445   4.928   2.315   5.889 -0.2012  0.0049 -1.0819
   34CHL1   H3' 2446   4.883   2.231   5.873  2.3177 -1.1615 -2.7197
   34CHL1    C4 2447   5.027   2.413   6.094  0.3213  0.1618  0.3619
   34CHL1   H4A 2448   5.113   2.346   6.077  0.7031  1.0114 -1.3145
   34CHL1   H4B 2449   5.053   2.512   6.049  0.9351 -1.3081 -2.8270
   34CHL1    C5 2450   5.000   2.436   6.239  0.1983  0.1279 -0.6108
   34CHL1    C6 2451   5.019   2.558   6.293  0.3797  0.2329 -0.1127
   34CHL1    H6 2452   5.045   2.642   6.227 -1.7485  0.5793 -0.5830
   34CHL1    C7 2453   5.004   2.592   6.440  0.2101  0.4570  0.0999
   34CHL1   H7A 2454   5.083   2.654   6.487 -2.0718  0.4952  4.4229
   34CHL1   H7B 2455   4.907   2.645   6.450 -0.5395 -1.0077  0.8965
   34CHL1    C8 2456   5.010   2.464   6.524  0.0384  0.3504 -0.5710
   34CHL1    H8 2457   5.112   2.423   6.536 -0.0193  0.3812  0.1047
   34CHL1   C14 2458   4.969   2.494   6.670  0.2103 -0.8640 -0.5636
   34CHL1   H14 2459   4.868   2.538   6.667  0.7762  0.7498  1.6654
   34CHL1   C15 2460   5.051   2.593   6.759 -0.1233 -0.0757 -0.7030
   34CHL1  H15A 2461   5.158   2.565   6.762 -0.0462  0.3214  1.4168
   34CHL1  H15B 2462   5.039   2.690   6.706 -0.2618  0.1535 -0.2576
   34CHL1   C16 2463   5.003   2.577   6.901  0.5340  0.0185  0.2873
   34CHL1  H16A 2464   5.080   2.571   6.981  0.9931  0.9079 -0.0646
   34CHL1  H16B 2465   4.958   2.674   6.933  2.2903  0.6615  0.9047
   34CHL1   C17 2466   4.915   2.447   6.907  0.4176  0.3212 -0.6878
   34CHL1   H17 2467   4.813   2.489   6.917 -0.3238 -1.7157  1.0876
   34CHL1   C13 2468   4.951   2.378   6.768 -0.0213  0.0741 -0.2267
   34CHL1   C18 2469   5.085   2.295   6.791  0.2301 -1.1318  0.1089
   34CHL1  H18A 2470   5.057   2.211   6.859 -0.5369  0.5745  2.0218
   34CHL1  H18B 2471   5.127   2.252   6.698 -0.0358 -3.4472  0.9988
   34CHL1  H18C 2472   5.162   2.355   6.844  0.7349 -1.8403  0.1867
   34CHL1   C12 2473   4.846   2.291   6.705 -0.1683  0.5652  0.4724
   34CHL1  H12A 2474   4.827   2.197   6.761  0.4606 -0.3788 -0.8417
   34CHL1  H12B 2475   4.746   2.337   6.692 -0.8941 -1.2037 -0.4955
   34CHL1   C11 2476   4.882   2.237   6.564 -0.1933  0.3583  0.5386
   34CHL1  H11A 2477   4.969   2.169   6.577 -0.9532 -0.5068  1.3112
   34CHL1  H11B 2478   4.808   2.171   6.514  0.7201 -1.4023  1.4001
   34CHL1    C9 2479   4.918   2.354   6.467  0.3130 -0.3629  0.6478
   34CHL1    H9 2480   4.820   2.405   6.453  1.2236  1.0730 -0.9440
   34CHL1   C10 2481   4.949   2.313   6.319  0.1158  0.0335 -0.6385
   34CHL1   C19 2482   5.065   2.210   6.335 -0.1016 -0.4963 -0.5538
   34CHL1  H19A 2483   5.142   2.252   6.403 -0.4455 -1.1341  0.2517
   34CHL1  H19B 2484   5.045   2.111   6.380 -0.2275 -0.2823 -0.1366
   34CHL1  H19C 2485   5.112   2.199   6.235  1.0543  1.9408 -0.3637
   34CHL1    C1 2486   4.826   2.251   6.249 -0.1416  0.5388  0.0942
   34CHL1   H1A 2487   4.805   2.155   6.301  0.0805  0.3000 -0.2473
   34CHL1   H1B 2488   4.746   2.326   6.265 -0.0185  0.8134 -0.5704
   34CHL1    C2 2489   4.848   2.222   6.100 -0.5674 -0.8966 -0.2861
   34CHL1   H2A 2490   4.749   2.194   6.058 -1.2120  0.5294  0.2391
   34CHL1   H2B 2491   4.911   2.131   6.086  0.4097  0.0212 -2.2599
   34CHL1   C20 2492   4.934   2.361   7.032  0.1304 -0.7096 -0.2687
   34CHL1   H20 2493   5.033   2.310   7.028 -0.1321 -1.5368  2.3279
   34CHL1   C21 2494   4.833   2.250   7.035 -0.6745  0.0844  0.4078
   34CHL1  H21A 2495   4.870   2.167   6.972 -2.5758 -1.0154  0.6666
   34CHL1  H21B 2496   4.734   2.282   6.995 -0.2156  0.5677 -0.3541
   34CHL1  H21C 2497   4.835   2.203   7.136 -2.4863 -0.3889  0.2704
   34CHL1   C22 2498   4.930   2.443   7.165 -0.8461 -0.3186  0.0432
   34CHL1  H22A 2499   4.971   2.545   7.154  0.6248 -0.7584  1.0660
   34CHL1  H22B 2500   4.824   2.462   7.193 -1.8940  0.1003 -3.7212
   34CHL1   C23 2501   5.019   2.369   7.273  0.5479  0.0315  0.2628
   34CHL1  H23A 2502   4.949   2.292   7.310 -0.8168  1.5136  0.9127
   34CHL1  H23B 2503   5.112   2.322   7.236  1.1384  2.0980 -1.0965
   34CHL1   C24 2504   5.053   2.464   7.390 -0.5628  0.2346 -0.0234
   34CHL1  H24A 2505   5.138   2.527   7.355  1.0233 -2.4521 -1.3467
   34CHL1  H24B 2506   4.962   2.522   7.416 -1.0173 -0.1608 -0.7115
   34CHL1   C25 2507   5.106   2.386   7.513 -0.6560 -0.0074 -0.6211
   34CHL1   H25 2508   5.179   2.313   7.471 -0.9097 -2.0997  2.2486
   34CHL1   C26 2509   5.183   2.473   7.615  0.3530  0.3296  0.4175
   34CHL1  H26A 2510   5.114   2.554   7.646 -1.9551  0.5303 -4.3185
   34CHL1  H26B 2511   5.213   2.416   7.705 -0.4484 -1.2534 -0.2670
   34CHL1  H26C 2512   5.277   2.519   7.579  0.6119  0.6806  1.5168
   34CHL1   C27 2513   4.995   2.302   7.580 -0.4059  0.2628  0.0661
   34CHL1  H27A 2514   4.950   2.227   7.511  2.0543 -1.4367  0.1618
   34CHL1  H27B 2515   5.030   2.257   7.675 -0.6030 -0.6700 -0.2814
   34CHL1  H27C 2516   4.915   2.376   7.601  1.1731  2.5052 -1.4070
   35CHL1    C3 2517   2.041   4.792   5.929  0.9636  0.7161 -0.1722
   35CHL1    H3 2518   2.147   4.814   5.952  1.2812 -2.3058  1.6552
   35CHL1    O3 2519   2.008   4.827   5.796 -0.1089  0.1198 -0.1262
   35CHL1   H3' 2520   1.919   4.864   5.802 -0.3366 -0.2039 -1.3891
   35CHL1    C4 2521   2.000   4.645   5.945 -0.7119  0.2980 -0.3587
   35CHL1   H4A 2522   1.897   4.621   5.910  0.1840 -2.1780 -1.5479
   35CHL1   H4B 2523   2.059   4.580   5.877 -2.2495 -0.3239 -1.1431
   35CHL1    C5 2524   2.025   4.599   6.090  0.4613  0.4250  0.0802
   35CHL1    C6 2525   2.097   4.490   6.114 -0.0265 -0.1691 -0.4155
   35CHL1    H6 2526   2.143   4.435   6.030 -2.4429 -2.7969 -0.1739
   35CHL1    C7 2527   2.122   4.430   6.257  0.1907  0.5283  0.5173
   35CHL1   H7A 2528   2.082   4.326   6.251 -0.4695  0.7833  0.3969
   35CHL1   H7B 2529   2.230   4.419   6.278 -0.3440  0.7486  3.8846
   35CHL1    C8 2530   2.045   4.501   6.370 -0.3659  0.5528 -0.1092
   35CHL1    H8 2531   1.945   4.453   6.369 -0.2322  0.2689 -1.1274
   35CHL1   C14 2532   2.119   4.469   6.498  0.1963  0.0485 -0.0921
   35CHL1   H14 2533   2.213   4.528   6.492 -0.6114  1.3996  0.2353
   35CHL1   C15 2534   2.150   4.321   6.537 -0.6074 -0.1625 -0.4412
   35CHL1  H15A 2535   2.071   4.247   6.510  0.4073 -1.3415 -0.2899
   35CHL1  H15B 2536   2.242   4.297   6.479  0.3743  1.4667  0.3716
   35CHL1   C16 2537   2.179   4.329   6.689  0.7160 -0.0008 -0.2226
   35CHL1  H16A 2538   2.097   4.270   6.735  0.0933 -0.2483 -1.5980
   35CHL1  H16B 2539   2.281   4.292   6.713  0.3611 -0.0416  1.3139
   35CHL1   C17 2540   2.152   4.473   6.725  0.1642  0.1403 -0.2465
   35CHL1   H17 2541   2.237   4.537   6.692  1.4780  0.4366  3.2425
   35CHL1   C13 2542   2.053   4.530   6.622 -0.3443 -1.5200 -0.0545
   35CHL1   C18 2543   1.911   4.474   6.642 -1.5449  0.1185 -0.1819
   35CHL1  H18A 2544   1.899   4.363   6.640  3.5122 -0.6488 -0.3387
   35CHL1  H18B 2545   1.862   4.510   6.735 -1.2183 -2.1088  0.9360
   35CHL1  H18C 2546   1.840   4.510   6.564  0.3010  1.8643 -1.1260
   35CHL1   C12 2547   2.049   4.682   6.600  0.3072  0.6027 -0.3461
   35CHL1  H12A 2548   1.991   4.717   6.688  1.8380 -2.7137  2.2052
   35CHL1  H12B 2549   2.151   4.726   6.605  1.6884 -1.8151 -3.5331
   35CHL1   C11 2550   1.976   4.723   6.476 -0.0288  0.2428  1.0409
   35CHL1  H11A 2551   1.869   4.699   6.495 -0.0307  0.2960  1.0984
   35CHL1  H11B 2552   1.981   4.830   6.448 -0.7610 -0.1285 -0.6454
   35CHL1    C9 2553   2.037   4.648   6.346  0.3310 -0.7249  1.0980
   35CHL1    H9 2554   2.142   4.685   6.342 -0.6042  2.1716  0.7388
   35CHL1   C10 2555   1.965   4.680   6.208 -0.2581 -0.0357 -0.6441
   35CHL1   C19 2556   1.815   4.656   6.217  0.0490 -0.2236 -0.5362
   35CHL1  H19A 2557   1.787   4.555   6.252  0.2869  0.4971  1.9499
   35CHL1  H19B 2558   1.761   4.724   6.287 -1.6316 -2.0906  0.0864
   35CHL1  H19C 2559   1.768   4.689   6.123 -3.8002  2.5971  2.0754
   35CHL1    C1 2560   1.998   4.826   6.176 -0.3969 -0.0290 -0.2244
   35CHL1   H1A 2561   1.944   4.899   6.240  1.2018 -0.4272  1.6802
   35CHL1   H1B 2562   2.108   4.834   6.193 -0.1830 -2.1536 -0.3501
   35CHL1    C2 2563   1.963   4.876   6.034 -0.1941 -0.2022  0.1461
   35CHL1   H2A 2564   1.973   4.985   6.013  1.2587 -0.7631 -2.5973
   35CHL1   H2B 2565   1.854   4.855   6.026 -0.0325 -1.1327  0.2813
   35CHL1   C20 2566   2.130   4.517   6.873  0.3433  0.9411  0.2466
   35CHL1   H20 2567   2.088   4.619   6.875  2.6798  1.9636  1.6083
   35CHL1   C21 2568   2.270   4.540   6.933  0.0590 -0.1382 -0.0443
   35CHL1  H21A 2569   2.323   4.443   6.934  1.0485  0.3910  1.4410
   35CHL1  H21B 2570   2.255   4.573   7.038 -3.0948  0.6079 -0.6248
   35CHL1  H21C 2571   2.322   4.620   6.876 -1.7140 -0.4605 -2.2495
   35CHL1   C22 2572   2.028   4.438   6.966 -1.0802  0.4353 -0.2007
   35CHL1  H22A 2573   1.928   4.446   6.919 -0.8880  0.7438 -0.5642
   35CHL1  H22B 2574   2.062   4.333   6.976 -1.2147  0.5200  1.5138
   35CHL1   C23 2575   2.005   4.499   7.103 -0.1264 -0.5354  0.6175
   35CHL1  H23A 2576   2.098   4.497   7.164  0.9317 -0.0180 -0.9176
   35CHL1  H23B 2577   1.971   4.605   7.106  1.1149 -0.1329  0.8060
   35CHL1   C24 2578   1.902   4.416   7.184  0.2028  0.2909  0.1738
   35CHL1  H24A 2579   1.807   4.398   7.130 -1.0421  1.8670  1.7057
   35CHL1  H24B 2580   1.950   4.318   7.202  0.8975 -0.0753 -3.0448
   35CHL1   C25 2581   1.861   4.472   7.319 -0.0710  0.3191  0.3388
   35CHL1   H25 2582   1.818   4.574   7.309  1.6590  1.0395 -0.0385
   35CHL1   C26 2583   1.738   4.380   7.369 -0.5341 -0.5821 -0.3271
   35CHL1  H26A 2584   1.726   4.398   7.478  0.5170  2.4048 -0.6265
   35CHL1  H26B 2585   1.642   4.398   7.317 -1.8241  1.6609  2.5770
   35CHL1  H26C 2586   1.766   4.273   7.353 -0.7822 -0.9229  1.2496
   35CHL1   C27 2587   1.967   4.456   7.432 -0.0990  1.7137 -0.4094
   35CHL1  H27A 2588   1.935   4.503   7.527 -3.3871  2.2920 -1.6887
   35CHL1  H27B 2589   2.066   4.501   7.406  0.3183  0.5219 -0.9502
   35CHL1  H27C 2590   2.008   4.354   7.444 -0.8245  1.3591 -0.9064
   36CHL1    C3 2591   1.821   2.398   6.096  0.2393  0.4861 -0.0535
   36CHL1    H3 2592   1.927   2.393   6.131  0.8305  1.5067 -1.5902
   36CHL1    O3 2593   1.808   2.400   5.952  0.3724 -0.1621  0.0812
   36CHL1   H3' 2594   1.721   2.433   5.931 -0.1734 -1.7544 -0.2818
   36CHL1    C4 2595   1.732   2.282   6.153  0.0140 -0.4070 -0.4762
   36CHL1   H4A 2596   1.632   2.291   6.106 -0.1460 -0.4720 -0.1528
   36CHL1   H4B 2597   1.777   2.190   6.110  1.3393 -0.2581  0.5106
   36CHL1    C5 2598   1.732   2.279   6.302 -0.1695 -0.0269  0.3733
   36CHL1    C6 2599   1.773   2.172   6.369 -0.5970  0.4982 -0.1370
   36CHL1    H6 2600   1.801   2.089   6.301  0.1420  1.0978 -0.5834
   36CHL1    C7 2601   1.776   2.157   6.519  0.1946  0.6922  0.2863
   36CHL1   H7A 2602   1.735   2.058   6.550  1.5179  0.2808  0.7881
   36CHL1   H7B 2603   1.877   2.150   6.566 -0.7876 -0.2784  2.3713
   36CHL1    C8 2604   1.687   2.263   6.588  0.6733 -0.6758 -0.2180
   36CHL1    H8 2605   1.579   2.242   6.573  0.2627  0.4727  0.9795
   36CHL1   C14 2606   1.727   2.268   6.731  0.5662  0.0452 -1.0914
   36CHL1   H14 2607   1.830   2.310   6.726  1.0841 -0.9890  0.3731
   36CHL1   C15 2608   1.739   2.147   6.806 -0.3586  0.1485  0.2569
   36CHL1  H15A 2609   1.655   2.078   6.783  1.7870 -2.1275 -1.3506
   36CHL1  H15B 2610   1.835   2.104   6.770  0.6245  2.8307 -0.5050
   36CHL1   C16 2611   1.744   2.193   6.956  0.4842 -0.5556  0.5579
   36CHL1  H16A 2612   1.661   2.136   7.005  0.5625 -0.8944  0.3009
   36CHL1  H16B 2613   1.840   2.190   7.012  1.0724  1.9653 -0.1971
   36CHL1   C17 2614   1.705   2.342   6.958  0.0165  0.0273  0.9862
   36CHL1   H17 2615   1.809   2.383   6.958 -0.5085  1.4745 -0.2915
   36CHL1   C13 2616   1.649   2.369   6.817 -0.0123  0.4351 -0.1270
   36CHL1   C18 2617   1.505   2.326   6.821 -0.0670 -0.9210 -1.1451
   36CHL1  H18A 2618   1.492   2.231   6.879  1.6402  0.0568  1.0123
   36CHL1  H18B 2619   1.445   2.401   6.876 -0.4566 -0.2012 -2.5233
   36CHL1  H18C 2620   1.460   2.319   6.720 -0.2718  1.2712 -1.2582
   36CHL1   C12 2621   1.679   2.508   6.753 -0.0407 -0.8762  0.2553
   36CHL1  H12A 2622   1.626   2.594   6.799 -0.3539 -0.1536 -1.3813
   36CHL1  H12B 2623   1.786   2.536   6.760 -0.5794  1.8687 -0.8934
   36CHL1   C11 2624   1.645   2.508   6.605  0.0783  0.1952 -0.3559
   36CHL1  H11A 2625   1.536   2.493   6.595 -0.1810  0.7601  1.3326
   36CHL1  H11B 2626   1.675   2.606   6.563  0.5482 -0.1113 -0.7410
   36CHL1    C9 2627   1.715   2.405   6.527 -0.2638  0.1845  0.1735
   36CHL1    H9 2628   1.822   2.426   6.547 -0.4903  2.2314 -0.4872
   36CHL1   C10 2629   1.689   2.408   6.372  0.0278 -0.8780  0.4909
   36CHL1   C19 2630   1.545   2.425   6.349 -0.3895 -0.3558  0.3436
   36CHL1  H19A 2631   1.508   2.408   6.246  0.7716 -0.4917 -0.0645
   36CHL1  H19B 2632   1.494   2.355   6.419  0.3571 -0.9872  0.2669
   36CHL1  H19C 2633   1.516   2.526   6.385  1.4268  0.3567 -0.0878
   36CHL1    C1 2634   1.769   2.523   6.310  0.6150  0.1819  0.5063
   36CHL1   H1A 2635   1.741   2.616   6.364  1.1750 -0.0217  1.1578
   36CHL1   H1B 2636   1.878   2.512   6.326  0.6345  0.2950  0.4558
   36CHL1    C2 2637   1.765   2.531   6.157 -0.3288 -0.0476  0.5528
   36CHL1   H2A 2638   1.830   2.614   6.124  1.8602 -2.1158 -0.5818
   36CHL1   H2B 2639   1.661   2.551   6.124  0.3505  2.7893 -0.1105
   36CHL1   C20 2640   1.640   2.392   7.089 -0.0335  0.4617  0.4260
   36CHL1   H20 2641   1.529   2.385   7.086  0.0276 -2.0276  1.5776
   36CHL1   C21 2642   1.670   2.543   7.110 -0.7266  0.3334  0.3136
   36CHL1  H21A 2643   1.640   2.604   7.022  2.2675  1.2126 -0.2047
   36CHL1  H21B 2644   1.777   2.564   7.132 -0.8575  2.1966 -0.5739
   36CHL1  H21C 2645   1.603   2.573   7.194 -0.5555 -0.9627  0.9298
   36CHL1   C22 2646   1.686   2.304   7.213  0.3721  0.7810  0.1378
   36CHL1  H22A 2647   1.654   2.199   7.195  0.4617  0.3824  2.0736
   36CHL1  H22B 2648   1.797   2.302   7.221  0.2978 -0.0877  1.1423
   36CHL1   C23 2649   1.629   2.358   7.350 -0.5046 -0.2182  0.5131
   36CHL1  H23A 2650   1.679   2.451   7.384  1.1302  0.2637 -2.8284
   36CHL1  H23B 2651   1.524   2.389   7.334 -0.4806  0.5597  1.6861
   36CHL1   C24 2652   1.643   2.242   7.449 -0.1147 -0.2758  0.5149
   36CHL1  H24A 2653   1.569   2.163   7.425  1.0592 -1.3533  0.2830
   36CHL1  H24B 2654   1.746   2.201   7.443 -0.7086 -2.1278  2.0827
   36CHL1   C25 2655   1.622   2.275   7.597  0.7121 -0.0692 -0.1827
   36CHL1   H25 2656   1.699   2.353   7.617 -1.2643  2.5235 -1.8943
   36CHL1   C26 2657   1.486   2.339   7.630  0.4322 -0.4167  0.0582
   36CHL1  H26A 2658   1.463   2.418   7.555  1.6810  0.5566  0.6548
   36CHL1  H26B 2659   1.400   2.271   7.615  0.0675 -0.4423  2.0747
   36CHL1  H26C 2660   1.478   2.382   7.732  2.4682  0.7837 -0.2305
   36CHL1   C27 2661   1.638   2.144   7.681 -0.5789  0.0733  0.2368
   36CHL1  H27A 2662   1.743   2.109   7.678 -1.0748 -1.4944  0.0037
   36CHL1  H27B 2663   1.605   2.159   7.786 -1.4816  0.6123 -0.1099
   36CHL1  H27C 2664   1.572   2.062   7.645  0.6966 -1.4049  1.1275
   37CHL1    C3 2665   4.465   5.908   5.932  0.5534  0.3060  1.1494
   37CHL1    H3 2666   4.361   5.867   5.936 -0.4985  2.5750 -0.5684
   37CHL1    O3 2667   4.468   5.949   5.794 -0.2498 -0.4786  0.0730
   37CHL1   H3' 2668   4.432   6.038   5.796  2.0923  0.5538 -0.4035
   37CHL1    C4 2669   4.476   6.024   6.036  0.0494 -0.4545  0.3159
   37CHL1   H4A 2670   4.575   6.074   6.036  0.6972 -1.6887  1.2239
   37CHL1   H4B 2671   4.394   6.096   6.018 -0.1628 -0.3874  1.5288
   37CHL1    C5 2672   4.470   5.972   6.178 -0.3325 -0.3666  0.5888
   37CHL1    C6 2673   4.383   6.018   6.262 -0.0806  0.8607 -0.1369
   37CHL1    H6 2674   4.310   6.091   6.223 -1.4487 -1.2688 -1.7485
   37CHL1    C7 2675   4.366   5.975   6.404 -0.6227 -0.4095  0.1029
   37CHL1   H7A 2676   4.369   6.064   6.469 -0.5444 -1.1214  1.0962
   37CHL1   H7B 2677   4.267   5.930   6.429 -0.9158  1.1122  1.8648
   37CHL1    C8 2678   4.495   5.893   6.453  0.4523  0.3523 -0.5275
   37CHL1    H8 2679   4.576   5.967   6.473  0.2900  0.1277  1.1765
   37CHL1   C14 2680   4.458   5.820   6.579 -0.1069 -0.7223 -0.3905
   37CHL1   H14 2681   4.379   5.748   6.548 -0.3139 -0.6820  0.0312
   37CHL1   C15 2682   4.387   5.903   6.689  0.6282  0.0663 -0.1813
   37CHL1  H15A 2683   4.422   6.008   6.697 -1.7264  0.8379  1.1164
   37CHL1  H15B 2684   4.281   5.900   6.653 -0.2084  2.8622  1.7158
   37CHL1   C16 2685   4.416   5.827   6.817 -0.0831  0.0117  0.3444
   37CHL1  H16A 2686   4.483   5.888   6.880 -0.3770 -0.6444  1.3127
   37CHL1  H16B 2687   4.330   5.798   6.881  0.8472  0.5683  1.8838
   37CHL1   C17 2688   4.499   5.701   6.779  1.0310  0.5918 -0.9300
   37CHL1   H17 2689   4.419   5.631   6.747  0.3287  0.9571  0.0012
   37CHL1   C13 2690   4.566   5.734   6.648 -0.3856  0.2177 -0.0828
   37CHL1   C18 2691   4.693   5.824   6.677  0.2100  0.3383 -0.3027
   37CHL1  H18A 2692   4.762   5.768   6.743 -1.5375 -0.9672  0.4859
   37CHL1  H18B 2693   4.744   5.848   6.581  0.5138  1.3593  0.0987
   37CHL1  H18C 2694   4.666   5.923   6.720  0.7586  0.3345  0.0560
   37CHL1   C12 2695   4.607   5.625   6.545 -0.4273 -0.3813  0.0219
   37CHL1  H12A 2696   4.685   5.564   6.596  0.2511 -0.8615 -1.5349
   37CHL1  H12B 2697   4.517   5.561   6.528  0.7867 -1.7303 -1.7155
   37CHL1   C11 2698   4.645   5.683   6.406  0.1164 -0.4631 -0.1965
   37CHL1  H11A 2699   4.743   5.735   6.416 -1.2250  2.3990 -0.8666
   37CHL1  H11B 2700   4.655   5.600   6.333 -0.1607  0.7767 -1.6650
   37CHL1    C9 2701   4.536   5.785   6.350 -0.2340  0.0725  0.1435
   37CHL1    H9 2702   4.443   5.733   6.321 -0.8732  0.2278  1.7772
   37CHL1   C10 2703   4.571   5.849   6.209  0.4923 -0.7327  0.0428
   37CHL1   C19 2704   4.708   5.924   6.211  0.1229  0.5222  0.3531
   37CHL1  H19A 2705   4.790   5.851   6.228 -0.8125 -0.1095  2.4264
   37CHL1  H19B 2706   4.731   5.970   6.112 -2.2750 -0.9954 -0.9994
   37CHL1  H19C 2707   4.723   5.987   6.301  0.5173  0.2761  0.4625
   37CHL1    C1 2708   4.566   5.741   6.096  0.1172  0.2086  0.3272
   37CHL1   H1A 2709   4.638   5.661   6.127  0.3734  0.0035 -0.7710
   37CHL1   H1B 2710   4.468   5.691   6.109  0.0856 -0.3249 -1.7055
   37CHL1    C2 2711   4.575   5.801   5.951 -0.1128  0.0794 -0.9541
   37CHL1   H2A 2712   4.556   5.718   5.879 -4.6213 -1.9266  2.0775
   37CHL1   H2B 2713   4.679   5.837   5.939  0.2841  0.3769  2.3044
   37CHL1   C20 2714   4.574   5.624   6.902  0.2655 -0.6950  0.1876
   37CHL1   H20 2715   4.664   5.685   6.926 -2.0271  2.2447  2.0682
   37CHL1   C21 2716   4.602   5.477   6.866  0.2335 -1.0101  0.1087
   37CHL1  H21A 2717   4.669   5.467   6.777  2.3259 -2.2216  1.7330
   37CHL1  H21B 2718   4.507   5.426   6.842  0.5084 -1.0736 -0.9226
   37CHL1  H21C 2719   4.651   5.422   6.949 -1.7146  0.0035  2.0243
   37CHL1   C22 2720   4.482   5.623   7.022 -0.1944 -0.0570 -0.1812
   37CHL1  H22A 2721   4.427   5.718   7.040 -1.3450 -0.3382 -2.0608
   37CHL1  H22B 2722   4.410   5.539   7.021 -1.1537  0.7406 -2.1662
   37CHL1   C23 2723   4.574   5.604   7.154 -0.2094 -0.2445 -0.8159
   37CHL1  H23A 2724   4.640   5.515   7.154  2.0766  1.3574 -0.6694
   37CHL1  H23B 2725   4.642   5.693   7.152 -1.0309  0.4172 -0.1018
   37CHL1   C24 2726   4.483   5.622   7.276 -0.1092 -0.2884 -0.9623
   37CHL1  H24A 2727   4.422   5.712   7.252  0.9194  0.7856  0.2827
   37CHL1  H24B 2728   4.424   5.528   7.280  0.9992 -1.1282 -2.9210
   37CHL1   C25 2729   4.556   5.647   7.417  0.0911  0.3305  0.4028
   37CHL1   H25 2730   4.640   5.720   7.407 -0.2430  0.8099  1.0121
   37CHL1   C26 2731   4.455   5.713   7.511  0.0834 -0.0124 -0.1690
   37CHL1  H26A 2732   4.500   5.707   7.612  0.1287  0.2292 -0.1746
   37CHL1  H26B 2733   4.424   5.816   7.484  0.8697 -0.3800 -2.7617
   37CHL1  H26C 2734   4.376   5.636   7.522  0.7580 -0.5675  0.9294
   37CHL1   C27 2735   4.611   5.514   7.478 -1.2816 -0.4698  0.9565
   37CHL1  H27A 2736   4.529   5.440   7.490 -0.1535 -1.6563  1.6013
   37CHL1  H27B 2737   4.687   5.473   7.408 -0.3589 -0.0062  1.6654
   37CHL1  H27C 2738   4.654   5.539   7.577 -1.1943  0.9743  0.5860
   38CHL1    C3 2739   2.718   5.406   5.927  0.3692  0.0272  0.6921
   38CHL1    H3 2740   2.608   5.399   5.937  0.4249 -0.9815  0.7514
   38CHL1    O3 2741   2.763   5.418   5.793  0.5509  0.4599 -0.4385
   38CHL1   H3' 2742   2.795   5.508   5.783  1.1797  0.4842  1.4520
   38CHL1    C4 2743   2.756   5.530   6.003 -0.0325 -0.4219 -0.1044
   38CHL1   H4A 2744   2.866   5.547   5.998 -0.1922  0.6667 -0.2399
   38CHL1   H4B 2745   2.702   5.617   5.959  0.3050 -0.8625 -1.4544
   38CHL1    C5 2746   2.717   5.519   6.143  0.4797  0.3608 -0.0314
   38CHL1    C6 2747   2.627   5.608   6.189 -0.7427  0.3561 -0.0403
   38CHL1    H6 2748   2.591   5.692   6.128 -0.2669  0.1339 -0.6404
   38CHL1    C7 2749   2.575   5.597   6.327  0.2627  0.4300 -0.5489
   38CHL1   H7A 2750   2.574   5.692   6.384  0.2354  0.0220  0.1380
   38CHL1   H7B 2751   2.475   5.549   6.326  0.8511 -0.9363  1.6175
   38CHL1    C8 2752   2.665   5.504   6.426 -0.8056 -1.0891  1.5555
   38CHL1    H8 2753   2.759   5.562   6.438  0.2414 -2.1558 -0.7460
   38CHL1   C14 2754   2.599   5.478   6.562  0.3507  0.5572 -0.3123
   38CHL1   H14 2755   2.503   5.429   6.537  0.5576 -0.1935  0.3403
   38CHL1   C15 2756   2.566   5.599   6.648  0.3465 -0.2054 -0.7768
   38CHL1  H15A 2757   2.656   5.658   6.674 -1.5394  1.9234  1.4279
   38CHL1  H15B 2758   2.488   5.658   6.595  1.9590  0.7007 -2.2449
   38CHL1   C16 2759   2.521   5.532   6.781 -0.1575  0.4758 -0.1890
   38CHL1  H16A 2760   2.558   5.594   6.865 -0.0872  0.4300 -0.1862
   38CHL1  H16B 2761   2.410   5.529   6.786 -0.3514  2.7715 -1.6606
   38CHL1   C17 2762   2.579   5.382   6.783 -0.0298 -0.4429 -0.5160
   38CHL1   H17 2763   2.493   5.320   6.752 -0.4635  0.4359 -1.1185
   38CHL1   C13 2764   2.666   5.383   6.653  0.2512 -0.2755 -0.3089
   38CHL1   C18 2765   2.807   5.438   6.691 -0.4992  0.1999  0.0882
   38CHL1  H18A 2766   2.814   5.532   6.750 -0.6372  0.3916 -0.1981
   38CHL1  H18B 2767   2.864   5.351   6.731  2.8462  1.0544 -2.3895
   38CHL1  H18C 2768   2.871   5.443   6.600 -1.6779 -1.6426 -0.8959
   38CHL1   C12 2769   2.676   5.253   6.578  0.7375 -0.3004  0.5391
   38CHL1  H12A 2770   2.733   5.181   6.639  1.2285 -0.6623 -0.3281
   38CHL1  H12B 2771   2.579   5.209   6.545  1.1488 -0.3341 -0.6804
   38CHL1   C11 2772   2.753   5.272   6.441  0.1117  0.2154  0.4199
   38CHL1  H11A 2773   2.856   5.310   6.459 -0.9008  2.1414  2.7765
   38CHL1  H11B 2774   2.756   5.178   6.382  1.4232  0.0780  0.6780
   38CHL1    C9 2775   2.693   5.378   6.349  0.6481  0.2348  0.4240
   38CHL1    H9 2776   2.591   5.340   6.326  1.2662  0.1252 -2.4283
   38CHL1   C10 2777   2.774   5.397   6.223 -0.3292 -0.2988  0.2826
   38CHL1   C19 2778   2.926   5.432   6.252 -0.2864 -0.3117  0.5049
   38CHL1  H19A 2779   2.924   5.514   6.327  1.8144  0.7889 -0.5788
   38CHL1  H19B 2780   2.972   5.338   6.289  0.6127 -0.5303 -1.0904
   38CHL1  H19C 2781   2.976   5.471   6.161  1.0302  0.0031  1.3380
   38CHL1    C1 2782   2.762   5.266   6.132  0.1423 -0.0428  0.4039
   38CHL1   H1A 2783   2.815   5.177   6.172 -0.4526 -0.9788 -0.8526
   38CHL1   H1B 2784   2.654   5.241   6.131  0.0930  0.0447 -1.9106
   38CHL1    C2 2785   2.793   5.293   5.985  0.2761  0.6246 -0.0272
   38CHL1   H2A 2786   2.788   5.201   5.923  0.0477  0.9623 -0.5159
   38CHL1   H2B 2787   2.902   5.312   5.977  0.3375 -0.0085 -0.8175
   38CHL1   C20 2788   2.640   5.333   6.919  0.4853  0.3660  0.5323
   38CHL1   H20 2789   2.739   5.381   6.936  1.0074  0.1746 -1.6972
   38CHL1   C21 2790   2.684   5.181   6.905  0.0082 -0.4934  0.0534
   38CHL1  H21A 2791   2.690   5.129   7.002  1.2125 -2.0051 -0.7882
   38CHL1  H21B 2792   2.788   5.194   6.869  0.2575 -1.1585  0.5109
   38CHL1  H21C 2793   2.621   5.122   6.835  1.3583 -0.7634 -0.9723
   38CHL1   C22 2794   2.553   5.347   7.040  0.2313 -0.6272 -0.5605
   38CHL1  H22A 2795   2.511   5.449   7.045 -0.3827 -0.7321 -2.5283
   38CHL1  H22B 2796   2.472   5.273   7.023  0.0672 -0.2664 -1.3761
   38CHL1   C23 2797   2.612   5.321   7.181  0.6057 -0.1961  0.1351
   38CHL1  H23A 2798   2.654   5.219   7.193  0.8961 -0.1858 -0.7269
   38CHL1  H23B 2799   2.689   5.397   7.207  1.4688 -1.6871  2.1652
   38CHL1   C24 2800   2.510   5.358   7.301 -0.4890  0.3567  0.0841
   38CHL1  H24A 2801   2.497   5.468   7.292 -0.2873  0.3765  0.0469
   38CHL1  H24B 2802   2.411   5.314   7.275 -0.8664 -0.8163  3.0988
   38CHL1   C25 2803   2.535   5.301   7.440 -0.1010  0.3802 -0.2196
   38CHL1   H25 2804   2.450   5.340   7.501  0.9797  3.7458 -0.6257
   38CHL1   C26 2805   2.547   5.147   7.443  0.0881  0.1111 -0.1735
   38CHL1  H26A 2806   2.635   5.111   7.385  0.4888 -0.6608  0.8866
   38CHL1  H26B 2807   2.559   5.095   7.540  0.1757 -1.3645 -0.9413
   38CHL1  H26C 2808   2.459   5.089   7.409  1.2107 -0.9378 -1.4372
   38CHL1   C27 2809   2.666   5.355   7.491  0.2808 -0.1944  0.4016
   38CHL1  H27A 2810   2.665   5.465   7.504  1.7247 -0.2600  1.2984
   38CHL1  H27B 2811   2.690   5.311   7.590 -1.0918 -0.7033  0.5224
   38CHL1  H27C 2812   2.748   5.337   7.418 -0.1503 -2.2923  0.3766
   39CHL1    C3 2813   2.341   5.221   5.933  1.0156 -0.2770 -0.0606
   39CHL1    H3 2814   2.447   5.236   5.961  0.8120 -1.9657  1.8601
   39CHL1    O3 2815   2.335   5.206   5.794  0.2793  0.4773 -0.0825
   39CHL1   H3' 2816   2.246   5.179   5.770  0.3033  1.1176 -0.9266
   39CHL1    C4 2817   2.281   5.102   6.003 -0.3606 -0.7242 -0.7045
   39CHL1   H4A 2818   2.180   5.090   5.958 -0.6934  0.4161 -0.3042
   39CHL1   H4B 2819   2.334   5.007   5.981  1.4852  0.2352 -0.5189
   39CHL1    C5 2820   2.273   5.116   6.159 -1.0661 -0.2832  0.0915
   39CHL1    C6 2821   2.320   5.022   6.247  0.2995 -0.5624  0.0090
   39CHL1    H6 2822   2.374   4.932   6.214 -0.5335 -1.2642  0.5164
   39CHL1    C7 2823   2.314   5.026   6.396 -0.0650  0.4672  0.3500
   39CHL1   H7A 2824   2.286   4.926   6.435  0.9329  0.6342  1.5456
   39CHL1   H7B 2825   2.416   5.052   6.430 -0.6023 -0.1200  2.5707
   39CHL1    C8 2826   2.221   5.136   6.445 -0.2722  0.6241  0.2508
   39CHL1    H8 2827   2.121   5.089   6.436  0.5842 -1.0748 -1.0632
   39CHL1   C14 2828   2.244   5.164   6.591  0.1731  0.4897  0.1774
   39CHL1   H14 2829   2.343   5.216   6.596  0.3399  0.2758 -0.7097
   39CHL1   C15 2830   2.245   5.048   6.686 -0.1162  0.6495 -0.5865
   39CHL1  H15A 2831   2.148   4.993   6.684  0.5585 -0.6386  0.4210
   39CHL1  H15B 2832   2.336   4.987   6.667 -0.4539 -0.2378  0.4961
   39CHL1   C16 2833   2.255   5.111   6.830 -0.1683 -0.0411 -0.0956
   39CHL1  H16A 2834   2.190   5.053   6.899 -1.7501  0.6280 -0.9535
   39CHL1  H16B 2835   2.357   5.096   6.870 -0.2493 -0.9742 -0.2370
   39CHL1   C17 2836   2.211   5.264   6.809  0.0620 -0.1293 -0.2440
   39CHL1   H17 2837   2.303   5.327   6.812 -0.2951  0.3443  1.4400
   39CHL1   C13 2838   2.153   5.265   6.660  0.5993 -0.1548 -0.4134
   39CHL1   C18 2839   2.003   5.216   6.653 -0.3639 -0.9006 -0.2407
   39CHL1  H18A 2840   1.991   5.148   6.740  2.4125 -0.6340  0.4784
   39CHL1  H18B 2841   1.940   5.306   6.671  1.5856  0.7078 -0.8922
   39CHL1  H18C 2842   1.973   5.173   6.555  1.4219  1.6680 -2.0734
   39CHL1   C12 2843   2.187   5.394   6.585  0.7297  0.3803  0.0839
   39CHL1  H12A 2844   2.117   5.465   6.635  0.8420  1.3849 -1.1279
   39CHL1  H12B 2845   2.285   5.423   6.629  0.6517 -1.1508  1.3200
   39CHL1   C11 2846   2.157   5.388   6.437 -0.2855  0.7801 -0.6699
   39CHL1  H11A 2847   2.048   5.375   6.421  0.1279 -0.5904 -2.8115
   39CHL1  H11B 2848   2.189   5.486   6.396 -0.5072  1.4604  0.7181
   39CHL1    C9 2849   2.237   5.268   6.373  0.0371 -0.6171  0.1522
   39CHL1    H9 2850   2.342   5.306   6.383 -0.0219 -0.5058  0.3687
   39CHL1   C10 2851   2.210   5.244   6.217  0.4042  0.3515 -0.4262
   39CHL1   C19 2852   2.052   5.245   6.206 -0.0903 -0.4036  0.3589
   39CHL1  H19A 2853   2.014   5.228   6.102 -3.4059  0.5870  1.2770
   39CHL1  H19B 2854   2.007   5.166   6.270 -1.9196 -0.8853 -1.4125
   39CHL1  H19C 2855   2.016   5.348   6.228 -0.7977 -0.7921  1.0788
   39CHL1    C1 2856   2.271   5.354   6.128  0.0054 -0.8650 -0.2347
   39CHL1   H1A 2857   2.216   5.445   6.161 -1.8503 -2.5488  1.5219
   39CHL1   H1B 2858   2.374   5.383   6.160 -0.0657 -2.8489  2.0047
   39CHL1    C2 2859   2.267   5.346   5.975  0.1367 -0.0066  0.3372
   39CHL1   H2A 2860   2.305   5.438   5.924 -0.9033  0.8489  1.0547
   39CHL1   H2B 2861   2.158   5.343   5.952  0.5306  0.5499 -1.8849
   39CHL1   C20 2862   2.124   5.316   6.922  0.0908 -0.1456  0.2620
   39CHL1   H20 2863   2.036   5.249   6.931 -2.6348  3.1117 -0.0602
   39CHL1   C21 2864   2.058   5.452   6.908 -0.4424 -0.3397 -0.6051
   39CHL1  H21A 2865   1.986   5.476   6.990 -0.8738  0.1396 -1.1148
   39CHL1  H21B 2866   2.003   5.472   6.813 -0.3711  0.1322 -0.5493
   39CHL1  H21C 2867   2.140   5.526   6.901  0.5678 -1.5637 -2.3123
   39CHL1   C22 2868   2.193   5.302   7.055 -0.1767 -0.0026 -0.3350
   39CHL1  H22A 2869   2.229   5.198   7.069  0.8457  0.3406 -0.2970
   39CHL1  H22B 2870   2.280   5.371   7.054  1.5220 -2.0289 -0.1288
   39CHL1   C23 2871   2.090   5.327   7.171 -0.1183 -0.2581 -0.2262
   39CHL1  H23A 2872   2.067   5.435   7.186 -1.5422 -0.6738  0.8865
   39CHL1  H23B 2873   1.997   5.273   7.144 -0.8511  1.9042 -2.3904
   39CHL1   C24 2874   2.139   5.268   7.306  0.8197  0.0556  0.5974
   39CHL1  H24A 2875   2.200   5.175   7.299 -1.5091 -1.5171 -0.0032
   39CHL1  H24B 2876   2.209   5.345   7.346 -2.2428  2.4151  1.7974
   39CHL1   C25 2877   2.027   5.260   7.406  0.4758  0.2182  0.5081
   39CHL1   H25 2878   1.966   5.170   7.385  1.5189 -0.1550 -1.1301
   39CHL1   C26 2879   2.090   5.239   7.545  0.0497 -0.5833 -0.3823
   39CHL1  H26A 2880   2.175   5.169   7.553  0.7661  0.4431  2.4563
   39CHL1  H26B 2881   2.116   5.340   7.584 -0.4622 -0.6183  0.0783
   39CHL1  H26C 2882   2.020   5.204   7.624 -0.2626 -0.2761 -0.5171
   39CHL1   C27 2883   1.928   5.373   7.396 -0.2595  0.2514 -0.9713
   39CHL1  H27A 2884   1.880   5.381   7.296 -0.1672  1.0544 -0.9566
   39CHL1  H27B 2885   1.843   5.373   7.468  0.4179  3.1460 -0.0545
   39CHL1  H27C 2886   1.981   5.469   7.415 -1.9637  1.0970 -0.2971
   40CHL1    C3 2887   5.580   3.553   5.810 -0.5046  0.7157 -0.3720
   40CHL1    H3 2888   5.672   3.504   5.774  1.4482  1.5999  2.9781
   40CHL1    O3 2889   5.515   3.594   5.690 -0.5253 -0.0813 -0.1686
   40CHL1   H3' 2890   5.451   3.664   5.708 -0.4615  0.7878 -2.9083
   40CHL1    C4 2891   5.484   3.454   5.884 -0.4431 -0.5931  0.1410
   40CHL1   H4A 2892   5.391   3.509   5.912 -1.1725 -0.6049 -2.0306
   40CHL1   H4B 2893   5.461   3.371   5.813  0.5441 -1.1826  0.4978
   40CHL1    C5 2894   5.557   3.409   6.017 -0.7293  0.7510  0.0930
   40CHL1    C6 2895   5.566   3.283   6.052 -0.0065  0.0589  0.4522
   40CHL1    H6 2896   5.521   3.205   5.989 -0.0585 -0.5111  1.1788
   40CHL1    C7 2897   5.641   3.234   6.180  0.2351 -0.9999  0.8219
   40CHL1   H7A 2898   5.572   3.162   6.231 -0.3938 -0.0801  1.2895
   40CHL1   H7B 2899   5.738   3.187   6.154  2.2264  3.5869 -1.0160
   40CHL1    C8 2900   5.655   3.354   6.284  0.6321  0.2276  0.1865
   40CHL1    H8 2901   5.550   3.363   6.319  1.0153  1.3555  1.0999
   40CHL1   C14 2902   5.747   3.309   6.397 -0.2276 -0.2327 -0.0715
   40CHL1   H14 2903   5.846   3.284   6.354  0.2146 -0.9240  1.2722
   40CHL1   C15 2904   5.698   3.186   6.478  0.6186 -0.5501  0.1505
   40CHL1  H15A 2905   5.591   3.187   6.508  1.1400  1.1641  2.2214
   40CHL1  H15B 2906   5.713   3.089   6.428  1.2854 -0.0766 -0.5776
   40CHL1   C16 2907   5.783   3.192   6.608 -0.4370  0.4851 -0.1790
   40CHL1  H16A 2908   5.717   3.173   6.696  1.6343  2.9503  2.1039
   40CHL1  H16B 2909   5.868   3.121   6.606  0.2524  1.3088 -1.3206
   40CHL1   C17 2910   5.837   3.336   6.608  0.0122 -0.6721  0.2717
   40CHL1   H17 2911   5.941   3.320   6.571  1.2569  0.1588  3.1385
   40CHL1   C13 2912   5.763   3.421   6.498 -0.7887 -0.0499 -0.0110
   40CHL1   C18 2913   5.629   3.465   6.557  0.1078 -0.4448  0.9080
   40CHL1  H18A 2914   5.590   3.374   6.608  0.0477 -0.0356  1.6091
   40CHL1  H18B 2915   5.643   3.539   6.639 -2.3974 -0.4779  1.4585
   40CHL1  H18C 2916   5.547   3.495   6.488  0.6946 -0.7906  0.0451
   40CHL1   C12 2917   5.840   3.528   6.415 -0.1282  0.0080 -0.6849
   40CHL1  H12A 2918   5.882   3.610   6.478 -0.5094  1.0955 -1.7823
   40CHL1  H12B 2919   5.930   3.482   6.368 -0.0145 -0.1313 -0.3311
   40CHL1   C11 2920   5.759   3.591   6.303 -0.0597 -0.2037 -0.6987
   40CHL1  H11A 2921   5.675   3.645   6.352  0.0891  0.1276 -0.8029
   40CHL1  H11B 2922   5.824   3.665   6.251  1.1640 -0.1028  0.8791
   40CHL1    C9 2923   5.713   3.472   6.214  0.0613 -0.0677 -0.2148
   40CHL1    H9 2924   5.810   3.443   6.170  0.1679  0.1191 -0.1006
   40CHL1   C10 2925   5.617   3.522   6.102 -0.1160 -0.2812 -0.5466
   40CHL1   C19 2926   5.497   3.594   6.174  0.3348  0.0451  0.4432
   40CHL1  H19A 2927   5.409   3.596   6.106  1.5004  0.3611 -1.0911
   40CHL1  H19B 2928   5.465   3.525   6.256 -1.2180 -1.8742 -1.6449
   40CHL1  H19C 2929   5.523   3.698   6.202 -0.7809  1.9763 -4.6005
   40CHL1    C1 2930   5.699   3.628   6.013 -0.2365  0.7997 -0.0425
   40CHL1   H1A 2931   5.715   3.721   6.072 -0.0464  0.8983 -0.2492
   40CHL1   H1B 2932   5.796   3.582   5.988 -0.6005  0.0383 -0.0817
   40CHL1    C2 2933   5.620   3.671   5.890 -0.0834  0.6002 -0.0726
   40CHL1   H2A 2934   5.688   3.735   5.830 -0.4132  0.1043 -0.9959
   40CHL1   H2B 2935   5.534   3.722   5.939  0.5694  0.2014  1.5813
   40CHL1   C20 2936   5.841   3.399   6.746 -0.5723  0.2715 -0.4571
   40CHL1   H20 2937   5.739   3.423   6.784 -0.6794 -1.0349  0.1287
   40CHL1   C21 2938   5.919   3.537   6.743 -0.0734 -0.0661  0.1407
   40CHL1  H21A 2939   5.946   3.574   6.844  0.0867  0.0728  0.0484
   40CHL1  H21B 2940   5.861   3.616   6.691  0.1497  0.5907  0.8726
   40CHL1  H21C 2941   6.019   3.527   6.696  0.5183  1.6663  0.9526
   40CHL1   C22 2942   5.904   3.308   6.859  0.1184  0.4924  0.1008
   40CHL1  H22A 2943   5.898   3.200   6.831  3.6271 -0.3757  2.0991
   40CHL1  H22B 2944   6.013   3.325   6.849  0.4539 -2.2105 -2.4567
   40CHL1   C23 2945   5.863   3.329   7.001 -0.1569 -0.7081 -0.1556
   40CHL1  H23A 2946   5.848   3.438   7.011  0.1449 -0.7035  0.3252
   40CHL1  H23B 2947   5.764   3.279   7.007 -1.6175  2.0511  0.2581
   40CHL1   C24 2948   5.956   3.290   7.115  0.1499  0.6143  0.6271
   40CHL1  H24A 2949   5.919   3.300   7.220 -0.3420  0.7548  0.4452
   40CHL1  H24B 2950   5.951   3.181   7.096 -0.8939  0.5409  1.2222
   40CHL1   C25 2951   6.100   3.345   7.109 -0.3618 -0.1734 -0.3245
   40CHL1   H25 2952   6.140   3.326   7.007 -0.1805  0.3936 -0.3654
   40CHL1   C26 2953   6.098   3.496   7.132  0.2876  0.0187 -0.7238
   40CHL1  H26A 2954   6.202   3.536   7.126  0.0208  0.7307 -0.6811
   40CHL1  H26B 2955   6.044   3.557   7.057  0.2754  1.7572  0.6040
   40CHL1  H26C 2956   6.050   3.521   7.229 -0.1089  0.4209 -1.0193
   40CHL1   C27 2957   6.201   3.278   7.210  0.1383  0.1911  0.5249
   40CHL1  H27A 2958   6.160   3.293   7.312  0.7926  0.1380  0.8012
   40CHL1  H27B 2959   6.226   3.174   7.180 -0.3173  0.2747 -0.1693
   40CHL1  H27C 2960   6.298   3.332   7.204  1.5045 -2.3000 -1.5253
   41CHL1    C3 2961   5.874   4.136   5.753  0.0513  0.0554  0.0922
   41CHL1    H3 2962   5.979   4.155   5.722 -0.3747  2.4632 -0.1062
   41CHL1    O3 2963   5.796   4.125   5.638  0.3949 -0.3310  0.4001
   41CHL1   H3' 2964   5.849   4.070   5.579  1.3235  1.5393 -0.6386
   41CHL1    C4 2965   5.862   3.995   5.820  0.4753 -0.7071 -0.0417
   41CHL1   H4A 2966   5.757   3.963   5.808 -0.2914  0.2469  3.2703
   41CHL1   H4B 2967   5.926   3.931   5.754 -1.6035 -1.8437 -1.0516
   41CHL1    C5 2968   5.920   3.999   5.958  0.2980  0.7288  0.6669
   41CHL1    C6 2969   6.030   3.922   5.987  0.8818  0.2127  0.2519
   41CHL1    H6 2970   6.071   3.850   5.915 -1.2641 -0.3578 -0.4457
   41CHL1    C7 2971   6.084   3.916   6.130  0.2855  0.9209  0.3105
   41CHL1   H7A 2972   6.111   3.812   6.157  0.0847  0.3292 -1.6401
   41CHL1   H7B 2973   6.175   3.978   6.145  0.4479  0.3136  2.0130
   41CHL1    C8 2974   5.982   3.972   6.232  0.3555  0.0160 -0.1254
   41CHL1    H8 2975   5.898   3.900   6.237 -0.4564  0.9856  0.6713
   41CHL1   C14 2976   6.051   3.999   6.370 -0.0006 -0.3081 -0.1489
   41CHL1   H14 2977   6.126   4.079   6.353  1.0091 -1.5944 -2.0929
   41CHL1   C15 2978   6.143   3.896   6.438 -0.0284 -0.4514  0.4154
   41CHL1  H15A 2979   6.088   3.799   6.441 -0.0497 -0.4853 -0.8234
   41CHL1  H15B 2980   6.237   3.886   6.380 -0.2218  1.1414 -0.2021
   41CHL1   C16 2981   6.153   3.946   6.583 -0.5735 -0.1620  1.1643
   41CHL1  H16A 2982   6.141   3.859   6.652 -1.5060  0.7859  2.2539
   41CHL1  H16B 2983   6.257   3.981   6.594  0.5911 -3.0091  0.2480
   41CHL1   C17 2984   6.063   4.064   6.597  0.1386  0.7346  0.4429
   41CHL1   H17 2985   6.127   4.153   6.580  3.5544 -1.5321  0.5478
   41CHL1   C13 2986   5.962   4.049   6.479 -0.6531  0.0022 -0.3687
   41CHL1   C18 2987   5.852   3.942   6.506 -0.2123 -0.0036  0.0138
   41CHL1  H18A 2988   5.792   3.974   6.594 -1.6982 -0.7662 -0.6786
   41CHL1  H18B 2989   5.781   3.926   6.423  1.5226 -0.4612 -1.4537
   41CHL1  H18C 2990   5.898   3.842   6.522  2.7949  1.6084  2.7298
   41CHL1   C12 2991   5.897   4.183   6.432 -0.4423  0.9984  0.1189
   41CHL1  H12A 2992   5.819   4.215   6.504 -0.9663  2.0004 -0.8586
   41CHL1  H12B 2993   5.988   4.246   6.428 -0.5454  1.1263 -0.2080
   41CHL1   C11 2994   5.823   4.162   6.298 -0.1014  0.3018 -0.6846
   41CHL1  H11A 2995   5.739   4.092   6.318 -0.1638  0.7944  0.9087
   41CHL1  H11B 2996   5.781   4.256   6.256 -2.2585 -0.3283 -0.0783
   41CHL1    C9 2997   5.915   4.103   6.189  0.1753 -0.2355  0.1725
   41CHL1    H9 2998   6.002   4.171   6.182 -0.4705  0.8546  2.0676
   41CHL1   C10 2999   5.854   4.094   6.049  0.4614 -0.1064 -0.3569
   41CHL1   C19 3000   5.705   4.041   6.064 -0.3866 -0.6797  0.8561
   41CHL1  H19A 3001   5.703   3.937   6.103 -0.1594 -0.8491  0.4190
   41CHL1  H19B 3002   5.642   4.107   6.128 -0.7878  2.0793 -2.1339
   41CHL1  H19C 3003   5.649   4.051   5.969 -1.8370 -0.0752  1.7388
   41CHL1    C1 3004   5.846   4.237   5.985  0.2218  0.1992 -1.2124
   41CHL1   H1A 3005   5.774   4.290   6.051 -0.6235 -2.1054 -0.1708
   41CHL1   H1B 3006   5.952   4.271   5.994 -0.2303  1.0116  3.2305
   41CHL1    C2 3007   5.804   4.246   5.841 -0.5306 -0.3818  0.6328
   41CHL1   H2A 3008   5.827   4.349   5.806  1.7982 -1.5009 -1.3897
   41CHL1   H2B 3009   5.694   4.232   5.833 -0.6080  0.2153  0.5773
   41CHL1   C20 3010   6.000   4.071   6.742 -0.1350  0.7895 -0.6171
   41CHL1   H20 3011   5.937   3.982   6.762 -1.0087  1.6660  0.6903
   41CHL1   C21 3012   5.917   4.199   6.757  0.0685 -0.2052 -0.3110
   41CHL1  H21A 3013   5.926   4.234   6.862  0.6228 -0.5387 -0.2447
   41CHL1  H21B 3014   5.810   4.178   6.736 -0.1002 -0.8397  1.0610
   41CHL1  H21C 3015   5.948   4.273   6.681 -1.0420  0.8698  0.2339
   41CHL1   C22 3016   6.116   4.068   6.851 -0.6498  0.1211 -0.3064
   41CHL1  H22A 3017   6.197   3.996   6.824 -0.2535  0.5834 -0.3637
   41CHL1  H22B 3018   6.158   4.171   6.851 -0.7917  0.2619  2.4351
   41CHL1   C23 3019   6.056   4.038   6.991  0.4595 -0.2000 -0.1203
   41CHL1  H23A 3020   5.962   4.095   7.005  0.9605  0.7820 -0.5865
   41CHL1  H23B 3021   6.019   3.933   6.994  0.1742 -0.2102 -2.2017
   41CHL1   C24 3022   6.162   4.068   7.093 -0.0931 -0.3028  0.3795
   41CHL1  H24A 3023   6.262   4.026   7.066 -0.1923 -0.0914 -0.3502
   41CHL1  H24B 3024   6.182   4.177   7.096  3.3401 -0.8304  0.8176
   41CHL1   C25 3025   6.150   4.015   7.237  0.2581 -0.7891  0.2383
   41CHL1   H25 3026   6.049   4.052   7.264  0.5674 -0.5339  1.1065
   41CHL1   C26 3027   6.162   3.865   7.264  0.1161  0.3760  0.2232
   41CHL1  H26A 3028   6.254   3.817   7.224 -0.5868 -1.3726  0.6048
   41CHL1  H26B 3029   6.164   3.846   7.373  0.2669 -1.3730 -0.0531
   41CHL1  H26C 3030   6.071   3.815   7.223  0.8662 -0.8243 -0.0545
   41CHL1   C27 3031   6.247   4.095   7.318 -0.3711  0.1022 -0.5812
   41CHL1  H27A 3032   6.346   4.109   7.270  0.1497 -0.6517  0.2436
   41CHL1  H27B 3033   6.207   4.198   7.331  2.3737  1.3395 -1.1110
   41CHL1  H27C 3034   6.255   4.045   7.417  0.4858  0.4796 -0.4541
   42CHL1    C3 3035   6.081   2.282   5.823  0.1156  0.1599  0.3412
   42CHL1    H3 3036   6.025   2.186   5.834  0.6873 -0.3141 -0.7378
   42CHL1    O3 3037   6.110   2.291   5.683  0.2758  0.4564  0.2743
   42CHL1   H3' 3038   6.163   2.216   5.657  1.9150  1.5806  0.2401
   42CHL1    C4 3039   5.994   2.393   5.879 -0.3435 -0.0343 -0.0390
   42CHL1   H4A 3040   6.047   2.486   5.849 -1.3574  1.4914  2.6030
   42CHL1   H4B 3041   5.892   2.396   5.835 -1.1005  1.8469  1.6931
   42CHL1    C5 3042   5.989   2.400   6.032 -0.1313  0.1489 -0.3344
   42CHL1    C6 3043   5.870   2.407   6.088  0.1412  0.1673 -0.1455
   42CHL1    H6 3044   5.771   2.413   6.038 -0.2912 -0.0635  0.6699
   42CHL1    C7 3045   5.857   2.393   6.240 -0.5791  0.5719  0.1349
   42CHL1   H7A 3046   5.775   2.454   6.283  0.8975  1.9609  1.0963
   42CHL1   H7B 3047   5.845   2.284   6.256  0.4032  0.4304 -0.0565
   42CHL1    C8 3048   5.990   2.420   6.318  0.7830  0.6462  0.1981
   42CHL1    H8 3049   6.005   2.529   6.311 -0.0964  0.9328  2.2482
   42CHL1   C14 3050   5.968   2.380   6.456 -0.2968  0.1517 -1.1148
   42CHL1   H14 3051   5.964   2.269   6.464 -1.4338  0.2957  2.4675
   42CHL1   C15 3052   5.839   2.422   6.529 -0.0221 -0.2091 -0.2354
   42CHL1  H15A 3053   5.826   2.532   6.523  0.1253 -0.2161 -0.8037
   42CHL1  H15B 3054   5.743   2.378   6.494 -1.2205  2.8446 -1.1338
   42CHL1   C16 3055   5.877   2.407   6.680  0.2876 -0.7199 -0.4240
   42CHL1  H16A 3056   5.871   2.511   6.720 -1.2383 -0.5212 -1.0841
   42CHL1  H16B 3057   5.803   2.341   6.731 -0.3788  0.0773 -0.3342
   42CHL1   C17 3058   6.028   2.369   6.692  0.1814  0.2827  0.2279
   42CHL1   H17 3059   6.042   2.259   6.691  1.0660  0.3499  1.9402
   42CHL1   C13 3060   6.085   2.417   6.554 -0.2724 -0.4194  0.7664
   42CHL1   C18 3061   6.096   2.572   6.564 -0.1389  0.0376 -0.8138
   42CHL1  H18A 3062   6.140   2.622   6.653 -0.9318  0.6349 -0.7490
   42CHL1  H18B 3063   6.156   2.598   6.475  0.5865 -0.8722 -0.6062
   42CHL1  H18C 3064   5.999   2.625   6.551  0.1887  1.1552  0.8835
   42CHL1   C12 3065   6.212   2.350   6.504 -0.0539  0.1032 -0.9103
   42CHL1  H12A 3066   6.294   2.384   6.570 -1.4938 -1.8968  2.1642
   42CHL1  H12B 3067   6.202   2.241   6.527  0.0727  0.1962 -0.3964
   42CHL1   C11 3068   6.238   2.366   6.349 -0.2789 -0.5361  0.1406
   42CHL1  H11A 3069   6.274   2.470   6.332  0.0684 -0.4928  1.0818
   42CHL1  H11B 3070   6.324   2.305   6.314 -0.1209  0.0531 -0.5233
   42CHL1    C9 3071   6.106   2.346   6.262 -0.4283  0.3199  0.6810
   42CHL1    H9 3072   6.075   2.239   6.268 -2.7084  0.6580 -2.5274
   42CHL1   C10 3073   6.126   2.378   6.109  0.5590 -0.3722  0.0411
   42CHL1   C19 3074   6.211   2.511   6.094  1.2100  0.2095  0.2614
   42CHL1  H19A 3075   6.202   2.538   5.987  0.3784  1.3023  0.5923
   42CHL1  H19B 3076   6.159   2.602   6.132 -0.7642  0.1403 -2.0683
   42CHL1  H19C 3077   6.317   2.506   6.128  1.3905  1.3658 -0.1092
   42CHL1    C1 3078   6.204   2.258   6.046 -0.0781  0.2307 -0.0809
   42CHL1   H1A 3079   6.302   2.252   6.099  0.0862 -1.2323 -0.4979
   42CHL1   H1B 3080   6.135   2.176   6.072 -0.1532  0.7094  1.3119
   42CHL1    C2 3081   6.217   2.264   5.897  0.2347  0.0299 -0.5208
   42CHL1   H2A 3082   6.269   2.168   5.875  1.9079 -0.3860  4.0921
   42CHL1   H2B 3083   6.286   2.346   5.865  0.1756  1.1463  2.0337
   42CHL1   C20 3084   6.096   2.413   6.822  0.2421  0.0461 -0.4354
   42CHL1   H20 3085   6.132   2.518   6.815 -0.7485  0.3297 -1.6693
   42CHL1   C21 3086   6.228   2.332   6.833  0.3949  0.4891 -0.0006
   42CHL1  H21A 3087   6.278   2.362   6.928 -0.1762  4.3388 -0.7500
   42CHL1  H21B 3088   6.301   2.352   6.752  0.6816  2.5570  0.6999
   42CHL1  H21C 3089   6.211   2.222   6.835 -0.3561  0.5975  0.1095
   42CHL1   C22 3090   6.005   2.395   6.949  0.5475  0.2299 -0.7296
   42CHL1  H22A 3091   5.899   2.427   6.943 -0.6897 -2.9165  1.2768
   42CHL1  H22B 3092   5.991   2.286   6.965 -0.8454  0.0254 -2.9028
   42CHL1   C23 3093   6.063   2.467   7.078  0.8775 -0.3366  0.0034
   42CHL1  H23A 3094   5.985   2.448   7.154  0.5061 -2.7298 -0.8769
   42CHL1  H23B 3095   6.157   2.421   7.116  0.6709 -0.6915  0.0866
   42CHL1   C24 3096   6.078   2.621   7.062  0.0239 -0.4936 -0.5947
   42CHL1  H24A 3097   6.127   2.661   7.153 -1.2102 -0.0256 -0.1151
   42CHL1  H24B 3098   6.148   2.634   6.977  0.6414  2.8418  0.2720
   42CHL1   C25 3099   5.943   2.700   7.040  0.6958 -0.0054 -0.0593
   42CHL1   H25 3100   5.889   2.651   6.957  1.0698 -0.3213 -0.1176
   42CHL1   C26 3101   5.843   2.681   7.163 -0.4659  0.8889  0.9348
   42CHL1  H26A 3102   5.890   2.729   7.252  3.2514  0.9808 -0.8834
   42CHL1  H26B 3103   5.738   2.709   7.142 -0.9476 -1.6435 -0.3130
   42CHL1  H26C 3104   5.847   2.572   7.183  2.4118  0.8448  0.5686
   42CHL1   C27 3105   5.954   2.847   7.025  0.1504  0.1463  0.7834
   42CHL1  H27A 3106   6.015   2.867   6.934  1.2205 -1.5052  1.1087
   42CHL1  H27B 3107   6.007   2.886   7.114 -0.5506  0.1907  1.1847
   42CHL1  H27C 3108   5.852   2.889   7.016 -0.5020 -1.3978  0.7474
   43CHL1    C3 3109   5.490   5.343   5.977 -0.0964 -0.0566 -1.4034
   43CHL1    H3 3110   5.529   5.240   5.964 -1.3324 -1.0304  1.6900
   43CHL1    O3 3111   5.497   5.427   5.863  0.0867 -0.2417 -0.2460
   43CHL1   H3' 3112   5.482   5.518   5.886  2.4794  1.0375 -3.0774
   43CHL1    C4 3113   5.345   5.332   6.034  0.5712  0.3841  0.1640
   43CHL1   H4A 3114   5.315   5.438   6.053 -1.6183 -0.4256  1.6420
   43CHL1   H4B 3115   5.276   5.293   5.957 -0.2235  0.7815  0.6617
   43CHL1    C5 3116   5.332   5.255   6.167  0.2660  0.0655  0.4078
   43CHL1    C6 3117   5.252   5.142   6.178 -0.1110 -0.0884 -0.0247
   43CHL1    H6 3118   5.196   5.110   6.089  0.8733  0.8592 -1.0106
   43CHL1    C7 3119   5.235   5.054   6.303 -0.1796  0.0734  0.3550
   43CHL1   H7A 3120   5.133   5.015   6.321  1.2014 -3.0543  2.2073
   43CHL1   H7B 3121   5.293   4.961   6.289 -0.5670  0.0575 -1.3018
   43CHL1    C8 3122   5.297   5.133   6.431 -0.3521  0.6519  0.5647
   43CHL1    H8 3123   5.237   5.220   6.464 -2.7037 -0.1200 -1.4197
   43CHL1   C14 3124   5.325   5.028   6.532  0.4088  0.1679 -0.4393
   43CHL1   H14 3125   5.401   4.958   6.492  1.6249  1.0707  0.2301
   43CHL1   C15 3126   5.202   4.938   6.569 -0.1666 -0.3779  0.1504
   43CHL1  H15A 3127   5.109   4.995   6.549 -0.6512 -1.0901  0.3401
   43CHL1  H15B 3128   5.200   4.847   6.506  1.1641 -0.9122  0.8539
   43CHL1   C16 3129   5.224   4.894   6.712 -0.0437 -0.1234 -0.4925
   43CHL1  H16A 3130   5.146   4.949   6.770 -1.0699  0.1686 -2.1035
   43CHL1  H16B 3131   5.216   4.785   6.730 -0.3982  0.0379  0.4369
   43CHL1   C17 3132   5.361   4.960   6.756 -0.8949 -0.3339  0.2573
   43CHL1   H17 3133   5.438   4.890   6.716  0.3233  1.4363 -0.5980
   43CHL1   C13 3134   5.373   5.084   6.668  0.3377 -0.1596 -0.0667
   43CHL1   C18 3135   5.284   5.197   6.735 -0.0203  0.1958  0.2560
   43CHL1  H18A 3136   5.335   5.227   6.829  2.1391 -0.5740 -0.6287
   43CHL1  H18B 3137   5.246   5.274   6.665 -0.1328 -1.2594 -1.3413
   43CHL1  H18C 3138   5.186   5.149   6.760  0.6590  0.2062  3.4450
   43CHL1   C12 3139   5.522   5.139   6.630  0.1926  0.3058  0.6356
   43CHL1  H12A 3140   5.560   5.193   6.719  1.3226  0.2452  0.2071
   43CHL1  H12B 3141   5.594   5.055   6.617  0.2490  0.3143  0.8884
   43CHL1   C11 3142   5.512   5.244   6.518  0.1849  1.7532  0.1995
   43CHL1  H11A 3143   5.463   5.337   6.555 -0.7431  1.6355 -0.6984
   43CHL1  H11B 3144   5.616   5.262   6.483 -0.0267  1.1563 -0.7615
   43CHL1    C9 3145   5.438   5.199   6.391  0.2680  0.2293  0.1983
   43CHL1    H9 3146   5.498   5.117   6.347  2.2443  1.5163  0.3386
   43CHL1   C10 3147   5.425   5.301   6.273  0.5138 -0.4500  0.3073
   43CHL1   C19 3148   5.365   5.430   6.328 -0.2197 -0.2240 -0.2548
   43CHL1  H19A 3149   5.258   5.421   6.354 -0.7458  0.9022 -1.9037
   43CHL1  H19B 3150   5.403   5.478   6.421 -2.1204 -1.1660  1.0769
   43CHL1  H19C 3151   5.369   5.517   6.260 -1.4239  1.0018  1.1788
   43CHL1    C1 3152   5.564   5.335   6.219  0.6677  0.2066  0.0303
   43CHL1   H1A 3153   5.611   5.405   6.291 -2.2243  1.5324  0.7746
   43CHL1   H1B 3154   5.627   5.243   6.212  0.0093 -0.2061 -0.5490
   43CHL1    C2 3155   5.574   5.415   6.087  0.1986  0.1884 -0.1710
   43CHL1   H2A 3156   5.679   5.419   6.050 -0.5197  2.5088 -2.1959
   43CHL1   H2B 3157   5.532   5.517   6.101 -2.2468 -0.6302 -0.9393
   43CHL1   C20 3158   5.373   4.968   6.906 -0.5700 -0.6031 -0.2666
   43CHL1   H20 3159   5.286   5.029   6.939  0.6793 -0.2244  2.5459
   43CHL1   C21 3160   5.499   5.038   6.944  0.0263  0.0339 -0.4528
   43CHL1  H21A 3161   5.513   5.144   6.914  1.3574  0.6502  2.0840
   43CHL1  H21B 3162   5.589   4.985   6.904  0.9804  2.6098 -2.0024
   43CHL1  H21C 3163   5.511   5.051   7.053 -0.2746 -1.6556 -0.1815
   43CHL1   C22 3164   5.355   4.832   6.978  0.0819  0.3552  0.1414
   43CHL1  H22A 3165   5.250   4.798   6.963  0.4947 -0.3431 -1.3304
   43CHL1  H22B 3166   5.419   4.756   6.928  0.2063  0.2293  0.4931
   43CHL1   C23 3167   5.394   4.833   7.128  0.2240 -1.0352  0.5113
   43CHL1  H23A 3168   5.501   4.863   7.124  0.2037 -1.0813 -1.7481
   43CHL1  H23B 3169   5.334   4.905   7.189  2.1157  0.2871  0.8910
   43CHL1   C24 3170   5.406   4.700   7.194  0.2319 -0.0088  0.3793
   43CHL1  H24A 3171   5.308   4.649   7.195 -0.3685  1.0886  1.8654
   43CHL1  H24B 3172   5.477   4.632   7.142 -0.6589 -1.1910  0.6638
   43CHL1   C25 3173   5.451   4.704   7.341  0.4950  0.9719 -0.2514
   43CHL1   H25 3174   5.541   4.769   7.339  1.0242  0.4048  2.0831
   43CHL1   C26 3175   5.345   4.770   7.429  0.0797  0.0341 -0.2807
   43CHL1  H26A 3176   5.250   4.717   7.406  0.2509 -0.1390 -0.5949
   43CHL1  H26B 3177   5.372   4.744   7.533 -1.0692 -4.1069 -0.8328
   43CHL1  H26C 3178   5.331   4.880   7.420  0.6216  0.1639  0.4078
   43CHL1   C27 3179   5.470   4.566   7.399  0.1470 -0.4909  0.3298
   43CHL1  H27A 3180   5.503   4.510   7.309 -0.7418  0.9120 -0.9150
   43CHL1  H27B 3181   5.551   4.580   7.473 -0.6291  0.7852  0.9863
   43CHL1  H27C 3182   5.382   4.521   7.451 -0.0409  0.6840  1.0616
   44CHL1    C3 3183   6.411   4.205   5.933  0.0821 -0.2577 -0.4068
   44CHL1    H3 3184   6.319   4.156   5.972 -0.4939 -0.8597 -2.3668
   44CHL1    O3 3185   6.391   4.245   5.797 -0.6563  0.0799 -0.4537
   44CHL1   H3' 3186   6.480   4.263   5.767 -0.9357  1.8802 -0.3273
   44CHL1    C4 3187   6.440   4.327   6.025  1.3638  0.4027  0.6536
   44CHL1   H4A 3188   6.534   4.360   5.976  0.7786 -0.1357 -0.8900
   44CHL1   H4B 3189   6.370   4.410   6.000  0.8475 -0.3401 -0.4546
   44CHL1    C5 3190   6.454   4.292   6.169  0.2138  0.3612  0.2615
   44CHL1    C6 3191   6.370   4.343   6.264 -0.7507 -0.3144  1.0267
   44CHL1    H6 3192   6.294   4.416   6.232  2.0251  2.7721  1.0500
   44CHL1    C7 3193   6.372   4.308   6.406 -0.7239  0.4052 -0.1159
   44CHL1   H7A 3194   6.354   4.404   6.458 -0.1158  0.6982 -0.4403
   44CHL1   H7B 3195   6.282   4.248   6.432 -1.6918  1.5569 -0.7534
   44CHL1    C8 3196   6.506   4.244   6.450  0.0921  0.3254 -0.8214
   44CHL1    H8 3197   6.584   4.323   6.441  1.7380 -1.0894  0.3534
   44CHL1   C14 3198   6.486   4.192   6.587  0.0666 -0.2463  0.1076
   44CHL1   H14 3199   6.404   4.117   6.579 -0.5366  0.6138 -2.9840
   44CHL1   C15 3200   6.442   4.282   6.703 -0.2935  0.2746 -0.1877
   44CHL1  H15A 3201   6.503   4.374   6.714 -0.0990  0.0738  0.4352
   44CHL1  H15B 3202   6.333   4.303   6.696  0.0261  1.5684 -1.8525
   44CHL1   C16 3203   6.470   4.200   6.827 -0.5598 -0.5855  0.0092
   44CHL1  H16A 3204   6.511   4.267   6.906 -0.5135 -1.2210  0.5347
   44CHL1  H16B 3205   6.385   4.147   6.874 -0.3540 -1.1009 -0.1879
   44CHL1   C17 3206   6.565   4.082   6.781 -0.4628  0.3896 -0.1490
   44CHL1   H17 3207   6.503   3.992   6.764  0.5257 -0.5072  0.8072
   44CHL1   C13 3208   6.615   4.123   6.637  1.1628  0.5352 -0.7826
   44CHL1   C18 3209   6.739   4.213   6.656 -0.3905 -0.1650  0.4224
   44CHL1  H18A 3210   6.830   4.162   6.694 -0.4179  0.3091  1.1284
   44CHL1  H18B 3211   6.757   4.261   6.558  0.2187 -1.9481 -0.3913
   44CHL1  H18C 3212   6.722   4.290   6.735  1.0950 -0.6963  1.3083
   44CHL1   C12 3213   6.647   4.001   6.541 -0.8001 -0.3656  0.0213
   44CHL1  H12A 3214   6.742   3.947   6.562 -0.5672  0.0886  0.1542
   44CHL1  H12B 3215   6.578   3.914   6.539 -0.0879 -0.9228 -1.4656
   44CHL1   C11 3216   6.661   4.044   6.398 -0.1931  0.4239  0.2447
   44CHL1  H11A 3217   6.757   4.100   6.400  0.1763  0.0242 -2.2398
   44CHL1  H11B 3218   6.661   3.952   6.335 -0.7131  1.1504 -0.8465
   44CHL1    C9 3219   6.544   4.129   6.344  0.0167 -0.5790  0.4723
   44CHL1    H9 3220   6.460   4.057   6.345 -1.8546  1.4215  3.1707
   44CHL1   C10 3221   6.557   4.181   6.197  0.6079 -0.3387 -0.3743
   44CHL1   C19 3222   6.698   4.247   6.188  0.2743 -0.4150 -0.0122
   44CHL1  H19A 3223   6.768   4.163   6.170 -0.0556 -0.9005  0.9118
   44CHL1  H19B 3224   6.706   4.309   6.097  0.2499 -1.1284 -0.5050
   44CHL1  H19C 3225   6.729   4.304   6.278 -1.0341  1.4303 -0.6667
   44CHL1    C1 3226   6.531   4.067   6.098  0.9277  0.1152  0.6711
   44CHL1   H1A 3227   6.606   3.984   6.102 -0.0017 -0.8131 -0.4513
   44CHL1   H1B 3228   6.431   4.024   6.120  1.0006 -0.4323 -0.0327
   44CHL1    C2 3229   6.531   4.110   5.951 -0.6735 -0.0517  0.1412
   44CHL1   H2A 3230   6.521   4.025   5.880 -0.4369  1.9303 -2.3810
   44CHL1   H2B 3231   6.622   4.166   5.922  0.3118 -0.2040  2.6685
   44CHL1   C20 3232   6.664   4.040   6.889  0.3613 -0.7305 -0.2493
   44CHL1   H20 3233   6.724   4.130   6.912 -1.1242  0.7282 -1.7651
   44CHL1   C21 3234   6.749   3.917   6.843 -0.0184  0.1427 -0.2175
   44CHL1  H21A 3235   6.811   3.872   6.923 -0.0451  0.4154 -0.0414
   44CHL1  H21B 3236   6.817   3.953   6.764 -0.1148  0.9007  0.0318
   44CHL1  H21C 3237   6.681   3.844   6.793  0.6587 -1.4968  1.1701
   44CHL1   C22 3238   6.595   4.010   7.025  0.0992  0.2501 -0.1554
   44CHL1  H22A 3239   6.535   4.096   7.062  1.6908  2.4731 -2.4083
   44CHL1  H22B 3240   6.532   3.920   7.016 -0.3613  0.6665 -1.1775
   44CHL1   C23 3241   6.697   3.990   7.140  0.0483  0.0918  0.4505
   44CHL1  H23A 3242   6.734   3.885   7.140  0.4139  0.1974  1.8293
   44CHL1  H23B 3243   6.781   4.061   7.127  1.5398 -1.7816 -0.7167
   44CHL1   C24 3244   6.639   4.011   7.281 -0.3139  0.5200 -0.3299
   44CHL1  H24A 3245   6.585   4.107   7.288 -1.2548  0.0986 -1.5712
   44CHL1  H24B 3246   6.569   3.926   7.297  1.2752 -0.8694 -0.4357
   44CHL1   C25 3247   6.735   4.018   7.405  0.0208  0.1643  0.2374
   44CHL1   H25 3248   6.812   4.090   7.372  0.6549 -1.8071 -3.0281
   44CHL1   C26 3249   6.666   4.053   7.537 -0.4121  0.3811 -0.2958
   44CHL1  H26A 3250   6.616   4.151   7.522 -1.2610  0.1858  1.1066
   44CHL1  H26B 3251   6.587   3.977   7.554 -0.5206  0.2816 -1.2285
   44CHL1  H26C 3252   6.740   4.057   7.620 -0.6718  1.7310 -0.0956
   44CHL1   C27 3253   6.815   3.883   7.427  0.2431  0.0826  0.5389
   44CHL1  H27A 3254   6.885   3.894   7.513 -1.5083 -1.2742  2.2233
   44CHL1  H27B 3255   6.753   3.794   7.448 -2.7613  1.2686 -2.3858
   44CHL1  H27C 3256   6.874   3.862   7.335  0.3212 -0.8582  0.7975
   45CHL1    C3 3257   1.450   2.003   6.037  0.1161  0.2833  0.4376
   45CHL1    H3 3258   1.550   2.043   6.062 -0.2632 -0.7929  4.3200
   45CHL1    O3 3259   1.426   2.002   5.892 -0.3694  0.0150  0.0592
   45CHL1   H3' 3260   1.415   1.909   5.869 -2.3018  0.0528  0.7171
   45CHL1    C4 3261   1.439   1.861   6.089  1.2906 -0.0862 -0.4918
   45CHL1   H4A 3262   1.337   1.826   6.061  1.2364 -0.4265  0.1295
   45CHL1   H4B 3263   1.507   1.790   6.036  0.1444 -0.9602 -0.8400
   45CHL1    C5 3264   1.438   1.849   6.238 -0.4565 -0.1194 -0.1392
   45CHL1    C6 3265   1.521   1.757   6.302  0.4189 -0.2768 -0.3236
   45CHL1    H6 3266   1.584   1.687   6.247  1.2519 -0.7440  1.1762
   45CHL1    C7 3267   1.534   1.742   6.448 -0.1683  0.6580  0.1019
   45CHL1   H7A 3268   1.525   1.635   6.478 -0.4805  1.2791  2.4337
   45CHL1   H7B 3269   1.637   1.770   6.477  0.8126 -2.9719  0.6947
   45CHL1    C8 3270   1.422   1.823   6.523  0.0470 -0.0972 -0.1960
   45CHL1    H8 3271   1.329   1.764   6.506  0.2986 -0.4154 -0.4846
   45CHL1   C14 3272   1.460   1.830   6.676  0.2000  0.1015  0.2412
   45CHL1   H14 3273   1.554   1.890   6.675  0.0844  0.3126 -1.1481
   45CHL1   C15 3274   1.476   1.698   6.746 -0.0629 -0.4768  0.0541
   45CHL1  H15A 3275   1.382   1.639   6.741  0.5122 -1.5517  1.2858
   45CHL1  H15B 3276   1.563   1.634   6.718  0.5866  0.6376 -0.5529
   45CHL1   C16 3277   1.483   1.740   6.892 -0.0182 -0.4748 -0.2485
   45CHL1  H16A 3278   1.423   1.671   6.955 -0.2821 -0.6761 -0.7099
   45CHL1  H16B 3279   1.583   1.749   6.938 -0.0632  2.9532 -0.5594
   45CHL1   C17 3280   1.426   1.891   6.905 -0.5733 -0.3972  0.1134
   45CHL1   H17 3281   1.520   1.950   6.901 -1.5914  1.2426 -2.0730
   45CHL1   C13 3282   1.362   1.913   6.767  0.8966 -0.8054 -0.1156
   45CHL1   C18 3283   1.218   1.846   6.761 -0.0220 -0.5808 -0.1938
   45CHL1  H18A 3284   1.144   1.907   6.817  0.8856 -1.3967  2.0162
   45CHL1  H18B 3285   1.188   1.821   6.658  1.4287 -1.9069 -0.3297
   45CHL1  H18C 3286   1.219   1.747   6.812  1.7992  0.3880  1.8365
   45CHL1   C12 3287   1.355   2.052   6.707  0.0246  0.0311 -0.2805
   45CHL1  H12A 3288   1.302   2.128   6.769 -1.3099  0.6870 -2.1235
   45CHL1  H12B 3289   1.457   2.092   6.690 -0.7035  1.8373 -0.6553
   45CHL1   C11 3290   1.305   2.050   6.556 -0.6379  0.3965  0.1223
   45CHL1  H11A 3291   1.199   2.016   6.555 -0.0102 -1.8434  1.6794
   45CHL1  H11B 3292   1.315   2.159   6.539 -0.1768  0.7736  2.5426
   45CHL1    C9 3293   1.398   1.968   6.464 -0.4959  0.5513  0.0924
   45CHL1    H9 3294   1.499   2.012   6.454 -0.0276 -0.9111 -2.6267
   45CHL1   C10 3295   1.356   1.956   6.312  0.3874 -0.4059 -0.2376
   45CHL1   C19 3296   1.204   1.912   6.302 -0.2313 -1.1207 -0.4927
   45CHL1  H19A 3297   1.176   1.908   6.195  0.4132  0.9203 -0.7957
   45CHL1  H19B 3298   1.189   1.820   6.362 -0.6185 -0.0858  1.0580
   45CHL1  H19C 3299   1.135   1.994   6.330 -0.9467 -1.4039 -1.3690
   45CHL1    C1 3300   1.368   2.095   6.254 -0.6428 -0.0018  0.6523
   45CHL1   H1A 3301   1.300   2.169   6.301  0.2017  1.6823 -0.6505
   45CHL1   H1B 3302   1.470   2.136   6.269 -0.0759 -0.7850 -0.8612
   45CHL1    C2 3303   1.356   2.105   6.100  0.6668  0.1407 -0.0165
   45CHL1   H2A 3304   1.382   2.208   6.065 -0.5706 -0.2182 -2.1958
   45CHL1   H2B 3305   1.248   2.091   6.078  1.0658 -3.6987 -0.2355
   45CHL1   C20 3306   1.348   1.916   7.033  0.1141 -0.1595 -0.6371
   45CHL1   H20 3307   1.258   1.851   7.027  0.5635 -0.7653 -0.8932
   45CHL1   C21 3308   1.303   2.058   7.038 -0.4674 -0.4554 -0.0550
   45CHL1  H21A 3309   1.232   2.092   6.960  0.2455  0.6657 -0.2399
   45CHL1  H21B 3310   1.390   2.128   7.046  0.1103 -1.3154  1.7742
   45CHL1  H21C 3311   1.242   2.085   7.127 -0.4834  2.0957 -0.7645
   45CHL1   C22 3312   1.422   1.881   7.163  0.0018  0.5006  0.3255
   45CHL1  H22A 3313   1.448   1.773   7.171  1.3033  0.9304  2.6087
   45CHL1  H22B 3314   1.517   1.937   7.172  0.5725 -0.3607 -0.1642
   45CHL1   C23 3315   1.354   1.897   7.296  0.0154  0.1707 -0.6661
   45CHL1  H23A 3316   1.313   2.000   7.298 -0.5259  0.0827 -3.3842
   45CHL1  H23B 3317   1.266   1.830   7.288 -0.1309  0.4678 -1.6266
   45CHL1   C24 3318   1.437   1.868   7.423  0.1850 -0.0747  0.3544
   45CHL1  H24A 3319   1.524   1.802   7.403  2.2278  1.8498  2.2719
   45CHL1  H24B 3320   1.495   1.960   7.446  2.0065 -0.6741 -1.4572
   45CHL1   C25 3321   1.356   1.803   7.539 -0.3765  0.7995  0.2824
   45CHL1   H25 3322   1.297   1.726   7.485  0.5763  1.0311 -1.1535
   45CHL1   C26 3323   1.437   1.748   7.660  0.2443 -0.1650  0.0671
   45CHL1  H26A 3324   1.522   1.815   7.685 -0.3659  0.5979  0.1356
   45CHL1  H26B 3325   1.368   1.716   7.741 -0.1300  1.7546  0.5540
   45CHL1  H26C 3326   1.489   1.657   7.624  1.4008  0.6307 -0.3189
   45CHL1   C27 3327   1.257   1.895   7.604 -0.5701 -0.2018 -0.1279
   45CHL1  H27A 3328   1.179   1.932   7.534 -0.7754  1.8329  1.1237
   45CHL1  H27B 3329   1.213   1.855   7.698 -2.1738 -0.5305 -0.9835
   45CHL1  H27C 3330   1.305   1.988   7.640 -0.1209  0.0522 -1.3323
   46CHL1    C3 3331   0.382   3.954   6.046  0.7072  0.4265 -0.2062
   46CHL1    H3 3332   0.333   3.855   6.041  0.1938  0.7452 -1.9234
   46CHL1    O3 3333   0.339   4.017   5.933  0.1172  0.6290 -0.6266
   46CHL1   H3' 3334   0.362   3.952   5.866 -3.6298 -0.4442 -1.1261
   46CHL1    C4 3335   0.329   4.018   6.176 -0.8371  0.1137  0.0832
   46CHL1   H4A 3336   0.353   4.127   6.178  0.3687 -0.1401  0.2973
   46CHL1   H4B 3337   0.218   4.018   6.167 -0.9529 -2.6077  0.7265
   46CHL1    C5 3338   0.372   3.952   6.305 -0.0447 -1.5819 -0.3282
   46CHL1    C6 3339   0.284   3.909   6.397 -0.3328 -0.2618 -0.2857
   46CHL1    H6 3340   0.176   3.922   6.382 -0.1313  1.3093 -0.6398
   46CHL1    C7 3341   0.324   3.859   6.528 -0.5612 -0.0372 -0.5815
   46CHL1   H7A 3342   0.251   3.909   6.596 -1.5777  0.7216 -2.1733
   46CHL1   H7B 3343   0.293   3.752   6.523 -1.8129  0.3059 -0.5688
   46CHL1    C8 3344   0.474   3.899   6.555  0.2132  0.0897  0.0040
   46CHL1    H8 3345   0.461   4.006   6.583 -1.3489 -0.1810  0.4083
   46CHL1   C14 3346   0.513   3.825   6.681 -0.2803  0.3903 -0.4183
   46CHL1   H14 3347   0.519   3.716   6.659  1.8058  0.1744  0.9318
   46CHL1   C15 3348   0.416   3.830   6.799  0.5293  0.1171  0.4981
   46CHL1  H15A 3349   0.388   3.934   6.829 -0.3112  0.3897 -1.1306
   46CHL1  H15B 3350   0.330   3.762   6.784 -2.5512  3.4769  1.3620
   46CHL1   C16 3351   0.513   3.778   6.918 -0.0022  0.6097  0.6633
   46CHL1  H16A 3352   0.519   3.860   6.992 -0.1034  1.6825 -0.4805
   46CHL1  H16B 3353   0.462   3.689   6.961 -2.2836  0.7523 -1.5198
   46CHL1   C17 3354   0.649   3.746   6.848 -0.3815  0.9716  0.1846
   46CHL1   H17 3355   0.651   3.641   6.813  0.0429  0.7978  0.7091
   46CHL1   C13 3356   0.658   3.844   6.730  0.2463 -0.5734  0.1182
   46CHL1   C18 3357   0.671   3.993   6.772 -0.1902  0.0864  0.0958
   46CHL1  H18A 3358   0.625   4.061   6.697  0.7228  0.2176 -0.3748
   46CHL1  H18B 3359   0.617   4.009   6.867 -1.2622 -2.2853 -0.0726
   46CHL1  H18C 3360   0.779   4.013   6.790  0.1331 -2.6246  1.6087
   46CHL1   C12 3361   0.756   3.806   6.615  0.1131  0.3370 -0.6600
   46CHL1  H12A 3362   0.860   3.831   6.646  0.1491  0.4786 -0.8899
   46CHL1  H12B 3363   0.751   3.700   6.582 -1.3971  0.3331 -0.4632
   46CHL1   C11 3364   0.719   3.883   6.490  0.1187  0.2089 -0.3008
   46CHL1  H11A 3365   0.735   3.990   6.516 -0.2622  0.2632 -0.2795
   46CHL1  H11B 3366   0.792   3.851   6.413 -0.0185 -2.2688  0.5272
   46CHL1    C9 3367   0.572   3.870   6.439 -0.1074  0.0416 -0.2634
   46CHL1    H9 3368   0.554   3.760   6.430  0.5985 -0.0644 -0.3777
   46CHL1   C10 3369   0.527   3.944   6.315 -0.0188 -0.2547 -0.5522
   46CHL1   C19 3370   0.591   4.086   6.321 -0.0095 -0.0255 -0.5962
   46CHL1  H19A 3371   0.699   4.067   6.303 -0.2505  0.6712 -3.1662
   46CHL1  H19B 3372   0.560   4.149   6.235  0.9369  0.4499 -0.6077
   46CHL1  H19C 3373   0.566   4.149   6.408 -0.3507  1.2396 -1.5788
   46CHL1    C1 3374   0.568   3.873   6.192 -0.2955  0.1173 -0.5789
   46CHL1   H1A 3375   0.678   3.861   6.187 -0.3505 -0.6842  0.0113
   46CHL1   H1B 3376   0.518   3.774   6.194 -1.1409  0.5340  0.9591
   46CHL1    C2 3377   0.534   3.944   6.061  0.1607  0.5493  0.0893
   46CHL1   H2A 3378   0.580   3.880   5.983  0.0741  0.3708  0.1841
   46CHL1   H2B 3379   0.575   4.047   6.054 -0.8642  0.8614 -2.2806
   46CHL1   C20 3380   0.780   3.752   6.941  0.3743 -0.8691  0.3887
   46CHL1   H20 3381   0.870   3.792   6.889  0.0873  1.3726  1.4900
   46CHL1   C21 3382   0.813   3.610   6.995 -0.6991  0.8228 -0.0254
   46CHL1  H21A 3383   0.738   3.566   7.064 -0.7246  0.7692 -0.0872
   46CHL1  H21B 3384   0.915   3.609   7.038  0.0426 -0.8694 -1.6814
   46CHL1  H21C 3385   0.829   3.543   6.908  0.8554 -1.3111  1.8100
   46CHL1   C22 3386   0.770   3.847   7.064 -0.4141  0.1742 -0.1280
   46CHL1  H22A 3387   0.729   3.945   7.034  0.7165  0.8614  0.5102
   46CHL1  H22B 3388   0.701   3.793   7.133  2.1560 -2.5529  0.5619
   46CHL1   C23 3389   0.907   3.879   7.129  0.1566  0.6602  0.4311
   46CHL1  H23A 3390   0.891   3.958   7.206  1.2490  2.4695 -1.0843
   46CHL1  H23B 3391   0.946   3.784   7.171 -1.5013 -1.2896 -2.1987
   46CHL1   C24 3392   1.010   3.943   7.030  0.3350 -0.1256 -0.4138
   46CHL1  H24A 3393   1.032   3.870   6.949 -0.4765 -0.7238 -0.1047
   46CHL1  H24B 3394   0.965   4.031   6.979 -0.4753  0.3115  1.0121
   46CHL1   C25 3395   1.140   3.995   7.087 -0.0673  0.0236 -0.2706
   46CHL1   H25 3396   1.107   4.064   7.168  0.2766 -0.1403  0.0132
   46CHL1   C26 3397   1.224   3.885   7.156 -0.3627  0.1121 -0.1669
   46CHL1  H26A 3398   1.312   3.927   7.210  0.4788 -0.5357 -0.9873
   46CHL1  H26B 3399   1.164   3.813   7.215 -1.1360  0.4478 -0.5242
   46CHL1  H26C 3400   1.280   3.826   7.079 -0.1199  0.3288 -0.1583
   46CHL1   C27 3401   1.232   4.076   6.993 -0.1179  0.5351  0.5864
   46CHL1  H27A 3402   1.261   4.009   6.909  0.7048  0.3049  1.0440
   46CHL1  H27B 3403   1.189   4.166   6.945  0.2878 -0.0710 -0.9686
   46CHL1  H27C 3404   1.328   4.095   7.046  1.5917  0.3433 -2.2340
   47CHL1    C3 3405   6.957   4.539   5.943  0.8213  0.4257 -0.1578
   47CHL1    H3 3406   6.923   4.434   5.952 -0.4541  0.8318 -0.0297
   47CHL1    O3 3407   6.882   4.599   5.845 -0.3802  0.0811  0.6332
   47CHL1   H3' 3408   6.921   4.686   5.833 -1.8327  0.4968 -2.0253
   47CHL1    C4 3409   6.929   4.618   6.071  0.9310  0.4602  0.7701
   47CHL1   H4A 3410   6.970   4.719   6.050  3.3844 -0.3348  1.4395
   47CHL1   H4B 3411   6.820   4.636   6.082  0.7863  0.8305 -1.0088
   47CHL1    C5 3412   6.999   4.559   6.192  0.7287 -0.5925 -1.1490
   47CHL1    C6 3413   6.933   4.523   6.306  0.4759 -0.9814  0.2868
   47CHL1    H6 3414   6.824   4.532   6.314  0.5806  0.8934 -0.0187
   47CHL1    C7 3415   6.996   4.471   6.429  0.4040  0.3632  0.3494
   47CHL1   H7A 3416   6.948   4.510   6.521 -2.6409  1.5695 -1.5817
   47CHL1   H7B 3417   6.974   4.362   6.430 -0.8900  0.5988 -0.1004
   47CHL1    C8 3418   7.153   4.498   6.437  0.2963  0.2258  0.1769
   47CHL1    H8 3419   7.169   4.606   6.457 -3.1307  0.3843  3.0153
   47CHL1   C14 3420   7.205   4.416   6.551 -0.0959  0.1294  0.1905
   47CHL1   H14 3421   7.173   4.313   6.524  0.1788  0.1352 -0.1616
   47CHL1   C15 3422   7.139   4.441   6.688 -0.2295  0.1507  0.0595
   47CHL1  H15A 3423   7.134   4.549   6.714  1.0992  0.4202 -0.7385
   47CHL1  H15B 3424   7.038   4.396   6.697 -1.7533  3.3746  0.3588
   47CHL1   C16 3425   7.234   4.364   6.786 -0.2763 -0.9249 -0.0834
   47CHL1  H16A 3426   7.257   4.429   6.873  1.7410 -1.9861  0.2481
   47CHL1  H16B 3427   7.202   4.263   6.819  0.4787 -0.8892  0.8354
   47CHL1   C17 3428   7.362   4.329   6.699  0.0091 -0.0453  0.1493
   47CHL1   H17 3429   7.352   4.227   6.654  0.6477  0.2858 -0.7871
   47CHL1   C13 3430   7.357   4.421   6.564 -0.1808  0.1291 -0.0359
   47CHL1   C18 3431   7.419   4.554   6.610 -0.0319 -0.2095 -0.4571
   47CHL1  H18A 3432   7.415   4.631   6.530  0.0017  0.6314  0.3196
   47CHL1  H18B 3433   7.380   4.595   6.707  1.3958  1.3858 -0.5084
   47CHL1  H18C 3434   7.527   4.538   6.629 -0.1863 -1.4905 -0.5669
   47CHL1   C12 3435   7.416   4.362   6.432 -0.2137  0.2503 -0.2709
   47CHL1  H12A 3436   7.527   4.349   6.437 -0.1536  0.8882  0.1706
   47CHL1  H12B 3437   7.370   4.262   6.415  0.7089 -0.4991  1.2804
   47CHL1   C11 3438   7.365   4.444   6.301  0.4579 -0.0649 -0.1394
   47CHL1  H11A 3439   7.417   4.542   6.300  0.0625  0.1809  1.0567
   47CHL1  H11B 3440   7.391   4.377   6.216 -3.3248 -1.6534 -0.2309
   47CHL1    C9 3441   7.211   4.457   6.299  0.0488  0.2236  0.1327
   47CHL1    H9 3442   7.171   4.358   6.269  0.9847 -0.5286  1.2557
   47CHL1   C10 3443   7.151   4.546   6.188 -0.3021  0.5020  0.2635
   47CHL1   C19 3444   7.224   4.686   6.192  0.3896 -0.0993 -0.2917
   47CHL1  H19A 3445   7.225   4.732   6.292 -0.1781 -0.9518  0.1214
   47CHL1  H19B 3446   7.328   4.666   6.158  1.1657  1.2700  1.1562
   47CHL1  H19C 3447   7.175   4.755   6.119  0.3556  0.1969  0.0114
   47CHL1    C1 3448   7.180   4.477   6.054 -0.7016  0.3431  0.4634
   47CHL1   H1A 3449   7.286   4.456   6.030 -1.1010 -0.6393 -0.5307
   47CHL1   H1B 3450   7.137   4.374   6.054 -0.4264  0.2270  0.3025
   47CHL1    C2 3451   7.106   4.528   5.925 -0.4091 -0.6883  0.0278
   47CHL1   H2A 3452   7.132   4.465   5.837 -3.2186  2.5752 -3.4470
   47CHL1   H2B 3453   7.156   4.624   5.902  0.1155 -0.4845  1.8570
   47CHL1   C20 3454   7.489   4.317   6.787 -0.1974  0.1526  0.1924
   47CHL1   H20 3455   7.512   4.416   6.832 -2.1793 -0.2531  2.2849
   47CHL1   C21 3456   7.611   4.264   6.711 -0.4618  0.1528  0.2274
   47CHL1  H21A 3457   7.592   4.169   6.657  1.1361 -0.3519  0.4984
   47CHL1  H21B 3458   7.707   4.260   6.768  0.0933 -2.6433 -0.7414
   47CHL1  H21C 3459   7.641   4.342   6.637  0.1016  0.0325  0.3261
   47CHL1   C22 3460   7.473   4.231   6.916 -0.4177  0.3701 -0.1484
   47CHL1  H22A 3461   7.385   4.266   6.975  0.3916  0.1660  1.2313
   47CHL1  H22B 3462   7.460   4.126   6.884 -2.4101  0.6680 -0.4780
   47CHL1   C23 3463   7.597   4.256   7.008  1.0802 -0.0881 -0.4531
   47CHL1  H23A 3464   7.692   4.217   6.965  1.0913 -0.9734  0.3429
   47CHL1  H23B 3465   7.607   4.363   7.034 -0.9571 -0.0744  0.4466
   47CHL1   C24 3466   7.585   4.192   7.143 -0.0143  0.7728  0.4769
   47CHL1  H24A 3467   7.495   4.248   7.176 -0.5625  0.6502 -0.7476
   47CHL1  H24B 3468   7.563   4.083   7.142 -0.3648  0.8424 -0.7254
   47CHL1   C25 3469   7.712   4.222   7.236  0.2668 -0.5404 -0.3261
   47CHL1   H25 3470   7.748   4.323   7.207  0.4206 -0.2634  0.7778
   47CHL1   C26 3471   7.677   4.220   7.387  0.1062 -0.2385  0.4594
   47CHL1  H26A 3472   7.633   4.126   7.425 -0.0922 -0.1435  0.4680
   47CHL1  H26B 3473   7.763   4.251   7.451 -0.2948  0.3996  0.6963
   47CHL1  H26C 3474   7.606   4.305   7.399  0.8599  0.9649 -2.5872
   47CHL1   C27 3475   7.832   4.126   7.207  0.2271  0.2810  0.3072
   47CHL1  H27A 3476   7.808   4.024   7.244  0.1687  0.6293  1.2792
   47CHL1  H27B 3477   7.857   4.131   7.099  2.7646 -0.0752  0.8284
   47CHL1  H27C 3478   7.923   4.166   7.257 -0.6063  2.5786  0.1122
   48CHL1    C3 3479   3.302   6.999   5.935 -0.3700 -0.1810  0.1248
   48CHL1    H3 3480   3.367   6.925   5.885 -1.4782 -1.5773  0.6784
   48CHL1    O3 3481   3.249   7.084   5.835  0.5976  0.5158  0.6102
   48CHL1   H3' 3482   3.301   7.164   5.844  2.6160 -0.7196  0.3754
   48CHL1    C4 3483   3.184   6.926   5.999  0.7054 -0.3313  0.6558
   48CHL1   H4A 3484   3.103   6.995   6.031 -0.2093 -1.4796  0.9179
   48CHL1   H4B 3485   3.140   6.871   5.912 -0.1411  0.5727  0.4946
   48CHL1    C5 3486   3.218   6.831   6.110 -0.0949 -0.0636 -0.5604
   48CHL1    C6 3487   3.184   6.700   6.111  0.4457 -0.4349  0.1137
   48CHL1    H6 3488   3.132   6.664   6.021 -0.0426  2.3414 -0.8221
   48CHL1    C7 3489   3.205   6.606   6.218 -0.2800  0.4681 -1.1432
   48CHL1   H7A 3490   3.120   6.537   6.235  1.9679 -2.3825 -0.5167
   48CHL1   H7B 3491   3.291   6.541   6.190  0.1289 -0.3248  1.6061
   48CHL1    C8 3492   3.243   6.674   6.346  0.7829  0.5962 -0.0087
   48CHL1    H8 3493   3.150   6.722   6.384  0.6194 -0.4406  0.9736
   48CHL1   C14 3494   3.294   6.577   6.453  0.3022 -0.7107  0.4788
   48CHL1   H14 3495   3.400   6.546   6.440 -0.1875 -1.6955 -1.5802
   48CHL1   C15 3496   3.214   6.447   6.479 -0.0744  0.3880  0.3683
   48CHL1  H15A 3497   3.106   6.464   6.497 -0.1163  1.3490 -0.6641
   48CHL1  H15B 3498   3.224   6.375   6.395  2.9326  1.0658  0.0393
   48CHL1   C16 3499   3.264   6.405   6.610 -0.4201  0.1590  0.2228
   48CHL1  H16A 3500   3.174   6.385   6.671  0.8223  0.0546  2.1094
   48CHL1  H16B 3501   3.321   6.310   6.616 -0.3895  0.1458 -0.2794
   48CHL1   C17 3502   3.327   6.525   6.680  0.5429 -0.9152 -0.0154
   48CHL1   H17 3503   3.436   6.509   6.669  0.5670  0.0916 -1.7604
   48CHL1   C13 3504   3.299   6.647   6.588  0.9261 -0.0151 -0.6366
   48CHL1   C18 3505   3.161   6.706   6.627  0.0931  0.0427  0.0331
   48CHL1  H18A 3506   3.143   6.798   6.568  0.3793  0.2086  0.1999
   48CHL1  H18B 3507   3.072   6.643   6.606 -0.4144  1.5698 -2.9423
   48CHL1  H18C 3508   3.148   6.726   6.736  0.0631 -3.6881  0.8556
   48CHL1   C12 3509   3.410   6.760   6.582  0.4754 -0.1271 -0.4919
   48CHL1  H12A 3510   3.420   6.827   6.670 -3.9002  0.9237 -0.5622
   48CHL1  H12B 3511   3.505   6.705   6.565  0.6183 -0.0110 -0.0895
   48CHL1   C11 3512   3.385   6.861   6.468 -0.1816 -0.1501 -0.1615
   48CHL1  H11A 3513   3.308   6.931   6.508 -0.6669 -0.4909 -0.4842
   48CHL1  H11B 3514   3.474   6.924   6.448 -0.4207 -0.2539 -1.6400
   48CHL1    C9 3515   3.339   6.799   6.331  0.8371  1.2119 -0.5949
   48CHL1    H9 3516   3.429   6.755   6.284 -0.2723 -0.6554 -1.0598
   48CHL1   C10 3517   3.293   6.896   6.223  0.2552  0.4775  0.4753
   48CHL1   C19 3518   3.195   6.998   6.289  0.0881 -0.0008  0.5265
   48CHL1  H19A 3519   3.135   7.061   6.220 -0.6850  1.2500  2.2717
   48CHL1  H19B 3520   3.122   6.939   6.348  0.8180 -1.3233  0.1363
   48CHL1  H19C 3521   3.246   7.071   6.357 -1.4317  0.9194  0.7266
   48CHL1    C1 3522   3.413   6.964   6.162 -1.2196 -0.3166 -0.2222
   48CHL1   H1A 3523   3.460   7.013   6.250  0.1581  0.3748 -1.3042
   48CHL1   H1B 3524   3.487   6.888   6.128 -1.2668 -0.7685  0.6511
   48CHL1    C2 3525   3.390   7.066   6.047  0.7336 -0.0339  0.2008
   48CHL1   H2A 3526   3.487   7.103   6.009  0.4963  3.3861  2.4861
   48CHL1   H2B 3527   3.334   7.150   6.094  1.8293  1.2697 -0.7427
   48CHL1   C20 3528   3.281   6.524   6.831  0.6679 -0.5610  0.5817
   48CHL1   H20 3529   3.170   6.532   6.828  0.7822  1.1926 -0.7369
   48CHL1   C21 3530   3.359   6.637   6.906 -0.3584  0.2225 -0.6052
   48CHL1  H21A 3531   3.467   6.614   6.895  0.0392  2.1769 -1.0961
   48CHL1  H21B 3532   3.333   6.644   7.014 -0.2631  1.3348 -0.6495
   48CHL1  H21C 3533   3.356   6.744   6.879  2.6103  0.7790  0.8610
   48CHL1   C22 3534   3.310   6.392   6.902 -0.6265 -0.2369 -0.3244
   48CHL1  H22A 3535   3.336   6.319   6.822  0.1312  2.3083 -2.5681
   48CHL1  H22B 3536   3.406   6.401   6.958 -0.0813  0.7482 -1.3535
   48CHL1   C23 3537   3.191   6.351   6.990 -0.9458 -0.3921 -0.0449
   48CHL1  H23A 3538   3.176   6.439   7.056  0.7293  1.5627 -2.0785
   48CHL1  H23B 3539   3.096   6.320   6.942 -0.1953 -0.9397 -1.2085
   48CHL1   C24 3540   3.230   6.220   7.063 -0.4502  0.1706  0.7479
   48CHL1  H24A 3541   3.270   6.155   6.983  0.9596  1.8647  0.0096
   48CHL1  H24B 3542   3.314   6.254   7.128  1.6534 -1.5489 -0.9460
   48CHL1   C25 3543   3.125   6.155   7.140  0.1234  0.6296 -0.7052
   48CHL1   H25 3544   3.067   6.094   7.067 -0.6058  2.2233 -1.5096
   48CHL1   C26 3545   3.177   6.051   7.241  1.1344  0.0185  0.0109
   48CHL1  H26A 3546   3.092   6.012   7.300  1.1552  0.5183  0.3763
   48CHL1  H26B 3547   3.224   5.967   7.185 -1.3362 -0.4390 -1.5252
   48CHL1  H26C 3548   3.249   6.101   7.309  1.1319  1.0508 -0.7099
   48CHL1   C27 3549   3.021   6.244   7.207  0.6653 -0.3923 -0.3749
   48CHL1  H27A 3550   3.078   6.323   7.262  1.8324  0.6773 -2.9751
   48CHL1  H27B 3551   2.962   6.302   7.133 -0.6898  1.1501  1.7802
   48CHL1  H27C 3552   2.949   6.194   7.274  0.5889 -1.8231 -1.4898
   49CHL1    C3 3553   2.036   0.541   5.901 -0.3654 -0.3284 -0.5075
   49CHL1    H3 3554   2.129   0.582   5.856  0.0390 -0.5759  0.0925
   49CHL1    O3 3555   1.948   0.498   5.801 -0.4360 -0.1718  0.3563
   49CHL1   H3' 3556   1.871   0.471   5.853 -1.8203  0.8600 -1.0406
   49CHL1    C4 3557   2.083   0.428   6.000  0.3307  0.3068 -0.0457
   49CHL1   H4A 3558   1.993   0.373   6.035  0.3050  0.3404 -0.0574
   49CHL1   H4B 3559   2.135   0.359   5.931 -2.2373  0.3221 -2.1672
   49CHL1    C5 3560   2.170   0.483   6.108  0.6734 -0.6328 -0.4670
   49CHL1    C6 3561   2.296   0.442   6.113  1.0865 -0.0434 -1.0115
   49CHL1    H6 3562   2.319   0.364   6.038 -0.7368  0.2403 -1.9298
   49CHL1    C7 3563   2.389   0.481   6.228  0.6284  0.2097 -0.3997
   49CHL1   H7A 3564   2.437   0.388   6.266 -0.0038 -0.0900 -0.3105
   49CHL1   H7B 3565   2.453   0.561   6.185 -0.4602 -0.1172 -2.8200
   49CHL1    C8 3566   2.313   0.549   6.347  0.0547 -0.4272 -0.1698
   49CHL1    H8 3567   2.259   0.470   6.404  1.5039 -1.5683 -0.2976
   49CHL1   C14 3568   2.417   0.624   6.429 -0.0755 -0.0630 -0.2950
   49CHL1   H14 3569   2.455   0.706   6.365 -1.9466  1.0561 -0.0584
   49CHL1   C15 3570   2.535   0.540   6.480  0.3550  0.0574 -0.4773
   49CHL1  H15A 3571   2.503   0.444   6.525  2.8590 -0.5692  0.1497
   49CHL1  H15B 3572   2.613   0.516   6.404  1.0090 -2.8928  0.9566
   49CHL1   C16 3573   2.589   0.631   6.590 -0.0715  0.0416 -0.0751
   49CHL1  H16A 3574   2.591   0.571   6.684 -3.5408 -0.5932 -0.2977
   49CHL1  H16B 3575   2.688   0.675   6.565 -1.2002  1.6893 -1.9574
   49CHL1   C17 3576   2.490   0.751   6.618  0.0195  0.2960 -0.6816
   49CHL1   H17 3577   2.524   0.830   6.547  0.7464 -0.1512 -0.8466
   49CHL1   C13 3578   2.361   0.704   6.542 -0.2647  0.4520 -0.5354
   49CHL1   C18 3579   2.283   0.609   6.642 -0.2420 -0.3069  0.0367
   49CHL1  H18A 3580   2.207   0.547   6.590  0.4344  0.1435 -1.5351
   49CHL1  H18B 3581   2.359   0.547   6.694 -1.4284 -1.4526  0.4712
   49CHL1  H18C 3582   2.238   0.671   6.722  1.2043  0.7352  0.0784
   49CHL1   C12 3583   2.277   0.823   6.494 -0.1125  0.6620  0.4075
   49CHL1  H12A 3584   2.243   0.883   6.580  0.0271  1.8013 -0.3091
   49CHL1  H12B 3585   2.355   0.873   6.432  1.2189 -1.2676  0.4273
   49CHL1   C11 3586   2.163   0.767   6.403 -0.3701 -0.2467  0.9320
   49CHL1  H11A 3587   2.092   0.714   6.471 -1.8040  2.2491  1.5078
   49CHL1  H11B 3588   2.120   0.852   6.346  1.5475 -0.3176 -0.7164
   49CHL1    C9 3589   2.216   0.666   6.293  0.8152 -0.0442 -0.4134
   49CHL1    H9 3590   2.278   0.733   6.230  0.9494  0.1272 -0.0979
   49CHL1   C10 3591   2.107   0.604   6.198 -0.1517 -0.4682  0.4833
   49CHL1   C19 3592   1.998   0.546   6.286  0.1353  0.0786  0.1486
   49CHL1  H19A 3593   1.939   0.623   6.341  0.1880  1.4552 -1.6522
   49CHL1  H19B 3594   1.920   0.494   6.227  0.8630 -1.4422  0.4742
   49CHL1  H19C 3595   2.039   0.477   6.363  0.4262 -1.1385 -1.0564
   49CHL1    C1 3596   2.056   0.702   6.090  0.0340  0.5800  0.8169
   49CHL1   H1A 3597   1.992   0.777   6.141  1.4769  2.3849  0.0925
   49CHL1   H1B 3598   2.144   0.757   6.048  0.4699 -1.3240 -0.9171
   49CHL1    C2 3599   1.978   0.661   5.969  1.0384 -0.3915 -0.0431
   49CHL1   H2A 3600   1.959   0.749   5.904 -1.9738 -0.1548  0.9776
   49CHL1   H2B 3601   1.877   0.626   6.000  0.6527 -0.6131 -1.4427
   49CHL1   C20 3602   2.482   0.813   6.757  0.9413 -0.1812  0.4106
   49CHL1   H20 3603   2.377   0.849   6.759  0.6967 -0.8745  0.9244
   49CHL1   C21 3604   2.585   0.923   6.767 -0.2600  0.1863 -0.4952
   49CHL1  H21A 3605   2.683   0.872   6.771 -0.3575  0.0492  0.3580
   49CHL1  H21B 3606   2.577   0.975   6.865  3.1310 -1.5468  0.8521
   49CHL1  H21C 3607   2.591   0.991   6.680 -2.8544  0.6642 -0.4038
   49CHL1   C22 3608   2.485   0.726   6.892  0.1267  0.3381  0.0817
   49CHL1  H22A 3609   2.416   0.640   6.877  1.2986 -0.4458 -1.1511
   49CHL1  H22B 3610   2.593   0.702   6.908  0.6422  1.8007 -0.9881
   49CHL1   C23 3611   2.423   0.796   7.014  0.2787 -0.4561 -0.0274
   49CHL1  H23A 3612   2.454   0.732   7.099 -1.6808 -3.1837 -1.2164
   49CHL1  H23B 3613   2.451   0.902   7.027 -2.0371  0.1548  0.5101
   49CHL1   C24 3614   2.268   0.798   7.017  0.3379 -0.1768 -0.0806
   49CHL1  H24A 3615   2.220   0.867   6.945  0.2640  0.1058  0.2375
   49CHL1  H24B 3616   2.224   0.699   6.988 -0.7109 -0.3105  1.7855
   49CHL1   C25 3617   2.203   0.809   7.156 -0.1229  0.0986  0.2500
   49CHL1   H25 3618   2.256   0.893   7.206 -1.7924  1.3874 -0.0422
   49CHL1   C26 3619   2.052   0.833   7.151  0.4453  0.5257 -0.4201
   49CHL1  H26A 3620   1.999   0.758   7.088  0.5324  1.1316 -1.2182
   49CHL1  H26B 3621   2.005   0.834   7.252  0.0255 -3.3503 -0.3935
   49CHL1  H26C 3622   2.017   0.928   7.108 -0.6798  0.2017 -0.2638
   49CHL1   C27 3623   2.228   0.696   7.261  0.0636 -0.3790 -0.0477
   49CHL1  H27A 3624   2.171   0.604   7.236 -2.5513  1.5183 -1.6335
   49CHL1  H27B 3625   2.335   0.669   7.258  0.4339  0.9884  0.2643
   49CHL1  H27C 3626   2.203   0.723   7.366 -0.9818 -0.5894 -0.2233
   50CHL1    C3 3627   1.452   6.435   6.018  1.0051 -1.0624 -0.1581
   50CHL1    H3 3628   1.346   6.402   6.019  0.5328  0.0594  3.4825
   50CHL1    O3 3629   1.486   6.454   5.882 -0.1676 -0.2396 -0.3739
   50CHL1   H3' 3630   1.582   6.465   5.879 -0.2302  0.1010 -1.7163
   50CHL1    C4 3631   1.449   6.571   6.094 -0.6642 -0.1933  0.0183
   50CHL1   H4A 3632   1.547   6.619   6.071  0.0056 -1.2526  0.6297
   50CHL1   H4B 3633   1.368   6.634   6.051 -0.1582  0.1713 -0.4202
   50CHL1    C5 3634   1.452   6.566   6.245  0.5575  0.5375  0.0594
   50CHL1    C6 3635   1.369   6.640   6.315  1.3705  0.0007  0.2466
   50CHL1    H6 3636   1.310   6.711   6.256  0.7317  0.1751  1.0746
   50CHL1    C7 3637   1.363   6.641   6.464  0.3222  0.5943  0.5769
   50CHL1   H7A 3638   1.375   6.748   6.492  0.4111  0.7852 -0.1522
   50CHL1   H7B 3639   1.262   6.601   6.484 -1.2771  2.4392 -2.8447
   50CHL1    C8 3640   1.476   6.567   6.535 -0.2232  0.0622  0.3763
   50CHL1    H8 3641   1.563   6.635   6.528 -0.6289  0.7912  2.0269
   50CHL1   C14 3642   1.437   6.527   6.678  0.8626  0.3945  0.1743
   50CHL1   H14 3643   1.360   6.449   6.660  1.2043  0.7585 -4.0036
   50CHL1   C15 3644   1.366   6.640   6.765 -0.5386 -0.0377 -0.2390
   50CHL1  H15A 3645   1.425   6.733   6.746  1.3278 -1.0366  0.3947
   50CHL1  H15B 3646   1.264   6.648   6.723 -0.4653  1.9063 -0.1391
   50CHL1   C16 3647   1.376   6.584   6.903 -0.4245  0.0935 -0.2368
   50CHL1  H16A 3648   1.420   6.654   6.978 -1.7600  2.9312 -1.9641
   50CHL1  H16B 3649   1.271   6.555   6.928  0.3259 -3.4440 -0.5895
   50CHL1   C17 3650   1.463   6.457   6.892  0.3559  0.1874  0.5555
   50CHL1   H17 3651   1.391   6.374   6.874  0.8709 -0.2597  0.4985
   50CHL1   C13 3652   1.545   6.472   6.761 -0.1975 -0.0724  0.0323
   50CHL1   C18 3653   1.673   6.567   6.777 -0.0674 -0.6699  0.3727
   50CHL1  H18A 3654   1.730   6.554   6.683  1.6787  2.3325  0.8991
   50CHL1  H18B 3655   1.651   6.676   6.774  0.6882 -0.5152 -2.9767
   50CHL1  H18C 3656   1.735   6.535   6.864  0.3016  0.1525  0.4232
   50CHL1   C12 3657   1.575   6.339   6.692 -0.1361  0.0503  0.1024
   50CHL1  H12A 3658   1.660   6.291   6.745  0.1871  2.3428  1.7915
   50CHL1  H12B 3659   1.489   6.270   6.701  0.9193 -1.5693 -1.6245
   50CHL1   C11 3660   1.620   6.349   6.545 -0.4631 -0.1039 -0.3679
   50CHL1  H11A 3661   1.717   6.404   6.538 -1.0114  1.1095  1.1139
   50CHL1  H11B 3662   1.645   6.248   6.506 -1.4487 -0.4222 -0.2028
   50CHL1    C9 3663   1.514   6.430   6.462 -0.1695 -0.0615  0.3704
   50CHL1    H9 3664   1.422   6.367   6.468  1.2256 -2.2759 -0.3278
   50CHL1   C10 3665   1.544   6.456   6.308 -0.1819  0.7795 -0.2459
   50CHL1   C19 3666   1.688   6.510   6.290  0.4716 -0.4100  0.0994
   50CHL1  H19A 3667   1.766   6.431   6.298 -1.7513 -2.5629  2.1161
   50CHL1  H19B 3668   1.703   6.564   6.194  2.4336  2.8454  2.0701
   50CHL1  H19C 3669   1.691   6.589   6.368 -2.6889 -0.3291  0.2838
   50CHL1    C1 3670   1.519   6.329   6.228 -0.0773  0.4989 -0.0926
   50CHL1   H1A 3671   1.577   6.245   6.271  0.2100  1.7534  2.1173
   50CHL1   H1B 3672   1.416   6.302   6.259  0.4333  2.5803  4.0983
   50CHL1    C2 3673   1.540   6.334   6.079 -0.6631  0.4612  0.4616
   50CHL1   H2A 3674   1.520   6.241   6.021 -1.0494 -1.3896  3.3882
   50CHL1   H2B 3675   1.642   6.371   6.054 -1.1262  1.6348  0.2747
   50CHL1   C20 3676   1.537   6.429   7.027 -0.2392 -0.1315 -0.4706
   50CHL1   H20 3677   1.628   6.491   7.040  1.0743 -2.3254  1.8150
   50CHL1   C21 3678   1.596   6.286   7.022 -0.4808  0.1279  0.7402
   50CHL1  H21A 3679   1.642   6.251   7.117 -1.1195 -1.7542  0.4014
   50CHL1  H21B 3680   1.682   6.289   6.953 -0.5569  1.6175  0.6620
   50CHL1  H21C 3681   1.523   6.206   6.997 -0.8467  0.1602  1.6297
   50CHL1   C22 3682   1.448   6.447   7.153 -0.8458  0.0604 -0.1693
   50CHL1  H22A 3683   1.441   6.557   7.170 -1.7252  0.0688 -0.5499
   50CHL1  H22B 3684   1.342   6.415   7.144 -1.6575  2.3523  0.4111
   50CHL1   C23 3685   1.505   6.389   7.278  0.6573 -0.0077 -0.6088
   50CHL1  H23A 3686   1.466   6.286   7.284 -0.8817  0.6018  0.5718
   50CHL1  H23B 3687   1.616   6.382   7.282  0.7024  0.7759 -0.2185
   50CHL1   C24 3688   1.474   6.462   7.410 -0.3715 -1.0636  0.8819
   50CHL1  H24A 3689   1.555   6.538   7.424  1.2531 -2.5745  0.0803
   50CHL1  H24B 3690   1.375   6.512   7.411 -0.7956 -1.8998  1.5837
   50CHL1   C25 3691   1.476   6.392   7.550  0.3257  0.2343  0.3379
   50CHL1   H25 3692   1.407   6.306   7.546  1.6232 -0.9004  1.4149
   50CHL1   C26 3693   1.614   6.338   7.575  0.7736  0.8396  0.1054
   50CHL1  H26A 3694   1.690   6.415   7.599  1.1194  0.1042  1.4596
   50CHL1  H26B 3695   1.605   6.269   7.662  0.5988  0.2598 -0.3682
   50CHL1  H26C 3696   1.648   6.271   7.494 -1.5624 -1.0864  0.6173
   50CHL1   C27 3697   1.424   6.492   7.656  0.4789  0.4588 -0.4459
   50CHL1  H27A 3698   1.379   6.440   7.743 -1.0021  1.4282 -0.6135
   50CHL1  H27B 3699   1.496   6.574   7.679  0.1281  0.7759 -0.4730
   50CHL1  H27C 3700   1.341   6.550   7.611 -0.3585 -1.5666 -1.6579
   51CHL1    C3 3701   2.071   6.595   6.004 -0.6572  0.0353 -0.0038
   51CHL1    H3 3702   1.997   6.675   6.024 -0.6093 -0.2261  1.3253
   51CHL1    O3 3703   2.064   6.519   5.879 -0.1934 -0.2723  0.3887
   51CHL1   H3' 3704   2.145   6.468   5.888  0.3784  0.8236  1.9824
   51CHL1    C4 3705   2.214   6.661   6.014  0.4513  0.3007  0.5346
   51CHL1   H4A 3706   2.289   6.590   5.974 -0.6136 -0.3550 -0.3579
   51CHL1   H4B 3707   2.223   6.740   5.937 -2.3022 -0.6301 -0.8595
   51CHL1    C5 3708   2.266   6.710   6.149  0.2768 -0.3472  0.3916
   51CHL1    C6 3709   2.321   6.832   6.163 -0.2571  0.5112 -0.6330
   51CHL1    H6 3710   2.313   6.893   6.072 -3.2682  0.8065 -0.2575
   51CHL1    C7 3711   2.374   6.875   6.292  0.5354 -0.1835  0.2525
   51CHL1   H7A 3712   2.475   6.920   6.281 -0.1291  1.3884  0.3273
   51CHL1   H7B 3713   2.307   6.959   6.320 -0.1204 -0.6543  0.1221
   51CHL1    C8 3714   2.380   6.775   6.409 -0.2903  0.2466  0.2165
   51CHL1    H8 3715   2.477   6.722   6.401 -0.0832  0.8075 -1.2451
   51CHL1   C14 3716   2.367   6.843   6.545  0.8616  0.1294 -0.5532
   51CHL1   H14 3717   2.265   6.883   6.561  0.4615 -1.1936  0.4375
   51CHL1   C15 3718   2.472   6.954   6.575 -0.1774  0.4042 -0.5575
   51CHL1  H15A 3719   2.575   6.921   6.551 -0.3394 -0.4679 -0.0776
   51CHL1  H15B 3720   2.459   7.043   6.508  0.3913 -0.3978 -1.7729
   51CHL1   C16 3721   2.460   6.978   6.723  0.0260  0.2403 -0.4719
   51CHL1  H16A 3722   2.561   6.971   6.768  0.0065 -0.8052 -0.5441
   51CHL1  H16B 3723   2.418   7.077   6.750 -2.3519 -1.3761  2.4430
   51CHL1   C17 3724   2.365   6.866   6.776  0.2009 -0.1349 -0.4777
   51CHL1   H17 3725   2.266   6.915   6.770 -0.2051 -0.4088  2.4918
   51CHL1   C13 3726   2.373   6.753   6.670 -0.1597  0.8807 -0.0829
   51CHL1   C18 3727   2.511   6.688   6.674  0.0705 -0.7824  0.4898
   51CHL1  H18A 3728   2.520   6.625   6.765  2.1017  0.0487  0.9227
   51CHL1  H18B 3729   2.538   6.624   6.587 -2.4653  0.8971 -1.6763
   51CHL1  H18C 3730   2.588   6.767   6.688 -0.5419 -0.2028  0.6159
   51CHL1   C12 3731   2.251   6.656   6.656  0.0913  0.7328 -0.5525
   51CHL1  H12A 3732   2.258   6.572   6.730  2.2341  0.1871 -1.2861
   51CHL1  H12B 3733   2.160   6.719   6.663 -0.3138 -0.0067  1.8485
   51CHL1   C11 3734   2.247   6.584   6.522 -0.0850  0.0216 -0.7272
   51CHL1  H11A 3735   2.336   6.517   6.524  0.3573  0.6154  0.2018
   51CHL1  H11B 3736   2.156   6.521   6.523  0.7328 -1.2076  0.7265
   51CHL1    C9 3737   2.255   6.677   6.402 -0.1902 -0.8154  0.4498
   51CHL1    H9 3738   2.176   6.756   6.401  0.6800  0.0973 -1.5325
   51CHL1   C10 3739   2.252   6.609   6.263  0.4868 -0.4330 -0.1423
   51CHL1   C19 3740   2.348   6.489   6.253  0.5091  0.6675 -0.2682
   51CHL1  H19A 3741   2.452   6.527   6.257  0.2493  1.3902 -0.1053
   51CHL1  H19B 3742   2.334   6.410   6.329 -0.2256  0.1968 -0.8703
   51CHL1  H19C 3743   2.327   6.442   6.154  1.3965 -1.7195  0.6276
   51CHL1    C1 3744   2.110   6.546   6.253  0.5387 -0.2995 -0.0950
   51CHL1   H1A 3745   2.114   6.457   6.320  0.4369 -0.2284  0.0054
   51CHL1   H1B 3746   2.028   6.611   6.289 -1.0975 -1.7941 -0.9352
   51CHL1    C2 3747   2.061   6.493   6.119  0.8204  0.7697  0.1010
   51CHL1   H2A 3748   1.956   6.458   6.126  1.5138 -1.9758 -1.5131
   51CHL1   H2B 3749   2.130   6.407   6.101  0.9401  0.6009  1.3202
   51CHL1   C20 3750   2.381   6.824   6.920 -0.6315 -0.5130 -0.5327
   51CHL1   H20 3751   2.478   6.773   6.937  0.3214  0.5466 -2.4372
   51CHL1   C21 3752   2.278   6.723   6.969 -0.2369 -0.7701  0.2279
   51CHL1  H21A 3753   2.279   6.730   7.080  1.9387 -1.8272  0.3409
   51CHL1  H21B 3754   2.305   6.618   6.943 -2.4207 -1.4594  0.5579
   51CHL1  H21C 3755   2.176   6.729   6.926  0.6305 -1.8601 -2.1446
   51CHL1   C22 3756   2.384   6.948   7.021  0.3058 -0.6680 -0.0105
   51CHL1  H22A 3757   2.443   7.029   6.974  1.3182 -1.1698  0.3658
   51CHL1  H22B 3758   2.276   6.973   7.027  0.4035 -0.4140  1.0035
   51CHL1   C23 3759   2.442   6.911   7.160 -0.1385  0.2932  0.2594
   51CHL1  H23A 3760   2.373   6.837   7.206 -1.6619  0.0650 -2.2380
   51CHL1  H23B 3761   2.535   6.857   7.132  1.7907  1.8252  3.2055
   51CHL1   C24 3762   2.480   7.031   7.247 -0.1074  0.4757 -0.5280
   51CHL1  H24A 3763   2.541   7.099   7.184  0.6377 -0.4356 -0.8066
   51CHL1  H24B 3764   2.383   7.082   7.266  0.1403  0.9529 -0.5281
   51CHL1   C25 3765   2.559   7.005   7.377  0.3681 -0.7240 -0.3377
   51CHL1   H25 3766   2.489   6.953   7.445  0.4058 -2.6764 -1.7103
   51CHL1   C26 3767   2.667   6.894   7.360  0.1926  0.1365  0.2229
   51CHL1  H26A 3768   2.643   6.790   7.329 -0.5322  0.9277 -2.0580
   51CHL1  H26B 3769   2.749   6.922   7.291  0.8685 -0.9400  0.5668
   51CHL1  H26C 3770   2.725   6.882   7.454 -0.1640 -1.6918  0.2545
   51CHL1   C27 3771   2.612   7.131   7.458 -0.8927  0.0920 -0.1744
   51CHL1  H27A 3772   2.704   7.168   7.409 -0.7376 -1.1454 -0.8696
   51CHL1  H27B 3773   2.527   7.201   7.475 -0.3073  0.4900  1.2609
   51CHL1  H27C 3774   2.650   7.098   7.557  0.6094  1.4802 -0.2488
   52CHL1    C3 3775   5.763   0.768   6.049  0.2461  0.5042  0.4874
   52CHL1    H3 3776   5.668   0.790   5.996  0.2646 -0.6110 -0.0228
   52CHL1    O3 3777   5.866   0.752   5.953  0.6752  0.3406  0.0263
   52CHL1   H3' 3778   5.886   0.659   5.970 -0.2861 -0.5543 -3.0189
   52CHL1    C4 3779   5.798   0.876   6.144 -0.8598  0.4803 -0.9719
   52CHL1   H4A 3780   5.902   0.864   6.182 -0.9867  3.9913  0.9055
   52CHL1   H4B 3781   5.791   0.967   6.081 -0.0240  0.9939 -0.3488
   52CHL1    C5 3782   5.711   0.892   6.265 -0.1999  0.2209  0.0125
   52CHL1    C6 3783   5.632   0.994   6.289  0.8933  0.1782 -0.6335
   52CHL1    H6 3784   5.638   1.085   6.228  1.8023  1.9588  1.9568
   52CHL1    C7 3785   5.561   1.021   6.418 -0.1081  0.6130 -0.6459
   52CHL1   H7A 3786   5.595   1.120   6.456  1.5342  0.0102 -0.4616
   52CHL1   H7B 3787   5.451   1.015   6.407 -0.2549 -0.8629  1.1833
   52CHL1    C8 3788   5.594   0.918   6.533  0.5927 -0.1354  1.0136
   52CHL1    H8 3789   5.695   0.937   6.574  1.1406 -3.5105  1.4571
   52CHL1   C14 3790   5.488   0.933   6.639  0.4347  0.5277  0.4812
   52CHL1   H14 3791   5.397   0.892   6.590  0.7775  2.3138 -1.7772
   52CHL1   C15 3792   5.455   1.080   6.679 -0.7572  0.0322 -0.6027
   52CHL1  H15A 3793   5.561   1.112   6.694 -0.3756 -1.6857  0.6641
   52CHL1  H15B 3794   5.403   1.134   6.597  1.8345  1.7650 -1.2416
   52CHL1   C16 3795   5.386   1.063   6.818 -0.2995 -0.5158  0.0535
   52CHL1  H16A 3796   5.431   1.120   6.902 -1.5953  1.8645 -0.7567
   52CHL1  H16B 3797   5.285   1.107   6.803  0.5500  1.7174  0.4999
   52CHL1   C17 3798   5.398   0.910   6.847  0.4684  0.3051 -0.0356
   52CHL1   H17 3799   5.314   0.852   6.803  1.6094 -0.2864 -1.4906
   52CHL1   C13 3800   5.511   0.846   6.762 -0.0059  0.0248  0.3033
   52CHL1   C18 3801   5.641   0.887   6.824 -0.0476 -0.1198 -0.2014
   52CHL1  H18A 3802   5.722   0.866   6.751 -0.1546 -2.9013  0.4011
   52CHL1  H18B 3803   5.647   0.997   6.841  1.8686 -0.0760 -0.8428
   52CHL1  H18C 3804   5.652   0.835   6.921 -0.6969  0.3888  0.1561
   52CHL1   C12 3805   5.501   0.701   6.708  0.4146 -0.2108 -0.5745
   52CHL1  H12A 3806   5.504   0.626   6.789 -1.0957  2.1427  1.8322
   52CHL1  H12B 3807   5.397   0.687   6.671 -0.1643 -4.3408  1.9899
   52CHL1   C11 3808   5.591   0.668   6.585 -0.5673  0.3846 -0.4949
   52CHL1  H11A 3809   5.694   0.644   6.619 -1.4479 -1.2352  1.2410
   52CHL1  H11B 3810   5.542   0.576   6.548 -1.5899 -0.1128  1.8931
   52CHL1    C9 3811   5.582   0.777   6.474  0.0334  0.0515  0.0769
   52CHL1    H9 3812   5.486   0.768   6.418 -0.3217  0.0680  0.6707
   52CHL1   C10 3813   5.692   0.767   6.358 -0.0981 -0.5715 -0.8356
   52CHL1   C19 3814   5.829   0.743   6.427 -0.6259  0.4443  0.0764
   52CHL1  H19A 3815   5.829   0.642   6.472 -0.4174  1.2989  2.1168
   52CHL1  H19B 3816   5.916   0.747   6.357 -1.5840  0.6989 -1.1250
   52CHL1  H19C 3817   5.847   0.819   6.507 -0.3408  1.3532 -0.8205
   52CHL1    C1 3818   5.652   0.657   6.255  0.1339 -0.5860 -1.4138
   52CHL1   H1A 3819   5.657   0.562   6.313  0.2355  0.6283  0.6798
   52CHL1   H1B 3820   5.552   0.683   6.215 -0.7508  0.3147  1.1453
   52CHL1    C2 3821   5.741   0.635   6.129 -0.1898 -0.2240  0.5833
   52CHL1   H2A 3822   5.691   0.569   6.055 -1.1543  3.0052 -1.8767
   52CHL1   H2B 3823   5.838   0.589   6.158  0.1167 -0.4506 -0.7218
   52CHL1   C20 3824   5.401   0.880   6.997  0.3209  0.1738 -0.1454
   52CHL1   H20 3825   5.497   0.915   7.042  1.4233 -1.6535 -0.9695
   52CHL1   C21 3826   5.386   0.723   7.016 -0.3267  0.0594  0.2174
   52CHL1  H21A 3827   5.350   0.691   7.116 -1.6593  1.1482  0.1165
   52CHL1  H21B 3828   5.486   0.677   7.001 -0.8138 -0.8781 -0.3086
   52CHL1  H21C 3829   5.321   0.678   6.938  1.2209  1.0733 -1.7528
   52CHL1   C22 3830   5.287   0.949   7.077  0.1403 -0.3069  0.3278
   52CHL1  H22A 3831   5.289   1.059   7.066 -0.1310  0.1341  3.6529
   52CHL1  H22B 3832   5.188   0.917   7.038  0.7898 -0.9684 -0.8537
   52CHL1   C23 3833   5.294   0.930   7.229 -0.5553  0.3421 -0.4713
   52CHL1  H23A 3834   5.293   0.820   7.248 -0.3613  0.1472 -1.5253
   52CHL1  H23B 3835   5.387   0.973   7.272 -0.5266  0.5487 -0.7389
   52CHL1   C24 3836   5.163   0.985   7.304 -0.3325  0.2325 -0.4696
   52CHL1  H24A 3837   5.157   1.093   7.278  0.1138  0.4389  0.2521
   52CHL1  H24B 3838   5.081   0.934   7.251 -1.1592  0.5085  0.5120
   52CHL1   C25 3839   5.145   0.952   7.456 -0.2370  0.0906 -0.0338
   52CHL1   H25 3840   5.168   0.844   7.473 -0.3530  0.0907  0.1268
   52CHL1   C26 3841   5.246   1.032   7.532 -0.2119  0.4363  0.1191
   52CHL1  H26A 3842   5.238   1.142   7.518  0.8825  0.5900  0.5417
   52CHL1  H26B 3843   5.238   1.014   7.641  0.8336  2.1350  0.5152
   52CHL1  H26C 3844   5.349   1.002   7.502 -0.6168 -1.0173  0.1383
   52CHL1   C27 3845   5.002   0.980   7.497 -0.0131 -0.7653  0.7182
   52CHL1  H27A 3846   4.979   1.087   7.478  1.7528 -0.8030 -2.3523
   52CHL1  H27B 3847   4.938   0.904   7.449 -1.2817 -0.8349  2.4526
   52CHL1  H27C 3848   4.980   0.958   7.604  1.6306 -1.1617  1.0043
   53CHL1    C3 3849   6.713   6.329   5.886  0.8182  0.8729  0.1114
   53CHL1    H3 3850   6.626   6.393   5.857 -0.7860 -1.6385 -0.9621
   53CHL1    O3 3851   6.789   6.305   5.772 -0.5292 -0.3305  0.3176
   53CHL1   H3' 3852   6.874   6.269   5.797 -1.0042 -0.8594  1.2103
   53CHL1    C4 3853   6.803   6.391   5.991  0.2043 -0.7632 -0.0495
   53CHL1   H4A 3854   6.900   6.337   6.002  0.4695  0.0231  1.7678
   53CHL1   H4B 3855   6.830   6.490   5.947  0.1265 -0.5688  0.3381
   53CHL1    C5 3856   6.730   6.409   6.122 -0.0642 -0.2182  0.3177
   53CHL1    C6 3857   6.724   6.532   6.180 -0.2521  0.3144 -0.6409
   53CHL1    H6 3858   6.778   6.616   6.134  1.0764 -0.7225 -1.0313
   53CHL1    C7 3859   6.649   6.553   6.314 -0.2863  0.9794 -0.0265
   53CHL1   H7A 3860   6.708   6.606   6.392 -0.1720  1.0483 -0.1585
   53CHL1   H7B 3861   6.560   6.617   6.297  0.8946  2.6979 -0.0293
   53CHL1    C8 3862   6.624   6.416   6.388  0.0027 -0.4341  0.3562
   53CHL1    H8 3863   6.720   6.374   6.425  1.9175  3.3051  0.0357
   53CHL1   C14 3864   6.532   6.438   6.507  0.5078  0.0843 -0.1417
   53CHL1   H14 3865   6.436   6.486   6.479 -0.1006 -0.2771  1.2275
   53CHL1   C15 3866   6.566   6.538   6.615  0.3982  0.2312  0.1789
   53CHL1  H15A 3867   6.671   6.528   6.651 -0.2744 -2.1782  1.7286
   53CHL1  H15B 3868   6.554   6.646   6.590 -1.2018  0.4073  1.5402
   53CHL1   C16 3869   6.476   6.509   6.734 -0.1068 -0.6588 -0.4166
   53CHL1  H16A 3870   6.525   6.503   6.834 -1.7980  1.4990  0.6267
   53CHL1  H16B 3871   6.407   6.594   6.755 -1.3716 -1.4681 -1.1230
   53CHL1   C17 3872   6.396   6.381   6.690 -0.0439  0.4707 -0.3966
   53CHL1   H17 3873   6.306   6.421   6.637  1.2954  2.5516 -1.2303
   53CHL1   C13 3874   6.482   6.322   6.576  0.6131 -0.2004  0.0386
   53CHL1   C18 3875   6.608   6.247   6.635 -0.0243 -0.4673 -0.0620
   53CHL1  H18A 3876   6.575   6.164   6.700 -2.2037 -0.6581 -1.3091
   53CHL1  H18B 3877   6.670   6.197   6.559  1.6475  1.5555 -0.1308
   53CHL1  H18C 3878   6.670   6.316   6.696  1.2279 -2.6382  1.2240
   53CHL1   C12 3879   6.407   6.235   6.476 -0.0127  0.0719 -0.3389
   53CHL1  H12A 3880   6.356   6.151   6.527  0.0151  1.0280  1.3111
   53CHL1  H12B 3881   6.318   6.292   6.441 -0.4946 -0.8168 -0.5854
   53CHL1   C11 3882   6.497   6.190   6.360 -0.5155  0.2045 -0.1196
   53CHL1  H11A 3883   6.570   6.121   6.406 -1.3579  0.9153  2.5063
   53CHL1  H11B 3884   6.430   6.142   6.285 -0.3363  2.1393 -1.6137
   53CHL1    C9 3885   6.556   6.316   6.292  0.2637  0.5583  0.0606
   53CHL1    H9 3886   6.469   6.372   6.250 -0.3544 -0.2200  0.2701
   53CHL1   C10 3887   6.656   6.290   6.171 -0.5917  0.8965 -0.2376
   53CHL1   C19 3888   6.754   6.180   6.235 -0.0718  0.0199  0.7773
   53CHL1  H19A 3889   6.717   6.077   6.219 -3.1455  1.2311 -0.7462
   53CHL1  H19B 3890   6.855   6.187   6.189  1.1986 -1.7709  3.0728
   53CHL1  H19C 3891   6.770   6.192   6.345 -0.5420  0.2009  0.8281
   53CHL1    C1 3892   6.574   6.221   6.060  0.3577  0.0479 -0.3473
   53CHL1   H1A 3893   6.532   6.121   6.083  1.6444 -0.2390  0.9195
   53CHL1   H1B 3894   6.485   6.281   6.032 -1.6050 -0.7321  3.5293
   53CHL1    C2 3895   6.657   6.192   5.930  0.2431 -0.0602 -0.1067
   53CHL1   H2A 3896   6.590   6.147   5.855 -1.8988  1.2017  0.9373
   53CHL1   H2B 3897   6.743   6.124   5.944 -0.1484 -1.5980 -3.9924
   53CHL1   C20 3898   6.355   6.298   6.806  0.2049 -0.3375  0.0323
   53CHL1   H20 3899   6.447   6.265   6.859  0.7473  0.7231 -0.2129
   53CHL1   C21 3900   6.278   6.174   6.762  0.2711 -0.1973  0.2108
   53CHL1  H21A 3901   6.190   6.198   6.699 -0.1758 -1.3134  0.3969
   53CHL1  H21B 3902   6.230   6.132   6.853 -1.6929  0.8757 -0.2505
   53CHL1  H21C 3903   6.339   6.101   6.706 -1.5391 -0.2866 -1.7938
   53CHL1   C22 3904   6.281   6.384   6.914 -0.2028  0.0815  0.1913
   53CHL1  H22A 3905   6.320   6.488   6.922 -2.1472  1.0793 -2.1485
   53CHL1  H22B 3906   6.180   6.414   6.880  0.0374  2.2922  1.2363
   53CHL1   C23 3907   6.259   6.334   7.056  0.8170 -0.6422  0.5160
   53CHL1  H23A 3908   6.195   6.414   7.099  1.9885  0.9028 -0.4872
   53CHL1  H23B 3909   6.209   6.235   7.063 -1.3914  0.5245  2.6362
   53CHL1   C24 3910   6.390   6.325   7.140  0.2126  0.0998  0.1635
   53CHL1  H24A 3911   6.441   6.240   7.090 -0.6447  0.1016 -0.7507
   53CHL1  H24B 3912   6.447   6.419   7.126 -0.2660  0.3325 -0.2771
   53CHL1   C25 3913   6.365   6.284   7.283 -0.4746 -0.5275 -0.4980
   53CHL1   H25 3914   6.288   6.203   7.282 -1.2961  0.2168  0.2269
   53CHL1   C26 3915   6.501   6.235   7.348  1.0738  0.1011  0.4329
   53CHL1  H26A 3916   6.560   6.329   7.354 -0.4613  1.2568 -1.2439
   53CHL1  H26B 3917   6.484   6.193   7.449 -0.7839  0.4588  0.3064
   53CHL1  H26C 3918   6.539   6.155   7.281  1.4405 -0.7670  1.6602
   53CHL1   C27 3919   6.318   6.401   7.367  0.1732 -0.3589  0.2257
   53CHL1  H27A 3920   6.220   6.432   7.326 -0.0367 -2.2005 -0.7579
   53CHL1  H27B 3921   6.295   6.371   7.472 -0.7589 -0.2273  0.0701
   53CHL1  H27C 3922   6.384   6.490   7.372 -0.8810  0.4383  0.3225
   54CHL1    C3 3923   0.793   6.321   6.047  0.1975  0.4073 -0.3772
   54CHL1    H3 3924   0.686   6.312   6.079  0.4512 -0.9095  0.2040
   54CHL1    O3 3925   0.786   6.381   5.920 -0.2005  1.0946 -0.3244
   54CHL1   H3' 3926   0.733   6.459   5.938 -0.8533  0.5762  0.0654
   54CHL1    C4 3927   0.864   6.423   6.144 -0.8302  0.6952  0.2985
   54CHL1   H4A 3928   0.956   6.459   6.093 -1.2301  0.5619 -0.5339
   54CHL1   H4B 3929   0.792   6.507   6.153  0.6242  2.0183 -0.0370
   54CHL1    C5 3930   0.889   6.358   6.278  0.3989 -0.4360  0.3272
   54CHL1    C6 3931   0.826   6.398   6.389  0.1872  0.2888  1.1301
   54CHL1    H6 3932   0.767   6.489   6.377  0.1635 -0.0422 -2.9412
   54CHL1    C7 3933   0.857   6.342   6.515  0.5242  0.0214  0.4256
   54CHL1   H7A 3934   0.860   6.421   6.593  0.3833 -0.3104  0.7703
   54CHL1   H7B 3935   0.767   6.282   6.541 -0.8333  2.3808  1.4788
   54CHL1    C8 3936   0.986   6.257   6.516 -0.0535  0.4086  0.0895
   54CHL1    H8 3937   1.072   6.325   6.500 -0.2965  0.4927 -0.9372
   54CHL1   C14 3938   0.988   6.175   6.647 -0.2632 -0.5501 -0.5871
   54CHL1   H14 3939   0.890   6.124   6.659 -0.4567 -0.2170 -0.7435
   54CHL1   C15 3940   0.996   6.256   6.777 -0.3926 -0.5913 -0.5673
   54CHL1  H15A 3941   1.065   6.344   6.770 -0.8118 -0.2421 -0.3681
   54CHL1  H15B 3942   0.900   6.288   6.822 -0.1666 -1.2943  0.4513
   54CHL1   C16 3943   1.062   6.160   6.878  0.0914 -0.3589 -0.1916
   54CHL1  H16A 3944   1.152   6.206   6.924 -0.5106  0.1174  0.5233
   54CHL1  H16B 3945   0.982   6.151   6.954 -0.8306  3.8601 -0.3894
   54CHL1   C17 3946   1.087   6.030   6.808 -0.1772  0.5716  0.0795
   54CHL1   H17 3947   0.986   5.982   6.803 -0.2490  0.6768  0.5419
   54CHL1   C13 3948   1.104   6.074   6.659 -0.5351  0.2718 -1.3131
   54CHL1   C18 3949   1.242   6.148   6.656 -0.3007 -0.1404 -0.2515
   54CHL1  H18A 3950   1.268   6.203   6.749 -0.8084  1.0710 -0.7932
   54CHL1  H18B 3951   1.318   6.070   6.636 -2.4965 -2.5372  0.1088
   54CHL1  H18C 3952   1.249   6.217   6.569 -0.1694 -2.8912 -2.5705
   54CHL1   C12 3953   1.104   5.975   6.548  0.0569  0.6468 -0.1076
   54CHL1  H12A 3954   1.197   5.914   6.555  0.5748  1.3936 -0.3173
   54CHL1  H12B 3955   1.009   5.918   6.546  0.9464 -0.9285  0.7692
   54CHL1   C11 3956   1.106   6.052   6.417  0.6943 -0.5889 -0.4007
   54CHL1  H11A 3957   1.209   6.092   6.404 -0.0102  0.6524 -2.6733
   54CHL1  H11B 3958   1.093   5.987   6.327  0.1115 -0.0727 -0.6969
   54CHL1    C9 3959   0.993   6.163   6.400 -0.2797  0.4079  0.3053
   54CHL1    H9 3960   0.900   6.103   6.406 -1.4810  2.1348 -0.1300
   54CHL1   C10 3961   0.990   6.235   6.269 -0.1104  0.2063 -0.0197
   54CHL1   C19 3962   1.133   6.281   6.217 -0.7038 -0.0943  0.3038
   54CHL1  H19A 3963   1.180   6.365   6.272  0.9085  0.1815 -1.3990
   54CHL1  H19B 3964   1.208   6.201   6.233 -1.0808 -0.1478  1.9240
   54CHL1  H19C 3965   1.131   6.319   6.112  3.3745  2.7125  0.9903
   54CHL1    C1 3966   0.917   6.132   6.170  0.0438  0.0652  0.5063
   54CHL1   H1A 3967   0.979   6.041   6.157 -1.2603 -0.5148 -2.5846
   54CHL1   H1B 3968   0.818   6.101   6.210  0.4945 -0.9102  0.8907
   54CHL1    C2 3969   0.874   6.193   6.036 -0.4350 -0.3340  0.1317
   54CHL1   H2A 3970   0.826   6.117   5.970 -2.3904 -0.4459  1.6084
   54CHL1   H2B 3971   0.971   6.227   5.995 -0.1643  1.8990  2.3735
   54CHL1   C20 3972   1.198   5.939   6.875 -0.2791  0.0881 -0.3518
   54CHL1   H20 3973   1.293   5.955   6.820  0.5232 -1.2919  0.5571
   54CHL1   C21 3974   1.164   5.787   6.849  0.1969 -0.0618 -0.4741
   54CHL1  H21A 3975   1.075   5.764   6.911  0.8619  0.5416  0.7317
   54CHL1  H21B 3976   1.251   5.718   6.858  0.9690  1.0332  0.9925
   54CHL1  H21C 3977   1.138   5.774   6.742  1.5224 -1.3070 -0.6824
   54CHL1   C22 3978   1.233   5.976   7.021 -0.6527  0.8634  0.2541
   54CHL1  H22A 3979   1.290   6.072   7.017  0.8440 -0.0092 -0.2529
   54CHL1  H22B 3980   1.135   5.981   7.073 -2.5477 -3.4865 -2.3228
   54CHL1   C23 3981   1.332   5.878   7.093 -0.0752  0.0161 -0.0858
   54CHL1  H23A 3982   1.291   5.775   7.100 -0.0951  0.1047  1.3900
   54CHL1  H23B 3983   1.427   5.871   7.037 -1.0838 -0.2538 -1.8342
   54CHL1   C24 3984   1.361   5.932   7.237  0.1152 -0.3912  0.1814
   54CHL1  H24A 3985   1.413   6.029   7.224  0.1582 -0.6010 -1.4942
   54CHL1  H24B 3986   1.271   5.953   7.298 -0.7155 -0.5059 -0.9758
   54CHL1   C25 3987   1.451   5.843   7.320 -0.4347 -0.2022 -0.2190
   54CHL1   H25 3988   1.550   5.831   7.271  0.7571  2.3507  1.3060
   54CHL1   C26 3989   1.493   5.900   7.460  0.1044  0.2653 -0.3274
   54CHL1  H26A 3990   1.405   5.914   7.526 -0.6078 -1.2873 -0.8815
   54CHL1  H26B 3991   1.563   5.833   7.515  1.1203  1.2005 -0.4487
   54CHL1  H26C 3992   1.560   5.986   7.436 -2.1137  1.8923 -1.0241
   54CHL1   C27 3993   1.396   5.701   7.334 -0.0440 -0.0025 -0.8102
   54CHL1  H27A 3994   1.407   5.641   7.242  0.1210 -1.5516  0.1919
   54CHL1  H27B 3995   1.449   5.636   7.407 -1.3928 -0.1551  0.0751
   54CHL1  H27C 3996   1.287   5.697   7.356 -0.0051  1.5353 -0.2151
   55CHL1    C3 3997   0.366   1.751   5.919 -0.4878 -0.0569  0.7681
   55CHL1    H3 3998   0.266   1.704   5.905  0.0272 -0.7132 -1.0900
   55CHL1    O3 3999   0.428   1.759   5.793  0.0491  0.0656  0.4234
   55CHL1   H3' 4000   0.380   1.687   5.752 -1.3487 -0.0635  2.1517
   55CHL1    C4 4001   0.358   1.890   5.993  0.4724 -0.5243  0.3075
   55CHL1   H4A 4002   0.459   1.937   5.988 -0.7229  2.2469  0.8120
   55CHL1   H4B 4003   0.294   1.963   5.940  0.0323 -2.3582 -1.8777
   55CHL1    C5 4004   0.319   1.872   6.136 -0.1302 -0.1046  0.0692
   55CHL1    C6 4005   0.213   1.931   6.180  0.5570 -0.2873  0.6805
   55CHL1    H6 4006   0.153   1.994   6.112  0.0230 -0.7460  0.7182
   55CHL1    C7 4007   0.178   1.944   6.325  0.1802 -0.2183 -0.9011
   55CHL1   H7A 4008   0.157   2.048   6.358 -0.9193 -0.6724 -0.1019
   55CHL1   H7B 4009   0.083   1.891   6.350  0.6489  0.6585  3.3482
   55CHL1    C8 4010   0.294   1.898   6.424  0.2381 -0.2113  0.0112
   55CHL1    H8 4011   0.378   1.970   6.430  0.6686 -0.6654 -0.4603
   55CHL1   C14 4012   0.231   1.864   6.560  0.3713  0.0629 -0.0404
   55CHL1   H14 4013   0.158   1.783   6.541 -1.8799  2.1281 -0.6429
   55CHL1   C15 4014   0.141   1.978   6.621 -0.2128 -0.1407  0.9042
   55CHL1  H15A 4015   0.207   2.066   6.638  0.1277  0.0334 -1.0822
   55CHL1  H15B 4016   0.052   1.999   6.557 -2.9212 -2.5002  3.6003
   55CHL1   C16 4017   0.099   1.918   6.751  0.1553 -0.2121 -0.5978
   55CHL1  H16A 4018   0.080   1.998   6.826 -2.4624 -1.2021 -0.0927
   55CHL1  H16B 4019   0.001   1.867   6.744 -0.1634  0.1836  0.6330
   55CHL1   C17 4020   0.200   1.803   6.790 -0.0674  0.0667 -0.3558
   55CHL1   H17 4021   0.147   1.708   6.767 -0.8464 -0.4340  2.9747
   55CHL1   C13 4022   0.310   1.818   6.675  0.5312 -0.1634 -0.1101
   55CHL1   C18 4023   0.417   1.922   6.716  0.4352  0.0465 -0.2612
   55CHL1  H18A 4024   0.490   1.881   6.790 -0.0260 -0.8041 -0.2594
   55CHL1  H18B 4025   0.475   1.959   6.629  0.3355  0.9304  0.0387
   55CHL1  H18C 4026   0.384   2.015   6.766 -0.9699 -0.4930 -0.1263
   55CHL1   C12 4027   0.384   1.681   6.621 -0.2749 -0.4263  0.2849
   55CHL1  H12A 4028   0.464   1.644   6.689 -0.1946 -0.1545  0.3404
   55CHL1  H12B 4029   0.316   1.595   6.606 -0.1566 -0.5357  0.3710
   55CHL1   C11 4030   0.443   1.703   6.477 -0.0860  0.2498  0.5388
   55CHL1  H11A 4031   0.523   1.778   6.495 -0.5829  0.3386  2.5424
   55CHL1  H11B 4032   0.487   1.608   6.439  0.4450 -0.7802  3.4856
   55CHL1    C9 4033   0.347   1.764   6.370 -0.9561  0.4987 -0.8618
   55CHL1    H9 4034   0.257   1.699   6.360 -1.8140  1.2464  1.2817
   55CHL1   C10 4035   0.409   1.778   6.225  0.6406 -0.6335  0.5330
   55CHL1   C19 4036   0.547   1.840   6.229  0.1998  1.0517  0.0401
   55CHL1  H19A 4037   0.606   1.863   6.138  0.2754  2.2418  0.3739
   55CHL1  H19B 4038   0.563   1.927   6.297  2.4866 -0.7232  1.9402
   55CHL1  H19C 4039   0.617   1.771   6.280 -1.3840 -1.5568 -1.1254
   55CHL1    C1 4040   0.412   1.646   6.153 -0.5136  0.2335  0.1983
   55CHL1   H1A 4041   0.476   1.578   6.213 -1.4554 -0.2553  0.6765
   55CHL1   H1B 4042   0.312   1.597   6.159 -0.4305 -0.1713 -1.2699
   55CHL1    C2 4043   0.452   1.654   6.002 -0.2310 -0.3394 -0.6651
   55CHL1   H2A 4044   0.435   1.557   5.950  0.6010  1.0129 -3.6992
   55CHL1   H2B 4045   0.560   1.672   5.985  0.1458 -3.4821 -2.3901
   55CHL1   C20 4046   0.238   1.808   6.933 -0.2259  0.2261 -0.5768
   55CHL1   H20 4047   0.307   1.893   6.954  2.7344 -1.9234 -0.9994
   55CHL1   C21 4048   0.324   1.679   6.967 -0.6549 -0.2412  0.3364
   55CHL1  H21A 4049   0.413   1.684   6.902  1.8042 -1.7123  3.3060
   55CHL1  H21B 4050   0.275   1.582   6.945 -0.8039  0.4193 -2.6382
   55CHL1  H21C 4051   0.346   1.677   7.076  0.8686 -3.7647  0.0928
   55CHL1   C22 4052   0.113   1.819   7.032  0.3475 -0.1193  0.8851
   55CHL1  H22A 4053   0.065   1.918   7.014 -0.7444 -0.8301 -0.3039
   55CHL1  H22B 4054   0.041   1.739   7.005 -0.3038  0.3290  1.2592
   55CHL1   C23 4055   0.145   1.809   7.182 -0.7149 -0.0611  0.2941
   55CHL1  H23A 4056   0.157   1.700   7.199  2.4926  0.1539 -0.0683
   55CHL1  H23B 4057   0.234   1.861   7.222 -0.9159 -1.0391  2.1164
   55CHL1   C24 4058   0.029   1.850   7.277 -0.1922 -0.4120  0.8095
   55CHL1  H24A 4059  -0.003   1.956   7.273 -0.8795 -0.5422  2.2493
   55CHL1  H24B 4060  -0.052   1.778   7.251  1.5710 -1.4493 -2.2760
   55CHL1   C25 4061   0.061   1.818   7.425  0.7402 -0.3296  0.2027
   55CHL1   H25 4062   0.082   1.710   7.440  0.4789 -0.2698  1.0705
   55CHL1   C26 4063   0.189   1.885   7.474  0.1323 -0.5101 -0.2557
   55CHL1  H26A 4064   0.192   1.986   7.427  0.0956 -0.7935 -0.8804
   55CHL1  H26B 4065   0.180   1.903   7.583  0.3146 -0.2759 -0.2780
   55CHL1  H26C 4066   0.281   1.827   7.453 -0.7003 -1.7799 -0.5385
   55CHL1   C27 4067  -0.062   1.849   7.517 -0.2178 -0.3570  0.2968
   55CHL1  H27A 4068  -0.144   1.781   7.485 -0.4837  0.5102 -0.9347
   55CHL1  H27B 4069  -0.035   1.824   7.622  1.0442  1.8016  0.5471
   55CHL1  H27C 4070  -0.088   1.957   7.508 -0.2101 -0.3491  0.3735
   56CHL1    C3 4071   0.329   0.395   5.955  0.1582  0.0203  0.4284
   56CHL1    H3 4072   0.222   0.407   5.926  0.3430  0.3083 -0.1351
   56CHL1    O3 4073   0.416   0.414   5.844  0.3528 -0.3832  0.6743
   56CHL1   H3' 4074   0.502   0.405   5.884  0.9076  0.3509 -0.3098
   56CHL1    C4 4075   0.363   0.490   6.066  0.1991  0.1885  0.1471
   56CHL1   H4A 4076   0.469   0.462   6.088  0.5819  1.2966 -0.2242
   56CHL1   H4B 4077   0.355   0.592   6.024 -0.6611 -0.2406 -0.7571
   56CHL1    C5 4078   0.282   0.484   6.196  0.4935  0.1243 -0.0222
   56CHL1    C6 4079   0.223   0.592   6.250 -0.0268  0.6853 -0.6655
   56CHL1    H6 4080   0.246   0.694   6.217 -0.1646  1.0192  0.2500
   56CHL1    C7 4081   0.137   0.580   6.376  0.1055 -0.0080 -0.2132
   56CHL1   H7A 4082   0.137   0.661   6.452 -0.0948 -0.9283  0.7801
   56CHL1   H7B 4083   0.034   0.578   6.335 -1.0932  0.1326  2.5978
   56CHL1    C8 4084   0.148   0.443   6.451 -0.4381 -0.5516 -0.2581
   56CHL1    H8 4085   0.243   0.444   6.509  0.8054 -0.4792 -2.2129
   56CHL1   C14 4086   0.030   0.426   6.542  0.4350 -0.7228  0.0548
   56CHL1   H14 4087  -0.062   0.425   6.481  0.7136  0.3326 -0.3944
   56CHL1   C15 4088  -0.006   0.534   6.650  0.2087  0.3517 -0.6935
   56CHL1  H15A 4089   0.092   0.568   6.688  0.2868 -0.7002  0.0573
   56CHL1  H15B 4090  -0.059   0.616   6.597  0.1889 -0.3186 -1.7442
   56CHL1   C16 4091  -0.094   0.456   6.752  0.3115  0.2915 -0.3521
   56CHL1  H16A 4092  -0.030   0.461   6.843  4.3494 -1.1602 -2.8329
   56CHL1  H16B 4093  -0.195   0.500   6.760  1.0145  1.9568 -0.2788
   56CHL1   C17 4094  -0.095   0.311   6.702 -0.1292  0.2955 -0.2506
   56CHL1   H17 4095  -0.175   0.304   6.625 -0.5015 -1.0386  0.2260
   56CHL1   C13 4096   0.038   0.301   6.629  0.9226 -0.4758  1.0236
   56CHL1   C18 4097   0.166   0.291   6.713  0.3080  0.2500 -0.2070
   56CHL1  H18A 4098   0.159   0.204   6.782 -0.4584  0.9371  0.6201
   56CHL1  H18B 4099   0.257   0.289   6.650 -0.4540 -0.5082 -1.3273
   56CHL1  H18C 4100   0.175   0.377   6.783  0.3095 -0.5966  0.8727
   56CHL1   C12 4101   0.032   0.180   6.531  0.7975 -0.6809  0.3009
   56CHL1  H12A 4102   0.051   0.093   6.597  0.2169  0.1728  1.6426
   56CHL1  H12B 4103  -0.067   0.174   6.480  1.0626 -1.4820 -0.1203
   56CHL1   C11 4104   0.142   0.188   6.421  0.2020 -0.1890 -0.1853
   56CHL1  H11A 4105   0.237   0.167   6.474 -0.7106 -0.4360  1.4203
   56CHL1  H11B 4106   0.116   0.122   6.336 -0.8360 -1.3980  1.0189
   56CHL1    C9 4107   0.156   0.327   6.357  0.0832  0.2046 -0.2171
   56CHL1    H9 4108   0.067   0.354   6.296  2.4430  2.0494 -3.1217
   56CHL1   C10 4109   0.268   0.340   6.251  0.0976  0.0604 -0.5203
   56CHL1   C19 4110   0.398   0.307   6.319  0.0750  0.2152  0.0947
   56CHL1  H19A 4111   0.410   0.367   6.411 -0.4730 -1.4565  1.3169
   56CHL1  H19B 4112   0.387   0.199   6.345 -1.1891  0.1601 -0.6013
   56CHL1  H19C 4113   0.497   0.305   6.269  0.8719 -1.3902  1.6245
   56CHL1    C1 4114   0.245   0.243   6.134  0.2351  0.4075 -0.9104
   56CHL1   H1A 4115   0.256   0.142   6.179  0.9783  0.0182 -1.9351
   56CHL1   H1B 4116   0.143   0.262   6.092  0.3984  2.3095 -0.5632
   56CHL1    C2 4117   0.336   0.254   6.014  0.1811 -0.3181  0.2337
   56CHL1   H2A 4118   0.308   0.177   5.939  0.7205  0.5110 -0.8620
   56CHL1   H2B 4119   0.438   0.230   6.051  0.6664  1.9592  0.5594
   56CHL1   C20 4120  -0.123   0.202   6.815  0.6549  0.5258  0.5024
   56CHL1   H20 4121  -0.091   0.104   6.772 -0.8598  1.3704 -2.9373
   56CHL1   C21 4122  -0.280   0.198   6.830 -0.0236  0.2047 -0.0427
   56CHL1  H21A 4123  -0.314   0.286   6.889  0.6082 -0.1637  0.8991
   56CHL1  H21B 4124  -0.307   0.110   6.893  1.5306  0.6437  1.3041
   56CHL1  H21C 4125  -0.332   0.183   6.733 -0.4075  0.1892  0.1639
   56CHL1   C22 4126  -0.047   0.229   6.954 -0.1496  0.4238  0.0945
   56CHL1  H22A 4127   0.053   0.275   6.941  0.4565 -0.5925  1.0316
   56CHL1  H22B 4128  -0.120   0.286   7.016 -0.7870 -1.9010  1.6045
   56CHL1   C23 4129  -0.013   0.091   7.022 -0.4362 -0.5277  0.4502
   56CHL1  H23A 4130  -0.108   0.037   7.044 -0.2346 -0.9800  0.2314
   56CHL1  H23B 4131   0.032   0.023   6.947 -2.0386 -0.9832 -0.1514
   56CHL1   C24 4132   0.065   0.113   7.153  0.1635  0.5334 -0.9738
   56CHL1  H24A 4133   0.167   0.146   7.123 -0.4054  1.5469 -1.8772
   56CHL1  H24B 4134   0.021   0.191   7.219 -0.5737 -0.7946  0.1533
   56CHL1   C25 4135   0.094  -0.009   7.244 -0.6858  0.4997 -0.1533
   56CHL1   H25 4136   0.150  -0.084   7.185  0.3658  2.8110 -2.2939
   56CHL1   C26 4137   0.172   0.030   7.363 -0.1664  0.2329  0.0410
   56CHL1  H26A 4138   0.279   0.054   7.341  0.1483  0.0359  1.2503
   56CHL1  H26B 4139   0.167  -0.040   7.449 -0.1405  0.3952  0.1766
   56CHL1  H26C 4140   0.132   0.128   7.397  1.6391  0.9191  0.3478
   56CHL1   C27 4141  -0.031  -0.079   7.295  0.3989  0.6788 -0.2368
   56CHL1  H27A 4142   0.003  -0.159   7.365 -1.0592 -0.1714 -0.4552
   56CHL1  H27B 4143  -0.100  -0.012   7.351  0.4190  0.4402  0.0751
   56CHL1  H27C 4144  -0.089  -0.137   7.220  0.5445  2.3760 -1.7259
   57SAPC     N 4145   3.001   2.884   9.697  0.9762 -0.2992  0.6316
   57SAPC   C12 4146   2.935   2.974   9.592  0.4091  0.3736  0.4798
   57SAPC  H12A 4147   2.937   2.909   9.505 -0.8285  0.3222  0.4777
   57SAPC  H12B 4148   3.004   3.054   9.571  3.6460 -2.3310 -0.0754
   57SAPC   C13 4149   3.011   2.956   9.823  0.3543  0.3048  0.2769
   57SAPC  H13A 4150   3.061   2.895   9.897  1.4914 -1.4724 -1.8285
   57SAPC  H13B 4151   3.067   3.046   9.803  1.1149 -0.4133 -0.9689
   57SAPC  H13C 4152   2.912   2.987   9.852  0.0834 -0.1716 -0.1154
   57SAPC   C14 4153   2.930   2.752   9.706  0.3341 -1.1734 -0.0448
   57SAPC  H14A 4154   2.960   2.685   9.785 -0.8359 -0.6548  0.8645
   57SAPC  H14B 4155   2.827   2.770   9.730  0.6969 -2.1366  2.4682
   57SAPC  H14C 4156   2.929   2.698   9.613 -4.3696 -0.3617 -0.7168
   57SAPC   C15 4157   3.146   2.858   9.658  0.7607 -1.0895  0.3154
   57SAPC  H15A 4158   3.202   2.951   9.665  2.0022 -1.9047  2.0744
   57SAPC  H15B 4159   3.183   2.780   9.723  0.3954  0.8491  3.0539
   57SAPC  H15C 4160   3.156   2.828   9.555  0.6747  0.0305 -0.0292
   57SAPC   C11 4161   2.787   3.014   9.618  0.0637 -0.6801 -0.3716
   57SAPC  H11A 4162   2.728   2.922   9.637 -3.1141  1.1768 -0.5347
   57SAPC  H11B 4163   2.739   3.067   9.533 -0.5924 -0.5457  0.0762
   57SAPC     P 4164   2.816   3.254   9.727 -0.1901 -0.2362  0.1605
   57SAPC   O13 4165   2.698   3.326   9.666 -0.5375  0.4837 -0.0427
   57SAPC   O14 4166   2.853   3.300   9.864  0.2589 -0.1861  0.3739
   57SAPC   O12 4167   2.780   3.094   9.739  0.2465 -0.4136 -0.0448
   57SAPC   O11 4168   2.938   3.253   9.629  0.3211  0.2124 -0.2744
   57SAPC    C1 4169   2.931   3.305   9.495 -0.0905  0.1956 -0.1191
   57SAPC    HA 4170   3.018   3.272   9.433  1.5659  3.2823  0.3886
   57SAPC    HB 4171   2.834   3.279   9.446 -0.1614  1.1246 -0.4915
   57SAPC    C2 4172   2.943   3.459   9.494  0.0789 -0.3792 -0.2180
   57SAPC    HS 4173   2.856   3.488   9.556  1.2321 -1.6782  2.1286
   57SAPC   O21 4174   2.934   3.515   9.358  0.1285  0.4353  0.1694
   57SAPC   C21 4175   2.926   3.647   9.350 -0.2899  0.2650  0.2864
   57SAPC   O22 4176   2.895   3.723   9.437  0.3512 -0.7154 -0.0917
   57SAPC   C22 4177   2.970   3.693   9.212 -0.6404 -0.5054 -0.4392
   57SAPC   H2R 4178   3.078   3.673   9.203 -0.0978  1.3348  1.1850
   57SAPC   H2S 4179   2.915   3.630   9.139 -0.5979 -1.5107  0.3718
   57SAPC    C3 4180   3.066   3.502   9.582 -0.1211  0.4563  0.5226
   57SAPC    HX 4181   3.058   3.440   9.674 -0.9214 -2.0399 -1.1271
   57SAPC    HY 4182   3.068   3.609   9.612  1.6934  1.2951 -2.1946
   57SAPC   O31 4183   3.194   3.463   9.521 -0.3406  0.2284 -0.0352
   57SAPC   C31 4184   3.246   3.555   9.446 -1.3268 -0.8994  0.9116
   57SAPC   O32 4185   3.212   3.671   9.433  1.1592 -1.0076  0.2482
   57SAPC   C32 4186   3.349   3.488   9.360 -0.3815 -0.1556  0.4685
   57SAPC   H2X 4187   3.408   3.418   9.423 -2.1373  1.1813  3.8086
   57SAPC   H2Y 4188   3.411   3.566   9.312 -1.3925 -0.3255 -1.1880
   57SAPC   C23 4189   2.942   3.835   9.156  0.8564  0.6009 -0.1593
   57SAPC   H3R 4190   3.003   3.914   9.204  2.6323 -0.8774  0.1270
   57SAPC   H3S 4191   2.833   3.854   9.169  0.4060 -2.1370  0.7935
   57SAPC   C24 4192   2.964   3.848   8.999 -0.1432 -0.2570  0.0959
   57SAPC   H4R 4193   2.936   3.944   8.953  1.2648  0.6186  0.9722
   57SAPC   H4S 4194   2.898   3.771   8.956  0.3174 -1.4592  1.4358
   57SAPC   C25 4195   3.106   3.820   8.961 -0.4735  0.3865  0.2396
   57SAPC   H5R 4196   3.176   3.903   8.976  0.0532  0.3074 -1.5718
   57SAPC   C26 4197   3.149   3.702   8.918 -0.2277  0.7942  0.3835
   57SAPC   H6R 4198   3.258   3.691   8.907 -0.0905  2.2921  0.1209
   57SAPC   C27 4199   3.081   3.573   8.901  0.0070 -0.4412  0.1231
   57SAPC   H7R 4200   2.981   3.600   8.860  0.7507  0.0976 -1.4339
   57SAPC   H7S 4201   3.066   3.523   8.998  0.8452 -4.6210 -1.6893
   57SAPC   C28 4202   3.160   3.474   8.820  0.1882  0.1309  0.8797
   57SAPC   H8R 4203   3.252   3.443   8.872  0.8567  0.9257  0.2100
   57SAPC   C29 4204   3.110   3.408   8.709  0.2578  0.0259 -0.2614
   57SAPC   H9R 4205   3.163   3.326   8.659  1.0380 -0.9468  1.9947
   57SAPC  C210 4206   2.975   3.423   8.641 -0.0774 -0.1277 -0.2642
   57SAPC  H10R 4207   2.916   3.504   8.689  1.7080  0.4331  1.1000
   57SAPC  H10S 4208   2.931   3.325   8.666 -1.5577  0.1730 -1.5577
   57SAPC  C211 4209   2.984   3.457   8.497  0.5528 -0.0107  0.2578
   57SAPC  H11R 4210   3.027   3.553   8.463  0.7560 -0.1791  0.0343
   57SAPC  C212 4211   2.944   3.371   8.402  0.0675  0.4122 -0.7283
   57SAPC  H12R 4212   2.942   3.404   8.296  1.6648  0.6363 -0.7158
   57SAPC  C213 4213   2.874   3.237   8.426 -0.1113  0.3751 -0.2764
   57SAPC  H13R 4214   2.789   3.242   8.497 -1.0087 -0.5684 -1.2448
   57SAPC  H13S 4215   2.959   3.172   8.455 -0.7583  0.1248  1.1150
   57SAPC  C214 4216   2.815   3.198   8.292  0.0880  0.3241  0.3145
   57SAPC  H14R 4217   2.716   3.243   8.274 -1.0501 -1.6009  1.3923
   57SAPC  C215 4218   2.851   3.107   8.203  0.2838  0.2543 -0.2611
   57SAPC  H15R 4219   2.783   3.083   8.119 -0.6018 -0.4511  0.6308
   57SAPC  C216 4220   2.966   3.011   8.211 -0.2181  0.5088  0.1069
   57SAPC  H16R 4221   2.915   2.913   8.216 -0.9825  0.9349  1.3294
   57SAPC  H16S 4222   3.031   3.032   8.299  0.0289 -0.1613  0.0867
   57SAPC  C217 4223   3.056   2.996   8.083  1.0323 -0.5284 -1.2121
   57SAPC  H17R 4224   3.114   3.088   8.058  1.8477 -0.3508  1.0697
   57SAPC  H17S 4225   2.980   2.972   8.006 -2.0757 -2.0560  2.0460
   57SAPC  C218 4226   3.158   2.881   8.089  0.0566  0.1068  0.3842
   57SAPC  H18R 4227   3.110   2.782   8.103 -0.4900  0.1343 -1.1337
   57SAPC  H18S 4228   3.208   2.902   8.186  0.1932 -0.7900  0.5133
   57SAPC  C219 4229   3.243   2.884   7.967 -0.0039 -0.1028 -1.2109
   57SAPC  H19R 4230   3.311   2.972   7.974 -0.2018 -0.0497  0.3264
   57SAPC  H19S 4231   3.181   2.900   7.876  0.0354  1.6336 -0.9626
   57SAPC  C220 4232   3.328   2.754   7.961  0.0866  0.0186  0.7234
   57SAPC  H20R 4233   3.380   2.756   7.863 -4.9680  1.1091 -2.2924
   57SAPC  H20S 4234   3.253   2.672   7.965  0.2719 -0.1358  1.0841
   57SAPC  H20T 4235   3.395   2.741   8.048  0.9854  0.5197  0.1214
   57SAPC   C33 4236   3.288   3.415   9.236  0.6923  0.4297 -0.3096
   57SAPC   H3X 4237   3.214   3.482   9.188  1.7596 -0.9478 -4.2520
   57SAPC   H3Y 4238   3.225   3.328   9.264  0.5940  1.0067  1.3741
   57SAPC   C34 4239   3.385   3.387   9.121  0.1353  0.6472 -0.4930
   57SAPC   H4X 4240   3.434   3.478   9.081 -1.5880  2.0799  0.5050
   57SAPC   H4Y 4241   3.316   3.341   9.046 -2.4576  0.1861  1.9830
   57SAPC   C35 4242   3.486   3.287   9.168 -0.8911  0.4035 -0.3863
   57SAPC   H5X 4243   3.487   3.279   9.279  0.5007 -1.3279 -0.4902
   57SAPC   H5Y 4244   3.586   3.329   9.142 -0.4790 -1.0441 -1.2481
   57SAPC   C36 4245   3.476   3.148   9.099  0.3852  0.2387 -0.1321
   57SAPC   H6X 4246   3.369   3.123   9.116 -0.7094  2.5692 -2.6457
   57SAPC   H6Y 4247   3.533   3.074   9.158 -1.9020 -0.4334  1.3672
   57SAPC   C37 4248   3.514   3.143   8.948  0.4295  0.4021  0.8503
   57SAPC   H7X 4249   3.452   3.217   8.892  0.5848  1.9273  2.6141
   57SAPC   H7Y 4250   3.485   3.043   8.911  0.5404  0.6341  0.1088
   57SAPC   C38 4251   3.657   3.173   8.918 -0.5322  0.1462 -0.2800
   57SAPC   H8X 4252   3.722   3.097   8.964  1.0389  1.1822 -0.7099
   57SAPC   H8Y 4253   3.689   3.265   8.971 -1.2400 -0.3594  1.0774
   57SAPC   C39 4254   3.695   3.183   8.771  0.0126 -0.1542  0.6528
   57SAPC   H9X 4255   3.611   3.234   8.720  0.6794 -0.4951 -0.8459
   57SAPC   H9Y 4256   3.710   3.086   8.719  1.3929 -0.4527  1.5417
   57SAPC  C310 4257   3.821   3.278   8.748 -0.2111 -0.3270 -0.6593
   57SAPC  H10X 4258   3.916   3.237   8.787 -1.1115 -1.5383  0.3565
   57SAPC  H10Y 4259   3.797   3.357   8.822 -0.8947 -1.0001 -0.1428
   57SAPC  C311 4260   3.844   3.322   8.607  0.0342  0.4267 -0.3974
   57SAPC  H11X 4261   3.902   3.416   8.600  0.0918  0.4161 -0.0754
   57SAPC  H11Y 4262   3.749   3.343   8.554 -0.2780  0.8825  0.3290
   57SAPC  C312 4263   3.919   3.203   8.538 -0.1228  0.0299 -0.5096
   57SAPC  H12X 4264   3.846   3.121   8.525  0.5601 -0.7796  0.6252
   57SAPC  H12Y 4265   3.997   3.175   8.611 -0.3717  0.9898  0.1495
   57SAPC  C313 4266   4.003   3.241   8.409 -0.2555 -0.1255  0.6294
   57SAPC  H13X 4267   4.071   3.318   8.449  0.7014 -0.6326  0.0132
   57SAPC  H13Y 4268   3.935   3.294   8.338 -0.6547  0.6227  1.5420
   57SAPC  C314 4269   4.074   3.122   8.355 -0.3224  0.3460  0.1336
   57SAPC  H14X 4270   4.122   3.063   8.436  1.9978  2.0692  0.1118
   57SAPC  H14Y 4271   4.159   3.156   8.291 -1.2896 -0.7819 -1.8477
   57SAPC  C315 4272   3.985   3.041   8.267  0.3086  0.0222  0.3662
   57SAPC  H15X 4273   3.932   3.092   8.184  1.5083 -3.0150 -2.4869
   57SAPC  H15Y 4274   3.910   2.989   8.329  0.0979 -0.1580 -0.0343
   57SAPC  C316 4275   4.073   2.929   8.211 -0.4934  0.0176 -0.2006
   57SAPC  H16X 4276   4.017   2.833   8.220  0.6898 -1.1775 -3.6883
   57SAPC  H16Y 4277   4.160   2.923   8.280 -1.3788  2.7627  1.2673
   57SAPC  C317 4278   4.114   2.949   8.070  0.3197  0.1610  0.7870
   57SAPC  H17X 4279   4.038   2.930   7.992 -0.1726  0.5514  1.1639
   57SAPC  H17Y 4280   4.191   2.871   8.054  3.0418  2.2625  2.6062
   57SAPC  C318 4281   4.179   3.084   8.020  0.1786  1.0822 -0.6219
   57SAPC  H18X 4282   4.103   3.161   7.996 -1.7870 -0.4015  0.5040
   57SAPC  H18Y 4283   4.241   3.056   7.932  0.4470  0.6099 -0.2863
   57SAPC  H18Z 4284   4.240   3.129   8.102  3.0472  0.3722 -2.2079
   58SAPC     N 4285   4.713   2.508   9.641  0.5616  0.1613  0.3890
   58SAPC   C12 4286   4.608   2.402   9.696 -0.0334 -0.0278  0.1680
   58SAPC  H12A 4287   4.521   2.396   9.632 -0.8258  2.9381  0.8204
   58SAPC  H12B 4288   4.575   2.431   9.794 -2.3299 -3.1337  0.4837
   58SAPC   C13 4289   4.634   2.630   9.596  0.1042 -0.0505 -0.1279
   58SAPC  H13A 4290   4.555   2.603   9.528  0.3256  0.3182 -0.5287
   58SAPC  H13B 4291   4.601   2.680   9.686 -0.0350  1.3843 -0.9542
   58SAPC  H13C 4292   4.706   2.691   9.544  1.8266 -1.0418  0.9675
   58SAPC   C14 4293   4.810   2.545   9.745  0.1969  0.4447 -0.5533
   58SAPC  H14A 4294   4.767   2.580   9.837  2.2117  1.0048  0.2330
   58SAPC  H14B 4295   4.864   2.459   9.783 -0.5476 -0.0145 -0.5214
   58SAPC  H14C 4296   4.884   2.618   9.716  2.4800 -2.0978 -1.5517
   58SAPC   C15 4297   4.785   2.449   9.522 -0.3541 -0.6452 -0.3042
   58SAPC  H15A 4298   4.706   2.409   9.459  0.9633 -0.9241 -1.8691
   58SAPC  H15B 4299   4.860   2.516   9.482  0.7696 -0.2857  2.2019
   58SAPC  H15C 4300   4.840   2.361   9.553  1.8617  0.8486  0.2436
   58SAPC   C11 4301   4.668   2.262   9.724  0.1990 -0.4088  0.1453
   58SAPC  H11A 4302   4.671   2.239   9.832 -1.2232 -0.2074  0.2476
   58SAPC  H11B 4303   4.771   2.249   9.685  0.6884 -3.5345  2.1215
   58SAPC     P 4304   4.456   2.106   9.703  0.2819 -0.0129 -0.4375
   58SAPC   O13 4305   4.498   2.012   9.810 -0.1652  0.8347 -0.5351
   58SAPC   O14 4306   4.356   2.208   9.742 -0.3357  0.1695 -0.1992
   58SAPC   O12 4307   4.586   2.173   9.647  0.1540  0.1633  0.4010
   58SAPC   O11 4308   4.395   2.028   9.589  0.7904  0.3900 -0.3612
   58SAPC    C1 4309   4.471   2.015   9.466 -0.0704  0.0244  0.5203
   58SAPC    HA 4310   4.478   2.109   9.408 -1.2315 -0.3580 -0.2847
   58SAPC    HB 4311   4.572   1.973   9.485 -0.4416 -0.8809  0.5446
   58SAPC    C2 4312   4.395   1.919   9.363 -0.8767 -0.5829 -0.0471
   58SAPC    HS 4313   4.459   1.916   9.272  0.0673 -2.0986  0.6368
   58SAPC   O21 4314   4.260   1.962   9.331  0.0892  0.2777 -0.2647
   58SAPC   C21 4315   4.250   2.076   9.259 -0.1220 -0.2270  0.8121
   58SAPC   O22 4316   4.340   2.140   9.212 -0.6579 -0.8582 -0.1690
   58SAPC   C22 4317   4.093   2.102   9.237  0.5324  0.1929 -0.1253
   58SAPC   H2R 4318   4.057   2.008   9.190  0.0972 -0.6172  1.7369
   58SAPC   H2S 4319   4.041   2.108   9.335 -2.3775 -1.3232 -1.4500
   58SAPC    C3 4320   4.389   1.765   9.401 -0.5652 -0.4496 -0.4579
   58SAPC    HX 4321   4.355   1.762   9.506  1.0774  0.6850  0.1484
   58SAPC    HY 4322   4.497   1.738   9.395 -0.0718  1.6534 -3.3979
   58SAPC   O31 4323   4.312   1.685   9.299 -0.1005 -0.3878 -0.3614
   58SAPC   C31 4324   4.338   1.554   9.326  0.1313 -0.1890  0.0427
   58SAPC   O32 4325   4.429   1.517   9.402 -1.3915 -0.2562 -0.0727
   58SAPC   C32 4326   4.251   1.471   9.236  0.3199 -0.8259  0.4895
   58SAPC   H2X 4327   4.273   1.490   9.129 -0.7294  0.6019  0.5078
   58SAPC   H2Y 4328   4.142   1.487   9.251  0.5359  0.0896  1.1178
   58SAPC   C23 4329   4.055   2.227   9.159 -0.1747 -0.0647 -0.4138
   58SAPC   H3R 4330   3.955   2.213   9.114 -0.8636 -0.9906  1.3107
   58SAPC   H3S 4331   4.116   2.236   9.066 -2.3604  1.0268 -1.8241
   58SAPC   C24 4332   4.063   2.364   9.231  0.2189  0.7392 -0.0628
   58SAPC   H4R 4333   4.151   2.360   9.299 -0.7151 -1.7453  1.1233
   58SAPC   H4S 4334   3.969   2.382   9.288  0.2370 -0.4038  0.3408
   58SAPC   C25 4335   4.086   2.477   9.126 -0.4402 -0.5355 -0.1726
   58SAPC   H5R 4336   4.008   2.555   9.125 -0.3215 -0.3478  1.5328
   58SAPC   C26 4337   4.195   2.506   9.051  0.1573  0.2625 -0.0500
   58SAPC   H6R 4338   4.205   2.600   8.994  1.2130 -0.5402 -1.2458
   58SAPC   C27 4339   4.327   2.428   9.058 -0.6402 -0.1897  0.3271
   58SAPC   H7R 4340   4.334   2.358   9.144  0.7685  0.6662  0.9513
   58SAPC   H7S 4341   4.408   2.503   9.065 -0.2347 -0.1679 -3.0009
   58SAPC   C28 4342   4.329   2.360   8.922  0.2057 -0.4850  0.1294
   58SAPC   H8R 4343   4.274   2.265   8.930 -0.8601  0.2701  3.1754
   58SAPC   C29 4344   4.372   2.406   8.805 -0.2539 -0.3656  0.9349
   58SAPC   H9R 4345   4.385   2.339   8.718 -1.6743  1.2425 -0.5852
   58SAPC  C210 4346   4.415   2.545   8.777  0.2304 -0.7146 -0.2627
   58SAPC  H10R 4347   4.514   2.533   8.728  1.1019 -0.9212  1.4398
   58SAPC  H10S 4348   4.432   2.613   8.864  1.6431 -0.7933 -0.4421
   58SAPC  C211 4349   4.322   2.594   8.667  0.0904  0.2797 -0.3908
   58SAPC  H11R 4350   4.215   2.600   8.690 -0.3858  2.4373 -2.7047
   58SAPC  C212 4351   4.356   2.637   8.541 -0.4698  0.2180  0.3766
   58SAPC  H12R 4352   4.272   2.657   8.474  1.5093  2.1368 -1.7182
   58SAPC  C213 4353   4.494   2.663   8.486 -0.7183  0.1766 -0.5637
   58SAPC  H13R 4354   4.566   2.701   8.561  0.3144 -1.0799 -0.8716
   58SAPC  H13S 4355   4.474   2.752   8.423 -0.1002  0.9736  0.3318
   58SAPC  C214 4356   4.551   2.540   8.421 -0.3863  0.0755 -0.4020
   58SAPC  H14R 4357   4.590   2.469   8.496  2.1132 -0.5960 -2.2188
   58SAPC  C215 4358   4.563   2.508   8.295  0.1884 -0.5468  0.5717
   58SAPC  H15R 4359   4.599   2.407   8.272  1.0673 -0.4662  1.5127
   58SAPC  C216 4360   4.517   2.590   8.186  0.3281  0.7143 -0.4653
   58SAPC  H16R 4361   4.573   2.555   8.096 -0.0367 -0.8488 -0.1181
   58SAPC  H16S 4362   4.537   2.696   8.212  0.9847  0.4676  0.0711
   58SAPC  C217 4363   4.369   2.573   8.154 -0.2081  0.0038 -0.2957
   58SAPC  H17R 4364   4.355   2.657   8.082  0.7682 -1.0973 -1.8379
   58SAPC  H17S 4365   4.318   2.597   8.250 -1.2636  2.4120 -1.3685
   58SAPC  C218 4366   4.329   2.442   8.093 -0.1185 -0.5453 -0.4690
   58SAPC  H18R 4367   4.380   2.360   8.147 -1.1299 -1.2429 -0.5597
   58SAPC  H18S 4368   4.373   2.436   7.991 -1.6752 -0.4878 -1.1679
   58SAPC  C219 4369   4.175   2.432   8.107 -0.1736 -0.4561  0.3112
   58SAPC  H19R 4370   4.123   2.518   8.060  0.7792 -0.4148 -0.7167
   58SAPC  H19S 4371   4.158   2.431   8.216 -1.2905 -1.1247  0.1421
   58SAPC  C220 4372   4.114   2.314   8.046 -0.0227 -0.1480 -0.6589
   58SAPC  H20R 4373   4.142   2.219   8.096  0.7998  1.0716  1.3293
   58SAPC  H20S 4374   4.145   2.307   7.940  1.1188  0.0901 -0.3627
   58SAPC  H20T 4375   4.003   2.323   8.048 -0.1049 -1.1130  1.3603
   58SAPC   C33 4376   4.280   1.322   9.252  0.1313  0.2115 -0.6740
   58SAPC   H3X 4377   4.231   1.271   9.337  3.0507 -1.4952  0.1420
   58SAPC   H3Y 4378   4.389   1.301   9.259  0.2888 -0.0767 -3.0200
   58SAPC   C34 4379   4.234   1.235   9.124  0.6615  0.2656 -0.5299
   58SAPC   H4X 4380   4.236   1.127   9.149  1.6983  0.6223  1.0813
   58SAPC   H4Y 4381   4.307   1.251   9.042 -1.6153  2.2475 -2.3316
   58SAPC   C35 4382   4.091   1.260   9.086 -0.5162  0.4576  0.2051
   58SAPC   H5X 4383   4.064   1.366   9.070 -0.7933  0.2921 -0.4530
   58SAPC   H5Y 4384   4.022   1.211   9.158 -0.3274 -1.6327 -0.9634
   58SAPC   C36 4385   4.050   1.179   8.960 -0.0249  0.5128  0.6268
   58SAPC   H6X 4386   4.033   1.074   8.991 -0.9212 -0.2321 -2.1083
   58SAPC   H6Y 4387   4.125   1.192   8.879  1.1047  1.6825  1.8080
   58SAPC   C37 4388   3.918   1.236   8.892 -0.6418 -0.5667  0.3168
   58SAPC   H7X 4389   3.841   1.269   8.965  0.6921 -0.5476  1.7610
   58SAPC   H7Y 4390   3.877   1.152   8.832  1.9941 -1.3732 -0.5065
   58SAPC   C38 4391   3.940   1.356   8.802 -0.1606  0.4266  0.1943
   58SAPC   H8X 4392   4.012   1.326   8.723 -1.5247  0.8632 -1.2603
   58SAPC   H8Y 4393   3.976   1.440   8.865 -0.3468  0.8964 -0.3237
   58SAPC   C39 4394   3.813   1.396   8.721 -0.7067  0.3117 -0.4972
   58SAPC   H9X 4395   3.736   1.437   8.790 -1.2507  2.8681 -2.4869
   58SAPC   H9Y 4396   3.762   1.309   8.675 -1.5198  0.7309 -0.4119
   58SAPC  C310 4397   3.835   1.511   8.620  0.7847 -0.1955  0.1946
   58SAPC  H10X 4398   3.910   1.481   8.545  1.8632 -0.9669  1.5499
   58SAPC  H10Y 4399   3.886   1.594   8.673  0.5955 -0.1533  0.3138
   58SAPC  C311 4400   3.714   1.583   8.566  0.1134 -0.0006 -0.2226
   58SAPC  H11X 4401   3.742   1.688   8.545 -0.9920  0.5020  0.7545
   58SAPC  H11Y 4402   3.647   1.594   8.654  2.4188 -1.1334  1.8012
   58SAPC  C312 4403   3.633   1.529   8.449 -0.0048  0.0759  0.2746
   58SAPC  H12X 4404   3.533   1.504   8.488  0.3980  0.7177  1.7596
   58SAPC  H12Y 4405   3.669   1.429   8.414 -0.0796  0.1883 -0.1292
   58SAPC  C313 4406   3.616   1.624   8.324  0.6111 -0.3518 -0.3209
   58SAPC  H13X 4407   3.550   1.590   8.242 -1.4778  0.6958  0.8480
   58SAPC  H13Y 4408   3.715   1.650   8.281 -0.0422  0.8234 -1.1467
   58SAPC  C314 4409   3.570   1.759   8.374  0.6057 -0.0319  0.1250
   58SAPC  H14X 4410   3.643   1.807   8.444  0.6051 -1.8757  1.4464
   58SAPC  H14Y 4411   3.472   1.744   8.424  1.4452 -1.2410  1.4811
   58SAPC  C315 4412   3.554   1.859   8.263 -0.5624  0.2238  0.5878
   58SAPC  H15X 4413   3.500   1.947   8.303  0.4589  0.3382  1.7478
   58SAPC  H15Y 4414   3.487   1.823   8.181  0.7110  0.1669 -0.4683
   58SAPC  C316 4415   3.693   1.904   8.202  0.7849  0.8865 -0.1619
   58SAPC  H16X 4416   3.716   1.823   8.129 -0.0669  1.0284 -0.6046
   58SAPC  H16Y 4417   3.774   1.910   8.278  0.3046  1.9394  0.2880
   58SAPC  C317 4418   3.689   2.040   8.141  0.0669 -0.3407 -0.3177
   58SAPC  H17X 4419   3.642   2.109   8.215 -0.7812 -1.5718  0.3335
   58SAPC  H17Y 4420   3.615   2.039   8.058  0.0855  0.3426 -0.3477
   58SAPC  C318 4421   3.825   2.089   8.103 -0.4292 -0.8502  0.2065
   58SAPC  H18X 4422   3.822   2.184   8.044  1.7479 -1.0866 -0.3432
   58SAPC  H18Y 4423   3.873   2.007   8.046  1.4460 -0.2155  0.7910
   58SAPC  H18Z 4424   3.890   2.098   8.192 -0.8467 -0.1562  0.4499
   59SAPC     N 4425   6.199   1.348   9.535  0.0172  0.3628  0.1434
   59SAPC   C12 4426   6.334   1.414   9.519 -0.1711 -0.0966 -0.2955
   59SAPC  H12A 4427   6.369   1.414   9.416  1.2752  0.7871  0.1604
   59SAPC  H12B 4428   6.413   1.357   9.567 -0.0973  1.6155  1.7174
   59SAPC   C13 4429   6.112   1.401   9.427 -0.2511 -0.2677  0.2457
   59SAPC  H13A 4430   6.094   1.504   9.454 -0.7692 -0.6328  1.3688
   59SAPC  H13B 4431   6.154   1.379   9.330  0.4460 -1.3129  0.7600
   59SAPC  H13C 4432   6.017   1.349   9.432 -0.2742 -0.1327  1.4741
   59SAPC   C14 4433   6.227   1.201   9.511 -0.5960 -0.4578 -0.1160
   59SAPC  H14A 4434   6.136   1.144   9.495  0.3627 -2.1863  0.2962
   59SAPC  H14B 4435   6.270   1.184   9.413  0.7912  1.2699  0.1439
   59SAPC  H14C 4436   6.293   1.151   9.580  0.7693 -3.0866 -3.0452
   59SAPC   C15 4437   6.141   1.364   9.671 -0.4026 -0.0199  0.0398
   59SAPC  H15A 4438   6.087   1.456   9.685  0.8509  0.7383  0.0308
   59SAPC  H15B 4439   6.072   1.281   9.680 -0.3104 -0.1009  0.0033
   59SAPC  H15C 4440   6.212   1.349   9.751 -0.8317  0.1207  0.4528
   59SAPC   C11 4441   6.340   1.558   9.555 -0.3980 -0.1400  0.5328
   59SAPC  H11A 4442   6.448   1.584   9.555 -0.3593 -0.2521  1.7846
   59SAPC  H11B 4443   6.304   1.565   9.660 -1.5723 -2.2655  0.3153
   59SAPC     P 4444   6.326   1.722   9.356  0.2056  0.1597  0.0253
   59SAPC   O13 4445   6.406   1.823   9.425  0.2336 -0.6611 -0.2106
   59SAPC   O14 4446   6.399   1.633   9.262  0.0765 -0.3392 -0.1209
   59SAPC   O12 4447   6.263   1.644   9.471 -0.3336 -0.0778  0.7421
   59SAPC   O11 4448   6.200   1.789   9.287  0.0965 -0.4335 -0.0677
   59SAPC    C1 4449   6.108   1.697   9.224  0.2813  0.0434  0.7542
   59SAPC    HA 4450   6.138   1.590   9.217 -2.1108 -0.7303  1.2552
   59SAPC    HB 4451   6.010   1.692   9.276 -1.6224 -1.1379 -2.6142
   59SAPC    C2 4452   6.070   1.741   9.078  0.4199 -0.5973  0.1321
   59SAPC    HS 4453   5.986   1.681   9.036 -0.3954  0.4103  0.2814
   59SAPC   O21 4454   6.171   1.746   8.978 -0.1444  0.4858 -0.2514
   59SAPC   C21 4455   6.237   1.633   8.954  0.3975  0.5473 -0.1787
   59SAPC   O22 4456   6.210   1.522   8.985  0.3047 -0.7636 -0.2519
   59SAPC   C22 4457   6.348   1.681   8.871  0.2531  0.5410  0.7096
   59SAPC   H2R 4458   6.313   1.728   8.776  2.8229 -1.3449 -1.2935
   59SAPC   H2S 4459   6.402   1.751   8.938  2.3309  1.1304 -1.4549
   59SAPC    C3 4460   6.015   1.892   9.093 -0.0885  0.2691  0.7414
   59SAPC    HX 4461   6.096   1.951   9.140  0.4088  0.4591 -0.3324
   59SAPC    HY 4462   5.924   1.891   9.157  1.0134  2.1532  2.4425
   59SAPC   O31 4463   5.976   1.937   8.963 -0.0011  0.2325  0.2596
   59SAPC   C31 4464   6.058   2.026   8.900 -0.2935 -0.2017 -0.4959
   59SAPC   O32 4465   6.175   2.044   8.929  0.2132 -0.1437  0.6433
   59SAPC   C32 4466   5.982   2.092   8.780  0.2987  0.0434  0.3120
   59SAPC   H2X 4467   5.900   2.157   8.816 -0.3844  0.1852 -1.4217
   59SAPC   H2Y 4468   5.938   2.013   8.715 -0.3855 -1.0963  2.0565
   59SAPC   C23 4469   6.445   1.568   8.816 -1.1027 -0.5086 -0.7357
   59SAPC   H3R 4470   6.485   1.504   8.897 -1.2184  1.3432  0.8715
   59SAPC   H3S 4471   6.531   1.625   8.776 -1.3704 -0.3619 -1.1073
   59SAPC   C24 4472   6.391   1.479   8.710  0.1322 -0.7265  0.7140
   59SAPC   H4R 4473   6.301   1.425   8.745 -0.2555 -0.2151  0.5191
   59SAPC   H4S 4474   6.475   1.407   8.698 -0.1148 -0.7206 -1.2488
   59SAPC   C25 4475   6.368   1.545   8.576 -0.5799  0.3611 -0.9837
   59SAPC   H5R 4476   6.457   1.547   8.510  0.4353 -1.8942  0.2083
   59SAPC   C26 4477   6.259   1.607   8.525 -0.5700 -0.8194  0.0766
   59SAPC   H6R 4478   6.272   1.666   8.432  0.9410  0.0077  0.7834
   59SAPC   C27 4479   6.123   1.622   8.585 -0.5019 -0.4270 -0.3934
   59SAPC   H7R 4480   6.115   1.576   8.686 -2.5934  0.8238  0.0655
   59SAPC   H7S 4481   6.049   1.570   8.522  0.3817 -2.2207 -0.0235
   59SAPC   C28 4482   6.089   1.771   8.593 -0.0054 -0.3643  0.2436
   59SAPC   H8R 4483   6.124   1.815   8.687  0.9834  0.4126 -0.4754
   59SAPC   C29 4484   6.046   1.855   8.497 -0.1075 -0.1132  0.2581
   59SAPC   H9R 4485   6.047   1.963   8.516  0.4594 -0.1967  0.7369
   59SAPC  C210 4486   6.015   1.822   8.354 -0.4220 -0.3690 -0.1572
   59SAPC  H10R 4487   5.967   1.722   8.347 -1.3027  0.1307 -1.7304
   59SAPC  H10S 4488   6.108   1.818   8.292 -1.2749 -1.1734 -1.4244
   59SAPC  C211 4489   5.925   1.912   8.284  0.3324 -0.5893  0.0084
   59SAPC  H11R 4490   5.888   2.003   8.335  0.0144 -0.2938 -0.7321
   59SAPC  C212 4491   5.886   1.900   8.152 -0.8115 -0.4571  0.7494
   59SAPC  H12R 4492   5.833   1.984   8.105  2.9441 -0.1007 -3.5223
   59SAPC  C213 4493   5.937   1.798   8.048  0.4930  0.4714  0.4794
   59SAPC  H13R 4494   5.856   1.733   8.009  1.0051  0.1790 -0.1141
   59SAPC  H13S 4495   6.008   1.735   8.105  0.2367  0.5825  0.9213
   59SAPC  C214 4496   5.999   1.875   7.931 -0.1451  0.2419 -0.0564
   59SAPC  H14R 4497   6.108   1.863   7.939 -0.3272 -1.1057  0.8205
   59SAPC  C215 4498   5.943   1.944   7.834 -0.4194  0.6506 -0.2196
   59SAPC  H15R 4499   6.015   1.996   7.768 -0.9592  1.5907 -0.0801
   59SAPC  C216 4500   5.791   1.965   7.811  0.1906  0.2317 -0.2882
   59SAPC  H16R 4501   5.728   1.905   7.881 -1.6068  1.4351 -0.7884
   59SAPC  H16S 4502   5.752   1.930   7.713 -1.8909  0.0367  0.5539
   59SAPC  C217 4503   5.735   2.112   7.830 -0.7451  1.0851  0.4353
   59SAPC  H17R 4504   5.764   2.167   7.739  0.0613 -2.9157 -1.9942
   59SAPC  H17S 4505   5.778   2.162   7.920  1.6539 -0.6241  0.3460
   59SAPC  C218 4506   5.579   2.123   7.839  0.4614  0.7908 -0.0957
   59SAPC  H18R 4507   5.534   2.038   7.895 -1.6897 -0.1372 -3.0045
   59SAPC  H18S 4508   5.553   2.113   7.731 -2.4423 -0.7612  0.6408
   59SAPC  C219 4509   5.527   2.253   7.905 -0.2730 -0.3644  0.5971
   59SAPC  H19R 4510   5.586   2.332   7.854 -2.1612 -1.3757 -3.5249
   59SAPC  H19S 4511   5.547   2.256   8.015 -0.2178 -0.5319  0.5928
   59SAPC  C220 4512   5.374   2.297   7.899  0.7510  0.9142  0.1489
   59SAPC  H20R 4513   5.305   2.236   7.962  0.2572 -0.7123 -1.8603
   59SAPC  H20S 4514   5.339   2.277   7.796  1.5373  0.2392  0.0002
   59SAPC  H20T 4515   5.368   2.404   7.927  1.9711  1.7063 -2.3822
   59SAPC   C33 4516   6.067   2.188   8.693  0.1969  0.4554  0.2825
   59SAPC   H3X 4517   6.153   2.131   8.650  0.2663 -0.8284  1.9959
   59SAPC   H3Y 4518   6.111   2.271   8.753  0.5725 -0.5240  1.4155
   59SAPC   C34 4519   5.975   2.248   8.581 -0.0057 -0.2259 -0.2166
   59SAPC   H4X 4520   5.892   2.292   8.639  2.5823  2.8512  1.4942
   59SAPC   H4Y 4521   5.940   2.171   8.510  1.3984 -0.6031 -0.5408
   59SAPC   C35 4522   6.053   2.356   8.495  0.2096  0.0491  0.0074
   59SAPC   H5X 4523   6.075   2.448   8.555 -0.1670 -0.2772  0.6623
   59SAPC   H5Y 4524   5.980   2.390   8.419 -1.6626 -1.0919  1.2135
   59SAPC   C36 4525   6.176   2.288   8.428 -0.1416 -0.1063  0.1103
   59SAPC   H6X 4526   6.160   2.179   8.413  2.4033 -0.5359  0.0331
   59SAPC   H6Y 4527   6.264   2.306   8.493 -0.6623  4.4654 -0.1801
   59SAPC   C37 4528   6.229   2.349   8.292 -0.4215 -0.6580  0.4287
   59SAPC   H7X 4529   6.337   2.327   8.276  0.4343  4.3381 -2.8431
   59SAPC   H7Y 4530   6.245   2.455   8.319  1.5791 -1.0286  0.8398
   59SAPC   C38 4531   6.145   2.335   8.172 -0.1528 -0.2422 -0.2813
   59SAPC   H8X 4532   6.086   2.425   8.144 -0.4699  0.1408  1.4974
   59SAPC   H8Y 4533   6.072   2.253   8.192 -1.3744  1.4601  3.0184
   59SAPC   C39 4534   6.226   2.269   8.053  0.7749 -0.1898 -0.6682
   59SAPC   H9X 4535   6.252   2.165   8.083 -2.1388 -0.6805  0.5215
   59SAPC   H9Y 4536   6.315   2.332   8.033  1.1072  0.0463  1.3487
   59SAPC  C310 4537   6.142   2.253   7.931  0.4352  0.4372  0.1479
   59SAPC  H10X 4538   6.048   2.202   7.958 -0.6506  2.2890  0.0366
   59SAPC  H10Y 4539   6.192   2.175   7.870  0.2242 -0.1285  0.6993
   59SAPC  C311 4540   6.127   2.378   7.850 -0.1933  0.0183 -1.1315
   59SAPC  H11X 4541   6.231   2.410   7.829  0.4956 -1.8826 -0.7730
   59SAPC  H11Y 4542   6.079   2.455   7.914  0.9070  2.0947 -2.6974
   59SAPC  C312 4543   6.047   2.351   7.721 -0.3745 -0.0918 -0.7422
   59SAPC  H12X 4544   5.969   2.277   7.749 -2.1860  1.1795 -2.2251
   59SAPC  H12Y 4545   6.097   2.293   7.641 -1.9145 -2.9353  0.2148
   59SAPC  C313 4546   5.971   2.474   7.669 -0.7302 -0.3009  0.7462
   59SAPC  H13X 4547   6.048   2.535   7.616 -0.6799 -1.0742 -0.0810
   59SAPC  H13Y 4548   5.931   2.539   7.750 -1.8839  0.8218 -0.6719
   59SAPC  C314 4549   5.852   2.415   7.593 -0.3414 -0.2446  0.7086
   59SAPC  H14X 4550   5.776   2.387   7.669  1.6638 -0.4487  2.7640
   59SAPC  H14Y 4551   5.887   2.328   7.533  0.5851 -1.0221  2.3118
   59SAPC  C315 4552   5.784   2.510   7.496  0.2386 -0.4416 -0.0106
   59SAPC  H15X 4553   5.851   2.554   7.420 -0.3569  1.3439  0.4298
   59SAPC  H15Y 4554   5.741   2.594   7.556 -0.5065 -1.3961  0.8257
   59SAPC  C316 4555   5.684   2.434   7.409  0.5419 -0.5647  0.3550
   59SAPC  H16X 4556   5.643   2.351   7.470  0.4464 -1.6129 -1.0830
   59SAPC  H16Y 4557   5.740   2.395   7.321 -0.9498 -0.7994 -0.5150
   59SAPC  C317 4558   5.568   2.523   7.367 -0.1020  0.9560  0.6161
   59SAPC  H17X 4559   5.613   2.606   7.309  2.1932 -1.7263 -1.7286
   59SAPC  H17Y 4560   5.519   2.556   7.461 -1.0375  0.8261  0.1861
   59SAPC  C318 4561   5.475   2.438   7.279  0.4435 -0.7320  0.0997
   59SAPC  H18X 4562   5.377   2.490   7.267  0.4007 -1.3561 -3.2762
   59SAPC  H18Y 4563   5.453   2.335   7.315 -2.2418 -0.2051  0.2156
   59SAPC  H18Z 4564   5.522   2.430   7.179 -0.4541 -1.5087 -0.2821
   60SAPC     N 4565   5.608   1.063   9.933 -0.0955  0.2828  0.6906
   60SAPC   C12 4566   5.637   1.047   9.785  0.0163 -0.1844  0.6240
   60SAPC  H12A 4567   5.603   0.952   9.746 -0.3635  0.0251  0.4349
   60SAPC  H12B 4568   5.741   1.060   9.759 -0.5882 -0.3452 -2.2236
   60SAPC   C13 4569   5.667   1.190   9.988 -0.1150  0.8075  0.2784
   60SAPC  H13A 4570   5.657   1.199  10.095  0.8560  0.2500  0.4245
   60SAPC  H13B 4571   5.774   1.191   9.974  0.1231 -1.8927  1.3696
   60SAPC  H13C 4572   5.632   1.277   9.933 -0.2526  1.6827  1.6992
   60SAPC   C14 4573   5.466   1.054   9.968  1.0819  0.4558  0.2381
   60SAPC  H14A 4574   5.422   0.964   9.928  0.7382  0.4290  0.6681
   60SAPC  H14B 4575   5.457   1.053  10.076 -1.4469 -0.7470  0.0888
   60SAPC  H14C 4576   5.406   1.132   9.923 -0.3503 -0.7149  0.0624
   60SAPC   C15 4577   5.676   0.940   9.997  0.0128 -0.2136  0.3907
   60SAPC  H15A 4578   5.783   0.936   9.984 -0.0927 -2.4668 -0.2338
   60SAPC  H15B 4579   5.647   0.939  10.102 -1.4800  0.6112  0.0198
   60SAPC  H15C 4580   5.627   0.854   9.955 -1.5955  0.4523  0.8292
   60SAPC   C11 4581   5.564   1.164   9.704 -0.2535 -0.1223 -0.0477
   60SAPC  H11A 4582   5.458   1.182   9.733 -0.8370 -1.4105 -1.2175
   60SAPC  H11B 4583   5.550   1.142   9.596 -3.0342  1.0986 -0.0301
   60SAPC     P 4584   5.780   1.318   9.660  0.0805 -0.1628  0.0772
   60SAPC   O13 4585   5.836   1.442   9.702 -0.0013  0.3502 -0.6301
   60SAPC   O14 4586   5.863   1.195   9.680 -0.1209  0.5289 -0.6179
   60SAPC   O12 4587   5.638   1.294   9.724  0.2330 -0.2102 -0.0803
   60SAPC   O11 4588   5.754   1.329   9.503 -0.3244  0.0908  0.0899
   60SAPC    C1 4589   5.636   1.412   9.466 -0.1670  0.4481  0.1151
   60SAPC    HA 4590   5.541   1.395   9.520  0.0554  0.0788  0.3982
   60SAPC    HB 4591   5.663   1.517   9.492  0.5909 -0.1284  1.8440
   60SAPC    C2 4592   5.607   1.408   9.315 -0.0490 -0.0679 -0.3058
   60SAPC    HS 4593   5.506   1.447   9.290 -0.8649 -1.2900  0.9004
   60SAPC   O21 4594   5.617   1.275   9.263 -0.1318 -0.3733 -0.0799
   60SAPC   C21 4595   5.538   1.181   9.318 -0.7425 -0.3477  0.4219
   60SAPC   O22 4596   5.442   1.200   9.384  0.3857 -0.2521 -0.1292
   60SAPC   C22 4597   5.593   1.044   9.277 -0.3011 -0.1911 -0.4075
   60SAPC   H2R 4598   5.538   1.016   9.185 -1.2710  1.6986 -0.4497
   60SAPC   H2S 4599   5.700   1.044   9.245 -0.5533 -1.3702 -1.3497
   60SAPC    C3 4600   5.704   1.506   9.246  0.2053  1.1411 -0.2655
   60SAPC    HX 4601   5.806   1.480   9.282 -0.1687  1.2180  0.8909
   60SAPC    HY 4602   5.676   1.603   9.291  1.1457  1.3572 -0.1285
   60SAPC   O31 4603   5.686   1.506   9.099 -0.1021  0.7573 -1.0114
   60SAPC   C31 4604   5.758   1.425   9.031 -0.7668 -0.7388 -0.1598
   60SAPC   O32 4605   5.849   1.355   9.078  0.8377  0.1118 -0.1578
   60SAPC   C32 4606   5.737   1.450   8.886  0.1158  0.6495 -0.3120
   60SAPC   H2X 4607   5.740   1.559   8.867 -5.3156  0.8374 -1.6399
   60SAPC   H2Y 4608   5.631   1.420   8.870  0.1963  0.4095 -0.3980
   60SAPC   C23 4609   5.578   0.931   9.385 -0.1750  0.6388  0.3070
   60SAPC   H3R 4610   5.474   0.923   9.423 -0.7554 -0.2206 -1.3449
   60SAPC   H3S 4611   5.636   0.960   9.475 -0.8735 -0.8349  1.2738
   60SAPC   C24 4612   5.619   0.791   9.322 -0.2312  0.1653 -0.1669
   60SAPC   H4R 4613   5.558   0.770   9.231 -0.0591 -0.3676 -0.1626
   60SAPC   H4S 4614   5.595   0.710   9.393  2.0800 -0.8030 -0.3921
   60SAPC   C25 4615   5.769   0.799   9.306 -0.8082  0.4365  0.0927
   60SAPC   H5R 4616   5.829   0.807   9.398  0.3663 -3.1835 -0.1906
   60SAPC   C26 4617   5.830   0.809   9.181  0.0586 -0.3516  0.5319
   60SAPC   H6R 4618   5.939   0.821   9.187  0.2535 -1.5539 -0.2169
   60SAPC   C27 4619   5.774   0.805   9.040 -0.2213 -0.5162  0.4318
   60SAPC   H7R 4620   5.664   0.818   9.050 -0.3868  0.7460 -2.0960
   60SAPC   H7S 4621   5.791   0.702   9.003  0.0348 -0.6663  0.9621
   60SAPC   C28 4622   5.805   0.926   8.944 -0.6149  0.6004  0.4615
   60SAPC   H8R 4623   5.875   1.003   8.980  0.7190  0.1187 -1.0184
   60SAPC   C29 4624   5.733   0.959   8.831  0.5832  0.3840 -0.4276
   60SAPC   H9R 4625   5.762   1.049   8.775  1.4388  2.1488  2.5859
   60SAPC  C210 4626   5.616   0.879   8.772  0.3851 -0.2905 -0.0654
   60SAPC  H10R 4627   5.535   0.949   8.744 -0.1952 -0.7594  0.4316
   60SAPC  H10S 4628   5.572   0.804   8.841  3.2214 -1.3367  0.7712
   60SAPC  C211 4629   5.656   0.802   8.648  0.7509 -0.0052  0.3125
   60SAPC  H11R 4630   5.676   0.696   8.668 -1.3719 -0.6963 -0.9460
   60SAPC  C212 4631   5.656   0.846   8.520 -0.4261 -0.3949 -0.3978
   60SAPC  H12R 4632   5.688   0.779   8.439  0.4180 -0.2479 -0.1961
   60SAPC  C213 4633   5.623   0.981   8.455 -0.4725  0.4178 -0.7591
   60SAPC  H13R 4634   5.717   1.025   8.414 -0.3539  0.2745 -0.6424
   60SAPC  H13S 4635   5.593   1.050   8.537  1.4126 -0.1433  0.4548
   60SAPC  C214 4636   5.507   0.976   8.365  0.2487 -0.4332 -0.2783
   60SAPC  H14R 4637   5.421   0.928   8.414 -0.7906  1.2405 -0.3893
   60SAPC  C215 4638   5.502   1.017   8.234  0.1395  0.1010  0.3951
   60SAPC  H15R 4639   5.404   1.005   8.184 -0.1747  0.8744  0.8173
   60SAPC  C216 4640   5.614   1.063   8.144 -0.5065 -0.5685 -0.2144
   60SAPC  H16R 4641   5.707   1.006   8.160  0.6573  0.5115 -2.5941
   60SAPC  H16S 4642   5.637   1.168   8.169 -1.7203  0.0577 -1.5941
   60SAPC  C217 4643   5.588   1.035   7.988  0.2346 -0.1979 -0.4718
   60SAPC  H17R 4644   5.506   1.098   7.949 -0.0335 -0.3597 -0.1736
   60SAPC  H17S 4645   5.568   0.929   7.958 -1.4172 -0.5127  1.5214
   60SAPC  C218 4646   5.710   1.089   7.916 -0.4035 -0.8002  0.4940
   60SAPC  H18R 4647   5.810   1.050   7.946 -1.0809 -1.3973  2.0524
   60SAPC  H18S 4648   5.710   1.195   7.950 -0.8558  0.1815 -2.3504
   60SAPC  C219 4649   5.708   1.091   7.755  0.3475 -0.1744 -0.4112
   60SAPC  H19R 4650   5.716   0.988   7.716  3.6683  0.3771 -1.4970
   60SAPC  H19S 4651   5.804   1.142   7.735  0.6867 -0.5530  0.2278
   60SAPC  C220 4652   5.593   1.176   7.681  0.3703 -0.3227  0.4442
   60SAPC  H20R 4653   5.559   1.266   7.737 -1.8528 -0.2376 -0.8829
   60SAPC  H20S 4654   5.514   1.099   7.670 -1.4706  1.5702 -0.4893
   60SAPC  H20T 4655   5.619   1.216   7.580 -0.4073 -0.5372  0.1470
   60SAPC   C33 4656   5.844   1.383   8.796  0.4216  0.2455  0.6727
   60SAPC   H3X 4657   5.836   1.272   8.793 -1.2318  0.3568 -0.5814
   60SAPC   H3Y 4658   5.949   1.408   8.820  0.6561  1.5080 -1.4350
   60SAPC   C34 4659   5.831   1.433   8.643 -0.1964 -0.2658  0.4491
   60SAPC   H4X 4660   5.928   1.443   8.591 -0.8551  3.0057 -0.3725
   60SAPC   H4Y 4661   5.785   1.533   8.632 -2.9438 -1.4580  0.1427
   60SAPC   C35 4662   5.728   1.338   8.568 -0.5388 -0.1570  0.0882
   60SAPC   H5X 4663   5.625   1.364   8.603 -0.4849  1.3640 -0.8214
   60SAPC   H5Y 4664   5.748   1.235   8.604 -3.4979 -1.4136 -1.4550
   60SAPC   C36 4665   5.740   1.336   8.414  0.1255  0.1189 -0.3987
   60SAPC   H6X 4666   5.656   1.279   8.368 -0.8175  0.4887  0.8062
   60SAPC   H6Y 4667   5.836   1.289   8.383  0.4638  0.6467 -0.1663
   60SAPC   C37 4668   5.738   1.481   8.360  0.1671  0.2275  0.5002
   60SAPC   H7X 4669   5.831   1.529   8.398 -0.0711  0.2358  1.0782
   60SAPC   H7Y 4670   5.654   1.541   8.401  0.0951  0.7374 -0.3760
   60SAPC   C38 4671   5.740   1.499   8.205 -0.3922 -0.4117  0.0791
   60SAPC   H8X 4672   5.811   1.419   8.175  0.2960 -0.2786  1.3024
   60SAPC   H8Y 4673   5.789   1.594   8.173 -2.3277  0.3898 -0.6755
   60SAPC   C39 4674   5.605   1.498   8.131  0.0617 -0.5738  0.7558
   60SAPC   H9X 4675   5.534   1.568   8.181 -0.2340 -0.7145  0.5372
   60SAPC   H9Y 4676   5.548   1.403   8.122  1.2562 -1.1621 -1.2335
   60SAPC  C310 4677   5.620   1.542   7.981 -0.3432  0.6706  0.1735
   60SAPC  H10X 4678   5.686   1.476   7.920 -0.7728 -0.8560  1.2848
   60SAPC  H10Y 4679   5.667   1.641   8.000 -0.3256  0.2348  2.7743
   60SAPC  C311 4680   5.488   1.543   7.905  0.4913  0.0898 -0.1337
   60SAPC  H11X 4681   5.423   1.614   7.961  1.2101  2.2660 -1.9026
   60SAPC  H11Y 4682   5.444   1.441   7.904  2.5877 -0.8666  0.1120
   60SAPC  C312 4683   5.502   1.581   7.757 -0.0808  1.0025  0.3018
   60SAPC  H12X 4684   5.518   1.494   7.690 -1.5138 -0.5358  1.8260
   60SAPC  H12Y 4685   5.595   1.642   7.755  1.0139 -0.5491  1.4725
   60SAPC  C313 4686   5.374   1.654   7.705  0.2790 -0.1484 -0.3726
   60SAPC  H13X 4687   5.277   1.600   7.711  0.6273 -0.7034  0.6268
   60SAPC  H13Y 4688   5.411   1.668   7.602  1.4483  0.7248  0.1356
   60SAPC  C314 4689   5.358   1.795   7.763  0.9554 -0.0927  0.0867
   60SAPC  H14X 4690   5.459   1.838   7.744  1.0596 -0.5106 -0.3210
   60SAPC  H14Y 4691   5.332   1.783   7.871 -2.2040 -0.6185 -0.6291
   60SAPC  C315 4692   5.250   1.878   7.694  0.4837 -0.2819 -0.7491
   60SAPC  H15X 4693   5.250   1.857   7.585 -2.1830 -2.2634 -0.4837
   60SAPC  H15Y 4694   5.269   1.985   7.716  0.4085  0.0948 -2.4144
   60SAPC  C316 4695   5.099   1.864   7.735 -0.7221  0.3297 -0.1013
   60SAPC  H16X 4696   5.096   1.909   7.836  3.3565  2.0951 -0.5642
   60SAPC  H16Y 4697   5.082   1.754   7.735 -0.1708  0.2208  1.3770
   60SAPC  C317 4698   5.002   1.926   7.635 -0.0304  0.9023  0.5308
   60SAPC  H17X 4699   4.997   1.863   7.544  0.6172  0.1750  0.9858
   60SAPC  H17Y 4700   5.037   2.028   7.607  2.7829  0.0417  0.5451
   60SAPC  C318 4701   4.864   1.940   7.697 -0.3102  1.0063 -0.5693
   60SAPC  H18X 4702   4.782   1.989   7.639 -0.7678 -0.3401 -1.0850
   60SAPC  H18Y 4703   4.869   2.008   7.785 -0.9995  0.5365 -0.1597
   60SAPC  H18Z 4704   4.824   1.843   7.733 -2.4373  2.0645  0.1250
   61SAPC     N 4705   1.824   6.955   9.323  0.2321 -0.2022 -0.3806
   61SAPC   C12 4706   1.816   6.838   9.227 -0.8901 -0.1522  0.4985
   61SAPC  H12A 4707   1.880   6.851   9.141 -0.2269 -1.2008  0.8182
   61SAPC  H12B 4708   1.717   6.829   9.186 -0.8976  0.1724  0.4441
   61SAPC   C13 4709   1.784   7.085   9.251  0.6802 -0.0511  0.7066
   61SAPC  H13A 4710   1.678   7.075   9.232  0.8427  1.4818 -1.2707
   61SAPC  H13B 4711   1.795   7.166   9.322 -0.8782 -0.6671  1.7086
   61SAPC  H13C 4712   1.834   7.106   9.158  1.5444  0.1398  1.2028
   61SAPC   C14 4713   1.710   6.945   9.423  0.4097  0.7043 -0.0642
   61SAPC  H14A 4714   1.716   6.851   9.477 -2.4460  1.4675  1.8477
   61SAPC  H14B 4715   1.715   7.021   9.500  0.8602  0.5725  0.0342
   61SAPC  H14C 4716   1.614   6.949   9.374  0.0886 -1.4725  0.2827
   61SAPC   C15 4717   1.956   6.982   9.383  0.2736  0.5265 -0.0337
   61SAPC  H15A 4718   2.020   7.024   9.307  1.0140  1.0525  0.8524
   61SAPC  H15B 4719   1.958   7.053   9.465 -0.5777  0.6005 -0.0680
   61SAPC  H15C 4720   2.006   6.890   9.408  0.7091  0.4696 -1.0929
   61SAPC   C11 4721   1.857   6.697   9.289 -0.3028 -0.9339  0.8345
   61SAPC  H11A 4722   1.951   6.719   9.344 -0.0064 -2.3236  0.9112
   61SAPC  H11B 4723   1.883   6.616   9.218 -1.0962 -0.0085 -0.5664
   61SAPC     P 4724   1.626   6.603   9.340  0.1198 -0.0430  0.5835
   61SAPC   O13 4725   1.627   6.456   9.325  0.6521 -0.4725  0.5417
   61SAPC   O14 4726   1.522   6.670   9.422  0.0703 -0.3239 -0.2068
   61SAPC   O12 4727   1.763   6.652   9.383  0.2225 -0.4938 -0.1381
   61SAPC   O11 4728   1.615   6.658   9.190  0.5960  0.2989 -0.0559
   61SAPC    C1 4729   1.514   6.747   9.152  0.2763 -0.8672 -0.2399
   61SAPC    HA 4730   1.422   6.729   9.212 -0.5949  1.2366 -0.8513
   61SAPC    HB 4731   1.552   6.848   9.177 -0.0145 -0.7647 -0.2127
   61SAPC    C2 4732   1.473   6.758   9.004  0.4271  0.1859 -0.3405
   61SAPC    HS 4733   1.388   6.828   9.001  1.7041  1.7609 -1.1059
   61SAPC   O21 4734   1.451   6.638   8.941  0.4914 -0.0789 -0.4757
   61SAPC   C21 4735   1.335   6.584   8.953 -0.1588  0.3087 -0.6274
   61SAPC   O22 4736   1.234   6.638   9.009 -0.0774 -0.2144  0.5754
   61SAPC   C22 4737   1.328   6.472   8.860  0.9476  0.5251 -0.1120
   61SAPC   H2R 4738   1.418   6.410   8.878  0.5711  0.1972  0.7093
   61SAPC   H2S 4739   1.237   6.410   8.873  2.6368 -1.5212  2.8837
   61SAPC    C3 4740   1.570   6.846   8.924 -0.0660 -0.7998 -0.3335
   61SAPC    HX 4741   1.673   6.816   8.954  0.1379  1.2969  1.3397
   61SAPC    HY 4742   1.558   6.949   8.963  1.4020 -0.7051 -0.0648
   61SAPC   O31 4743   1.535   6.850   8.780  0.3019 -0.1931 -0.4093
   61SAPC   C31 4744   1.640   6.867   8.704  0.3382 -0.3461 -0.2355
   61SAPC   O32 4745   1.755   6.875   8.737 -0.2878 -0.9770  0.7402
   61SAPC   C32 4746   1.584   6.886   8.565 -0.6408  0.0700 -0.7279
   61SAPC   H2X 4747   1.520   6.976   8.566 -2.1608 -0.9719 -1.0370
   61SAPC   H2Y 4748   1.531   6.791   8.540 -0.2323 -1.3084  2.9514
   61SAPC   C23 4749   1.326   6.525   8.716  0.0462  0.3335 -0.2370
   61SAPC   H3R 4750   1.408   6.598   8.699  0.5967 -0.2447 -0.1259
   61SAPC   H3S 4751   1.233   6.581   8.695 -1.5271 -1.6973  0.9076
   61SAPC   C24 4752   1.335   6.410   8.616  0.1243  0.1689 -0.3857
   61SAPC   H4R 4753   1.242   6.350   8.610  0.4677 -0.6416  1.5297
   61SAPC   H4S 4754   1.408   6.342   8.665  1.5626  3.4231  2.4887
   61SAPC   C25 4755   1.376   6.455   8.475 -0.3390 -0.3097 -0.5790
   61SAPC   H5R 4756   1.294   6.518   8.437 -1.7294 -1.4038  0.4719
   61SAPC   C26 4757   1.484   6.427   8.397  0.0662 -0.2433 -0.6584
   61SAPC   H6R 4758   1.496   6.463   8.294  0.5989  1.4036 -0.0561
   61SAPC   C27 4759   1.597   6.338   8.435 -0.7342 -0.5617 -0.2707
   61SAPC   H7R 4760   1.604   6.258   8.358  0.6323 -2.0861  1.3268
   61SAPC   H7S 4761   1.584   6.283   8.531  0.4825 -0.8322 -0.2418
   61SAPC   C28 4762   1.738   6.403   8.435 -0.3810  0.0336  0.0086
   61SAPC   H8R 4763   1.789   6.422   8.530  0.8668  1.0651 -0.8282
   61SAPC   C29 4764   1.813   6.453   8.335 -0.2007 -0.2143  0.6265
   61SAPC   H9R 4765   1.915   6.491   8.348  0.2880 -1.2800 -0.0139
   61SAPC  C210 4766   1.776   6.462   8.188 -0.3807 -0.3764 -0.7804
   61SAPC  H10R 4767   1.730   6.562   8.170  0.1038 -0.2198 -1.1694
   61SAPC  H10S 4768   1.692   6.390   8.176 -1.3438  0.7584 -1.1840
   61SAPC  C211 4769   1.883   6.433   8.086 -0.0260  0.2313  0.2008
   61SAPC  H11R 4770   1.979   6.396   8.126  0.2388  0.9548  0.2537
   61SAPC  C212 4771   1.877   6.452   7.953  0.0390 -0.1367  0.1099
   61SAPC  H12R 4772   1.957   6.423   7.883  0.8326 -1.6550  1.5843
   61SAPC  C213 4773   1.759   6.519   7.886 -0.5624 -1.0129 -0.9545
   61SAPC  H13R 4774   1.660   6.474   7.907 -0.8878  0.3609  0.6114
   61SAPC  H13S 4775   1.774   6.516   7.776  2.1433  2.2571 -0.8433
   61SAPC  C214 4776   1.733   6.666   7.910  0.4465 -0.1746 -0.6789
   61SAPC  H14R 4777   1.730   6.693   8.016  1.1129 -1.6333 -0.2765
   61SAPC  C215 4778   1.713   6.765   7.825  0.7746 -0.1450  0.1908
   61SAPC  H15R 4779   1.691   6.867   7.860  2.1058 -0.5233  2.3318
   61SAPC  C216 4780   1.717   6.753   7.677 -0.3347  0.4319  0.2500
   61SAPC  H16R 4781   1.633   6.812   7.635 -0.7587  0.9025  1.7037
   61SAPC  H16S 4782   1.703   6.651   7.636 -2.1824  0.7960 -0.1090
   61SAPC  C217 4783   1.844   6.811   7.618  0.2651 -0.7684 -0.5552
   61SAPC  H17R 4784   1.933   6.779   7.676  0.6498  2.5366  0.9577
   61SAPC  H17S 4785   1.847   6.922   7.624 -0.4540 -0.7830  0.1242
   61SAPC  C218 4786   1.869   6.759   7.477 -0.2449 -0.3520  0.3840
   61SAPC  H18R 4787   1.891   6.650   7.489  0.5224 -0.1801  0.5794
   61SAPC  H18S 4788   1.965   6.798   7.438 -0.2708 -0.3111  0.3601
   61SAPC  C219 4789   1.753   6.781   7.378 -0.0551 -0.1751  0.4599
   61SAPC  H19R 4790   1.735   6.890   7.372 -1.4247 -0.3617  0.7776
   61SAPC  H19S 4791   1.663   6.743   7.432  1.5360 -0.9081  2.7890
   61SAPC  C220 4792   1.761   6.703   7.244  0.0694 -0.7817 -0.3529
   61SAPC  H20R 4793   1.832   6.735   7.165 -1.2786 -0.1492 -1.3511
   61SAPC  H20S 4794   1.658   6.696   7.202 -0.7515 -2.8125  1.7233
   61SAPC  H20T 4795   1.802   6.604   7.273  3.2131  0.5631  0.1270
   61SAPC   C33 4796   1.692   6.927   8.467 -0.5246  0.0624 -0.2416
   61SAPC   H3X 4797   1.731   6.829   8.429 -4.3133 -1.5543 -0.3836
   61SAPC   H3Y 4798   1.767   6.993   8.514  1.0029 -0.7861 -1.3565
   61SAPC   C34 4799   1.647   6.990   8.339  0.6884 -0.3573  0.3023
   61SAPC   H4X 4800   1.746   7.006   8.290  0.5964 -0.8276 -0.0496
   61SAPC   H4Y 4801   1.615   7.096   8.343 -2.5311 -1.1046 -1.9813
   61SAPC   C35 4802   1.548   6.906   8.257  0.2371 -0.3308 -0.7236
   61SAPC   H5X 4803   1.453   6.888   8.312 -0.0456  0.3495 -0.9802
   61SAPC   H5Y 4804   1.585   6.805   8.229  0.7103  0.0423 -1.4700
   61SAPC   C36 4805   1.525   6.971   8.115  0.1376 -0.3875  0.3618
   61SAPC   H6X 4806   1.611   6.948   8.049 -1.4145 -1.8265 -1.2595
   61SAPC   H6Y 4807   1.507   7.080   8.114  0.8426 -0.2650  0.6324
   61SAPC   C37 4808   1.394   6.912   8.043 -0.3080  0.3748 -0.5323
   61SAPC   H7X 4809   1.310   6.938   8.111 -0.7710  0.7164 -1.2326
   61SAPC   H7Y 4810   1.416   6.803   8.042  3.1435  0.9423  0.3035
   61SAPC   C38 4811   1.374   6.981   7.910  0.4002 -0.2584 -0.1225
   61SAPC   H8X 4812   1.461   6.969   7.841 -0.2109  1.5208 -1.2749
   61SAPC   H8Y 4813   1.352   7.088   7.931 -0.2727 -0.7479  1.8703
   61SAPC   C39 4814   1.261   6.906   7.831  0.1377 -0.2284 -0.1854
   61SAPC   H9X 4815   1.167   6.896   7.890  0.0590 -1.9326 -0.5510
   61SAPC   H9Y 4816   1.301   6.802   7.826  1.5717  0.2446  1.0478
   61SAPC  C310 4817   1.231   6.970   7.695  0.5498 -0.0544 -0.4679
   61SAPC  H10X 4818   1.213   7.077   7.717 -0.9770 -0.4953  0.5894
   61SAPC  H10Y 4819   1.134   6.931   7.656  1.7045 -2.9991 -0.6352
   61SAPC  C311 4820   1.326   6.952   7.577  0.1296 -0.0034 -0.0050
   61SAPC  H11X 4821   1.362   6.846   7.573 -3.0428 -1.1928  0.5647
   61SAPC  H11Y 4822   1.410   7.022   7.600 -0.2573 -0.0374  1.6644
   61SAPC  C312 4823   1.257   6.999   7.447 -0.6767  0.6744  0.9046
   61SAPC  H12X 4824   1.235   7.108   7.448  1.5404  1.2285 -1.1056
   61SAPC  H12Y 4825   1.160   6.948   7.427  0.3894 -0.2995 -2.3770
   61SAPC  C313 4826   1.345   6.962   7.321  0.0478 -0.7208 -0.0581
   61SAPC  H13X 4827   1.377   6.856   7.327 -0.3690 -0.8020  0.9505
   61SAPC  H13Y 4828   1.438   7.023   7.329 -0.1482 -0.5346  0.9073
   61SAPC  C314 4829   1.276   6.989   7.189 -0.1588  0.8894 -0.3750
   61SAPC  H14X 4830   1.216   7.082   7.185 -2.8625 -0.6020  1.8298
   61SAPC  H14Y 4831   1.197   6.913   7.171  0.1178  0.0611  1.5986
   61SAPC  C315 4832   1.375   7.014   7.069 -0.1845 -0.0435  0.2445
   61SAPC  H15X 4833   1.458   6.943   7.089  0.2140 -0.0232 -1.2267
   61SAPC  H15Y 4834   1.423   7.114   7.078 -2.1080  0.8784  0.7137
   61SAPC  C316 4835   1.321   6.989   6.921 -0.0009  1.1932 -1.1633
   61SAPC  H16X 4836   1.310   6.880   6.910  1.2200  1.0312 -0.9929
   61SAPC  H16Y 4837   1.394   7.020   6.843 -0.6324 -1.8043 -3.1071
   61SAPC  C317 4838   1.185   7.057   6.894  0.3598  0.1965 -0.0317
   61SAPC  H17X 4839   1.178   7.162   6.931 -1.5920  0.2271 -0.4139
   61SAPC  H17Y 4840   1.109   6.997   6.948 -0.9670  1.8236 -0.0137
   61SAPC  C318 4841   1.144   7.059   6.748 -0.2374  0.2453 -0.3417
   61SAPC  H18X 4842   1.051   7.120   6.752 -1.2082 -0.8499 -3.3169
   61SAPC  H18Y 4843   1.112   6.961   6.705 -1.0430  0.0865  0.5897
   61SAPC  H18Z 4844   1.206   7.112   6.673 -1.8280 -1.0073 -2.6853
   62SAPC     N 4845   0.960   6.234   9.597 -0.5038  0.3016 -0.1029
   62SAPC   C12 4846   0.894   6.222   9.467  0.0784  0.4172 -0.0246
   62SAPC  H12A 4847   0.962   6.152   9.420  1.5729  0.1701  2.3430
   62SAPC  H12B 4848   0.891   6.319   9.420 -1.1298  0.1755 -0.4823
   62SAPC   C13 4849   1.000   6.099   9.656  0.7196  0.2063  1.0781
   62SAPC  H13A 4850   1.060   6.043   9.586 -1.3205 -1.0578  0.2571
   62SAPC  H13B 4851   1.061   6.117   9.744  2.2389  1.8768 -0.2431
   62SAPC  H13C 4852   0.917   6.032   9.675 -0.0703  0.7753 -0.2639
   62SAPC   C14 4853   1.088   6.319   9.580 -0.2669  0.0657 -0.6689
   62SAPC  H14A 4854   1.151   6.270   9.507 -0.8321  0.3377 -1.3527
   62SAPC  H14B 4855   1.060   6.417   9.546  0.8334  1.2703  1.6475
   62SAPC  H14C 4856   1.145   6.329   9.671 -0.4657  2.7676 -0.7524
   62SAPC   C15 4857   0.874   6.303   9.697 -0.0372 -0.0544  0.7294
   62SAPC  H15A 4858   0.923   6.298   9.793  1.5213 -0.1550 -0.0243
   62SAPC  H15B 4859   0.856   6.409   9.685 -0.4954 -0.1631  0.4471
   62SAPC  H15C 4860   0.782   6.248   9.710  0.7495 -1.1925  1.6513
   62SAPC   C11 4861   0.747   6.160   9.467 -0.4191 -0.4374  0.1620
   62SAPC  H11A 4862   0.749   6.074   9.537  1.4128  0.0040  0.6956
   62SAPC  H11B 4863   0.717   6.131   9.364 -0.3940 -0.7675  0.2468
   62SAPC     P 4864   0.600   6.383   9.452 -0.0564  0.0952  0.2391
   62SAPC   O13 4865   0.511   6.340   9.343  0.8815 -0.0771  0.2281
   62SAPC   O14 4866   0.532   6.467   9.547 -0.2106 -0.1250 -0.9060
   62SAPC   O12 4867   0.661   6.255   9.524  1.1765  0.0568 -0.7479
   62SAPC   O11 4868   0.722   6.455   9.381  0.9818 -0.1274 -0.6088
   62SAPC    C1 4869   0.759   6.434   9.243 -0.4155 -0.5499  0.6226
   62SAPC    HA 4870   0.868   6.413   9.247 -0.8035 -2.7964  0.7485
   62SAPC    HB 4871   0.702   6.349   9.200 -1.0791  0.1914  0.0034
   62SAPC    C2 4872   0.730   6.565   9.160  0.1690 -0.1227 -0.2020
   62SAPC    HS 4873   0.779   6.652   9.209 -4.1375  0.8024  3.1065
   62SAPC   O21 4874   0.587   6.577   9.144 -0.1933  0.1330 -0.9217
   62SAPC   C21 4875   0.541   6.697   9.187 -0.0066 -0.0117  0.2304
   62SAPC   O22 4876   0.605   6.788   9.236 -0.0492 -0.0116  0.9052
   62SAPC   C22 4877   0.390   6.684   9.191 -0.5008 -0.5012  0.3914
   62SAPC   H2R 4878   0.372   6.579   9.158  0.8156 -0.7218  0.3271
   62SAPC   H2S 4879   0.360   6.693   9.298  1.7321 -0.6723  1.0932
   62SAPC    C3 4880   0.802   6.541   9.026  0.2244 -0.7405 -0.0544
   62SAPC    HX 4881   0.909   6.533   9.053  0.4718 -0.2475 -0.8476
   62SAPC    HY 4882   0.797   6.639   8.973 -1.2911 -0.6797  0.1464
   62SAPC   O31 4883   0.746   6.430   8.945 -0.1197  0.1329  0.0961
   62SAPC   C31 4884   0.840   6.354   8.890  0.7750  0.5704 -0.7592
   62SAPC   O32 4885   0.956   6.372   8.902 -0.2615  0.4793 -0.2228
   62SAPC   C32 4886   0.771   6.234   8.833  0.2029 -0.4318 -0.0215
   62SAPC   H2X 4887   0.673   6.212   8.881  1.0397 -0.4990  1.7378
   62SAPC   H2Y 4888   0.840   6.152   8.861 -1.9740 -1.3284  3.4469
   62SAPC   C23 4889   0.323   6.789   9.105  0.7127 -0.4974 -0.6827
   62SAPC   H3R 4890   0.384   6.879   9.128 -0.8866  0.9472 -1.8138
   62SAPC   H3S 4891   0.223   6.806   9.153  0.3935  0.5563 -1.6884
   62SAPC   C24 4892   0.302   6.762   8.956 -0.0449 -0.5030 -0.5131
   62SAPC   H4R 4893   0.252   6.854   8.920  1.1485  1.4076  2.2631
   62SAPC   H4S 4894   0.229   6.679   8.947 -0.9564  0.0721  1.0747
   62SAPC   C25 4895   0.433   6.735   8.882 -0.0807 -0.4504  0.6329
   62SAPC   H5R 4896   0.503   6.819   8.871 -0.1735 -0.4253  0.2199
   62SAPC   C26 4897   0.463   6.621   8.818 -0.9934  0.5305 -0.2538
   62SAPC   H6R 4898   0.559   6.597   8.771  0.1256 -0.4912  2.3370
   62SAPC   C27 4899   0.368   6.507   8.822 -0.5601  0.3784  0.2295
   62SAPC   H7R 4900   0.274   6.531   8.767 -1.4212 -1.4304  0.8097
   62SAPC   H7S 4901   0.335   6.483   8.926 -3.2726 -2.0611 -1.0315
   62SAPC   C28 4902   0.427   6.379   8.766 -0.9534 -0.0391 -0.1642
   62SAPC   H8R 4903   0.508   6.322   8.814 -1.1078 -1.7212 -1.8032
   62SAPC   C29 4904   0.397   6.335   8.643 -0.0215  0.0910  0.3801
   62SAPC   H9R 4905   0.457   6.254   8.597 -0.4890 -0.0983  0.0981
   62SAPC  C210 4906   0.309   6.402   8.544 -0.4370 -0.2041 -0.6970
   62SAPC  H10R 4907   0.350   6.504   8.529 -2.9157  0.7783 -1.1798
   62SAPC  H10S 4908   0.209   6.417   8.590 -0.3320  0.2064 -0.6019
   62SAPC  C211 4909   0.292   6.349   8.407 -0.7191  0.7112  0.2502
   62SAPC  H11R 4910   0.189   6.316   8.388 -1.6334  2.3251  2.0211
   62SAPC  C212 4911   0.387   6.331   8.318 -0.1697  0.4198  0.4220
   62SAPC  H12R 4912   0.361   6.294   8.218  0.7089  0.2233  0.2650
   62SAPC  C213 4913   0.526   6.376   8.336 -0.4437  0.6635 -0.1316
   62SAPC  H13R 4914   0.591   6.289   8.356  1.3331  1.8958 -0.2923
   62SAPC  H13S 4915   0.549   6.442   8.422  1.4314  0.9969 -0.8274
   62SAPC  C214 4916   0.576   6.463   8.219  0.0957 -0.8159 -0.5492
   62SAPC  H14R 4917   0.551   6.570   8.210 -0.1418 -0.7982  0.2174
   62SAPC  C215 4918   0.637   6.411   8.117 -0.3091 -0.1914  0.1478
   62SAPC  H15R 4919   0.676   6.472   8.034 -2.1620  0.1466 -0.5203
   62SAPC  C216 4920   0.660   6.269   8.086 -0.5905 -0.1751  0.2160
   62SAPC  H16R 4921   0.650   6.196   8.169 -0.0057 -1.8444 -1.1257
   62SAPC  H16S 4922   0.769   6.259   8.064 -0.3431 -1.5171  1.8685
   62SAPC  C217 4923   0.577   6.223   7.966  0.5690  0.4221  0.1548
   62SAPC  H17R 4924   0.588   6.296   7.883  1.6524  0.9040  0.7167
   62SAPC  H17S 4925   0.473   6.223   8.008  0.4269  1.0106 -0.1850
   62SAPC  C218 4926   0.611   6.085   7.909 -0.0443 -0.7457  0.4092
   62SAPC  H18R 4927   0.525   6.053   7.846 -1.2832 -0.5290  1.9203
   62SAPC  H18S 4928   0.608   6.012   7.993 -0.7024 -1.7949 -0.4903
   62SAPC  C219 4929   0.747   6.083   7.833 -0.1137 -0.0244  0.0195
   62SAPC  H19R 4930   0.775   5.978   7.809 -1.6387 -1.1370  2.7070
   62SAPC  H19S 4931   0.837   6.118   7.887  1.0593 -2.5326 -0.1587
   62SAPC  C220 4932   0.737   6.168   7.708 -0.0526 -0.4298 -0.5675
   62SAPC  H20R 4933   0.810   6.147   7.627  0.2237  0.2375 -0.5012
   62SAPC  H20S 4934   0.738   6.276   7.734 -0.7381 -0.9506  1.9556
   62SAPC  H20T 4935   0.634   6.151   7.671 -0.4091  1.0263 -0.3057
   62SAPC   C33 4936   0.749   6.245   8.681  0.6716 -0.5950 -0.0583
   62SAPC   H3X 4937   0.689   6.332   8.647 -0.9572 -2.0340 -1.0344
   62SAPC   H3Y 4938   0.716   6.146   8.642  1.3940  0.0363 -2.4744
   62SAPC   C34 4939   0.887   6.267   8.614 -0.1581 -0.3419  0.2027
   62SAPC   H4X 4940   0.955   6.207   8.677 -1.0908 -0.5158  1.0751
   62SAPC   H4Y 4941   0.922   6.371   8.634 -2.2023  0.4305  0.0464
   62SAPC   C35 4942   0.897   6.231   8.468 -0.3000 -0.1265 -0.0727
   62SAPC   H5X 4943   0.852   6.311   8.405 -0.6439 -0.6992 -0.5623
   62SAPC   H5Y 4944   0.861   6.127   8.454 -0.8324  0.0852 -0.2975
   62SAPC   C36 4945   1.042   6.232   8.420 -0.2528  0.2312  0.4446
   62SAPC   H6X 4946   1.108   6.172   8.487 -0.1843  1.2700  1.3423
   62SAPC   H6Y 4947   1.078   6.337   8.422 -1.8709  0.9276 -2.2581
   62SAPC   C37 4948   1.042   6.174   8.279  0.1682 -0.1394  0.4347
   62SAPC   H7X 4949   0.964   6.229   8.223  0.9883  0.6324  0.0128
   62SAPC   H7Y 4950   1.011   6.067   8.277  0.6634 -0.2745 -0.8227
   62SAPC   C38 4951   1.183   6.190   8.209  0.4541 -0.4661 -0.2747
   62SAPC   H8X 4952   1.255   6.143   8.279  1.8607  0.6640 -0.9200
   62SAPC   H8Y 4953   1.212   6.297   8.214  1.5472 -0.7818  0.4995
   62SAPC   C39 4954   1.197   6.140   8.071  0.9769  0.1918 -0.4297
   62SAPC   H9X 4955   1.110   6.177   8.012  0.3598  0.8551  0.8651
   62SAPC   H9Y 4956   1.175   6.031   8.072  0.2976  0.3213  0.4406
   62SAPC  C310 4957   1.327   6.180   8.003 -0.0404 -0.2811 -0.1834
   62SAPC  H10X 4958   1.342   6.289   8.017  1.2447 -0.5000  0.2512
   62SAPC  H10Y 4959   1.314   6.165   7.894  0.0937  0.8787 -0.3757
   62SAPC  C311 4960   1.451   6.112   8.057  1.3681 -0.1626 -0.0758
   62SAPC  H11X 4961   1.437   6.002   8.053 -0.3836  0.0523 -0.8908
   62SAPC  H11Y 4962   1.459   6.140   8.164  1.0039  0.0507 -0.1047
   62SAPC  C312 4963   1.585   6.143   7.986  0.7150 -0.6297 -0.3558
   62SAPC  H12X 4964   1.677   6.134   8.048  1.0216  1.8202 -0.3727
   62SAPC  H12Y 4965   1.576   6.251   7.961  1.8965 -0.1243  1.2757
   62SAPC  C313 4966   1.610   6.062   7.856 -0.3918 -0.2750 -0.5383
   62SAPC  H13X 4967   1.536   6.091   7.778 -2.5040 -3.3576  0.1334
   62SAPC  H13Y 4968   1.595   5.953   7.869 -0.7298 -0.1107  0.5122
   62SAPC  C314 4969   1.753   6.077   7.814 -0.6765  0.0384 -0.9993
   62SAPC  H14X 4970   1.816   6.059   7.904 -1.2889  0.9126 -0.3738
   62SAPC  H14Y 4971   1.775   6.183   7.789  0.7218 -0.0870 -0.3620
   62SAPC  C315 4972   1.785   5.993   7.696  0.0369  0.7543 -0.3459
   62SAPC  H15X 4973   1.734   6.045   7.611  0.0432  1.6872  0.2162
   62SAPC  H15Y 4974   1.748   5.888   7.703 -2.8039  1.7304  0.7200
   62SAPC  C316 4975   1.936   5.995   7.668 -0.5305 -0.2163  1.2865
   62SAPC  H16X 4976   2.004   5.927   7.725  0.4905  0.8606  1.3730
   62SAPC  H16Y 4977   1.974   6.094   7.699 -1.6526  1.1134 -1.3353
   62SAPC  C317 4978   1.973   5.987   7.516 -0.0516  0.2848  0.3900
   62SAPC  H17X 4979   1.976   5.882   7.481 -0.7482  0.0460  1.0122
   62SAPC  H17Y 4980   2.072   6.034   7.496 -0.2045  0.3963 -0.1164
   62SAPC  C318 4981   1.879   6.059   7.412  0.3144  0.2310 -0.4912
   62SAPC  H18X 4982   1.779   6.009   7.418  0.7681 -0.8036 -1.3008
   62SAPC  H18Y 4983   1.923   6.056   7.310 -0.8869  1.5921 -1.0862
   62SAPC  H18Z 4984   1.859   6.163   7.445  1.0525 -0.2791  1.7900
   63SAPC     N 4985   3.323   4.302   5.328  0.1017  0.2926 -0.2639
   63SAPC   C12 4986   3.442   4.211   5.314 -0.5487  0.0450  0.8051
   63SAPC  H12A 4987   3.432   4.148   5.227 -0.8276 -0.1567  0.9831
   63SAPC  H12B 4988   3.441   4.149   5.402  0.4034  0.3992  1.0734
   63SAPC   C13 4989   3.333   4.409   5.225  0.4731 -0.6900 -0.2482
   63SAPC  H13A 4990   3.310   4.379   5.124  2.4963  0.4468 -1.1179
   63SAPC  H13B 4991   3.268   4.491   5.253 -0.0659 -1.5330  1.0413
   63SAPC  H13C 4992   3.429   4.457   5.227 -0.9193  2.2993  0.4041
   63SAPC   C14 4993   3.191   4.237   5.313 -0.0335 -0.0466  0.4528
   63SAPC  H14A 4994   3.179   4.151   5.377 -0.3769 -1.0957 -0.9734
   63SAPC  H14B 4995   3.119   4.317   5.325  2.1780  2.4049 -1.4266
   63SAPC  H14C 4996   3.178   4.206   5.210 -0.9887 -0.8593  0.7970
   63SAPC   C15 4997   3.326   4.351   5.469  0.5661 -0.2946 -0.0589
   63SAPC  H15A 4998   3.247   4.425   5.475  0.2261 -0.3085 -2.9994
   63SAPC  H15B 4999   3.310   4.267   5.535 -1.0122 -1.4205 -1.7837
   63SAPC  H15C 5000   3.424   4.393   5.488  1.1094 -1.7299  0.4123
   63SAPC   C11 5001   3.590   4.270   5.310 -0.1120 -0.1787 -0.2328
   63SAPC  H11A 5002   3.610   4.336   5.223 -0.1089  1.3665  0.9038
   63SAPC  H11B 5003   3.662   4.188   5.291 -1.2776 -0.5898 -3.4266
   63SAPC     P 5004   3.646   4.492   5.441 -0.3121  0.8567  0.1861
   63SAPC   O13 5005   3.793   4.517   5.454 -0.5241 -0.2627 -0.0973
   63SAPC   O14 5006   3.576   4.570   5.336  0.3223  0.6754  0.4463
   63SAPC   O12 5007   3.624   4.337   5.432 -0.0191  0.2340  1.0186
   63SAPC   O11 5008   3.574   4.525   5.576  0.4944 -0.1094 -0.3020
   63SAPC    C1 5009   3.640   4.475   5.693 -0.0146  0.3658  0.7222
   63SAPC    HA 5010   3.646   4.364   5.685 -2.7688  0.1317  1.1403
   63SAPC    HB 5011   3.745   4.509   5.710 -0.1496 -0.3273  3.2590
   63SAPC    C2 5012   3.564   4.514   5.819  0.7171 -0.2028 -0.7183
   63SAPC    HS 5013   3.455   4.510   5.795  0.9781  2.5954 -3.0229
   63SAPC   O21 5014   3.587   4.654   5.835  0.6304 -0.0356  0.5247
   63SAPC   C21 5015   3.525   4.705   5.942 -0.5066  0.0958 -0.6282
   63SAPC   O22 5016   3.421   4.666   5.989  0.2281  0.9583  0.2675
   63SAPC   C22 5017   3.593   4.834   5.985 -0.2964  0.4371  0.1151
   63SAPC   H2R 5018   3.687   4.844   5.926 -0.0859 -1.1532  0.1438
   63SAPC   H2S 5019   3.528   4.918   5.953 -0.3467  0.3019 -0.1446
   63SAPC    C3 5020   3.590   4.423   5.950  0.6152  0.5590  0.0926
   63SAPC    HX 5021   3.562   4.328   5.900 -0.8528  1.8136 -1.5914
   63SAPC    HY 5022   3.508   4.441   6.022 -1.5509 -0.9038 -1.8685
   63SAPC   O31 5023   3.723   4.429   6.000  0.4989  0.0261  0.3314
   63SAPC   C31 5024   3.745   4.317   6.068  0.3010  0.0093  0.8076
   63SAPC   O32 5025   3.661   4.227   6.080  0.6558 -0.8029  0.3883
   63SAPC   C32 5026   3.891   4.322   6.114 -0.4684  0.3877 -0.6685
   63SAPC   H2X 5027   3.951   4.408   6.076  0.3905  1.1358  2.1935
   63SAPC   H2Y 5028   3.934   4.225   6.081  3.1005  1.8703 -0.8486
   63SAPC   C23 5029   3.631   4.852   6.131 -0.1538 -0.1040  0.1936
   63SAPC   H3R 5030   3.532   4.865   6.180 -0.2833  0.9014 -0.2954
   63SAPC   H3S 5031   3.687   4.947   6.148 -0.1861 -0.1871  0.7759
   63SAPC   C24 5032   3.720   4.746   6.196  0.1472  0.4971  0.3992
   63SAPC   H4R 5033   3.653   4.658   6.204  1.2853 -0.5119 -0.8894
   63SAPC   H4S 5034   3.750   4.785   6.296  1.0443 -0.6854  0.6143
   63SAPC   C25 5035   3.842   4.702   6.114  0.1711  0.1214 -0.1038
   63SAPC   H5R 5036   3.818   4.622   6.043 -1.0728 -3.5754  4.0425
   63SAPC   C26 5037   3.967   4.750   6.120  0.3858  0.5609  0.0703
   63SAPC   H6R 5038   4.045   4.705   6.056 -0.1405  0.5535 -0.5835
   63SAPC   C27 5039   4.025   4.849   6.219 -0.7426 -0.8915  0.4077
   63SAPC   H7R 5040   3.943   4.921   6.240  0.3359 -0.0177  1.7650
   63SAPC   H7S 5041   4.104   4.906   6.167 -0.8615 -1.2948 -0.2286
   63SAPC   C28 5042   4.069   4.791   6.355 -0.1316  0.1177  0.1488
   63SAPC   H8R 5043   4.000   4.808   6.438  2.1760  0.0018  2.1912
   63SAPC   C29 5044   4.177   4.713   6.368 -0.7688  0.4666  0.9697
   63SAPC   H9R 5045   4.185   4.655   6.461 -2.0991 -0.4236  0.5509
   63SAPC  C210 5046   4.283   4.677   6.262 -0.1605  0.0956 -0.0741
   63SAPC  H10R 5047   4.380   4.678   6.318  0.2767 -1.5395 -0.7594
   63SAPC  H10S 5048   4.289   4.757   6.186  2.1567 -0.5405 -0.6449
   63SAPC  C211 5049   4.261   4.549   6.196 -0.4201 -0.4984 -0.2867
   63SAPC  H11R 5050   4.239   4.566   6.089  0.3038 -0.6867 -0.4719
   63SAPC  C212 5051   4.293   4.426   6.240  0.1411  0.2649 -0.7504
   63SAPC  H12R 5052   4.285   4.339   6.173  2.2655  0.2854 -1.0946
   63SAPC  C213 5053   4.334   4.382   6.376  0.1424 -0.2579 -0.4842
   63SAPC  H13R 5054   4.367   4.469   6.435  1.4686 -0.2875 -1.1434
   63SAPC  H13S 5055   4.423   4.317   6.360 -0.6416 -1.6580  0.6193
   63SAPC  C214 5056   4.226   4.305   6.454 -0.4879 -0.4799 -0.7871
   63SAPC  H14R 5057   4.150   4.372   6.495  0.5572  0.2411  0.0462
   63SAPC  C215 5058   4.231   4.176   6.502 -0.3737 -0.0638  0.1748
   63SAPC  H15R 5059   4.147   4.147   6.568 -1.2813  1.9800 -0.0102
   63SAPC  C216 5060   4.333   4.066   6.479  0.4485 -0.5009  0.1375
   63SAPC  H16R 5061   4.384   4.041   6.574  2.3587  1.6793 -0.2256
   63SAPC  H16S 5062   4.419   4.105   6.419  0.7751  1.6910  1.9039
   63SAPC  C217 5063   4.265   3.952   6.408  0.2321  0.6334 -0.3599
   63SAPC  H17R 5064   4.195   3.887   6.465  2.0013 -1.1437 -0.0843
   63SAPC  H17S 5065   4.347   3.884   6.376 -0.4790  0.1868 -1.2735
   63SAPC  C218 5066   4.212   3.989   6.266 -0.0880 -0.5128  0.6514
   63SAPC  H18R 5067   4.291   4.043   6.209 -1.0736 -1.3760 -1.6434
   63SAPC  H18S 5068   4.132   4.064   6.286  1.9729  1.3732  2.4203
   63SAPC  C219 5069   4.151   3.881   6.181  0.2941  0.6765  0.2366
   63SAPC  H19R 5070   4.102   3.812   6.253  1.9669 -0.5162  0.2973
   63SAPC  H19S 5071   4.243   3.839   6.134 -1.3927  0.5191 -3.2501
   63SAPC  C220 5072   4.062   3.932   6.069  0.9123  0.4626  0.2576
   63SAPC  H20R 5073   4.038   3.845   6.003 -0.2249  1.4253 -0.6391
   63SAPC  H20S 5074   4.123   4.007   6.014  1.2692  0.3091  0.4376
   63SAPC  H20T 5075   3.969   3.974   6.112  0.4915 -1.5573  1.4436
   63SAPC   C33 5076   3.903   4.309   6.265  0.2793 -0.6117  0.5828
   63SAPC   H3X 5077   4.012   4.303   6.283  0.3316  0.0070  0.4643
   63SAPC   H3Y 5078   3.854   4.218   6.309  0.4002 -0.3196  1.3408
   63SAPC   C34 5079   3.850   4.434   6.335 -0.0252 -0.8866 -0.3198
   63SAPC   H4X 5080   3.750   4.453   6.290  0.2234  1.5860  0.0357
   63SAPC   H4Y 5081   3.917   4.517   6.306 -0.1531 -0.4068  0.6948
   63SAPC   C35 5082   3.843   4.423   6.491  0.4654 -0.5568 -0.0070
   63SAPC   H5X 5083   3.937   4.389   6.539  0.3832  0.2438  0.7595
   63SAPC   H5Y 5084   3.781   4.332   6.508  0.8874 -1.1420 -1.4965
   63SAPC   C36 5085   3.795   4.543   6.566  0.2759  0.2824 -0.2594
   63SAPC   H6X 5086   3.703   4.582   6.518 -0.6132 -3.0700 -1.5647
   63SAPC   H6Y 5087   3.871   4.623   6.558 -0.3010  0.6273 -3.2863
   63SAPC   C37 5088   3.745   4.500   6.706  0.0442 -0.1552 -0.4282
   63SAPC   H7X 5089   3.830   4.451   6.758  0.9651  0.3999 -1.3677
   63SAPC   H7Y 5090   3.656   4.434   6.697 -0.8910  0.9375  0.5158
   63SAPC   C38 5091   3.724   4.617   6.805  0.2229 -0.0526 -0.3093
   63SAPC   H8X 5092   3.629   4.670   6.783 -1.3216 -2.4066  0.2881
   63SAPC   H8Y 5093   3.805   4.694   6.796  0.3861 -0.2605 -0.6505
   63SAPC   C39 5094   3.725   4.560   6.952 -0.2880  0.2098  0.4551
   63SAPC   H9X 5095   3.671   4.463   6.962  0.3928 -0.1756  0.4052
   63SAPC   H9Y 5096   3.671   4.635   7.014  1.1019  0.1817  1.7626
   63SAPC  C310 5097   3.858   4.555   7.026  0.3692 -0.9183  0.2243
   63SAPC  H10X 5098   3.923   4.641   7.001  0.2366 -0.8201  0.2137
   63SAPC  H10Y 5099   3.917   4.463   7.008  0.6073 -0.6231 -0.5141
   63SAPC  C311 5100   3.840   4.541   7.175 -0.5270 -0.2379 -0.0391
   63SAPC  H11X 5101   3.774   4.454   7.192 -1.6287  0.3813 -1.0469
   63SAPC  H11Y 5102   3.773   4.619   7.217 -0.0896  1.4889 -2.3014
   63SAPC  C312 5103   3.974   4.520   7.245 -0.2824  0.4435  0.0554
   63SAPC  H12X 5104   4.038   4.612   7.241  0.0119  0.2247 -0.3525
   63SAPC  H12Y 5105   4.036   4.446   7.191 -0.0417 -0.5641  1.6569
   63SAPC  C313 5106   3.960   4.466   7.388 -0.3519 -0.1338 -0.7838
   63SAPC  H13X 5107   4.056   4.432   7.431 -1.0152 -0.2598  0.6571
   63SAPC  H13Y 5108   3.879   4.390   7.393 -1.3315  0.9637  2.0989
   63SAPC  C314 5109   3.922   4.586   7.486  0.6632 -0.5307  0.2888
   63SAPC  H14X 5110   3.873   4.659   7.419 -0.0832 -0.0681  1.3024
   63SAPC  H14Y 5111   4.013   4.637   7.522 -0.3016  1.5617 -0.0878
   63SAPC  C315 5112   3.813   4.555   7.591  0.4891 -0.0604 -0.7689
   63SAPC  H15X 5113   3.849   4.494   7.677 -0.8848  0.7112  0.3929
   63SAPC  H15Y 5114   3.729   4.496   7.549 -1.5799  1.0985  1.4589
   63SAPC  C316 5115   3.744   4.689   7.637  0.1613  0.5000 -0.1620
   63SAPC  H16X 5116   3.826   4.764   7.648 -0.4471  1.2594 -0.6767
   63SAPC  H16Y 5117   3.697   4.672   7.736 -1.0345  0.7366 -0.6732
   63SAPC  C317 5118   3.630   4.732   7.550  0.5023 -0.4452  0.2067
   63SAPC  H17X 5119   3.551   4.654   7.540 -2.3088  2.3539 -1.2054
   63SAPC  H17Y 5120   3.669   4.764   7.451 -2.8146  0.1516 -1.0263
   63SAPC  C318 5121   3.566   4.854   7.610  0.6379 -0.0529 -0.1309
   63SAPC  H18X 5122   3.508   4.901   7.528  1.6521 -3.8235 -3.3446
   63SAPC  H18Y 5123   3.649   4.919   7.645 -0.0359  0.4065  0.6323
   63SAPC  H18Z 5124   3.502   4.840   7.699 -1.1181  2.9697 -0.7864
   64SAPC     N 5125   3.693   5.752   5.410  0.6452  0.4451 -0.4654
   64SAPC   C12 5126   3.680   5.901   5.450 -0.1114 -0.1681  0.4092
   64SAPC  H12A 5127   3.777   5.947   5.440 -0.9192  1.0756 -3.3293
   64SAPC  H12B 5128   3.648   5.918   5.552 -2.4110 -0.0273 -0.2760
   64SAPC   C13 5129   3.774   5.686   5.515 -0.0086  0.1880 -0.0235
   64SAPC  H13A 5130   3.778   5.578   5.518 -2.0756  0.0940  2.3678
   64SAPC  H13B 5131   3.873   5.725   5.536  0.3514 -0.0492 -1.2088
   64SAPC  H13C 5132   3.724   5.699   5.609 -0.6716  1.5358 -0.5373
   64SAPC   C14 5133   3.560   5.683   5.430  0.4588  0.1218  0.5752
   64SAPC  H14A 5134   3.526   5.696   5.531 -1.5820  2.5670 -0.3120
   64SAPC  H14B 5135   3.485   5.734   5.371 -0.6394 -1.9107  0.1116
   64SAPC  H14C 5136   3.556   5.580   5.397 -0.0393  0.3331 -0.0518
   64SAPC   C15 5137   3.746   5.733   5.275  1.1815  0.0342  0.0111
   64SAPC  H15A 5138   3.845   5.773   5.258  1.2794 -0.4011 -0.4644
   64SAPC  H15B 5139   3.742   5.631   5.240 -0.4160 -0.0403  0.3552
   64SAPC  H15C 5140   3.678   5.787   5.211  0.8123  0.3225  0.6446
   64SAPC   C11 5141   3.581   5.993   5.379  0.4559 -0.3278 -0.0393
   64SAPC  H11A 5142   3.600   5.992   5.269  0.6026 -2.1715 -0.0131
   64SAPC  H11B 5143   3.608   6.099   5.400  1.3597 -0.1854 -1.6988
   64SAPC     P 5144   3.393   6.025   5.551 -0.2692  0.1537 -0.3433
   64SAPC   O13 5145   3.302   6.142   5.534  0.0806 -0.0749 -0.0716
   64SAPC   O14 5146   3.326   5.916   5.622  0.0619 -0.2918 -0.2083
   64SAPC   O12 5147   3.440   5.967   5.416 -0.4361  0.2021 -0.0290
   64SAPC   O11 5148   3.526   6.061   5.627 -0.3080 -0.1763  0.0071
   64SAPC    C1 5149   3.561   6.190   5.677 -0.5327  0.1316 -0.6729
   64SAPC    HA 5150   3.541   6.263   5.595  0.8529 -1.1448 -2.2386
   64SAPC    HB 5151   3.506   6.224   5.767 -0.8803  2.0510 -1.5625
   64SAPC    C2 5152   3.708   6.202   5.715 -0.3616  0.3473 -0.2392
   64SAPC    HS 5153   3.761   6.187   5.619 -0.0119 -0.5280  0.0790
   64SAPC   O21 5154   3.738   6.081   5.791 -0.4834 -0.0079 -0.5169
   64SAPC   C21 5155   3.872   6.060   5.797  0.1135 -0.3127  0.0173
   64SAPC   O22 5156   3.958   6.132   5.747 -0.3702  0.0038 -0.6437
   64SAPC   C22 5157   3.909   5.938   5.885 -0.2189 -0.2942  0.6178
   64SAPC   H2R 5158   3.844   5.959   5.972 -0.7181  0.2552  0.1182
   64SAPC   H2S 5159   3.860   5.846   5.847  0.4447 -0.3557 -0.1144
   64SAPC    C3 5160   3.748   6.339   5.772  0.4061 -0.1601  0.0962
   64SAPC    HX 5161   3.715   6.423   5.708  0.6688  0.6011  0.9441
   64SAPC    HY 5162   3.858   6.352   5.763  0.0285  1.9222 -2.9183
   64SAPC   O31 5163   3.697   6.353   5.905  0.0126 -0.3698 -0.5160
   64SAPC   C31 5164   3.608   6.448   5.929  0.2457 -0.8272  0.6577
   64SAPC   O32 5165   3.550   6.514   5.844 -0.2981  0.2990 -0.3702
   64SAPC   C32 5166   3.575   6.467   6.077  1.2494  0.3483  0.6097
   64SAPC   H2X 5167   3.475   6.420   6.080  1.3369  0.1910  2.6694
   64SAPC   H2Y 5168   3.564   6.577   6.093  1.8194  0.5792 -0.4662
   64SAPC   C23 5169   4.054   5.933   5.929  0.6514  0.7149  0.0998
   64SAPC   H3R 5170   4.093   6.037   5.938 -0.5444  1.0700  1.3281
   64SAPC   H3S 5171   4.109   5.865   5.861 -1.9837 -0.1736 -1.2446
   64SAPC   C24 5172   4.071   5.881   6.075 -0.1932  0.0647  0.0810
   64SAPC   H4R 5173   4.035   5.961   6.143  0.1547 -0.0591  0.4142
   64SAPC   H4S 5174   4.177   5.859   6.102 -0.8120 -2.9228  0.4327
   64SAPC   C25 5175   3.997   5.750   6.089 -0.0737 -0.1215 -0.2403
   64SAPC   H5R 5176   4.054   5.668   6.043  0.0860 -0.3914  0.4213
   64SAPC   C26 5177   3.872   5.729   6.143 -1.2796  0.5311  0.1555
   64SAPC   H6R 5178   3.828   5.628   6.144  0.0573 -0.0812  1.7481
   64SAPC   C27 5179   3.781   5.826   6.214  0.6894 -0.4193 -0.3011
   64SAPC   H7R 5180   3.716   5.882   6.143  0.1855 -0.9807 -0.2929
   64SAPC   H7S 5181   3.846   5.897   6.269 -0.6062  1.1786 -0.7566
   64SAPC   C28 5182   3.703   5.746   6.306  0.3471 -0.8044  0.1661
   64SAPC   H8R 5183   3.634   5.678   6.255  0.6626  0.2084 -1.7227
   64SAPC   C29 5184   3.707   5.740   6.447  0.2810  0.2643  0.3390
   64SAPC   H9R 5185   3.632   5.683   6.503 -0.0458 -0.1164 -0.4788
   64SAPC  C210 5186   3.801   5.828   6.534  1.1310  0.4687 -0.6903
   64SAPC  H10R 5187   3.753   5.846   6.633  0.9034  0.3624 -0.7798
   64SAPC  H10S 5188   3.806   5.932   6.494 -3.3936  1.1366 -0.1446
   64SAPC  C211 5189   3.944   5.779   6.538  0.8967  0.8543 -0.2860
   64SAPC  H11R 5190   3.989   5.741   6.446  1.0310  1.0530 -0.3051
   64SAPC  C212 5191   4.021   5.801   6.646 -0.5313  0.3876 -0.6354
   64SAPC  H12R 5192   4.119   5.754   6.631 -1.4614 -1.1898 -2.1276
   64SAPC  C213 5193   3.993   5.872   6.785  0.0103  0.3367 -0.3460
   64SAPC  H13R 5194   3.953   5.975   6.774 -0.3891  0.1582 -0.5677
   64SAPC  H13S 5195   4.093   5.886   6.832  1.1718 -0.7259 -2.3537
   64SAPC  C214 5196   3.881   5.809   6.873 -0.5940  0.0693 -0.1361
   64SAPC  H14R 5197   3.803   5.757   6.816  0.5757 -0.1857 -1.5603
   64SAPC  C215 5198   3.886   5.800   7.005 -0.7023 -1.0125 -0.1056
   64SAPC  H15R 5199   3.798   5.761   7.059 -1.2947 -0.2907 -0.5350
   64SAPC  C216 5200   3.991   5.847   7.101 -0.0907 -0.3917  0.0958
   64SAPC  H16R 5201   3.950   5.913   7.180 -0.8818 -1.3842  0.5343
   64SAPC  H16S 5202   4.071   5.899   7.043 -0.9489 -1.3607 -2.0648
   64SAPC  C217 5203   4.059   5.724   7.162 -0.2620 -0.5671  0.3737
   64SAPC  H17R 5204   4.127   5.764   7.239  1.0593 -1.3378 -0.3473
   64SAPC  H17S 5205   4.122   5.689   7.077 -0.9756  1.7724 -1.2314
   64SAPC  C218 5206   3.962   5.615   7.227 -0.2190  0.9103 -0.2841
   64SAPC  H18R 5207   3.911   5.565   7.142 -0.3334 -0.5799  0.6233
   64SAPC  H18S 5208   3.888   5.675   7.283  1.6481  2.9064  0.1673
   64SAPC  C219 5209   4.030   5.523   7.330 -0.1118  0.3994 -0.2683
   64SAPC  H19R 5210   4.063   5.586   7.414 -0.2162  0.1936 -0.0717
   64SAPC  H19S 5211   4.117   5.470   7.286 -0.5820  1.4952 -2.7231
   64SAPC  C220 5212   3.921   5.421   7.368 -0.7129  0.1512 -0.3409
   64SAPC  H20R 5213   3.976   5.350   7.434 -1.0323  1.2323  1.1313
   64SAPC  H20S 5214   3.883   5.387   7.269  4.0170  0.9733 -2.6919
   64SAPC  H20T 5215   3.839   5.469   7.425  0.4930  1.4663  0.3353
   64SAPC   C33 5216   3.658   6.382   6.177  0.0499 -0.0463 -0.1111
   64SAPC   H3X 5217   3.768   6.400   6.171  0.2803 -0.9473  1.1432
   64SAPC   H3Y 5218   3.655   6.274   6.152 -0.5014 -0.4866  1.7171
   64SAPC   C34 5219   3.611   6.395   6.324 -0.1344  0.4311 -0.7725
   64SAPC   H4X 5220   3.521   6.335   6.349  0.8711 -1.1259 -0.7625
   64SAPC   H4Y 5221   3.595   6.502   6.347  0.0195  0.4177 -0.5918
   64SAPC   C35 5222   3.715   6.331   6.429 -0.1491  0.1883  0.5903
   64SAPC   H5X 5223   3.817   6.376   6.422 -1.1658  2.3359 -3.3163
   64SAPC   H5Y 5224   3.721   6.223   6.403  2.6438  0.5731 -0.7319
   64SAPC   C36 5225   3.661   6.355   6.567  0.0220  0.1686 -0.5586
   64SAPC   H6X 5226   3.559   6.312   6.565 -0.4006  1.1099 -0.0568
   64SAPC   H6Y 5227   3.646   6.461   6.598 -1.6980 -0.5789  1.3434
   64SAPC   C37 5228   3.742   6.284   6.674 -0.3571 -0.3208  0.9967
   64SAPC   H7X 5229   3.827   6.354   6.688  0.5146 -1.3080  0.7182
   64SAPC   H7Y 5230   3.778   6.187   6.633  0.3393  0.6280 -0.7335
   64SAPC   C38 5231   3.668   6.272   6.810 -0.2921  0.2078 -0.1910
   64SAPC   H8X 5232   3.596   6.189   6.793  1.3034 -1.2452 -0.1246
   64SAPC   H8Y 5233   3.607   6.361   6.837  1.8455  1.6118  0.2413
   64SAPC   C39 5234   3.763   6.243   6.925 -0.4836  0.5090 -0.1741
   64SAPC   H9X 5235   3.862   6.293   6.920 -0.2275 -0.0209 -0.3762
   64SAPC   H9Y 5236   3.786   6.135   6.925 -0.5046  0.5007  0.2574
   64SAPC  C310 5237   3.699   6.275   7.065  0.6900  0.1836  0.1219
   64SAPC  H10X 5238   3.609   6.212   7.085  0.0432  0.7867 -0.8189
   64SAPC  H10Y 5239   3.674   6.383   7.062 -2.1710 -0.3419  1.2161
   64SAPC  C311 5240   3.794   6.231   7.183  0.4166 -0.3133  0.0285
   64SAPC  H11X 5241   3.900   6.262   7.165 -0.2892  1.4124 -1.4196
   64SAPC  H11Y 5242   3.796   6.120   7.192 -2.3258 -0.3135  1.6799
   64SAPC  C312 5243   3.753   6.277   7.318  0.3599 -0.5465 -0.3716
   64SAPC  H12X 5244   3.728   6.385   7.317 -1.4469 -0.9232 -0.0559
   64SAPC  H12Y 5245   3.833   6.261   7.394 -0.3363 -1.0492  0.2745
   64SAPC  C313 5246   3.621   6.221   7.369 -0.4354 -0.2201  0.1946
   64SAPC  H13X 5247   3.633   6.110   7.366 -2.1275 -0.5987  2.8750
   64SAPC  H13Y 5248   3.542   6.246   7.296  0.9416 -1.0517 -1.6469
   64SAPC  C314 5249   3.590   6.250   7.517 -0.6323 -0.1552  0.5221
   64SAPC  H14X 5250   3.625   6.355   7.508 -1.6979  0.0525 -2.3681
   64SAPC  H14Y 5251   3.655   6.198   7.590 -0.3100  1.3406  1.3374
   64SAPC  C315 5252   3.450   6.246   7.563  0.7167 -0.1903  1.1048
   64SAPC  H15X 5253   3.426   6.138   7.567  0.7160 -0.1657  1.9394
   64SAPC  H15Y 5254   3.384   6.292   7.486 -1.3955 -3.0313  1.0768
   64SAPC  C316 5255   3.413   6.306   7.697 -0.0955  0.4530  0.5612
   64SAPC  H16X 5256   3.305   6.334   7.700  0.2149  1.6744  0.8192
   64SAPC  H16Y 5257   3.482   6.390   7.716 -0.1579  0.3722  1.1530
   64SAPC  C317 5258   3.437   6.203   7.816  0.4500  0.0988 -0.4219
   64SAPC  H17X 5259   3.543   6.170   7.824  0.4812  0.5862  2.4172
   64SAPC  H17Y 5260   3.385   6.110   7.783  0.8249 -0.2551 -0.0373
   64SAPC  C318 5261   3.385   6.253   7.948 -0.3392  0.0303 -0.3134
   64SAPC  H18X 5262   3.464   6.298   8.012 -0.9641 -1.0364  1.2904
   64SAPC  H18Y 5263   3.330   6.172   8.001 -0.2819  0.4602  0.4156
   64SAPC  H18Z 5264   3.319   6.340   7.930  2.8542  2.3083 -1.9748
   65SAPC     N 5265   4.909   6.755   5.818 -0.1655 -0.6465  0.3810
   65SAPC   C12 5266   5.036   6.665   5.830  0.0339  0.0862 -0.0534
   65SAPC  H12A 5267   5.113   6.715   5.887 -0.9527 -0.9417  2.3464
   65SAPC  H12B 5268   5.063   6.645   5.728 -0.5119 -2.8546  0.2857
   65SAPC   C13 5269   4.864   6.813   5.952 -0.1481 -0.3485  0.0072
   65SAPC  H13A 5270   4.818   6.910   5.936  0.0653  0.0597  1.6886
   65SAPC  H13B 5271   4.813   6.738   6.009  0.3173 -2.8004 -2.5879
   65SAPC  H13C 5272   4.956   6.820   6.008 -1.0700  1.7898  1.3936
   65SAPC   C14 5273   4.944   6.877   5.730  0.0045 -0.0040  0.3822
   65SAPC  H14A 5274   4.859   6.943   5.734  1.7207  2.3014  1.5843
   65SAPC  H14B 5275   5.035   6.920   5.769 -0.2684  2.5612 -1.5361
   65SAPC  H14C 5276   4.961   6.853   5.626 -1.2528  0.6426  0.0097
   65SAPC   C15 5277   4.798   6.694   5.741 -0.6545  0.4186  0.1124
   65SAPC  H15A 5278   4.845   6.676   5.646  2.2824 -0.5174  1.6039
   65SAPC  H15B 5279   4.782   6.596   5.785  1.4934  0.1449  0.4108
   65SAPC  H15C 5280   4.707   6.748   5.721 -0.9232 -0.0416  0.0818
   65SAPC   C11 5281   5.018   6.541   5.914  0.2412  0.3928 -0.4481
   65SAPC  H11A 5282   4.949   6.567   5.997 -1.1557 -1.6667 -0.8617
   65SAPC  H11B 5283   5.111   6.496   5.955  0.6728  1.8694  0.2708
   65SAPC     P 5284   4.954   6.298   5.857 -0.2840  0.5297 -0.1991
   65SAPC   O13 5285   4.822   6.252   5.814 -0.1379  0.5689  0.5318
   65SAPC   O14 5286   5.075   6.242   5.799  0.3533 -0.4363  0.0858
   65SAPC   O12 5287   4.956   6.449   5.828 -0.1457 -0.5460 -0.2534
   65SAPC   O11 5288   4.969   6.286   6.014  0.3142 -0.0820  0.4932
   65SAPC    C1 5289   4.852   6.260   6.093  0.5911 -0.1290 -0.5784
   65SAPC    HA 5290   4.781   6.191   6.043  1.0777 -1.9305  1.0718
   65SAPC    HB 5291   4.879   6.194   6.178  0.5378 -1.6033 -1.6660
   65SAPC    C2 5292   4.774   6.384   6.136  0.0235  0.7168 -0.0024
   65SAPC    HS 5293   4.773   6.453   6.049  2.9961 -0.1200 -0.8439
   65SAPC   O21 5294   4.843   6.437   6.253  0.3319 -0.0024 -0.4699
   65SAPC   C21 5295   4.820   6.576   6.273  1.1455  0.0636 -0.3903
   65SAPC   O22 5296   4.746   6.642   6.204 -0.1785 -0.6677 -0.0329
   65SAPC   C22 5297   4.910   6.616   6.389  0.4650  0.0541  0.3805
   65SAPC   H2R 5298   4.902   6.532   6.462 -0.0886  0.4145  0.7393
   65SAPC   H2S 5299   5.013   6.616   6.347  0.0228 -0.1656 -0.7239
   65SAPC    C3 5300   4.622   6.351   6.170 -0.0171  0.0840 -0.7614
   65SAPC    HX 5301   4.572   6.311   6.079  0.0806 -0.9333 -0.3758
   65SAPC    HY 5302   4.573   6.451   6.182 -0.4343 -0.2722  0.7178
   65SAPC   O31 5303   4.610   6.264   6.291  0.3317 -0.3963  0.2432
   65SAPC   C31 5304   4.590   6.333   6.410 -0.1894 -0.4145 -0.0781
   65SAPC   O32 5305   4.537   6.439   6.427 -0.2141 -0.3549 -0.5153
   65SAPC   C32 5306   4.659   6.260   6.523  0.2881  0.5965 -0.6568
   65SAPC   H2X 5307   4.588   6.178   6.545 -0.8397  0.9388 -2.7133
   65SAPC   H2Y 5308   4.669   6.321   6.616  0.6716 -0.3850 -0.0330
   65SAPC   C23 5309   4.865   6.751   6.453 -0.1503 -0.2213  0.1733
   65SAPC   H3R 5310   4.758   6.747   6.482 -0.5695  1.0865 -1.0514
   65SAPC   H3S 5311   4.883   6.834   6.381 -2.3806  0.2865  0.1334
   65SAPC   C24 5312   4.950   6.763   6.571 -0.1442  0.0416 -0.4030
   65SAPC   H4R 5313   5.051   6.737   6.534 -0.2264  0.4478 -0.9287
   65SAPC   H4S 5314   4.920   6.684   6.643  1.7694 -1.9829 -1.6833
   65SAPC   C25 5315   4.956   6.898   6.639 -0.4860  0.5870 -0.3489
   65SAPC   H5R 5316   4.966   6.985   6.572  0.8961 -0.5708 -1.7364
   65SAPC   C26 5317   4.973   6.920   6.771  0.2467 -0.3158 -0.0028
   65SAPC   H6R 5318   4.977   7.024   6.809  1.3466  0.1422 -1.2951
   65SAPC   C27 5319   4.976   6.824   6.889 -0.3418 -1.0720  0.5296
   65SAPC   H7R 5320   5.060   6.853   6.955  0.3082  0.5488 -0.9145
   65SAPC   H7S 5321   5.002   6.723   6.851  4.3338  1.3389 -3.9545
   65SAPC   C28 5322   4.847   6.848   6.948  0.6571  0.0609 -0.0356
   65SAPC   H8R 5323   4.809   6.945   6.982  1.5689  0.2397  0.5117
   65SAPC   C29 5324   4.771   6.742   6.989  0.1821 -0.8115 -0.5986
   65SAPC   H9R 5325   4.669   6.762   7.023 -0.5935 -0.5657 -2.8957
   65SAPC  C210 5326   4.795   6.592   6.974 -0.1160  0.2740  0.3331
   65SAPC  H10R 5327   4.787   6.550   7.076 -3.3498 -0.8325 -0.2440
   65SAPC  H10S 5328   4.898   6.586   6.935  0.4752  4.1797  0.8142
   65SAPC  C211 5329   4.697   6.513   6.892  0.0376 -0.6640 -0.6806
   65SAPC  H11R 5330   4.680   6.548   6.789 -0.7739 -3.3751 -1.5447
   65SAPC  C212 5331   4.630   6.404   6.930  0.4030 -0.2330 -0.3040
   65SAPC  H12R 5332   4.560   6.360   6.857  1.2277 -2.5011  0.1924
   65SAPC  C213 5333   4.638   6.322   7.054  0.5516  0.2395  0.0048
   65SAPC  H13R 5334   4.543   6.327   7.110 -0.1424  0.6282 -1.1688
   65SAPC  H13S 5335   4.721   6.348   7.124  1.1025 -2.0941  0.3072
   65SAPC  C214 5336   4.647   6.174   7.030 -0.3627  0.4092  0.4914
   65SAPC  H14R 5337   4.594   6.154   6.936 -0.5942  1.2831  0.4294
   65SAPC  C215 5338   4.712   6.069   7.095  0.2313 -0.7949 -0.9073
   65SAPC  H15R 5339   4.722   5.969   7.051  3.4923 -0.3011 -1.5625
   65SAPC  C216 5340   4.799   6.074   7.219  0.7393  0.0705  0.6282
   65SAPC  H16R 5341   4.820   6.179   7.251  1.7309  0.2698 -0.6011
   65SAPC  H16S 5342   4.890   6.012   7.206  0.2355 -1.7494  4.3396
   65SAPC  C217 5343   4.723   6.018   7.329  0.8732  0.8232  0.3823
   65SAPC  H17R 5344   4.696   5.910   7.324 -1.7176  1.3960  0.6414
   65SAPC  H17S 5345   4.620   6.060   7.330  0.3945 -0.3033  1.3989
   65SAPC  C218 5346   4.791   6.040   7.466  0.1063  0.0997 -0.8464
   65SAPC  H18R 5347   4.832   6.143   7.473  0.7370 -0.2295  0.6730
   65SAPC  H18S 5348   4.877   5.970   7.460 -0.0921 -0.2121 -0.0444
   65SAPC  C219 5349   4.703   5.996   7.584 -0.4265 -0.7228 -0.2488
   65SAPC  H19R 5350   4.692   5.886   7.576  0.7957 -0.7663 -1.7950
   65SAPC  H19S 5351   4.611   6.057   7.566  1.7097  2.2904 -1.7444
   65SAPC  C220 5352   4.773   6.047   7.711 -0.2630  0.2577 -0.1697
   65SAPC  H20R 5353   4.724   6.015   7.806  1.8755 -0.3268  0.7908
   65SAPC  H20S 5354   4.775   6.158   7.707 -0.1408  0.3275  1.3096
   65SAPC  H20T 5355   4.880   6.018   7.715 -0.8193 -1.9177 -0.3254
   65SAPC   C33 5356   4.804   6.208   6.505 -0.3998 -0.0876  0.0345
   65SAPC   H3X 5357   4.865   6.283   6.451 -0.1003  0.4765  1.1286
   65SAPC   H3Y 5358   4.798   6.120   6.437  1.2268 -0.4057  0.2594
   65SAPC   C34 5359   4.877   6.192   6.638  0.1337  0.2460 -0.0825
   65SAPC   H4X 5360   4.812   6.139   6.711  0.7694 -1.0649 -0.4408
   65SAPC   H4Y 5361   4.915   6.291   6.671 -0.8091  1.2687 -1.9042
   65SAPC   C35 5362   4.994   6.099   6.608  0.1182  0.3183  0.5028
   65SAPC   H5X 5363   5.064   6.147   6.537 -1.1614  1.0318 -0.3343
   65SAPC   H5Y 5364   4.955   6.004   6.565  0.4141  0.7197 -0.6903
   65SAPC   C36 5365   5.077   6.056   6.742 -0.0520 -0.6764 -0.0094
   65SAPC   H6X 5366   5.138   6.144   6.772 -1.5071 -0.1233  1.4331
   65SAPC   H6Y 5367   5.157   5.980   6.726  3.6735  3.2609 -2.5241
   65SAPC   C37 5368   4.988   6.018   6.865  1.1394 -0.4137 -0.2547
   65SAPC   H7X 5369   4.934   5.924   6.840  1.5811 -1.4748  2.3648
   65SAPC   H7Y 5370   4.925   6.103   6.897  0.6808 -1.0270  0.5153
   65SAPC   C38 5371   5.082   5.979   6.972  0.2181  0.5565 -0.6072
   65SAPC   H8X 5372   5.117   5.874   6.958 -0.8990  0.1770 -0.6542
   65SAPC   H8Y 5373   5.020   5.978   7.064  1.0925 -0.0661  0.0002
   65SAPC   C39 5374   5.196   6.078   7.006 -0.1844  0.1162 -0.7232
   65SAPC   H9X 5375   5.140   6.172   7.025  1.5385  0.7012  2.0736
   65SAPC   H9Y 5376   5.264   6.096   6.920 -1.2585  0.0248 -1.6022
   65SAPC  C310 5377   5.282   6.056   7.134  0.8938  0.2625  0.0770
   65SAPC  H10X 5378   5.338   6.151   7.149  0.4397  0.4471  0.6854
   65SAPC  H10Y 5379   5.341   5.969   7.098 -3.2372 -2.6384 -0.4328
   65SAPC  C311 5380   5.199   6.019   7.262  0.9060  0.2321  0.1906
   65SAPC  H11X 5381   5.168   5.912   7.253  0.3308  0.3985  0.1706
   65SAPC  H11Y 5382   5.106   6.079   7.269 -0.9156 -2.5060  0.9454
   65SAPC  C312 5383   5.274   6.027   7.388  0.3885 -0.0937 -0.6419
   65SAPC  H12X 5384   5.319   6.128   7.400  1.2471 -0.6426  0.9876
   65SAPC  H12Y 5385   5.363   5.960   7.381  0.0640 -0.5611 -0.3532
   65SAPC  C313 5386   5.194   5.976   7.515 -0.5937  0.7620 -0.2639
   65SAPC  H13X 5387   5.130   5.888   7.493  1.6227 -0.6502 -1.3909
   65SAPC  H13Y 5388   5.135   6.058   7.562 -2.3964 -1.2647  1.2174
   65SAPC  C314 5389   5.284   5.919   7.623 -0.0428  0.4892 -0.0399
   65SAPC  H14X 5390   5.354   5.990   7.671  1.2475 -0.6310 -0.2126
   65SAPC  H14Y 5391   5.341   5.832   7.584 -1.1607 -0.1626 -0.2656
   65SAPC  C315 5392   5.206   5.850   7.731  0.1121 -0.6174 -0.1191
   65SAPC  H15X 5393   5.141   5.768   7.692  1.3028 -1.1489 -1.0405
   65SAPC  H15Y 5394   5.145   5.920   7.792 -1.0530 -1.0552 -0.7396
   65SAPC  C316 5395   5.290   5.780   7.844 -0.4711  0.0504  0.2298
   65SAPC  H16X 5396   5.351   5.856   7.898 -0.9484  0.4633  0.1898
   65SAPC  H16Y 5397   5.367   5.716   7.796 -0.9455 -1.4860  1.4703
   65SAPC  C317 5398   5.189   5.709   7.936  0.2414  0.4032  0.0071
   65SAPC  H17X 5399   5.258   5.644   7.995 -0.5639  2.8347  4.0515
   65SAPC  H17Y 5400   5.129   5.639   7.875 -0.3726  1.1482 -0.2570
   65SAPC  C318 5401   5.102   5.791   8.021  0.3045 -0.1535 -0.5688
   65SAPC  H18X 5402   5.172   5.866   8.062  1.3096 -1.1943 -0.3476
   65SAPC  H18Y 5403   5.059   5.730   8.103  1.7555  0.0829  0.3962
   65SAPC  H18Z 5404   5.017   5.841   7.968  0.6044 -0.9371 -1.8410
   66SAPC     N 5405   2.423   5.584   5.159  0.3525  0.1091 -0.2922
   66SAPC   C12 5406   2.330   5.647   5.258  0.4481  0.4462 -0.0521
   66SAPC  H12A 5407   2.262   5.579   5.306 -1.4892  1.6799 -0.9124
   66SAPC  H12B 5408   2.249   5.700   5.210 -2.0606 -1.7673  1.4952
   66SAPC   C13 5409   2.501   5.469   5.220  0.2872 -0.3789 -0.0612
   66SAPC  H13A 5410   2.545   5.497   5.315  2.5544 -1.3370 -0.7508
   66SAPC  H13B 5411   2.438   5.381   5.228 -0.5097  0.0127 -1.6826
   66SAPC  H13C 5412   2.584   5.443   5.155  0.4992 -1.0180  0.4521
   66SAPC   C14 5413   2.346   5.528   5.040  0.3634  0.1801 -0.1318
   66SAPC  H14A 5414   2.270   5.457   5.069 -0.3824  1.1089  0.2414
   66SAPC  H14B 5415   2.300   5.611   4.989 -0.1517 -0.5243 -0.8364
   66SAPC  H14C 5416   2.408   5.482   4.965 -1.5080 -0.7257 -1.1851
   66SAPC   C15 5417   2.524   5.674   5.102  0.1451 -0.8789 -0.3412
   66SAPC  H15A 5418   2.491   5.739   5.022  0.7298  1.8210  1.4470
   66SAPC  H15B 5419   2.539   5.754   5.174 -0.6861  1.0959 -2.2438
   66SAPC  H15C 5420   2.616   5.620   5.086 -0.5480 -1.2164 -3.8618
   66SAPC   C11 5421   2.389   5.727   5.376  0.2472  0.2299  0.0612
   66SAPC  H11A 5422   2.429   5.652   5.448 -1.4293  1.6847  2.6611
   66SAPC  H11B 5423   2.301   5.770   5.428  0.3646 -0.0968  0.5347
   66SAPC     P 5424   2.571   5.886   5.448 -0.5802 -0.5268 -0.1888
   66SAPC   O13 5425   2.666   5.780   5.479 -0.3695 -0.1038 -0.0576
   66SAPC   O14 5426   2.635   6.016   5.406  0.5339  0.3278 -0.1798
   66SAPC   O12 5427   2.477   5.837   5.340  0.1730 -0.4246  0.0437
   66SAPC   O11 5428   2.485   5.917   5.578  0.6602 -0.1343  0.5449
   66SAPC    C1 5429   2.365   5.993   5.566 -0.3811 -0.2704  0.7852
   66SAPC    HA 5430   2.325   5.993   5.463  1.3477  0.0124  0.0804
   66SAPC    HB 5431   2.287   5.948   5.632 -0.7500  0.4243  0.8256
   66SAPC    C2 5432   2.390   6.135   5.615 -0.0462  0.1679 -0.2945
   66SAPC    HS 5433   2.474   6.176   5.554 -0.1047 -2.0597 -2.0286
   66SAPC   O21 5434   2.428   6.124   5.751 -0.0290  0.0170  0.1444
   66SAPC   C21 5435   2.515   6.215   5.795  0.2135  0.4426  0.9317
   66SAPC   O22 5436   2.579   6.297   5.733 -0.3316 -0.2097  0.0633
   66SAPC   C22 5437   2.511   6.205   5.944  0.0101 -0.0014  0.1545
   66SAPC   H2R 5438   2.413   6.242   5.980 -0.1273 -2.1745  2.1996
   66SAPC   H2S 5439   2.524   6.098   5.971  1.3875  0.0283 -0.3005
   66SAPC    C3 5440   2.261   6.225   5.606 -0.4048  0.0542 -0.1952
   66SAPC    HX 5441   2.227   6.218   5.501 -0.7598  0.3888 -0.1064
   66SAPC    HY 5442   2.277   6.331   5.637  0.2418 -0.1659  0.2643
   66SAPC   O31 5443   2.159   6.164   5.677 -0.9046  0.0519 -0.4705
   66SAPC   C31 5444   2.135   6.203   5.804 -0.2948  0.2149 -0.3903
   66SAPC   O32 5445   2.196   6.291   5.863  0.0858  0.2140 -0.9258
   66SAPC   C32 5446   2.025   6.123   5.868  0.6586 -0.1126  0.0650
   66SAPC   H2X 5447   2.064   6.019   5.884  0.2804 -0.0714  1.3830
   66SAPC   H2Y 5448   1.938   6.110   5.801  0.3529 -1.3381  0.6688
   66SAPC   C23 5449   2.627   6.278   6.014  0.9347  0.6321 -0.0964
   66SAPC   H3R 5450   2.620   6.388   5.996 -0.0476  0.2353 -2.6322
   66SAPC   H3S 5451   2.715   6.246   5.955  1.4161 -0.0526  0.9815
   66SAPC   C24 5452   2.648   6.259   6.162 -0.3351 -0.3400  0.2042
   66SAPC   H4R 5453   2.639   6.152   6.192 -0.8423 -0.3691 -0.0503
   66SAPC   H4S 5454   2.577   6.314   6.226 -0.8151 -2.1238  1.2851
   66SAPC   C25 5455   2.791   6.299   6.192 -0.2157 -0.2612  0.7821
   66SAPC   H5R 5456   2.863   6.281   6.111 -0.9475  0.8383 -0.1426
   66SAPC   C26 5457   2.829   6.354   6.306  0.3074  0.3307  0.6148
   66SAPC   H6R 5458   2.938   6.370   6.317  0.2597  0.3961  0.9850
   66SAPC   C27 5459   2.728   6.401   6.415 -0.5351  0.0490 -0.0428
   66SAPC   H7R 5460   2.654   6.320   6.432  0.1251 -0.9569 -1.6786
   66SAPC   H7S 5461   2.671   6.484   6.368 -0.9139 -0.1620  0.0432
   66SAPC   C28 5462   2.791   6.454   6.540 -0.0587 -0.3141 -1.0560
   66SAPC   H8R 5463   2.788   6.562   6.561  0.8194 -0.5955  0.7036
   66SAPC   C29 5464   2.838   6.386   6.645 -0.0001  0.0358 -0.3702
   66SAPC   H9R 5465   2.875   6.434   6.737 -2.9243  1.0494  0.4031
   66SAPC  C210 5466   2.853   6.235   6.646 -0.0793 -0.0011  0.3409
   66SAPC  H10R 5467   2.954   6.201   6.615 -0.2524 -0.5357  0.3455
   66SAPC  H10S 5468   2.782   6.193   6.572  1.0132 -0.1823 -0.6444
   66SAPC  C211 5469   2.818   6.183   6.782 -0.3482  0.1978 -0.1310
   66SAPC  H11R 5470   2.878   6.224   6.865 -0.8474 -0.0129  0.3403
   66SAPC  C212 5471   2.722   6.095   6.806  0.0839 -0.3148 -1.0121
   66SAPC  H12R 5472   2.707   6.062   6.910 -0.8021  0.5751 -0.8450
   66SAPC  C213 5473   2.629   6.030   6.705 -0.6693  0.7684  1.5375
   66SAPC  H13R 5474   2.592   5.939   6.757 -1.5222 -0.5644 -1.1755
   66SAPC  H13S 5475   2.696   5.986   6.627  1.2886  2.3873  2.2380
   66SAPC  C214 5476   2.514   6.120   6.666  0.0994  0.5565  0.1894
   66SAPC  H14R 5477   2.484   6.192   6.743 -1.6470  0.1635 -0.0673
   66SAPC  C215 5478   2.447   6.119   6.553 -0.3310  0.4764  0.1061
   66SAPC  H15R 5479   2.378   6.201   6.529  1.3866  1.1873 -2.8549
   66SAPC  C216 5480   2.477   6.029   6.436  0.0396 -0.1263  0.2348
   66SAPC  H16R 5481   2.494   5.924   6.468  1.3290  0.0415  0.1634
   66SAPC  H16S 5482   2.560   6.065   6.372 -1.5591  4.2016  0.2568
   66SAPC  C217 5483   2.350   6.011   6.348 -0.2439  0.0215 -0.0691
   66SAPC  H17R 5484   2.337   6.110   6.299  2.0424 -0.4537 -1.8059
   66SAPC  H17S 5485   2.262   5.991   6.414  0.1907  1.0557  0.8571
   66SAPC  C218 5486   2.367   5.909   6.228  0.0599  0.1291 -0.2710
   66SAPC  H18R 5487   2.380   5.807   6.270 -1.9660 -0.4164 -0.8819
   66SAPC  H18S 5488   2.461   5.931   6.172  1.0564  0.8969  1.5956
   66SAPC  C219 5489   2.249   5.913   6.125 -0.2873 -0.1676 -0.3294
   66SAPC  H19R 5490   2.238   6.017   6.088  3.7106 -0.4827 -3.0633
   66SAPC  H19S 5491   2.153   5.872   6.164 -0.8354  1.7358  0.4055
   66SAPC  C220 5492   2.284   5.826   6.003  0.1761 -0.6417 -0.0880
   66SAPC  H20R 5493   2.343   5.884   5.929 -1.2202 -0.7034 -1.3067
   66SAPC  H20S 5494   2.183   5.808   5.958 -0.4285  0.7043  0.6548
   66SAPC  H20T 5495   2.326   5.724   6.014  0.3329 -0.7939 -1.7688
   66SAPC   C33 5496   1.991   6.178   6.013  0.6670  0.9751  0.6984
   66SAPC   H3X 5497   1.933   6.271   5.994 -0.1011  0.3809  0.0415
   66SAPC   H3Y 5498   2.089   6.211   6.053  1.1735  1.4708 -0.8905
   66SAPC   C34 5499   1.907   6.079   6.094  0.4663  0.8664 -0.0905
   66SAPC   H4X 5500   1.969   5.989   6.110 -1.1582 -0.7846 -2.4118
   66SAPC   H4Y 5501   1.808   6.054   6.049 -0.3667  1.6866  1.1963
   66SAPC   C35 5502   1.861   6.138   6.221  0.2721  0.2497 -0.4748
   66SAPC   H5X 5503   1.787   6.077   6.276  0.3203  0.4916 -0.1330
   66SAPC   H5Y 5504   1.813   6.234   6.190 -0.3906  0.9308  2.3657
   66SAPC   C36 5505   1.977   6.154   6.321 -0.4809 -0.2767 -0.1739
   66SAPC   H6X 5506   2.062   6.212   6.279 -1.0512  0.2831 -0.5604
   66SAPC   H6Y 5507   2.017   6.054   6.351  2.0831  0.8886  0.5911
   66SAPC   C37 5508   1.941   6.219   6.460  0.2467 -0.1374  0.0693
   66SAPC   H7X 5509   1.859   6.165   6.511 -0.2620  1.8249  1.4678
   66SAPC   H7Y 5510   1.893   6.317   6.437 -1.4586 -0.9725 -0.0627
   66SAPC   C38 5511   2.055   6.221   6.556 -0.1991  0.2003 -0.0885
   66SAPC   H8X 5512   2.142   6.268   6.504  0.6615 -0.9608  0.2626
   66SAPC   H8Y 5513   2.096   6.119   6.571  1.9232  0.8206 -1.2678
   66SAPC   C39 5514   2.013   6.270   6.694 -0.1670 -0.0931  0.2970
   66SAPC   H9X 5515   1.930   6.214   6.743 -0.3092 -0.8999 -0.8429
   66SAPC   H9Y 5516   1.975   6.374   6.692  1.7134  0.6084 -0.9733
   66SAPC  C310 5517   2.143   6.287   6.779 -0.2359  0.2909 -0.5616
   66SAPC  H10X 5518   2.223   6.336   6.720  0.4607 -1.3514 -1.0286
   66SAPC  H10Y 5519   2.176   6.185   6.808  0.0120  0.5009 -0.0926
   66SAPC  C311 5520   2.109   6.359   6.911 -0.1870  0.0681  0.4945
   66SAPC  H11X 5521   2.061   6.456   6.886 -0.6469 -0.9731 -3.1895
   66SAPC  H11Y 5522   2.211   6.389   6.943 -0.0014 -0.8618  0.7956
   66SAPC  C312 5523   2.021   6.289   7.010 -0.0204 -0.6225 -0.1155
   66SAPC  H12X 5524   2.056   6.186   7.033 -0.7116 -0.7321  0.4742
   66SAPC  H12Y 5525   1.923   6.281   6.960 -0.5712 -0.0440  0.8307
   66SAPC  C313 5526   2.005   6.381   7.137  0.2454  0.5964 -0.2748
   66SAPC  H13X 5527   1.920   6.335   7.191  0.9101 -0.5879 -0.2004
   66SAPC  H13Y 5528   1.965   6.478   7.099 -1.3275 -0.6977 -2.0951
   66SAPC  C314 5529   2.127   6.381   7.227  0.1857 -0.2780 -0.6543
   66SAPC  H14X 5530   2.219   6.401   7.169 -0.6374 -4.1170 -3.6986
   66SAPC  H14Y 5531   2.151   6.284   7.275  1.9343  0.1072 -0.6892
   66SAPC  C315 5532   2.110   6.485   7.338  0.1144  0.4121  0.1644
   66SAPC  H15X 5533   2.017   6.475   7.398 -0.2957  0.9897 -0.3564
   66SAPC  H15Y 5534   2.095   6.584   7.290  1.2035 -0.1181 -1.3530
   66SAPC  C316 5535   2.229   6.499   7.432  0.0114  0.0368  0.3219
   66SAPC  H16X 5536   2.314   6.516   7.363 -1.4233 -0.1876 -1.5824
   66SAPC  H16Y 5537   2.243   6.399   7.478 -0.7312 -0.2431 -0.0329
   66SAPC  C317 5538   2.226   6.609   7.536 -0.5087  0.0692  0.1110
   66SAPC  H17X 5539   2.161   6.584   7.623  1.8288 -2.4066  1.2767
   66SAPC  H17Y 5540   2.201   6.709   7.493  0.0760  0.4931  0.7408
   66SAPC  C318 5541   2.367   6.619   7.603 -0.8269  0.8908  0.7827
   66SAPC  H18X 5542   2.368   6.713   7.662 -0.1831  1.4540 -0.0875
   66SAPC  H18Y 5543   2.449   6.628   7.529 -0.0780  0.8179  1.5906
   66SAPC  H18Z 5544   2.392   6.531   7.666  2.2839  0.7391 -0.4833
   67SAPC     N 5545   7.103   3.007   5.036 -0.5281 -0.0179 -0.2192
   67SAPC   C12 5546   7.213   2.963   5.137  0.5699 -0.0922  0.3915
   67SAPC  H12A 5547   7.289   3.038   5.122  0.2657  0.1779  0.1643
   67SAPC  H12B 5548   7.253   2.870   5.102 -0.4128  0.0050 -1.0983
   67SAPC   C13 5549   7.159   3.051   4.904 -0.7370  0.4695  0.0553
   67SAPC  H13A 5550   7.074   3.066   4.839 -1.8454 -1.8915  0.8360
   67SAPC  H13B 5551   7.209   3.145   4.919  3.6663 -1.9817  2.6518
   67SAPC  H13C 5552   7.230   2.980   4.866 -0.7763  0.9635 -0.9575
   67SAPC   C14 5553   7.018   2.891   5.011  0.0931 -0.3619 -0.7010
   67SAPC  H14A 5554   7.075   2.812   4.963  1.6449 -0.1136  0.6421
   67SAPC  H14B 5555   6.967   2.850   5.097 -2.6452 -3.1116 -3.3702
   67SAPC  H14C 5556   6.952   2.925   4.933  2.1947  0.6376 -2.1419
   67SAPC   C15 5557   7.016   3.129   5.082  0.1292 -0.0257  0.5930
   67SAPC  H15A 5558   6.968   3.107   5.176  0.3303 -2.5327  0.1642
   67SAPC  H15B 5559   7.083   3.212   5.099 -1.1182  0.7304  2.0500
   67SAPC  H15C 5560   6.939   3.151   5.009 -0.0907  0.6854  1.0289
   67SAPC   C11 5561   7.175   2.939   5.282 -0.1594  0.3721 -0.6899
   67SAPC  H11A 5562   7.142   3.040   5.312  0.8824  0.6238 -0.3367
   67SAPC  H11B 5563   7.258   2.909   5.350 -0.8518  2.3286  1.1220
   67SAPC     P 5564   6.945   2.865   5.377  0.2769  0.1034 -0.3096
   67SAPC   O13 5565   6.918   3.008   5.377  0.8290 -0.0943  0.1963
   67SAPC   O14 5566   6.836   2.777   5.338  0.6234  0.3197 -0.0291
   67SAPC   O12 5567   7.072   2.835   5.287  0.3836  1.2239  0.7398
   67SAPC   O11 5568   6.986   2.825   5.528 -0.2039 -0.3273 -0.3374
   67SAPC    C1 5569   7.060   2.714   5.573  0.0719  0.0313 -0.2104
   67SAPC    HA 5570   7.157   2.705   5.519 -0.7758  0.2226 -1.8285
   67SAPC    HB 5571   7.086   2.726   5.681 -1.2446 -0.9166  0.2402
   67SAPC    C2 5572   6.970   2.591   5.571 -0.0223 -0.1649 -0.4042
   67SAPC    HS 5573   6.924   2.590   5.470  0.3525  0.9105 -0.6027
   67SAPC   O21 5574   6.862   2.616   5.671 -0.1243  0.7922  0.4024
   67SAPC   C21 5575   6.764   2.519   5.652  0.2786  0.0296 -0.3142
   67SAPC   O22 5576   6.754   2.436   5.570  0.3800  0.1559 -0.0257
   67SAPC   C22 5577   6.665   2.534   5.773  0.4807 -0.3897  0.2360
   67SAPC   H2R 5578   6.705   2.598   5.854  1.9582 -0.2592 -0.5482
   67SAPC   H2S 5579   6.575   2.582   5.729  1.1243 -0.1940 -0.9089
   67SAPC    C3 5580   7.055   2.462   5.596 -0.1761 -0.2592  0.3638
   67SAPC    HX 5581   7.146   2.470   5.533 -0.3849  0.3865  0.1361
   67SAPC    HY 5582   6.997   2.378   5.553 -1.7229 -0.0888  1.9915
   67SAPC   O31 5583   7.089   2.449   5.734 -0.2005 -0.0773  0.0576
   67SAPC   C31 5584   7.154   2.338   5.762 -0.1132 -0.5615 -0.1188
   67SAPC   O32 5585   7.167   2.246   5.682 -0.5769  0.5581 -0.0489
   67SAPC   C32 5586   7.195   2.329   5.904 -0.0962 -0.2568 -0.5880
   67SAPC   H2X 5587   7.122   2.376   5.974  1.9508  1.0311  0.7952
   67SAPC   H2Y 5588   7.296   2.377   5.902  0.7399 -1.9669 -2.3750
   67SAPC   C23 5589   6.605   2.410   5.837  0.7534 -0.0750 -0.4514
   67SAPC   H3R 5590   6.571   2.345   5.754 -2.1256  0.4195  0.2423
   67SAPC   H3S 5591   6.518   2.442   5.898  0.7860 -0.5015 -0.1730
   67SAPC   C24 5592   6.704   2.332   5.926  0.4946 -0.0446 -0.7785
   67SAPC   H4R 5593   6.761   2.395   5.998  0.4910  0.7112 -1.4334
   67SAPC   H4S 5594   6.783   2.283   5.864  0.0116  1.5945 -2.7816
   67SAPC   C25 5595   6.625   2.236   6.010  0.7730  0.5775  0.0544
   67SAPC   H5R 5596   6.582   2.155   5.949 -0.2502  2.3811 -1.7366
   67SAPC   C26 5597   6.598   2.247   6.146  0.3829  0.3053  0.3498
   67SAPC   H6R 5598   6.535   2.167   6.186  1.2301  0.0895  1.2907
   67SAPC   C27 5599   6.642   2.351   6.250 -0.1418 -0.1970  0.3843
   67SAPC   H7R 5600   6.549   2.394   6.293  0.7052  0.4873  1.5718
   67SAPC   H7S 5601   6.683   2.441   6.200  2.5423 -0.3872  2.0369
   67SAPC   C28 5602   6.740   2.318   6.358 -0.0075 -0.3286 -0.0846
   67SAPC   H8R 5603   6.845   2.328   6.327 -0.4477  2.3781 -0.9978
   67SAPC   C29 5604   6.709   2.271   6.483  0.3211  0.0370  0.0869
   67SAPC   H9R 5605   6.792   2.249   6.551  2.0449  1.3876 -1.4615
   67SAPC  C210 5606   6.575   2.241   6.548  0.3281  0.2031  0.4326
   67SAPC  H10R 5607   6.495   2.265   6.475  0.6733  1.1011  0.3293
   67SAPC  H10S 5608   6.560   2.306   6.637  3.2338  2.4406 -0.5467
   67SAPC  C211 5609   6.561   2.097   6.577  0.4262  0.4288 -0.1121
   67SAPC  H11R 5610   6.497   2.044   6.504 -3.1019  2.0236  1.5732
   67SAPC  C212 5611   6.611   2.028   6.680  0.4692  0.2009  0.6215
   67SAPC  H12R 5612   6.608   1.918   6.670 -0.5627  0.1831  1.0909
   67SAPC  C213 5613   6.679   2.089   6.797  0.5742 -0.5378  0.3821
   67SAPC  H13R 5614   6.765   2.145   6.753  1.0731 -2.5424 -1.3771
   67SAPC  H13S 5615   6.728   2.008   6.855  0.9367 -0.8067 -0.2795
   67SAPC  C214 5616   6.596   2.175   6.891  0.7645  0.3025  0.0456
   67SAPC  H14R 5617   6.598   2.283   6.869 -0.3142  0.5850  1.1962
   67SAPC  C215 5618   6.510   2.136   6.988  0.8375  0.4437  0.0784
   67SAPC  H15R 5619   6.470   2.224   7.041  2.8100  1.9845 -0.8710
   67SAPC  C216 5620   6.457   1.998   7.019  0.6803 -0.4390  0.1090
   67SAPC  H16R 5621   6.505   1.965   7.114 -1.9965  1.6163  2.3500
   67SAPC  H16S 5622   6.480   1.915   6.948  2.8282 -1.1610  1.5585
   67SAPC  C217 5623   6.301   1.998   7.022 -0.2911 -0.1538  0.6067
   67SAPC  H17R 5624   6.277   1.891   7.037  0.1453 -0.1412  1.4519
   67SAPC  H17S 5625   6.253   2.037   6.930  3.6502 -0.5866 -1.8785
   67SAPC  C218 5626   6.247   2.081   7.137 -0.3042 -0.7709 -0.5499
   67SAPC  H18R 5627   6.246   2.191   7.121 -0.5130 -0.7807 -0.6181
   67SAPC  H18S 5628   6.316   2.073   7.223 -0.3468  0.1189 -0.4250
   67SAPC  C219 5629   6.107   2.033   7.196 -0.8328  0.6270  0.3100
   67SAPC  H19R 5630   6.112   1.924   7.216 -0.2212  0.8649  1.5840
   67SAPC  H19S 5631   6.033   2.051   7.115 -1.7919 -0.5441  0.8980
   67SAPC  C220 5632   6.057   2.099   7.317 -0.0982  0.1453 -0.3528
   67SAPC  H20R 5633   6.066   2.209   7.308 -0.1451  0.0537 -1.7165
   67SAPC  H20S 5634   6.127   2.081   7.402 -1.1451  1.9331  0.9467
   67SAPC  H20T 5635   5.958   2.070   7.357 -0.2279  2.7360  1.5234
   67SAPC   C33 5636   7.244   2.188   5.959 -0.2990 -0.2563 -0.6037
   67SAPC   H3X 5637   7.307   2.199   6.050  0.7028  1.9557 -1.4851
   67SAPC   H3Y 5638   7.329   2.145   5.902  0.5261 -0.9165  1.0798
   67SAPC   C34 5639   7.133   2.090   5.989 -0.2283  0.7100  0.2853
   67SAPC   H4X 5640   7.173   1.991   6.018  0.7798  1.3270  1.0637
   67SAPC   H4Y 5641   7.087   2.063   5.892  0.3722 -1.4522  0.5495
   67SAPC   C35 5642   7.021   2.122   6.095 -0.1835  0.5254 -0.0821
   67SAPC   H5X 5643   6.946   2.040   6.099  0.3963  0.0305  1.2914
   67SAPC   H5Y 5644   6.959   2.208   6.062  0.2548  0.0332 -2.3763
   67SAPC   C36 5645   7.072   2.123   6.242  0.1522  1.2119 -0.3847
   67SAPC   H6X 5646   7.144   2.040   6.259  0.8577  1.8900 -0.0159
   67SAPC   H6Y 5647   6.982   2.117   6.308  0.0880 -1.2609 -0.5948
   67SAPC   C37 5648   7.155   2.245   6.282  0.0275  0.4137  0.1245
   67SAPC   H7X 5649   7.134   2.337   6.223 -0.3053 -1.0952 -2.2062
   67SAPC   H7Y 5650   7.260   2.214   6.264 -0.0040 -0.4187  1.2413
   67SAPC   C38 5651   7.136   2.275   6.433 -0.2414  0.1296  0.2496
   67SAPC   H8X 5652   7.115   2.188   6.499  0.4348  1.4580  2.3353
   67SAPC   H8Y 5653   7.041   2.331   6.443  0.7396  1.8641  0.2659
   67SAPC   C39 5654   7.252   2.351   6.493  0.3458  0.3531  0.2445
   67SAPC   H9X 5655   7.260   2.451   6.444 -1.1907 -0.6569 -2.2693
   67SAPC   H9Y 5656   7.339   2.289   6.463  0.3520  0.5183 -0.0870
   67SAPC  C310 5657   7.243   2.356   6.641 -0.1818  0.1346  0.0136
   67SAPC  H10X 5658   7.345   2.380   6.677 -0.7186 -0.2583  1.9807
   67SAPC  H10Y 5659   7.218   2.259   6.691 -0.6666  0.2706  0.0425
   67SAPC  C311 5660   7.142   2.461   6.699 -0.2479 -0.1059 -0.5367
   67SAPC  H11X 5661   7.043   2.430   6.660 -0.7514  0.2596  0.4226
   67SAPC  H11Y 5662   7.158   2.568   6.673 -1.8928  0.4484  0.5549
   67SAPC  C312 5663   7.126   2.462   6.852 -0.8547  0.0610  0.1598
   67SAPC  H12X 5664   7.108   2.561   6.898  0.5412  0.7488 -0.6998
   67SAPC  H12Y 5665   7.223   2.433   6.899  0.5540  4.2900  0.2957
   67SAPC  C313 5666   7.014   2.369   6.898  0.3843  0.0506  0.5137
   67SAPC  H13X 5667   7.030   2.264   6.865 -0.1712 -0.8975  3.0856
   67SAPC  H13Y 5668   6.918   2.401   6.850  0.2133 -2.8695 -1.3774
   67SAPC  C314 5669   6.998   2.364   7.052 -0.4211 -0.1175 -0.2094
   67SAPC  H14X 5670   6.982   2.465   7.095  2.6714  0.2866  0.2771
   67SAPC  H14Y 5671   7.096   2.322   7.084  1.1331  3.0306 -0.4336
   67SAPC  C315 5672   6.884   2.276   7.105 -0.2388  0.4398  0.6392
   67SAPC  H15X 5673   6.909   2.176   7.063  2.6492 -0.1009  3.2614
   67SAPC  H15Y 5674   6.785   2.306   7.067  0.3841  1.9101  0.1086
   67SAPC  C316 5675   6.894   2.258   7.257  0.0138 -0.1926 -0.4137
   67SAPC  H16X 5676   6.893   2.355   7.312  0.9310 -0.4817  0.1440
   67SAPC  H16Y 5677   6.998   2.221   7.267 -0.5313 -2.2988 -1.8790
   67SAPC  C317 5678   6.788   2.174   7.319  0.3247 -0.7438  0.7371
   67SAPC  H17X 5679   6.803   2.071   7.280  2.5686 -0.3161  0.3578
   67SAPC  H17Y 5680   6.687   2.210   7.289  1.5187  2.6830  0.3908
   67SAPC  C318 5681   6.822   2.163   7.469 -0.0135 -0.3832 -0.0547
   67SAPC  H18X 5682   6.756   2.084   7.510  0.0078 -1.1692 -1.4897
   67SAPC  H18Y 5683   6.812   2.260   7.524  1.8282  0.2598 -0.7918
   67SAPC  H18Z 5684   6.930   2.143   7.479  0.1084  0.3281  0.1104
   68SAPC     N 5685   2.334   6.927   5.080 -0.4946  0.4646  0.0684
   68SAPC   C12 5686   2.375   6.817   5.175 -0.0337 -0.2028 -0.5124
   68SAPC  H12A 5687   2.482   6.806   5.167 -0.1363 -1.2752 -0.5857
   68SAPC  H12B 5688   2.331   6.726   5.138  0.4386 -1.5743  2.0310
   68SAPC   C13 5689   2.182   6.935   5.093  0.2295  0.0586 -0.1311
   68SAPC  H13A 5690   2.149   6.951   5.194 -1.9369 -0.7079 -0.6634
   68SAPC  H13B 5691   2.139   7.015   5.034  1.1164  0.9575  0.4206
   68SAPC  H13C 5692   2.141   6.841   5.060  2.3813 -0.9489 -0.0761
   68SAPC   C14 5693   2.396   7.057   5.121  0.0164 -0.1864  0.7285
   68SAPC  H14A 5694   2.362   7.102   5.212 -1.7678  2.6370 -1.1920
   68SAPC  H14B 5695   2.503   7.060   5.132  0.1716  0.2503 -0.6751
   68SAPC  H14C 5696   2.367   7.134   5.051 -0.9708 -0.5535  0.7126
   68SAPC   C15 5697   2.371   6.906   4.934  0.1960 -0.2653 -0.2812
   68SAPC  H15A 5698   2.333   6.813   4.893 -1.6759 -0.3761  1.5361
   68SAPC  H15B 5699   2.326   6.984   4.875 -0.8039 -1.7967 -1.6294
   68SAPC  H15C 5700   2.478   6.912   4.916  0.0975  0.0188 -0.7989
   68SAPC   C11 5701   2.343   6.831   5.327  0.0431 -0.2954  0.4195
   68SAPC  H11A 5702   2.345   6.735   5.384  1.4456 -1.9511 -2.1747
   68SAPC  H11B 5703   2.236   6.857   5.342  0.3794  1.5744 -0.1953
   68SAPC     P 5704   2.566   6.890   5.445  0.0036 -0.2487 -0.1400
   68SAPC   O13 5705   2.616   6.764   5.388  0.4110 -0.3156 -0.4737
   68SAPC   O14 5706   2.647   7.015   5.434 -0.5074 -0.2104 -0.1135
   68SAPC   O12 5707   2.430   6.929   5.389 -0.2710 -0.5627  0.3424
   68SAPC   O11 5708   2.519   6.872   5.598 -0.6016 -0.3502 -0.3675
   68SAPC    C1 5709   2.491   6.981   5.680  0.0980 -0.0937 -0.5826
   68SAPC    HA 5710   2.463   7.070   5.620 -0.5593 -0.8802 -1.4676
   68SAPC    HB 5711   2.409   6.960   5.752 -1.6786  1.1843 -2.1461
   68SAPC    C2 5712   2.615   7.001   5.768  0.6045  0.1192 -0.9926
   68SAPC    HS 5713   2.709   7.014   5.711  0.2592  0.4101 -1.4946
   68SAPC   O21 5714   2.628   6.885   5.853 -0.5153 -0.2349 -0.0939
   68SAPC   C21 5715   2.743   6.850   5.905  0.4997  0.2374 -0.1373
   68SAPC   O22 5716   2.853   6.896   5.884 -0.3616  0.6865 -0.1359
   68SAPC   C22 5717   2.707   6.756   6.015 -0.2055 -0.5312 -0.4672
   68SAPC   H2R 5718   2.624   6.797   6.076  0.6068 -0.2693  0.4781
   68SAPC   H2S 5719   2.668   6.659   5.977  1.7972 -1.7072  0.3011
   68SAPC    C3 5720   2.596   7.135   5.845  0.6074  0.3694 -0.2078
   68SAPC    HX 5721   2.593   7.220   5.773 -0.7322  1.1729  0.7546
   68SAPC    HY 5722   2.685   7.146   5.910  1.4971 -2.9533 -0.6594
   68SAPC   O31 5723   2.477   7.126   5.931  0.7363 -0.1219  0.5267
   68SAPC   C31 5724   2.428   7.231   5.992 -0.8128  0.2527 -0.5500
   68SAPC   O32 5725   2.482   7.340   5.993 -0.1533 -0.0741  0.4842
   68SAPC   C32 5726   2.292   7.206   6.067 -0.4391 -0.1570  0.8606
   68SAPC   H2X 5727   2.279   7.096   6.084 -1.0713 -0.2938 -0.4279
   68SAPC   H2Y 5728   2.208   7.255   6.014  0.3594 -0.4943 -0.7668
   68SAPC   C23 5729   2.822   6.711   6.110  0.2860  0.1166  0.0027
   68SAPC   H3R 5730   2.909   6.693   6.043  1.3631  2.5908  0.6472
   68SAPC   H3S 5731   2.801   6.625   6.178  0.7026  0.4874  0.6062
   68SAPC   C24 5732   2.873   6.820   6.208  0.0063 -0.2130 -0.6520
   68SAPC   H4R 5733   2.923   6.896   6.144  2.6204 -0.2149  1.2394
   68SAPC   H4S 5734   2.944   6.786   6.286 -1.2879  0.8317  1.0723
   68SAPC   C25 5735   2.753   6.880   6.287  0.0917 -0.4034  0.0700
   68SAPC   H5R 5736   2.677   6.811   6.325  0.8446 -0.2331  2.0350
   68SAPC   C26 5737   2.739   7.007   6.315 -0.4227 -0.0832 -0.7721
   68SAPC   H6R 5738   2.653   7.040   6.374  0.6607 -1.5558  1.7869
   68SAPC   C27 5739   2.833   7.120   6.268  0.2262 -0.1535  0.2144
   68SAPC   H7R 5740   2.881   7.093   6.171  0.4249  3.3876 -0.8219
   68SAPC   H7S 5741   2.909   7.118   6.348 -0.8149 -2.5401  1.2313
   68SAPC   C28 5742   2.752   7.248   6.243 -0.1826 -0.1207  0.2382
   68SAPC   H8R 5743   2.714   7.264   6.141 -0.7071 -0.9657  0.2933
   68SAPC   C29 5744   2.715   7.340   6.332 -0.5216  0.1150  0.2845
   68SAPC   H9R 5745   2.682   7.437   6.294  1.8097  0.4094 -1.1864
   68SAPC  C210 5746   2.738   7.342   6.480 -0.7423 -0.3386 -0.8148
   68SAPC  H10R 5747   2.785   7.442   6.494 -2.1328  0.2376 -0.1367
   68SAPC  H10S 5748   2.811   7.265   6.515 -0.9116 -0.1557 -0.0400
   68SAPC  C211 5749   2.605   7.350   6.545  0.5560 -0.1352 -0.3424
   68SAPC  H11R 5750   2.524   7.286   6.507  1.3979 -2.1846  1.0791
   68SAPC  C212 5751   2.574   7.421   6.662  0.0955 -0.3191 -0.6160
   68SAPC  H12R 5752   2.469   7.419   6.694 -0.0506 -0.0426 -1.0673
   68SAPC  C213 5753   2.667   7.501   6.755 -0.7630  0.4720  0.1973
   68SAPC  H13R 5754   2.615   7.590   6.796  0.6176  0.9822  0.9204
   68SAPC  H13S 5755   2.755   7.542   6.701  0.0673  0.9728  1.8464
   68SAPC  C214 5756   2.707   7.404   6.869 -0.4983 -0.1273  0.4407
   68SAPC  H14R 5757   2.767   7.316   6.840  0.4336 -0.1821  2.3676
   68SAPC  C215 5758   2.665   7.412   6.997 -0.1180 -0.5490  0.3374
   68SAPC  H15R 5759   2.685   7.334   7.071 -0.7121  0.9063  2.0955
   68SAPC  C216 5760   2.579   7.520   7.050 -0.4661  0.1551 -0.5649
   68SAPC  H16R 5761   2.473   7.490   7.031 -0.6898  0.5675 -0.0201
   68SAPC  H16S 5762   2.592   7.623   7.012 -0.2403  0.1613 -0.4699
   68SAPC  C217 5763   2.597   7.527   7.210 -0.1585  0.3948  0.2094
   68SAPC  H17R 5764   2.699   7.555   7.245 -0.2546  0.2406  0.6268
   68SAPC  H17S 5765   2.579   7.420   7.234  1.1943 -0.1301 -0.9627
   68SAPC  C218 5766   2.487   7.618   7.263 -0.4391  0.2381 -0.1995
   68SAPC  H18R 5767   2.387   7.580   7.233 -1.1488  1.1327  0.9744
   68SAPC  H18S 5768   2.501   7.719   7.218 -0.1467  1.2722  2.0834
   68SAPC  C219 5769   2.493   7.629   7.417 -0.2029  0.3547  0.0333
   68SAPC  H19R 5770   2.445   7.724   7.449 -1.6388  0.3902 -2.0304
   68SAPC  H19S 5771   2.602   7.634   7.435  0.1151  0.2761 -1.7374
   68SAPC  C220 5772   2.447   7.510   7.497 -0.0832  0.1951 -0.1776
   68SAPC  H20R 5773   2.351   7.466   7.464  0.4024 -0.8482 -0.2405
   68SAPC  H20S 5774   2.438   7.536   7.605  0.5650 -0.9974  0.1832
   68SAPC  H20T 5775   2.525   7.431   7.486 -1.1073 -0.6486 -1.8171
   68SAPC   C33 5776   2.296   7.262   6.214  0.8506  0.8084  0.2086
   68SAPC   H3X 5777   2.320   7.370   6.221  1.1772  0.6822  1.1471
   68SAPC   H3Y 5778   2.371   7.210   6.277  0.6181  1.0631  0.7053
   68SAPC   C34 5779   2.151   7.245   6.274  0.6711  0.3985 -0.1201
   68SAPC   H4X 5780   2.132   7.136   6.277 -0.2581  0.5681  0.9532
   68SAPC   H4Y 5781   2.071   7.276   6.203  0.5529 -1.8321 -1.0119
   68SAPC   C35 5782   2.139   7.314   6.413 -0.4614  0.5193 -0.6552
   68SAPC   H5X 5783   2.042   7.285   6.459  0.8042 -1.2463  1.1140
   68SAPC   H5Y 5784   2.151   7.424   6.401  0.1616  0.4556 -0.6747
   68SAPC   C36 5785   2.243   7.264   6.520 -0.4595  0.1971  0.4442
   68SAPC   H6X 5786   2.334   7.325   6.500 -0.3364 -0.7682 -2.5723
   68SAPC   H6Y 5787   2.269   7.157   6.504  0.2930  0.4916 -0.3948
   68SAPC   C37 5788   2.200   7.276   6.657 -0.2671  0.5905 -0.3633
   68SAPC   H7X 5789   2.154   7.377   6.659 -1.1243  0.2362 -1.3152
   68SAPC   H7Y 5790   2.284   7.276   6.730  1.1858 -0.8116 -1.9595
   68SAPC   C38 5791   2.107   7.167   6.703 -0.0145 -0.0405 -0.0939
   68SAPC   H8X 5792   2.131   7.065   6.664  0.1235 -1.0735  2.4850
   68SAPC   H8Y 5793   2.001   7.189   6.677 -0.3921 -1.6610 -0.0753
   68SAPC   C39 5794   2.103   7.152   6.857 -0.0836 -0.4559 -0.3330
   68SAPC   H9X 5795   2.057   7.242   6.902 -1.4814 -2.4968  2.5902
   68SAPC   H9Y 5796   2.206   7.149   6.899  0.1673 -1.5699 -0.9854
   68SAPC  C310 5797   2.028   7.027   6.896  0.3025  0.2943  0.0185
   68SAPC  H10X 5798   2.091   6.937   6.885  1.7681  1.1686  0.9131
   68SAPC  H10Y 5799   1.948   7.008   6.821 -0.2688 -0.4244  0.7894
   68SAPC  C311 5800   1.953   7.023   7.031 -1.2249 -0.3192 -0.4291
   68SAPC  H11X 5801   1.907   6.924   7.051  0.1005 -0.9407 -0.3802
   68SAPC  H11Y 5802   1.873   7.100   7.025 -0.1164  1.0232  1.1096
   68SAPC  C312 5803   2.040   7.067   7.150 -0.4511  0.0608  0.0148
   68SAPC  H12X 5804   2.114   7.146   7.126  1.4175 -1.6260 -0.0582
   68SAPC  H12Y 5805   2.087   6.972   7.186 -0.8182 -1.1047 -2.4139
   68SAPC  C313 5806   1.949   7.111   7.264 -0.5136 -0.0857  0.2926
   68SAPC  H13X 5807   1.888   7.025   7.300  1.9321 -2.6189 -1.1698
   68SAPC  H13Y 5808   1.883   7.188   7.218  0.9779  1.7330  1.0505
   68SAPC  C314 5809   2.016   7.180   7.380 -0.4970 -0.1038 -0.4678
   68SAPC  H14X 5810   1.939   7.217   7.451  1.0630  0.8984  0.7632
   68SAPC  H14Y 5811   2.068   7.265   7.331 -0.7934  1.1682  1.3218
   68SAPC  C315 5812   2.113   7.087   7.453 -0.4419  0.0935  0.1339
   68SAPC  H15X 5813   2.202   7.079   7.387  0.9864  1.2545  1.7950
   68SAPC  H15Y 5814   2.060   6.991   7.462 -0.9078  0.0202 -2.5440
   68SAPC  C316 5815   2.173   7.153   7.575 -0.2612 -0.2503  0.1615
   68SAPC  H16X 5816   2.096   7.186   7.648 -1.0737  1.6232 -1.4573
   68SAPC  H16Y 5817   2.239   7.234   7.537  0.5287 -1.2978 -0.7547
   68SAPC  C317 5818   2.270   7.066   7.648 -0.5547  0.5204  0.1873
   68SAPC  H17X 5819   2.369   7.058   7.598 -0.1025  0.5715  1.0500
   68SAPC  H17Y 5820   2.234   6.962   7.640  1.4766 -0.2342  0.3131
   68SAPC  C318 5821   2.273   7.110   7.795  0.6790  0.3416 -0.3473
   68SAPC  H18X 5822   2.350   7.054   7.854  0.3268 -1.9375 -1.9248
   68SAPC  H18Y 5823   2.176   7.083   7.840 -0.0323  1.4139 -1.1935
   68SAPC  H18Z 5824   2.293   7.217   7.817 -2.2192  0.3646  3.0429
   69SLPC     N 5825   3.017   4.677   9.363  0.4148 -0.0034 -0.2992
   69SLPC   C13 5826   3.102   4.636   9.248 -0.1022 -0.0640 -0.4856
   69SLPC  H13A 5827   3.111   4.708   9.168 -2.2108 -0.0483 -0.7640
   69SLPC  H13B 5828   3.199   4.606   9.285  0.1342 -1.5274 -2.1317
   69SLPC  H13C 5829   3.061   4.543   9.212  0.0942 -0.6577  0.7603
   69SLPC   C14 5830   2.877   4.704   9.328 -0.7692  0.1475  0.2882
   69SLPC  H14A 5831   2.809   4.692   9.410 -2.7803 -0.3721 -1.3679
   69SLPC  H14B 5832   2.866   4.799   9.276 -1.8412  1.4592  2.7430
   69SLPC  H14C 5833   2.840   4.628   9.260  0.8370  0.6079 -1.1754
   69SLPC   C15 5834   3.073   4.807   9.421  0.4791 -0.0946 -0.0002
   69SLPC  H15A 5835   3.094   4.874   9.338  1.0878 -0.4275 -0.1175
   69SLPC  H15B 5836   3.003   4.851   9.491 -1.9937 -0.8570 -1.8342
   69SLPC  H15C 5837   3.170   4.789   9.464  0.8068  1.3665 -0.0742
   69SLPC   C12 5838   3.026   4.570   9.473 -0.2150  0.1224  0.4981
   69SLPC  H12A 5839   3.130   4.564   9.501  0.1101 -1.9397 -0.9119
   69SLPC  H12B 5840   3.004   4.476   9.423  0.3574  0.5983 -0.6905
   69SLPC   C11 5841   2.942   4.588   9.594  0.1126 -0.0219 -0.3549
   69SLPC  H11A 5842   2.975   4.684   9.639 -3.4565  0.1399  2.4358
   69SLPC  H11B 5843   2.966   4.518   9.676  0.7769  0.3013 -0.2738
   69SLPC     P 5844   2.714   4.463   9.549  0.1403  0.0449 -0.0071
   69SLPC   O13 5845   2.714   4.368   9.667 -0.6575 -0.5907 -0.1328
   69SLPC   O14 5846   2.581   4.503   9.509  0.5186 -0.3468  0.2085
   69SLPC   O12 5847   2.801   4.586   9.575  0.3198 -1.1719  0.2242
   69SLPC   O11 5848   2.787   4.399   9.432 -0.3782 -0.3636 -0.0662
   69SLPC    C1 5849   2.832   4.265   9.437 -0.5718  0.3387  0.7028
   69SLPC    HA 5850   2.889   4.239   9.530 -0.2561 -1.3847  0.0673
   69SLPC    HB 5851   2.742   4.201   9.426 -0.0086 -0.2942 -0.3606
   69SLPC    C2 5852   2.925   4.235   9.313 -0.4496  0.3679  0.1845
   69SLPC    HS 5853   2.922   4.124   9.308 -2.2173  0.4419 -1.1371
   69SLPC   O21 5854   3.054   4.300   9.326  0.1643 -0.1037  0.2340
   69SLPC   C21 5855   3.152   4.211   9.332  0.6546 -0.5592 -0.3056
   69SLPC   O22 5856   3.141   4.091   9.315  0.2896  0.1482 -1.0934
   69SLPC   C22 5857   3.286   4.287   9.327  0.2549 -0.0405  0.7113
   69SLPC   H2R 5858   3.286   4.373   9.257  1.8556  0.1003  0.8447
   69SLPC   H2S 5859   3.309   4.328   9.427 -0.1507  0.1942  0.7093
   69SLPC    C3 5860   2.857   4.293   9.181 -0.1185 -0.0665 -0.2490
   69SLPC    HX 5861   2.854   4.404   9.173 -0.7298  0.0062  0.7558
   69SLPC    HY 5862   2.749   4.268   9.194  0.0919 -1.2472 -0.7102
   69SLPC   O31 5863   2.921   4.249   9.057 -1.2832 -0.7627  0.2328
   69SLPC   C31 5864   3.025   4.317   9.008 -0.3635 -1.1097  0.0108
   69SLPC   O32 5865   3.077   4.416   9.067 -0.7267  0.1663 -0.0075
   69SLPC   C32 5866   3.073   4.250   8.878 -0.0891  0.2986  0.0872
   69SLPC   H2X 5867   3.004   4.272   8.795 -0.7866  3.0923  1.3191
   69SLPC   H2Y 5868   3.081   4.139   8.890 -0.4366  0.4615  2.1705
   69SLPC   C23 5869   3.391   4.191   9.276 -0.0120  0.3529 -0.3390
   69SLPC   H3R 5870   3.361   4.110   9.207  1.3889  0.4587 -1.1162
   69SLPC   H3S 5871   3.431   4.124   9.355  0.5987  0.5365 -0.4812
   69SLPC   C24 5872   3.516   4.261   9.217 -0.3540  0.7159  0.5391
   69SLPC   H4R 5873   3.600   4.189   9.217 -0.1816  0.9175  0.5532
   69SLPC   H4S 5874   3.529   4.351   9.281  2.5688 -0.1624  1.2979
   69SLPC   C25 5875   3.491   4.321   9.079 -0.1795 -0.6544  0.1564
   69SLPC   H5R 5876   3.425   4.409   9.073  1.3539  0.4685 -0.9012
   69SLPC   H5S 5877   3.455   4.238   9.015  0.2530 -1.7157  1.2398
   69SLPC   C26 5878   3.621   4.378   9.021  0.6086  0.7706  0.0581
   69SLPC   H6R 5879   3.702   4.303   9.029  0.0462  0.0507 -0.7734
   69SLPC   H6S 5880   3.659   4.459   9.087 -0.0475  2.5730 -1.6312
   69SLPC   C27 5881   3.621   4.429   8.879  0.7652  0.0978  0.1436
   69SLPC   H7R 5882   3.600   4.348   8.806  0.1685  1.0410 -0.7614
   69SLPC   H7S 5883   3.724   4.461   8.853 -0.4996  3.0944 -1.6326
   69SLPC   C28 5884   3.521   4.545   8.854 -0.3396  0.1693 -0.7653
   69SLPC   H8R 5885   3.416   4.512   8.871 -0.4636 -0.0387 -1.8908
   69SLPC   H8S 5886   3.512   4.569   8.746  0.4313 -3.4003 -1.7297
   69SLPC   C29 5887   3.550   4.681   8.927 -0.0046  0.3022 -0.3192
   69SLPC   H9R 5888   3.656   4.711   8.932  0.3302 -1.0529  2.3012
   69SLPC  C210 5889   3.452   4.765   8.972  0.3589  0.4193  0.1026
   69SLPC  H10R 5890   3.479   4.869   8.993  1.7726  0.4120 -1.4474
   69SLPC  C211 5891   3.302   4.738   8.977  0.6387 -0.0474  0.0164
   69SLPC  H11R 5892   3.257   4.826   9.026  0.6906 -0.1905  0.3220
   69SLPC  H11S 5893   3.283   4.654   9.047 -0.1681  0.1357  0.0198
   69SLPC  C212 5894   3.238   4.736   8.842  0.2781 -0.2415 -0.9437
   69SLPC  H12R 5895   3.297   4.739   8.750 -1.0120 -0.6434 -1.8165
   69SLPC  C213 5896   3.109   4.746   8.825  1.0195 -0.2530  0.0325
   69SLPC  H13R 5897   3.065   4.726   8.727 -0.8337 -0.8564  0.9484
   69SLPC  C214 5898   2.995   4.760   8.927 -0.1199  0.0960  0.0727
   69SLPC  H14R 5899   3.032   4.817   9.016  0.2086 -1.8912  1.2742
   69SLPC  H14S 5900   2.959   4.660   8.960  0.7303 -0.3901 -0.4271
   69SLPC  C215 5901   2.864   4.818   8.878  0.1713 -0.6501 -0.4453
   69SLPC  H15R 5902   2.823   4.760   8.792 -1.2896  0.9809 -0.9012
   69SLPC  H15S 5903   2.898   4.921   8.853 -0.6751 -0.2084  0.1788
   69SLPC  C216 5904   2.760   4.813   8.988 -0.1476  0.5536 -0.4329
   69SLPC  H16R 5905   2.676   4.884   8.967 -2.4483 -1.3730  1.6532
   69SLPC  H16S 5906   2.811   4.845   9.081 -0.4338 -0.3296  0.0310
   69SLPC  C217 5907   2.691   4.682   9.021  0.0395 -0.2472  0.0302
   69SLPC  H17R 5908   2.755   4.599   9.057 -1.1446 -1.4198 -0.4601
   69SLPC  H17S 5909   2.655   4.655   8.919 -0.8406  1.8129 -0.2548
   69SLPC  C218 5910   2.571   4.696   9.120  0.3500 -0.5826 -0.0698
   69SLPC  H18R 5911   2.607   4.743   9.214 -0.5302 -0.6996  0.3364
   69SLPC  H18S 5912   2.513   4.603   9.140 -4.1088  2.3384  2.1838
   69SLPC  H18T 5913   2.491   4.762   9.080 -0.2246 -1.5854 -0.6039
   69SLPC   C33 5914   3.219   4.290   8.831  0.3015 -0.2180 -0.6594
   69SLPC   H3X 5915   3.291   4.243   8.901 -0.4879 -1.0580 -0.3933
   69SLPC   H3Y 5916   3.227   4.400   8.840 -3.7615  0.3028 -1.6551
   69SLPC   C34 5917   3.243   4.239   8.690 -1.0204 -0.1255  0.2391
   69SLPC   H4X 5918   3.170   4.285   8.619 -3.4243 -0.2910  2.4382
   69SLPC   H4Y 5919   3.218   4.132   8.677 -3.5574  0.6913 -3.0022
   69SLPC   C35 5920   3.384   4.270   8.645  0.2629  0.0918 -0.0924
   69SLPC   H5X 5921   3.452   4.221   8.718  0.7313 -1.5641 -1.5698
   69SLPC   H5Y 5922   3.411   4.377   8.654  2.4646 -0.3220 -1.0984
   69SLPC   C36 5923   3.426   4.215   8.511  1.2295  0.0206  0.1910
   69SLPC   H6X 5924   3.347   4.250   8.443  1.7620  2.2928  0.6618
   69SLPC   H6Y 5925   3.415   4.104   8.511 -2.4352  0.2571  0.1795
   69SLPC   C37 5926   3.561   4.275   8.459  0.4302 -0.2483  0.0881
   69SLPC   H7X 5927   3.641   4.238   8.526 -0.2952  0.0070  1.1244
   69SLPC   H7Y 5928   3.550   4.386   8.456 -0.6169 -0.3443 -0.2213
   69SLPC   C38 5929   3.597   4.227   8.318  0.5227  0.3883 -0.6188
   69SLPC   H8X 5930   3.684   4.292   8.297  1.3319 -1.3122 -2.9461
   69SLPC   H8Y 5931   3.514   4.258   8.251 -0.2673 -1.1105 -0.3892
   69SLPC   C39 5932   3.630   4.075   8.307 -0.2351  0.4096  0.3426
   69SLPC   H9X 5933   3.542   4.020   8.346 -1.1041 -0.8827 -3.0312
   69SLPC   H9Y 5934   3.715   4.053   8.375  1.8282  0.0587 -2.1705
   69SLPC  C310 5935   3.669   4.037   8.159  0.5376 -0.2159 -0.8146
   69SLPC  H10X 5936   3.761   4.096   8.140  0.2616  0.5702  0.1951
   69SLPC  H10Y 5937   3.589   4.057   8.084  1.6943  1.0642 -1.7415
   69SLPC  C311 5938   3.710   3.892   8.144  0.1149  0.8612  1.0091
   69SLPC  H11X 5939   3.627   3.831   8.186 -0.1354  0.9643  0.6702
   69SLPC  H11Y 5940   3.802   3.879   8.204  1.7793  0.4690 -1.4863
   69SLPC  C312 5941   3.718   3.857   7.992  0.7733  0.3698 -0.0443
   69SLPC  H12X 5942   3.823   3.867   7.957  0.8557  0.4582  0.2257
   69SLPC  H12Y 5943   3.670   3.927   7.920 -0.7463 -0.5997 -0.0155
   69SLPC  C313 5944   3.674   3.711   7.959  0.9760 -0.5325 -0.6359
   69SLPC  H13X 5945   3.564   3.696   7.968  0.9029  0.3754  0.0706
   69SLPC  H13Y 5946   3.712   3.661   8.051  0.8454  0.0997 -0.2324
   69SLPC  C314 5947   3.736   3.640   7.839  0.0433 -0.2432  0.5145
   69SLPC  H14X 5948   3.727   3.530   7.850  1.7268 -0.5843 -1.0047
   69SLPC  H14Y 5949   3.846   3.653   7.838  0.0208  0.2197  1.8499
   69SLPC  C315 5950   3.665   3.670   7.706  0.0943 -0.4452  0.7661
   69SLPC  H15X 5951   3.701   3.597   7.630 -0.7602 -0.4103  0.3184
   69SLPC  H15Y 5952   3.687   3.770   7.665 -1.3909 -1.4295 -2.8117
   69SLPC  C316 5953   3.507   3.659   7.720 -0.5331  0.0592 -0.0068
   69SLPC  H16X 5954   3.477   3.749   7.778 -2.7109 -0.5709 -0.0664
   69SLPC  H16Y 5955   3.488   3.563   7.773  2.0514  0.7276  2.3899
   69SLPC  C317 5956   3.426   3.659   7.590 -0.7933  0.3248 -0.0475
   69SLPC  H17X 5957   3.317   3.657   7.614 -1.1937  0.7729 -1.6953
   69SLPC  H17Y 5958   3.447   3.561   7.541  1.8143  1.1735 -0.7489
   69SLPC  C318 5959   3.452   3.767   7.489  0.1725  0.4259 -0.0497
   69SLPC  H18X 5960   3.558   3.759   7.458  0.6671 -0.6900  1.7699
   69SLPC  H18Y 5961   3.443   3.865   7.542  1.5011  0.1732  0.6839
   69SLPC  H18Z 5962   3.374   3.761   7.410 -0.0429  3.8486 -0.2493
   70SLPC     N 5963   4.225   4.070   9.489 -0.7852  0.1709 -0.0780
   70SLPC   C13 5964   4.085   4.111   9.526 -0.5851 -0.3231 -0.2250
   70SLPC  H13A 5965   4.072   4.212   9.562 -1.6043  0.0936 -1.6493
   70SLPC  H13B 5966   4.018   4.111   9.441 -0.3504  0.0696 -0.4111
   70SLPC  H13C 5967   4.049   4.055   9.611  0.7610 -0.1179  0.4963
   70SLPC   C14 5968   4.325   4.119   9.584  0.1029 -0.4438  0.1555
   70SLPC  H14A 5969   4.420   4.079   9.552  1.3534  1.8742  0.7320
   70SLPC  H14B 5970   4.328   4.227   9.575  4.7011 -0.4647 -1.5920
   70SLPC  H14C 5971   4.291   4.086   9.681  0.2322 -0.0850  0.3241
   70SLPC   C15 5972   4.246   4.131   9.352 -0.2395  0.1689 -0.1145
   70SLPC  H15A 5973   4.174   4.103   9.277 -0.4555  0.8007 -0.1562
   70SLPC  H15B 5974   4.227   4.237   9.363 -2.9115 -0.2111 -0.3868
   70SLPC  H15C 5975   4.345   4.118   9.312  0.2765  1.5212  0.6474
   70SLPC   C12 5976   4.242   3.918   9.485 -0.5171  0.3312  0.0838
   70SLPC  H12A 5977   4.201   3.874   9.575 -2.2311 -0.1392 -0.8950
   70SLPC  H12B 5978   4.348   3.901   9.476  0.0053  2.7223  0.9715
   70SLPC   C11 5979   4.181   3.835   9.368 -1.0977  0.3590  0.1389
   70SLPC  H11A 5980   4.232   3.736   9.366 -0.4252  0.7071 -0.3458
   70SLPC  H11B 5981   4.215   3.880   9.273  0.3621  0.8175  0.8462
   70SLPC     P 5982   3.959   3.750   9.487 -0.7589 -0.3208 -0.0242
   70SLPC   O13 5983   4.009   3.780   9.624 -0.1335 -0.1036 -0.3648
   70SLPC   O14 5984   3.807   3.763   9.477 -0.4416 -0.2876 -0.3176
   70SLPC   O12 5985   4.040   3.828   9.366 -0.8849  0.2440 -0.5365
   70SLPC   O11 5986   3.991   3.600   9.464  0.2106  0.5580  0.0883
   70SLPC    C1 5987   3.927   3.523   9.353  0.3954 -0.2271  0.4402
   70SLPC    HA 5988   3.825   3.502   9.391  0.2963 -1.4299 -0.4469
   70SLPC    HB 5989   3.919   3.589   9.264 -0.3059  0.8770  1.2764
   70SLPC    C2 5990   4.017   3.399   9.314  0.0792  0.8674 -0.5544
   70SLPC    HS 5991   4.010   3.318   9.390  2.0938 -1.4183 -2.6077
   70SLPC   O21 5992   4.156   3.446   9.296  0.8748 -0.5141  0.1831
   70SLPC   C21 5993   4.237   3.420   9.395  0.1458 -0.1781  0.0084
   70SLPC   O22 5994   4.212   3.359   9.499 -0.5886  0.1816  0.0527
   70SLPC   C22 5995   4.371   3.482   9.355 -0.3074  0.2536 -0.6382
   70SLPC   H2R 5996   4.354   3.518   9.251 -0.9829 -1.3037 -1.1115
   70SLPC   H2S 5997   4.384   3.559   9.433  0.6794 -1.3453  0.8628
   70SLPC    C3 5998   3.962   3.328   9.191  0.1435 -0.0044  0.1413
   70SLPC    HX 5999   3.855   3.311   9.215  0.3982 -1.2699  0.4377
   70SLPC    HY 6000   4.009   3.228   9.181 -0.2916 -0.0900 -1.2230
   70SLPC   O31 6001   3.976   3.406   9.069 -0.7442 -0.0268  0.3490
   70SLPC   C31 6002   4.105   3.410   9.025 -0.5995 -0.6585 -1.2123
   70SLPC   O32 6003   4.186   3.316   9.046 -0.1757 -0.3636  0.1726
   70SLPC   C32 6004   4.120   3.523   8.928  0.8040 -0.1312 -0.0409
   70SLPC   H2X 6005   4.075   3.616   8.971 -0.9654 -1.1269  0.3857
   70SLPC   H2Y 6006   4.049   3.495   8.847 -1.3580  0.5743  1.4837
   70SLPC   C23 6007   4.485   3.371   9.356  0.6459 -0.6805  0.1392
   70SLPC   H3R 6008   4.467   3.312   9.449  0.7038  0.4462  0.8871
   70SLPC   H3S 6009   4.585   3.419   9.361  0.4751 -0.4327  1.7051
   70SLPC   C24 6010   4.487   3.278   9.233  0.4380  0.8050 -0.5755
   70SLPC   H4R 6011   4.387   3.231   9.244  0.3743  1.6146  5.3406
   70SLPC   H4S 6012   4.559   3.193   9.232 -2.6952 -2.1955  1.6545
   70SLPC   C25 6013   4.510   3.348   9.104  0.8185 -0.9620  0.1506
   70SLPC   H5R 6014   4.611   3.394   9.099 -0.0277  0.8337 -1.6104
   70SLPC   H5S 6015   4.431   3.420   9.073 -0.7056 -2.9169 -0.7541
   70SLPC   C26 6016   4.504   3.237   8.995 -0.9156 -0.1091  0.3738
   70SLPC   H6R 6017   4.404   3.196   8.970 -0.9218 -1.3610  2.2336
   70SLPC   H6S 6018   4.562   3.148   9.028 -0.6295 -0.0966 -0.0826
   70SLPC   C27 6019   4.567   3.290   8.869  0.6248 -0.4993  0.1814
   70SLPC   H7R 6020   4.666   3.335   8.891 -0.1056  1.0277  0.5401
   70SLPC   H7S 6021   4.508   3.380   8.841  1.4531  0.6003  1.7776
   70SLPC   C28 6022   4.585   3.191   8.752 -0.3639 -1.0184  0.0425
   70SLPC   H8R 6023   4.624   3.248   8.665 -0.4590 -0.4191  0.3807
   70SLPC   H8S 6024   4.482   3.160   8.723 -0.5872  0.1357 -0.4801
   70SLPC   C29 6025   4.673   3.072   8.782  0.8277 -0.3803 -0.7613
   70SLPC   H9R 6026   4.710   3.075   8.885  0.1561  1.1070 -0.5367
   70SLPC  C210 6027   4.706   2.972   8.697 -0.6677 -0.1452  0.1778
   70SLPC  H10R 6028   4.751   2.877   8.727 -0.4585  0.0478  0.4777
   70SLPC  C211 6029   4.660   2.968   8.545 -0.4633  0.3861 -0.6669
   70SLPC  H11R 6030   4.550   2.958   8.541 -0.5310 -0.5061  1.7377
   70SLPC  H11S 6031   4.697   2.876   8.495 -1.2745 -1.1158  1.3502
   70SLPC  C212 6032   4.700   3.091   8.465  0.2935 -0.1935 -0.2159
   70SLPC  H12R 6033   4.778   3.155   8.509 -1.0882  1.0864  0.4431
   70SLPC  C213 6034   4.646   3.125   8.343 -0.4037 -0.2414 -0.2589
   70SLPC  H13R 6035   4.670   3.220   8.291 -0.7151 -0.7408 -1.3391
   70SLPC  C214 6036   4.546   3.049   8.264  0.3688  0.4913  0.8466
   70SLPC  H14R 6037   4.449   3.104   8.259  1.7795  3.0477 -0.7872
   70SLPC  H14S 6038   4.529   2.948   8.305  1.9304 -0.0350  0.2729
   70SLPC  C215 6039   4.610   3.030   8.126 -0.2056 -0.3583  1.0668
   70SLPC  H15R 6040   4.713   2.989   8.130  0.0343  0.1323  0.1736
   70SLPC  H15S 6041   4.628   3.127   8.076 -0.6783 -0.4961  0.6220
   70SLPC  C216 6042   4.536   2.941   8.034  0.7049  1.1462  0.8492
   70SLPC  H16R 6043   4.436   2.987   8.023  0.3248 -0.0847 -1.5928
   70SLPC  H16S 6044   4.520   2.844   8.086  0.8571  1.5269  1.6185
   70SLPC  C217 6045   4.596   2.927   7.896 -0.3328  0.0739  0.1156
   70SLPC  H17R 6046   4.652   3.022   7.879  0.2275 -0.2267  0.2920
   70SLPC  H17S 6047   4.509   2.917   7.827 -1.9681 -0.3290  2.1231
   70SLPC  C218 6048   4.684   2.805   7.908  0.3477  0.2107 -0.0621
   70SLPC  H18R 6049   4.776   2.828   7.966  1.0484 -0.2505 -0.9732
   70SLPC  H18S 6050   4.716   2.772   7.807  0.0885 -0.0102 -0.0742
   70SLPC  H18T 6051   4.627   2.722   7.956  2.2739 -0.5410  1.0174
   70SLPC   C33 6052   4.268   3.546   8.889  0.3667 -0.7647  0.3670
   70SLPC   H3X 6053   4.316   3.449   8.865  1.1438  0.0518 -1.5421
   70SLPC   H3Y 6054   4.326   3.609   8.960 -0.0390 -0.3032  0.2970
   70SLPC   C34 6055   4.281   3.629   8.761 -0.3185  0.4226  0.3750
   70SLPC   H4X 6056   4.387   3.643   8.735 -0.1921 -1.4771 -0.3037
   70SLPC   H4Y 6057   4.234   3.729   8.776  1.2502  1.1228  0.7811
   70SLPC   C35 6058   4.202   3.571   8.639 -0.1114  0.3267 -0.0966
   70SLPC   H5X 6059   4.104   3.623   8.637 -1.3914 -1.7425  2.1765
   70SLPC   H5Y 6060   4.178   3.464   8.658  2.0420  0.2057  2.6031
   70SLPC   C36 6061   4.284   3.561   8.504 -0.1245 -0.2796 -0.4053
   70SLPC   H6X 6062   4.347   3.648   8.476 -1.7721  0.9511 -0.4761
   70SLPC   H6Y 6063   4.215   3.537   8.420 -3.0036  4.0231  0.3845
   70SLPC   C37 6064   4.378   3.446   8.503  0.0507  0.3795 -0.6138
   70SLPC   H7X 6065   4.330   3.349   8.481  0.4927 -0.6780  2.5290
   70SLPC   H7Y 6066   4.426   3.447   8.604 -0.8584  0.9279 -0.1759
   70SLPC   C38 6067   4.492   3.473   8.403 -0.2303  0.2745 -1.3159
   70SLPC   H8X 6068   4.561   3.386   8.400 -0.0468  0.4242 -1.3854
   70SLPC   H8Y 6069   4.551   3.561   8.435  2.5300 -1.8858 -0.0602
   70SLPC   C39 6070   4.441   3.480   8.263 -0.2762 -0.4589  0.3488
   70SLPC   H9X 6071   4.382   3.568   8.232 -0.4870  0.2135  2.5009
   70SLPC   H9Y 6072   4.368   3.399   8.241  0.8076 -1.0762 -1.1646
   70SLPC  C310 6073   4.554   3.468   8.158 -0.5601  0.2196 -0.7182
   70SLPC  H10X 6074   4.605   3.370   8.142 -0.5371  0.3039 -1.1626
   70SLPC  H10Y 6075   4.622   3.551   8.186 -2.0933  1.0746  0.6581
   70SLPC  C311 6076   4.501   3.506   8.027 -0.0081 -0.2771  0.6386
   70SLPC  H11X 6077   4.454   3.606   8.037  0.4650  0.3055 -2.0436
   70SLPC  H11Y 6078   4.427   3.430   7.994 -0.2792  1.4754 -3.4902
   70SLPC  C312 6079   4.602   3.529   7.914  0.3206 -0.1089 -0.0421
   70SLPC  H12X 6080   4.674   3.610   7.937 -0.6091  1.3853 -2.1599
   70SLPC  H12Y 6081   4.542   3.563   7.828  1.2986  0.9175 -0.3350
   70SLPC  C313 6082   4.685   3.408   7.874 -0.2698 -0.4844  0.7116
   70SLPC  H13X 6083   4.623   3.316   7.859  2.5129 -2.0755 -2.5038
   70SLPC  H13Y 6084   4.744   3.379   7.963 -2.3650 -3.0410  1.4171
   70SLPC  C314 6085   4.770   3.446   7.746 -0.6284 -0.2243 -0.2798
   70SLPC  H14X 6086   4.809   3.550   7.742  0.0326 -0.5026 -1.4930
   70SLPC  H14Y 6087   4.710   3.453   7.653 -0.4947 -0.7177 -0.4041
   70SLPC  C315 6088   4.893   3.362   7.711  0.0483  0.4198  0.8754
   70SLPC  H15X 6089   4.855   3.258   7.713  0.0162  0.4201  0.3681
   70SLPC  H15Y 6090   4.967   3.372   7.794 -1.7287  2.0495  2.3431
   70SLPC  C316 6091   4.953   3.405   7.577  0.2698 -0.3544  0.0097
   70SLPC  H16X 6092   4.981   3.510   7.602  0.1091 -0.5829  1.2172
   70SLPC  H16Y 6093   4.876   3.400   7.498  1.3451 -1.0483 -1.0140
   70SLPC  C317 6094   5.065   3.310   7.546 -0.1133 -0.4083 -0.1037
   70SLPC  H17X 6095   5.040   3.202   7.558 -0.7917 -0.2577 -0.1364
   70SLPC  H17Y 6096   5.155   3.334   7.606 -1.0604 -0.1114  1.2453
   70SLPC  C318 6097   5.111   3.325   7.397  0.0620 -0.4512  0.1433
   70SLPC  H18X 6098   5.198   3.262   7.372  1.3350  0.7311  1.3858
   70SLPC  H18Y 6099   5.126   3.432   7.371  0.7245 -0.8649 -1.2930
   70SLPC  H18Z 6100   5.023   3.299   7.334  0.3773  0.2194 -0.5994
   71SLPC     N 6101   4.185   2.442   9.965  0.5275  0.4550  0.0446
   71SLPC   C13 6102   4.102   2.499  10.083  0.4055  0.1119  0.0121
   71SLPC  H13A 6103   4.074   2.416  10.147  0.4147 -0.0602 -0.2060
   71SLPC  H13B 6104   4.155   2.583  10.124 -0.0570 -0.5009  1.9798
   71SLPC  H13C 6105   4.005   2.527  10.047  0.8109  1.9841  0.2681
   71SLPC   C14 6106   4.320   2.385  10.009 -0.2801 -0.1921 -0.1115
   71SLPC  H14A 6107   4.363   2.333   9.924 -1.0661  0.8929 -1.1976
   71SLPC  H14B 6108   4.381   2.465  10.046  1.9028 -1.0828 -1.5624
   71SLPC  H14C 6109   4.306   2.312  10.088 -0.1333 -0.1187 -0.0170
   71SLPC   C15 6110   4.201   2.543   9.851  0.1395  0.0773  0.5852
   71SLPC  H15A 6111   4.111   2.549   9.792  1.6561 -1.0631 -2.0135
   71SLPC  H15B 6112   4.236   2.640   9.883 -2.2580  1.3298 -0.3816
   71SLPC  H15C 6113   4.263   2.496   9.776 -2.5622  0.3553 -2.0092
   71SLPC   C12 6114   4.118   2.318   9.904 -0.0873 -0.0668  0.4158
   71SLPC  H12A 6115   4.095   2.241   9.977  0.7599  0.2989  1.0813
   71SLPC  H12B 6116   4.194   2.286   9.835  1.1598 -1.9566  2.5417
   71SLPC   C11 6117   3.984   2.338   9.827  0.3440  0.3446 -0.5553
   71SLPC  H11A 6118   3.921   2.398   9.895  0.3402 -1.0835  0.7583
   71SLPC  H11B 6119   3.930   2.243   9.808  1.6017 -0.9576  1.8860
   71SLPC     P 6120   3.896   2.486   9.627  0.2326  0.3283 -0.3211
   71SLPC   O13 6121   3.812   2.547   9.735  0.3603  0.0772  0.4764
   71SLPC   O14 6122   3.957   2.578   9.533  0.0073  0.0617 -0.4693
   71SLPC   O12 6123   4.015   2.399   9.707 -0.0923  0.1223  0.2286
   71SLPC   O11 6124   3.812   2.377   9.548  0.0221  0.3691  0.2267
   71SLPC    C1 6125   3.851   2.246   9.531 -0.1830 -0.0574  0.5254
   71SLPC    HA 6126   3.849   2.228   9.422 -0.9652 -1.2508  0.7150
   71SLPC    HB 6127   3.956   2.222   9.559  0.4321  1.8491  0.0012
   71SLPC    C2 6128   3.747   2.158   9.598 -0.0391 -0.1168  0.2982
   71SLPC    HS 6129   3.768   2.168   9.707  0.3314  1.6992  0.0877
   71SLPC   O21 6130   3.759   2.026   9.543  0.4426  0.8351 -0.2870
   71SLPC   C21 6131   3.709   1.931   9.627  0.3523 -0.5408 -0.5904
   71SLPC   O22 6132   3.681   1.946   9.749  0.2098  0.0179  0.3265
   71SLPC   C22 6133   3.690   1.803   9.541 -0.4706  0.1966  0.6492
   71SLPC   H2R 6134   3.642   1.847   9.450  0.3146  0.8224  0.5213
   71SLPC   H2S 6135   3.794   1.773   9.514 -0.6472  1.5562 -1.9136
   71SLPC    C3 6136   3.597   2.217   9.571 -0.9947 -0.6032  1.2801
   71SLPC    HX 6137   3.596   2.322   9.608 -2.6689 -0.2787  0.4087
   71SLPC    HY 6138   3.528   2.158   9.634  0.7018 -4.8819 -0.4703
   71SLPC   O31 6139   3.559   2.215   9.432 -0.1943 -0.3441  0.0089
   71SLPC   C31 6140   3.479   2.120   9.398  1.0687 -0.0239 -0.7143
   71SLPC   O32 6141   3.428   2.041   9.483 -0.6484  0.3806 -0.4103
   71SLPC   C32 6142   3.447   2.109   9.251  0.2393 -0.2847  0.6103
   71SLPC   H2X 6143   3.457   2.213   9.212  2.1223 -0.4797  0.4845
   71SLPC   H2Y 6144   3.341   2.081   9.235  0.2323  0.5698 -1.1092
   71SLPC   C23 6145   3.604   1.697   9.613  0.2777  0.2787 -0.1288
   71SLPC   H3R 6146   3.623   1.702   9.722  0.7457  0.0383 -0.1954
   71SLPC   H3S 6147   3.636   1.591   9.601  0.2304  0.4236 -1.8431
   71SLPC   C24 6148   3.458   1.698   9.581 -0.4712  0.3309 -0.5872
   71SLPC   H4R 6149   3.415   1.800   9.588  1.2344  1.0163  0.8595
   71SLPC   H4S 6150   3.410   1.629   9.654  1.5320  0.3722  0.8638
   71SLPC   C25 6151   3.434   1.658   9.436 -0.2291  0.5578 -0.0214
   71SLPC   H5R 6152   3.461   1.553   9.415 -1.3842  0.2617 -0.1162
   71SLPC   H5S 6153   3.483   1.727   9.364  1.0885  2.3785  2.4535
   71SLPC   C26 6154   3.284   1.639   9.413 -0.1502 -0.2066  0.2242
   71SLPC   H6R 6155   3.244   1.559   9.479  0.5979  0.1192  1.0907
   71SLPC   H6S 6156   3.279   1.598   9.310  0.3832  2.7018 -1.0571
   71SLPC   C27 6157   3.192   1.764   9.418  0.1968 -0.7639  0.7823
   71SLPC   H7R 6158   3.237   1.839   9.349  0.2870 -0.0694  1.5775
   71SLPC   H7S 6159   3.202   1.812   9.517  3.2318  0.5754 -0.0575
   71SLPC   C28 6160   3.040   1.742   9.385 -0.6989 -0.5548  0.1716
   71SLPC   H8R 6161   2.985   1.678   9.458 -1.4057 -0.3349 -0.1518
   71SLPC   H8S 6162   3.045   1.686   9.288  0.2002 -1.8932  0.9545
   71SLPC   C29 6163   2.966   1.868   9.366  0.1911 -0.4944  0.3095
   71SLPC   H9R 6164   2.913   1.910   9.453  0.9514 -0.0012  0.5390
   71SLPC  C210 6165   2.981   1.955   9.265  0.2469  0.1382  0.1028
   71SLPC  H10R 6166   2.926   2.048   9.280 -0.9144  0.0047 -2.7776
   71SLPC  C211 6167   3.065   1.940   9.142 -0.4350 -0.2475  0.5717
   71SLPC  H11R 6168   3.150   1.868   9.139 -0.6917 -0.5089 -1.3373
   71SLPC  H11S 6169   3.106   2.039   9.113  0.7091 -0.8962 -0.0714
   71SLPC  C212 6170   2.982   1.871   9.029 -0.4083 -0.1320 -0.4190
   71SLPC  H12R 6171   2.999   1.763   9.018 -1.7850 -0.3107 -0.9957
   71SLPC  C213 6172   2.905   1.937   8.941 -0.2464  0.9073 -0.3044
   71SLPC  H13R 6173   2.871   1.866   8.864  0.6493  0.5337 -0.3717
   71SLPC  C214 6174   2.887   2.082   8.926 -0.2950  0.4733  0.1703
   71SLPC  H14R 6175   2.929   2.135   9.014  0.0559 -0.7862  0.7856
   71SLPC  H14S 6176   2.778   2.100   8.909 -1.3190 -4.1072  0.5925
   71SLPC  C215 6177   2.974   2.132   8.809  0.0397  0.6878 -0.0555
   71SLPC  H15R 6178   3.070   2.077   8.810  0.0662  0.7242 -0.5225
   71SLPC  H15S 6179   3.000   2.240   8.812 -1.2935  1.0027  1.6277
   71SLPC  C216 6180   2.917   2.108   8.668 -0.1630 -0.4176 -0.2692
   71SLPC  H16R 6181   2.897   1.999   8.664 -0.8775 -0.3527  1.0371
   71SLPC  H16S 6182   2.993   2.140   8.593 -0.3586 -0.3779 -0.4498
   71SLPC  C217 6183   2.795   2.193   8.621 -0.2524 -0.1617  0.9381
   71SLPC  H17R 6184   2.836   2.296   8.613  0.3355 -0.5176 -1.0559
   71SLPC  H17S 6185   2.719   2.184   8.702 -1.6281 -0.2528 -0.3356
   71SLPC  C218 6186   2.726   2.165   8.488  0.2406  0.3591  0.4191
   71SLPC  H18R 6187   2.667   2.071   8.486 -0.7901  0.9782  0.8276
   71SLPC  H18S 6188   2.793   2.171   8.400 -0.4918  1.6200 -0.0811
   71SLPC  H18T 6189   2.650   2.243   8.465 -0.6850 -0.4307  0.7406
   71SLPC   C33 6190   3.535   2.013   9.170 -0.2099 -0.4828  0.2830
   71SLPC   H3X 6191   3.541   1.916   9.222 -2.7419 -0.3093  1.0435
   71SLPC   H3Y 6192   3.635   2.057   9.153 -0.3132 -0.3575 -0.0127
   71SLPC   C34 6193   3.470   1.982   9.035 -0.1196 -0.0284 -0.3780
   71SLPC   H4X 6194   3.456   2.076   8.977  1.3157  0.6776  0.3630
   71SLPC   H4Y 6195   3.368   1.945   9.062  0.8802 -2.0368  0.9209
   71SLPC   C35 6196   3.540   1.887   8.948 -0.2264  0.8185 -0.1232
   71SLPC   H5X 6197   3.556   1.796   9.010  0.0086  1.3302  0.5801
   71SLPC   H5Y 6198   3.642   1.921   8.922 -0.0662 -0.4100 -1.1766
   71SLPC   C36 6199   3.473   1.857   8.818  1.0140  0.5722 -0.2263
   71SLPC   H6X 6200   3.513   1.762   8.778  0.1824  0.1572 -0.1006
   71SLPC   H6Y 6201   3.495   1.934   8.741 -0.5736  0.9279 -0.3500
   71SLPC   C37 6202   3.315   1.844   8.821  0.1632  1.0119 -0.3346
   71SLPC   H7X 6203   3.270   1.944   8.833 -0.5579  0.7841 -1.0715
   71SLPC   H7Y 6204   3.285   1.774   8.901 -0.3264  0.5506 -0.9128
   71SLPC   C38 6205   3.269   1.769   8.701 -0.4654  0.2821 -0.0470
   71SLPC   H8X 6206   3.190   1.695   8.723  0.3240 -0.5209  0.1515
   71SLPC   H8Y 6207   3.363   1.724   8.661  1.0625  1.0967  2.3674
   71SLPC   C39 6208   3.215   1.871   8.598 -0.2938 -0.4060 -0.2345
   71SLPC   H9X 6209   3.306   1.924   8.564  0.2750 -1.5197 -0.4823
   71SLPC   H9Y 6210   3.139   1.939   8.644 -1.0337 -1.7931  0.6392
   71SLPC  C310 6211   3.170   1.813   8.469 -0.0859  0.7035 -0.9324
   71SLPC  H10X 6212   3.112   1.721   8.490  0.8467  0.7280  2.2898
   71SLPC  H10Y 6213   3.260   1.783   8.412  0.6174 -3.5375  1.8977
   71SLPC  C311 6214   3.078   1.906   8.395  0.0475 -0.4065 -0.2611
   71SLPC  H11X 6215   3.137   1.987   8.347 -1.0139  1.6447  1.7157
   71SLPC  H11Y 6216   3.011   1.938   8.477  1.4406 -1.5177  1.3791
   71SLPC  C312 6217   2.986   1.837   8.296 -0.0296  0.0462 -0.3818
   71SLPC  H12X 6218   2.918   1.911   8.247  0.7480 -0.9274 -3.0887
   71SLPC  H12Y 6219   2.915   1.767   8.345  0.3588  0.6285  1.0675
   71SLPC  C313 6220   3.059   1.765   8.179  0.7729  0.2057 -0.9039
   71SLPC  H13X 6221   2.987   1.720   8.107  1.6147 -0.6469 -1.2236
   71SLPC  H13Y 6222   3.106   1.676   8.224 -1.5869 -0.2175  0.9277
   71SLPC  C314 6223   3.164   1.842   8.106 -0.2999  0.4151 -0.1436
   71SLPC  H14X 6224   3.235   1.901   8.168 -1.0073 -0.6768  1.8126
   71SLPC  H14Y 6225   3.108   1.903   8.031 -2.5293 -3.9468 -2.3963
   71SLPC  C315 6226   3.240   1.766   7.998  0.2534  0.1861 -0.0866
   71SLPC  H15X 6227   3.172   1.702   7.938 -0.9900  2.0125 -0.7203
   71SLPC  H15Y 6228   3.311   1.710   8.063  2.5702  3.9545  0.8941
   71SLPC  C316 6229   3.321   1.856   7.915  0.6187  0.0141 -0.5009
   71SLPC  H16X 6230   3.368   1.931   7.982 -0.8068 -0.9450  1.6627
   71SLPC  H16Y 6231   3.262   1.923   7.849 -0.6311 -0.2026  0.3604
   71SLPC  C317 6232   3.438   1.785   7.851 -0.7292  0.0499  0.0664
   71SLPC  H17X 6233   3.501   1.736   7.928  1.0431 -1.2314 -2.0527
   71SLPC  H17Y 6234   3.506   1.859   7.805 -2.2670  1.2494 -0.3654
   71SLPC  C318 6235   3.392   1.693   7.734 -0.7934  0.8702 -0.2023
   71SLPC  H18X 6236   3.476   1.668   7.667 -1.0775 -2.0912  0.4124
   71SLPC  H18Y 6237   3.315   1.742   7.671 -0.8323  2.4177  0.9737
   71SLPC  H18Z 6238   3.354   1.591   7.755  1.6795 -0.7354 -2.7781
   72SLPC     N 6239   5.420   5.929   9.443  0.1479 -0.4438  0.4830
   72SLPC   C13 6240   5.454   5.930   9.583 -0.5528 -0.1152 -0.2083
   72SLPC  H13A 6241   5.456   6.035   9.608  0.4215  0.2958 -1.8012
   72SLPC  H13B 6242   5.374   5.883   9.637 -1.4006  0.9606 -0.4855
   72SLPC  H13C 6243   5.547   5.885   9.615 -0.8686 -0.4317  0.2653
   72SLPC   C14 6244   5.292   5.997   9.428 -0.5137 -0.4419 -0.4816
   72SLPC  H14A 6245   5.306   6.100   9.455  4.5132 -0.8509 -0.6671
   72SLPC  H14B 6246   5.258   5.987   9.326 -0.1469 -1.5739 -0.5122
   72SLPC  H14C 6247   5.207   5.959   9.484 -0.1568 -1.4335 -0.5830
   72SLPC   C15 6248   5.403   5.791   9.383 -0.2550  0.0916 -0.2149
   72SLPC  H15A 6249   5.337   5.732   9.445  1.0632  0.7439  1.9064
   72SLPC  H15B 6250   5.363   5.818   9.287  2.3494  2.1899 -0.8061
   72SLPC  H15C 6251   5.499   5.743   9.374 -0.2937  0.0285 -0.2917
   72SLPC   C12 6252   5.523   6.002   9.349  0.2610 -0.3716  0.1294
   72SLPC  H12A 6253   5.549   6.091   9.403 -0.4265 -0.3548  0.4422
   72SLPC  H12B 6254   5.472   6.034   9.259  0.7378 -1.2922 -0.4857
   72SLPC   C11 6255   5.637   5.924   9.288  0.5208 -0.3976 -0.0125
   72SLPC  H11A 6256   5.693   5.991   9.220 -0.1306  0.8377  0.6429
   72SLPC  H11B 6257   5.596   5.848   9.218 -3.1562  1.3545  0.0042
   72SLPC     P 6258   5.841   5.968   9.443 -0.0760  0.0698 -0.0130
   72SLPC   O13 6259   5.782   6.083   9.505 -0.2098 -0.2247  0.2560
   72SLPC   O14 6260   5.930   5.882   9.529 -0.1361 -0.1079  0.2856
   72SLPC   O12 6261   5.731   5.876   9.383 -0.1766  0.3090  0.1558
   72SLPC   O11 6262   5.923   6.017   9.311  0.2726  0.8812 -0.2596
   72SLPC    C1 6263   5.991   5.917   9.233 -0.1649 -0.5230  0.3117
   72SLPC    HA 6264   6.083   5.880   9.283  1.1790 -0.1569 -1.7531
   72SLPC    HB 6265   5.936   5.825   9.206  0.4819 -0.5162 -1.1768
   72SLPC    C2 6266   6.049   5.976   9.103  0.3591 -0.2440 -0.2866
   72SLPC    HS 6267   6.115   6.059   9.135  1.2915 -0.5002 -1.4881
   72SLPC   O21 6268   5.939   6.026   9.027 -0.3913 -0.2932 -0.1191
   72SLPC   C21 6269   5.968   6.142   8.958  0.3053  0.2833 -0.0225
   72SLPC   O22 6270   6.070   6.211   8.972  0.5381  0.3041 -0.0850
   72SLPC   C22 6271   5.862   6.164   8.853  0.3986  0.1027 -1.0445
   72SLPC   H2R 6272   5.910   6.122   8.762  1.9191 -1.2526  0.3323
   72SLPC   H2S 6273   5.769   6.111   8.885  1.3633 -0.0589  1.6627
   72SLPC    C3 6274   6.135   5.864   9.029 -0.1531 -0.6703 -0.8578
   72SLPC    HX 6275   6.211   5.830   9.102  0.4664  2.8718  0.3334
   72SLPC    HY 6276   6.195   5.915   8.950  0.8005  0.3799  0.4891
   72SLPC   O31 6277   6.049   5.762   8.980  0.5601  0.0567  0.0102
   72SLPC   C31 6278   6.080   5.641   8.994 -0.0570 -0.0260 -0.4524
   72SLPC   O32 6279   6.189   5.602   9.034  0.2493 -0.0276  0.3956
   72SLPC   C32 6280   5.971   5.540   8.958 -0.5083  0.0900 -0.0341
   72SLPC   H2X 6281   5.887   5.606   8.926 -1.9827 -1.2196  0.9489
   72SLPC   H2Y 6282   5.923   5.494   9.047 -3.2634  0.7608 -1.0744
   72SLPC   C23 6283   5.835   6.309   8.834 -0.0410  0.0541 -0.0472
   72SLPC   H3R 6284   5.912   6.375   8.789  0.1360 -1.9970 -3.0159
   72SLPC   H3S 6285   5.820   6.349   8.937  1.4889 -0.7818  0.5273
   72SLPC   C24 6286   5.714   6.327   8.739 -0.0122 -0.0957  0.0925
   72SLPC   H4R 6287   5.697   6.436   8.733 -0.5485 -0.1931 -0.2674
   72SLPC   H4S 6288   5.617   6.290   8.778  0.1127 -1.3158 -0.6894
   72SLPC   C25 6289   5.735   6.271   8.596  0.1871  0.6554 -0.5431
   72SLPC   H5R 6290   5.644   6.296   8.537  0.8449 -0.3885 -2.0452
   72SLPC   H5S 6291   5.714   6.163   8.610  0.2180  0.8043  0.8731
   72SLPC   C26 6292   5.875   6.318   8.543 -0.4268  0.0690  0.3134
   72SLPC   H6R 6293   5.957   6.260   8.590  0.9150  2.3454  0.9350
   72SLPC   H6S 6294   5.885   6.427   8.564  1.7500 -0.1443  0.5993
   72SLPC   C27 6295   5.897   6.294   8.385  0.1372  1.0912 -0.3620
   72SLPC   H7R 6296   6.005   6.313   8.368  0.6018 -0.0421  1.1490
   72SLPC   H7S 6297   5.837   6.376   8.340 -1.3160  1.7105  2.4613
   72SLPC   C28 6298   5.861   6.149   8.331 -0.2967  0.0738  0.1258
   72SLPC   H8R 6299   5.887   6.153   8.223  2.8410  0.6475  0.8265
   72SLPC   H8S 6300   5.751   6.131   8.326  0.1522 -3.7578  0.6415
   72SLPC   C29 6301   5.934   6.039   8.403  0.1378 -0.6413 -0.0883
   72SLPC   H9R 6302   5.908   6.019   8.508  1.2098  0.6147  0.4489
   72SLPC  C210 6303   6.015   5.948   8.351  0.3418 -0.4519  0.3208
   72SLPC  H10R 6304   6.063   5.882   8.424 -0.6062 -0.4000  1.0068
   72SLPC  C211 6305   6.054   5.937   8.203  0.4499 -0.4168  0.0682
   72SLPC  H11R 6306   6.016   6.029   8.154 -0.8142  0.0111  1.7930
   72SLPC  H11S 6307   5.998   5.854   8.154 -0.1204 -0.8304  1.3978
   72SLPC  C212 6308   6.202   5.914   8.173 -0.2565  0.7380 -0.6291
   72SLPC  H12R 6309   6.260   6.002   8.144 -0.1908  1.1871  0.8327
   72SLPC  C213 6310   6.263   5.792   8.173 -1.2373 -0.0643 -0.0034
   72SLPC  H13R 6311   6.372   5.785   8.169 -1.1798  0.6385  0.1024
   72SLPC  C214 6312   6.200   5.657   8.204 -0.3602 -0.7412 -0.6719
   72SLPC  H14R 6313   6.092   5.674   8.222  0.3244  3.1340  0.5158
   72SLPC  H14S 6314   6.251   5.608   8.289  0.1905  1.7222  0.5066
   72SLPC  C215 6315   6.211   5.565   8.087  0.1828  0.0327  1.3218
   72SLPC  H15R 6316   6.197   5.625   7.994 -2.1148 -0.1336  1.5186
   72SLPC  H15S 6317   6.131   5.489   8.086  0.0865  0.1286  0.0991
   72SLPC  C216 6318   6.341   5.484   8.080 -0.3564  0.5709  0.5583
   72SLPC  H16R 6319   6.374   5.453   8.182  1.4361  1.5905  0.3365
   72SLPC  H16S 6320   6.423   5.547   8.040  0.4313  1.3941  3.2228
   72SLPC  C217 6321   6.328   5.365   7.989 -0.1805  0.3366  0.0080
   72SLPC  H17R 6322   6.322   5.407   7.887 -0.9662 -2.0851 -1.0154
   72SLPC  H17S 6323   6.233   5.308   7.995 -0.7128  0.9693 -1.8889
   72SLPC  C218 6324   6.446   5.267   7.989  0.8210  0.2347  0.1193
   72SLPC  H18R 6325   6.448   5.197   7.903  3.6499 -3.5156  2.8919
   72SLPC  H18S 6326   6.434   5.199   8.076 -0.2740 -1.1281 -1.0589
   72SLPC  H18T 6327   6.548   5.312   7.995  1.1458 -0.5075  0.3098
   72SLPC   C33 6328   5.993   5.436   8.852 -0.3157 -0.2953  0.9687
   72SLPC   H3X 6329   6.083   5.373   8.869 -1.3906 -2.6286 -1.1734
   72SLPC   H3Y 6330   6.004   5.489   8.755 -2.1965  3.5119  2.5992
   72SLPC   C34 6331   5.869   5.337   8.837  0.3334 -0.2467 -0.4472
   72SLPC   H4X 6332   5.852   5.273   8.925  0.3289  0.1644 -0.1471
   72SLPC   H4Y 6333   5.903   5.267   8.757 -1.6234 -1.4261 -0.2909
   72SLPC   C35 6334   5.745   5.409   8.793  0.7976 -0.2317  0.1125
   72SLPC   H5X 6335   5.714   5.477   8.875 -0.3405 -0.4851 -0.0967
   72SLPC   H5Y 6336   5.669   5.329   8.779  0.6648 -0.5124  2.1439
   72SLPC   C36 6337   5.746   5.483   8.657  0.0247  0.7952  0.0890
   72SLPC   H6X 6338   5.815   5.570   8.651  0.3306  0.4515 -2.4369
   72SLPC   H6Y 6339   5.644   5.524   8.650 -0.3716 -0.3572 -1.6132
   72SLPC   C37 6340   5.742   5.391   8.541 -1.0007  0.5476  0.1875
   72SLPC   H7X 6341   5.675   5.306   8.565 -1.2336  0.1496 -1.7251
   72SLPC   H7Y 6342   5.845   5.353   8.524 -1.1041 -0.6584  2.0450
   72SLPC   C38 6343   5.687   5.452   8.414 -0.0075 -0.4415 -0.2698
   72SLPC   H8X 6344   5.586   5.491   8.436 -0.1243 -1.9422  2.1298
   72SLPC   H8Y 6345   5.682   5.373   8.336  1.3330 -0.7585 -0.0686
   72SLPC   C39 6346   5.784   5.556   8.361 -0.0820  0.0274  0.4336
   72SLPC   H9X 6347   5.879   5.499   8.354  0.0902  0.4165 -0.5462
   72SLPC   H9Y 6348   5.797   5.648   8.421  2.4476  0.6351 -0.9075
   72SLPC  C310 6349   5.753   5.598   8.210 -0.3394  0.0199  0.1946
   72SLPC  H10X 6350   5.718   5.517   8.143 -0.0215  0.7283 -0.8403
   72SLPC  H10Y 6351   5.844   5.652   8.177 -0.6151 -0.0838 -0.7558
   72SLPC  C311 6352   5.646   5.707   8.203  0.0589  0.0021 -0.1227
   72SLPC  H11X 6353   5.690   5.802   8.240  0.0904 -0.2275  0.4336
   72SLPC  H11Y 6354   5.556   5.690   8.266 -0.3006  0.1591 -0.5907
   72SLPC  C312 6355   5.596   5.732   8.061  0.0317 -0.5302 -0.5995
   72SLPC  H12X 6356   5.505   5.796   8.071  1.2027  1.1520 -0.3191
   72SLPC  H12Y 6357   5.562   5.638   8.013  0.2601 -1.0248  0.1833
   72SLPC  C313 6358   5.700   5.800   7.972  0.3344 -0.5602 -0.4898
   72SLPC  H13X 6359   5.658   5.791   7.870 -0.2653 -1.2660 -0.1923
   72SLPC  H13Y 6360   5.789   5.733   7.967  1.2782  0.6542 -0.5505
   72SLPC  C314 6361   5.746   5.947   7.997 -0.1173 -0.3249  1.1126
   72SLPC  H14X 6362   5.748   5.957   8.108 -0.1550  1.2254  1.0075
   72SLPC  H14Y 6363   5.662   6.014   7.967  1.5318  0.2030 -3.0273
   72SLPC  C315 6364   5.864   5.985   7.908  0.6439 -0.0128  0.4434
   72SLPC  H15X 6365   5.947   5.915   7.930 -0.7274 -1.9128 -0.1904
   72SLPC  H15Y 6366   5.889   6.088   7.940  3.8191 -0.0289 -1.5924
   72SLPC  C316 6367   5.834   5.992   7.756  0.1963 -0.0376  0.4110
   72SLPC  H16X 6368   5.756   6.071   7.750 -0.0661 -0.3512 -0.4864
   72SLPC  H16Y 6369   5.776   5.901   7.728 -1.0428  0.7103  0.4570
   72SLPC  C317 6370   5.948   6.017   7.657  0.4095  0.2883 -0.2150
   72SLPC  H17X 6371   5.895   6.010   7.560 -1.1495 -1.5235  0.7084
   72SLPC  H17Y 6372   6.022   5.934   7.662 -1.2430 -1.2420 -0.4296
   72SLPC  C318 6373   6.013   6.156   7.683 -0.1011 -0.2392 -0.0704
   72SLPC  H18X 6374   6.088   6.182   7.605 -2.2338  0.8956 -1.8811
   72SLPC  H18Y 6375   6.059   6.173   7.782 -0.9187  2.6772 -0.1066
   72SLPC  H18Z 6376   5.924   6.223   7.679 -0.9749 -1.3251  0.5666
   73SLPC     N 6377   6.892   5.010   9.684 -0.1449  0.6193 -0.6611
   73SLPC   C13 6378   6.785   5.113   9.688  0.1275 -0.1526  0.2810
   73SLPC  H13A 6379   6.704   5.065   9.742  1.1493  0.8467  2.8928
   73SLPC  H13B 6380   6.817   5.202   9.739 -1.7521  1.0232 -0.4939
   73SLPC  H13C 6381   6.748   5.138   9.590 -1.4049 -0.6566  0.6956
   73SLPC   C14 6382   6.893   4.944   9.824 -0.0995  0.2201 -0.2808
   73SLPC  H14A 6383   6.963   4.999   9.885 -1.9064  2.0380  0.2747
   73SLPC  H14B 6384   6.795   4.957   9.868 -0.2475  2.1671 -1.0622
   73SLPC  H14C 6385   6.924   4.841   9.817  2.1526  0.7011  1.5817
   73SLPC   C15 6386   7.025   5.081   9.663  0.5095  0.1523 -0.1313
   73SLPC  H15A 6387   7.039   5.173   9.718 -0.4375  0.5390 -0.5251
   73SLPC  H15B 6388   7.108   5.012   9.673  0.6865  0.5860  1.6672
   73SLPC  H15C 6389   7.033   5.114   9.560 -0.0760 -0.6297 -0.4384
   73SLPC   C12 6390   6.867   4.904   9.578 -0.0016 -0.2244 -0.3009
   73SLPC  H12A 6391   6.948   4.833   9.576 -0.1532 -0.4930  1.5045
   73SLPC  H12B 6392   6.841   4.953   9.485  0.0888  2.1208  0.8390
   73SLPC   C11 6393   6.742   4.819   9.614 -0.5554  0.0656  0.3789
   73SLPC  H11A 6394   6.670   4.814   9.529  2.2139 -0.9037 -2.1021
   73SLPC  H11B 6395   6.671   4.863   9.688 -3.8157 -1.6804 -1.4521
   73SLPC     P 6396   6.814   4.580   9.550 -0.4658  0.4201 -0.0338
   73SLPC   O13 6397   6.944   4.516   9.574 -0.0128  0.5065 -0.0795
   73SLPC   O14 6398   6.696   4.487   9.549 -0.2972  0.7240 -0.3478
   73SLPC   O12 6399   6.785   4.690   9.663  0.4903  0.0293 -0.2405
   73SLPC   O11 6400   6.820   4.658   9.408  0.1510  0.3085  0.2428
   73SLPC    C1 6401   6.854   4.573   9.294 -0.0032 -0.7376 -0.1530
   73SLPC    HA 6402   6.934   4.501   9.320  0.5085  0.1268  0.7398
   73SLPC    HB 6403   6.769   4.505   9.274 -0.4265 -0.2623 -0.0034
   73SLPC    C2 6404   6.874   4.653   9.159 -0.8221  0.2924 -0.3073
   73SLPC    HS 6405   6.892   4.578   9.079 -1.2442  0.9308 -1.0116
   73SLPC   O21 6406   6.978   4.747   9.175  0.2516 -0.6863  0.3025
   73SLPC   C21 6407   7.100   4.692   9.196  0.7350 -0.5260 -0.0526
   73SLPC   O22 6408   7.121   4.575   9.191  0.7163  0.6234  0.5186
   73SLPC   C22 6409   7.209   4.789   9.231 -0.1546  0.2899 -0.0279
   73SLPC   H2R 6410   7.163   4.890   9.220  0.1820  0.5995  1.3055
   73SLPC   H2S 6411   7.237   4.776   9.338 -1.3997 -0.2340  0.2507
   73SLPC    C3 6412   6.751   4.728   9.118 -0.2294 -0.5804  0.4116
   73SLPC    HX 6413   6.765   4.762   9.013  2.3936 -0.3072  0.7995
   73SLPC    HY 6414   6.737   4.819   9.180 -4.0003 -1.0541  0.4819
   73SLPC   O31 6415   6.630   4.649   9.119  0.0136  0.4004 -0.7624
   73SLPC   C31 6416   6.531   4.697   9.196 -0.2712 -0.3916  0.2413
   73SLPC   O32 6417   6.537   4.790   9.270  0.1088 -0.0613  0.3997
   73SLPC   C32 6418   6.403   4.624   9.164  1.1446  0.5431 -0.0437
   73SLPC   H2X 6419   6.376   4.571   9.257 -0.0459 -0.0623 -0.7145
   73SLPC   H2Y 6420   6.413   4.547   9.085 -1.0618 -2.4319  2.3875
   73SLPC   C23 6421   7.341   4.763   9.140  0.4256 -0.4770 -0.2713
   73SLPC   H3R 6422   7.371   4.656   9.132 -1.6898 -1.3402  1.9938
   73SLPC   H3S 6423   7.427   4.815   9.186  0.5266 -0.9879  0.1289
   73SLPC   C24 6424   7.329   4.822   9.002  0.0846 -0.3803  0.4547
   73SLPC   H4R 6425   7.247   4.779   8.940  1.0605 -3.1146  0.9226
   73SLPC   H4S 6426   7.412   4.770   8.949 -0.2381 -0.9158  0.4693
   73SLPC   C25 6427   7.358   4.971   8.988  0.2717 -0.4575  0.7266
   73SLPC   H5R 6428   7.465   4.994   9.006  0.4182 -1.6113  1.4550
   73SLPC   H5S 6429   7.289   5.036   9.047  0.0819  1.3225 -1.3269
   73SLPC   C26 6430   7.337   5.006   8.840  0.1761  0.8228  1.1795
   73SLPC   H6R 6431   7.243   4.961   8.801  1.1826  0.0959 -0.5438
   73SLPC   H6S 6432   7.418   4.963   8.777 -0.3722  2.2176 -0.5559
   73SLPC   C27 6433   7.347   5.155   8.801 -0.1845  0.7152  0.1220
   73SLPC   H7R 6434   7.433   5.198   8.857 -0.7493  0.0769  1.5095
   73SLPC   H7S 6435   7.269   5.210   8.857  0.1214  1.8745 -0.5626
   73SLPC   C28 6436   7.347   5.190   8.642  0.5141 -0.3740 -0.8971
   73SLPC   H8R 6437   7.445   5.157   8.604  1.7852 -2.0607  3.3118
   73SLPC   H8S 6438   7.336   5.301   8.647  0.0564 -0.3292 -2.4265
   73SLPC   C29 6439   7.230   5.130   8.569 -0.2775 -0.3551 -0.3639
   73SLPC   H9R 6440   7.145   5.198   8.556  0.7830  1.4086  1.3947
   73SLPC  C210 6441   7.233   5.027   8.488 -1.1008 -0.3208 -0.5569
   73SLPC  H10R 6442   7.139   5.010   8.434 -0.6211  0.5238 -1.7259
   73SLPC  C211 6443   7.349   4.934   8.452 -0.0368 -0.1600 -0.0109
   73SLPC  H11R 6444   7.426   4.947   8.531  0.5115 -1.3301 -0.3285
   73SLPC  H11S 6445   7.403   4.963   8.359  3.5305 -0.5236  1.7724
   73SLPC  C212 6446   7.305   4.790   8.429 -0.0911 -0.2710  0.1404
   73SLPC  H12R 6447   7.253   4.750   8.517  0.0712  2.0111  1.3585
   73SLPC  C213 6448   7.297   4.722   8.310 -0.4162  0.1926 -0.0747
   73SLPC  H13R 6449   7.257   4.620   8.322 -0.5641  0.5522  4.3546
   73SLPC  C214 6450   7.333   4.772   8.173  0.6230  0.1728 -0.5061
   73SLPC  H14R 6451   7.386   4.699   8.109  2.0854  1.3790 -0.7065
   73SLPC  H14S 6452   7.390   4.867   8.167  0.7791  0.2708  1.6943
   73SLPC  C215 6453   7.212   4.807   8.077  0.5629  0.6180  0.5114
   73SLPC  H15R 6454   7.155   4.890   8.123  1.2029  0.7167  1.1516
   73SLPC  H15S 6455   7.144   4.720   8.082 -0.8940  1.5835 -1.2871
   73SLPC  C216 6456   7.254   4.825   7.930 -0.0367 -0.1569 -0.9754
   73SLPC  H16R 6457   7.336   4.759   7.895  0.2827 -0.7718  0.8275
   73SLPC  H16S 6458   7.289   4.931   7.930 -1.3034  0.2939  0.5631
   73SLPC  C217 6459   7.133   4.803   7.835  0.1575  0.5515  0.4090
   73SLPC  H17R 6460   7.042   4.859   7.866  0.1041 -0.2450  1.7808
   73SLPC  H17S 6461   7.109   4.694   7.834  0.3874  0.4791 -1.3131
   73SLPC  C218 6462   7.180   4.850   7.697 -0.4104  0.3014  0.3318
   73SLPC  H18R 6463   7.100   4.900   7.637  0.8970  0.3212 -1.4958
   73SLPC  H18S 6464   7.209   4.766   7.630 -0.9281  1.6722 -1.7249
   73SLPC  H18T 6465   7.262   4.925   7.696 -1.2947  1.3269  1.5101
   73SLPC   C33 6466   6.286   4.722   9.130  0.3040  0.3711  0.1467
   73SLPC   H3X 6467   6.287   4.815   9.191 -3.4307  2.3502 -2.4171
   73SLPC   H3Y 6468   6.193   4.666   9.148  0.2949  0.1101 -0.6663
   73SLPC   C34 6469   6.286   4.757   8.980  0.6462 -0.5372  0.8200
   73SLPC   H4X 6470   6.183   4.756   8.938  0.0933  1.1366  2.0309
   73SLPC   H4Y 6471   6.348   4.681   8.928 -1.8553 -1.6066 -0.8166
   73SLPC   C35 6472   6.349   4.894   8.945 -0.2385 -0.5577  0.0051
   73SLPC   H5X 6473   6.452   4.885   8.986 -0.6464 -2.9838  0.6855
   73SLPC   H5Y 6474   6.310   4.982   9.000  0.6423  1.0155 -1.7684
   73SLPC   C36 6475   6.361   4.937   8.791 -0.7005 -0.1126 -0.1665
   73SLPC   H6X 6476   6.412   4.850   8.743  1.6590  0.2134  1.5824
   73SLPC   H6Y 6477   6.436   5.019   8.785  1.5163 -1.6085  3.4614
   73SLPC   C37 6478   6.222   4.971   8.741 -0.4290  0.0316 -0.2138
   73SLPC   H7X 6479   6.151   4.980   8.826  1.7924 -1.7675  1.9460
   73SLPC   H7Y 6480   6.182   4.890   8.676 -1.2666 -0.3680  0.7827
   73SLPC   C38 6481   6.214   5.099   8.656  1.3004  0.5496 -0.0009
   73SLPC   H8X 6482   6.262   5.179   8.715  0.6793 -0.7170  2.3580
   73SLPC   H8Y 6483   6.107   5.122   8.638  1.3014  0.9530  0.4803
   73SLPC   C39 6484   6.280   5.067   8.524  0.3282 -0.9417 -0.2227
   73SLPC   H9X 6485   6.232   4.974   8.488 -1.3724 -0.2110  0.0331
   73SLPC   H9Y 6486   6.383   5.033   8.545  0.6543 -0.1417 -0.4791
   73SLPC  C310 6487   6.271   5.181   8.423 -0.0499  0.3010  0.0211
   73SLPC  H10X 6488   6.163   5.206   8.417  0.1329  1.9410  2.2892
   73SLPC  H10Y 6489   6.309   5.146   8.325  3.1528  2.0443  0.5440
   73SLPC  C311 6490   6.343   5.311   8.463 -0.0923  0.0181 -0.2359
   73SLPC  H11X 6491   6.392   5.361   8.377 -2.3632  1.9392 -0.5245
   73SLPC  H11Y 6492   6.418   5.283   8.540  1.7667 -1.7579 -2.5350
   73SLPC  C312 6493   6.240   5.418   8.514  0.3177 -0.5049  0.4615
   73SLPC  H12X 6494   6.189   5.381   8.605 -0.1324  1.9368  1.2861
   73SLPC  H12Y 6495   6.167   5.439   8.434  0.8852 -1.3448 -0.2997
   73SLPC  C313 6496   6.312   5.550   8.553 -0.0601 -0.3938 -0.3513
   73SLPC  H13X 6497   6.231   5.623   8.576 -0.4213 -1.0884  0.6617
   73SLPC  H13Y 6498   6.371   5.584   8.466 -1.4185 -0.2607 -1.2513
   73SLPC  C314 6499   6.390   5.550   8.693 -0.0970  0.1550 -0.1922
   73SLPC  H14X 6500   6.474   5.478   8.680 -1.0709 -0.7555 -1.8160
   73SLPC  H14Y 6501   6.318   5.509   8.767  1.1032  1.1070  1.5727
   73SLPC  C315 6502   6.445   5.686   8.742 -0.3174  0.0452  0.4707
   73SLPC  H15X 6503   6.369   5.757   8.783  0.8573  2.4361 -1.2694
   73SLPC  H15Y 6504   6.493   5.730   8.653  1.3822 -2.9440 -0.2104
   73SLPC  C316 6505   6.559   5.683   8.842 -0.3204  0.4194  0.0197
   73SLPC  H16X 6506   6.574   5.793   8.851  1.4530  0.3470 -1.4318
   73SLPC  H16Y 6507   6.657   5.643   8.807 -0.9940 -1.4517  0.1502
   73SLPC  C317 6508   6.515   5.629   8.982 -0.9507 -0.0359 -1.5577
   73SLPC  H17X 6509   6.510   5.518   8.979  1.6513 -0.2281 -0.6230
   73SLPC  H17Y 6510   6.408   5.660   8.990 -1.3456 -1.5695 -0.3004
   73SLPC  C318 6511   6.598   5.666   9.107 -0.0376 -0.0058  0.3105
   73SLPC  H18X 6512   6.697   5.625   9.078 -0.4480 -0.1098 -1.0206
   73SLPC  H18Y 6513   6.546   5.624   9.196 -1.5635  0.4480 -0.3281
   73SLPC  H18Z 6514   6.612   5.775   9.121  1.7935  0.0565 -1.4862
   74SLPC     N 6515   6.334   0.166   9.424 -0.4847  0.6308  0.5316
   74SLPC   C13 6516   6.403   0.247   9.526 -0.0959  0.2833  0.0125
   74SLPC  H13A 6517   6.340   0.302   9.594  0.8523  1.1713  0.2044
   74SLPC  H13B 6518   6.485   0.201   9.579 -0.9276  0.8223  1.8288
   74SLPC  H13C 6519   6.466   0.318   9.473 -0.4594  1.2080  0.7895
   74SLPC   C14 6520   6.435   0.096   9.336 -0.6905  0.2803 -0.6758
   74SLPC  H14A 6521   6.436  -0.009   9.362  2.1582  0.4785  0.3840
   74SLPC  H14B 6522   6.410   0.106   9.231  1.9567  1.7523 -1.2669
   74SLPC  H14C 6523   6.532   0.140   9.353 -0.7074 -0.2816  1.1082
   74SLPC   C15 6524   6.272   0.258   9.334  0.4880 -0.7220 -0.2189
   74SLPC  H15A 6525   6.220   0.212   9.251 -1.2286 -0.9712  0.9466
   74SLPC  H15B 6526   6.196   0.317   9.383  1.6702  0.8851 -0.2020
   74SLPC  H15C 6527   6.339   0.334   9.296 -1.4914  0.7397 -0.9775
   74SLPC   C12 6528   6.234   0.065   9.481 -0.7260  0.4170 -0.2178
   74SLPC  H12A 6529   6.169   0.028   9.403 -0.8167  1.0784 -0.4629
   74SLPC  H12B 6530   6.163   0.120   9.541  0.6352  1.4081  0.5605
   74SLPC   C11 6531   6.286  -0.047   9.571 -0.4039  0.5056 -0.8044
   74SLPC  H11A 6532   6.200  -0.097   9.620  1.6229 -1.9370  0.5127
   74SLPC  H11B 6533   6.348  -0.002   9.652 -2.0065 -1.3693  1.6232
   74SLPC     P 6534   6.283  -0.242   9.412  0.0818  0.0677  0.0375
   74SLPC   O13 6535   6.286  -0.377   9.472  0.1232 -0.1245 -0.7075
   74SLPC   O14 6536   6.154  -0.180   9.382 -0.1296  0.2152  0.0650
   74SLPC   O12 6537   6.368  -0.140   9.495  0.1180  0.0737  0.2965
   74SLPC   O11 6538   6.379  -0.247   9.290 -0.2522 -0.0453  0.4456
   74SLPC    C1 6539   6.330  -0.317   9.173  0.2989 -0.2820  0.1229
   74SLPC    HA 6540   6.414  -0.387   9.155  0.4087 -0.6205  1.8219
   74SLPC    HB 6541   6.241  -0.379   9.197 -0.5598  1.1549  0.7823
   74SLPC    C2 6542   6.289  -0.230   9.046 -0.7698 -0.0330 -0.4412
   74SLPC    HS 6543   6.258  -0.294   8.960  0.5200 -0.3325 -0.7067
   74SLPC   O21 6544   6.401  -0.159   9.005  0.2109 -1.2175  0.6533
   74SLPC   C21 6545   6.480  -0.213   8.913 -0.0809  0.4956  0.3411
   74SLPC   O22 6546   6.455  -0.324   8.860 -0.1442 -0.3356 -0.4832
   74SLPC   C22 6547   6.605  -0.130   8.897  0.0895 -0.0990 -0.5327
   74SLPC   H2R 6548   6.568  -0.042   8.840 -0.3355 -1.9297 -3.2731
   74SLPC   H2S 6549   6.622  -0.105   9.004 -2.5912  0.3250 -0.1154
   74SLPC    C3 6550   6.175  -0.128   9.083  0.1098  0.2421 -0.8309
   74SLPC    HX 6551   6.201  -0.078   9.178 -1.6710 -1.5252  0.6794
   74SLPC    HY 6552   6.089  -0.195   9.106 -0.4007 -0.1158 -3.4459
   74SLPC   O31 6553   6.143  -0.043   8.969 -0.5229  0.1053 -0.0232
   74SLPC   C31 6554   6.213   0.067   8.976 -0.4413 -0.5247  1.1980
   74SLPC   O32 6555   6.288   0.112   9.060 -0.7701  0.4513  0.1626
   74SLPC   C32 6556   6.185   0.148   8.842  0.3229  0.4486  0.5209
   74SLPC   H2X 6557   6.206   0.256   8.861 -0.0707  0.6731 -0.2957
   74SLPC   H2Y 6558   6.080   0.125   8.814  0.8942 -1.8638  0.0488
   74SLPC   C23 6559   6.716  -0.197   8.813  0.0408  0.0391  0.7330
   74SLPC   H3R 6560   6.724  -0.300   8.854  0.8903 -0.1192  0.1777
   74SLPC   H3S 6561   6.813  -0.145   8.823  0.8833 -1.2149 -0.5461
   74SLPC   C24 6562   6.679  -0.202   8.662  0.0235  0.1908 -0.6997
   74SLPC   H4R 6563   6.674  -0.094   8.635  0.4050  0.4920  0.3741
   74SLPC   H4S 6564   6.581  -0.247   8.636  0.6517 -1.4801 -0.2779
   74SLPC   C25 6565   6.793  -0.274   8.587  0.1026  0.1530  0.0209
   74SLPC   H5R 6566   6.805  -0.376   8.629 -1.0399 -0.2684 -0.6054
   74SLPC   H5S 6567   6.890  -0.223   8.601  0.1849 -0.5731  2.5501
   74SLPC   C26 6568   6.780  -0.282   8.427 -0.6330  0.0781 -0.1506
   74SLPC   H6R 6569   6.736  -0.186   8.394 -1.6410 -0.7422 -1.2840
   74SLPC   H6S 6570   6.699  -0.356   8.410  0.9762 -1.9012  0.3606
   74SLPC   C27 6571   6.918  -0.304   8.355  0.1571  0.0666  0.4992
   74SLPC   H7R 6572   6.911  -0.388   8.282  0.4301 -0.0824  0.6446
   74SLPC   H7S 6573   6.992  -0.339   8.429 -0.5512 -0.9295  0.7568
   74SLPC   C28 6574   6.974  -0.174   8.283  0.3238  0.0681  0.4045
   74SLPC   H8R 6575   6.882  -0.136   8.233 -0.4007 -2.8060 -0.6089
   74SLPC   H8S 6576   7.053  -0.201   8.210  0.2127  0.2010  0.2342
   74SLPC   C29 6577   7.036  -0.089   8.388 -0.0082 -0.4719 -0.1146
   74SLPC   H9R 6578   7.121  -0.137   8.440  1.1917  0.1385 -1.4352
   74SLPC  C210 6579   7.024   0.041   8.419 -0.3056 -0.0672  0.0550
   74SLPC  H10R 6580   7.079   0.084   8.504  2.1391 -1.6540 -0.6430
   74SLPC  C211 6581   6.941   0.147   8.348  0.4341  0.3248  0.2950
   74SLPC  H11R 6582   6.926   0.238   8.409 -0.2987  0.6298 -0.3193
   74SLPC  H11S 6583   6.835   0.113   8.346  0.9518 -1.4397  0.8358
   74SLPC  C212 6584   6.974   0.196   8.209  0.2561 -0.7357 -0.2516
   74SLPC  H12R 6585   6.888   0.189   8.141 -1.0174  1.3698  1.0221
   74SLPC  C213 6586   7.097   0.245   8.169 -0.3951 -0.3310  0.2054
   74SLPC  H13R 6587   7.096   0.298   8.072  0.1074  0.4689  0.6207
   74SLPC  C214 6588   7.216   0.270   8.262  0.3036  0.3285  0.4446
   74SLPC  H14R 6589   7.201   0.298   8.368  0.0200 -2.9682  1.3874
   74SLPC  H14S 6590   7.258   0.364   8.219  0.3708  0.8262  1.5528
   74SLPC  C215 6591   7.325   0.158   8.274  0.3182 -0.0782 -0.5191
   74SLPC  H15R 6592   7.351   0.132   8.169 -0.6640 -1.9177 -0.3355
   74SLPC  H15S 6593   7.288   0.069   8.328  0.2487  0.1873 -0.1239
   74SLPC  C216 6594   7.449   0.218   8.342 -0.4153 -0.0429 -0.8604
   74SLPC  H16R 6595   7.434   0.227   8.452  0.3580  3.4461 -0.9485
   74SLPC  H16S 6596   7.469   0.322   8.308 -0.2901  0.0815 -0.4149
   74SLPC  C217 6597   7.580   0.141   8.318  0.2851  0.0395 -0.1195
   74SLPC  H17R 6598   7.579   0.107   8.212 -1.3114 -0.6475  0.0847
   74SLPC  H17S 6599   7.570   0.045   8.374 -1.0485 -0.0128 -0.4053
   74SLPC  C218 6600   7.715   0.206   8.350 -0.1152  0.4535 -0.3173
   74SLPC  H18R 6601   7.799   0.134   8.353 -0.8758 -0.4102  1.4000
   74SLPC  H18S 6602   7.711   0.239   8.456  0.4052  0.4927 -0.3068
   74SLPC  H18T 6603   7.753   0.292   8.290  1.9722 -0.7577 -0.8291
   74SLPC   C33 6604   6.289   0.112   8.727 -0.2706  0.2758  0.3642
   74SLPC   H3X 6605   6.394   0.114   8.763  1.1263  1.4013 -3.2137
   74SLPC   H3Y 6606   6.274   0.185   8.644 -1.0788  0.7029  0.8749
   74SLPC   C34 6607   6.263  -0.016   8.656  0.0073 -1.2099  0.6467
   74SLPC   H4X 6608   6.153  -0.031   8.652 -0.1896 -0.9453  3.3384
   74SLPC   H4Y 6609   6.310  -0.100   8.712  2.4746 -0.6102 -0.3657
   74SLPC   C35 6610   6.317  -0.024   8.513  0.3066 -0.3343  0.9286
   74SLPC   H5X 6611   6.426  -0.006   8.516  0.7231 -2.4767  0.3219
   74SLPC   H5Y 6612   6.259   0.049   8.452 -1.1151 -0.4283  2.1175
   74SLPC   C36 6613   6.314  -0.172   8.454  0.4671 -0.9193 -0.8189
   74SLPC   H6X 6614   6.212  -0.195   8.416  0.1464  0.5807 -0.9328
   74SLPC   H6Y 6615   6.344  -0.243   8.534  3.2346  0.1669 -0.7984
   74SLPC   C37 6616   6.401  -0.185   8.333  0.3414  0.0631 -0.0798
   74SLPC   H7X 6617   6.361  -0.275   8.281 -0.4824  0.4128 -0.0599
   74SLPC   H7Y 6618   6.508  -0.204   8.356  0.0134 -0.7581  0.7740
   74SLPC   C38 6619   6.389  -0.068   8.238 -0.3912 -0.0703  0.1874
   74SLPC   H8X 6620   6.444   0.019   8.281 -0.5831 -0.4265  1.1678
   74SLPC   H8Y 6621   6.280  -0.046   8.228 -0.8483 -1.4657  1.7447
   74SLPC   C39 6622   6.459  -0.094   8.102  0.5180 -0.2688  0.0244
   74SLPC   H9X 6623   6.415  -0.022   8.031  0.8724  0.7653  0.8256
   74SLPC   H9Y 6624   6.434  -0.198   8.072  1.2736 -0.6921  0.8241
   74SLPC  C310 6625   6.607  -0.059   8.103 -0.1670 -0.2664 -0.2452
   74SLPC  H10X 6626   6.656  -0.116   8.185  0.5633  1.7791  0.8060
   74SLPC  H10Y 6627   6.627   0.047   8.130 -1.7099  0.3358 -1.3118
   74SLPC  C311 6628   6.673  -0.092   7.966 -0.1021 -0.2529 -0.1907
   74SLPC  H11X 6629   6.624  -0.017   7.900 -1.0745 -1.0775 -0.4351
   74SLPC  H11Y 6630   6.642  -0.193   7.930 -0.2720 -0.3374  0.1876
   74SLPC  C312 6631   6.827  -0.072   7.969  0.2315  0.0518 -0.3528
   74SLPC  H12X 6632   6.873  -0.166   8.008  0.8880  0.7229  0.5379
   74SLPC  H12Y 6633   6.841   0.011   8.042  0.3670 -0.3262  0.0626
   74SLPC  C313 6634   6.892  -0.044   7.830  0.7669  1.0346 -0.8084
   74SLPC  H13X 6635   6.844   0.045   7.784 -0.9730  0.2827 -0.5000
   74SLPC  H13Y 6636   6.865  -0.137   7.777  0.3104  1.1038 -0.7010
   74SLPC  C314 6637   7.037  -0.032   7.851  0.1009  0.1986 -0.3282
   74SLPC  H14X 6638   7.065  -0.120   7.912 -0.1113  1.0658  1.0500
   74SLPC  H14Y 6639   7.076   0.053   7.911  1.0165  0.1891 -0.8855
   74SLPC  C315 6640   7.109  -0.039   7.714 -0.2132 -0.4088 -0.3695
   74SLPC  H15X 6641   7.118   0.066   7.680 -1.3980 -0.3134 -0.4266
   74SLPC  H15Y 6642   7.046  -0.089   7.637 -0.5436 -0.6138  0.0312
   74SLPC  C316 6643   7.251  -0.094   7.722  0.2373 -0.4426  0.2174
   74SLPC  H16X 6644   7.284  -0.077   7.618 -2.4642  2.6147 -0.3301
   74SLPC  H16Y 6645   7.232  -0.200   7.749 -3.0729 -0.0418 -0.0281
   74SLPC  C317 6646   7.342  -0.029   7.825  0.5779  0.6749 -0.3019
   74SLPC  H17X 6647   7.431  -0.091   7.846  0.5954  0.4791 -0.9447
   74SLPC  H17Y 6648   7.295  -0.026   7.926  1.5411  0.9994  0.1484
   74SLPC  C318 6649   7.368   0.118   7.791  0.1012 -0.3524  0.2328
   74SLPC  H18X 6650   7.271   0.174   7.791 -0.4159 -1.2013 -1.0961
   74SLPC  H18Y 6651   7.406   0.125   7.687 -1.8826 -1.4588 -0.6316
   74SLPC  H18Z 6652   7.446   0.170   7.850  1.1648 -0.7041 -0.8142
   75SLPC     N 6653   1.478   2.426   5.520 -0.6178  0.2094  0.3491
   75SLPC   C13 6654   1.611   2.400   5.569 -0.1292  0.1846 -0.3555
   75SLPC  H13A 6655   1.681   2.475   5.534 -2.6502  3.1321  0.4258
   75SLPC  H13B 6656   1.609   2.406   5.677 -1.3753  0.1817 -0.3666
   75SLPC  H13C 6657   1.633   2.295   5.555 -0.6513 -0.2447  1.7688
   75SLPC   C14 6658   1.467   2.382   5.377 -0.4583  0.6486 -0.3101
   75SLPC  H14A 6659   1.522   2.447   5.311  1.2318 -2.1836 -1.8810
   75SLPC  H14B 6660   1.506   2.282   5.362  2.1123  1.5220 -0.0129
   75SLPC  H14C 6661   1.363   2.375   5.350 -0.0750 -0.7798 -1.5387
   75SLPC   C15 6662   1.448   2.567   5.506  0.5438  0.3671 -0.7643
   75SLPC  H15A 6663   1.348   2.577   5.466 -1.1594 -0.1597  2.9642
   75SLPC  H15B 6664   1.448   2.612   5.605  2.4336 -2.2941  0.5554
   75SLPC  H15C 6665   1.526   2.612   5.446  1.4919 -0.3092 -0.0685
   75SLPC   C12 6666   1.366   2.350   5.596 -0.3792 -0.2140 -0.3505
   75SLPC  H12A 6667   1.387   2.248   5.568 -1.5937  0.0153 -2.3001
   75SLPC  H12B 6668   1.271   2.379   5.554 -0.3331 -1.9828 -1.7736
   75SLPC   C11 6669   1.349   2.371   5.746 -0.0904 -0.1581 -0.0185
   75SLPC  H11A 6670   1.415   2.310   5.810 -0.7295 -0.0295  0.7718
   75SLPC  H11B 6671   1.247   2.335   5.769  0.3473 -0.1661  2.0928
   75SLPC     P 6672   1.445   2.563   5.893  0.0443 -0.0493  0.6208
   75SLPC   O13 6673   1.578   2.502   5.860 -0.8723 -0.3592 -0.1504
   75SLPC   O14 6674   1.435   2.709   5.905 -0.6262  0.4416 -0.1913
   75SLPC   O12 6675   1.340   2.510   5.788 -0.0535  0.5782 -0.2573
   75SLPC   O11 6676   1.396   2.499   6.027  0.4772  0.2328  0.2300
   75SLPC    C1 6677   1.261   2.505   6.073 -0.0934  0.3259 -0.1985
   75SLPC    HA 6678   1.193   2.468   5.993  2.1940 -0.8506 -1.7094
   75SLPC    HB 6679   1.257   2.431   6.155 -1.7952  2.1720  1.5120
   75SLPC    C2 6680   1.223   2.639   6.136  0.8413  0.0940  0.3702
   75SLPC    HS 6681   1.214   2.709   6.051 -1.1436 -0.8540 -0.2583
   75SLPC   O21 6682   1.320   2.692   6.231 -0.5151  0.2084  0.4872
   75SLPC   C21 6683   1.318   2.822   6.242  0.7595 -0.2195  0.1096
   75SLPC   O22 6684   1.240   2.897   6.182  0.1447  0.2924 -0.2007
   75SLPC   C22 6685   1.443   2.858   6.330 -0.1588 -0.3040  0.2892
   75SLPC   H2R 6686   1.474   2.759   6.370  1.9953 -0.0811 -0.7022
   75SLPC   H2S 6687   1.516   2.908   6.262 -0.9270  0.4704  0.0055
   75SLPC    C3 6688   1.083   2.625   6.201  1.0548 -0.8447  0.0736
   75SLPC    HX 6689   1.002   2.603   6.129 -0.1599  1.4684  0.6587
   75SLPC    HY 6690   1.049   2.726   6.233  2.3878 -0.0211 -0.9912
   75SLPC   O31 6691   1.076   2.519   6.301 -0.5860 -0.2951  0.3126
   75SLPC   C31 6692   1.089   2.568   6.426 -0.2717 -0.0045 -0.0511
   75SLPC   O32 6693   1.089   2.682   6.461  0.3158  0.2015  0.1084
   75SLPC   C32 6694   1.089   2.459   6.526  0.4372  0.0946 -0.7147
   75SLPC   H2X 6695   1.163   2.379   6.504  0.0752 -0.3958 -0.1756
   75SLPC   H2Y 6696   0.987   2.415   6.522  0.9390 -1.2409  0.4430
   75SLPC   C23 6697   1.417   2.956   6.442 -0.3986  0.2592  0.2049
   75SLPC   H3R 6698   1.376   3.052   6.403 -0.2019 -0.4928 -1.9815
   75SLPC   H3S 6699   1.523   2.981   6.467  0.0480  1.5722 -2.6014
   75SLPC   C24 6700   1.340   2.904   6.565 -0.9467  0.2318 -0.5461
   75SLPC   H4R 6701   1.239   2.879   6.528 -0.8846 -0.5522 -0.2158
   75SLPC   H4S 6702   1.346   2.991   6.634  2.1525  0.1964 -0.6274
   75SLPC   C25 6703   1.384   2.779   6.649 -0.3371  1.0337 -0.7704
   75SLPC   H5R 6704   1.494   2.785   6.661 -0.4799  0.3087  1.2636
   75SLPC   H5S 6705   1.362   2.689   6.587  0.3571  1.8058 -2.1909
   75SLPC   C26 6706   1.324   2.760   6.793 -0.1928  0.0411 -0.1787
   75SLPC   H6R 6707   1.349   2.656   6.823  1.1996  0.0343 -1.2339
   75SLPC   H6S 6708   1.214   2.757   6.777 -0.2694  3.1618 -0.8927
   75SLPC   C27 6709   1.343   2.871   6.900 -0.2029 -0.2446  0.5293
   75SLPC   H7R 6710   1.294   2.959   6.854  0.6545 -0.2285 -0.3557
   75SLPC   H7S 6711   1.449   2.892   6.925 -0.5986  2.4693  0.1852
   75SLPC   C28 6712   1.267   2.835   7.022  0.1296 -0.7291 -0.0733
   75SLPC   H8R 6713   1.297   2.745   7.079 -1.2010 -0.6111  0.8581
   75SLPC   H8S 6714   1.172   2.796   6.981  0.5060 -0.4886 -1.2296
   75SLPC   C29 6715   1.250   2.947   7.112  0.0412 -0.2217  0.4156
   75SLPC   H9R 6716   1.338   3.013   7.112  1.1635 -1.5607 -2.0849
   75SLPC  C210 6717   1.145   2.971   7.198  0.6573 -0.1364 -0.4205
   75SLPC  H10R 6718   1.137   3.071   7.242 -1.3456 -1.0308  1.3997
   75SLPC  C211 6719   1.016   2.890   7.222  0.2753  0.1238  0.5898
   75SLPC  H11R 6720   1.008   2.869   7.330 -0.4298 -1.5301  0.2412
   75SLPC  H11S 6721   1.036   2.792   7.174  2.5407 -0.1657  1.9897
   75SLPC  C212 6722   0.901   2.955   7.153 -0.2421 -0.3663 -0.3407
   75SLPC  H12R 6723   0.937   3.015   7.068  2.1344 -0.4295  0.5502
   75SLPC  C213 6724   0.772   2.938   7.174 -0.6988 -0.2703  0.4138
   75SLPC  H13R 6725   0.701   2.997   7.114  0.1740  1.8899  1.4057
   75SLPC  C214 6726   0.706   2.855   7.283 -0.7782  0.3212  0.8751
   75SLPC  H14R 6727   0.601   2.890   7.295 -1.1324 -0.4104  0.0376
   75SLPC  H14S 6728   0.758   2.874   7.380  1.3403  0.1651 -0.1767
   75SLPC  C215 6729   0.704   2.698   7.254 -0.4513  0.7212  0.5781
   75SLPC  H15R 6730   0.805   2.675   7.215  0.4268  2.6794  1.5606
   75SLPC  H15S 6731   0.642   2.682   7.164 -0.3169 -3.3029  1.0026
   75SLPC  C216 6732   0.654   2.615   7.371 -0.5817  0.3290  0.8298
   75SLPC  H16R 6733   0.547   2.644   7.381 -0.1828  1.9044  0.8238
   75SLPC  H16S 6734   0.701   2.646   7.466  3.4661 -1.6859 -0.3016
   75SLPC  C217 6735   0.666   2.466   7.350 -0.2655 -0.0724  0.2860
   75SLPC  H17R 6736   0.770   2.432   7.328  0.1006  2.7407 -3.3227
   75SLPC  H17S 6737   0.618   2.444   7.253 -1.1727 -1.0298  0.9303
   75SLPC  C218 6738   0.595   2.368   7.445 -0.4101  0.4246 -0.4653
   75SLPC  H18R 6739   0.660   2.350   7.534  2.2685  0.6403 -2.2723
   75SLPC  H18S 6740   0.580   2.272   7.390 -2.9999  1.2890 -1.3650
   75SLPC  H18T 6741   0.496   2.408   7.475  0.5376  2.4429  0.1025
   75SLPC   C33 6742   1.130   2.490   6.672  0.1611  0.2530  0.1235
   75SLPC   H3X 6743   1.239   2.511   6.677  0.1189  0.4742  0.1117
   75SLPC   H3Y 6744   1.078   2.581   6.709 -2.0695 -1.3009  1.0335
   75SLPC   C34 6745   1.084   2.373   6.760 -0.0427  0.2686  0.0165
   75SLPC   H4X 6746   1.135   2.281   6.723 -0.1956 -0.8431  2.3943
   75SLPC   H4Y 6747   0.975   2.353   6.755 -0.0983 -0.0738  1.9412
   75SLPC   C35 6748   1.127   2.379   6.910 -0.3823  0.5462 -0.4694
   75SLPC   H5X 6749   1.238   2.384   6.912 -0.3400 -0.3685  0.6840
   75SLPC   H5Y 6750   1.099   2.286   6.964  1.4602  0.4077  0.3320
   75SLPC   C36 6751   1.074   2.496   6.992 -0.5011 -0.4691  0.1185
   75SLPC   H6X 6752   0.966   2.502   6.967 -0.7756 -0.6642  1.1838
   75SLPC   H6Y 6753   1.118   2.585   6.943 -1.0194  1.2124  2.4935
   75SLPC   C37 6754   1.110   2.502   7.144  0.7119  0.6205  0.7429
   75SLPC   H7X 6755   1.079   2.594   7.198  1.9796  0.7243  1.3193
   75SLPC   H7Y 6756   1.220   2.490   7.154  0.4919 -1.4759  1.0421
   75SLPC   C38 6757   1.045   2.383   7.224  0.4213  0.7518  0.3637
   75SLPC   H8X 6758   1.107   2.294   7.198  0.2969  1.3255 -2.2173
   75SLPC   H8Y 6759   0.939   2.367   7.196 -0.0821  1.9453  1.4960
   75SLPC   C39 6760   1.049   2.393   7.375  0.0140  0.6084 -0.0696
   75SLPC   H9X 6761   0.965   2.458   7.409  1.2888  0.8267  2.9471
   75SLPC   H9Y 6762   1.140   2.437   7.420 -1.2239  1.4157  1.7509
   75SLPC  C310 6763   1.037   2.253   7.438  0.0057 -0.5661 -0.4437
   75SLPC  H10X 6764   1.139   2.208   7.435  0.8636  1.1908  0.6919
   75SLPC  H10Y 6765   0.965   2.184   7.389  1.2008 -0.9812 -1.6863
   75SLPC  C311 6766   0.992   2.270   7.585  0.3337 -0.2200  0.3990
   75SLPC  H11X 6767   0.882   2.283   7.590  0.0366 -2.6394  1.6821
   75SLPC  H11Y 6768   1.054   2.348   7.633  2.2523 -0.6156 -1.2720
   75SLPC  C312 6769   1.014   2.143   7.662  0.3115 -0.1754  0.5024
   75SLPC  H12X 6770   1.122   2.119   7.651 -0.0635 -1.9155  0.3071
   75SLPC  H12Y 6771   0.968   2.053   7.615 -0.2860  0.4638 -0.1572
   75SLPC  C313 6772   0.974   2.150   7.806 -0.6455 -0.2694 -0.2457
   75SLPC  H13X 6773   0.865   2.141   7.821 -0.8553 -0.1337 -1.6097
   75SLPC  H13Y 6774   1.001   2.247   7.853 -2.3166 -0.5346  1.3890
   75SLPC  C314 6775   1.049   2.041   7.877 -0.1113 -0.2265 -0.3363
   75SLPC  H14X 6776   1.160   2.050   7.882 -0.1020 -0.9465  2.9070
   75SLPC  H14Y 6777   1.035   1.943   7.827  0.3742 -0.3706 -0.1981
   75SLPC  C315 6778   1.007   2.023   8.024  0.1956 -0.0119 -0.5021
   75SLPC  H15X 6779   0.898   2.009   8.040  0.2019  2.3092  2.4158
   75SLPC  H15Y 6780   1.042   2.109   8.086  2.0007 -1.4491  0.5743
   75SLPC  C316 6781   1.076   1.900   8.088 -0.6333  0.4735  0.6131
   75SLPC  H16X 6782   1.183   1.930   8.085 -0.5916  0.4515  1.5554
   75SLPC  H16Y 6783   1.050   1.813   8.024 -2.7322  0.5975  1.2128
   75SLPC  C317 6784   1.030   1.892   8.238  0.0211  0.0073 -0.3651
   75SLPC  H17X 6785   0.938   1.831   8.253  0.5531 -0.3895  1.6200
   75SLPC  H17Y 6786   1.005   1.996   8.268  0.5602 -0.2225  0.9751
   75SLPC  C318 6787   1.137   1.850   8.340 -1.0626 -0.4720  0.5264
   75SLPC  H18X 6788   1.192   1.756   8.323 -2.0486 -0.9093 -0.3810
   75SLPC  H18Y 6789   1.080   1.850   8.436 -2.0041  0.4390 -0.0046
   75SLPC  H18Z 6790   1.214   1.929   8.325 -0.3524 -1.3822 -0.8596
   76SLPC     N 6791   2.106   1.153   5.567  0.3626  0.4033  0.0116
   76SLPC   C13 6792   2.028   1.063   5.478  0.4525 -0.0802  0.3535
   76SLPC  H13A 6793   2.016   1.101   5.378  2.5955  0.2263  0.1521
   76SLPC  H13B 6794   2.074   0.966   5.468 -0.6197 -0.5933  0.2472
   76SLPC  H13C 6795   1.935   1.045   5.530  0.6927 -0.8736  0.5251
   76SLPC   C14 6796   2.034   1.290   5.570 -0.1634  0.4325 -0.0722
   76SLPC  H14A 6797   2.027   1.329   5.469 -2.0966  1.6834  0.4767
   76SLPC  H14B 6798   1.933   1.305   5.606 -0.0161  1.3853 -0.0269
   76SLPC  H14C 6799   2.087   1.364   5.628 -1.7021  0.3461  1.5165
   76SLPC   C15 6800   2.241   1.179   5.511 -0.0571  0.1126 -0.0735
   76SLPC  H15A 6801   2.294   1.269   5.540 -0.1103  0.1012  0.0614
   76SLPC  H15B 6802   2.294   1.085   5.521 -1.0240 -0.2462  2.1503
   76SLPC  H15C 6803   2.235   1.203   5.406  0.6172  1.5968  0.2045
   76SLPC   C12 6804   2.116   1.093   5.703 -0.1175 -1.0466  0.1009
   76SLPC  H12A 6805   2.016   1.093   5.744  0.5101 -3.0590  1.8310
   76SLPC  H12B 6806   2.176   1.153   5.770 -1.9619  0.0350  0.8449
   76SLPC   C11 6807   2.169   0.952   5.712  0.3569  0.1484  0.1122
   76SLPC  H11A 6808   2.103   0.882   5.656 -1.5265  1.1637  0.9747
   76SLPC  H11B 6809   2.148   0.932   5.819 -1.3085  3.2368  0.4912
   76SLPC     P 6810   2.415   0.986   5.754  0.4628 -0.1581 -0.2371
   76SLPC   O13 6811   2.540   0.962   5.678 -0.8387  0.2226 -0.4331
   76SLPC   O14 6812   2.396   1.125   5.807  0.0279 -0.0450  0.8506
   76SLPC   O12 6813   2.295   0.941   5.662 -0.3459  0.0272  0.0505
   76SLPC   O11 6814   2.396   0.895   5.875 -0.1480  0.1761  0.1732
   76SLPC    C1 6815   2.508   0.875   5.957 -0.2786 -0.4171 -0.6213
   76SLPC    HA 6816   2.494   0.770   5.990  1.9432 -0.8893 -1.0118
   76SLPC    HB 6817   2.606   0.871   5.903 -0.9276  0.7842 -1.9521
   76SLPC    C2 6818   2.516   0.969   6.082 -0.0952  0.3662  0.5370
   76SLPC    HS 6819   2.568   1.060   6.045  0.0387  0.3372  0.6533
   76SLPC   O21 6820   2.577   0.898   6.187 -0.1031 -0.2733 -0.0678
   76SLPC   C21 6821   2.706   0.924   6.203  0.2431 -0.1013 -0.9306
   76SLPC   O22 6822   2.776   0.982   6.123  0.0806 -0.4469 -0.0296
   76SLPC   C22 6823   2.766   0.865   6.332 -0.2599  0.7211 -0.6144
   76SLPC   H2R 6824   2.678   0.851   6.398 -0.3535 -0.3469 -0.9421
   76SLPC   H2S 6825   2.804   0.764   6.304  0.4964  0.6578  0.5968
   76SLPC    C3 6826   2.379   1.020   6.128 -0.4058  0.6782 -0.0401
   76SLPC    HX 6827   2.309   0.934   6.118  1.3633 -0.8560  0.2286
   76SLPC    HY 6828   2.357   1.101   6.055  1.2792  0.8730 -0.3919
   76SLPC   O31 6829   2.389   1.074   6.267  0.3971  0.5685  0.0425
   76SLPC   C31 6830   2.293   1.159   6.301  0.0599 -0.5252  0.0474
   76SLPC   O32 6831   2.204   1.201   6.230  0.0039  0.0065 -0.1666
   76SLPC   C32 6832   2.312   1.183   6.453 -0.4764  0.2053 -0.3342
   76SLPC   H2X 6833   2.394   1.257   6.464  1.0207 -1.6396  1.8137
   76SLPC   H2Y 6834   2.350   1.092   6.503  1.1076  0.5489 -0.8684
   76SLPC   C23 6835   2.882   0.941   6.404  0.1342  0.1526 -0.3536
   76SLPC   H3R 6836   2.847   1.046   6.393  1.3301  0.3858 -2.7339
   76SLPC   H3S 6837   2.979   0.936   6.350  1.1082 -1.7161  1.4295
   76SLPC   C24 6838   2.905   0.893   6.550 -0.2064 -0.4133  0.3297
   76SLPC   H4R 6839   2.806   0.877   6.599 -0.6386 -0.8805 -0.6743
   76SLPC   H4S 6840   2.961   0.971   6.607  1.9938 -0.1398 -2.0408
   76SLPC   C25 6841   2.987   0.763   6.559 -0.4982  0.2278  0.0013
   76SLPC   H5R 6842   3.084   0.785   6.509  0.3435 -1.6679  0.7171
   76SLPC   H5S 6843   2.936   0.685   6.499  1.2709 -1.6486  0.8315
   76SLPC   C26 6844   2.998   0.715   6.706 -0.0221 -0.2593  1.0557
   76SLPC   H6R 6845   2.895   0.717   6.747 -0.7494  1.4675 -0.7128
   76SLPC   H6S 6846   3.062   0.794   6.750 -1.6521  1.1616  0.9669
   76SLPC   C27 6847   3.063   0.577   6.731 -0.1432 -0.8667  0.0401
   76SLPC   H7R 6848   3.161   0.575   6.677  0.2468  1.3499  0.5737
   76SLPC   H7S 6849   3.001   0.502   6.678 -1.6755 -1.2024  2.2057
   76SLPC   C28 6850   3.077   0.528   6.875 -0.1799  0.4336 -0.2078
   76SLPC   H8R 6851   3.123   0.428   6.859  3.5651  1.9816 -0.1721
   76SLPC   H8S 6852   3.147   0.586   6.938 -1.1739 -0.8915  2.2631
   76SLPC   C29 6853   2.940   0.499   6.929  0.2618 -0.1199  0.1858
   76SLPC   H9R 6854   2.873   0.443   6.862  1.0898 -0.7916 -0.0950
   76SLPC  C210 6855   2.875   0.556   7.036  0.0919 -0.3607 -0.0896
   76SLPC  H10R 6856   2.766   0.543   7.047  0.1559 -0.5251  0.3724
   76SLPC  C211 6857   2.940   0.651   7.132  0.2841 -0.5035 -0.4413
   76SLPC  H11R 6858   2.989   0.736   7.079 -0.7259  0.4819  0.1684
   76SLPC  H11S 6859   3.021   0.600   7.189  0.1238  1.5230  1.7356
   76SLPC  C212 6860   2.828   0.685   7.227 -0.4387 -0.2569  0.8335
   76SLPC  H12R 6861   2.808   0.611   7.306 -1.9574 -0.5908  0.1724
   76SLPC  C213 6862   2.757   0.803   7.223 -0.1574 -0.3636 -0.6446
   76SLPC  H13R 6863   2.691   0.825   7.308  1.0494  0.4952  0.1012
   76SLPC  C214 6864   2.765   0.909   7.113  0.0709 -0.0516 -0.4062
   76SLPC  H14R 6865   2.663   0.952   7.116  1.0728  2.4318  2.5432
   76SLPC  H14S 6866   2.770   0.860   7.013 -1.8649  2.0253 -1.6119
   76SLPC  C215 6867   2.871   1.015   7.135 -0.6059  0.0017  0.2759
   76SLPC  H15R 6868   2.971   0.971   7.115 -0.4164  0.4482  0.2322
   76SLPC  H15S 6869   2.870   1.051   7.240  1.2501 -0.9156  0.6470
   76SLPC  C216 6870   2.856   1.137   7.040 -0.0826 -0.5377 -0.1994
   76SLPC  H16R 6871   2.875   1.120   6.932 -1.3883  0.8155 -0.6816
   76SLPC  H16S 6872   2.939   1.207   7.062  2.8992 -3.4499 -1.3481
   76SLPC  C217 6873   2.720   1.204   7.065 -0.1691  0.8912  0.0311
   76SLPC  H17R 6874   2.630   1.148   7.035  0.6616 -0.0186 -0.8344
   76SLPC  H17S 6875   2.715   1.294   7.001 -1.4993  0.4883 -0.4574
   76SLPC  C218 6876   2.711   1.248   7.210  0.4374 -0.2107  0.1646
   76SLPC  H18R 6877   2.795   1.319   7.229 -0.0650  0.5701 -0.5096
   76SLPC  H18S 6878   2.709   1.173   7.292  0.2843  1.5450  1.8378
   76SLPC  H18T 6879   2.624   1.316   7.217  1.9641  1.8130  0.9223
   76SLPC   C33 6880   2.173   1.217   6.523 -0.3761  0.1496  0.1539
   76SLPC   H3X 6881   2.124   1.118   6.509  1.4925 -1.0489  1.5205
   76SLPC   H3Y 6882   2.109   1.295   6.478  0.8065  0.1394 -1.6326
   76SLPC   C34 6883   2.180   1.235   6.673 -0.4552  0.4387 -0.4788
   76SLPC   H4X 6884   2.074   1.240   6.705 -0.3725  0.4639 -0.2030
   76SLPC   H4Y 6885   2.231   1.333   6.690  0.6802 -0.0583 -0.8915
   76SLPC   C35 6886   2.250   1.122   6.754 -0.4001  0.0510  0.0262
   76SLPC   H5X 6887   2.358   1.102   6.732  0.0608 -0.9718  2.8472
   76SLPC   H5Y 6888   2.204   1.023   6.733 -2.5674  1.3214 -1.5371
   76SLPC   C36 6889   2.235   1.141   6.905  0.5935  0.4066 -0.2105
   76SLPC   H6X 6890   2.284   1.054   6.954  3.2299  0.3571 -2.6547
   76SLPC   H6Y 6891   2.130   1.142   6.942  0.1386 -4.8969 -0.6911
   76SLPC   C37 6892   2.313   1.258   6.952  1.2592 -0.0230  0.2050
   76SLPC   H7X 6893   2.287   1.347   6.892 -0.7128  0.1252  1.1925
   76SLPC   H7Y 6894   2.420   1.239   6.930  1.2665  0.3504 -0.0709
   76SLPC   C38 6895   2.292   1.299   7.095  0.1510  0.9290 -0.0938
   76SLPC   H8X 6896   2.318   1.222   7.171  5.2303  1.2130 -1.2501
   76SLPC   H8Y 6897   2.183   1.322   7.103  0.6450  3.5552  0.1795
   76SLPC   C39 6898   2.342   1.442   7.121  0.3943  0.6561 -0.8197
   76SLPC   H9X 6899   2.295   1.505   7.043 -0.3080  0.4857 -0.5375
   76SLPC   H9Y 6900   2.453   1.442   7.112  0.3823 -2.0709 -1.7300
   76SLPC  C310 6901   2.318   1.494   7.261 -0.3816  0.3850  0.2234
   76SLPC  H10X 6902   2.410   1.467   7.318 -0.2912  0.1960 -0.0128
   76SLPC  H10Y 6903   2.223   1.462   7.308 -0.3043  0.0263  0.1364
   76SLPC  C311 6904   2.312   1.648   7.261 -0.2040 -0.5276  0.2253
   76SLPC  H11X 6905   2.298   1.693   7.362  2.5594  0.1961  0.3721
   76SLPC  H11Y 6906   2.218   1.673   7.207 -0.6224  1.0165  1.5879
   76SLPC  C312 6907   2.438   1.720   7.209  0.4358  0.1972 -0.8832
   76SLPC  H12X 6908   2.413   1.828   7.207  0.0574  0.2204  1.6262
   76SLPC  H12Y 6909   2.461   1.685   7.106 -0.5211 -0.8239 -0.7629
   76SLPC  C313 6910   2.562   1.682   7.291  0.4470 -0.7732 -0.2964
   76SLPC  H13X 6911   2.596   1.577   7.278  0.0744 -0.9623  0.2057
   76SLPC  H13Y 6912   2.540   1.696   7.399 -0.2961  0.1875 -0.5624
   76SLPC  C314 6913   2.687   1.775   7.261  0.6390  0.7247 -0.1292
   76SLPC  H14X 6914   2.772   1.747   7.327  0.5025 -0.3373 -0.3925
   76SLPC  H14Y 6915   2.663   1.880   7.291 -0.4160  0.2878  0.6176
   76SLPC  C315 6916   2.758   1.761   7.121  1.0233 -0.4650 -0.3536
   76SLPC  H15X 6917   2.842   1.834   7.116  0.3603  0.2761 -0.8696
   76SLPC  H15Y 6918   2.691   1.789   7.037  1.4534 -2.6806 -1.4977
   76SLPC  C316 6919   2.830   1.626   7.088  0.3289  0.2369 -0.7306
   76SLPC  H16X 6920   2.752   1.547   7.081  0.2300  0.3897 -1.5058
   76SLPC  H16Y 6921   2.896   1.595   7.171 -1.8399 -0.4566  0.8361
   76SLPC  C317 6922   2.920   1.620   6.961 -0.6561  0.1442  0.4174
   76SLPC  H17X 6923   2.994   1.701   6.977 -1.6641  0.7710  2.2025
   76SLPC  H17Y 6924   2.853   1.649   6.878 -0.5141  2.1437  0.9621
   76SLPC  C318 6925   2.994   1.488   6.930 -0.1157  0.0048 -0.2429
   76SLPC  H18X 6926   3.052   1.497   6.836 -0.0043  2.2752 -0.0035
   76SLPC  H18Y 6927   2.916   1.411   6.914  0.3544 -0.2010 -1.6452
   76SLPC  H18Z 6928   3.051   1.459   7.021 -1.5998 -2.4521 -0.0198
   77SLPC     N 6929   5.914   1.888   5.285 -0.0511  0.3273 -0.1182
   77SLPC   C13 6930   6.054   1.868   5.239  0.8685 -0.4516  0.0789
   77SLPC  H13A 6931   6.087   1.767   5.260 -0.2023 -0.8353 -0.0135
   77SLPC  H13B 6932   6.071   1.882   5.134  3.8960  1.0245  0.6493
   77SLPC  H13C 6933   6.112   1.941   5.294  1.2766 -0.5356 -0.2392
   77SLPC   C14 6934   5.824   1.793   5.213 -0.3116  0.3427 -1.2640
   77SLPC  H14A 6935   5.825   1.813   5.107 -0.9812  0.3057 -1.2803
   77SLPC  H14B 6936   5.867   1.694   5.225 -0.5925  0.1014 -2.1696
   77SLPC  H14C 6937   5.723   1.799   5.250  0.6817 -3.5346  3.1580
   77SLPC   C15 6938   5.883   2.036   5.262  0.2386 -0.2242 -0.6809
   77SLPC  H15A 6939   5.812   2.063   5.339  2.7236  0.6331  1.4438
   77SLPC  H15B 6940   5.970   2.097   5.282  1.8371 -2.1715 -1.3780
   77SLPC  H15C 6941   5.841   2.068   5.168  0.7553  0.4135 -0.6999
   77SLPC   C12 6942   5.903   1.854   5.433 -0.4689  0.5829 -0.3253
   77SLPC  H12A 6943   5.936   1.753   5.453  0.6772  0.9678 -0.1378
   77SLPC  H12B 6944   5.804   1.868   5.472 -0.8531  0.6278 -1.3021
   77SLPC   C11 6945   6.003   1.931   5.520 -0.9103 -0.2419  0.2640
   77SLPC  H11A 6946   5.971   1.935   5.626  2.5279 -2.5441  1.5316
   77SLPC  H11B 6947   6.008   2.034   5.477 -0.0291 -1.1846 -2.0814
   77SLPC     P 6948   6.241   1.950   5.623  0.0210  0.2816  0.1952
   77SLPC   O13 6949   6.367   1.877   5.628  0.3767  0.8306  0.1091
   77SLPC   O14 6950   6.250   2.094   5.588  0.3267  0.0705  0.3332
   77SLPC   O12 6951   6.137   1.880   5.522  0.4995  0.4440  0.3505
   77SLPC   O11 6952   6.167   1.931   5.760 -0.3724 -0.2180  0.6063
   77SLPC    C1 6953   6.122   1.803   5.808 -0.4993 -0.3393 -0.3168
   77SLPC    HA 6954   6.031   1.827   5.868  0.2135  2.9053 -0.3480
   77SLPC    HB 6955   6.102   1.729   5.727 -0.1732 -0.1363 -0.5842
   77SLPC    C2 6956   6.227   1.751   5.913 -0.5385  0.1529 -0.2369
   77SLPC    HS 6957   6.314   1.710   5.859  0.4220  1.1652  0.5091
   77SLPC   O21 6958   6.181   1.650   6.006 -0.6339  0.2932 -0.1911
   77SLPC   C21 6959   6.165   1.539   5.949 -0.3955  0.6799  0.3742
   77SLPC   O22 6960   6.172   1.515   5.829 -0.0260 -0.1396 -0.7363
   77SLPC   C22 6961   6.161   1.439   6.055  0.1539  0.1900  0.3012
   77SLPC   H2R 6962   6.241   1.365   6.032 -1.7350 -1.6620 -0.6741
   77SLPC   H2S 6963   6.191   1.482   6.153  1.3461  0.1876 -0.0540
   77SLPC    C3 6964   6.284   1.872   6.001  0.2260  0.3432 -0.7441
   77SLPC    HX 6965   6.193   1.911   6.051 -0.5563  0.0559 -1.8968
   77SLPC    HY 6966   6.330   1.950   5.937  0.0889  1.4585  0.4909
   77SLPC   O31 6967   6.370   1.840   6.108 -0.1150 -0.1267 -0.5971
   77SLPC   C31 6968   6.497   1.810   6.070 -0.2358  0.5570 -0.6844
   77SLPC   O32 6969   6.545   1.814   5.959  0.0860  0.3313 -0.2460
   77SLPC   C32 6970   6.566   1.756   6.191 -0.0231 -0.3663  0.5901
   77SLPC   H2X 6971   6.542   1.826   6.274 -1.2789  0.2933 -0.3058
   77SLPC   H2Y 6972   6.677   1.752   6.180 -0.1597 -0.7673 -0.8329
   77SLPC   C23 6973   6.023   1.361   6.060 -0.3344 -0.1155 -0.7153
   77SLPC   H3R 6974   6.009   1.298   5.969 -0.6015 -1.5769  0.2970
   77SLPC   H3S 6975   5.941   1.435   6.063 -2.5408 -2.4151  1.5513
   77SLPC   C24 6976   6.009   1.260   6.180  0.2432  0.1013 -0.3787
   77SLPC   H4R 6977   6.091   1.185   6.169 -0.3266 -0.7369  0.8474
   77SLPC   H4S 6978   5.913   1.207   6.163 -0.9742  2.0838  0.0501
   77SLPC   C25 6979   5.999   1.322   6.319 -0.7083  0.6138  0.5109
   77SLPC   H5R 6980   6.092   1.381   6.337  1.3583 -2.4734  0.6437
   77SLPC   H5S 6981   6.002   1.241   6.395  0.4417  0.2488  0.1045
   77SLPC   C26 6982   5.883   1.420   6.343  0.7739 -0.0900 -0.1629
   77SLPC   H6R 6983   5.795   1.384   6.286  1.5375 -1.4661 -0.5249
   77SLPC   H6S 6984   5.910   1.515   6.292  0.5472 -0.4093 -0.8895
   77SLPC   C27 6985   5.838   1.454   6.489 -0.4114  0.1391 -0.1849
   77SLPC   H7R 6986   5.757   1.529   6.483  0.4256  1.1332  0.5458
   77SLPC   H7S 6987   5.918   1.513   6.539  0.5167  0.8195 -2.3881
   77SLPC   C28 6988   5.802   1.326   6.572 -0.0970 -0.0276  0.1431
   77SLPC   H8R 6989   5.862   1.240   6.536  0.0952 -0.4113  1.3251
   77SLPC   H8S 6990   5.696   1.308   6.542  0.1052 -0.1239 -0.5300
   77SLPC   C29 6991   5.812   1.354   6.719 -0.4409 -0.1997  1.3760
   77SLPC   H9R 6992   5.912   1.338   6.761 -0.0744  0.8629  0.9702
   77SLPC  C210 6993   5.723   1.418   6.793  0.3099 -0.5451 -0.7453
   77SLPC  H10R 6994   5.750   1.447   6.896 -0.7836 -0.8670 -0.3534
   77SLPC  C211 6995   5.583   1.460   6.754 -0.6782 -0.2661 -0.1991
   77SLPC  H11R 6996   5.514   1.382   6.791  0.2168 -0.8624  0.2618
   77SLPC  H11S 6997   5.573   1.473   6.644  1.6086 -0.7629 -0.5175
   77SLPC  C212 6998   5.545   1.595   6.806 -0.4388 -0.2667 -0.2794
   77SLPC  H12R 6999   5.613   1.676   6.774  1.5902 -0.8282  2.2906
   77SLPC  C213 7000   5.450   1.630   6.897  0.0129  0.1333  1.2541
   77SLPC  H13R 7001   5.437   1.737   6.919 -1.0754  1.0121 -2.7578
   77SLPC  C214 7002   5.357   1.534   6.965  0.6241 -0.6165  0.2601
   77SLPC  H14R 7003   5.341   1.440   6.907  1.6185 -0.1232 -0.8444
   77SLPC  H14S 7004   5.257   1.584   6.967  0.5315 -0.3653 -3.2693
   77SLPC  C215 7005   5.408   1.487   7.109 -0.4630 -0.5568  0.4978
   77SLPC  H15R 7006   5.411   1.579   7.172 -0.8437 -0.8629  0.9697
   77SLPC  H15S 7007   5.508   1.444   7.089 -0.7722 -0.9080 -0.3139
   77SLPC  C216 7008   5.330   1.376   7.176  0.0830 -0.5850  0.3287
   77SLPC  H16R 7009   5.400   1.328   7.247 -0.8174 -0.2171  1.4841
   77SLPC  H16S 7010   5.306   1.314   7.087  2.6608 -0.1460 -0.7661
   77SLPC  C217 7011   5.204   1.415   7.251 -0.1965  0.0478 -0.3058
   77SLPC  H17R 7012   5.146   1.323   7.275 -1.5599  0.9970  0.1136
   77SLPC  H17S 7013   5.128   1.477   7.199 -0.4229  0.5040  0.5531
   77SLPC  C218 7014   5.238   1.478   7.390  0.0963 -1.3379  0.0320
   77SLPC  H18R 7015   5.162   1.485   7.471  0.3990 -0.9015  0.2845
   77SLPC  H18S 7016   5.265   1.585   7.373 -0.6142 -1.2734 -0.7763
   77SLPC  H18T 7017   5.328   1.422   7.424  1.4673 -0.4120 -1.8776
   77SLPC   C33 7018   6.512   1.621   6.232 -0.3191  0.0753  0.3399
   77SLPC   H3X 7019   6.521   1.548   6.149 -2.6417  0.4905 -0.3359
   77SLPC   H3Y 7020   6.402   1.624   6.250 -0.4544  0.3355 -0.5184
   77SLPC   C34 7021   6.586   1.545   6.354  0.4546  0.2511 -0.2033
   77SLPC   H4X 7022   6.694   1.538   6.328  1.1717 -0.0038  2.5851
   77SLPC   H4Y 7023   6.545   1.445   6.378 -1.0495  1.3434  2.1713
   77SLPC   C35 7024   6.581   1.616   6.491  0.3908 -0.0302 -0.0055
   77SLPC   H5X 7025   6.631   1.715   6.479  0.1097 -0.0526 -1.6358
   77SLPC   H5Y 7026   6.621   1.547   6.568  0.3953 -1.6481 -1.4002
   77SLPC   C36 7027   6.432   1.645   6.537 -0.1453  0.5415  0.7175
   77SLPC   H6X 7028   6.388   1.719   6.467  0.4437 -1.0954 -1.5065
   77SLPC   H6Y 7029   6.446   1.704   6.630  0.9422  0.2738  0.7350
   77SLPC   C37 7030   6.354   1.517   6.559  0.0553 -0.2884  0.5921
   77SLPC   H7X 7031   6.417   1.446   6.618  0.3406  0.1965  0.8743
   77SLPC   H7Y 7032   6.345   1.467   6.460  1.8744 -1.8939  1.1690
   77SLPC   C38 7033   6.213   1.511   6.613 -0.2493  0.4537  0.8089
   77SLPC   H8X 7034   6.177   1.406   6.614  1.3174 -0.1203  1.2010
   77SLPC   H8Y 7035   6.146   1.573   6.551  0.1088 -0.6778 -0.7709
   77SLPC   C39 7036   6.199   1.561   6.754 -0.1924  0.1237  0.7385
   77SLPC   H9X 7037   6.091   1.574   6.776 -0.2092 -0.1806  0.8377
   77SLPC   H9Y 7038   6.244   1.662   6.766 -0.3227  0.0271  2.3115
   77SLPC  C310 7039   6.266   1.458   6.855  0.2284  0.1774  0.9385
   77SLPC  H10X 7040   6.373   1.464   6.824  0.3877  2.5260  1.7609
   77SLPC  H10Y 7041   6.222   1.356   6.857 -2.0941  1.1306  1.2142
   77SLPC  C311 7042   6.266   1.494   7.006  0.3329  0.2038  0.3521
   77SLPC  H11X 7043   6.269   1.604   7.019  0.8738  0.4218 -1.4587
   77SLPC  H11Y 7044   6.357   1.458   7.060  0.5141 -2.7684 -1.6585
   77SLPC  C312 7045   6.155   1.433   7.093 -0.3573  0.5950 -0.9975
   77SLPC  H12X 7046   6.195   1.336   7.131 -0.4855  0.4457 -1.2411
   77SLPC  H12Y 7047   6.068   1.409   7.028 -1.3830  1.9983 -0.1883
   77SLPC  C313 7048   6.111   1.520   7.211 -0.3376 -0.0027  0.0950
   77SLPC  H13X 7049   6.076   1.621   7.179 -0.2605  1.1940  3.4098
   77SLPC  H13Y 7050   6.199   1.530   7.278  0.2267 -2.0326 -0.2748
   77SLPC  C314 7051   5.998   1.459   7.287  0.1628  0.2517 -0.9929
   77SLPC  H14X 7052   6.016   1.350   7.299  3.0902  0.9386  3.0285
   77SLPC  H14Y 7053   5.905   1.470   7.227 -0.1703 -0.6800 -0.6658
   77SLPC  C315 7054   5.982   1.518   7.428 -0.7418  0.2179  0.3347
   77SLPC  H15X 7055   5.945   1.622   7.412  0.5553  0.9578  1.8933
   77SLPC  H15Y 7056   6.082   1.513   7.476 -1.0592 -0.3067  0.9657
   77SLPC  C316 7057   5.874   1.454   7.507 -0.5687  0.0437  0.2918
   77SLPC  H16X 7058   5.891   1.349   7.539 -1.1399  0.0455  0.6212
   77SLPC  H16Y 7059   5.780   1.454   7.448 -1.7937  1.1173  2.1376
   77SLPC  C317 7060   5.843   1.524   7.637 -0.6514 -0.4740  0.8304
   77SLPC  H17X 7061   5.765   1.465   7.689 -0.9210 -1.4673 -0.6477
   77SLPC  H17Y 7062   5.822   1.629   7.607  0.4639 -0.1658  1.0927
   77SLPC  C318 7063   5.960   1.532   7.738 -0.0827 -0.3677 -0.3916
   77SLPC  H18X 7064   6.044   1.593   7.699 -0.1330 -0.5981 -0.8651
   77SLPC  H18Y 7065   5.998   1.430   7.762  0.9026  0.4353  1.6989
   77SLPC  H18Z 7066   5.913   1.571   7.831  0.3069 -0.3573 -0.1990
   78SLPC     N 7067   1.338   0.974   5.682  0.4150 -0.4773 -0.3501
   78SLPC   C13 7068   1.364   0.840   5.618  0.3177 -0.2226 -0.0180
   78SLPC  H13A 7069   1.469   0.816   5.628  0.8974  2.6453  1.8083
   78SLPC  H13B 7070   1.308   0.760   5.663 -0.0742 -0.7529 -1.3854
   78SLPC  H13C 7071   1.332   0.834   5.515 -0.3067  0.2026  0.1424
   78SLPC   C14 7072   1.205   1.024   5.645  0.3903  0.0953 -0.2183
   78SLPC  H14A 7073   1.187   1.115   5.700  1.9628 -0.6390  1.5886
   78SLPC  H14B 7074   1.198   1.059   5.543 -3.2700  2.5598  0.6659
   78SLPC  H14C 7075   1.122   0.958   5.665  0.4330  0.6824  2.2177
   78SLPC   C15 7076   1.433   1.072   5.627  0.0575 -0.1044  0.3240
   78SLPC  H15A 7077   1.393   1.116   5.536 -0.0185 -1.5214 -0.3623
   78SLPC  H15B 7078   1.442   1.158   5.692 -1.8188  0.1268  0.3222
   78SLPC  H15C 7079   1.528   1.023   5.612  0.1489  0.0827  0.2784
   78SLPC   C12 7080   1.373   0.950   5.833 -0.6835 -0.6783 -0.1916
   78SLPC  H12A 7081   1.394   1.047   5.875  0.6335 -1.6004  1.4032
   78SLPC  H12B 7082   1.473   0.909   5.838  0.7455  2.6905  2.2583
   78SLPC   C11 7083   1.286   0.859   5.922  0.4994 -0.0291 -0.0738
   78SLPC  H11A 7084   1.183   0.900   5.914  1.5085  2.3897 -2.4358
   78SLPC  H11B 7085   1.319   0.868   6.027 -0.7891  0.0691  0.3444
   78SLPC     P 7086   1.369   0.614   5.939  0.1478 -0.2053 -0.2906
   78SLPC   O13 7087   1.361   0.489   5.857  0.0234 -0.0405  0.0654
   78SLPC   O14 7088   1.503   0.667   5.958 -0.3584  0.6441 -0.5868
   78SLPC   O12 7089   1.291   0.728   5.866 -0.0873 -0.1419 -0.0382
   78SLPC   O11 7090   1.293   0.588   6.074 -0.4153  0.2998  0.3249
   78SLPC    C1 7091   1.152   0.581   6.094  0.5503 -0.3151  0.4287
   78SLPC    HA 7092   1.097   0.578   5.998  2.2200 -0.2677 -0.5740
   78SLPC    HB 7093   1.121   0.492   6.154  1.1427 -0.2185  0.8865
   78SLPC    C2 7094   1.100   0.703   6.174 -0.2174 -0.2641  0.3267
   78SLPC    HS 7095   1.112   0.795   6.112 -1.8950 -0.8828 -0.9795
   78SLPC   O21 7096   1.179   0.722   6.292 -0.7492  0.9137 -0.5947
   78SLPC   C21 7097   1.204   0.844   6.346  0.0873  0.7517  0.2457
   78SLPC   O22 7098   1.189   0.947   6.290 -0.2673 -0.4912  0.3229
   78SLPC   C22 7099   1.255   0.830   6.481 -0.4924 -0.1705  0.0812
   78SLPC   H2R 7100   1.196   0.748   6.527 -3.6448  1.7157 -0.2362
   78SLPC   H2S 7101   1.362   0.802   6.483  0.4432  3.0030  0.2426
   78SLPC    C3 7102   0.947   0.687   6.199 -0.0941 -0.0005 -0.1453
   78SLPC    HX 7103   0.900   0.675   6.099 -1.7503  1.5168  0.4211
   78SLPC    HY 7104   0.903   0.782   6.234  0.5121 -0.5002  2.1719
   78SLPC   O31 7105   0.919   0.572   6.283  0.1874 -0.3229  0.1010
   78SLPC   C31 7106   0.924   0.602   6.403  0.2919 -0.2770  0.0297
   78SLPC   O32 7107   0.943   0.711   6.449 -0.4023 -0.0959 -0.0757
   78SLPC   C32 7108   0.875   0.474   6.478 -0.0734 -0.5628 -0.1364
   78SLPC   H2X 7109   0.938   0.397   6.428  1.9185  1.6043 -1.1809
   78SLPC   H2Y 7110   0.765   0.465   6.465 -0.4065  2.4619 -0.1754
   78SLPC   C23 7111   1.245   0.956   6.571  0.5755 -0.0005  0.0645
   78SLPC   H3R 7112   1.146   1.006   6.565  0.1988 -0.8919 -1.6806
   78SLPC   H3S 7113   1.319   1.032   6.537 -0.0523 -0.2536 -1.9860
   78SLPC   C24 7114   1.280   0.928   6.725  0.0684 -0.2767 -0.0398
   78SLPC   H4R 7115   1.251   1.023   6.776  0.4425 -1.1631  1.9058
   78SLPC   H4S 7116   1.389   0.912   6.735  0.7310  1.9291 -2.4913
   78SLPC   C25 7117   1.203   0.807   6.793  0.1310 -0.0712  0.5849
   78SLPC   H5R 7118   1.244   0.791   6.895 -1.3075  0.6703  1.3125
   78SLPC   H5S 7119   1.234   0.718   6.734 -0.0067 -0.6524  1.3782
   78SLPC   C26 7120   1.053   0.825   6.796 -0.0609 -0.3672  0.0703
   78SLPC   H6R 7121   1.021   0.806   6.691 -0.5331  1.2299 -0.1012
   78SLPC   H6S 7122   1.035   0.931   6.822 -1.0102 -0.0259 -1.8170
   78SLPC   C27 7123   0.985   0.732   6.896 -0.3771  0.0435  0.2623
   78SLPC   H7R 7124   1.036   0.755   6.992 -1.2628  1.1557  0.4995
   78SLPC   H7S 7125   1.013   0.630   6.865  0.2592 -0.4276  2.2468
   78SLPC   C28 7126   0.833   0.741   6.919 -0.6454 -0.2838 -0.2784
   78SLPC   H8R 7127   0.815   0.681   7.011 -0.2051  0.7960  0.5443
   78SLPC   H8S 7128   0.775   0.706   6.832 -1.3961  0.2120  0.0105
   78SLPC   C29 7129   0.795   0.880   6.953 -0.7969 -0.1643  0.6296
   78SLPC   H9R 7130   0.794   0.947   6.865 -1.3374 -1.0057 -0.0158
   78SLPC  C210 7131   0.756   0.932   7.070  0.0951 -0.3101  0.0836
   78SLPC  H10R 7132   0.755   1.042   7.075 -0.5726 -0.3504  1.0329
   78SLPC  C211 7133   0.738   0.865   7.201 -0.1030  0.3752 -0.0789
   78SLPC  H11R 7134   0.807   0.898   7.282 -1.1444  0.2571  0.8804
   78SLPC  H11S 7135   0.766   0.759   7.184  2.5005  0.7188  1.4737
   78SLPC  C212 7136   0.596   0.866   7.253  0.0288 -0.2954 -0.4200
   78SLPC  H12R 7137   0.530   0.895   7.171 -1.9988 -2.3142  0.3876
   78SLPC  C213 7138   0.555   0.827   7.373  0.1096  0.2438 -0.0722
   78SLPC  H13R 7139   0.446   0.827   7.390 -0.1358  1.4532 -1.4008
   78SLPC  C214 7140   0.650   0.785   7.477  0.2869  0.0372 -0.3397
   78SLPC  H14R 7141   0.734   0.857   7.479  1.0322 -0.8360  0.6062
   78SLPC  H14S 7142   0.675   0.678   7.461  3.8778  0.8393 -0.9488
   78SLPC  C215 7143   0.595   0.794   7.627 -0.2440  0.1647 -1.0774
   78SLPC  H15R 7144   0.498   0.739   7.620 -0.1159  0.1254 -3.8445
   78SLPC  H15S 7145   0.571   0.896   7.663 -0.4237 -1.0015  2.4727
   78SLPC  C216 7146   0.687   0.746   7.737 -0.7848  0.2580 -0.2834
   78SLPC  H16R 7147   0.778   0.809   7.747 -1.1014  1.0686 -2.1174
   78SLPC  H16S 7148   0.725   0.646   7.706 -1.1497 -0.4867  1.5109
   78SLPC  C217 7149   0.619   0.722   7.869 -0.4048  0.0858 -0.2544
   78SLPC  H17R 7150   0.533   0.653   7.855 -0.4063  0.1436 -0.5422
   78SLPC  H17S 7151   0.574   0.814   7.911 -1.8300 -0.6799 -0.0437
   78SLPC  C218 7152   0.713   0.664   7.973 -0.3941 -0.4711 -0.0565
   78SLPC  H18R 7153   0.677   0.589   8.047 -0.8953 -0.7122 -0.5373
   78SLPC  H18S 7154   0.760   0.750   8.025  1.1562 -0.6514 -1.0544
   78SLPC  H18T 7155   0.795   0.605   7.925  0.2184  1.5565 -1.6712
   78SLPC   C33 7156   0.903   0.478   6.636  0.1804  0.3062  0.3715
   78SLPC   H3X 7157   0.863   0.573   6.675 -1.1356 -0.4378  0.8933
   78SLPC   H3Y 7158   1.013   0.486   6.646  0.0447  0.4162  1.9906
   78SLPC   C34 7159   0.848   0.348   6.711 -0.1996 -0.3521  0.5093
   78SLPC   H4X 7160   0.909   0.261   6.681  0.4106 -0.6681  2.4907
   78SLPC   H4Y 7161   0.741   0.336   6.684 -0.1114 -0.2647  0.1132
   78SLPC   C35 7162   0.856   0.353   6.859 -0.6309 -0.7141  0.4476
   78SLPC   H5X 7163   0.769   0.412   6.895 -0.1066  0.9399 -0.9031
   78SLPC   H5Y 7164   0.953   0.403   6.883 -1.9316  2.0135  0.4111
   78SLPC   C36 7165   0.846   0.218   6.925  0.2059  0.8197  0.3633
   78SLPC   H6X 7166   0.915   0.143   6.881 -2.7116 -1.3603 -0.7436
   78SLPC   H6Y 7167   0.744   0.176   6.914  0.2174  0.7435  0.5386
   78SLPC   C37 7168   0.875   0.234   7.070  0.1822  0.3320 -0.4021
   78SLPC   H7X 7169   0.805   0.306   7.117 -0.1341 -0.8771  1.0324
   78SLPC   H7Y 7170   0.977   0.274   7.088 -0.0655  0.2396  1.4053
   78SLPC   C38 7171   0.846   0.110   7.151 -0.0716 -0.5426  0.3750
   78SLPC   H8X 7172   0.881   0.012   7.112  0.3984 -1.6053  3.2069
   78SLPC   H8Y 7173   0.736   0.097   7.147 -0.1677  0.4826 -1.1803
   78SLPC   C39 7174   0.886   0.124   7.302 -0.0474  0.2957 -0.9877
   78SLPC   H9X 7175   0.827   0.204   7.351 -1.6126 -0.2669 -1.8527
   78SLPC   H9Y 7176   0.993   0.142   7.323 -0.3129  0.5795  0.1709
   78SLPC  C310 7177   0.866  -0.013   7.374  0.0343 -0.1939 -0.1778
   78SLPC  H10X 7178   0.933  -0.086   7.323  1.5417  1.7347 -1.0591
   78SLPC  H10Y 7179   0.762  -0.052   7.366  0.3497 -1.4619  1.4305
   78SLPC  C311 7180   0.890  -0.001   7.521  0.3390  1.0724 -0.4283
   78SLPC  H11X 7181   0.829   0.085   7.556 -1.2286  1.1886 -3.1783
   78SLPC  H11Y 7182   0.998   0.024   7.533  0.7381 -0.4117 -0.7366
   78SLPC  C312 7183   0.851  -0.128   7.598 -0.0539  0.4952  0.6409
   78SLPC  H12X 7184   0.898  -0.213   7.544 -0.5399  0.1251  0.7901
   78SLPC  H12Y 7185   0.740  -0.132   7.596 -0.1240  2.0458 -0.6377
   78SLPC  C313 7186   0.888  -0.124   7.743 -0.4201  0.5838 -0.6786
   78SLPC  H13X 7187   0.842  -0.029   7.779 -1.5318 -0.5468  1.0429
   78SLPC  H13Y 7188   0.997  -0.109   7.762 -0.7559  0.6996  1.4448
   78SLPC  C314 7189   0.842  -0.237   7.834  0.3944  0.2634  0.5936
   78SLPC  H14X 7190   0.734  -0.221   7.855 -0.3965 -1.5864 -1.6829
   78SLPC  H14Y 7191   0.907  -0.231   7.924  1.6071  0.2646 -0.2630
   78SLPC  C315 7192   0.858  -0.388   7.780 -0.3822 -0.2725 -0.6737
   78SLPC  H15X 7193   0.957  -0.393   7.730 -0.3581 -3.1729 -0.5050
   78SLPC  H15Y 7194   0.771  -0.410   7.714 -1.4197  2.7709 -0.4724
   78SLPC  C316 7195   0.861  -0.489   7.891  0.0462 -0.7705  0.2989
   78SLPC  H16X 7196   0.762  -0.495   7.941  0.2803  1.2121  1.1122
   78SLPC  H16Y 7197   0.931  -0.450   7.968 -1.0831 -1.1201  1.5270
   78SLPC  C317 7198   0.906  -0.636   7.859 -0.5742  0.1866 -0.2689
   78SLPC  H17X 7199   0.839  -0.674   7.779 -1.2164 -0.8998  0.7567
   78SLPC  H17Y 7200   0.878  -0.699   7.946 -0.6106  1.7288  0.8980
   78SLPC  C318 7201   1.058  -0.658   7.823 -0.0881 -0.4542  0.2547
   78SLPC  H18X 7202   1.132  -0.635   7.902 -0.3982 -0.2729  0.4958
   78SLPC  H18Y 7203   1.080  -0.607   7.727 -1.1820 -0.0428  0.1973
   78SLPC  H18Z 7204   1.070  -0.766   7.802 -1.3972 -0.5926  0.1012
   79SLPC     N 7205   6.599   3.866   5.363 -0.5616 -0.4869 -0.4296
   79SLPC   C13 7206   6.716   3.962   5.353  0.0999  0.4686 -0.3017
   79SLPC  H13A 7207   6.722   4.041   5.426 -1.1868  2.7383 -2.5059
   79SLPC  H13B 7208   6.808   3.907   5.363 -0.5392 -0.3394  1.8738
   79SLPC  H13C 7209   6.730   4.021   5.264  1.9476  0.1485 -0.2624
   79SLPC   C14 7210   6.603   3.774   5.248  0.0139  0.1556 -0.4589
   79SLPC  H14A 7211   6.593   3.831   5.157  0.8066 -0.8418 -1.1910
   79SLPC  H14B 7212   6.693   3.717   5.235  0.2466  0.3107  0.4336
   79SLPC  H14C 7213   6.527   3.697   5.250  0.2016 -0.0146  0.7474
   79SLPC   C15 7214   6.476   3.940   5.351  0.8408 -0.7343 -0.3828
   79SLPC  H15A 7215   6.385   3.887   5.373  0.0681  1.0345  0.9509
   79SLPC  H15B 7216   6.472   4.014   5.429 -2.0306 -1.7396  0.5433
   79SLPC  H15C 7217   6.459   3.988   5.255 -0.9433  0.4885  0.4956
   79SLPC   C12 7218   6.604   3.784   5.496 -0.0989  0.0217  0.6542
   79SLPC  H12A 7219   6.687   3.716   5.497 -1.8333 -2.2647 -1.0658
   79SLPC  H12B 7220   6.518   3.718   5.495  0.9597 -1.7832 -4.6714
   79SLPC   C11 7221   6.610   3.867   5.631  0.5989 -0.2902  0.4701
   79SLPC  H11A 7222   6.569   3.800   5.710 -1.1890  0.6687  0.4245
   79SLPC  H11B 7223   6.531   3.945   5.634  2.2412  1.4600  3.3172
   79SLPC     P 7224   6.860   3.819   5.681 -0.1867 -0.5758 -0.0091
   79SLPC   O13 7225   6.837   3.683   5.625  0.1180  0.5291  0.5281
   79SLPC   O14 7226   6.972   3.897   5.625 -0.3727 -0.3539 -1.0229
   79SLPC   O12 7227   6.736   3.917   5.674 -0.2241 -0.3121 -0.2704
   79SLPC   O11 7228   6.869   3.802   5.837  0.0868  0.0615  0.3489
   79SLPC    C1 7229   6.960   3.720   5.905 -0.0890 -0.3458 -0.0519
   79SLPC    HA 7230   6.899   3.642   5.957  1.5033 -1.9496 -0.4895
   79SLPC    HB 7231   7.038   3.670   5.843 -0.6514 -1.4728  0.1199
   79SLPC    C2 7232   7.027   3.809   6.014  0.2478 -0.3955  0.1524
   79SLPC    HS 7233   7.098   3.880   5.966  0.0021 -0.9381 -1.0460
   79SLPC   O21 7234   7.097   3.724   6.112 -0.0752  0.2660  0.0227
   79SLPC   C21 7235   7.206   3.671   6.061  0.3155  0.0110 -0.2491
   79SLPC   O22 7236   7.245   3.679   5.943  0.8573 -0.0045 -0.3718
   79SLPC   C22 7237   7.272   3.594   6.165 -0.2346  0.4769 -0.7098
   79SLPC   H2R 7238   7.280   3.656   6.257  0.5215 -0.2844 -0.2494
   79SLPC   H2S 7239   7.225   3.495   6.185  0.6901  0.0176 -0.7729
   79SLPC    C3 7240   6.916   3.901   6.081 -0.3053 -0.0086  0.6242
   79SLPC    HX 7241   6.832   3.837   6.114 -1.3262  1.0884  0.2220
   79SLPC    HY 7242   6.875   3.974   6.008  1.9708 -0.6216 -1.3946
   79SLPC   O31 7243   6.967   3.961   6.201 -0.3485 -0.3132 -0.0604
   79SLPC   C31 7244   7.042   4.072   6.189  0.0420  0.3825  0.7125
   79SLPC   O32 7245   7.070   4.126   6.083  0.5914  0.2966 -0.1889
   79SLPC   C32 7246   7.087   4.113   6.329 -0.5699 -0.2431  0.3335
   79SLPC   H2X 7247   7.019   4.197   6.354 -1.7791 -0.0452 -3.0713
   79SLPC   H2Y 7248   7.193   4.142   6.315 -1.1976  1.6379 -0.8400
   79SLPC   C23 7249   7.413   3.543   6.137 -0.5964 -0.2500  0.0420
   79SLPC   H3R 7250   7.470   3.615   6.075 -0.0125 -1.2367 -0.6003
   79SLPC   H3S 7251   7.404   3.446   6.082 -0.3898 -1.2417  1.6874
   79SLPC   C24 7252   7.490   3.522   6.267 -0.1814  0.2783  0.3391
   79SLPC   H4R 7253   7.452   3.437   6.328  2.9591 -1.1010  0.5834
   79SLPC   H4S 7254   7.486   3.614   6.329  0.2785  0.7610 -0.3254
   79SLPC   C25 7255   7.638   3.480   6.248  0.2899  0.2142 -0.3169
   79SLPC   H5R 7256   7.689   3.571   6.210 -0.9996  1.1481  0.1020
   79SLPC   H5S 7257   7.643   3.403   6.168 -0.3508 -1.5898  1.2944
   79SLPC   C26 7258   7.697   3.423   6.377  0.1906 -0.1764 -0.4434
   79SLPC   H6R 7259   7.647   3.330   6.409 -1.7154  0.9123 -0.0974
   79SLPC   H6S 7260   7.686   3.491   6.465 -1.1043 -1.8671  0.7679
   79SLPC   C27 7261   7.844   3.386   6.362 -0.0477  0.0420 -0.4204
   79SLPC   H7R 7262   7.892   3.474   6.314 -1.6202  1.5874  0.6606
   79SLPC   H7S 7263   7.854   3.301   6.291 -0.8031 -0.6753  0.3086
   79SLPC   C28 7264   7.905   3.353   6.503 -0.0576 -0.4036 -0.1843
   79SLPC   H8R 7265   7.849   3.421   6.570 -0.3911  0.9555 -1.7810
   79SLPC   H8S 7266   8.014   3.376   6.512 -0.0358 -0.8952  0.8888
   79SLPC   C29 7267   7.876   3.210   6.543  0.3290 -0.0876  0.0414
   79SLPC   H9R 7268   7.840   3.149   6.459  0.4939 -0.6297  0.3596
   79SLPC  C210 7269   7.866   3.151   6.669 -1.3132 -0.2361  0.1613
   79SLPC  H10R 7270   7.814   3.054   6.666 -1.8258 -0.0212  1.3903
   79SLPC  C211 7271   7.889   3.220   6.805 -0.5084  0.6700  0.1544
   79SLPC  H11R 7272   7.928   3.323   6.785 -0.3001  1.3715  3.6029
   79SLPC  H11S 7273   7.965   3.162   6.862 -2.2423 -0.4824  1.3926
   79SLPC  C212 7274   7.769   3.227   6.902  0.2364  0.4428  0.3068
   79SLPC  H12R 7275   7.768   3.145   6.976  2.0468 -0.3620 -0.5181
   79SLPC  C213 7276   7.661   3.307   6.906 -0.1768 -0.6084 -0.3489
   79SLPC  H13R 7277   7.603   3.305   6.999 -1.3685  0.4775 -1.0418
   79SLPC  C214 7278   7.620   3.416   6.809  0.4591 -0.0089 -0.5962
   79SLPC  H14R 7279   7.705   3.440   6.742  0.1597  0.7131 -0.7266
   79SLPC  H14S 7280   7.584   3.494   6.880  0.4792 -0.6095  0.0881
   79SLPC  C215 7281   7.510   3.370   6.712 -0.4235 -0.7123  0.4224
   79SLPC  H15R 7282   7.533   3.265   6.682 -3.4803 -1.1663 -0.6457
   79SLPC  H15S 7283   7.516   3.438   6.625  0.9271  0.0065  1.0410
   79SLPC  C216 7284   7.381   3.380   6.784  0.5520  0.1706 -0.3540
   79SLPC  H16R 7285   7.363   3.484   6.820 -0.7549  0.5441 -1.9518
   79SLPC  H16S 7286   7.387   3.327   6.881 -2.1516  0.8396  0.2617
   79SLPC  C217 7287   7.252   3.337   6.706  0.2532  0.6257  0.6159
   79SLPC  H17R 7288   7.261   3.233   6.668  2.3140  1.1560 -0.4967
   79SLPC  H17S 7289   7.254   3.400   6.615 -1.1039 -0.5205 -0.2432
   79SLPC  C218 7290   7.130   3.385   6.773  0.3010 -0.3095  0.2697
   79SLPC  H18R 7291   7.059   3.406   6.690  2.0092  3.5290 -0.4365
   79SLPC  H18S 7292   7.147   3.489   6.808 -1.4517  0.2733 -0.4833
   79SLPC  H18T 7293   7.083   3.322   6.851 -2.6501 -0.8973 -1.7863
   79SLPC   C33 7294   7.084   3.989   6.430 -0.4743 -0.7111  0.4916
   79SLPC   H3X 7295   7.153   3.912   6.390  0.7411  0.1606  0.8446
   79SLPC   H3Y 7296   6.985   3.943   6.446 -0.6811 -0.0405  1.1990
   79SLPC   C34 7297   7.140   4.021   6.571 -0.3498 -0.2875 -0.2974
   79SLPC   H4X 7298   7.074   4.102   6.608 -1.4976 -1.6973  0.8849
   79SLPC   H4Y 7299   7.241   4.066   6.565 -0.3575 -0.3778 -1.2696
   79SLPC   C35 7300   7.131   3.903   6.673  0.5505 -0.9511 -0.2736
   79SLPC   H5X 7301   7.185   3.815   6.632 -0.3126 -1.0889 -1.1520
   79SLPC   H5Y 7302   7.028   3.866   6.688  0.0409  0.4261 -0.2086
   79SLPC   C36 7303   7.193   3.941   6.809  0.1170 -0.4314  0.6660
   79SLPC   H6X 7304   7.120   3.994   6.875  0.5656 -0.1689  0.9617
   79SLPC   H6Y 7305   7.286   4.000   6.794  0.9530 -2.1341 -1.3403
   79SLPC   C37 7306   7.240   3.815   6.890 -0.5661 -0.4573  0.5718
   79SLPC   H7X 7307   7.297   3.752   6.819 -1.1075 -1.3743  0.9306
   79SLPC   H7Y 7308   7.146   3.765   6.921 -1.6786  1.2038 -0.0207
   79SLPC   C38 7309   7.327   3.848   7.003 -0.5088 -0.7317 -0.1050
   79SLPC   H8X 7310   7.287   3.911   7.086  0.2156  0.0180 -0.3158
   79SLPC   H8Y 7311   7.415   3.899   6.960 -0.3251 -0.2198  0.8469
   79SLPC   C39 7312   7.383   3.717   7.071 -0.1917 -1.0325  0.5121
   79SLPC   H9X 7313   7.474   3.690   7.013  0.1833 -0.1204  0.6601
   79SLPC   H9Y 7314   7.315   3.630   7.057 -1.4894  0.2930 -2.3128
   79SLPC  C310 7315   7.437   3.744   7.216 -0.3010 -0.2765 -0.0076
   79SLPC  H10X 7316   7.363   3.791   7.283 -2.1591  2.8778 -3.8477
   79SLPC  H10Y 7317   7.527   3.809   7.212  0.1381 -0.6054  2.6307
   79SLPC  C311 7318   7.463   3.611   7.291  0.2227  0.4954 -0.2650
   79SLPC  H11X 7319   7.368   3.552   7.287 -0.0659  0.8620  0.8625
   79SLPC  H11Y 7320   7.478   3.632   7.399  0.6875 -0.5241 -0.1234
   79SLPC  C312 7321   7.586   3.525   7.252 -0.3583 -0.6761  0.8366
   79SLPC  H12X 7322   7.675   3.591   7.255 -0.5832  0.0167 -2.9866
   79SLPC  H12Y 7323   7.567   3.499   7.146  2.4773  0.2472  0.0274
   79SLPC  C313 7324   7.597   3.397   7.333 -0.3361  0.0462 -0.9672
   79SLPC  H13X 7325   7.498   3.349   7.347 -0.3725  0.2267 -0.6085
   79SLPC  H13Y 7326   7.640   3.421   7.432  1.1411 -0.3209 -1.4892
   79SLPC  C314 7327   7.675   3.272   7.282 -0.5861  0.1350  0.4811
   79SLPC  H14X 7328   7.774   3.276   7.331  1.2751  1.7378 -3.0401
   79SLPC  H14Y 7329   7.700   3.274   7.174  1.0536 -1.2709  0.7749
   79SLPC  C315 7330   7.612   3.138   7.312  0.3986  0.8090  0.0464
   79SLPC  H15X 7331   7.648   3.056   7.246 -0.4857  1.9210 -1.8932
   79SLPC  H15Y 7332   7.506   3.143   7.280  0.4273 -0.0576 -0.2063
   79SLPC  C316 7333   7.631   3.086   7.456  0.7993  0.0476  1.4000
   79SLPC  H16X 7334   7.627   3.174   7.524  1.1013  1.1505  0.0206
   79SLPC  H16Y 7335   7.732   3.039   7.458  0.7392 -0.1339  0.3868
   79SLPC  C317 7336   7.529   2.974   7.486 -0.5667  0.2525  0.2829
   79SLPC  H17X 7337   7.496   2.921   7.395 -2.2274 -0.6079  1.3270
   79SLPC  H17Y 7338   7.444   3.025   7.537 -1.2259 -0.7922  0.2534
   79SLPC  C318 7339   7.586   2.876   7.593  0.0494 -1.1489 -0.1638
   79SLPC  H18X 7340   7.623   2.926   7.685 -0.5930 -0.1173 -0.4519
   79SLPC  H18Y 7341   7.676   2.829   7.548  1.3131  0.4607  0.5867
   79SLPC  H18Z 7342   7.514   2.794   7.611  0.1895 -1.8665 -2.4657
   80SLPC     N 7343   6.929   1.625   5.485 -0.1860 -0.2708  0.6679
   80SLPC   C13 7344   7.036   1.731   5.463  0.4045  0.2562 -0.7908
   80SLPC  H13A 7345   6.989   1.827   5.446  0.0111  0.3818  0.7986
   80SLPC  H13B 7346   7.096   1.747   5.551 -0.5581 -0.0312 -0.0517
   80SLPC  H13C 7347   7.104   1.705   5.384  0.7745  0.9316 -0.7026
   80SLPC   C14 7348   6.831   1.628   5.369 -0.2160  0.8099 -0.2995
   80SLPC  H14A 7349   6.881   1.609   5.275 -0.3918  0.5477 -0.3411
   80SLPC  H14B 7350   6.753   1.559   5.400  0.8387 -0.0036  0.6329
   80SLPC  H14C 7351   6.793   1.729   5.366 -1.2724  0.4397  0.0387
   80SLPC   C15 7352   6.854   1.672   5.608  0.0503  0.0412 -0.4844
   80SLPC  H15A 7353   6.821   1.774   5.596 -1.0229 -0.1178  0.8670
   80SLPC  H15B 7354   6.766   1.615   5.634  1.1730 -1.0426  1.1252
   80SLPC  H15C 7355   6.918   1.667   5.695  0.5457 -1.8252 -0.8992
   80SLPC   C12 7356   6.985   1.489   5.515 -0.3426 -0.6891 -0.0077
   80SLPC  H12A 7357   7.046   1.458   5.431  0.8025  0.1345  0.4945
   80SLPC  H12B 7358   6.897   1.427   5.518 -0.1268 -0.9950  0.0205
   80SLPC   C11 7359   7.081   1.463   5.632 -0.1884 -0.0306 -0.2508
   80SLPC  H11A 7360   7.086   1.357   5.662  1.1045  0.7083  2.4874
   80SLPC  H11B 7361   7.041   1.514   5.722 -0.7441 -0.6594 -0.1363
   80SLPC     P 7362   7.327   1.489   5.712  0.3374  0.0788  0.4368
   80SLPC   O13 7363   7.385   1.347   5.705 -0.3709 -0.1632  0.2355
   80SLPC   O14 7364   7.427   1.597   5.692  0.1596  0.1859 -0.4936
   80SLPC   O12 7365   7.217   1.510   5.603  0.2108  0.6401  0.2803
   80SLPC   O11 7366   7.254   1.515   5.854 -0.0556 -0.6594  0.2799
   80SLPC    C1 7367   7.178   1.423   5.934 -0.0395  0.4326 -0.1136
   80SLPC    HA 7368   7.071   1.450   5.935 -0.0797  0.6428 -2.5891
   80SLPC    HB 7369   7.183   1.329   5.875  3.5119  1.8361 -2.3779
   80SLPC    C2 7370   7.248   1.388   6.069 -0.3109 -0.5123  0.7533
   80SLPC    HS 7371   7.185   1.304   6.106 -0.3229 -0.2106  1.4281
   80SLPC   O21 7372   7.254   1.507   6.150  0.1012  0.2953  0.0141
   80SLPC   C21 7373   7.135   1.540   6.199 -0.3310 -0.2343 -0.5684
   80SLPC   O22 7374   7.037   1.471   6.180  0.5277 -0.5632 -0.3883
   80SLPC   C22 7375   7.146   1.677   6.272 -0.2090  0.5572 -0.2143
   80SLPC   H2R 7376   7.170   1.656   6.378  1.7866 -2.6700 -1.1418
   80SLPC   H2S 7377   7.236   1.727   6.231  0.2442  1.0629  1.3363
   80SLPC    C3 7378   7.398   1.326   6.048  0.1933 -0.1237  0.4413
   80SLPC    HX 7379   7.461   1.400   5.994  0.6634  0.5453  1.8409
   80SLPC    HY 7380   7.386   1.238   5.981 -0.9749  0.8709 -0.7350
   80SLPC   O31 7381   7.460   1.304   6.177  0.3640 -0.3969 -0.5216
   80SLPC   C31 7382   7.416   1.193   6.238  0.1716  0.2620 -0.6992
   80SLPC   O32 7383   7.336   1.115   6.192 -0.4865 -0.2267 -0.1074
   80SLPC   C32 7384   7.479   1.183   6.378  0.2711 -0.0749  0.3494
   80SLPC   H2X 7385   7.590   1.194   6.375  0.3585 -0.4294  1.5994
   80SLPC   H2Y 7386   7.459   1.077   6.404 -0.0989 -0.3568 -1.0111
   80SLPC   C23 7387   7.012   1.761   6.274  0.0763  0.0621  0.8019
   80SLPC   H3R 7388   6.939   1.714   6.204  1.7495 -1.7350  0.1652
   80SLPC   H3S 7389   7.029   1.866   6.244 -1.7783  0.0145 -0.5927
   80SLPC   C24 7390   6.950   1.760   6.412  0.4298  0.1962  0.5051
   80SLPC   H4R 7391   6.937   1.653   6.437  0.1051 -0.6104 -2.6944
   80SLPC   H4S 7392   6.846   1.797   6.401 -0.0608 -0.8518  1.4991
   80SLPC   C25 7393   7.016   1.842   6.525  0.3585 -0.4046 -0.8865
   80SLPC   H5R 7394   7.025   1.945   6.484  2.1373  0.4901  1.5295
   80SLPC   H5S 7395   7.117   1.800   6.545 -0.0506  0.3369  3.6015
   80SLPC   C26 7396   6.936   1.854   6.655  0.3719 -0.4117  0.1947
   80SLPC   H6R 7397   6.830   1.880   6.637 -0.8946 -1.7572  4.4105
   80SLPC   H6S 7398   6.975   1.928   6.727 -1.4970 -1.5257  2.5130
   80SLPC   C27 7399   6.917   1.718   6.733 -0.2269 -0.8831  0.2864
   80SLPC   H7R 7400   7.016   1.689   6.774  0.2049 -1.2064 -0.9494
   80SLPC   H7S 7401   6.868   1.638   6.673 -1.1267  0.8234 -1.3776
   80SLPC   C28 7402   6.826   1.735   6.855  0.3166 -0.2556  0.6597
   80SLPC   H8R 7403   6.808   1.636   6.901 -0.3485 -0.3129  0.2807
   80SLPC   H8S 7404   6.723   1.761   6.824 -0.0470 -3.4558 -1.2530
   80SLPC   C29 7405   6.891   1.815   6.960 -0.0816  0.2880 -0.5979
   80SLPC   H9R 7406   6.912   1.920   6.934  1.2739  0.7852  2.1952
   80SLPC  C210 7407   6.937   1.783   7.083 -0.0649 -0.2090  0.2071
   80SLPC  H10R 7408   6.981   1.863   7.145  0.6230  1.0326 -1.7602
   80SLPC  C211 7409   6.934   1.639   7.141  0.3530 -0.9755  0.0879
   80SLPC  H11R 7410   7.035   1.596   7.159 -0.3199 -2.8642 -0.4101
   80SLPC  H11S 7411   6.878   1.565   7.080 -0.0623 -0.9069  0.3767
   80SLPC  C212 7412   6.868   1.640   7.282  0.2245  0.5354 -0.2513
   80SLPC  H12R 7413   6.940   1.635   7.365 -1.8719  0.1043  1.6376
   80SLPC  C213 7414   6.736   1.653   7.309  0.6557 -0.1642  0.9370
   80SLPC  H13R 7415   6.703   1.652   7.414 -0.2981  1.4421  0.6828
   80SLPC  C214 7416   6.618   1.663   7.217 -0.1915 -0.2704  0.2039
   80SLPC  H14R 7417   6.566   1.564   7.213  1.9555 -1.4645  0.1385
   80SLPC  H14S 7418   6.658   1.692   7.118  1.6147 -0.0421  0.9565
   80SLPC  C215 7419   6.524   1.774   7.282 -0.1868  0.9801 -0.9152
   80SLPC  H15R 7420   6.444   1.803   7.210 -0.1517 -0.9300 -1.7802
   80SLPC  H15S 7421   6.575   1.871   7.301  0.4080  0.0132  3.3096
   80SLPC  C216 7422   6.455   1.730   7.420  1.0933 -0.0014 -0.6403
   80SLPC  H16R 7423   6.524   1.692   7.498 -0.8733  2.2424  2.4661
   80SLPC  H16S 7424   6.391   1.643   7.395  1.8683 -0.0269 -2.6931
   80SLPC  C217 7425   6.357   1.841   7.476 -0.0180 -0.6977 -0.2471
   80SLPC  H17R 7426   6.290   1.882   7.397 -1.3314 -0.8835  0.7362
   80SLPC  H17S 7427   6.422   1.926   7.505 -1.8989  0.6629  0.2425
   80SLPC  C218 7428   6.273   1.806   7.601  0.4382 -0.9984 -0.2515
   80SLPC  H18R 7429   6.189   1.878   7.599 -0.5053 -2.0885 -0.6753
   80SLPC  H18S 7430   6.324   1.812   7.700  1.9777  2.4624 -1.0947
   80SLPC  H18T 7431   6.228   1.705   7.591  0.3233 -1.4053  3.2682
   80SLPC   C33 7432   7.427   1.277   6.489 -0.8335  0.2557  0.3770
   80SLPC   H3X 7433   7.499   1.361   6.498  0.4244 -0.7733  0.2055
   80SLPC   H3Y 7434   7.430   1.215   6.581  0.6462  0.3329  0.4015
   80SLPC   C34 7435   7.292   1.343   6.466  0.9061 -0.2739  0.0903
   80SLPC   H4X 7436   7.223   1.259   6.443  2.5382 -1.2324 -1.6566
   80SLPC   H4Y 7437   7.302   1.408   6.376  0.6234  0.6474  0.7151
   80SLPC   C35 7438   7.263   1.437   6.591 -0.5997 -0.0461  0.0602
   80SLPC   H5X 7439   7.159   1.474   6.590 -1.7684 -3.0280 -2.3307
   80SLPC   H5Y 7440   7.328   1.527   6.591 -0.7967  0.1074  0.8848
   80SLPC   C36 7441   7.282   1.378   6.734  0.4646 -0.7574 -0.1392
   80SLPC   H6X 7442   7.390   1.372   6.759  0.3192  0.2783  0.8160
   80SLPC   H6Y 7443   7.249   1.273   6.745 -3.1021  0.0726 -1.6406
   80SLPC   C37 7444   7.217   1.463   6.845  0.1965 -0.5467 -0.0039
   80SLPC   H7X 7445   7.109   1.466   6.817  0.0801  0.3217  0.5032
   80SLPC   H7Y 7446   7.252   1.568   6.839  0.3589 -0.7004 -2.6220
   80SLPC   C38 7447   7.238   1.413   6.993  0.5785  0.0619  0.4907
   80SLPC   H8X 7448   7.218   1.496   7.064 -2.0334 -1.9488  2.3214
   80SLPC   H8Y 7449   7.341   1.377   7.011  0.9953 -0.1674 -1.9881
   80SLPC   C39 7450   7.133   1.300   7.018 -0.0868 -0.3564 -0.1152
   80SLPC   H9X 7451   7.155   1.215   6.951  1.0971  0.9564 -1.4837
   80SLPC   H9Y 7452   7.032   1.340   6.997 -1.7886 -2.8033  2.6714
   80SLPC  C310 7453   7.130   1.241   7.164 -0.5491  1.5943  0.7081
   80SLPC  H10X 7454   7.236   1.216   7.185 -0.6763  0.4076  0.0170
   80SLPC  H10Y 7455   7.078   1.143   7.159 -0.8333  1.7528  0.4995
   80SLPC  C311 7456   7.085   1.339   7.268 -0.3290 -0.3893 -0.1601
   80SLPC  H11X 7457   6.976   1.357   7.253  0.1491  2.4890 -0.7524
   80SLPC  H11Y 7458   7.127   1.440   7.250 -1.8830 -0.0971 -2.7562
   80SLPC  C312 7459   7.118   1.291   7.415 -0.1797  0.2563  0.3013
   80SLPC  H12X 7460   7.222   1.254   7.418 -0.4164 -0.5105 -0.4322
   80SLPC  H12Y 7461   7.053   1.201   7.420 -2.7463  2.0598  1.4993
   80SLPC  C313 7462   7.092   1.395   7.531 -0.4126 -0.1370  0.3299
   80SLPC  H13X 7463   6.988   1.422   7.500 -0.0792  1.9255  0.8692
   80SLPC  H13Y 7464   7.157   1.483   7.515 -1.1708 -0.0526 -3.0977
   80SLPC  C314 7465   7.090   1.344   7.669  0.4161 -0.0010 -0.0825
   80SLPC  H14X 7466   7.191   1.301   7.686  0.1718 -0.9070 -0.8470
   80SLPC  H14Y 7467   7.018   1.260   7.681 -2.5124  2.5926  2.0955
   80SLPC  C315 7468   7.041   1.444   7.769  0.4645  0.3878  0.3559
   80SLPC  H15X 7469   6.936   1.461   7.736  0.4611 -0.1534  0.0781
   80SLPC  H15Y 7470   7.104   1.534   7.752  0.8947 -0.1985 -1.2978
   80SLPC  C316 7471   7.043   1.418   7.916 -0.1475  0.0385  0.4475
   80SLPC  H16X 7472   7.136   1.359   7.933 -2.1628 -3.6679 -0.2411
   80SLPC  H16Y 7473   6.958   1.352   7.947 -0.7731 -0.0081 -1.2607
   80SLPC  C317 7474   7.036   1.548   8.004 -0.1073 -0.7590  0.9982
   80SLPC  H17X 7475   6.953   1.612   7.967  0.3745 -1.1780 -0.8692
   80SLPC  H17Y 7476   7.129   1.599   7.971 -0.4351 -0.6827  0.1844
   80SLPC  C318 7477   7.039   1.516   8.147  0.4277  0.7539  0.7623
   80SLPC  H18X 7478   7.096   1.425   8.177 -1.7981 -0.4712  1.5114
   80SLPC  H18Y 7479   6.938   1.487   8.181  0.5921 -0.9837 -0.0968
   80SLPC  H18Z 7480   7.073   1.603   8.207 -1.5598  1.3295  1.0915
   81SAPS     N 7481   4.464   4.727   9.914 -0.3079 -0.5942  0.4767
   81SAPS   HN1 7482   4.560   4.701   9.941  0.8026  1.8377 -0.8072
   81SAPS   HN2 7483   4.448   4.680   9.822 -0.3867  1.2564 -0.5134
   81SAPS   HN3 7484   4.457   4.829   9.899 -1.4302 -0.7167  0.0146
   81SAPS   C12 7485   4.356   4.701  10.019 -0.2347 -0.1197  0.9589
   81SAPS  H12A 7486   4.371   4.601  10.058  0.8334  0.1601  1.3052
   81SAPS   C13 7487   4.357   4.792  10.145 -0.4022 -0.0574 -0.2454
   81SAPS  O13A 7488   4.446   4.879  10.159 -0.2829  0.3368 -0.1408
   81SAPS  O13B 7489   4.263   4.770  10.230  0.1348 -0.0432 -0.2186
   81SAPS   C11 7490   4.217   4.709   9.950  0.0900  0.6494  0.1095
   81SAPS  H11A 7491   4.206   4.805   9.896 -3.5584  0.3805  0.1279
   81SAPS  H11B 7492   4.137   4.720  10.026  0.3060  1.0757  0.2771
   81SAPS     P 7493   4.218   4.595   9.701 -0.1411 -0.0209  0.7551
   81SAPS   O13 7494   4.353   4.648   9.674 -0.1735 -1.3312  0.5402
   81SAPS   O14 7495   4.195   4.461   9.647  0.1285  0.1198 -0.5040
   81SAPS   O12 7496   4.192   4.597   9.863 -0.0977 -0.1905 -0.0047
   81SAPS   O11 7497   4.104   4.691   9.656  0.2605 -0.3877 -0.0918
   81SAPS    C1 7498   3.999   4.646   9.562 -0.2008  0.1251 -0.8801
   81SAPS    HA 7499   3.976   4.538   9.574  0.0344  0.2539  1.0117
   81SAPS    HB 7500   3.900   4.690   9.587  1.0036  1.0654  2.8911
   81SAPS    C2 7501   4.025   4.690   9.413 -0.1287  0.3663 -0.0540
   81SAPS    HS 7502   3.964   4.630   9.342  1.1116 -0.5349 -0.3859
   81SAPS   O21 7503   4.160   4.673   9.371 -0.1284  0.5458 -0.5072
   81SAPS   C21 7504   4.201   4.554   9.335  0.9162 -0.3487 -0.3521
   81SAPS   O22 7505   4.141   4.448   9.341 -0.0895 -0.1214 -0.3289
   81SAPS   C22 7506   4.349   4.569   9.288  0.2899  0.2490 -0.2049
   81SAPS   H2R 7507   4.370   4.678   9.284  1.2159  0.0852  0.0450
   81SAPS   H2S 7508   4.412   4.523   9.367 -0.1941 -0.8834 -0.4461
   81SAPS    C3 7509   3.990   4.844   9.410 -0.3182  0.3290  0.1404
   81SAPS    HX 7510   4.082   4.892   9.448  0.7533 -1.3885 -0.1730
   81SAPS    HY 7511   3.907   4.868   9.480  0.1379  0.4224  0.6478
   81SAPS   O31 7512   3.957   4.892   9.280  0.0591  0.4636 -0.1377
   81SAPS   C31 7513   3.840   4.854   9.225 -0.1431  0.0357  0.0937
   81SAPS   O32 7514   3.747   4.795   9.278 -0.0941 -0.4754  0.2313
   81SAPS   C32 7515   3.839   4.878   9.072  0.3293 -0.5760  0.1959
   81SAPS   H2X 7516   3.851   4.988   9.060 -0.2271 -0.3437  1.5695
   81SAPS   H2Y 7517   3.739   4.845   9.036  1.2519 -2.1809 -0.9959
   81SAPS   C23 7518   4.360   4.486   9.161 -0.6487  0.0326  0.0296
   81SAPS   H3R 7519   4.344   4.559   9.079 -0.2144  0.5274  0.3738
   81SAPS   H3S 7520   4.283   4.406   9.154 -1.5852  0.9474 -0.3661
   81SAPS   C24 7521   4.501   4.424   9.141 -0.4609 -0.1887  0.9078
   81SAPS   H4R 7522   4.513   4.335   9.207  1.2709 -1.0599 -0.4830
   81SAPS   H4S 7523   4.583   4.493   9.168 -1.2834  0.8860  0.7035
   81SAPS   C25 7524   4.520   4.373   8.999  0.0916  0.8611  0.1532
   81SAPS   H5R 7525   4.557   4.270   8.992 -0.3006  0.7150  0.2293
   81SAPS   C26 7526   4.545   4.451   8.889 -0.0537 -0.0997 -0.0482
   81SAPS   H6R 7527   4.542   4.391   8.797 -0.2872  1.7117 -1.2616
   81SAPS   C27 7528   4.536   4.603   8.879  0.3932  0.5104  0.1646
   81SAPS   H7R 7529   4.611   4.649   8.947  0.2508  0.3159  0.4589
   81SAPS   H7S 7530   4.439   4.643   8.916  0.9520  0.5580  1.6508
   81SAPS   C28 7531   4.554   4.653   8.738 -0.4886  0.4734  0.0146
   81SAPS   H8R 7532   4.662   4.668   8.727  0.2479 -2.6666  1.6386
   81SAPS   C29 7533   4.468   4.650   8.630 -0.1771  0.1022  0.6322
   81SAPS   H9R 7534   4.497   4.686   8.530 -1.6657 -2.0992 -0.6786
   81SAPS  C210 7535   4.324   4.600   8.630 -0.3823  0.1725 -0.2737
   81SAPS  H10R 7536   4.283   4.628   8.729 -0.1286 -1.9827  0.4926
   81SAPS  H10S 7537   4.329   4.489   8.623  0.2583  0.2011 -0.3785
   81SAPS  C211 7538   4.235   4.643   8.514  0.1244  0.2467 -0.0388
   81SAPS  H11R 7539   4.236   4.751   8.492  0.2788  0.5697  1.4329
   81SAPS  C212 7540   4.143   4.559   8.453  0.2999 -0.1615 -0.2035
   81SAPS  H12R 7541   4.088   4.595   8.365  1.6606 -0.7414 -1.3300
   81SAPS  C213 7542   4.142   4.411   8.472  0.6529  0.6759 -0.5804
   81SAPS  H13R 7543   4.132   4.385   8.580  2.2792 -0.2407 -0.6194
   81SAPS  H13S 7544   4.239   4.367   8.441 -0.4905  0.1087 -3.6918
   81SAPS  C214 7545   4.030   4.334   8.411  0.0858  0.1390  0.0354
   81SAPS  H14R 7546   3.939   4.324   8.472 -0.1839 -0.9287 -0.5133
   81SAPS  C215 7547   4.038   4.282   8.283  1.0447 -0.7597 -0.0159
   81SAPS  H15R 7548   3.958   4.217   8.245 -0.0692  1.4242 -1.6646
   81SAPS  C216 7549   4.140   4.299   8.177 -0.4566 -0.6251 -0.4783
   81SAPS  H16R 7550   4.177   4.197   8.156 -1.1835 -0.7120 -1.3747
   81SAPS  H16S 7551   4.229   4.354   8.215 -1.1747 -0.6531  1.3381
   81SAPS  C217 7552   4.088   4.348   8.044 -0.1267 -0.1530 -0.4495
   81SAPS  H17R 7553   4.179   4.369   7.983  1.0764 -0.2193  1.2536
   81SAPS  H17S 7554   4.043   4.448   8.059  1.9374  0.6110  1.1453
   81SAPS  C218 7555   4.010   4.242   7.963 -0.0883  1.0631  0.0768
   81SAPS  H18R 7556   3.906   4.247   8.002 -1.2665 -2.1398 -2.2163
   81SAPS  H18S 7557   4.052   4.141   7.984 -1.5448  0.5597  0.7670
   81SAPS  C219 7558   4.008   4.267   7.816  0.0460  0.2863 -0.3008
   81SAPS  H19R 7559   4.108   4.262   7.769 -0.4661  1.0036 -1.4994
   81SAPS  H19S 7560   3.968   4.369   7.796  2.2569  1.9634  2.9728
   81SAPS  C220 7561   3.931   4.156   7.747  0.2643 -0.5894  0.0226
   81SAPS  H20R 7562   3.948   4.166   7.638  0.2659  0.7431  0.1325
   81SAPS  H20S 7563   3.830   4.146   7.792  1.0756  3.1347  3.1463
   81SAPS  H20T 7564   3.979   4.056   7.762  0.7057 -0.1925  1.4460
   81SAPS   C33 7565   3.954   4.811   8.998  0.9191  0.7677  0.1870
   81SAPS   H3X 7566   4.045   4.809   9.062  0.4338 -1.6779  0.9140
   81SAPS   H3Y 7567   3.986   4.870   8.910 -1.5277  1.1335 -0.5290
   81SAPS   C34 7568   3.920   4.660   8.963 -0.4282 -0.6861 -0.3599
   81SAPS   H4X 7569   3.843   4.654   8.883 -1.2965 -0.4617  0.4447
   81SAPS   H4Y 7570   3.875   4.619   9.056 -3.2487  0.9699 -0.8844
   81SAPS   C35 7571   4.043   4.580   8.919 -0.2661  0.0058  0.0115
   81SAPS   H5X 7572   4.116   4.573   9.003 -0.0994 -0.3478 -0.1594
   81SAPS   H5Y 7573   4.100   4.618   8.832  1.6487 -0.4322  1.0035
   81SAPS   C36 7574   4.001   4.436   8.874  0.8125  0.4320  1.0839
   81SAPS   H6X 7575   3.952   4.448   8.776  2.9382  0.6617 -0.0231
   81SAPS   H6Y 7576   3.936   4.388   8.951 -0.5288  2.0916  1.0408
   81SAPS   C37 7577   4.130   4.351   8.865 -0.5317  0.5186 -0.7065
   81SAPS   H7X 7578   4.161   4.340   8.972 -0.6608 -2.3331 -0.8915
   81SAPS   H7Y 7579   4.208   4.414   8.817  0.1714  0.8787  0.8143
   81SAPS   C38 7580   4.112   4.224   8.793  0.3990  0.7537 -0.7250
   81SAPS   H8X 7581   4.062   4.238   8.695 -2.5732 -1.0877  0.3783
   81SAPS   H8Y 7582   4.051   4.154   8.854  1.6526 -1.7192 -2.1553
   81SAPS   C39 7583   4.247   4.148   8.764 -0.2004  0.2673 -0.6780
   81SAPS   H9X 7584   4.305   4.111   8.852  0.6269  0.8708 -0.9591
   81SAPS   H9Y 7585   4.330   4.209   8.722  0.9913 -1.3697 -0.8302
   81SAPS  C310 7586   4.227   4.019   8.685 -0.3209  0.2743 -0.2371
   81SAPS  H10X 7587   4.164   3.951   8.746  0.7994 -1.2626 -0.7132
   81SAPS  H10Y 7588   4.327   3.973   8.664 -0.9874 -1.6404  0.5505
   81SAPS  C311 7589   4.159   4.033   8.543  0.4677 -0.0015  1.2406
   81SAPS  H11X 7590   4.224   4.092   8.475  0.6055 -1.5185 -0.0059
   81SAPS  H11Y 7591   4.066   4.093   8.555  0.9482  1.3936 -1.2865
   81SAPS  C312 7592   4.117   3.894   8.485 -0.4621  0.5003 -0.5823
   81SAPS  H12X 7593   4.066   3.847   8.572  0.7178 -0.5681 -0.4402
   81SAPS  H12Y 7594   4.216   3.848   8.468 -0.1548  1.2889 -0.9996
   81SAPS  C313 7595   4.021   3.897   8.369  0.2713  0.8503 -0.0480
   81SAPS  H13X 7596   3.959   3.988   8.381  3.9060  3.3020  1.8778
   81SAPS  H13Y 7597   3.956   3.807   8.376  0.5943  0.7594  4.2770
   81SAPS  C314 7598   4.094   3.906   8.231 -0.5516  0.1192  0.1346
   81SAPS  H14X 7599   4.182   3.973   8.241  0.3966 -1.3168  1.9260
   81SAPS  H14Y 7600   4.028   3.961   8.160 -1.3685  0.3053  1.0147
   81SAPS  C315 7601   4.141   3.769   8.181 -0.5843  0.2847  0.6968
   81SAPS  H15X 7602   4.203   3.722   8.260 -0.7728 -3.3738 -1.1221
   81SAPS  H15Y 7603   4.215   3.767   8.098  0.7701 -1.9363  1.8838
   81SAPS  C316 7604   4.030   3.673   8.141  0.4922 -0.4875 -0.2670
   81SAPS  H16X 7605   4.001   3.699   8.037 -0.2635  2.4909  0.5819
   81SAPS  H16Y 7606   3.939   3.680   8.205 -0.8064  1.0683 -2.1801
   81SAPS  C317 7607   4.067   3.521   8.133  0.1707  0.8204  0.5048
   81SAPS  H17X 7608   4.092   3.484   8.235 -0.9044  0.3746  0.6151
   81SAPS  H17Y 7609   4.167   3.499   8.089 -0.2649 -1.3231  0.4654
   81SAPS  C318 7610   3.955   3.428   8.072 -0.2447 -0.6578  0.8138
   81SAPS  H18X 7611   3.966   3.320   8.095  0.1589 -1.7129 -3.5724
   81SAPS  H18Y 7612   3.954   3.437   7.961  0.3981 -1.8471  0.6974
   81SAPS  H18Z 7613   3.857   3.466   8.108 -1.0739 -0.6737 -1.2664
   82SAPS     N 7614   2.423   3.287   9.711 -0.6473 -0.9134  0.3976
   82SAPS   HN1 7615   2.434   3.187   9.683 -1.1565 -0.7892 -0.2610
   82SAPS   HN2 7616   2.389   3.346   9.633  0.4903 -0.2662  0.3705
   82SAPS   HN3 7617   2.515   3.332   9.729 -1.4479  2.8505 -3.3987
   82SAPS   C12 7618   2.325   3.284   9.819 -0.2735  0.6243 -0.3493
   82SAPS  H12A 7619   2.338   3.186   9.862 -1.4890  0.1102 -1.1067
   82SAPS   C13 7620   2.346   3.387   9.935  0.0790  0.1024 -0.0276
   82SAPS  O13A 7621   2.454   3.446   9.942 -0.0980  0.3855 -0.5345
   82SAPS  O13B 7622   2.260   3.400  10.027  0.5977  0.2851  0.0617
   82SAPS   C11 7623   2.191   3.293   9.751  0.4362  0.3859 -0.6065
   82SAPS  H11A 7624   2.119   3.295   9.836  1.0696 -1.3048  0.0215
   82SAPS  H11B 7625   2.165   3.203   9.692 -0.5365  0.3357 -0.1142
   82SAPS     P 7626   2.177   3.424   9.530 -0.2432 -0.2394  0.0528
   82SAPS   O13 7627   2.326   3.421   9.505  0.4297 -0.5173  0.3096
   82SAPS   O14 7628   2.085   3.323   9.481 -0.2782 -0.8063  0.5544
   82SAPS   O12 7629   2.173   3.417   9.682 -0.4819 -0.1185 -0.3230
   82SAPS   O11 7630   2.121   3.570   9.504 -0.2038  0.6317  0.3769
   82SAPS    C1 7631   2.134   3.626   9.368  0.0094  0.6223 -0.0108
   82SAPS    HA 7632   2.093   3.729   9.372 -0.4137  0.4746 -0.5157
   82SAPS    HB 7633   2.242   3.629   9.342  0.3945 -2.5533  0.7881
   82SAPS    C2 7634   2.048   3.554   9.259  0.7822 -0.2545 -0.3068
   82SAPS    HS 7635   1.969   3.494   9.310  1.1025 -1.1286 -0.8135
   82SAPS   O21 7636   2.129   3.462   9.180 -0.5463 -0.3429 -0.0623
   82SAPS   C21 7637   2.056   3.391   9.102  0.2665  0.0691  0.9808
   82SAPS   O22 7638   1.937   3.391   9.097 -0.4430 -0.2982  0.1637
   82SAPS   C22 7639   2.150   3.303   9.009 -0.3934 -0.2234  0.5706
   82SAPS   H2R 7640   2.204   3.368   8.938 -0.6726 -0.4924  0.1103
   82SAPS   H2S 7641   2.211   3.263   9.093  0.1819  1.0001  0.7561
   82SAPS    C3 7642   1.988   3.663   9.171  0.1111 -0.0753 -0.2914
   82SAPS    HX 7643   1.930   3.722   9.245  3.1245 -0.0021  2.2413
   82SAPS    HY 7644   1.924   3.635   9.085  2.0771  0.3375 -1.9639
   82SAPS   O31 7645   2.099   3.747   9.136  0.4891  0.2786 -0.1725
   82SAPS   C31 7646   2.172   3.718   9.024 -0.1189 -0.1166 -0.0045
   82SAPS   O32 7647   2.145   3.635   8.941 -0.6948  0.0004 -0.1194
   82SAPS   C32 7648   2.290   3.804   9.040 -0.4899  1.0286  0.5963
   82SAPS   H2X 7649   2.335   3.769   9.135  0.1851  2.6295  0.9037
   82SAPS   H2Y 7650   2.275   3.913   9.053 -1.1880  1.0647 -0.4108
   82SAPS   C23 7651   2.089   3.185   8.931 -0.5628 -0.5610 -0.0861
   82SAPS   H3R 7652   2.025   3.130   9.004 -0.2829 -0.1812  0.4486
   82SAPS   H3S 7653   2.167   3.110   8.906 -0.2226 -0.4089  0.5040
   82SAPS   C24 7654   2.010   3.216   8.796 -0.6490 -0.5093 -0.4680
   82SAPS   H4R 7655   1.920   3.273   8.827  0.0613 -0.2578  1.2310
   82SAPS   H4S 7656   1.981   3.117   8.753 -1.0902 -0.3511 -0.5455
   82SAPS   C25 7657   2.084   3.295   8.698 -0.6473  0.2162 -0.2048
   82SAPS   H5R 7658   2.107   3.399   8.724  1.7531  0.0004 -1.1201
   82SAPS   C26 7659   2.133   3.262   8.581  0.4667 -0.6224  1.0647
   82SAPS   H6R 7660   2.212   3.317   8.528 -0.5848 -0.8014 -0.7847
   82SAPS   C27 7661   2.115   3.127   8.514  0.0104 -0.4498 -0.2624
   82SAPS   H7R 7662   2.153   3.056   8.591 -1.2817  0.4588  1.2602
   82SAPS   H7S 7663   2.172   3.132   8.419  0.8475 -1.2358  0.1793
   82SAPS   C28 7664   1.974   3.091   8.473 -0.2021 -0.2891  0.1320
   82SAPS   H8R 7665   1.907   3.172   8.505  1.4788  0.8675  0.8583
   82SAPS   C29 7666   1.939   2.974   8.413 -0.8507  0.5210 -0.2571
   82SAPS   H9R 7667   1.835   2.960   8.379 -0.5198  0.5913 -1.3428
   82SAPS  C210 7668   2.028   2.857   8.375  0.2235  0.5594  0.8874
   82SAPS  H10R 7669   2.121   2.851   8.436  1.1277 -2.7366 -0.5865
   82SAPS  H10S 7670   2.068   2.871   8.272  0.7227  0.1284  1.0143
   82SAPS  C211 7671   1.950   2.726   8.404  0.4206 -0.3457  0.0390
   82SAPS  H11R 7672   1.898   2.719   8.500  2.7945 -0.3494  1.4052
   82SAPS  C212 7673   1.936   2.616   8.323 -0.1792  0.2203 -1.6575
   82SAPS  H12R 7674   1.872   2.533   8.358  1.0938 -2.4291 -5.0616
   82SAPS  C213 7675   1.992   2.601   8.185  0.2736  0.2922 -0.3660
   82SAPS  H13R 7676   2.103   2.593   8.192  0.0467 -1.5734  2.3289
   82SAPS  H13S 7677   1.962   2.689   8.124 -0.6965 -0.5787 -1.1867
   82SAPS  C214 7678   1.956   2.469   8.123  0.0990 -0.0793  0.0537
   82SAPS  H14R 7679   1.979   2.372   8.170  1.2259  0.3773  0.4713
   82SAPS  C215 7680   1.893   2.463   8.006 -0.5079  0.6651  0.4774
   82SAPS  H15R 7681   1.866   2.371   7.953  0.2669  1.5165 -1.4802
   82SAPS  C216 7682   1.856   2.577   7.920 -0.0812  0.2798  0.4073
   82SAPS  H16R 7683   1.932   2.656   7.906 -2.4385  2.4458 -0.8347
   82SAPS  H16S 7684   1.771   2.615   7.979  0.3260  0.8750  0.6161
   82SAPS  C217 7685   1.813   2.529   7.778 -0.6111  0.0071  0.1483
   82SAPS  H17R 7686   1.721   2.467   7.786 -1.9452  1.4341 -2.6697
   82SAPS  H17S 7687   1.886   2.457   7.735 -0.1677  1.0367 -0.8762
   82SAPS  C218 7688   1.773   2.649   7.681 -0.8156 -0.2722 -0.4951
   82SAPS  H18R 7689   1.731   2.597   7.592 -0.0793 -2.8059  0.5479
   82SAPS  H18S 7690   1.869   2.695   7.651 -0.7429 -0.7474 -1.0094
   82SAPS  C219 7691   1.678   2.752   7.739 -0.5336  0.0001  0.1103
   82SAPS  H19R 7692   1.698   2.847   7.685  1.4692 -0.6580 -0.4303
   82SAPS  H19S 7693   1.708   2.766   7.845  0.4703  0.2107 -0.1853
   82SAPS  C220 7694   1.537   2.714   7.706 -0.5497  0.4771 -0.1112
   82SAPS  H20R 7695   1.465   2.795   7.731  1.1721  2.5072 -1.3906
   82SAPS  H20S 7696   1.508   2.614   7.745 -0.0299  0.5291  0.4219
   82SAPS  H20T 7697   1.526   2.704   7.596 -1.2439  0.8277 -0.0799
   82SAPS   C33 7698   2.383   3.792   8.917  0.6431 -0.0831  0.5929
   82SAPS   H3X 7699   2.328   3.838   8.832 -2.9014 -3.2991  0.8737
   82SAPS   H3Y 7700   2.406   3.690   8.881  1.0769  0.5956 -1.1784
   82SAPS   C34 7701   2.521   3.856   8.946 -0.0878 -0.5188 -0.0421
   82SAPS   H4X 7702   2.565   3.803   9.033  1.4388 -1.6682 -1.4379
   82SAPS   H4Y 7703   2.504   3.961   8.976  2.9775  0.4049 -1.1254
   82SAPS   C35 7704   2.628   3.845   8.839 -0.8684  0.4365 -0.2615
   82SAPS   H5X 7705   2.654   3.741   8.813 -0.3088  0.4713  0.1389
   82SAPS   H5Y 7706   2.715   3.896   8.888 -1.1932  0.8026 -0.0529
   82SAPS   C36 7707   2.610   3.925   8.710 -0.3996  0.0081  1.3885
   82SAPS   H6X 7708   2.549   4.013   8.737  0.7409  0.7838  1.5034
   82SAPS   H6Y 7709   2.542   3.865   8.647  2.3938 -0.5000 -1.3831
   82SAPS   C37 7710   2.736   3.972   8.645  0.3908  0.6131  0.1928
   82SAPS   H7X 7711   2.798   4.030   8.717 -2.0022  3.7008 -0.0105
   82SAPS   H7Y 7712   2.716   4.048   8.566  0.0589  1.6197  1.2058
   82SAPS   C38 7713   2.812   3.855   8.581 -0.0408  0.6296 -0.0808
   82SAPS   H8X 7714   2.741   3.805   8.512  1.6344 -0.2825 -1.2087
   82SAPS   H8Y 7715   2.846   3.790   8.665 -0.5269  0.3749 -0.0781
   82SAPS   C39 7716   2.935   3.893   8.496  0.6284  0.6327  0.2627
   82SAPS   H9X 7717   3.003   3.806   8.508  0.8352  0.3778 -2.1625
   82SAPS   H9Y 7718   2.986   3.971   8.557  0.1079 -0.1650  1.7477
   82SAPS  C310 7719   2.901   3.937   8.353  0.2371 -0.0204 -0.0620
   82SAPS  H10X 7720   2.990   3.982   8.303  0.1499  0.1954 -0.0234
   82SAPS  H10Y 7721   2.822   4.014   8.352  1.9077  1.7611 -1.4642
   82SAPS  C311 7722   2.856   3.818   8.266 -0.3525 -0.0814  0.2166
   82SAPS  H11X 7723   2.774   3.761   8.315  0.7906 -2.2152 -0.2657
   82SAPS  H11Y 7724   2.946   3.753   8.260  0.8154  1.0212  3.4501
   82SAPS  C312 7725   2.790   3.858   8.137 -0.3024  0.4003 -0.6258
   82SAPS  H12X 7726   2.859   3.928   8.085  0.0298 -0.7129 -1.7633
   82SAPS  H12Y 7727   2.685   3.893   8.144 -1.3747 -2.3063 -1.8604
   82SAPS  C313 7728   2.775   3.726   8.050  0.0387 -0.7654 -0.0914
   82SAPS  H13X 7729   2.758   3.639   8.117  1.5490 -1.0967 -0.0869
   82SAPS  H13Y 7730   2.878   3.725   8.007  1.1507  1.3674  2.2563
   82SAPS  C314 7731   2.660   3.735   7.947  0.2443 -1.2847 -0.6398
   82SAPS  H14X 7732   2.575   3.779   8.004  1.4674 -2.0429  1.8988
   82SAPS  H14Y 7733   2.624   3.637   7.909 -2.4752 -0.3635 -0.6498
   82SAPS  C315 7734   2.703   3.822   7.830 -0.1549  0.0042  0.1164
   82SAPS  H15X 7735   2.793   3.788   7.775 -0.8134  0.1682 -1.0951
   82SAPS  H15Y 7736   2.732   3.919   7.877  1.5296 -1.1615  1.6284
   82SAPS  C316 7737   2.585   3.844   7.724 -0.3469  0.5217  0.3777
   82SAPS  H16X 7738   2.560   3.742   7.687  2.8524 -0.6856  1.1963
   82SAPS  H16Y 7739   2.634   3.903   7.644 -1.7413 -0.3688 -1.1920
   82SAPS  C317 7740   2.466   3.928   7.773  0.5193 -0.4180 -0.4826
   82SAPS  H17X 7741   2.433   3.887   7.870  1.8023  0.2813  0.2780
   82SAPS  H17Y 7742   2.386   3.925   7.696  0.0154  3.5502 -0.3507
   82SAPS  C318 7743   2.494   4.074   7.784 -0.1323 -0.1760  0.3818
   82SAPS  H18X 7744   2.528   4.107   7.683 -0.5552  0.1429  0.3373
   82SAPS  H18Y 7745   2.589   4.094   7.838  1.2588 -2.4639 -1.0386
   82SAPS  H18Z 7746   2.410   4.136   7.823  0.7431  1.7418 -0.6162
   83SAPS     N 7747   4.498   5.056   9.530 -0.4182 -0.0242 -0.1112
   83SAPS   HN1 7748   4.486   5.080   9.430 -1.6547  0.4293  0.1183
   83SAPS   HN2 7749   4.578   5.102   9.577 -0.9797  1.8093 -0.8711
   83SAPS   HN3 7750   4.506   4.953   9.543 -0.6483  0.2629  3.5733
   83SAPS   C12 7751   4.380   5.103   9.610  0.9205 -0.0150  0.1602
   83SAPS  H12A 7752   4.293   5.071   9.555  1.9437 -1.9186 -0.4251
   83SAPS   C13 7753   4.373   5.033   9.752 -0.0736 -0.2131  0.3528
   83SAPS  O13A 7754   4.472   4.970   9.800 -0.4890 -0.8091  0.4488
   83SAPS  O13B 7755   4.263   5.055   9.813 -0.3871 -0.0306 -0.1743
   83SAPS   C11 7756   4.389   5.263   9.618 -0.2471  0.2721 -0.4226
   83SAPS  H11A 7757   4.477   5.298   9.675  0.3360 -1.6683 -0.0523
   83SAPS  H11B 7758   4.299   5.304   9.670 -0.8883  0.0685 -1.3405
   83SAPS     P 7759   4.375   5.480   9.459 -0.1215  0.0929 -0.4322
   83SAPS   O13 7760   4.296   5.550   9.564  0.4848 -0.0358 -0.1068
   83SAPS   O14 7761   4.510   5.533   9.431 -0.1239 -0.9141 -0.6419
   83SAPS   O12 7762   4.391   5.325   9.487  0.1571 -0.6426 -0.0944
   83SAPS   O11 7763   4.292   5.470   9.321  0.0973  0.5091  0.1402
   83SAPS    C1 7764   4.204   5.357   9.301  0.3840  0.2979 -0.4557
   83SAPS    HA 7765   4.189   5.299   9.394 -0.2947  1.0510 -0.0928
   83SAPS    HB 7766   4.106   5.391   9.262  0.1301 -0.1492 -0.2161
   83SAPS    C2 7767   4.256   5.268   9.181 -0.2445 -0.1375 -0.2573
   83SAPS    HS 7768   4.364   5.246   9.189 -0.6318 -2.0623  0.0739
   83SAPS   O21 7769   4.227   5.344   9.065  0.5350  0.0794  0.1670
   83SAPS   C21 7770   4.325   5.399   8.998  0.2592 -0.2981 -0.3811
   83SAPS   O22 7771   4.442   5.389   9.021 -0.2174  0.2680  0.2905
   83SAPS   C22 7772   4.271   5.475   8.886 -0.9326 -0.6998 -0.1138
   83SAPS   H2R 7773   4.198   5.547   8.928  1.8471  2.7987 -0.8772
   83SAPS   H2S 7774   4.356   5.538   8.852 -0.5503 -0.5194  1.1172
   83SAPS    C3 7775   4.180   5.134   9.177  0.0565 -0.2692  0.0561
   83SAPS    HX 7776   4.071   5.157   9.183 -0.1336 -1.3582  1.3638
   83SAPS    HY 7777   4.192   5.088   9.277 -2.7545 -0.3607  0.4380
   83SAPS   O31 7778   4.209   5.048   9.061  0.2766  0.2723 -0.1602
   83SAPS   C31 7779   4.313   4.965   9.089 -0.5594  0.0040 -0.3722
   83SAPS   O32 7780   4.383   4.970   9.189 -0.2136 -0.0377 -0.3768
   83SAPS   C32 7781   4.346   4.879   8.971  0.1820  0.2668  0.0185
   83SAPS   H2X 7782   4.267   4.802   8.955  1.1559 -0.2311 -3.0412
   83SAPS   H2Y 7783   4.443   4.829   8.990  0.4629  0.4232 -0.9593
   83SAPS   C23 7784   4.224   5.394   8.767 -0.8980 -0.0206  0.2657
   83SAPS   H3R 7785   4.187   5.293   8.793  0.7668 -1.8595 -3.6267
   83SAPS   H3S 7786   4.302   5.358   8.697 -0.0111  1.2906  0.5485
   83SAPS   C24 7787   4.126   5.483   8.682 -0.1020 -0.5213 -0.2140
   83SAPS   H4R 7788   4.037   5.510   8.742  0.5457 -0.0781  0.5823
   83SAPS   H4S 7789   4.094   5.403   8.613  1.0868 -1.9879  0.8659
   83SAPS   C25 7790   4.190   5.604   8.627 -0.2293  0.1594  0.0027
   83SAPS   H5R 7791   4.191   5.692   8.693 -1.2645 -1.0638  1.7400
   83SAPS   C26 7792   4.250   5.605   8.506  0.6863  0.0040 -0.6623
   83SAPS   H6R 7793   4.288   5.700   8.468  1.1249  0.2099  0.2563
   83SAPS   C27 7794   4.268   5.502   8.398  0.0025  0.1535  0.1736
   83SAPS   H7R 7795   4.293   5.553   8.302  0.3332  1.0402  0.7205
   83SAPS   H7S 7796   4.172   5.448   8.382  0.7415 -1.4113  0.8499
   83SAPS   C28 7797   4.377   5.401   8.425  0.3593  0.2298 -0.4727
   83SAPS   H8R 7798   4.423   5.408   8.524  0.9066 -0.5745 -0.6610
   83SAPS   C29 7799   4.408   5.296   8.343 -0.5358 -0.5333 -0.5302
   83SAPS   H9R 7800   4.487   5.225   8.373 -3.7236 -3.5455  1.4252
   83SAPS  C210 7801   4.355   5.268   8.208  0.2052 -0.0214  0.9675
   83SAPS  H10R 7802   4.378   5.351   8.139 -0.7533 -0.1884  0.4367
   83SAPS  H10S 7803   4.244   5.275   8.215  0.2245 -0.8931  3.0929
   83SAPS  C211 7804   4.414   5.141   8.144  0.4320 -0.0904 -0.4937
   83SAPS  H11R 7805   4.499   5.098   8.200  1.3626  1.2616 -0.8204
   83SAPS  C212 7806   4.370   5.086   8.029  0.1015 -0.0552  0.4621
   83SAPS  H12R 7807   4.408   4.988   7.997 -0.9360 -0.8335  1.5106
   83SAPS  C213 7808   4.274   5.157   7.941  0.2862 -0.0661  0.0110
   83SAPS  H13R 7809   4.310   5.262   7.937  0.3655  0.0878  2.6767
   83SAPS  H13S 7810   4.169   5.141   7.975 -0.4397 -0.2642 -2.1822
   83SAPS  C214 7811   4.290   5.114   7.798 -0.0667 -0.5050 -0.5660
   83SAPS  H14R 7812   4.357   5.178   7.739  0.8061 -0.6924  0.2055
   83SAPS  C215 7813   4.208   5.028   7.734  0.8669  0.1379  0.1591
   83SAPS  H15R 7814   4.227   5.011   7.627 -1.2269 -1.3846 -0.0430
   83SAPS  C216 7815   4.087   4.956   7.782  0.0047  0.0416  0.2667
   83SAPS  H16R 7816   3.999   4.975   7.718 -0.4526  1.2638  1.2173
   83SAPS  H16S 7817   4.066   4.990   7.886 -1.2006  2.8530 -0.7915
   83SAPS  C217 7818   4.101   4.803   7.780 -0.0725  0.2244 -0.4842
   83SAPS  H17R 7819   4.120   4.782   7.672  1.7267 -0.9009 -0.0004
   83SAPS  H17S 7820   4.006   4.754   7.809 -0.1087 -0.3511 -1.5059
   83SAPS  C218 7821   4.221   4.745   7.858 -0.3385 -0.1058  0.0799
   83SAPS  H18R 7822   4.306   4.804   7.819 -0.1231 -1.7363 -2.0981
   83SAPS  H18S 7823   4.245   4.638   7.843  0.4807  0.0488  0.2164
   83SAPS  C219 7824   4.204   4.774   8.012  0.6544 -0.4906 -0.7590
   83SAPS  H19R 7825   4.098   4.749   8.034  0.3564 -0.2364 -1.8769
   83SAPS  H19S 7826   4.213   4.884   8.028 -1.3904 -0.5519  1.4252
   83SAPS  C220 7827   4.306   4.707   8.112  0.4869 -0.1923  0.3544
   83SAPS  H20R 7828   4.301   4.748   8.215  0.5600 -0.4393  0.4592
   83SAPS  H20S 7829   4.410   4.710   8.072  0.2953  0.4704 -0.1029
   83SAPS  H20T 7830   4.284   4.598   8.112  1.7030 -0.4575  1.0020
   83SAPS   C33 7831   4.364   4.958   8.839 -0.0731  0.0291  0.3372
   83SAPS   H3X 7832   4.440   4.914   8.770  0.0193 -0.6337  0.8453
   83SAPS   H3Y 7833   4.381   5.063   8.870  0.5042 -0.4947  1.8822
   83SAPS   C34 7834   4.231   4.954   8.764  0.1402  0.5058  0.2120
   83SAPS   H4X 7835   4.150   4.999   8.827 -2.8714 -2.4071 -1.2695
   83SAPS   H4Y 7836   4.198   4.850   8.745  0.1167  0.7614 -1.2499
   83SAPS   C35 7837   4.235   5.026   8.629  0.7917 -0.5446  0.5803
   83SAPS   H5X 7838   4.318   4.979   8.572  0.6093  1.3098 -1.3567
   83SAPS   H5Y 7839   4.264   5.133   8.633  2.3335 -0.8697 -0.8094
   83SAPS   C36 7840   4.107   5.020   8.549  0.1799  0.0547 -0.4917
   83SAPS   H6X 7841   4.025   5.076   8.599  0.7313  0.8492 -0.4631
   83SAPS   H6Y 7842   4.070   4.916   8.540 -2.6536  0.8542  0.7080
   83SAPS   C37 7843   4.130   5.090   8.415  0.1927 -0.5679  0.4934
   83SAPS   H7X 7844   4.215   5.050   8.357 -0.4627 -0.8773 -0.2823
   83SAPS   H7Y 7845   4.164   5.194   8.433 -0.4155 -0.4839  1.2129
   83SAPS   C38 7846   4.005   5.092   8.328 -0.1362  0.5891  0.2036
   83SAPS   H8X 7847   4.016   5.183   8.266  1.8706  1.0208  1.1176
   83SAPS   H8Y 7848   3.908   5.097   8.381 -1.0693  0.0768 -1.3759
   83SAPS   C39 7849   3.993   4.989   8.220 -0.0400 -0.6467 -0.3553
   83SAPS   H9X 7850   4.036   4.892   8.253  1.7120  0.1096 -0.3153
   83SAPS   H9Y 7851   4.065   5.018   8.141  0.8967 -0.6184  0.4830
   83SAPS  C310 7852   3.851   4.972   8.167  0.2515 -0.1328 -0.3412
   83SAPS  H10X 7853   3.817   5.062   8.112 -0.0417  0.2934  0.5235
   83SAPS  H10Y 7854   3.789   4.968   8.259  1.0880  2.4705  0.4118
   83SAPS  C311 7855   3.821   4.856   8.070  0.7158  0.7201  0.7206
   83SAPS  H11X 7856   3.898   4.847   7.991 -2.1837 -1.1355 -2.1429
   83SAPS  H11Y 7857   3.726   4.883   8.019 -0.5360  0.8958  2.9918
   83SAPS  C312 7858   3.797   4.721   8.132 -0.4579 -0.4306 -0.7027
   83SAPS  H12X 7859   3.753   4.735   8.233  0.8407 -0.7909 -0.0555
   83SAPS  H12Y 7860   3.897   4.674   8.144 -0.1682  0.6470  1.9049
   83SAPS  C313 7861   3.717   4.628   8.047 -0.1108 -0.0138 -0.3874
   83SAPS  H13X 7862   3.766   4.636   7.948 -1.5597 -1.5846 -1.3009
   83SAPS  H13Y 7863   3.612   4.663   8.039  0.0458  0.2236 -1.7245
   83SAPS  C314 7864   3.717   4.475   8.083 -0.6098 -0.4432  0.3518
   83SAPS  H14X 7865   3.663   4.455   8.178  0.3878  0.8806  1.2379
   83SAPS  H14Y 7866   3.823   4.445   8.092 -0.8650 -1.1038  1.3947
   83SAPS  C315 7867   3.656   4.389   7.964 -0.1412  0.7076 -0.0797
   83SAPS  H15X 7868   3.696   4.286   7.973 -1.7255  0.0855  0.2524
   83SAPS  H15Y 7869   3.701   4.434   7.873  0.0007 -0.9409 -0.8598
   83SAPS  C316 7870   3.504   4.388   7.966 -0.2469 -0.7211 -0.3075
   83SAPS  H16X 7871   3.478   4.496   7.966 -1.0724 -0.9073  0.2108
   83SAPS  H16Y 7872   3.453   4.359   8.061 -2.5529  1.1502 -0.9017
   83SAPS  C317 7873   3.445   4.321   7.840 -0.5144 -0.3820 -0.3396
   83SAPS  H17X 7874   3.491   4.380   7.758  0.4493  0.1901  0.5858
   83SAPS  H17Y 7875   3.337   4.348   7.838  0.0863  2.4887  1.3629
   83SAPS  C318 7876   3.468   4.172   7.823  0.7541  0.6764  0.0564
   83SAPS  H18X 7877   3.423   4.109   7.903  0.9943  1.7587  1.0596
   83SAPS  H18Y 7878   3.575   4.143   7.829  0.3428 -1.2959 -1.2448
   83SAPS  H18Z 7879   3.429   4.135   7.725 -0.7438  2.6128 -0.1546
   84SAPS     N 7880   6.041   3.045   9.498 -0.4668 -0.2509  0.3219
   84SAPS   HN1 7881   6.012   3.071   9.401  2.3229  1.1087 -0.2564
   84SAPS   HN2 7882   6.144   3.030   9.496 -0.4142  0.0442  0.7379
   84SAPS   HN3 7883   5.994   2.958   9.532  0.4948 -1.7182 -1.8311
   84SAPS   C12 7884   6.025   3.161   9.593 -0.3637 -0.4504  0.1377
   84SAPS  H12A 7885   5.919   3.179   9.604 -0.3306 -0.2971  0.2218
   84SAPS   C13 7886   6.084   3.131   9.736 -0.0321  0.3817  0.6437
   84SAPS  O13A 7887   6.160   3.032   9.751  0.0539 -0.2447 -0.4925
   84SAPS  O13B 7888   6.047   3.208   9.831 -0.1731  0.0193  0.0163
   84SAPS   C11 7889   6.100   3.292   9.541  0.6684  0.2893 -0.4207
   84SAPS  H11A 7890   6.207   3.268   9.522  1.2031 -0.3799  2.8971
   84SAPS  H11B 7891   6.108   3.379   9.610 -2.6936 -0.4218  1.0365
   84SAPS     P 7892   5.923   3.428   9.406  0.3845 -0.3890 -0.4168
   84SAPS   O13 7893   5.823   3.413   9.518  0.0529 -0.1799  0.1150
   84SAPS   O14 7894   5.985   3.561   9.389 -0.4071 -1.0005 -0.3687
   84SAPS   O12 7895   6.040   3.320   9.416  0.5190 -0.6352  0.3641
   84SAPS   O11 7896   5.843   3.392   9.277  0.2995 -0.4431 -0.5863
   84SAPS    C1 7897   5.902   3.315   9.170  0.5500 -0.6800  1.1334
   84SAPS    HA 7898   5.947   3.219   9.204 -1.7310 -2.1193  0.3377
   84SAPS    HB 7899   5.818   3.286   9.103 -0.1409  3.2987  0.0055
   84SAPS    C2 7900   6.013   3.386   9.077 -0.1193  0.3510  0.7812
   84SAPS    HS 7901   6.097   3.420   9.141 -0.6663  2.5698  0.3989
   84SAPS   O21 7902   5.960   3.504   9.012  0.3618  0.0079 -0.6843
   84SAPS   C21 7903   6.053   3.570   8.949  0.7405  0.1521  0.9538
   84SAPS   O22 7904   6.172   3.566   8.978 -0.5582  0.0657 -0.7929
   84SAPS   C22 7905   5.984   3.667   8.854 -0.3263  0.3906  0.4510
   84SAPS   H2R 7906   5.878   3.635   8.842 -0.1078  0.4137 -2.1011
   84SAPS   H2S 7907   5.970   3.768   8.900  2.2640  1.3641 -0.7276
   84SAPS    C3 7908   6.061   3.280   8.975  0.4443 -0.1621  0.2895
   84SAPS    HX 7909   6.082   3.183   9.025 -0.0574 -0.0949  0.6467
   84SAPS    HY 7910   6.160   3.315   8.939  0.2745  0.2887  0.2528
   84SAPS   O31 7911   5.976   3.271   8.861 -0.4134  0.5195  0.0593
   84SAPS   C31 7912   5.904   3.163   8.852  0.4127  0.0172 -0.4805
   84SAPS   O32 7913   5.902   3.069   8.930  0.1980 -0.5900 -0.2683
   84SAPS   C32 7914   5.824   3.166   8.714  0.2854 -0.2861  0.0355
   84SAPS   H2X 7915   5.781   3.064   8.708  1.3735 -0.8213  0.8337
   84SAPS   H2Y 7916   5.906   3.181   8.640 -0.2411  2.7672 -0.0374
   84SAPS   C23 7917   6.053   3.684   8.720 -1.0689  0.5854  0.6018
   84SAPS   H3R 7918   6.164   3.687   8.735 -0.5857 -4.2359 -0.4449
   84SAPS   H3S 7919   6.034   3.774   8.659  1.0319 -0.5298 -1.9022
   84SAPS   C24 7920   6.042   3.555   8.641  0.4861 -0.0978 -0.3433
   84SAPS   H4R 7921   5.938   3.516   8.643  0.2300  0.6038  0.2392
   84SAPS   H4S 7922   6.105   3.480   8.694 -0.4484 -3.0680 -3.1009
   84SAPS   C25 7923   6.085   3.546   8.500 -0.2172  0.0852 -0.2189
   84SAPS   H5R 7924   6.193   3.566   8.493 -0.1245 -0.3746 -0.1401
   84SAPS   C26 7925   6.013   3.489   8.395 -1.3174 -0.3207 -0.5220
   84SAPS   H6R 7926   6.065   3.500   8.299 -0.8423 -0.0291 -0.2328
   84SAPS   C27 7927   5.872   3.433   8.386 -0.5924  0.2127 -0.4240
   84SAPS   H7R 7928   5.809   3.466   8.471 -0.5302 -0.7244 -0.0053
   84SAPS   H7S 7929   5.868   3.323   8.369 -0.4069 -0.2193  2.0418
   84SAPS   C28 7930   5.809   3.517   8.272  0.0892  1.0440  0.6309
   84SAPS   H8R 7931   5.746   3.598   8.312 -1.9319  0.4578 -1.1435
   84SAPS   C29 7932   5.826   3.496   8.139  0.1472 -0.9899  0.6540
   84SAPS   H9R 7933   5.798   3.577   8.071 -0.5314 -1.4678  0.3526
   84SAPS  C210 7934   5.917   3.392   8.079  0.3000 -0.6393  0.4526
   84SAPS  H10R 7935   5.855   3.314   8.031  0.2065  0.3421 -1.0962
   84SAPS  H10S 7936   5.988   3.350   8.154 -1.1280 -1.5654  1.3403
   84SAPS  C211 7937   5.989   3.447   7.960 -0.4717 -0.2634  0.1565
   84SAPS  H11R 7938   5.928   3.488   7.878 -1.1647 -0.8706  0.3561
   84SAPS  C212 7939   6.122   3.431   7.945 -0.0963  0.3719 -0.4396
   84SAPS  H12R 7940   6.184   3.473   7.865  0.8776 -1.9491 -0.9712
   84SAPS  C213 7941   6.227   3.377   8.044 -0.2821  0.4144 -0.0650
   84SAPS  H13R 7942   6.176   3.355   8.140  0.0415 -2.0282 -0.3855
   84SAPS  H13S 7943   6.299   3.461   8.052 -0.1562  0.2233  0.9236
   84SAPS  C214 7944   6.300   3.251   8.018  0.1678  0.2114 -0.2093
   84SAPS  H14R 7945   6.277   3.170   8.089  0.9139  0.1033 -0.0789
   84SAPS  C215 7946   6.379   3.225   7.919 -0.2120  0.2610 -0.3381
   84SAPS  H15R 7947   6.399   3.120   7.894 -0.5780 -0.0644  0.6923
   84SAPS  C216 7948   6.420   3.320   7.808 -0.1046 -0.3018 -0.2910
   84SAPS  H16R 7949   6.529   3.315   7.789 -0.4879  0.3790 -3.2177
   84SAPS  H16S 7950   6.401   3.425   7.841  0.8272  0.2974 -1.5693
   84SAPS  C217 7951   6.339   3.309   7.674  0.3594  0.3574  0.1463
   84SAPS  H17R 7952   6.230   3.315   7.698  0.4476 -0.9095  0.9690
   84SAPS  H17S 7953   6.354   3.208   7.630  1.0345  0.2518  0.6030
   84SAPS  C218 7954   6.366   3.407   7.567  0.5190 -0.5263  0.0285
   84SAPS  H18R 7955   6.305   3.391   7.475  2.1467 -0.6657 -1.0623
   84SAPS  H18S 7956   6.474   3.404   7.542  0.8765  1.9645  1.0452
   84SAPS  C219 7957   6.343   3.552   7.610 -0.1845  0.4530  0.5948
   84SAPS  H19R 7958   6.377   3.578   7.712 -2.0160 -0.7929  1.5755
   84SAPS  H19S 7959   6.235   3.574   7.609 -0.2609  0.0740  0.2699
   84SAPS  C220 7960   6.403   3.661   7.518 -0.3650  0.2860  0.0897
   84SAPS  H20R 7961   6.358   3.762   7.533 -1.0658  0.3907 -2.3871
   84SAPS  H20S 7962   6.391   3.630   7.412  1.4750  1.6081 -0.5522
   84SAPS  H20T 7963   6.512   3.674   7.532 -0.0828  1.3404 -2.6454
   84SAPS   C33 7964   5.723   3.281   8.700  0.0881 -0.3768  0.1917
   84SAPS   H3X 7965   5.774   3.380   8.691  1.8375 -1.1973  0.7398
   84SAPS   H3Y 7966   5.662   3.286   8.792 -0.5345  0.3976 -0.2481
   84SAPS   C34 7967   5.631   3.256   8.579 -0.6002  0.1577  0.6175
   84SAPS   H4X 7968   5.589   3.155   8.594  0.8016 -0.6999 -0.9028
   84SAPS   H4Y 7969   5.689   3.247   8.485  2.4100  1.3980  2.2217
   84SAPS   C35 7970   5.523   3.364   8.570  0.3422  0.6091 -0.8954
   84SAPS   H5X 7971   5.565   3.465   8.553  2.3926 -0.2897 -1.4536
   84SAPS   H5Y 7972   5.494   3.372   8.677  0.5105  1.6079 -0.9166
   84SAPS   C36 7973   5.419   3.345   8.460  0.2388  0.8415 -0.1248
   84SAPS   H6X 7974   5.335   3.417   8.473  1.6193  2.1392  2.2887
   84SAPS   H6Y 7975   5.376   3.243   8.465  1.3525  0.3481 -0.3641
   84SAPS   C37 7976   5.484   3.360   8.319  0.2813 -0.1410 -0.0176
   84SAPS   H7X 7977   5.554   3.276   8.299 -0.3127 -0.0973 -2.6058
   84SAPS   H7Y 7978   5.541   3.454   8.299  0.7264 -0.4602 -0.2652
   84SAPS   C38 7979   5.382   3.332   8.212  0.6816  0.4105  0.4484
   84SAPS   H8X 7980   5.432   3.333   8.113 -0.7398 -0.0315 -0.3115
   84SAPS   H8Y 7981   5.316   3.421   8.207 -1.0253 -0.8237 -3.5342
   84SAPS   C39 7982   5.295   3.200   8.214 -0.2414 -0.3767 -1.2281
   84SAPS   H9X 7983   5.240   3.204   8.310 -1.8550 -0.5519 -2.1223
   84SAPS   H9Y 7984   5.362   3.111   8.217 -0.5041 -0.5518 -0.3534
   84SAPS  C310 7985   5.188   3.181   8.106 -0.4829  1.0441  0.8702
   84SAPS  H10X 7986   5.244   3.194   8.011  0.8127 -0.3409  1.3844
   84SAPS  H10Y 7987   5.120   3.268   8.111  0.6774  2.0123  0.1578
   84SAPS  C311 7988   5.122   3.043   8.099 -0.6735  0.0346 -0.7037
   84SAPS  H11X 7989   5.074   3.017   8.196 -0.4159 -0.7679 -0.7857
   84SAPS  H11Y 7990   5.200   2.968   8.074 -2.1847 -1.1655 -1.9674
   84SAPS  C312 7991   5.020   3.025   7.990 -0.1489 -0.2273 -0.3069
   84SAPS  H12X 7992   4.941   3.102   8.000  1.4388  1.7251 -1.9672
   84SAPS  H12Y 7993   4.974   2.924   7.997 -1.5549  0.3776 -0.5514
   84SAPS  C313 7994   5.084   3.031   7.850  0.0060  0.3228 -0.1028
   84SAPS  H13X 7995   5.184   2.987   7.868  0.0432  0.6011  0.3803
   84SAPS  H13Y 7996   5.105   3.122   7.790  0.7486 -0.6405 -1.3526
   84SAPS  C314 7997   5.028   2.923   7.752 -0.5976  0.3801  0.7291
   84SAPS  H14X 7998   4.924   2.950   7.725 -0.3545  0.9831  0.3708
   84SAPS  H14Y 7999   5.021   2.824   7.801  0.1751  1.0739  2.3100
   84SAPS  C315 8000   5.110   2.899   7.617  0.3440 -0.2253  0.2945
   84SAPS  H15X 8001   5.190   2.832   7.655  0.7661  0.4726  0.6609
   84SAPS  H15Y 8002   5.158   2.993   7.583  0.4517 -0.4229 -0.1133
   84SAPS  C316 8003   5.034   2.833   7.504 -0.1494 -0.3744  0.8736
   84SAPS  H16X 8004   4.976   2.746   7.542  1.3598 -3.2567 -2.8240
   84SAPS  H16Y 8005   5.098   2.778   7.431  1.2329 -2.1458  3.2656
   84SAPS  C317 8006   4.933   2.927   7.435 -0.0771 -0.5812 -0.2738
   84SAPS  H17X 8007   4.978   3.012   7.379 -1.6294  0.2867 -0.2652
   84SAPS  H17Y 8008   4.876   2.976   7.516 -2.4408  0.3253 -2.3443
   84SAPS  C318 8009   4.837   2.863   7.340  0.0691  0.6581  0.5265
   84SAPS  H18X 8010   4.745   2.824   7.388 -0.6953  0.2132 -1.2132
   84SAPS  H18Y 8011   4.887   2.773   7.300 -0.8547  0.1719  0.4485
   84SAPS  H18Z 8012   4.806   2.937   7.263 -0.3515 -0.4382 -0.3860
   85SAPS     N 8013   2.132   6.439   9.651 -0.1190 -0.4395 -0.2645
   85SAPS   HN1 8014   2.180   6.380   9.580  0.6665  2.6178 -2.4830
   85SAPS   HN2 8015   2.030   6.446   9.633 -0.1389  2.0607  0.4351
   85SAPS   HN3 8016   2.177   6.532   9.637 -1.4300  0.1588 -0.6064
   85SAPS   C12 8017   2.145   6.377   9.789 -0.0781  0.1037  0.7918
   85SAPS  H12A 8018   2.248   6.355   9.814 -0.4139 -1.8054  0.6449
   85SAPS   C13 8019   2.079   6.455   9.905 -0.2570 -0.6824  0.3482
   85SAPS  O13A 8020   2.017   6.563   9.883 -0.4891  0.4695  0.2458
   85SAPS  O13B 8021   2.087   6.403  10.017  0.0328 -0.0077 -0.1831
   85SAPS   C11 8022   2.083   6.233   9.773  0.3220 -0.3243 -0.1196
   85SAPS  H11A 8023   1.975   6.241   9.751  0.2728 -0.4042  0.0909
   85SAPS  H11B 8024   2.082   6.174   9.867 -1.7688  1.3106  0.9547
   85SAPS     P 8025   2.108   6.023   9.606  0.4808 -0.1032  0.1399
   85SAPS   O13 8026   2.196   5.981   9.497  0.0212  0.2552 -0.0411
   85SAPS   O14 8027   2.079   5.924   9.714  0.1822 -0.4867 -0.2327
   85SAPS   O12 8028   2.155   6.155   9.668  0.5630  0.8342  0.3883
   85SAPS   O11 8029   1.973   6.061   9.540 -0.4139  0.1269  0.2046
   85SAPS    C1 8030   1.973   6.155   9.421 -0.5101  0.3988 -0.4510
   85SAPS    HA 8031   1.986   6.260   9.456 -1.9401 -0.4199  2.9267
   85SAPS    HB 8032   2.062   6.145   9.355 -0.5243  3.8552 -1.1892
   85SAPS    C2 8033   1.847   6.150   9.338  0.4856 -0.0769  0.2598
   85SAPS    HS 8034   1.758   6.171   9.400 -0.2993 -0.7914 -0.5895
   85SAPS   O21 8035   1.837   6.012   9.283  0.0976  0.0509  0.0372
   85SAPS   C21 8036   1.718   5.989   9.232  0.0015 -0.8268  0.0037
   85SAPS   O22 8037   1.616   6.050   9.253  0.2713 -0.1008 -0.0054
   85SAPS   C22 8038   1.718   5.851   9.167  0.1163 -0.1223  0.5882
   85SAPS   H2R 8039   1.820   5.808   9.179 -0.7481 -2.6429 -0.4411
   85SAPS   H2S 8040   1.636   5.788   9.208 -0.3362  0.9475  1.3806
   85SAPS    C3 8041   1.841   6.256   9.225  0.0967  0.1420 -0.0778
   85SAPS    HX 8042   1.873   6.357   9.259  0.7832 -0.0301 -0.2100
   85SAPS    HY 8043   1.739   6.262   9.182 -0.5196  0.0192  1.3162
   85SAPS   O31 8044   1.927   6.203   9.122  0.7465 -0.0567  0.2307
   85SAPS   C31 8045   2.048   6.256   9.105  0.0450  0.0325 -0.1650
   85SAPS   O32 8046   2.084   6.359   9.156 -0.5085  0.0139 -0.4805
   85SAPS   C32 8047   2.129   6.179   9.008 -0.3926  0.3538 -0.4973
   85SAPS   H2X 8048   2.074   6.179   8.911 -0.3344  0.3953 -0.5299
   85SAPS   H2Y 8049   2.116   6.070   9.027 -2.2927  0.6480  0.1052
   85SAPS   C23 8050   1.691   5.873   9.017  0.8468 -0.6094  0.0423
   85SAPS   H3R 8051   1.597   5.928   8.994  0.0670 -2.0108 -0.2151
   85SAPS   H3S 8052   1.672   5.772   8.975  0.3013 -0.8079  0.7502
   85SAPS   C24 8053   1.788   5.942   8.924 -0.1454 -0.2999 -0.5048
   85SAPS   H4R 8054   1.873   5.871   8.913  0.2378  0.2306 -1.0618
   85SAPS   H4S 8055   1.827   6.038   8.965  0.5312 -0.4642 -0.7422
   85SAPS   C25 8056   1.734   5.971   8.783  0.2037 -0.2572 -0.4954
   85SAPS   H5R 8057   1.692   5.891   8.720 -1.2013 -0.1506  0.2564
   85SAPS   C26 8058   1.731   6.096   8.728 -0.2895  0.9190  0.1141
   85SAPS   H6R 8059   1.714   6.100   8.620 -0.1056 -2.2106 -0.1236
   85SAPS   C27 8060   1.779   6.220   8.791  0.3869  0.0354 -0.1048
   85SAPS   H7R 8061   1.803   6.300   8.717 -0.1996 -1.1892 -1.6790
   85SAPS   H7S 8062   1.878   6.190   8.832  0.7632  1.9147  0.4692
   85SAPS   C28 8063   1.691   6.281   8.898  0.4207 -0.7083  0.5962
   85SAPS   H8R 8064   1.628   6.210   8.954  0.7505 -1.3580  0.1508
   85SAPS   C29 8065   1.684   6.410   8.935  0.1879  0.0523  0.9925
   85SAPS   H9R 8066   1.610   6.430   9.015 -1.5094 -3.4759  0.5048
   85SAPS  C210 8067   1.761   6.522   8.882 -0.2198 -0.4030 -0.1289
   85SAPS  H10R 8068   1.707   6.615   8.913 -0.3389 -1.0121  1.6207
   85SAPS  H10S 8069   1.759   6.512   8.772  4.2202  0.8159 -0.5301
   85SAPS  C211 8070   1.905   6.529   8.911  0.0230 -0.0609  0.2413
   85SAPS  H11R 8071   1.920   6.512   9.019  1.9749  3.2340  0.6362
   85SAPS  C212 8072   2.012   6.556   8.834 -0.0101 -0.3295 -1.2429
   85SAPS  H12R 8073   2.106   6.524   8.881 -0.4174 -0.3273 -0.4071
   85SAPS  C213 8074   2.022   6.589   8.694  0.2780  0.0164 -0.3081
   85SAPS  H13R 8075   1.930   6.647   8.672  0.8483  0.2724 -2.1302
   85SAPS  H13S 8076   2.019   6.500   8.627 -1.5782  0.7681 -1.3096
   85SAPS  C214 8077   2.137   6.672   8.656  0.3901  0.2143  0.1074
   85SAPS  H14R 8078   2.167   6.742   8.736 -2.7355  0.2462  1.4039
   85SAPS  C215 8079   2.182   6.690   8.531 -0.1525  0.3682  0.1827
   85SAPS  H15R 8080   2.269   6.757   8.532  0.4522 -0.3147  2.8090
   85SAPS  C216 8081   2.134   6.637   8.402  0.6188 -0.3823  0.4726
   85SAPS  H16R 8082   2.024   6.649   8.408  0.6884 -0.3417  1.8661
   85SAPS  H16S 8083   2.137   6.526   8.406  1.4589 -0.4183 -0.6807
   85SAPS  C217 8084   2.191   6.710   8.281 -0.5377 -0.0259  0.1713
   85SAPS  H17R 8085   2.298   6.683   8.268 -0.9437 -0.9144 -1.7538
   85SAPS  H17S 8086   2.192   6.819   8.305 -0.3951 -0.1098  0.5654
   85SAPS  C218 8087   2.134   6.687   8.144  0.4118  0.1310  0.9906
   85SAPS  H18R 8088   2.026   6.710   8.139  0.4230  0.0044 -0.5026
   85SAPS  H18S 8089   2.148   6.580   8.117  1.9981  0.1998  1.4452
   85SAPS  C219 8090   2.214   6.756   8.037  0.2179  0.1785  0.2575
   85SAPS  H19R 8091   2.320   6.726   8.044  0.9442  2.8309  1.9019
   85SAPS  H19S 8092   2.210   6.864   8.062  0.9746 -0.1487  1.9401
   85SAPS  C220 8093   2.166   6.741   7.892  0.2925 -0.0753 -0.5037
   85SAPS  H20R 8094   2.182   6.638   7.853  0.2768  0.9576 -3.4747
   85SAPS  H20S 8095   2.228   6.811   7.833 -1.5511  0.6595 -1.6606
   85SAPS  H20T 8096   2.061   6.774   7.877 -0.9980 -2.8545  1.4484
   85SAPS   C33 8097   2.280   6.219   9.000  0.3339 -0.1224 -0.9256
   85SAPS   H3X 8098   2.332   6.128   8.963 -1.9688 -1.3572 -1.3386
   85SAPS   H3Y 8099   2.322   6.247   9.099  1.2030  0.5776 -1.4819
   85SAPS   C34 8100   2.303   6.346   8.909 -0.8305  0.4260  0.0216
   85SAPS   H4X 8101   2.412   6.367   8.921 -0.7669  0.0074  0.1843
   85SAPS   H4Y 8102   2.247   6.435   8.944  1.0414  2.3345 -1.5406
   85SAPS   C35 8103   2.273   6.320   8.755 -0.6140  0.2690 -0.0287
   85SAPS   H5X 8104   2.304   6.411   8.699 -0.4825  1.1240  1.4028
   85SAPS   H5Y 8105   2.165   6.310   8.731  0.1241 -1.7189 -3.1084
   85SAPS   C36 8106   2.349   6.198   8.696 -0.6762  0.2209 -0.6650
   85SAPS   H6X 8107   2.317   6.108   8.753  2.3782 -1.6086 -1.5671
   85SAPS   H6Y 8108   2.457   6.215   8.715 -1.2762  0.9913  2.7346
   85SAPS   C37 8109   2.307   6.182   8.552 -0.1651 -0.0389  0.0209
   85SAPS   H7X 8110   2.333   6.283   8.514 -0.1290  0.0702  0.3315
   85SAPS   H7Y 8111   2.196   6.171   8.551 -0.2026 -0.0696  1.4639
   85SAPS   C38 8112   2.361   6.058   8.488  0.2532 -0.2574  0.3944
   85SAPS   H8X 8113   2.304   5.977   8.539 -0.9834 -0.4918 -1.2985
   85SAPS   H8Y 8114   2.471   6.047   8.494  0.4714  0.0905 -2.0042
   85SAPS   C39 8115   2.310   6.035   8.345  0.4007 -0.2653 -0.3095
   85SAPS   H9X 8116   2.206   6.073   8.333  0.9933  0.7010 -3.1455
   85SAPS   H9Y 8117   2.293   5.930   8.312  1.8018 -0.3543 -0.8439
   85SAPS  C310 8118   2.391   6.099   8.237 -0.6317  0.1806  0.1372
   85SAPS  H10X 8119   2.491   6.053   8.229  0.5401  2.8482 -2.2408
   85SAPS  H10Y 8120   2.401   6.208   8.255 -1.4114  0.5815 -1.6920
   85SAPS  C311 8121   2.327   6.074   8.096 -0.2882  0.4072  0.2994
   85SAPS  H11X 8122   2.219   6.092   8.111 -0.3095  0.6077 -0.0910
   85SAPS  H11Y 8123   2.353   5.968   8.075  2.8543  1.2631 -0.6628
   85SAPS  C312 8124   2.370   6.171   7.994 -0.3941  0.2255  0.2366
   85SAPS  H12X 8125   2.481   6.178   8.000 -0.5094  1.6574  1.2439
   85SAPS  H12Y 8126   2.339   6.275   8.017  0.6362  0.3994  0.9189
   85SAPS  C313 8127   2.341   6.125   7.852 -0.4307 -0.4507  0.1247
   85SAPS  H13X 8128   2.232   6.133   7.829 -0.4644 -3.0391 -0.9864
   85SAPS  H13Y 8129   2.371   6.018   7.843 -1.2310 -0.9090  2.3116
   85SAPS  C314 8130   2.420   6.201   7.746  0.6664 -0.6270 -0.5172
   85SAPS  H14X 8131   2.529   6.183   7.754  0.6714 -0.7163 -0.7992
   85SAPS  H14Y 8132   2.411   6.312   7.753 -0.5875 -0.7983  2.6917
   85SAPS  C315 8133   2.394   6.142   7.605  0.0780 -1.0269  0.2100
   85SAPS  H15X 8134   2.286   6.159   7.585 -0.2150 -2.3878  0.5207
   85SAPS  H15Y 8135   2.409   6.033   7.587  0.7820 -0.3893 -4.2529
   85SAPS  C316 8136   2.481   6.211   7.496 -0.3387  0.2334  0.2878
   85SAPS  H16X 8137   2.585   6.180   7.517  0.1363 -0.0646 -2.1731
   85SAPS  H16Y 8138   2.473   6.322   7.504 -0.0777  0.1984  1.1848
   85SAPS  C317 8139   2.446   6.150   7.362  0.0307 -0.5609 -0.1415
   85SAPS  H17X 8140   2.342   6.183   7.344  0.7425  1.9733  0.0070
   85SAPS  H17Y 8141   2.441   6.039   7.365 -1.2392 -0.6270 -2.3210
   85SAPS  C318 8142   2.543   6.197   7.256  0.2377 -0.4536 -0.5367
   85SAPS  H18X 8143   2.557   6.306   7.241 -1.5298 -0.4300 -2.3645
   85SAPS  H18Y 8144   2.505   6.143   7.166 -1.6486 -2.5027  1.3662
   85SAPS  H18Z 8145   2.645   6.153   7.268  0.1902 -0.5381 -0.4401
   86SAPS     N 8146   4.897   6.140   9.610 -0.4542 -0.2580  0.0935
   86SAPS   HN1 8147   4.817   6.104   9.554 -1.2097 -0.2776  1.1555
   86SAPS   HN2 8148   4.877   6.237   9.642  1.0689 -0.5073  1.9521
   86SAPS   HN3 8149   4.978   6.166   9.551  1.7350 -0.6311  2.7406
   86SAPS   C12 8150   4.949   6.040   9.708  0.5782 -0.0845  0.3838
   86SAPS  H12A 8151   5.042   6.079   9.747 -1.2846  1.0371  4.1456
   86SAPS   C13 8152   4.860   6.023   9.837 -0.1485 -0.3027  0.6997
   86SAPS  O13A 8153   4.757   6.091   9.852  0.1751  0.2535  0.2204
   86SAPS  O13B 8154   4.900   5.952   9.928  0.0205 -0.0077  0.4972
   86SAPS   C11 8155   4.967   5.899   9.638  0.1842  0.2774 -0.3436
   86SAPS  H11A 8156   4.869   5.846   9.647  0.6364 -0.2421  3.2502
   86SAPS  H11B 8157   5.029   5.837   9.707 -1.3223 -0.3630  0.4958
   86SAPS     P 8158   4.994   5.786   9.415 -0.2415 -0.6966  0.5720
   86SAPS   O13 8159   5.100   5.692   9.430  0.6359  0.5812 -0.7567
   86SAPS   O14 8160   4.855   5.742   9.435 -0.0986 -0.3723  0.5503
   86SAPS   O12 8161   5.030   5.909   9.513  0.2239  0.4205 -0.1994
   86SAPS   O11 8162   5.010   5.861   9.279  0.0807 -1.3841  0.1439
   86SAPS    C1 8163   4.970   5.996   9.271  0.1264 -0.6035  0.2069
   86SAPS    HA 8164   4.898   6.025   9.350  1.0900  0.9149  0.5753
   86SAPS    HB 8165   5.066   6.052   9.281  0.1298  0.0499 -2.6584
   86SAPS    C2 8166   4.901   6.037   9.142 -0.0176  0.0316  0.0272
   86SAPS    HS 8167   4.801   5.989   9.143  0.2537 -0.5584 -0.6550
   86SAPS   O21 8168   4.964   5.991   9.021 -0.4761  0.6384  0.2646
   86SAPS   C21 8169   4.907   6.029   8.910  0.5936  0.4765  0.5550
   86SAPS   O22 8170   4.803   6.087   8.902 -0.2764 -0.1349  0.6286
   86SAPS   C22 8171   4.992   5.995   8.787 -0.0836  0.3450 -0.4427
   86SAPS   H2R 8172   4.949   6.063   8.710 -1.0175  1.7230  1.2254
   86SAPS   H2S 8173   5.099   6.017   8.806 -0.3342  0.5893  0.8125
   86SAPS    C3 8174   4.886   6.192   9.149  0.4232  0.7897  0.5197
   86SAPS    HX 8175   4.863   6.221   9.254 -0.4748 -0.7018  0.7726
   86SAPS    HY 8176   4.791   6.213   9.097  0.0487 -2.1095 -0.1658
   86SAPS   O31 8177   4.990   6.264   9.075 -0.1149  0.5103 -0.5716
   86SAPS   C31 8178   4.979   6.391   9.074  0.3794 -0.2579 -0.0084
   86SAPS   O32 8179   4.893   6.454   9.139  0.6823 -1.0139 -0.0585
   86SAPS   C32 8180   5.091   6.466   8.994  0.8821  0.5774 -0.2236
   86SAPS   H2X 8181   5.184   6.458   9.054  0.0816 -1.4392  0.8332
   86SAPS   H2Y 8182   5.049   6.569   8.993  1.0586  0.6498 -0.2054
   86SAPS   C23 8183   4.972   5.850   8.732 -0.2747 -0.0317 -0.2262
   86SAPS   H3R 8184   4.868   5.838   8.694  0.3198 -1.7030 -1.4785
   86SAPS   H3S 8185   4.992   5.783   8.818 -0.0097 -0.1100 -0.3483
   86SAPS   C24 8186   5.073   5.820   8.627  0.9304 -0.3675  0.8132
   86SAPS   H4R 8187   5.078   5.710   8.612 -2.1999 -0.3422 -1.5608
   86SAPS   H4S 8188   5.169   5.845   8.677  0.4208  1.3504  0.9817
   86SAPS   C25 8189   5.052   5.893   8.495  0.1740  0.1043 -0.0342
   86SAPS   H5R 8190   4.953   5.902   8.449 -0.3572 -3.3189  0.2093
   86SAPS   C26 8191   5.152   5.939   8.423  0.1683  0.2214  0.4120
   86SAPS   H6R 8192   5.132   5.987   8.325  0.7994  0.3633  0.3451
   86SAPS   C27 8193   5.300   5.928   8.447 -0.4843  0.8090 -0.0922
   86SAPS   H7R 8194   5.335   5.846   8.514 -0.3547 -0.4563 -1.6545
   86SAPS   H7S 8195   5.315   6.021   8.506 -1.3237  0.8340  0.0950
   86SAPS   C28 8196   5.403   5.936   8.337  0.3962  0.0148  0.1894
   86SAPS   H8R 8197   5.454   5.843   8.308  0.2269  0.3611 -1.3023
   86SAPS   C29 8198   5.430   6.044   8.262  0.4062  0.0113  0.0819
   86SAPS   H9R 8199   5.509   6.038   8.186 -0.3983 -1.9364 -0.6990
   86SAPS  C210 8200   5.362   6.170   8.263 -0.7746  0.3962  0.5975
   86SAPS  H10R 8201   5.279   6.181   8.336 -0.5968  4.0770  0.4511
   86SAPS  H10S 8202   5.309   6.185   8.167 -2.1459 -2.2866  0.8674
   86SAPS  C211 8203   5.451   6.288   8.295 -0.2656  0.0791  0.2589
   86SAPS  H11R 8204   5.450   6.332   8.396  1.6436 -0.6307  0.6318
   86SAPS  C212 8205   5.531   6.350   8.207 -0.6863 -0.1480 -1.0177
   86SAPS  H12R 8206   5.596   6.426   8.253 -1.2126 -0.2908 -0.0223
   86SAPS  C213 8207   5.545   6.319   8.060 -0.5395  0.8891  0.3063
   86SAPS  H13R 8208   5.490   6.398   8.004 -1.5236 -0.5386 -0.8276
   86SAPS  H13S 8209   5.491   6.226   8.031 -0.2645  1.1998 -1.3313
   86SAPS  C214 8210   5.688   6.300   8.009  0.2364  0.9241 -0.6593
   86SAPS  H14R 8211   5.746   6.241   8.081 -0.2216  1.5952  0.2882
   86SAPS  C215 8212   5.748   6.353   7.906 -0.0987  0.1950  1.5519
   86SAPS  H15R 8213   5.850   6.318   7.883 -0.4033  0.6941 -0.7829
   86SAPS  C216 8214   5.680   6.443   7.806  0.4661  0.3645 -0.0571
   86SAPS  H16R 8215   5.742   6.535   7.801  3.8501 -1.6317  1.8562
   86SAPS  H16S 8216   5.579   6.479   7.834  1.2203  1.5243  1.2908
   86SAPS  C217 8217   5.658   6.387   7.660  0.0687  0.5676 -0.4405
   86SAPS  H17R 8218   5.756   6.356   7.618  0.4825  0.0273  0.8819
   86SAPS  H17S 8219   5.619   6.469   7.596  1.4326  0.2448 -1.7140
   86SAPS  C218 8220   5.550   6.282   7.635 -0.2286 -0.5058  0.2842
   86SAPS  H18R 8221   5.450   6.329   7.638 -0.5552 -0.7579 -3.0608
   86SAPS  H18S 8222   5.559   6.221   7.728  0.3248  1.0458  1.2843
   86SAPS  C219 8223   5.564   6.209   7.504  0.4600  1.1080 -0.3602
   86SAPS  H19R 8224   5.511   6.111   7.508 -0.0326  1.3625  3.4785
   86SAPS  H19S 8225   5.668   6.174   7.489 -0.1891 -1.4187  0.4879
   86SAPS  C220 8226   5.527   6.286   7.380 -0.7795 -0.0933  0.3310
   86SAPS  H20R 8227   5.421   6.318   7.382 -0.3000  1.5502  0.8020
   86SAPS  H20S 8228   5.561   6.223   7.295 -0.1619  0.8236 -0.1147
   86SAPS  H20T 8229   5.595   6.373   7.387 -1.4209  0.4469 -0.0241
   86SAPS   C33 8230   5.103   6.404   8.857 -0.3867 -0.2865 -0.4895
   86SAPS   H3X 8231   5.138   6.300   8.875  0.5731  0.0306 -0.4505
   86SAPS   H3Y 8232   5.181   6.447   8.791  0.5184 -0.2392  0.5907
   86SAPS   C34 8233   4.980   6.393   8.778 -0.3221  0.6201 -0.4739
   86SAPS   H4X 8234   4.930   6.492   8.788  1.3109  1.4517 -0.1710
   86SAPS   H4Y 8235   4.903   6.333   8.831  1.1602 -0.6195  0.3304
   86SAPS   C35 8236   4.994   6.352   8.627  0.0998  0.3522 -0.4288
   86SAPS   H5X 8237   5.055   6.259   8.627  0.3936  0.5319 -1.3695
   86SAPS   H5Y 8238   5.057   6.423   8.571  0.1564  0.3713 -0.3399
   86SAPS   C36 8239   4.862   6.327   8.559  0.7643  0.6320 -0.3322
   86SAPS   H6X 8240   4.815   6.423   8.528  1.6356  1.8896  1.9904
   86SAPS   H6Y 8241   4.792   6.269   8.622  1.3098  1.7303  1.3427
   86SAPS   C37 8242   4.880   6.247   8.429  0.3543  0.0481 -0.8669
   86SAPS   H7X 8243   4.780   6.222   8.386 -0.7079  2.0083  0.2976
   86SAPS   H7Y 8244   4.937   6.155   8.453  1.5308  0.7795 -0.7902
   86SAPS   C38 8245   4.960   6.318   8.312  0.0368 -0.2071  0.2844
   86SAPS   H8X 8246   5.063   6.332   8.350 -0.9342  0.8286  2.7515
   86SAPS   H8Y 8247   4.903   6.411   8.295 -0.9338 -0.0685  3.6005
   86SAPS   C39 8248   4.976   6.228   8.188 -0.2880  0.2042  0.6064
   86SAPS   H9X 8249   4.884   6.186   8.143  0.6025 -1.0872 -0.0739
   86SAPS   H9Y 8250   5.032   6.142   8.231 -0.5084  0.7368  2.0206
   86SAPS  C310 8251   5.064   6.290   8.081 -0.3535  0.1064 -0.0267
   86SAPS  H10X 8252   5.161   6.320   8.125  0.3356 -0.9452 -0.7897
   86SAPS  H10Y 8253   5.017   6.384   8.046  0.4786 -0.0981 -1.7461
   86SAPS  C311 8254   5.096   6.190   7.973 -1.1076  0.3929 -0.1738
   86SAPS  H11X 8255   5.000   6.164   7.924  0.0511 -0.3459 -2.1625
   86SAPS  H11Y 8256   5.136   6.099   8.022  2.6809  2.3545  0.7601
   86SAPS  C312 8257   5.206   6.223   7.864  0.8988  0.6925  0.2266
   86SAPS  H12X 8258   5.211   6.139   7.792  1.8490  0.3546  0.6736
   86SAPS  H12Y 8259   5.308   6.236   7.905  0.7701  1.9055  0.2209
   86SAPS  C313 8260   5.168   6.347   7.792  0.5234  0.4876  0.6100
   86SAPS  H13X 8261   5.261   6.379   7.741  0.2100 -0.9640 -0.9507
   86SAPS  H13Y 8262   5.137   6.421   7.869  1.1079  1.2025  0.1682
   86SAPS  C314 8263   5.060   6.319   7.680  0.0988 -0.2354 -0.4976
   86SAPS  H14X 8264   4.960   6.348   7.718  0.3379  0.8720 -0.6807
   86SAPS  H14Y 8265   5.074   6.215   7.642  3.3680  0.0789 -0.4144
   86SAPS  C315 8266   5.093   6.403   7.554 -0.0003 -0.1478 -0.1958
   86SAPS  H15X 8267   5.195   6.381   7.515  0.0912 -1.2876  0.6394
   86SAPS  H15Y 8268   5.101   6.508   7.589  0.6704 -0.9108  2.1598
   86SAPS  C316 8269   4.991   6.398   7.441 -0.6072 -0.6843 -0.0260
   86SAPS  H16X 8270   4.893   6.420   7.489  0.4046  0.3904  1.6582
   86SAPS  H16Y 8271   4.990   6.295   7.400 -1.1444 -0.5780 -0.2933
   86SAPS  C317 8272   5.027   6.496   7.322  0.2223 -0.4236  0.2626
   86SAPS  H17X 8273   4.970   6.464   7.232 -0.0447  0.1610  0.2132
   86SAPS  H17Y 8274   5.137   6.489   7.311  0.1567  0.0390 -0.9021
   86SAPS  C318 8275   4.999   6.647   7.344  0.0263  1.0178 -0.1095
   86SAPS  H18X 8276   5.038   6.708   7.260 -0.7073  0.6640 -0.7159
   86SAPS  H18Y 8277   5.046   6.687   7.437  2.0413 -2.5161  0.5638
   86SAPS  H18Z 8278   4.891   6.668   7.361 -0.2983 -0.2474 -0.5374
   87SAPS     N 8279   5.377   6.500   9.798 -0.6299 -0.6052  0.3370
   87SAPS   HN1 8280   5.344   6.596   9.823  1.8224  0.7633 -1.2936
   87SAPS   HN2 8281   5.432   6.457   9.875 -1.5829  1.3055  2.2062
   87SAPS   HN3 8282   5.436   6.500   9.713 -0.2780  0.3936  0.5624
   87SAPS   C12 8283   5.267   6.394   9.780 -0.0603  0.5050 -0.6237
   87SAPS  H12A 8284   5.315   6.298   9.778  0.1750  0.2818  4.2012
   87SAPS   C13 8285   5.158   6.386   9.896 -0.0168 -0.5711 -0.2576
   87SAPS  O13A 8286   5.174   6.458   9.999 -0.3688  0.3823 -0.3771
   87SAPS  O13B 8287   5.072   6.296   9.892  0.5235 -0.4006  0.6710
   87SAPS   C11 8288   5.186   6.426   9.655  0.1060 -0.5764  0.2736
   87SAPS  H11A 8289   5.161   6.534   9.652  0.7064 -0.4173  0.7869
   87SAPS  H11B 8290   5.089   6.371   9.660 -0.3015 -0.1807 -2.1050
   87SAPS     P 8291   5.172   6.353   9.401 -0.0284 -0.0127 -0.0112
   87SAPS   O13 8292   5.267   6.302   9.306  0.8232  0.1679 -0.1841
   87SAPS   O14 8293   5.064   6.267   9.432 -0.4076 -0.4479  0.4012
   87SAPS   O12 8294   5.245   6.392   9.533 -0.2216 -0.4880 -0.3140
   87SAPS   O11 8295   5.108   6.497   9.356  0.5660  0.0742 -0.0002
   87SAPS    C1 8296   5.206   6.596   9.320  0.0648 -0.5979  0.6153
   87SAPS    HA 8297   5.299   6.601   9.381  1.8256 -0.8723 -1.9192
   87SAPS    HB 8298   5.250   6.572   9.221  0.3652  0.4301  0.4935
   87SAPS    C2 8299   5.141   6.741   9.330  0.2821  0.2329 -0.3434
   87SAPS    HS 8300   5.115   6.767   9.435  0.9942 -1.9492  0.4291
   87SAPS   O21 8301   5.017   6.756   9.249 -0.8852  0.2188 -0.3511
   87SAPS   C21 8302   4.931   6.834   9.292 -0.4837 -0.1489  0.1597
   87SAPS   O22 8303   4.937   6.916   9.387 -0.0223 -0.1666  0.1796
   87SAPS   C22 8304   4.805   6.836   9.201  0.4605 -0.6489 -0.1539
   87SAPS   H2R 8305   4.772   6.737   9.163 -1.9676 -0.5968  1.5580
   87SAPS   H2S 8306   4.714   6.853   9.263 -0.5089  0.3138 -1.7609
   87SAPS    C3 8307   5.241   6.848   9.277 -0.7445 -0.3373  0.3367
   87SAPS    HX 8308   5.332   6.867   9.339 -1.0063 -0.1685  0.6777
   87SAPS    HY 8309   5.191   6.947   9.283  0.7468  0.3717  3.0475
   87SAPS   O31 8310   5.279   6.819   9.143  0.8285  0.2727  0.5503
   87SAPS   C31 8311   5.297   6.919   9.057  0.2332  0.0269 -0.8128
   87SAPS   O32 8312   5.287   7.033   9.092 -0.2175 -0.4868 -0.3346
   87SAPS   C32 8313   5.348   6.868   8.930 -0.2820 -0.2529 -0.0508
   87SAPS   H2X 8314   5.393   6.766   8.931  1.8360  0.6106 -1.1914
   87SAPS   H2Y 8315   5.421   6.937   8.883  0.9749 -0.0533  2.0733
   87SAPS   C23 8316   4.801   6.947   9.097 -0.2785  0.6422 -0.4936
   87SAPS   H3R 8317   4.832   7.040   9.150  3.0047 -1.0028  0.7213
   87SAPS   H3S 8318   4.693   6.954   9.072 -0.8037 -1.5633  0.8725
   87SAPS   C24 8319   4.886   6.921   8.972 -0.2061 -0.0638 -0.3901
   87SAPS   H4R 8320   4.988   6.919   9.017 -1.0236  1.5415  1.7425
   87SAPS   H4S 8321   4.880   7.007   8.902  0.6468  0.4809  0.1779
   87SAPS   C25 8322   4.858   6.792   8.893  0.1988 -0.5997 -0.0822
   87SAPS   H5R 8323   4.858   6.700   8.953 -1.7587 -0.4481  0.2286
   87SAPS   C26 8324   4.823   6.786   8.758  0.3915 -0.0921 -0.2495
   87SAPS   H6R 8325   4.797   6.691   8.709 -0.4058 -0.3257  0.5908
   87SAPS   C27 8326   4.798   6.897   8.655 -0.3434 -0.9437 -0.0335
   87SAPS   H7R 8327   4.729   6.971   8.699  1.0840  0.2643  0.2520
   87SAPS   H7S 8328   4.745   6.859   8.565 -0.8445 -0.7457  0.1719
   87SAPS   C28 8329   4.925   6.974   8.605  0.4135 -0.0154  0.1648
   87SAPS   H8R 8330   4.975   7.030   8.686  0.8474 -0.8473  0.4839
   87SAPS   C29 8331   4.986   6.980   8.480 -0.0462 -0.3795 -0.4732
   87SAPS   H9R 8332   5.082   7.033   8.465 -0.0419 -0.0078  0.7479
   87SAPS  C210 8333   4.932   6.912   8.353  0.5959  0.5518 -0.4395
   87SAPS  H10R 8334   4.941   6.980   8.265 -1.9335  0.9412 -0.4840
   87SAPS  H10S 8335   4.823   6.897   8.366  0.6407  1.9491  2.4525
   87SAPS  C211 8336   4.999   6.781   8.342 -0.6306  0.2488  0.5818
   87SAPS  H11R 8337   4.984   6.717   8.430  2.2748  0.8844  1.6764
   87SAPS  C212 8338   5.078   6.738   8.245 -0.8300  0.4688  0.6251
   87SAPS  H12R 8339   5.105   6.631   8.252 -2.1597  0.1315  0.9210
   87SAPS  C213 8340   5.131   6.810   8.117 -0.3787 -0.7013 -0.0502
   87SAPS  H13R 8341   5.231   6.857   8.124 -0.5926 -0.1820 -0.3907
   87SAPS  H13S 8342   5.070   6.899   8.089  0.7326  0.1261  0.0681
   87SAPS  C214 8343   5.133   6.706   8.004 -0.3909  0.1074  0.0414
   87SAPS  H14R 8344   5.192   6.614   8.016 -3.4146 -2.3400 -2.0902
   87SAPS  C215 8345   5.049   6.708   7.901 -1.1885 -0.4433  0.0560
   87SAPS  H15R 8346   5.057   6.632   7.822  2.9103 -0.6361  0.4634
   87SAPS  C216 8347   4.937   6.800   7.878  0.1976  0.1030 -0.0875
   87SAPS  H16R 8348   4.898   6.795   7.774  0.0425  0.3696 -0.0437
   87SAPS  H16S 8349   4.982   6.902   7.880 -2.9480  1.6097 -0.5219
   87SAPS  C217 8350   4.810   6.807   7.960 -0.5279  0.0131  1.1250
   87SAPS  H17R 8351   4.832   6.813   8.068  2.3603 -0.0442  0.6095
   87SAPS  H17S 8352   4.748   6.721   7.927  2.1337 -1.2938 -0.8537
   87SAPS  C218 8353   4.731   6.937   7.925 -0.9572 -0.3784 -0.1517
   87SAPS  H18R 8354   4.677   6.921   7.829 -0.8079 -0.9194 -0.1447
   87SAPS  H18S 8355   4.798   7.027   7.925 -0.0367 -1.0467  0.1347
   87SAPS  C219 8356   4.616   6.950   8.036 -0.0182 -0.2484 -0.1116
   87SAPS  H19R 8357   4.658   6.947   8.139 -2.9006  0.1627  1.1779
   87SAPS  H19S 8358   4.563   6.853   8.022 -0.3712  0.0595 -0.9699
   87SAPS  C220 8359   4.533   7.068   8.026  0.5591  0.0449 -0.4617
   87SAPS  H20R 8360   4.588   7.165   8.033 -1.4120  1.2235 -0.2950
   87SAPS  H20S 8361   4.462   7.079   8.112  2.0074 -0.3245  0.8295
   87SAPS  H20T 8362   4.472   7.073   7.934 -1.0953  0.1202  0.5952
   87SAPS   C33 8363   5.225   6.853   8.840  0.1697  0.1999  1.0888
   87SAPS   H3X 8364   5.161   6.944   8.837 -2.9445 -1.8255 -1.7414
   87SAPS   H3Y 8365   5.162   6.771   8.881 -1.3814 -0.2675 -1.9143
   87SAPS   C34 8366   5.245   6.813   8.690 -0.7987  0.1138 -0.3397
   87SAPS   H4X 8367   5.277   6.902   8.631 -0.8499  0.2275 -0.1947
   87SAPS   H4Y 8368   5.160   6.764   8.638 -1.6279  0.3359  0.7796
   87SAPS   C35 8369   5.355   6.715   8.671  0.0172 -0.1826 -0.5767
   87SAPS   H5X 8370   5.328   6.628   8.736 -0.9564  1.0466  0.7287
   87SAPS   H5Y 8371   5.446   6.763   8.714 -0.7753  2.6572 -1.8936
   87SAPS   C36 8372   5.378   6.663   8.528  0.0356  0.0140  0.6981
   87SAPS   H6X 8373   5.282   6.615   8.498  1.9497 -4.9880  1.4806
   87SAPS   H6Y 8374   5.446   6.576   8.544 -0.4752 -0.1212  2.2442
   87SAPS   C37 8375   5.431   6.773   8.427 -0.2385  0.6003  0.1465
   87SAPS   H7X 8376   5.518   6.827   8.473 -0.9987  3.3280 -1.3890
   87SAPS   H7Y 8377   5.346   6.843   8.418 -0.0566  1.1102  1.8996
   87SAPS   C38 8378   5.472   6.712   8.294 -0.0239 -0.1157  0.5929
   87SAPS   H8X 8379   5.392   6.651   8.247  0.2102  1.0909 -1.5016
   87SAPS   H8Y 8380   5.553   6.637   8.309 -0.7063 -0.9729  0.0700
   87SAPS   C39 8381   5.513   6.832   8.199 -0.2202  0.1320  0.3782
   87SAPS   H9X 8382   5.579   6.890   8.268  0.8685 -2.5418  1.7472
   87SAPS   H9Y 8383   5.417   6.886   8.184  0.3802  0.7322 -1.6279
   87SAPS  C310 8384   5.565   6.796   8.054  0.1020  0.7978 -0.3846
   87SAPS  H10X 8385   5.489   6.739   7.996 -0.7625 -0.6792  2.0547
   87SAPS  H10Y 8386   5.659   6.738   8.067  0.1589  0.6627 -1.3252
   87SAPS  C311 8387   5.605   6.930   7.984  0.0930 -0.5326  0.5598
   87SAPS  H11X 8388   5.695   6.984   8.020  1.3047  0.7997 -3.9139
   87SAPS  H11Y 8389   5.522   7.004   7.978  1.1426  0.7413  1.1472
   87SAPS  C312 8390   5.634   6.892   7.842 -0.4385  0.3669 -0.2950
   87SAPS  H12X 8391   5.559   6.819   7.805  0.6383 -0.6579 -0.5271
   87SAPS  H12Y 8392   5.725   6.830   7.857 -1.2812 -0.4758  1.6371
   87SAPS  C313 8393   5.652   6.997   7.735  0.0955  0.2711  0.4475
   87SAPS  H13X 8394   5.706   7.085   7.776 -2.6038  2.4808 -0.4563
   87SAPS  H13Y 8395   5.552   7.045   7.732  0.7625  1.8239  1.5279
   87SAPS  C314 8396   5.698   6.957   7.596  0.3500 -0.0672  0.1811
   87SAPS  H14X 8397   5.629   6.876   7.563 -0.4770  0.5978  0.2509
   87SAPS  H14Y 8398   5.799   6.910   7.596 -0.4079 -1.7720 -0.7339
   87SAPS  C315 8399   5.706   7.081   7.508  0.0104  0.7257 -0.2993
   87SAPS  H15X 8400   5.767   7.156   7.562  1.4251 -0.9861  0.6060
   87SAPS  H15Y 8401   5.604   7.119   7.485  0.1184  1.9968  1.1685
   87SAPS  C316 8402   5.766   7.049   7.363 -0.2545 -0.0619 -0.5863
   87SAPS  H16X 8403   5.726   6.949   7.333 -1.9541  0.6552 -0.8248
   87SAPS  H16Y 8404   5.876   7.039   7.375 -0.4439 -1.0627  0.6191
   87SAPS  C317 8405   5.737   7.164   7.265  0.5678 -0.0519 -0.0542
   87SAPS  H17X 8406   5.828   7.227   7.279  1.8770 -2.1482  1.5976
   87SAPS  H17Y 8407   5.655   7.234   7.291  0.5965 -0.1169  0.2166
   87SAPS  C318 8408   5.714   7.127   7.124  0.3789 -0.4183  1.0256
   87SAPS  H18X 8409   5.789   7.052   7.091  2.8967  1.0518  2.9823
   87SAPS  H18Y 8410   5.722   7.216   7.058 -3.7842 -1.2285 -0.8760
   87SAPS  H18Z 8411   5.613   7.084   7.105 -0.3791  1.7654 -0.2740
   88SAPS     N 8412   7.182   2.166   9.805  0.0898  0.4248  0.3516
   88SAPS   HN1 8413   7.151   2.097   9.733  0.0992 -0.5177  1.2158
   88SAPS   HN2 8414   7.275   2.205   9.781 -1.0873  1.8391 -2.3236
   88SAPS   HN3 8415   7.189   2.120   9.898 -2.2190 -1.6882 -0.3842
   88SAPS   C12 8416   7.080   2.268   9.821 -0.3228  0.9675 -0.0978
   88SAPS  H12A 8417   7.042   2.297   9.724 -1.3692  0.2737  0.0798
   88SAPS   C13 8418   6.953   2.230   9.903 -0.0935 -0.9480 -0.3073
   88SAPS  O13A 8419   6.935   2.108   9.923  0.2002  0.4258  0.1737
   88SAPS  O13B 8420   6.866   2.320   9.920  0.5415  0.1691  0.0820
   88SAPS   C11 8421   7.144   2.400   9.886 -0.6852  0.1123  0.4551
   88SAPS  H11A 8422   7.184   2.364   9.983 -0.6524 -2.9568 -0.5690
   88SAPS  H11B 8423   7.070   2.477   9.916 -0.6511  0.5963 -0.6390
   88SAPS     P 8424   7.284   2.605   9.793  0.0163 -0.1814  0.1790
   88SAPS   O13 8425   7.302   2.654   9.932  0.3593  0.5488  0.1603
   88SAPS   O14 8426   7.404   2.617   9.706  0.2679  0.4185 -0.8552
   88SAPS   O12 8427   7.248   2.452   9.797 -0.1932  0.7623 -0.4435
   88SAPS   O11 8428   7.160   2.678   9.728  0.2428  0.3468  0.8716
   88SAPS    C1 8429   7.156   2.701   9.582 -0.0008 -0.3995 -0.4875
   88SAPS    HA 8430   7.256   2.710   9.535 -0.1027  1.2971 -0.4425
   88SAPS    HB 8431   7.105   2.618   9.529  1.5594 -0.7030 -1.6069
   88SAPS    C2 8432   7.076   2.830   9.569 -0.5826 -0.3319 -0.0778
   88SAPS    HS 8433   6.982   2.835   9.628 -0.2125  1.6520  0.4346
   88SAPS   O21 8434   7.047   2.834   9.432 -0.0379 -0.3509  0.9485
   88SAPS   C21 8435   6.962   2.930   9.385 -0.1449  0.2352 -0.2993
   88SAPS   O22 8436   6.893   2.996   9.457 -0.3001 -0.5264 -0.2526
   88SAPS   C22 8437   6.959   2.938   9.235  0.0985 -0.1201 -0.4341
   88SAPS   H2R 8438   7.064   2.963   9.207  0.2943  0.8939  1.0321
   88SAPS   H2S 8439   6.943   2.834   9.199  3.4875 -1.4497  1.4298
   88SAPS    C3 8440   7.156   2.957   9.625 -0.4221  0.3718  0.1847
   88SAPS    HX 8441   7.185   2.939   9.731  2.3686  0.9631 -0.3996
   88SAPS    HY 8442   7.069   3.025   9.622 -2.3040 -1.9455 -1.0560
   88SAPS   O31 8443   7.280   2.984   9.550  0.1287 -0.4731 -0.0401
   88SAPS   C31 8444   7.282   3.112   9.499 -0.8351  0.1165  0.4967
   88SAPS   O32 8445   7.206   3.199   9.528  0.5250  0.0702  0.3801
   88SAPS   C32 8446   7.401   3.126   9.403 -0.4737  0.2523  0.3992
   88SAPS   H2X 8447   7.437   3.025   9.377 -0.6428 -0.1743  1.7554
   88SAPS   H2Y 8448   7.482   3.183   9.454  2.3055 -2.3804 -0.8161
   88SAPS   C23 8449   6.866   3.038   9.168  0.1648  0.0796 -0.1393
   88SAPS   H3R 8450   6.916   3.137   9.181  0.6222 -0.2919  1.0647
   88SAPS   H3S 8451   6.760   3.041   9.202  0.2496 -0.4213  0.1737
   88SAPS   C24 8452   6.871   3.015   9.016  0.3425 -0.3016  0.1213
   88SAPS   H4R 8453   6.977   2.996   8.990  1.0606  1.1106  1.8047
   88SAPS   H4S 8454   6.836   3.103   8.958 -0.2135  0.3611  1.4159
   88SAPS   C25 8455   6.782   2.894   8.985 -0.0556 -0.1096 -0.0164
   88SAPS   H5R 8456   6.728   2.853   9.072  0.3287 -0.1984  0.1852
   88SAPS   C26 8457   6.767   2.840   8.865 -0.3580  0.4756 -0.3827
   88SAPS   H6R 8458   6.699   2.754   8.852 -2.5678  1.7897  1.5576
   88SAPS   C27 8459   6.823   2.880   8.728 -0.1771 -0.7621 -0.5371
   88SAPS   H7R 8460   6.831   2.789   8.664 -0.7019 -1.5142  0.4379
   88SAPS   H7S 8461   6.926   2.922   8.738 -0.2225 -0.7682 -0.0082
   88SAPS   C28 8462   6.742   2.991   8.659  0.0173  0.2082  0.6886
   88SAPS   H8R 8463   6.663   3.042   8.715  1.2713 -0.2069  2.9582
   88SAPS   C29 8464   6.771   3.031   8.531  0.3417 -0.2211 -0.5071
   88SAPS   H9R 8465   6.709   3.112   8.488 -0.0834 -0.0545  0.3899
   88SAPS  C210 8466   6.886   2.977   8.454  0.1994 -0.8974  0.0133
   88SAPS  H10R 8467   6.853   2.895   8.387 -1.2306 -0.9873  0.7917
   88SAPS  H10S 8468   6.967   2.937   8.520  1.8584 -1.3903 -2.1976
   88SAPS  C211 8469   6.955   3.085   8.379 -0.3722  0.4816 -0.1730
   88SAPS  H11R 8470   7.030   3.145   8.433 -0.5965  2.1126 -1.5939
   88SAPS  C212 8471   6.935   3.125   8.249 -0.1989  0.2094 -0.0623
   88SAPS  H12R 8472   6.995   3.211   8.215 -0.3259 -0.5048 -2.2437
   88SAPS  C213 8473   6.829   3.080   8.146  0.0041  0.7057  0.2392
   88SAPS  H13R 8474   6.770   2.995   8.186 -0.4191  0.8041 -0.1786
   88SAPS  H13S 8475   6.882   3.057   8.051 -1.5307 -0.0004 -0.4774
   88SAPS  C214 8476   6.733   3.191   8.118 -0.1022 -0.3679 -0.1710
   88SAPS  H14R 8477   6.636   3.187   8.170  0.2010 -0.9425  0.3700
   88SAPS  C215 8478   6.754   3.292   8.029  0.3074 -0.1513 -0.2974
   88SAPS  H15R 8479   6.672   3.365   8.022  0.0471 -0.5928 -2.4670
   88SAPS  C216 8480   6.871   3.320   7.940  0.3346  1.0076 -0.3235
   88SAPS  H16R 8481   6.951   3.247   7.962 -0.5880  0.8030  2.8234
   88SAPS  H16S 8482   6.901   3.424   7.964 -0.2568  0.8998  0.9244
   88SAPS  C217 8483   6.843   3.307   7.785 -0.4069  0.2003 -0.3553
   88SAPS  H17R 8484   6.932   3.354   7.738 -0.0236 -1.9629 -1.9360
   88SAPS  H17S 8485   6.753   3.368   7.763  1.3833  2.3176 -2.3988
   88SAPS  C218 8486   6.838   3.157   7.749  0.2404  0.3563 -0.2691
   88SAPS  H18R 8487   6.741   3.130   7.796  0.1412 -0.1470 -0.7533
   88SAPS  H18S 8488   6.922   3.103   7.798  1.3932 -0.0981 -2.5847
   88SAPS  C219 8489   6.847   3.127   7.596  1.0679  0.2484 -1.1699
   88SAPS  H19R 8490   6.955   3.143   7.575  1.7202 -1.1560  0.7879
   88SAPS  H19S 8491   6.784   3.198   7.539  1.2434 -0.5409 -2.3912
   88SAPS  C220 8492   6.809   2.985   7.546 -0.5909 -0.6148 -0.3097
   88SAPS  H20R 8493   6.854   2.966   7.447 -2.7119  0.8250 -1.6270
   88SAPS  H20S 8494   6.698   2.976   7.544 -0.4719 -2.4865 -0.8261
   88SAPS  H20T 8495   6.846   2.902   7.610  1.6340 -0.6922 -1.5937
   88SAPS   C33 8496   7.366   3.198   9.282  0.2997 -0.4635  0.0443
   88SAPS   H3X 8497   7.312   3.293   9.302 -0.6564 -1.1704  0.8784
   88SAPS   H3Y 8498   7.308   3.133   9.213  0.2765 -0.8847  0.4580
   88SAPS   C34 8499   7.488   3.257   9.216 -0.3552 -0.5247  0.1612
   88SAPS   H4X 8500   7.561   3.178   9.187 -0.6724 -1.7782  2.5398
   88SAPS   H4Y 8501   7.542   3.322   9.288 -1.6382  0.3635  0.3607
   88SAPS   C35 8502   7.458   3.325   9.083 -0.2987 -0.0027  0.0471
   88SAPS   H5X 8503   7.556   3.360   9.047  0.4074 -1.3448  0.5938
   88SAPS   H5Y 8504   7.394   3.414   9.100 -0.6925 -0.3036  0.1601
   88SAPS   C36 8505   7.400   3.238   8.975 -0.5759  0.4599 -0.3788
   88SAPS   H6X 8506   7.307   3.202   9.025  0.5909 -0.6034  1.0840
   88SAPS   H6Y 8507   7.452   3.144   8.945  4.0366  2.3461  0.8682
   88SAPS   C37 8508   7.374   3.322   8.848 -0.6394 -0.3990 -0.0059
   88SAPS   H7X 8509   7.470   3.372   8.824 -1.8748  2.6739  0.9132
   88SAPS   H7Y 8510   7.316   3.415   8.868  1.0694  0.8576 -0.6372
   88SAPS   C38 8511   7.318   3.240   8.722  0.0946 -0.3373 -0.6175
   88SAPS   H8X 8512   7.223   3.186   8.741  0.4025 -0.5064  0.5412
   88SAPS   H8Y 8513   7.397   3.163   8.707  0.9262  0.2702  0.5446
   88SAPS   C39 8514   7.313   3.334   8.594  0.6161  0.1328 -0.0559
   88SAPS   H9X 8515   7.307   3.440   8.624  1.3816  0.7215 -1.8501
   88SAPS   H9Y 8516   7.233   3.301   8.525  0.5896 -1.1447  0.5556
   88SAPS  C310 8517   7.439   3.312   8.514 -0.6276 -0.2010  0.9396
   88SAPS  H10X 8518   7.455   3.203   8.498 -1.8024 -0.0950 -1.4717
   88SAPS  H10Y 8519   7.519   3.351   8.580 -0.7863  1.3295  0.2680
   88SAPS  C311 8520   7.422   3.369   8.369 -0.2213 -0.5036 -0.0060
   88SAPS  H11X 8521   7.508   3.413   8.314 -0.6138 -1.3880 -1.3763
   88SAPS  H11Y 8522   7.362   3.461   8.384  0.2585 -0.2339  0.2991
   88SAPS  C312 8523   7.352   3.273   8.270 -0.3202  0.3763 -0.5353
   88SAPS  H12X 8524   7.271   3.230   8.333  0.6794  1.8821  1.9190
   88SAPS  H12Y 8525   7.431   3.200   8.241  0.0443  0.3835  0.4141
   88SAPS  C313 8526   7.291   3.341   8.144  0.1251  0.5954 -0.4072
   88SAPS  H13X 8527   7.363   3.422   8.121  0.1675  0.4182 -0.9102
   88SAPS  H13Y 8528   7.193   3.389   8.164  0.4756  0.8544  0.7861
   88SAPS  C314 8529   7.285   3.253   8.014  0.1410 -0.0672  0.5680
   88SAPS  H14X 8530   7.217   3.166   8.021  1.5055 -1.3091 -0.9432
   88SAPS  H14Y 8531   7.388   3.216   7.996  0.1704  0.1577  0.2493
   88SAPS  C315 8532   7.250   3.345   7.896 -0.0885  0.2525 -0.5542
   88SAPS  H15X 8533   7.337   3.413   7.885 -0.7392  2.3291  4.4107
   88SAPS  H15Y 8534   7.155   3.400   7.912 -0.0450  1.0065 -2.6202
   88SAPS  C316 8535   7.231   3.271   7.765  0.3778 -0.0859  0.4284
   88SAPS  H16X 8536   7.154   3.198   7.797  1.7195 -1.9065 -0.3553
   88SAPS  H16Y 8537   7.327   3.220   7.741  0.5895 -0.2265  1.5121
   88SAPS  C317 8538   7.182   3.358   7.645 -0.0853 -0.4026 -0.2121
   88SAPS  H17X 8539   7.116   3.437   7.686  1.8804  2.3132 -1.9617
   88SAPS  H17Y 8540   7.131   3.290   7.573  0.9325 -3.5212  1.7778
   88SAPS  C318 8541   7.303   3.428   7.578 -0.0280 -0.4706 -0.3327
   88SAPS  H18X 8542   7.272   3.463   7.478 -3.0325  0.2937  0.7687
   88SAPS  H18Y 8543   7.401   3.375   7.569 -0.1704 -0.8328  0.1980
   88SAPS  H18Z 8544   7.328   3.516   7.641 -3.9377  1.1448 -0.8162
   89SAPS     N 8545   5.932   0.732   9.826  0.2924 -0.5120  0.0164
   89SAPS   HN1 8546   5.830   0.709   9.823 -0.1346  0.8444  1.9778
   89SAPS   HN2 8547   5.931   0.823   9.876 -3.3916 -0.2182 -0.2888
   89SAPS   HN3 8548   5.977   0.739   9.733 -1.4402  0.1590 -0.8163
   89SAPS   C12 8549   5.999   0.634   9.909 -0.1508  0.4547  0.7951
   89SAPS  H12A 8550   6.103   0.662   9.912  0.4461 -1.4417 -0.1101
   89SAPS   C13 8551   5.949   0.649  10.052 -0.5466  0.4647  0.5056
   89SAPS  O13A 8552   5.903   0.762  10.090  0.5993  0.0357  0.0632
   89SAPS  O13B 8553   5.964   0.547  10.125 -0.7796  0.3301 -0.1184
   89SAPS   C11 8554   5.975   0.488   9.855  0.2918 -0.2824 -0.8089
   89SAPS  H11A 8555   5.874   0.450   9.884  0.2331  0.3216 -0.1692
   89SAPS  H11B 8556   6.050   0.429   9.912  2.3873  1.2694 -1.8216
   89SAPS     P 8557   6.088   0.411   9.639  0.0278  0.0500 -0.3241
   89SAPS   O13 8558   6.220   0.456   9.677 -0.3284 -0.5257  0.4149
   89SAPS   O14 8559   6.068   0.264   9.648 -0.4458 -0.1717  0.0154
   89SAPS   O12 8560   5.975   0.490   9.714 -0.4394  0.1008 -0.2715
   89SAPS   O11 8561   6.069   0.437   9.484  0.9914  0.1624 -0.1786
   89SAPS    C1 8562   5.934   0.441   9.425 -0.2222 -0.0667 -0.4923
   89SAPS    HA 8563   5.872   0.374   9.486  0.0398  2.4009  2.7452
   89SAPS    HB 8564   5.892   0.543   9.440  0.3583  0.1494 -0.2894
   89SAPS    C2 8565   5.937   0.403   9.280 -0.0922  0.3741 -0.2518
   89SAPS    HS 8566   5.998   0.310   9.270 -1.6803 -0.7281 -0.0195
   89SAPS   O21 8567   5.996   0.513   9.202 -0.1510  0.3650  0.5360
   89SAPS   C21 8568   6.049   0.472   9.082  0.0713  0.1253 -0.2689
   89SAPS   O22 8569   6.074   0.359   9.050 -0.1028  0.3048 -0.2779
   89SAPS   C22 8570   6.089   0.594   8.995  0.3583 -0.5643  0.4311
   89SAPS   H2R 8571   5.995   0.640   8.958  0.8540  0.2526  0.1682
   89SAPS   H2S 8572   6.141   0.663   9.065  0.7532 -0.7392  0.3158
   89SAPS    C3 8573   5.799   0.381   9.228  0.8615  0.3767 -0.3841
   89SAPS    HX 8574   5.744   0.478   9.221  2.3127  1.2185 -0.4892
   89SAPS    HY 8575   5.739   0.327   9.304 -1.4831  2.9744 -0.1871
   89SAPS   O31 8576   5.791   0.315   9.100  0.0357  0.4796  0.1797
   89SAPS   C31 8577   5.821   0.183   9.097 -0.5805  0.6756 -0.2336
   89SAPS   O32 8578   5.831   0.111   9.197  0.0399 -0.1512 -0.2681
   89SAPS   C32 8579   5.832   0.133   8.954 -0.5234  0.9321  0.0779
   89SAPS   H2X 8580   5.912   0.055   8.954  0.2874  1.7440 -0.1231
   89SAPS   H2Y 8581   5.855   0.216   8.883 -1.0918  0.2718 -0.8996
   89SAPS   C23 8582   6.184   0.561   8.879  0.2079 -0.1245 -0.1955
   89SAPS   H3R 8583   6.140   0.473   8.827 -1.0938  0.8338 -0.7729
   89SAPS   H3S 8584   6.280   0.529   8.926  0.1186 -2.6647 -1.5699
   89SAPS   C24 8585   6.204   0.656   8.762 -0.1388  0.5895  0.3065
   89SAPS   H4R 8586   6.273   0.613   8.687  0.2684  0.4403  0.7637
   89SAPS   H4S 8587   6.260   0.745   8.795  0.8218 -0.0409  0.4211
   89SAPS   C25 8588   6.069   0.696   8.695 -0.3074 -0.2403 -0.9014
   89SAPS   H5R 8589   5.994   0.746   8.757  0.6554  1.1545 -0.8327
   89SAPS   C26 8590   6.042   0.677   8.563 -0.5399  0.2072  0.5165
   89SAPS   H6R 8591   5.953   0.729   8.526 -3.0809 -1.9462  3.1561
   89SAPS   C27 8592   6.123   0.610   8.454  0.4667  0.4920  0.0519
   89SAPS   H7R 8593   6.230   0.640   8.449  0.9503 -0.6703  2.1869
   89SAPS   H7S 8594   6.067   0.649   8.367 -2.7711  0.8624  2.1318
   89SAPS   C28 8595   6.108   0.460   8.472 -1.0211 -0.2788  0.0416
   89SAPS   H8R 8596   6.119   0.415   8.571  0.5958 -0.4209 -0.1841
   89SAPS   C29 8597   6.056   0.381   8.375 -0.1326  0.5989  0.4158
   89SAPS   H9R 8598   6.022   0.281   8.405 -0.8879  1.5637  3.0996
   89SAPS  C210 8599   6.003   0.422   8.242 -0.0487 -0.0788 -0.6651
   89SAPS  H10R 8600   5.933   0.506   8.264  1.0286  0.3208  1.5103
   89SAPS  H10S 8601   5.947   0.341   8.191  0.2023 -0.6474 -0.0502
   89SAPS  C211 8602   6.114   0.473   8.148 -0.5567  0.0664  0.4417
   89SAPS  H11R 8603   6.220   0.478   8.179 -0.5277  1.4946  0.1754
   89SAPS  C212 8604   6.098   0.505   8.018  0.4790  0.4056 -0.4457
   89SAPS  H12R 8605   6.189   0.535   7.964  0.9661 -2.1588 -1.1750
   89SAPS  C213 8606   5.957   0.520   7.953 -0.0729  0.0950  0.0577
   89SAPS  H13R 8607   5.877   0.475   8.015  0.5522  3.1118  3.4086
   89SAPS  H13S 8608   5.948   0.481   7.849 -0.1130  1.0911 -0.3225
   89SAPS  C214 8609   5.911   0.661   7.946  0.6169  0.2860  0.3841
   89SAPS  H14R 8610   5.853   0.686   8.036  3.1194 -1.6942  2.7044
   89SAPS  C215 8611   5.920   0.750   7.837 -0.4788  0.4814 -0.1050
   89SAPS  H15R 8612   5.869   0.847   7.848  2.2355  1.8214  1.8900
   89SAPS  C216 8613   5.979   0.719   7.702 -0.3456  0.2514 -0.6525
   89SAPS  H16R 8614   5.916   0.634   7.667  1.0219 -0.8273 -0.5678
   89SAPS  H16S 8615   6.079   0.670   7.706  0.5863  2.0872 -0.2467
   89SAPS  C217 8616   5.985   0.830   7.598  0.8647  0.6106 -0.8139
   89SAPS  H17R 8617   5.882   0.869   7.583 -0.1412 -1.6625 -0.2334
   89SAPS  H17S 8618   6.010   0.778   7.503  0.4598  2.4446 -1.9880
   89SAPS  C218 8619   6.081   0.946   7.612 -0.7785 -0.2050  0.4972
   89SAPS  H18R 8620   6.177   0.912   7.658 -0.1222 -0.6423 -1.1405
   89SAPS  H18S 8621   6.038   1.023   7.679 -0.3241  1.6531 -1.2652
   89SAPS  C219 8622   6.103   1.022   7.475  1.1375 -0.6876  0.6375
   89SAPS  H19R 8623   6.008   1.035   7.418  2.3197  0.1817 -1.2636
   89SAPS  H19S 8624   6.171   0.963   7.410 -0.4539  0.3066 -2.1152
   89SAPS  C220 8625   6.155   1.165   7.482 -0.2857 -0.6539  0.6723
   89SAPS  H20R 8626   6.169   1.210   7.382 -0.9857 -0.8762  0.4689
   89SAPS  H20S 8627   6.256   1.164   7.530 -0.5146 -3.6558  1.2994
   89SAPS  H20T 8628   6.088   1.233   7.538 -0.2611  1.0946 -1.3180
   89SAPS   C33 8629   5.701   0.077   8.905 -0.1040 -0.5194 -0.1811
   89SAPS   H3X 8630   5.626   0.158   8.889  0.7744  0.2220 -0.6082
   89SAPS   H3Y 8631   5.665   0.003   8.980  1.2381 -0.4255  0.5873
   89SAPS   C34 8632   5.710  -0.002   8.772 -0.7227 -0.2211 -0.0264
   89SAPS   H4X 8633   5.611  -0.035   8.734 -0.9545 -1.5365  1.6219
   89SAPS   H4Y 8634   5.770  -0.093   8.794  0.7303  0.9986  1.3474
   89SAPS   C35 8635   5.770   0.078   8.650 -0.1215 -0.3274 -0.2823
   89SAPS   H5X 8636   5.869   0.122   8.673  0.3323 -1.6879  0.4882
   89SAPS   H5Y 8637   5.709   0.166   8.622  0.8324  0.3929 -0.1152
   89SAPS   C36 8638   5.783  -0.013   8.530 -0.2252 -0.7691  0.2030
   89SAPS   H6X 8639   5.688  -0.023   8.472  0.6689 -2.4074 -1.0696
   89SAPS   H6Y 8640   5.810  -0.119   8.551 -0.5164 -1.4351 -2.4373
   89SAPS   C37 8641   5.879   0.050   8.428  0.6214 -0.8266 -0.0204
   89SAPS   H7X 8642   5.978   0.060   8.479  0.3822 -0.9278  0.4753
   89SAPS   H7Y 8643   5.839   0.147   8.393  2.2712 -0.3306 -0.6153
   89SAPS   C38 8644   5.911  -0.040   8.309  0.9804  0.3072  0.0651
   89SAPS   H8X 8645   5.811  -0.070   8.272  0.3775  0.1594  1.7267
   89SAPS   H8Y 8646   5.961  -0.132   8.346 -0.1171 -0.0488  0.7129
   89SAPS   C39 8647   5.984   0.031   8.197 -0.2556  0.2460 -0.8234
   89SAPS   H9X 8648   6.085   0.049   8.239 -0.2324 -3.2452  0.9577
   89SAPS   H9Y 8649   5.920   0.120   8.178  0.3320  0.9318  0.3566
   89SAPS  C310 8650   5.987  -0.061   8.071 -0.6181  0.0626  0.1148
   89SAPS  H10X 8651   5.882  -0.082   8.041 -0.8092  0.1713  0.6890
   89SAPS  H10Y 8652   6.039  -0.153   8.104 -0.7054  0.8529  2.7312
   89SAPS  C311 8653   6.069  -0.008   7.948  0.4500  0.0136  0.3846
   89SAPS  H11X 8654   6.176  -0.012   7.976  0.0663 -0.4678  1.9046
   89SAPS  H11Y 8655   6.040   0.097   7.929 -0.1011 -0.8622 -5.2442
   89SAPS  C312 8656   6.039  -0.084   7.822 -0.2185 -0.1620 -0.3528
   89SAPS  H12X 8657   6.096  -0.021   7.750 -1.8357 -0.3554 -1.8911
   89SAPS  H12Y 8658   5.931  -0.081   7.794  0.2746  0.7336 -2.3383
   89SAPS  C313 8659   6.070  -0.230   7.830  0.1119  0.2444  0.5366
   89SAPS  H13X 8660   6.032  -0.275   7.736 -2.1372 -1.5262  2.1814
   89SAPS  H13Y 8661   6.009  -0.280   7.908 -0.4007  0.9280  0.5876
   89SAPS  C314 8662   6.222  -0.264   7.860 -1.0329 -0.5254  0.2162
   89SAPS  H14X 8663   6.239  -0.373   7.856 -1.2814 -0.8096  3.8229
   89SAPS  H14Y 8664   6.245  -0.248   7.967  0.4830  1.6098 -0.3543
   89SAPS  C315 8665   6.316  -0.207   7.760 -0.3954  0.1030 -0.3649
   89SAPS  H15X 8666   6.421  -0.196   7.795 -1.0416  0.2359  1.6374
   89SAPS  H15Y 8667   6.287  -0.101   7.744 -1.1847 -0.0619 -0.0485
   89SAPS  C316 8668   6.310  -0.276   7.621 -0.1054 -0.0778 -0.8508
   89SAPS  H16X 8669   6.344  -0.190   7.559  1.0512  2.0881  2.5006
   89SAPS  H16Y 8670   6.214  -0.307   7.576 -0.2218 -1.0084  0.0222
   89SAPS  C317 8671   6.420  -0.382   7.612 -0.4589 -0.1425 -0.2528
   89SAPS  H17X 8672   6.390  -0.467   7.677 -1.7374  1.1620  0.9469
   89SAPS  H17Y 8673   6.520  -0.342   7.639 -0.4586 -1.3209  1.7439
   89SAPS  C318 8674   6.426  -0.441   7.473  0.1341  0.0461 -0.3513
   89SAPS  H18X 8675   6.458  -0.366   7.397 -0.2725  1.3402  0.7107
   89SAPS  H18Y 8676   6.325  -0.475   7.440 -0.1721  2.2998 -1.9759
   89SAPS  H18Z 8677   6.500  -0.524   7.476  0.1326  0.0544 -0.0202
   90SAPS     N 8678   0.612   0.577   9.808  0.2669  0.6564 -0.1026
   90SAPS   HN1 8679   0.635   0.667   9.760  1.6300  0.7193  0.6018
   90SAPS   HN2 8680   0.699   0.530   9.839  0.9535  0.5811 -1.9804
   90SAPS   HN3 8681   0.570   0.510   9.741  1.5547 -0.9792  0.6635
   90SAPS   C12 8682   0.527   0.600   9.928 -0.5645 -0.1230 -0.1918
   90SAPS  H12A 8683   0.520   0.504   9.976  2.1246  0.4000  1.4197
   90SAPS   C13 8684   0.577   0.704  10.028  0.2341 -0.6082 -0.2379
   90SAPS  O13A 8685   0.700   0.743  10.016  0.0125  0.2677  0.2697
   90SAPS  O13B 8686   0.506   0.726  10.126 -0.1300 -0.1335 -0.5356
   90SAPS   C11 8687   0.388   0.643   9.871  0.8913  0.2840  0.4171
   90SAPS  H11A 8688   0.324   0.659   9.960  2.3681  1.3241  1.3343
   90SAPS  H11B 8689   0.350   0.557   9.811 -0.2266  1.2607 -0.3296
   90SAPS     P 8690   0.261   0.801   9.711 -0.6139 -0.1019  0.1491
   90SAPS   O13 8691   0.152   0.778   9.813 -0.8276  0.3580 -0.7680
   90SAPS   O14 8692   0.277   0.942   9.667 -0.4337 -0.2119  0.1914
   90SAPS   O12 8693   0.397   0.764   9.785 -0.4608 -0.1172 -0.3035
   90SAPS   O11 8694   0.244   0.695   9.602  0.1354 -0.0100  0.2296
   90SAPS    C1 8695   0.340   0.680   9.496  0.1343 -0.0710  0.3623
   90SAPS    HA 8696   0.439   0.649   9.536  0.2904  0.6433  0.5474
   90SAPS    HB 8697   0.317   0.596   9.427  1.5612 -0.8224  0.7581
   90SAPS    C2 8698   0.363   0.802   9.405  0.7895 -0.0534  0.0405
   90SAPS    HS 8699   0.405   0.876   9.476 -0.1885  0.0922  0.4934
   90SAPS   O21 8700   0.229   0.835   9.359 -0.2983  1.0985  0.1302
   90SAPS   C21 8701   0.218   0.954   9.308 -0.0951 -0.9594  0.6252
   90SAPS   O22 8702   0.295   1.051   9.335 -0.0541  0.0730 -0.6346
   90SAPS   C22 8703   0.105   0.973   9.202 -0.0078  0.1785 -0.3073
   90SAPS   H2R 8704   0.103   0.874   9.151  1.7605  0.0751 -0.2448
   90SAPS   H2S 8705   0.010   0.977   9.259 -0.2027 -0.3494 -0.5881
   90SAPS    C3 8706   0.477   0.780   9.300  0.2407  0.0838  0.1812
   90SAPS    HX 8707   0.549   0.699   9.324  0.7827 -0.0687 -1.8043
   90SAPS    HY 8708   0.539   0.872   9.297 -0.0629  0.2689 -1.5657
   90SAPS   O31 8709   0.416   0.759   9.165 -0.5521 -0.1028  0.0248
   90SAPS   C31 8710   0.376   0.643   9.136  0.6006  0.5563  1.3443
   90SAPS   O32 8711   0.383   0.537   9.196 -0.5698 -0.3966  0.3434
   90SAPS   C32 8712   0.331   0.655   8.983  0.7512 -0.0439 -0.2318
   90SAPS   H2X 8713   0.415   0.699   8.925  0.3699 -0.8483 -1.4534
   90SAPS   H2Y 8714   0.242   0.722   8.979 -0.5300 -1.4068  2.5541
   90SAPS   C23 8715   0.133   1.095   9.113 -0.4800  0.6819 -0.1982
   90SAPS   H3R 8716   0.232   1.099   9.061  0.4033  1.5260  1.4524
   90SAPS   H3S 8717   0.154   1.186   9.173  0.7191  0.9899 -1.0255
   90SAPS   C24 8718   0.007   1.121   9.031  0.2162 -0.4200  1.1365
   90SAPS   H4R 8719   0.012   1.220   8.980 -1.4885 -1.4441 -1.1985
   90SAPS   H4S 8720  -0.079   1.106   9.099 -0.6739 -0.0138  0.1204
   90SAPS   C25 8721  -0.005   1.021   8.918  0.1856  0.1356 -0.6126
   90SAPS   H5R 8722  -0.014   0.922   8.965  1.6038  0.9883  1.6124
   90SAPS   C26 8723  -0.011   1.028   8.784  0.4120 -0.1195 -0.0193
   90SAPS   H6R 8724  -0.027   0.943   8.716  1.0277  0.9110 -1.5044
   90SAPS   C27 8725  -0.022   1.159   8.701  0.2707  0.4317  0.1207
   90SAPS   H7R 8726   0.013   1.232   8.777  0.1293  0.6803 -0.0519
   90SAPS   H7S 8727  -0.130   1.179   8.688 -0.2183 -2.2922 -0.6113
   90SAPS   C28 8728   0.045   1.139   8.565 -0.2350  0.4450  1.0338
   90SAPS   H8R 8729   0.154   1.132   8.571 -0.2808  0.5752  2.3330
   90SAPS   C29 8730  -0.024   1.114   8.451 -0.0524 -0.1460  0.4673
   90SAPS   H9R 8731   0.034   1.104   8.359  0.2414 -2.9251  0.8657
   90SAPS  C210 8732  -0.174   1.087   8.432  0.1742 -0.1599  0.4802
   90SAPS  H10R 8733  -0.221   1.042   8.522  2.6162  0.5325  2.1805
   90SAPS  H10S 8734  -0.182   1.003   8.360  0.2512  0.4249 -0.2231
   90SAPS  C211 8735  -0.262   1.201   8.400 -0.1293 -0.5952 -0.1652
   90SAPS  H11R 8736  -0.251   1.291   8.461 -0.7258  1.5001 -2.9374
   90SAPS  C212 8737  -0.330   1.218   8.289  0.0164  0.0064 -0.2512
   90SAPS  H12R 8738  -0.379   1.316   8.279 -1.1141 -0.2341  2.2373
   90SAPS  C213 8739  -0.348   1.132   8.172  0.6999 -0.3056  0.4542
   90SAPS  H13R 8740  -0.312   1.031   8.201 -0.1046 -0.5940  0.4884
   90SAPS  H13S 8741  -0.277   1.157   8.091 -0.2433  0.4405 -0.1678
   90SAPS  C214 8742  -0.490   1.112   8.128 -0.4658 -0.3282  0.1816
   90SAPS  H14R 8743  -0.552   1.085   8.215 -1.8895  1.7508 -0.1104
   90SAPS  C215 8744  -0.547   1.132   8.005 -0.1824  0.0301  0.4350
   90SAPS  H15R 8745  -0.654   1.109   7.991 -0.6334  3.0277 -1.9324
   90SAPS  C216 8746  -0.487   1.169   7.876 -0.0048 -0.5429  0.0990
   90SAPS  H16R 8747  -0.482   1.076   7.814 -0.4408  0.4904 -1.5445
   90SAPS  H16S 8748  -0.377   1.181   7.874 -0.0056 -0.5817 -1.1177
   90SAPS  C217 8749  -0.557   1.279   7.791  0.0453 -0.0069  0.4037
   90SAPS  H17R 8750  -0.529   1.378   7.833 -1.1844  0.7435 -0.4651
   90SAPS  H17S 8751  -0.667   1.266   7.801  0.2923 -1.4546  1.6893
   90SAPS  C218 8752  -0.517   1.281   7.645 -0.3583  0.0940  0.0810
   90SAPS  H18R 8753  -0.445   1.201   7.617  0.9172  0.7907  1.2722
   90SAPS  H18S 8754  -0.449   1.366   7.624  1.0350 -1.0477 -0.1916
   90SAPS  C219 8755  -0.631   1.292   7.545  0.3071  0.5803  0.8751
   90SAPS  H19R 8756  -0.675   1.195   7.514 -0.0379  0.8831  0.4054
   90SAPS  H19S 8757  -0.578   1.320   7.451 -0.0657 -2.2288 -0.2812
   90SAPS  C220 8758  -0.728   1.403   7.575  0.5783 -1.5134  0.0760
   90SAPS  H20R 8759  -0.686   1.493   7.625 -0.1349 -0.2293 -1.5333
   90SAPS  H20S 8760  -0.795   1.364   7.655  0.5630 -0.3522  0.6462
   90SAPS  H20T 8761  -0.790   1.424   7.485  0.4026 -1.1851  0.2700
   90SAPS   C33 8762   0.291   0.513   8.925 -0.3253 -0.6608 -0.6244
   90SAPS   H3X 8763   0.206   0.486   8.991 -0.2326  1.5303  0.4608
   90SAPS   H3Y 8764   0.378   0.446   8.943 -0.0381 -0.3800 -0.9528
   90SAPS   C34 8765   0.272   0.517   8.776 -0.4663 -0.1345  0.2386
   90SAPS   H4X 8766   0.364   0.554   8.725 -0.3164 -2.8250 -1.6566
   90SAPS   H4Y 8767   0.185   0.582   8.751 -0.6487  0.8534  3.0657
   90SAPS   C35 8768   0.240   0.389   8.705  0.1666  0.0644 -0.3211
   90SAPS   H5X 8769   0.330   0.324   8.712  0.9892  0.9014 -2.3977
   90SAPS   H5Y 8770   0.223   0.413   8.598  1.4380 -1.6824 -0.9683
   90SAPS   C36 8771   0.122   0.313   8.777 -0.1712  1.1554  0.9391
   90SAPS   H6X 8772   0.039   0.388   8.774 -1.1878  0.0396 -0.0048
   90SAPS   H6Y 8773   0.146   0.292   8.883  0.1040 -0.3208  0.6088
   90SAPS   C37 8774   0.085   0.179   8.698  0.5978  0.5835  0.3494
   90SAPS   H7X 8775   0.171   0.109   8.701 -0.5847 -0.9009  0.7574
   90SAPS   H7Y 8776   0.042   0.194   8.597 -1.9541  0.8581  1.3997
   90SAPS   C38 8777  -0.027   0.098   8.764 -0.8249  0.0221 -0.0877
   90SAPS   H8X 8778   0.014   0.042   8.851  2.0270  1.4426 -0.4228
   90SAPS   H8Y 8779  -0.063   0.013   8.702  1.1134 -0.3524 -0.7681
   90SAPS   C39 8780  -0.148   0.183   8.803 -0.6848 -0.2708  0.3127
   90SAPS   H9X 8781  -0.163   0.238   8.707 -0.6872  0.7166  0.8600
   90SAPS   H9Y 8782  -0.114   0.257   8.878  1.6112 -0.8605 -0.0577
   90SAPS  C310 8783  -0.270   0.128   8.865  0.5551  0.3811  0.1772
   90SAPS  H10X 8784  -0.256   0.076   8.962  0.5713 -0.6434 -0.3589
   90SAPS  H10Y 8785  -0.321   0.060   8.793  1.0172 -0.2968  0.4814
   90SAPS  C311 8786  -0.384   0.232   8.883  0.0232 -0.5261  0.5069
   90SAPS  H11X 8787  -0.330   0.309   8.941  0.5330 -1.7872  1.7656
   90SAPS  H11Y 8788  -0.463   0.181   8.942  0.3612  0.0718  1.4968
   90SAPS  C312 8789  -0.451   0.279   8.746  0.0135  0.0014 -0.2907
   90SAPS  H12X 8790  -0.500   0.190   8.699  1.0977 -0.4124 -0.6685
   90SAPS  H12Y 8791  -0.375   0.306   8.669 -0.3107  0.6858 -0.3732
   90SAPS  C313 8792  -0.550   0.393   8.769  0.5082 -0.2215 -0.1766
   90SAPS  H13X 8793  -0.487   0.460   8.831 -0.5435  0.1153  0.5643
   90SAPS  H13Y 8794  -0.636   0.364   8.833 -1.3452  1.8209 -1.5476
   90SAPS  C314 8795  -0.599   0.477   8.644  0.1846 -0.0526  0.3536
   90SAPS  H14X 8796  -0.516   0.484   8.571 -1.5985 -0.1067 -1.7688
   90SAPS  H14Y 8797  -0.634   0.575   8.683  1.2296  0.3892  0.2112
   90SAPS  C315 8798  -0.728   0.420   8.565  0.2827 -0.0181  0.3281
   90SAPS  H15X 8799  -0.764   0.504   8.502 -0.4466  0.1894  1.0035
   90SAPS  H15Y 8800  -0.809   0.400   8.638 -0.2516  1.5415  0.1959
   90SAPS  C316 8801  -0.711   0.282   8.493 -0.4234 -0.0561  0.3483
   90SAPS  H16X 8802  -0.804   0.255   8.438 -1.3511  1.2628  1.2219
   90SAPS  H16Y 8803  -0.695   0.207   8.574 -0.1093 -1.5330 -1.0198
   90SAPS  C317 8804  -0.603   0.280   8.395 -0.3118 -0.0470 -0.5051
   90SAPS  H17X 8805  -0.576   0.175   8.367 -0.0176  0.2679 -1.4725
   90SAPS  H17Y 8806  -0.516   0.330   8.443  0.3965 -0.1082 -1.6599
   90SAPS  C318 8807  -0.624   0.365   8.265 -0.0653  0.4070 -0.0294
   90SAPS  H18X 8808  -0.549   0.333   8.189  0.2597 -1.7175  1.1036
   90SAPS  H18Y 8809  -0.609   0.474   8.281 -0.6287  0.3125  1.2038
   90SAPS  H18Z 8810  -0.727   0.350   8.226 -0.1830 -3.7024  1.3821
   91SAPS     N 8811   3.308   3.728   5.410 -0.7217  0.2041 -0.6600
   91SAPS   HN1 8812   3.396   3.776   5.440 -0.8733  1.4613 -2.0752
   91SAPS   HN2 8813   3.284   3.646   5.469 -0.2884 -1.2990 -2.4764
   91SAPS   HN3 8814   3.323   3.689   5.315 -2.7268 -1.6990 -0.2434
   91SAPS   C12 8815   3.203   3.837   5.396 -0.3529 -1.0099  0.6021
   91SAPS  H12A 8816   3.249   3.911   5.331  0.4086 -2.1345 -0.1785
   91SAPS   C13 8817   3.074   3.781   5.332  0.5415 -0.1068  0.0071
   91SAPS  O13A 8818   3.060   3.658   5.308 -0.2176 -0.4941 -0.3431
   91SAPS  O13B 8819   2.972   3.856   5.318 -0.3866 -0.0526 -0.0326
   91SAPS   C11 8820   3.186   3.904   5.534  0.0110  0.1243  0.0156
   91SAPS  H11A 8821   3.177   3.838   5.623  0.4233  1.8142  1.3781
   91SAPS  H11B 8822   3.088   3.957   5.536  0.9184  1.9091 -0.6647
   91SAPS     P 8823   3.407   3.996   5.652 -0.2390 -0.6427  0.1334
   91SAPS   O13 8824   3.499   3.889   5.606  0.3854  0.7174 -0.2864
   91SAPS   O14 8825   3.462   4.129   5.649  0.2175  0.0840 -0.3415
   91SAPS   O12 8826   3.285   4.002   5.552  0.0859 -0.0437  0.0512
   91SAPS   O11 8827   3.345   3.968   5.796  0.9076  0.1246  0.8726
   91SAPS    C1 8828   3.217   4.024   5.830  0.2553 -0.1512 -0.0437
   91SAPS    HA 8829   3.228   4.132   5.804 -0.9640  0.1517  0.6115
   91SAPS    HB 8830   3.131   3.984   5.772  0.6940 -1.7527  0.3884
   91SAPS    C2 8831   3.189   4.013   5.983  0.7181  1.1940  0.6550
   91SAPS    HS 8832   3.086   4.050   6.004  0.5583  0.8724  0.4657
   91SAPS   O21 8833   3.283   4.092   6.047 -0.0495  0.2441  0.1372
   91SAPS   C21 8834   3.266   4.086   6.171 -0.1023  0.7295 -0.4633
   91SAPS   O22 8835   3.172   4.029   6.229 -0.8767  0.1570 -0.3071
   91SAPS   C22 8836   3.376   4.175   6.239 -0.5686  0.4519  0.1864
   91SAPS   H2R 8837   3.433   4.229   6.160 -1.3877 -0.8608 -1.3754
   91SAPS   H2S 8838   3.309   4.240   6.299  0.6745  2.2172 -0.2542
   91SAPS    C3 8839   3.199   3.856   6.018 -0.8367 -0.1766  0.1421
   91SAPS    HX 8840   3.138   3.807   5.938  0.4300 -2.6825  0.6153
   91SAPS    HY 8841   3.158   3.826   6.117  0.9072 -0.2192  0.8934
   91SAPS   O31 8842   3.333   3.807   6.011  0.0123 -0.1131  0.0005
   91SAPS   C31 8843   3.341   3.679   5.968 -0.6352 -0.6252 -0.5090
   91SAPS   O32 8844   3.245   3.602   5.959 -0.0330  0.1662  0.2131
   91SAPS   C32 8845   3.490   3.653   5.954  0.0229  0.4645 -0.0326
   91SAPS   H2X 8846   3.527   3.735   5.889 -1.4985  0.6841 -0.6410
   91SAPS   H2Y 8847   3.486   3.556   5.899  0.8222 -0.3042  1.1957
   91SAPS   C23 8848   3.480   4.090   6.318 -0.5356  0.0052 -0.3491
   91SAPS   H3R 8849   3.554   4.163   6.358 -1.0489  1.0100 -1.1972
   91SAPS   H3S 8850   3.540   4.038   6.241  1.2870 -0.5149  1.3294
   91SAPS   C24 8851   3.414   3.995   6.421 -0.2209  0.4047 -0.5648
   91SAPS   H4R 8852   3.496   3.961   6.488 -1.5501 -0.6167  0.6051
   91SAPS   H4S 8853   3.363   3.910   6.371 -0.6802  0.1601  0.2979
   91SAPS   C25 8854   3.317   4.065   6.518 -0.0195  0.3539  0.7014
   91SAPS   H5R 8855   3.214   4.035   6.493 -0.6164  0.2700  3.0480
   91SAPS   C26 8856   3.345   4.132   6.635  0.6299 -0.3234  0.0605
   91SAPS   H6R 8857   3.252   4.165   6.685 -0.4605 -1.2323 -1.2719
   91SAPS   C27 8858   3.481   4.154   6.687  0.2402  0.3039 -0.0001
   91SAPS   H7R 8859   3.550   4.206   6.618 -0.3665  0.6942 -0.3184
   91SAPS   H7S 8860   3.526   4.055   6.709 -1.0834 -0.4707 -0.6694
   91SAPS   C28 8861   3.489   4.245   6.806 -0.0517  0.6832  0.9694
   91SAPS   H8R 8862   3.467   4.350   6.785 -1.3847  0.4935  1.3166
   91SAPS   C29 8863   3.515   4.218   6.936 -0.4157 -0.2160 -0.0150
   91SAPS   H9R 8864   3.507   4.297   7.012  1.6435 -0.6522  0.7287
   91SAPS  C210 8865   3.536   4.083   7.004 -0.3163 -0.4862  1.4695
   91SAPS  H10R 8866   3.532   3.995   6.935 -1.0945  0.3275  0.4472
   91SAPS  H10S 8867   3.454   4.064   7.076 -2.1375  1.0629 -0.1072
   91SAPS  C211 8868   3.676   4.078   7.063  0.7152  0.6010 -0.2402
   91SAPS  H11R 8869   3.761   4.073   6.994  1.0672 -2.3972  0.2844
   91SAPS  C212 8870   3.700   4.070   7.194 -0.4012  0.4829  0.1400
   91SAPS  H12R 8871   3.806   4.060   7.222 -0.5743 -2.7266 -0.0530
   91SAPS  C213 8872   3.599   4.061   7.309  0.2883 -0.0665  0.5705
   91SAPS  H13R 8873   3.606   3.956   7.344  0.6240 -0.3148 -0.2165
   91SAPS  H13S 8874   3.501   4.076   7.260  0.9033  2.1199 -0.1029
   91SAPS  C214 8875   3.621   4.150   7.433 -0.2699 -1.1251  0.1635
   91SAPS  H14R 8876   3.686   4.105   7.509 -0.8037  2.4410  2.9466
   91SAPS  C215 8877   3.585   4.280   7.456 -0.2557 -0.2963 -0.8702
   91SAPS  H15R 8878   3.628   4.334   7.541 -0.5235 -0.2470 -0.7662
   91SAPS  C216 8879   3.497   4.352   7.361  0.3778 -0.5126  0.4392
   91SAPS  H16R 8880   3.481   4.304   7.263  1.1927  1.4535 -0.7128
   91SAPS  H16S 8881   3.548   4.448   7.336 -0.7303 -0.2790 -1.0406
   91SAPS  C217 8882   3.366   4.401   7.425  0.0882  0.0377 -0.3473
   91SAPS  H17R 8883   3.341   4.499   7.378 -1.5109 -0.5181 -0.7214
   91SAPS  H17S 8884   3.376   4.427   7.533 -1.0564  0.3030 -0.2911
   91SAPS  C218 8885   3.241   4.313   7.405 -0.1778  0.5760 -0.0895
   91SAPS  H18R 8886   3.258   4.232   7.479  0.9574  0.7133 -0.1925
   91SAPS  H18S 8887   3.238   4.266   7.305  0.3392 -2.7293  1.3262
   91SAPS  C219 8888   3.111   4.392   7.431  0.0455  0.5583  0.3272
   91SAPS  H19R 8889   3.031   4.358   7.362 -1.6162 -0.3561  2.5959
   91SAPS  H19S 8890   3.130   4.500   7.411 -0.3545  0.2488 -2.0128
   91SAPS  C220 8891   3.057   4.383   7.571 -0.4335 -0.3622  0.3608
   91SAPS  H20R 8892   2.970   4.449   7.590  1.0655  1.4074  1.3012
   91SAPS  H20S 8893   3.135   4.423   7.638 -0.2407  0.6757 -0.4561
   91SAPS  H20T 8894   3.049   4.275   7.595  0.8590 -0.9996 -1.7670
   91SAPS   C33 8895   3.580   3.629   6.072 -0.5007 -0.7800  0.3777
   91SAPS   H3X 8896   3.674   3.598   6.022 -0.9574  0.3004 -1.2380
   91SAPS   H3Y 8897   3.551   3.552   6.146  1.0696 -1.3540  0.4115
   91SAPS   C34 8898   3.630   3.761   6.140 -0.1017 -0.5309  0.4013
   91SAPS   H4X 8899   3.537   3.808   6.178  0.0661 -1.0387  1.4872
   91SAPS   H4Y 8900   3.673   3.830   6.065 -0.9172 -0.2227  0.2115
   91SAPS   C35 8901   3.732   3.731   6.252  0.9771  0.4608  0.5585
   91SAPS   H5X 8902   3.816   3.673   6.209 -0.2620 -0.7495 -0.3323
   91SAPS   H5Y 8903   3.674   3.661   6.317  1.9522 -1.0540 -0.1327
   91SAPS   C36 8904   3.771   3.857   6.333 -0.0011  0.4035  0.3661
   91SAPS   H6X 8905   3.675   3.901   6.366 -1.9182 -0.0074 -4.0113
   91SAPS   H6Y 8906   3.818   3.938   6.271  0.9196 -0.4741 -0.1204
   91SAPS   C37 8907   3.858   3.814   6.454  0.6697 -0.2283 -0.9053
   91SAPS   H7X 8908   3.956   3.777   6.418  0.4879 -1.8485  0.1568
   91SAPS   H7Y 8909   3.808   3.730   6.508 -1.0285 -0.2550 -2.4282
   91SAPS   C38 8910   3.893   3.930   6.549 -0.7455  0.4515 -0.4524
   91SAPS   H8X 8911   3.799   3.975   6.588 -1.5534 -0.8450 -0.8529
   91SAPS   H8Y 8912   3.941   4.011   6.490  0.6810 -0.2716 -0.2978
   91SAPS   C39 8913   3.976   3.892   6.669 -0.5154  0.1724  0.1628
   91SAPS   H9X 8914   4.077   3.864   6.633 -1.1197  0.2300 -1.6684
   91SAPS   H9Y 8915   3.927   3.798   6.703  0.6812 -1.1317 -1.5441
   91SAPS  C310 8916   3.967   3.999   6.781  0.0430 -0.1773 -0.0661
   91SAPS  H10X 8917   3.863   4.034   6.801  0.0821 -0.5258  0.8240
   91SAPS  H10Y 8918   4.030   4.088   6.760 -0.8814  0.8615  1.3422
   91SAPS  C311 8919   4.014   3.941   6.913  0.0659  0.2718 -0.1385
   91SAPS  H11X 8920   4.092   3.863   6.900  1.2954  1.7268 -2.1843
   91SAPS  H11Y 8921   3.930   3.896   6.970 -2.4285  4.1581 -0.3414
   91SAPS  C312 8922   4.078   4.050   7.005 -0.1198 -0.5758  0.2680
   91SAPS  H12X 8923   4.006   4.134   7.014  1.4734  0.7331  1.4971
   91SAPS  H12Y 8924   4.176   4.072   6.959 -0.1582 -0.5710  0.1888
   91SAPS  C313 8925   4.102   3.996   7.140  0.3889  0.4561 -0.8276
   91SAPS  H13X 8926   4.155   3.899   7.151 -0.8880 -0.2356 -0.5188
   91SAPS  H13Y 8927   4.001   3.965   7.175  0.0403 -0.3044 -2.4153
   91SAPS  C314 8928   4.167   4.101   7.242  0.4855 -0.3006 -0.3090
   91SAPS  H14X 8929   4.146   4.202   7.201  2.5247  1.3969  2.4476
   91SAPS  H14Y 8930   4.277   4.083   7.245  1.0294  2.5824  0.4117
   91SAPS  C315 8931   4.098   4.100   7.387 -0.6837 -0.1395 -0.0121
   91SAPS  H15X 8932   3.993   4.131   7.365 -0.5408  0.3298 -0.0449
   91SAPS  H15Y 8933   4.139   4.170   7.463 -0.6486  1.5180 -1.4886
   91SAPS  C316 8934   4.094   3.956   7.448 -0.8617 -0.0663  0.5633
   91SAPS  H16X 8935   4.144   3.947   7.547  1.2791  0.4549 -0.4116
   91SAPS  H16Y 8936   4.149   3.890   7.378  1.4965  2.8044 -0.4842
   91SAPS  C317 8937   3.949   3.908   7.452 -0.0232  0.6644 -0.2579
   91SAPS  H17X 8938   3.888   3.940   7.365  1.3225  0.8879 -1.1578
   91SAPS  H17Y 8939   3.901   3.955   7.540 -0.8569  0.6544 -0.7037
   91SAPS  C318 8940   3.925   3.757   7.458 -0.4167  0.8611 -0.8395
   91SAPS  H18X 8941   3.821   3.728   7.486 -0.2233 -0.4364 -1.3636
   91SAPS  H18Y 8942   3.986   3.716   7.542 -0.4327 -1.0237 -1.6808
   91SAPS  H18Z 8943   3.944   3.704   7.362  0.8199 -0.0784 -0.1158
   92SAPS     N 8944   2.876   3.501   5.420  0.6533  0.0452  0.0078
   92SAPS   HN1 8945   2.928   3.576   5.371 -1.1527  0.2689 -1.6800
   92SAPS   HN2 8946   2.777   3.531   5.431  0.6326 -0.2274  0.6793
   92SAPS   HN3 8947   2.918   3.495   5.515 -1.7626  0.3244  1.1781
   92SAPS   C12 8948   2.883   3.368   5.343  0.1418  0.1829  1.1582
   92SAPS  H12A 8949   2.803   3.306   5.380  0.7140 -1.4057 -0.1864
   92SAPS   C13 8950   2.847   3.380   5.191 -0.0753  0.6333 -0.4982
   92SAPS  O13A 8951   2.808   3.492   5.152  0.0036  0.3176  0.5958
   92SAPS  O13B 8952   2.861   3.278   5.117  0.4442 -0.5103  0.1064
   92SAPS   C11 8953   3.023   3.312   5.379 -0.6613 -0.2425  0.0065
   92SAPS  H11A 8954   3.098   3.384   5.342 -1.0247 -0.7724 -1.8653
   92SAPS  H11B 8955   3.043   3.214   5.331 -0.6139 -0.5552  0.6591
   92SAPS     P 8956   3.137   3.186   5.576 -0.6673 -0.3232  0.2543
   92SAPS   O13 8957   3.093   3.057   5.510  0.2532  0.2538 -0.2800
   92SAPS   O14 8958   3.276   3.225   5.562  0.2684  0.7555  0.0663
   92SAPS   O12 8959   3.045   3.303   5.518  0.5434  0.1178  0.0064
   92SAPS   O11 8960   3.094   3.190   5.726 -0.4098  0.2754 -0.6045
   92SAPS    C1 8961   3.173   3.262   5.827 -0.2216 -0.1986  0.2002
   92SAPS    HA 8962   3.226   3.344   5.775  1.5922 -1.9256 -0.8344
   92SAPS    HB 8963   3.102   3.307   5.899  0.3518  1.9531 -0.5095
   92SAPS    C2 8964   3.280   3.172   5.895 -0.1129 -0.3183 -1.7926
   92SAPS    HS 8965   3.334   3.117   5.815  0.9077 -0.1971 -1.2081
   92SAPS   O21 8966   3.215   3.080   5.988 -0.3480 -0.0917 -0.4507
   92SAPS   C21 8967   3.282   2.976   6.016 -0.0406 -0.1855  0.1409
   92SAPS   O22 8968   3.392   2.948   5.973 -0.4554 -0.0948  0.3303
   92SAPS   C22 8969   3.184   2.895   6.117 -0.1951 -0.6156  0.1661
   92SAPS   H2R 8970   3.126   2.968   6.176 -0.3939 -0.8796  0.3010
   92SAPS   H2S 8971   3.115   2.841   6.048 -0.1316 -0.0007 -0.3975
   92SAPS    C3 8972   3.374   3.265   5.976 -0.0192  0.0014 -0.4702
   92SAPS    HX 8973   3.416   3.332   5.898 -0.9295  1.2753  0.1068
   92SAPS    HY 8974   3.451   3.209   6.033  2.0847  1.0852 -2.0757
   92SAPS   O31 8975   3.314   3.359   6.063  0.3662  0.0188 -0.2341
   92SAPS   C31 8976   3.293   3.320   6.190 -0.0332 -0.7385 -0.5141
   92SAPS   O32 8977   3.330   3.212   6.237  0.4583 -0.1703  0.0060
   92SAPS   C32 8978   3.216   3.427   6.268  0.7437  0.2409  0.2514
   92SAPS   H2X 8979   3.111   3.390   6.262  1.1496 -1.4767  2.3789
   92SAPS   H2Y 8980   3.222   3.522   6.211 -1.8645 -0.6621 -1.7775
   92SAPS   C23 8981   3.259   2.785   6.196  0.3735 -0.2263 -0.3405
   92SAPS   H3R 8982   3.340   2.829   6.259  1.2754 -2.6461  0.2892
   92SAPS   H3S 8983   3.324   2.719   6.135  0.3822 -0.1344 -0.4314
   92SAPS   C24 8984   3.177   2.694   6.289 -0.7569 -0.2194 -0.5873
   92SAPS   H4R 8985   3.117   2.750   6.363  0.5457  1.5565 -0.8135
   92SAPS   H4S 8986   3.243   2.630   6.352  0.1233  0.6798 -0.5666
   92SAPS   C25 8987   3.078   2.617   6.212  0.7552  0.5870  0.7749
   92SAPS   H5R 8988   3.103   2.598   6.107 -0.3309  0.1883  0.5828
   92SAPS   C26 8989   2.963   2.561   6.260  0.1786  0.0577 -0.7771
   92SAPS   H6R 8990   2.910   2.500   6.186  0.0654  0.5639 -1.1153
   92SAPS   C27 8991   2.916   2.568   6.400  0.0549 -0.7003 -0.0546
   92SAPS   H7R 8992   2.810   2.599   6.395  0.8176  2.7409  1.8490
   92SAPS   H7S 8993   2.955   2.656   6.456 -1.7351  0.3476 -0.4039
   92SAPS   C28 8994   2.933   2.441   6.472  0.2904  0.2021  0.2943
   92SAPS   H8R 8995   2.894   2.348   6.427  1.3185 -0.4228  0.6641
   92SAPS   C29 8996   3.024   2.408   6.563  0.0968  0.4812 -0.0041
   92SAPS   H9R 8997   3.030   2.310   6.612  0.0832  0.7577  0.5653
   92SAPS  C210 8998   3.122   2.506   6.627  0.7899  0.1566  0.1733
   92SAPS  H10R 8999   3.179   2.556   6.547 -1.4725 -0.6408 -2.0833
   92SAPS  H10S 9000   3.197   2.445   6.683  1.7099 -0.1536 -1.3465
   92SAPS  C211 9001   3.050   2.610   6.707 -0.1262 -0.2933  0.5228
   92SAPS  H11R 9002   2.958   2.575   6.755 -1.4838  0.4436 -1.4367
   92SAPS  C212 9003   3.072   2.745   6.713 -0.3496  0.4068  0.0490
   92SAPS  H12R 9004   3.018   2.806   6.788  2.9114  2.5881  0.8794
   92SAPS  C213 9005   3.165   2.833   6.638  0.0246 -0.9435 -0.1926
   92SAPS  H13R 9006   3.110   2.928   6.620 -1.6323 -1.5988  1.1643
   92SAPS  H13S 9007   3.194   2.783   6.544  0.6239 -1.6184  0.3403
   92SAPS  C214 9008   3.288   2.872   6.724  0.7388  0.2333 -0.7842
   92SAPS  H14R 9009   3.348   2.786   6.756  1.8300  1.6716  1.2643
   92SAPS  C215 9010   3.330   3.000   6.757 -0.3276 -0.6902  0.0614
   92SAPS  H15R 9011   3.423   3.008   6.815  0.8385 -1.0918 -1.6723
   92SAPS  C216 9012   3.274   3.137   6.713  0.2008 -0.3638  0.3372
   92SAPS  H16R 9013   3.163   3.133   6.713  0.2383 -2.7009  1.1691
   92SAPS  H16S 9014   3.309   3.156   6.609  0.0544 -1.9656 -0.0348
   92SAPS  C217 9015   3.303   3.252   6.808 -1.2803 -0.4488 -0.4098
   92SAPS  H17R 9016   3.238   3.338   6.778  1.2135  2.2084  1.2522
   92SAPS  H17S 9017   3.406   3.289   6.793 -1.5012  1.4366  1.9712
   92SAPS  C218 9018   3.268   3.214   6.962  0.7463  0.0537  0.2364
   92SAPS  H18R 9019   3.331   3.128   6.995  1.3758  0.4078 -0.0301
   92SAPS  H18S 9020   3.166   3.174   6.978  1.2560 -0.3092  3.0277
   92SAPS  C219 9021   3.291   3.327   7.055 -0.1279 -0.4074  0.3202
   92SAPS  H19R 9022   3.400   3.348   7.047 -0.1042  0.0127  1.5230
   92SAPS  H19S 9023   3.271   3.286   7.156  0.9625  0.3659  0.8717
   92SAPS  C220 9024   3.204   3.453   7.048 -0.1619 -0.1752  0.5748
   92SAPS  H20R 9025   3.186   3.498   6.948 -0.0552 -0.8683  0.2388
   92SAPS  H20S 9026   3.247   3.530   7.115 -0.6823  0.5920  0.0528
   92SAPS  H20T 9027   3.102   3.430   7.087 -1.4573  2.5840 -0.8925
   92SAPS   C33 9028   3.259   3.438   6.415  0.5568  0.7480  0.5141
   92SAPS   H3X 9029   3.266   3.333   6.452 -1.5488  0.1121 -0.7418
   92SAPS   H3Y 9030   3.178   3.490   6.471  1.2377  0.9854  1.3048
   92SAPS   C34 9031   3.396   3.500   6.432 -0.5283  0.0438  0.2400
   92SAPS   H4X 9032   3.384   3.605   6.398 -1.3968  0.2947  1.2839
   92SAPS   H4Y 9033   3.471   3.443   6.373  0.7946 -0.5319  2.3823
   92SAPS   C35 9034   3.437   3.506   6.581  0.0480 -0.5857 -0.5681
   92SAPS   H5X 9035   3.442   3.405   6.626  0.4687 -1.8529 -3.2868
   92SAPS   H5Y 9036   3.367   3.582   6.624  0.6829 -0.8082  0.9131
   92SAPS   C36 9037   3.580   3.561   6.584  0.1889 -0.5285  0.2750
   92SAPS   H6X 9038   3.584   3.631   6.497 -0.8391 -0.7181  0.0616
   92SAPS   H6Y 9039   3.665   3.491   6.569 -0.0766 -0.3099 -2.9256
   92SAPS   C37 9040   3.613   3.642   6.712 -0.1118 -0.9294 -0.3142
   92SAPS   H7X 9041   3.536   3.720   6.728  0.0404 -0.3697 -2.0988
   92SAPS   H7Y 9042   3.715   3.681   6.691  0.5174 -3.0334 -1.4267
   92SAPS   C38 9043   3.635   3.547   6.836  0.4363 -0.6953 -0.1936
   92SAPS   H8X 9044   3.721   3.481   6.811  0.0614 -0.7526 -1.3651
   92SAPS   H8Y 9045   3.542   3.486   6.840 -0.5433  0.6697 -1.2733
   92SAPS   C39 9046   3.662   3.621   6.970 -0.4140 -0.0978 -0.4682
   92SAPS   H9X 9047   3.596   3.711   6.967 -1.0828 -0.6053 -1.8605
   92SAPS   H9Y 9048   3.769   3.651   6.968  0.0617 -1.6014  0.8035
   92SAPS  C310 9049   3.627   3.537   7.098  0.7827  0.2525  0.3556
   92SAPS  H10X 9050   3.693   3.448   7.093 -0.7045 -0.8899  0.4980
   92SAPS  H10Y 9051   3.521   3.509   7.086  1.3913 -3.5782  2.3650
   92SAPS  C311 9052   3.636   3.606   7.232 -0.6597  0.7699 -0.0038
   92SAPS  H11X 9053   3.542   3.659   7.259 -0.6977  1.3974 -1.2802
   92SAPS  H11Y 9054   3.716   3.680   7.214  1.2688 -1.6638 -2.3098
   92SAPS  C312 9055   3.684   3.507   7.347  1.4502  0.4879 -0.0222
   92SAPS  H12X 9056   3.712   3.555   7.444  4.6133  0.5741 -0.8582
   92SAPS  H12Y 9057   3.792   3.492   7.327  1.3709  0.1079 -0.1708
   92SAPS  C313 9058   3.599   3.386   7.372  0.5509 -0.5146  0.0737
   92SAPS  H13X 9059   3.604   3.301   7.301 -0.1956 -0.1600 -0.4033
   92SAPS  H13Y 9060   3.496   3.426   7.380  2.0395  3.6143  1.1647
   92SAPS  C314 9061   3.646   3.316   7.496 -0.1006  0.4055  0.2523
   92SAPS  H14X 9062   3.637   3.380   7.587  2.4635 -0.5902  1.2874
   92SAPS  H14Y 9063   3.756   3.301   7.492 -0.3427 -1.2381 -1.4499
   92SAPS  C315 9064   3.574   3.182   7.541 -0.1289 -0.3995 -0.0434
   92SAPS  H15X 9065   3.643   3.119   7.601 -0.7680 -0.7227  0.3598
   92SAPS  H15Y 9066   3.555   3.125   7.447 -2.0596  4.1708 -2.7420
   92SAPS  C316 9067   3.439   3.203   7.612  0.2028 -0.4866  0.1161
   92SAPS  H16X 9068   3.382   3.253   7.531  0.2774  1.5156  1.2374
   92SAPS  H16Y 9069   3.463   3.278   7.690  3.5559  0.9846 -2.1079
   92SAPS  C317 9070   3.368   3.081   7.651 -0.0370 -0.4500 -0.6889
   92SAPS  H17X 9071   3.279   3.098   7.715  0.6324 -0.7209  0.3524
   92SAPS  H17Y 9072   3.441   3.033   7.721 -0.2512  1.8349  1.2069
   92SAPS  C318 9073   3.328   2.987   7.538  0.2676  0.4327  0.9943
   92SAPS  H18X 9074   3.252   3.043   7.479 -0.7497 -1.7133  0.1505
   92SAPS  H18Y 9075   3.276   2.893   7.566  0.2916 -0.0990 -0.6239
   92SAPS  H18Z 9076   3.420   2.962   7.481  0.5499  1.1292  1.1372
   93SAPS     N 9077   4.009   2.034   5.402 -0.2117 -0.0200 -0.3930
   93SAPS   HN1 9078   3.919   1.996   5.440  0.9070 -1.3659  1.0315
   93SAPS   HN2 9079   4.040   1.975   5.322 -1.5632 -1.4220  0.0729
   93SAPS   HN3 9080   4.077   2.018   5.479 -1.3474  0.7174  0.7955
   93SAPS   C12 9081   4.004   2.182   5.361  0.3037 -0.2366  0.0363
   93SAPS  H12A 9082   4.104   2.214   5.335  0.1503 -1.2303 -1.9456
   93SAPS   C13 9083   3.916   2.195   5.230 -0.5353  0.7288 -0.7262
   93SAPS  O13A 9084   3.887   2.092   5.169  0.0390  0.1478 -0.1230
   93SAPS  O13B 9085   3.891   2.304   5.179  0.1076 -0.2779  0.1770
   93SAPS   C11 9086   3.945   2.278   5.478 -0.6322  0.3214 -0.2818
   93SAPS  H11A 9087   4.009   2.262   5.568 -0.7843  2.2439  0.2223
   93SAPS  H11B 9088   3.844   2.236   5.498 -1.3832  1.9070 -0.5033
   93SAPS     P 9089   4.056   2.514   5.455 -0.1962  0.1295  0.2592
   93SAPS   O13 9090   4.180   2.433   5.441 -0.3289  0.0806 -0.3096
   93SAPS   O14 9091   4.045   2.629   5.365  0.3801 -0.9056  0.5909
   93SAPS   O12 9092   3.934   2.420   5.437 -0.2968  0.1261  0.4448
   93SAPS   O11 9093   4.048   2.549   5.606  0.4359 -0.7628  0.1230
   93SAPS    C1 9094   4.124   2.647   5.674  0.1800 -0.4684 -0.6425
   93SAPS    HA 9095   4.153   2.728   5.604  1.1128 -0.1696  0.0758
   93SAPS    HB 9096   4.055   2.671   5.758 -1.4760  1.4149 -2.4236
   93SAPS    C2 9097   4.265   2.596   5.722 -0.1062 -0.7644 -0.2421
   93SAPS    HS 9098   4.321   2.568   5.630  0.3176 -0.9586  0.0725
   93SAPS   O21 9099   4.237   2.486   5.810  0.4964  0.0099  0.6729
   93SAPS   C21 9100   4.341   2.416   5.848 -0.4118 -0.1408 -0.7290
   93SAPS   O22 9101   4.450   2.416   5.790  0.3761 -0.2679 -0.1784
   93SAPS   C22 9102   4.285   2.326   5.956 -0.8681 -0.1345  0.3001
   93SAPS   H2R 9103   4.218   2.378   6.028 -2.8752  0.7534 -2.0768
   93SAPS   H2S 9104   4.241   2.240   5.901  2.2278 -0.6169 -1.7039
   93SAPS    C3 9105   4.344   2.714   5.789 -0.2843  0.2977 -0.6539
   93SAPS    HX 9106   4.374   2.781   5.706  1.9797  0.3435  0.1233
   93SAPS    HY 9107   4.444   2.687   5.829 -0.0499 -0.5029 -1.7298
   93SAPS   O31 9108   4.266   2.785   5.887 -0.2616  0.0506  0.4279
   93SAPS   C31 9109   4.275   2.727   6.016 -0.5156  0.2025 -0.1798
   93SAPS   O32 9110   4.328   2.629   6.053  0.0672  0.1455 -0.2404
   93SAPS   C32 9111   4.206   2.829   6.111  0.1804 -0.3182  0.2648
   93SAPS   H2X 9112   4.152   2.904   6.049 -1.0017 -0.5241  1.0364
   93SAPS   H2Y 9113   4.279   2.873   6.182 -0.0863  1.6140 -0.5973
   93SAPS   C23 9114   4.402   2.248   6.028 -0.0274  0.0130 -0.5284
   93SAPS   H3R 9115   4.474   2.204   5.955 -0.4626 -2.9426  0.6878
   93SAPS   H3S 9116   4.353   2.164   6.082 -1.1543  0.1313 -1.3144
   93SAPS   C24 9117   4.472   2.334   6.138 -0.2364 -0.4338  0.8096
   93SAPS   H4R 9118   4.516   2.420   6.083  1.0612 -2.8629 -2.3102
   93SAPS   H4S 9119   4.563   2.282   6.175 -0.1387 -0.4175  0.5917
   93SAPS   C25 9120   4.378   2.376   6.247 -0.5275 -0.6781 -0.0499
   93SAPS   H5R 9121   4.304   2.447   6.209 -0.3883 -0.8717 -0.6902
   93SAPS   C26 9122   4.383   2.341   6.379  0.0716  0.0056  0.2669
   93SAPS   H6R 9123   4.303   2.374   6.447  0.6990  0.8361  0.6178
   93SAPS   C27 9124   4.496   2.262   6.443 -0.1793 -0.1333  0.2202
   93SAPS   H7R 9125   4.568   2.339   6.478  1.2588  0.1986 -3.1051
   93SAPS   H7S 9126   4.563   2.206   6.374  1.4199  0.5809  1.1297
   93SAPS   C28 9127   4.452   2.172   6.553  0.9187  0.3330 -0.5621
   93SAPS   H8R 9128   4.446   2.065   6.526  3.5126  0.3348 -1.4293
   93SAPS   C29 9129   4.403   2.214   6.677  0.5566 -0.2353  0.3174
   93SAPS   H9R 9130   4.385   2.133   6.749  1.2314 -2.2256 -1.6082
   93SAPS  C210 9131   4.389   2.358   6.735  0.1728  0.2263 -0.0188
   93SAPS  H10R 9132   4.332   2.426   6.668 -0.6930  1.7818  2.2016
   93SAPS  H10S 9133   4.485   2.410   6.756 -0.1262  0.5632  0.5171
   93SAPS  C211 9134   4.295   2.345   6.858 -0.4251 -0.4652 -0.0678
   93SAPS  H11R 9135   4.196   2.314   6.824  0.7483 -1.5633 -2.7967
   93SAPS  C212 9136   4.308   2.371   6.989 -0.5473 -0.1696  0.2473
   93SAPS  H12R 9137   4.218   2.362   7.051 -0.9855 -1.2538 -0.5047
   93SAPS  C213 9138   4.440   2.406   7.049  0.1516  0.6797  0.3413
   93SAPS  H13R 9139   4.522   2.373   6.982 -0.5040 -0.0875 -0.1052
   93SAPS  H13S 9140   4.452   2.345   7.141  0.8884 -1.0475 -0.8342
   93SAPS  C214 9141   4.451   2.549   7.079 -0.8926  0.1259 -1.2060
   93SAPS  H14R 9142   4.402   2.607   6.999 -0.7388 -0.3810 -1.6813
   93SAPS  C215 9143   4.499   2.609   7.185 -0.3972  0.9834  0.2010
   93SAPS  H15R 9144   4.493   2.718   7.196 -0.6878  0.8013  2.1119
   93SAPS  C216 9145   4.560   2.541   7.300  0.2472 -0.0129  0.6491
   93SAPS  H16R 9146   4.661   2.586   7.313  0.1345  1.0842 -1.7217
   93SAPS  H16S 9147   4.588   2.435   7.283  0.8795  0.0839  1.0709
   93SAPS  C217 9148   4.477   2.560   7.429  0.4220  0.3288  0.5542
   93SAPS  H17R 9149   4.373   2.526   7.409  0.1350  2.2905 -1.7363
   93SAPS  H17S 9150   4.467   2.668   7.454 -1.8972  0.5863 -1.1322
   93SAPS  C218 9151   4.537   2.479   7.541  0.0830  0.0277 -0.3331
   93SAPS  H18R 9152   4.646   2.500   7.533  0.3768 -2.0197 -3.6979
   93SAPS  H18S 9153   4.535   2.370   7.521  1.1933 -0.5064  2.1379
   93SAPS  C219 9154   4.490   2.516   7.677  0.6839 -0.5770 -0.3024
   93SAPS  H19R 9155   4.380   2.520   7.685  0.4371 -4.0177 -0.1938
   93SAPS  H19S 9156   4.529   2.618   7.697 -1.5341  0.5086 -1.2540
   93SAPS  C220 9157   4.541   2.411   7.785 -0.5623  0.3994  0.4260
   93SAPS  H20R 9158   4.649   2.388   7.772 -0.2008 -0.1232  3.5911
   93SAPS  H20S 9159   4.488   2.314   7.797  1.4874 -0.6610  1.3380
   93SAPS  H20T 9160   4.541   2.464   7.882  1.9041  1.8794 -0.2876
   93SAPS   C33 9161   4.117   2.749   6.207 -0.1389 -0.0989  0.4889
   93SAPS   H3X 9162   4.181   2.669   6.248  0.2216 -0.1520 -0.1757
   93SAPS   H3Y 9163   4.036   2.700   6.150 -0.6138  0.3278  0.7804
   93SAPS   C34 9164   4.053   2.850   6.312  1.0317  0.9079 -0.3838
   93SAPS   H4X 9165   3.992   2.923   6.254 -1.5420  0.1323  1.1818
   93SAPS   H4Y 9166   4.132   2.912   6.360  0.8451  1.0731 -0.2836
   93SAPS   C35 9167   3.961   2.789   6.429  0.2144 -0.6711  0.3325
   93SAPS   H5X 9168   3.891   2.712   6.390 -1.1437  1.3762 -1.4640
   93SAPS   H5Y 9169   3.907   2.874   6.475 -1.4430 -2.2941  1.5278
   93SAPS   C36 9170   4.039   2.730   6.547  0.5746  0.4185  0.6080
   93SAPS   H6X 9171   4.139   2.777   6.565  1.0544  1.1364 -3.1873
   93SAPS   H6Y 9172   4.066   2.625   6.523 -0.8074 -0.0284  0.9260
   93SAPS   C37 9173   3.957   2.743   6.674  0.5125  0.3782  0.1312
   93SAPS   H7X 9174   3.855   2.699   6.675  1.0379 -0.9285 -0.7687
   93SAPS   H7Y 9175   3.944   2.851   6.695 -1.9524  0.1659  0.0201
   93SAPS   C38 9176   4.026   2.679   6.798 -0.8896  0.7175 -0.2584
   93SAPS   H8X 9177   4.026   2.568   6.787 -1.9634  0.3888  2.2794
   93SAPS   H8Y 9178   3.967   2.691   6.892  0.4013 -1.3573  0.8974
   93SAPS   C39 9179   4.170   2.725   6.826 -0.1589 -0.0682  0.0742
   93SAPS   H9X 9180   4.229   2.688   6.740  0.6459  0.7016  0.2876
   93SAPS   H9Y 9181   4.212   2.673   6.916  0.7584  0.2404 -0.1633
   93SAPS  C310 9182   4.169   2.879   6.835  0.6624 -0.9508 -0.1466
   93SAPS  H10X 9183   4.127   2.922   6.742 -0.6223  0.7635  1.1586
   93SAPS  H10Y 9184   4.276   2.904   6.850  0.2433  1.8438 -1.2165
   93SAPS  C311 9185   4.069   2.933   6.940 -0.2417  0.2053 -0.0759
   93SAPS  H11X 9186   3.966   2.898   6.917  0.1385 -2.2555  1.5771
   93SAPS  H11Y 9187   4.067   3.044   6.937 -1.1210  0.2194  0.5833
   93SAPS  C312 9188   4.112   2.891   7.085  0.8142 -0.3611 -0.6184
   93SAPS  H12X 9189   4.081   2.785   7.093  0.5324 -0.1339  2.3466
   93SAPS  H12Y 9190   4.044   2.939   7.158  0.2634 -1.0862 -0.6454
   93SAPS  C313 9191   4.253   2.901   7.131 -0.4077  0.0641  0.7079
   93SAPS  H13X 9192   4.311   2.840   7.058 -2.6637 -0.1477 -1.0134
   93SAPS  H13Y 9193   4.263   2.864   7.235 -0.5613  1.7888  1.3692
   93SAPS  C314 9194   4.305   3.043   7.127 -0.4630  0.0790  0.5781
   93SAPS  H14X 9195   4.255   3.116   7.195 -0.5975  0.6791 -0.1504
   93SAPS  H14Y 9196   4.284   3.074   7.022 -0.8693  0.0613  0.6494
   93SAPS  C315 9197   4.456   3.045   7.166  0.4595 -0.5372  0.3976
   93SAPS  H15X 9198   4.474   3.155   7.165 -2.4908  0.0248 -0.8475
   93SAPS  H15Y 9199   4.522   2.991   7.095  0.1025 -0.6914  0.1808
   93SAPS  C316 9200   4.472   2.997   7.311 -0.6254  0.6040  0.2558
   93SAPS  H16X 9201   4.579   3.008   7.342 -0.3311 -1.5099  0.0838
   93SAPS  H16Y 9202   4.443   2.891   7.326 -2.0277  0.3699 -3.2606
   93SAPS  C317 9203   4.391   3.086   7.412  0.3140  0.3100  0.7153
   93SAPS  H17X 9204   4.285   3.087   7.379  0.2838  1.8076  0.7899
   93SAPS  H17Y 9205   4.430   3.188   7.392  0.4920 -0.0291 -0.8009
   93SAPS  C318 9206   4.414   3.037   7.558 -0.0415  0.4080 -0.6704
   93SAPS  H18X 9207   4.333   3.081   7.620 -1.6504 -0.8221 -1.8000
   93SAPS  H18Y 9208   4.512   3.074   7.593 -1.3173  2.5714  0.9179
   93SAPS  H18Z 9209   4.412   2.928   7.577  2.4190  0.7780  2.5347
   94SAPS     N 9210   4.741   4.856   5.288 -0.2171 -0.2444  0.5097
   94SAPS   HN1 9211   4.808   4.903   5.351  2.0831 -1.3382 -0.9983
   94SAPS   HN2 9212   4.786   4.780   5.233 -0.9525 -0.7853  0.6402
   94SAPS   HN3 9213   4.718   4.936   5.225  1.4013  0.0431  0.2618
   94SAPS   C12 9214   4.623   4.802   5.353 -0.2068  0.9604 -0.6151
   94SAPS  H12A 9215   4.530   4.837   5.310 -0.0138  2.7309  0.3219
   94SAPS   C13 9216   4.608   4.654   5.330  0.0339 -1.2373 -0.0170
   94SAPS  O13A 9217   4.677   4.595   5.251 -0.3591 -0.0421  0.4338
   94SAPS  O13B 9218   4.500   4.612   5.380  0.7876 -0.0910  0.2200
   94SAPS   C11 9219   4.629   4.825   5.503 -0.3258  0.3959 -0.5786
   94SAPS  H11A 9220   4.719   4.772   5.542  0.6389  0.8693 -2.0990
   94SAPS  H11B 9221   4.539   4.779   5.550 -0.2167  1.2526  0.5121
   94SAPS     P 9222   4.506   5.040   5.613 -0.2951  0.2262 -0.2424
   94SAPS   O13 9223   4.550   5.180   5.639  0.0951 -0.5613  0.0640
   94SAPS   O14 9224   4.393   5.012   5.528 -0.1644  0.2673  0.1641
   94SAPS   O12 9225   4.631   4.960   5.546  0.1439 -0.3786 -0.3276
   94SAPS   O11 9226   4.496   4.967   5.758  0.6077 -0.1195  0.3871
   94SAPS    C1 9227   4.592   4.998   5.862  0.1870  0.1671 -0.1603
   94SAPS    HA 9228   4.614   5.106   5.855  1.5302 -0.0736  0.0961
   94SAPS    HB 9229   4.541   4.996   5.960 -1.1253 -2.4957 -0.7943
   94SAPS    C2 9230   4.716   4.916   5.869  1.0303 -0.0218  0.9982
   94SAPS    HS 9231   4.766   4.911   5.770  4.3610 -1.9765  2.5742
   94SAPS   O21 9232   4.675   4.782   5.911  0.6286 -0.1047 -0.2810
   94SAPS   C21 9233   4.756   4.684   5.903 -0.3336 -0.0673 -0.6045
   94SAPS   O22 9234   4.874   4.699   5.875 -0.4484  0.5046  0.0602
   94SAPS   C22 9235   4.684   4.559   5.933  0.2863  1.0919 -0.0226
   94SAPS   H2R 9236   4.590   4.557   5.874  0.0779 -0.6479  0.3090
   94SAPS   H2S 9237   4.734   4.467   5.894 -1.5252 -0.0566  0.2643
   94SAPS    C3 9238   4.824   4.976   5.969 -0.0962  0.1819  0.4366
   94SAPS    HX 9239   4.854   5.072   5.922  1.4623 -0.5556 -0.1262
   94SAPS    HY 9240   4.918   4.917   5.965  1.7243  2.9900 -0.5019
   94SAPS   O31 9241   4.759   5.009   6.095 -0.4889  0.2561  0.2307
   94SAPS   C31 9242   4.794   4.921   6.196  0.1495  0.6514  0.7251
   94SAPS   O32 9243   4.885   4.841   6.187 -0.1471  0.1852  0.2625
   94SAPS   C32 9244   4.701   4.946   6.314  0.1533 -0.8878 -0.9312
   94SAPS   H2X 9245   4.609   4.997   6.277  0.2021  0.1663  0.3336
   94SAPS   H2Y 9246   4.764   5.016   6.373  0.9290  1.5633 -4.3291
   94SAPS   C23 9247   4.657   4.545   6.077  0.2210 -0.0509 -0.6208
   94SAPS   H3R 9248   4.567   4.480   6.076  0.2006 -0.0780  0.6855
   94SAPS   H3S 9249   4.614   4.642   6.111  0.3587 -0.4604  0.7853
   94SAPS   C24 9250   4.773   4.496   6.165 -0.7189 -0.5261 -0.6458
   94SAPS   H4R 9251   4.834   4.584   6.196 -2.0114 -0.0591  0.7045
   94SAPS   H4S 9252   4.835   4.439   6.093 -0.0542  1.7603 -1.9794
   94SAPS   C25 9253   4.710   4.403   6.275 -0.0814  0.0178 -0.8033
   94SAPS   H5R 9254   4.632   4.331   6.245 -1.0107  1.5392 -2.2015
   94SAPS   C26 9255   4.748   4.396   6.407  0.6293  0.4401  0.4796
   94SAPS   H6R 9256   4.704   4.316   6.469  0.2429 -1.3446 -1.9807
   94SAPS   C27 9257   4.855   4.477   6.469 -0.2633 -0.3498  0.5134
   94SAPS   H7R 9258   4.802   4.520   6.557  0.9517  3.3687 -0.3965
   94SAPS   H7S 9259   4.880   4.573   6.418  1.8801  0.7147  3.3131
   94SAPS   C28 9260   4.984   4.400   6.491  0.3829  0.4872 -0.2231
   94SAPS   H8R 9261   5.025   4.361   6.397  1.0325 -0.4132  0.4257
   94SAPS   C29 9262   5.055   4.383   6.607  0.0700  0.4571  0.2520
   94SAPS   H9R 9263   5.154   4.336   6.617 -0.3292 -0.6418 -0.7577
   94SAPS  C210 9264   5.003   4.426   6.739 -0.2661 -0.3232 -0.1740
   94SAPS  H10R 9265   4.990   4.342   6.810  2.0431 -0.9601 -0.4395
   94SAPS  H10S 9266   4.904   4.477   6.734  0.0857  0.7580  2.1587
   94SAPS  C211 9267   5.082   4.533   6.808  0.1690  0.1658 -0.2544
   94SAPS  H11R 9268   5.153   4.588   6.744 -1.5406  1.3091 -1.2641
   94SAPS  C212 9269   5.054   4.563   6.933 -0.2432  0.1582 -0.4605
   94SAPS  H12R 9270   5.108   4.642   6.987 -2.7035  1.3369  0.4306
   94SAPS  C213 9271   4.955   4.502   7.030 -0.6639 -0.1584 -0.4982
   94SAPS  H13R 9272   4.910   4.405   6.998 -0.2832 -1.5268  2.7301
   94SAPS  H13S 9273   4.862   4.564   7.027 -0.4904  0.1570  0.2848
   94SAPS  C214 9274   5.007   4.492   7.164 -0.7602  0.8087 -0.3760
   94SAPS  H14R 9275   5.071   4.402   7.162  0.3236  1.5720 -0.8719
   94SAPS  C215 9276   4.994   4.570   7.275 -0.7741 -0.8483  0.5034
   94SAPS  H15R 9277   5.043   4.556   7.372  0.4878  3.6224  0.7435
   94SAPS  C216 9278   4.915   4.698   7.285 -0.3734 -0.8118  0.2698
   94SAPS  H16R 9279   4.846   4.692   7.372 -0.2062  0.2262  0.4886
   94SAPS  H16S 9280   4.850   4.708   7.196 -1.8683  0.0415  1.3976
   94SAPS  C217 9281   5.006   4.818   7.311  0.2761 -0.6172  0.2168
   94SAPS  H17R 9282   5.078   4.847   7.231  0.4142  0.0136  0.5575
   94SAPS  H17S 9283   5.062   4.806   7.406  1.2606 -1.4410 -0.4416
   94SAPS  C218 9284   4.926   4.947   7.325 -0.6053 -0.4262 -1.1169
   94SAPS  H18R 9285   4.891   4.946   7.430  0.6123 -1.0412 -0.7025
   94SAPS  H18S 9286   4.832   4.941   7.265 -0.7334  0.7099 -1.0640
   94SAPS  C219 9287   4.994   5.083   7.306  0.2284  0.0003 -0.5668
   94SAPS  H19R 9288   5.068   5.089   7.389  0.6265  1.8057 -1.0194
   94SAPS  H19S 9289   4.916   5.161   7.317  0.0986 -0.0360 -1.1791
   94SAPS  C220 9290   5.059   5.095   7.171 -0.1468 -0.1354 -0.1476
   94SAPS  H20R 9291   5.052   5.201   7.137  0.1180 -0.1601 -0.2870
   94SAPS  H20S 9292   4.996   5.045   7.095 -1.5283  2.5587 -0.9117
   94SAPS  H20T 9293   5.161   5.053   7.158 -0.2202 -1.0649  1.9090
   94SAPS   C33 9294   4.656   4.816   6.391  0.1579 -0.5256  0.5534
   94SAPS   H3X 9295   4.738   4.761   6.441  0.3773  0.8825  1.8323
   94SAPS   H3Y 9296   4.601   4.749   6.322 -1.8395 -0.7433  2.2546
   94SAPS   C34 9297   4.568   4.840   6.502  0.5365  0.6331 -0.4975
   94SAPS   H4X 9298   4.464   4.860   6.468 -0.0079 -0.2934  0.5445
   94SAPS   H4Y 9299   4.609   4.919   6.569 -0.5521  0.9661 -0.1959
   94SAPS   C35 9300   4.547   4.711   6.579  0.1080  1.0617  0.0821
   94SAPS   H5X 9301   4.638   4.684   6.637 -0.7860  0.8339  1.4293
   94SAPS   H5Y 9302   4.527   4.632   6.504  0.7993  0.2382  0.7445
   94SAPS   C36 9303   4.427   4.720   6.671  0.6313 -0.6014  0.7478
   94SAPS   H6X 9304   4.351   4.757   6.599 -0.3564 -2.2978  0.8588
   94SAPS   H6Y 9305   4.431   4.804   6.744  0.8965  1.0035 -1.0497
   94SAPS   C37 9306   4.377   4.590   6.736 -0.2316 -0.1831  0.3611
   94SAPS   H7X 9307   4.464   4.547   6.790 -0.3551 -0.1681  0.5749
   94SAPS   H7Y 9308   4.340   4.515   6.663 -1.1554 -1.7864  2.3643
   94SAPS   C38 9309   4.262   4.611   6.831  0.2812  0.1271 -0.6369
   94SAPS   H8X 9310   4.174   4.655   6.779  1.0378  2.2655 -0.2285
   94SAPS   H8Y 9311   4.291   4.690   6.904 -0.7699  0.6833 -0.8075
   94SAPS   C39 9312   4.225   4.487   6.924 -0.6538 -0.6201 -0.9037
   94SAPS   H9X 9313   4.201   4.404   6.854  1.5985 -2.1199 -0.0242
   94SAPS   H9Y 9314   4.132   4.511   6.980 -2.4829 -0.6520 -3.6857
   94SAPS  C310 9315   4.328   4.442   7.030 -0.2133 -0.3887 -1.0902
   94SAPS  H10X 9316   4.425   4.435   6.976  0.9123 -0.0281  0.7847
   94SAPS  H10Y 9317   4.308   4.343   7.076 -0.6811  0.1965  0.0206
   94SAPS  C311 9318   4.346   4.550   7.146  0.6062 -0.4690  0.3921
   94SAPS  H11X 9319   4.242   4.563   7.183  0.6920  1.1131  0.1472
   94SAPS  H11Y 9320   4.377   4.644   7.096 -0.1073  0.7600  2.1541
   94SAPS  C312 9321   4.433   4.510   7.267 -0.9749  0.2858  0.2403
   94SAPS  H12X 9322   4.540   4.504   7.237 -0.6655  2.9625  0.5329
   94SAPS  H12Y 9323   4.391   4.412   7.297 -1.0513  0.6357  1.2931
   94SAPS  C313 9324   4.449   4.607   7.382 -0.1345  0.0810  0.3129
   94SAPS  H13X 9325   4.346   4.620   7.423 -0.6326  0.7523 -1.0926
   94SAPS  H13Y 9326   4.479   4.707   7.344 -0.2419  0.2502  0.6684
   94SAPS  C314 9327   4.544   4.551   7.489  0.6398 -0.1232 -0.0165
   94SAPS  H14X 9328   4.642   4.535   7.439  0.9781 -0.8982  0.8452
   94SAPS  H14Y 9329   4.517   4.447   7.519  1.3527 -0.3177 -0.0258
   94SAPS  C315 9330   4.555   4.645   7.613  0.8793 -0.2082 -0.1831
   94SAPS  H15X 9331   4.468   4.630   7.680  1.6824  2.3037  1.5684
   94SAPS  H15Y 9332   4.545   4.752   7.583 -0.5162  0.1062  1.3218
   94SAPS  C316 9333   4.691   4.631   7.686 -0.7083  0.0367  0.1989
   94SAPS  H16X 9334   4.664   4.687   7.778  0.3189 -1.0758  1.2175
   94SAPS  H16Y 9335   4.770   4.680   7.625 -0.6565 -1.0393 -0.6446
   94SAPS  C317 9336   4.724   4.497   7.745 -0.1167 -0.0673 -0.2847
   94SAPS  H17X 9337   4.817   4.505   7.804  0.2214  2.4458 -1.0227
   94SAPS  H17Y 9338   4.748   4.432   7.658  0.1636 -0.3370 -0.0033
   94SAPS  C318 9339   4.621   4.426   7.833 -0.1024  0.2717  0.4923
   94SAPS  H18X 9340   4.590   4.491   7.918 -1.2108 -0.9753  1.0804
   94SAPS  H18Y 9341   4.657   4.327   7.868  0.5329  0.6822  1.0231
   94SAPS  H18Z 9342   4.537   4.397   7.767  0.3940 -2.6003  0.9732
   95SAPS     N 9343   1.041   3.469   5.518  0.2123 -0.9133  0.6211
   95SAPS   HN1 9344   0.977   3.392   5.489 -1.8194 -0.4407  3.4423
   95SAPS   HN2 9345   1.136   3.444   5.484  0.6309  0.5468  0.6259
   95SAPS   HN3 9346   1.049   3.466   5.622  0.1493  0.3911  0.6856
   95SAPS   C12 9347   0.997   3.594   5.450  0.1406  0.0392 -0.3174
   95SAPS  H12A 9348   1.081   3.656   5.476 -0.0097 -0.2585  0.9497
   95SAPS   C13 9349   0.979   3.589   5.296 -0.0490 -0.0312 -0.0871
   95SAPS  O13A 9350   1.010   3.482   5.238  0.2351 -0.0648 -0.4589
   95SAPS  O13B 9351   0.952   3.693   5.229 -0.9159 -0.4279 -1.1651
   95SAPS   C11 9352   0.868   3.648   5.532 -0.4517 -1.0587 -0.4737
   95SAPS  H11A 9353   0.773   3.597   5.508 -0.7407 -0.8739  0.2588
   95SAPS  H11B 9354   0.858   3.755   5.502 -1.0385 -0.7270  0.8574
   95SAPS     P 9355   0.760   3.623   5.763 -0.3202 -0.1709 -0.1164
   95SAPS   O13 9356   0.701   3.757   5.791 -0.1475  0.4043 -0.1423
   95SAPS   O14 9357   0.679   3.519   5.698  0.2869  0.2855  0.9813
   95SAPS   O12 9358   0.891   3.643   5.674 -0.3344  0.0188  0.1244
   95SAPS   O11 9359   0.814   3.562   5.897 -0.4302 -0.1597 -0.0474
   95SAPS    C1 9360   0.829   3.624   6.019  0.5931 -0.1476  0.0497
   95SAPS    HA 9361   0.822   3.735   6.017  0.6067 -0.1485 -0.0532
   95SAPS    HB 9362   0.750   3.581   6.084  1.6367 -2.3429 -0.0218
   95SAPS    C2 9363   0.960   3.596   6.086 -0.2279  0.1995  0.6322
   95SAPS    HS 9364   0.961   3.644   6.186  0.2165 -1.2946  1.3845
   95SAPS   O21 9365   1.061   3.655   6.005  0.3279 -0.0209  0.2578
   95SAPS   C21 9366   1.088   3.778   6.010 -0.1220 -0.3478  0.3404
   95SAPS   O22 9367   1.027   3.860   6.079  0.2481  0.2173 -0.4224
   95SAPS   C22 9368   1.202   3.832   5.929 -0.3044  0.4623  0.1586
   95SAPS   H2R 9369   1.151   3.891   5.849 -3.9003  1.7748  3.1516
   95SAPS   H2S 9370   1.237   3.911   5.998 -0.0675  1.3646 -0.9556
   95SAPS    C3 9371   0.984   3.442   6.109  0.1518  0.1051 -0.4032
   95SAPS    HX 9372   0.970   3.380   6.018  1.3641 -0.3413 -0.2996
   95SAPS    HY 9373   0.893   3.410   6.164  0.0250  0.7032 -0.2523
   95SAPS   O31 9374   1.103   3.408   6.186  0.0997 -0.0282 -0.9822
   95SAPS   C31 9375   1.199   3.340   6.132 -0.4007 -0.7109 -0.9845
   95SAPS   O32 9376   1.196   3.301   6.020  0.0787  0.4619  0.0742
   95SAPS   C32 9377   1.315   3.335   6.222 -0.6203  0.4240  0.3791
   95SAPS   H2X 9378   1.285   3.315   6.327  1.3830 -0.0917  0.9033
   95SAPS   H2Y 9379   1.364   3.435   6.219  2.5810 -0.9899  0.8123
   95SAPS   C23 9380   1.301   3.738   5.866 -1.0584  0.3789  0.2818
   95SAPS   H3R 9381   1.373   3.796   5.803  1.2406 -1.2925  1.2324
   95SAPS   H3S 9382   1.265   3.655   5.801  3.3794 -1.3913 -0.3049
   95SAPS   C24 9383   1.389   3.656   5.959 -0.2299  0.3966  0.2055
   95SAPS   H4R 9384   1.449   3.585   5.898 -1.3077 -0.5308  0.2077
   95SAPS   H4S 9385   1.331   3.595   6.030 -0.7966  0.5354 -0.1378
   95SAPS   C25 9386   1.477   3.749   6.041  0.1068 -0.1439 -0.1999
   95SAPS   H5R 9387   1.564   3.790   5.989 -0.0444  1.6064  0.8621
   95SAPS   C26 9388   1.471   3.781   6.173  0.3804  0.4640  0.0640
   95SAPS   H6R 9389   1.527   3.868   6.208 -1.5986  1.0029  2.1091
   95SAPS   C27 9390   1.371   3.727   6.271  0.2364 -0.3797 -0.6662
   95SAPS   H7R 9391   1.431   3.663   6.339  0.3303  0.8666  0.4646
   95SAPS   H7S 9392   1.308   3.657   6.212  0.5911 -0.1344 -1.3524
   95SAPS   C28 9393   1.287   3.838   6.332 -0.4790 -1.1130  0.3152
   95SAPS   H8R 9394   1.256   3.925   6.272  0.4767  0.6678  2.2707
   95SAPS   C29 9395   1.227   3.827   6.450 -0.1033 -0.1859  0.5318
   95SAPS   H9R 9396   1.186   3.923   6.482  0.1484  1.5192 -3.6670
   95SAPS  C210 9397   1.214   3.708   6.540  0.2674  0.1941  0.0219
   95SAPS  H10R 9398   1.297   3.635   6.550  0.3408 -0.0827 -2.1297
   95SAPS  H10S 9399   1.138   3.638   6.498 -0.2494 -0.1583  1.4753
   95SAPS  C211 9400   1.181   3.742   6.682  0.4451 -0.1856 -0.0240
   95SAPS  H11R 9401   1.074   3.728   6.701 -0.0391 -0.1290 -2.4698
   95SAPS  C212 9402   1.268   3.763   6.786 -0.2344 -0.2041 -0.0853
   95SAPS  H12R 9403   1.232   3.785   6.888  3.0000  1.7318  0.7823
   95SAPS  C213 9404   1.417   3.757   6.770  0.4807  0.3656  0.2229
   95SAPS  H13R 9405   1.443   3.835   6.695 -0.1601  0.9201  0.5606
   95SAPS  H13S 9406   1.458   3.669   6.718  0.4243  0.9399 -0.8173
   95SAPS  C214 9407   1.491   3.787   6.897  0.0500  0.3348 -0.3538
   95SAPS  H14R 9408   1.491   3.893   6.928 -1.7691  1.0535 -2.5401
   95SAPS  C215 9409   1.578   3.706   6.953 -0.2819 -0.1535  0.5124
   95SAPS  H15R 9410   1.624   3.733   7.049  2.8141  0.8470 -1.1181
   95SAPS  C216 9411   1.612   3.561   6.913 -0.0168 -0.9179 -0.7513
   95SAPS  H16R 9412   1.514   3.513   6.892 -0.8023 -0.6400  1.9161
   95SAPS  H16S 9413   1.641   3.503   7.003 -0.7462 -1.5856 -0.9378
   95SAPS  C217 9414   1.712   3.535   6.796  0.5137  0.0642 -0.6346
   95SAPS  H17R 9415   1.685   3.585   6.701 -0.0855  1.2775  0.1507
   95SAPS  H17S 9416   1.723   3.424   6.789  0.9682  0.1018 -0.5647
   95SAPS  C218 9417   1.854   3.579   6.834 -0.3735 -0.3004 -0.2872
   95SAPS  H18R 9418   1.853   3.676   6.888  0.1614  0.5023 -1.6647
   95SAPS  H18S 9419   1.899   3.590   6.733 -3.9097  0.2862 -1.9842
   95SAPS  C219 9420   1.932   3.467   6.910  0.1086 -0.4668  0.4759
   95SAPS  H19R 9421   1.912   3.367   6.866 -1.1169  0.6300 -1.6104
   95SAPS  H19S 9422   1.884   3.470   7.011 -2.0719  0.1245 -0.5261
   95SAPS  C220 9423   2.085   3.493   6.925  0.7026  0.1649 -0.4271
   95SAPS  H20R 9424   2.136   3.424   6.996  0.3054  0.9956  0.6998
   95SAPS  H20S 9425   2.090   3.583   6.989  1.0849 -1.7544  2.4211
   95SAPS  H20T 9426   2.131   3.502   6.824 -2.3730  0.2675 -1.9368
   95SAPS   C33 9427   1.422   3.231   6.179  0.0517  0.0456 -0.0594
   95SAPS   H3X 9428   1.443   3.235   6.070  2.1040 -0.1559  0.2885
   95SAPS   H3Y 9429   1.379   3.132   6.204 -0.7397 -0.1009 -1.8929
   95SAPS   C34 9430   1.555   3.244   6.249 -0.7478 -0.2151 -0.5942
   95SAPS   H4X 9431   1.614   3.151   6.228  0.3981  0.2458  0.4537
   95SAPS   H4Y 9432   1.538   3.245   6.359 -0.1637 -0.6637 -0.4932
   95SAPS   C35 9433   1.637   3.370   6.215  0.3270 -0.2971 -0.0901
   95SAPS   H5X 9434   1.596   3.459   6.268 -1.4404  0.2692 -2.2747
   95SAPS   H5Y 9435   1.626   3.389   6.106 -0.1741 -1.4402 -0.2512
   95SAPS   C36 9436   1.788   3.336   6.226 -0.1814 -0.2434  0.0755
   95SAPS   H6X 9437   1.843   3.389   6.146  0.2433 -0.5467  0.1624
   95SAPS   H6Y 9438   1.821   3.233   6.198  1.4565  0.5964 -1.2858
   95SAPS   C37 9439   1.851   3.352   6.369 -0.2454 -0.0575  0.2981
   95SAPS   H7X 9440   1.825   3.268   6.437 -1.0245 -0.5024 -0.5456
   95SAPS   H7Y 9441   1.818   3.448   6.414 -0.5926 -0.1340  0.2042
   95SAPS   C38 9442   2.001   3.349   6.348  0.1694 -0.0146  0.2332
   95SAPS   H8X 9443   2.037   3.398   6.255 -0.4671 -2.1691 -1.2181
   95SAPS   H8Y 9444   2.026   3.244   6.324  1.4097  0.7585 -2.2598
   95SAPS   C39 9445   2.076   3.396   6.476  0.0147 -0.2409 -0.0513
   95SAPS   H9X 9446   2.008   3.365   6.559 -1.2248  4.5847  1.0581
   95SAPS   H9Y 9447   2.082   3.507   6.482 -0.5583 -0.2147  0.1848
   95SAPS  C310 9448   2.214   3.333   6.498  0.2182 -0.5871  0.3520
   95SAPS  H10X 9449   2.264   3.394   6.576 -2.1030  3.4681 -1.0691
   95SAPS  H10Y 9450   2.256   3.357   6.399 -0.7424  3.5832  0.7763
   95SAPS  C311 9451   2.213   3.176   6.526 -0.1459 -0.1876  0.1853
   95SAPS  H11X 9452   2.319   3.146   6.513 -0.2234 -0.0444 -0.8229
   95SAPS  H11Y 9453   2.152   3.129   6.446 -0.3474 -0.6956  0.6325
   95SAPS  C312 9454   2.160   3.121   6.660  0.6224 -0.5237 -0.8663
   95SAPS  H12X 9455   2.158   3.010   6.666 -3.0032 -0.5508 -0.3989
   95SAPS  H12Y 9456   2.058   3.160   6.680  0.8505 -0.6024  0.5780
   95SAPS  C313 9457   2.255   3.163   6.772  0.0610  0.3497  0.7602
   95SAPS  H13X 9458   2.258   3.271   6.796 -1.9374  0.6630 -0.1968
   95SAPS  H13Y 9459   2.358   3.124   6.753  0.4192  0.6997  1.9357
   95SAPS  C314 9460   2.221   3.073   6.896 -0.3566  0.0752  0.4684
   95SAPS  H14X 9461   2.245   2.970   6.863  2.2712  1.3172 -1.9832
   95SAPS  H14Y 9462   2.116   3.087   6.928 -0.6317  1.9947 -1.0671
   95SAPS  C315 9463   2.288   3.111   7.029  0.0456 -0.1588 -1.2734
   95SAPS  H15X 9464   2.232   3.063   7.113  0.7297 -0.0465 -0.7433
   95SAPS  H15Y 9465   2.262   3.216   7.056  3.5335  0.4849  0.1473
   95SAPS  C316 9466   2.436   3.107   7.032 -0.0087 -0.3673 -0.3546
   95SAPS  H16X 9467   2.483   3.157   6.946 -0.6090  0.4738 -0.2081
   95SAPS  H16Y 9468   2.473   3.002   7.031 -0.7125 -0.7240  2.4828
   95SAPS  C317 9469   2.510   3.159   7.165  0.4115  0.3317  0.5865
   95SAPS  H17X 9470   2.469   3.260   7.187  0.0082  0.1686  0.6053
   95SAPS  H17Y 9471   2.618   3.168   7.141  0.2772  2.8208  0.6936
   95SAPS  C318 9472   2.486   3.065   7.285  0.1709 -0.3572  0.2827
   95SAPS  H18X 9473   2.377   3.048   7.297  0.2731 -0.9689  0.3870
   95SAPS  H18Y 9474   2.532   3.121   7.369  2.6409 -0.9349 -0.6047
   95SAPS  H18Z 9475   2.545   2.972   7.272 -1.5007 -1.3682 -0.4331
   96SAPS     N 9476   1.535   5.032   5.344  0.3844 -0.0080  0.1966
   96SAPS   HN1 9477   1.567   5.128   5.365  0.9817 -0.4475  1.3914
   96SAPS   HN2 9478   1.621   4.987   5.307 -0.4536 -0.7590 -0.9476
   96SAPS   HN3 9479   1.463   5.030   5.268 -1.6215 -2.8102  1.9691
   96SAPS   C12 9480   1.468   4.964   5.459  0.3629  0.3014  0.4840
   96SAPS  H12A 9481   1.385   5.023   5.494 -0.9544 -0.3433 -1.3623
   96SAPS   C13 9482   1.393   4.827   5.421 -1.3026 -0.8372 -0.0501
   96SAPS  O13A 9483   1.411   4.785   5.305 -0.0775 -0.0854 -0.1270
   96SAPS  O13B 9484   1.322   4.769   5.505  0.4057 -0.7782 -0.5885
   96SAPS   C11 9485   1.571   4.937   5.575  0.7656 -0.1212  0.3852
   96SAPS  H11A 9486   1.644   4.865   5.533  0.8918  2.1003 -3.7410
   96SAPS  H11B 9487   1.508   4.887   5.652  0.1917 -0.8865 -0.5564
   96SAPS     P 9488   1.727   5.063   5.743  0.0504  0.3095  0.2780
   96SAPS   O13 9489   1.756   4.931   5.802  0.3517 -0.8037 -0.2665
   96SAPS   O14 9490   1.848   5.145   5.703 -0.7221  0.1269 -0.2060
   96SAPS   O12 9491   1.636   5.057   5.618  0.1474 -0.0397  0.2224
   96SAPS   O11 9492   1.653   5.169   5.846  0.0303 -0.4217  0.1488
   96SAPS    C1 9493   1.599   5.298   5.794 -0.6192  0.5493  0.6062
   96SAPS    HA 9494   1.642   5.383   5.851 -1.1188  1.3216 -0.1345
   96SAPS    HB 9495   1.615   5.312   5.685  0.9541 -1.3398  0.5335
   96SAPS    C2 9496   1.448   5.308   5.822  0.4121  0.5222  0.2893
   96SAPS    HS 9497   1.396   5.397   5.781 -2.6202 -2.1714 -2.3075
   96SAPS   O21 9498   1.418   5.302   5.963 -0.4806 -0.0889  0.3038
   96SAPS   C21 9499   1.453   5.417   6.028  0.2432  0.2668  0.0240
   96SAPS   O22 9500   1.522   5.506   5.986  0.6694  0.2322  0.5709
   96SAPS   C22 9501   1.381   5.408   6.166  0.6882 -0.6371  0.7997
   96SAPS   H2R 9502   1.270   5.412   6.156  0.8264  0.2768 -0.8464
   96SAPS   H2S 9503   1.407   5.312   6.216 -0.4432 -1.2588  0.2575
   96SAPS    C3 9504   1.367   5.194   5.746  0.8947  0.2941 -0.2823
   96SAPS    HX 9505   1.401   5.192   5.640  0.7006 -1.9332 -0.3396
   96SAPS    HY 9506   1.259   5.219   5.740  0.7044 -0.8173 -2.3763
   96SAPS   O31 9507   1.400   5.062   5.791 -0.1185 -0.7835 -0.0835
   96SAPS   C31 9508   1.320   5.013   5.884 -0.5269 -0.6529  0.6100
   96SAPS   O32 9509   1.208   5.056   5.917 -0.5302 -0.2611  0.1084
   96SAPS   C32 9510   1.374   4.883   5.948  0.9330 -0.9059  0.0914
   96SAPS   H2X 9511   1.403   4.825   5.858 -3.6814 -1.2611 -1.4152
   96SAPS   H2Y 9512   1.286   4.844   6.004 -0.8397 -1.1698 -2.6797
   96SAPS   C23 9513   1.410   5.521   6.262 -0.7691  0.3946 -0.4040
   96SAPS   H3R 9514   1.428   5.609   6.196  0.5511  0.7122  0.3468
   96SAPS   H3S 9515   1.503   5.500   6.319 -0.9608  0.1939 -0.1625
   96SAPS   C24 9516   1.300   5.555   6.365 -0.5475 -0.4773 -0.0070
   96SAPS   H4R 9517   1.208   5.581   6.310 -0.8534 -0.4056  0.5351
   96SAPS   H4S 9518   1.325   5.652   6.414 -1.6640  0.7213 -1.7182
   96SAPS   C25 9519   1.271   5.439   6.459  0.3303 -0.1315 -0.0765
   96SAPS   H5R 9520   1.217   5.351   6.421 -2.3345  1.6698 -0.7738
   96SAPS   C26 9521   1.312   5.437   6.593 -0.0800 -0.1979 -0.2657
   96SAPS   H6R 9522   1.276   5.358   6.661  1.7323 -2.7288 -2.0543
   96SAPS   C27 9523   1.404   5.527   6.674  0.5941  0.7189 -0.3009
   96SAPS   H7R 9524   1.360   5.547   6.774 -0.9261  2.1369 -1.1976
   96SAPS   H7S 9525   1.405   5.632   6.636  0.9682  0.3120 -1.4591
   96SAPS   C28 9526   1.549   5.491   6.682 -0.2953  0.2750  0.4420
   96SAPS   H8R 9527   1.590   5.488   6.580 -3.0629  1.9071 -0.8450
   96SAPS   C29 9528   1.633   5.458   6.781 -0.0559 -0.9661  0.0678
   96SAPS   H9R 9529   1.736   5.432   6.751  0.0300  0.2659 -0.8032
   96SAPS  C210 9530   1.588   5.450   6.929 -0.1435  0.2729  0.0905
   96SAPS  H10R 9531   1.482   5.418   6.924 -0.0843 -0.1463  1.2850
   96SAPS  H10S 9532   1.581   5.552   6.972  0.5935  0.1351  0.5410
   96SAPS  C211 9533   1.677   5.371   7.022 -0.0721  1.2521 -0.6296
   96SAPS  H11R 9534   1.785   5.362   7.001 -0.3040 -0.2708 -1.3345
   96SAPS  C212 9535   1.625   5.297   7.120  0.1217  0.4213 -0.0705
   96SAPS  H12R 9536   1.692   5.241   7.187 -1.4974  1.2040  2.3168
   96SAPS  C213 9537   1.478   5.286   7.152  0.3436  0.1142 -0.2813
   96SAPS  H13R 9538   1.423   5.280   7.055  0.0333  0.1914 -0.1108
   96SAPS  H13S 9539   1.454   5.388   7.188  2.1346  0.9763 -1.3390
   96SAPS  C214 9540   1.449   5.172   7.249 -0.5837  0.5993  0.0890
   96SAPS  H14R 9541   1.449   5.070   7.206 -0.5236  0.8321 -0.4689
   96SAPS  C215 9542   1.455   5.179   7.383 -0.1423  1.2052 -0.2335
   96SAPS  H15R 9543   1.454   5.082   7.436 -0.8497  0.4731 -1.5265
   96SAPS  C216 9544   1.471   5.307   7.460 -0.6311 -0.0323 -0.0030
   96SAPS  H16R 9545   1.367   5.335   7.486 -0.0713 -0.0692  2.6182
   96SAPS  H16S 9546   1.516   5.387   7.397 -0.3560  0.0669  0.3141
   96SAPS  C217 9547   1.555   5.297   7.581  0.6278  0.2262  0.2147
   96SAPS  H17R 9548   1.657   5.271   7.547  0.2739 -1.6550  0.4824
   96SAPS  H17S 9549   1.526   5.217   7.652 -0.2642  0.9274  0.6659
   96SAPS  C218 9550   1.558   5.435   7.648  0.5595  0.8700  0.6021
   96SAPS  H18R 9551   1.456   5.463   7.684  0.7782  0.9572  1.1680
   96SAPS  H18S 9552   1.581   5.513   7.572 -1.0428 -0.3347 -1.2218
   96SAPS  C219 9553   1.657   5.461   7.763 -0.1833  0.1988  0.3482
   96SAPS  H19R 9554   1.753   5.460   7.708 -1.7843 -0.9852 -2.6954
   96SAPS  H19S 9555   1.651   5.368   7.823 -0.7345 -1.4151 -2.0399
   96SAPS  C220 9556   1.633   5.583   7.848 -0.6204  0.5253  0.3788
   96SAPS  H20R 9557   1.718   5.591   7.919  0.4310 -1.4666 -0.5706
   96SAPS  H20S 9558   1.539   5.562   7.903 -1.2017  0.5018 -0.6019
   96SAPS  H20T 9559   1.636   5.675   7.785  1.0134 -2.4425 -4.4068
   96SAPS   C33 9560   1.487   4.906   6.047 -0.5853 -0.3408  0.5598
   96SAPS   H3X 9561   1.576   4.955   6.000 -1.3865  0.1944 -0.4666
   96SAPS   H3Y 9562   1.513   4.805   6.084  0.1338 -1.0490 -1.6679
   96SAPS   C34 9563   1.440   4.990   6.166  0.0426  0.2377 -0.5285
   96SAPS   H4X 9564   1.348   4.943   6.207 -1.2616  2.7107 -0.4341
   96SAPS   H4Y 9565   1.408   5.092   6.136  0.9948  1.2107  1.5182
   96SAPS   C35 9566   1.557   5.000   6.266 -0.3775  0.7991  0.4142
   96SAPS   H5X 9567   1.650   5.030   6.213  0.4741 -1.9113  0.2162
   96SAPS   H5Y 9568   1.581   4.894   6.292 -2.0888  0.6915  1.7072
   96SAPS   C36 9569   1.540   5.083   6.398 -0.7444 -0.3070 -0.2535
   96SAPS   H6X 9570   1.439   5.060   6.439  0.6238 -1.5981  2.6939
   96SAPS   H6Y 9571   1.542   5.190   6.369 -2.6454  0.7197  2.8373
   96SAPS   C37 9572   1.642   5.048   6.506 -0.1694  0.0853  1.3769
   96SAPS   H7X 9573   1.656   5.140   6.567  2.8332  1.4160 -1.0671
   96SAPS   H7Y 9574   1.740   5.039   6.456 -0.5059 -1.2527  0.9233
   96SAPS   C38 9575   1.603   4.929   6.592  0.2936 -0.2040 -0.0212
   96SAPS   H8X 9576   1.590   4.837   6.531  2.0884 -0.6273  0.1803
   96SAPS   H8Y 9577   1.509   4.952   6.646 -1.3895 -4.1321 -0.9399
   96SAPS   C39 9578   1.709   4.893   6.695  0.2072 -0.4834 -0.5564
   96SAPS   H9X 9579   1.811   4.891   6.652 -0.4950 -0.2913 -2.3016
   96SAPS   H9Y 9580   1.691   4.791   6.737 -1.0470 -0.4717 -1.0280
   96SAPS  C310 9581   1.713   4.985   6.822 -0.0908  0.5086  0.2000
   96SAPS  H10X 9582   1.612   4.995   6.869  0.4872  3.6830  1.0073
   96SAPS  H10Y 9583   1.738   5.086   6.785 -1.0884  0.2777 -1.1787
   96SAPS  C311 9584   1.812   4.930   6.927  0.1021 -0.3551  0.4350
   96SAPS  H11X 9585   1.916   4.925   6.888 -0.3615 -0.1236 -0.8961
   96SAPS  H11Y 9586   1.778   4.827   6.949 -0.8623 -0.2640 -0.5097
   96SAPS  C312 9587   1.816   5.016   7.052  0.5310  0.2129 -0.0740
   96SAPS  H12X 9588   1.712   5.036   7.086 -0.0375  0.1901 -1.6724
   96SAPS  H12Y 9589   1.862   5.115   7.031  1.8991  0.0819  2.0585
   96SAPS  C313 9590   1.872   4.947   7.177  0.0578  0.1060 -0.4820
   96SAPS  H13X 9591   1.805   4.860   7.195  0.7538 -0.6087 -1.2986
   96SAPS  H13Y 9592   1.870   5.019   7.262  1.1868  0.8176 -1.0418
   96SAPS  C314 9593   2.011   4.898   7.164 -0.7956 -0.4183 -0.1234
   96SAPS  H14X 9594   2.070   4.991   7.143 -2.0020  0.1392 -1.1737
   96SAPS  H14Y 9595   2.009   4.824   7.081  0.8528 -2.7772  1.8075
   96SAPS  C315 9596   2.061   4.835   7.295  0.5328 -0.3478  0.2124
   96SAPS  H15X 9597   2.019   4.732   7.296  0.5284 -0.3683  2.5803
   96SAPS  H15Y 9598   2.040   4.893   7.387  0.3139 -0.8461  0.4805
   96SAPS  C316 9599   2.214   4.815   7.293 -0.3602  0.2494  0.2068
   96SAPS  H16X 9600   2.257   4.913   7.263 -0.3411 -0.2648 -1.5704
   96SAPS  H16Y 9601   2.233   4.752   7.204 -0.6713  0.3584  0.0598
   96SAPS  C317 9602   2.280   4.764   7.424 -0.4509 -0.3502  0.1458
   96SAPS  H17X 9603   2.240   4.662   7.443  2.5422 -1.8333 -0.8421
   96SAPS  H17Y 9604   2.255   4.836   7.505  0.7657  0.3894 -0.1000
   96SAPS  C318 9605   2.434   4.748   7.422  0.6014 -0.5531 -0.2301
   96SAPS  H18X 9606   2.487   4.842   7.394 -0.7898  0.5021  0.5289
   96SAPS  H18Y 9607   2.468   4.659   7.367  0.6381 -1.5085  1.2720
   96SAPS  H18Z 9608   2.460   4.726   7.528  0.2235 -3.0028 -0.6079
   97SAPS     N 9609   2.200   2.364   5.159 -0.1153 -0.7291 -0.3215
   97SAPS   HN1 9610   2.183   2.449   5.101  0.6159  0.0207  0.5398
   97SAPS   HN2 9611   2.217   2.383   5.260 -0.5494 -0.8144 -0.2308
   97SAPS   HN3 9612   2.284   2.315   5.122  2.3594  0.6044  3.0873
   97SAPS   C12 9613   2.099   2.260   5.144  0.0257 -0.2321  0.3498
   97SAPS  H12A 9614   2.001   2.303   5.155 -0.2137 -0.9278  1.0054
   97SAPS   C13 9615   2.110   2.183   5.005  0.5567  0.0869  0.4455
   97SAPS  O13A 9616   2.224   2.189   4.949  0.2225 -0.4993 -1.1189
   97SAPS  O13B 9617   2.034   2.083   4.992 -0.4062 -0.1849  0.0197
   97SAPS   C11 9618   2.126   2.151   5.253  0.1101 -1.4908  0.5109
   97SAPS  H11A 9619   2.234   2.127   5.246 -0.3766 -3.6119 -0.2565
   97SAPS  H11B 9620   2.075   2.054   5.238  0.7144 -1.6017 -1.0860
   97SAPS     P 9621   1.959   2.206   5.442 -0.2888  0.3363 -0.0462
   97SAPS   O13 9622   1.963   2.247   5.582  0.2425  0.1873 -0.0840
   97SAPS   O14 9623   1.874   2.279   5.348 -0.3179  0.2443  0.4202
   97SAPS   O12 9624   2.111   2.209   5.386 -0.1913  0.1095 -0.3125
   97SAPS   O11 9625   1.926   2.052   5.427 -0.4281 -0.1675 -0.4578
   97SAPS    C1 9626   2.024   1.951   5.471  0.0998 -0.3628  0.6749
   97SAPS    HA 9627   2.068   1.891   5.388  3.6541  1.8225  0.7519
   97SAPS    HB 9628   2.114   1.995   5.519 -0.3383 -0.2102  1.3641
   97SAPS    C2 9629   1.968   1.860   5.586 -0.0769  0.0169 -0.0567
   97SAPS    HS 9630   1.890   1.794   5.544 -0.8370  1.0088 -0.2570
   97SAPS   O21 9631   1.916   1.937   5.696 -0.2005 -1.1785  0.5494
   97SAPS   C21 9632   1.863   1.861   5.788 -0.1823 -0.2855 -0.8918
   97SAPS   O22 9633   1.831   1.743   5.777  0.3010  0.4384  0.0145
   97SAPS   C22 9634   1.833   1.947   5.916 -0.2314 -0.4111  0.7274
   97SAPS   H2R 9635   1.910   2.027   5.916  0.0484 -0.6465 -0.9243
   97SAPS   H2S 9636   1.734   1.991   5.892  0.3696  1.8390  2.0258
   97SAPS    C3 9637   2.088   1.768   5.627  0.4209  0.1127  0.2009
   97SAPS    HX 9638   2.141   1.744   5.533 -1.8590 -1.1521 -0.8307
   97SAPS    HY 9639   2.047   1.673   5.668  2.3174 -0.4406  0.9123
   97SAPS   O31 9640   2.165   1.837   5.726  0.2636  0.2201  0.1329
   97SAPS   C31 9641   2.281   1.773   5.760  0.4388 -0.3449 -0.2726
   97SAPS   O32 9642   2.313   1.662   5.716 -0.8673  0.4803  0.0388
   97SAPS   C32 9643   2.358   1.860   5.854  0.0926 -0.4008 -0.3034
   97SAPS   H2X 9644   2.319   1.964   5.858 -1.5231 -0.8803 -2.0534
   97SAPS   H2Y 9645   2.461   1.860   5.811  1.2327 -1.5837  2.1761
   97SAPS   C23 9646   1.817   1.869   6.048 -0.0591 -0.3546  0.9260
   97SAPS   H3R 9647   1.736   1.793   6.039 -0.2123  0.0643 -3.5377
   97SAPS   H3S 9648   1.789   1.955   6.112 -0.1828  1.8263 -1.8362
   97SAPS   C24 9649   1.951   1.807   6.102  0.3647  0.0245 -0.4945
   97SAPS   H4R 9650   1.924   1.806   6.209 -3.2145 -0.1052 -1.2849
   97SAPS   H4S 9651   2.035   1.880   6.094 -2.2620  3.2914 -0.3803
   97SAPS   C25 9652   1.985   1.678   6.051  0.1281 -0.1413 -0.1655
   97SAPS   H5R 9653   2.035   1.685   5.954  1.7017 -1.3541  0.5132
   97SAPS   C26 9654   1.973   1.565   6.114  0.0881  1.2673  0.3510
   97SAPS   H6R 9655   2.004   1.477   6.057  0.7250  1.4744  0.3699
   97SAPS   C27 9656   1.914   1.525   6.252  0.2795 -0.4623 -0.0534
   97SAPS   H7R 9657   1.896   1.612   6.319  1.4498 -0.1157 -0.1795
   97SAPS   H7S 9658   1.987   1.468   6.313 -0.3567 -1.5066 -0.2358
   97SAPS   C28 9659   1.788   1.446   6.232 -0.4193 -0.2675 -0.1661
   97SAPS   H8R 9660   1.716   1.504   6.172 -0.5208  0.1613  0.3604
   97SAPS   C29 9661   1.754   1.326   6.277 -0.1252 -0.2769  0.3662
   97SAPS   H9R 9662   1.658   1.284   6.243  0.2638  0.0688 -1.2330
   97SAPS  C210 9663   1.843   1.236   6.362 -0.2217  0.5994 -0.2714
   97SAPS  H10R 9664   1.817   1.248   6.470  0.1763 -3.3631  0.4282
   97SAPS  H10S 9665   1.947   1.274   6.370 -0.7424  2.0090  0.1200
   97SAPS  C211 9666   1.849   1.095   6.312  0.6358  0.2471 -0.5647
   97SAPS  H11R 9667   1.871   1.092   6.204  0.3706  1.9269 -0.6871
   97SAPS  C212 9668   1.834   0.981   6.386  1.1500 -0.1387  0.5950
   97SAPS  H12R 9669   1.817   0.888   6.329 -0.0860  0.9130 -0.8226
   97SAPS  C213 9670   1.814   0.985   6.533 -0.1424 -0.2685 -0.5616
   97SAPS  H13R 9671   1.706   0.992   6.560  0.3005 -3.1979  2.6917
   97SAPS  H13S 9672   1.868   1.071   6.578 -0.0128 -0.6488  0.0115
   97SAPS  C214 9673   1.877   0.869   6.600 -0.1002  0.5008  0.2952
   97SAPS  H14R 9674   1.986   0.870   6.581  0.3639 -0.4522  2.5628
   97SAPS  C215 9675   1.824   0.769   6.674  0.6891 -0.1865 -0.3441
   97SAPS  H15R 9676   1.891   0.694   6.717  0.1284  0.5239  1.8991
   97SAPS  C216 9677   1.677   0.749   6.686 -0.8429 -0.0404 -0.2227
   97SAPS  H16R 9678   1.641   0.664   6.623  1.1257 -1.4027  0.3865
   97SAPS  H16S 9679   1.625   0.830   6.631 -0.1479  0.7601  0.2732
   97SAPS  C217 9680   1.617   0.750   6.829 -0.3790  0.2969  0.1876
   97SAPS  H17R 9681   1.669   0.668   6.883  0.6045 -0.3429 -1.6409
   97SAPS  H17S 9682   1.512   0.722   6.806  0.0986  0.4626 -2.5585
   97SAPS  C218 9683   1.629   0.886   6.912 -0.9436 -0.5118 -0.1980
   97SAPS  H18R 9684   1.566   0.965   6.864 -0.0111  0.4204  0.0791
   97SAPS  H18S 9685   1.738   0.911   6.911 -1.0270  0.0005  1.2073
   97SAPS  C219 9686   1.572   0.878   7.059  0.7378 -0.0844 -0.0470
   97SAPS  H19R 9687   1.463   0.859   7.069  0.6564 -0.0566 -0.8500
   97SAPS  H19S 9688   1.575   0.980   7.102  1.6569  0.0346 -0.3665
   97SAPS  C220 9689   1.659   0.786   7.148 -0.5109  0.7213 -0.1399
   97SAPS  H20R 9690   1.642   0.686   7.103 -0.1801  0.4662  0.3053
   97SAPS  H20S 9691   1.611   0.766   7.246  0.2432  0.2015  0.1251
   97SAPS  H20T 9692   1.767   0.810   7.150  0.0309 -0.5856 -4.3316
   97SAPS   C33 9693   2.380   1.808   5.999  0.3895 -0.6299 -0.7851
   97SAPS   H3X 9694   2.433   1.711   5.984 -0.0665 -0.9542 -0.3655
   97SAPS   H3Y 9695   2.284   1.796   6.055 -0.9628  3.3111 -1.9624
   97SAPS   C34 9696   2.477   1.893   6.078  0.7796  0.0602 -0.2046
   97SAPS   H4X 9697   2.422   1.983   6.115 -1.1170 -1.4064  0.7141
   97SAPS   H4Y 9698   2.564   1.923   6.016 -0.1347 -1.3643 -2.2796
   97SAPS   C35 9699   2.534   1.816   6.205 -0.2615 -0.9173 -0.0157
   97SAPS   H5X 9700   2.621   1.875   6.243 -1.4657  1.2924 -0.4788
   97SAPS   H5Y 9701   2.565   1.717   6.168  2.0638  0.0065 -0.6982
   97SAPS   C36 9702   2.428   1.795   6.310 -0.5629  0.3019 -0.2081
   97SAPS   H6X 9703   2.470   1.721   6.382 -1.6606 -0.8651 -0.7163
   97SAPS   H6Y 9704   2.342   1.745   6.260 -0.3047  1.2504 -1.6667
   97SAPS   C37 9705   2.380   1.922   6.380  0.6242 -0.1080  0.0858
   97SAPS   H7X 9706   2.341   1.996   6.307 -1.2475 -0.1434  0.9624
   97SAPS   H7Y 9707   2.467   1.979   6.418  0.9922  0.6616 -1.8214
   97SAPS   C38 9708   2.272   1.894   6.486  0.7074  0.3002  0.0792
   97SAPS   H8X 9709   2.260   1.977   6.559  0.1351 -0.1856  0.5436
   97SAPS   H8Y 9710   2.299   1.807   6.549  1.8832  0.5883  0.0090
   97SAPS   C39 9711   2.130   1.874   6.418  0.7985  0.2918 -0.2295
   97SAPS   H9X 9712   2.128   1.810   6.328 -0.1479  1.6400 -1.2108
   97SAPS   H9Y 9713   2.095   1.973   6.382  0.5653  0.1733 -0.3294
   97SAPS  C310 9714   2.017   1.828   6.518 -0.1520 -0.4484 -0.5177
   97SAPS  H10X 9715   1.918   1.824   6.469  0.3002 -4.4723 -1.4821
   97SAPS  H10Y 9716   2.015   1.903   6.601 -0.8055  0.9239 -1.7304
   97SAPS  C311 9717   2.039   1.686   6.582  0.2184  0.4419 -0.1129
   97SAPS  H11X 9718   2.131   1.680   6.644 -0.8923  0.3711  1.5747
   97SAPS  H11Y 9719   2.042   1.607   6.504 -1.8108  0.4070 -0.2002
   97SAPS  C312 9720   1.934   1.649   6.688  0.1468  0.2690  0.5597
   97SAPS  H12X 9721   1.837   1.633   6.635 -0.2078 -2.0874  1.8215
   97SAPS  H12Y 9722   1.930   1.736   6.757 -0.7053  2.9234 -2.5743
   97SAPS  C313 9723   1.969   1.519   6.757  0.0475  0.3470  0.3002
   97SAPS  H13X 9724   2.077   1.517   6.784 -0.2381  0.4885  1.4839
   97SAPS  H13Y 9725   1.950   1.437   6.685  0.3141  0.0834  0.5247
   97SAPS  C314 9726   1.872   1.498   6.871  0.1707 -1.0093 -0.2679
   97SAPS  H14X 9727   1.771   1.488   6.826 -0.8347  3.8828  0.3353
   97SAPS  H14Y 9728   1.881   1.586   6.939  2.0580  0.0460 -1.7657
   97SAPS  C315 9729   1.900   1.368   6.951 -0.3775 -0.0934  0.9075
   97SAPS  H15X 9730   2.001   1.377   6.996  0.3896  2.7301 -1.0913
   97SAPS  H15Y 9731   1.892   1.287   6.876 -1.7291  0.3489  0.5514
   97SAPS  C316 9732   1.787   1.334   7.051 -0.0726  0.6599  0.5407
   97SAPS  H16X 9733   1.692   1.350   6.995 -1.2478 -0.7206  2.0667
   97SAPS  H16Y 9734   1.775   1.411   7.130  0.6362  0.1969  1.0985
   97SAPS  C317 9735   1.787   1.192   7.105 -0.1053  0.1084 -0.0436
   97SAPS  H17X 9736   1.822   1.117   7.031  3.6512 -0.0045  1.6035
   97SAPS  H17Y 9737   1.683   1.177   7.140  0.4203 -0.2572  1.4233
   97SAPS  C318 9738   1.886   1.180   7.234  0.6075 -0.7329 -0.3719
   97SAPS  H18X 9739   1.871   1.271   7.295 -0.3571  0.9621 -2.9324
   97SAPS  H18Y 9740   1.991   1.178   7.199  0.6943 -1.9801 -0.0896
   97SAPS  H18Z 9741   1.868   1.090   7.297  1.5107 -2.0487 -1.9097
   98SAPS     N 9742   0.811   2.823   5.435 -0.0590 -0.4068 -0.2455
   98SAPS   HN1 9743   0.900   2.772   5.420 -0.3470 -0.8313 -0.5213
   98SAPS   HN2 9744   0.814   2.849   5.536  2.0055 -0.6289 -0.2135
   98SAPS   HN3 9745   0.738   2.751   5.416  1.9406 -3.0879  1.3921
   98SAPS   C12 9746   0.786   2.949   5.346 -0.1077 -0.0016 -0.4550
   98SAPS  H12A 9747   0.851   3.026   5.385  1.1117 -1.3333  0.2210
   98SAPS   C13 9748   0.821   2.933   5.197  0.5854 -0.3612 -0.3686
   98SAPS  O13A 9749   0.854   2.816   5.157  0.8258 -0.0014  0.0346
   98SAPS  O13B 9750   0.799   3.033   5.126 -0.0526  0.1948  0.2119
   98SAPS   C11 9751   0.640   2.992   5.366 -0.3410 -0.7855  0.0819
   98SAPS  H11A 9752   0.574   2.916   5.320 -0.7192 -0.0152 -0.6604
   98SAPS  H11B 9753   0.626   3.092   5.320 -0.1712  0.0162  1.6761
   98SAPS     P 9754   0.472   3.018   5.566 -0.1552  0.0312 -0.0001
   98SAPS   O13 9755   0.430   3.163   5.561  0.1755  0.7974 -0.4317
   98SAPS   O14 9756   0.390   2.912   5.508 -0.0731 -0.2147  0.0575
   98SAPS   O12 9757   0.615   3.008   5.505 -0.0245 -0.1886  0.0233
   98SAPS   O11 9758   0.490   2.984   5.718  0.0958 -0.3634 -0.1111
   98SAPS    C1 9759   0.578   2.873   5.745 -0.0643 -0.0692 -0.4035
   98SAPS    HA 9760   0.532   2.776   5.716  0.0481 -0.3762  0.4161
   98SAPS    HB 9761   0.677   2.893   5.699  0.0195 -0.5997 -0.4603
   98SAPS    C2 9762   0.597   2.867   5.900 -0.1786  0.0218 -0.0799
   98SAPS    HS 9763   0.641   2.768   5.925  0.8790 -0.5955 -3.8352
   98SAPS   O21 9764   0.474   2.880   5.967 -0.1379 -0.1586 -0.6953
   98SAPS   C21 9765   0.377   2.786   5.948  0.7001  0.5071  0.1007
   98SAPS   O22 9766   0.391   2.679   5.892  0.2006  0.7095 -0.1373
   98SAPS   C22 9767   0.239   2.835   5.981 -0.5306 -0.2567  0.7894
   98SAPS   H2R 9768   0.238   2.867   6.088  0.7484 -0.9553  1.0392
   98SAPS   H2S 9769   0.208   2.919   5.916 -1.6489 -1.1866  0.0671
   98SAPS    C3 9770   0.691   2.981   5.946  0.4621 -0.5807 -0.1180
   98SAPS    HX 9771   0.629   3.072   5.934 -1.8877 -2.0488  0.1904
   98SAPS    HY 9772   0.783   2.983   5.884 -0.1936 -0.3509 -1.0895
   98SAPS   O31 9773   0.734   2.972   6.085  0.4340  0.2469  0.5137
   98SAPS   C31 9774   0.812   3.069   6.136  0.0642  0.7740  0.2465
   98SAPS   O32 9775   0.849   3.168   6.074  0.3902  0.0655 -0.2632
   98SAPS   C32 9776   0.856   3.022   6.275  0.2532 -0.5671  0.2478
   98SAPS   H2X 9777   0.897   2.919   6.278  3.4692  0.6342  2.0169
   98SAPS   H2Y 9778   0.757   3.017   6.325 -0.5180 -0.6323 -1.2367
   98SAPS   C23 9779   0.121   2.730   5.966  0.1483 -0.1705  0.4091
   98SAPS   H3R 9780   0.148   2.638   6.021  0.7818 -0.6935 -0.7452
   98SAPS   H3S 9781   0.100   2.703   5.860 -2.2164 -4.1490  1.6807
   98SAPS   C24 9782  -0.020   2.791   6.008 -0.7254 -0.4949 -0.4454
   98SAPS   H4R 9783  -0.049   2.864   5.929  2.0498  0.8694 -0.3063
   98SAPS   H4S 9784  -0.011   2.835   6.109 -1.9265 -2.7865  0.7376
   98SAPS   C25 9785  -0.118   2.678   6.015 -0.0961 -0.7138  0.7546
   98SAPS   H5R 9786  -0.149   2.641   5.916  0.5411 -0.4848  0.4619
   98SAPS   C26 9787  -0.186   2.632   6.124 -0.1375 -0.8599 -0.2616
   98SAPS   H6R 9788  -0.260   2.552   6.116 -0.2062 -0.9814  1.2791
   98SAPS   C27 9789  -0.165   2.690   6.263 -0.4101  0.0473  0.4070
   98SAPS   H7R 9790  -0.197   2.796   6.253 -1.6367 -0.4031 -0.6535
   98SAPS   H7S 9791  -0.058   2.687   6.293 -0.1282 -2.0586 -0.6227
   98SAPS   C28 9792  -0.243   2.627   6.379  0.0789  0.4608  0.3356
   98SAPS   H8R 9793  -0.306   2.543   6.346 -1.6082  1.7520  0.1497
   98SAPS   C29 9794  -0.258   2.673   6.507 -0.3257 -0.4042  0.1502
   98SAPS   H9R 9795  -0.306   2.608   6.582  1.9996 -2.2424  0.1616
   98SAPS  C210 9796  -0.203   2.795   6.565 -0.2652  0.3347 -0.7698
   98SAPS  H10R 9797  -0.117   2.833   6.505  0.1389  0.4600 -0.1232
   98SAPS  H10S 9798  -0.155   2.777   6.664 -2.2215 -0.0181  0.1673
   98SAPS  C211 9799  -0.299   2.902   6.586  0.7288 -0.2981 -0.1402
   98SAPS  H11R 9800  -0.360   2.917   6.496 -2.4974  1.5716  2.1142
   98SAPS  C212 9801  -0.320   2.985   6.688  0.1127  0.2941 -0.1989
   98SAPS  H12R 9802  -0.412   3.045   6.680 -0.7215 -0.9639 -0.3004
   98SAPS  C213 9803  -0.252   2.976   6.821 -0.0142 -0.2149 -0.1834
   98SAPS  H13R 9804  -0.248   3.077   6.866 -1.2296 -0.3641  0.2953
   98SAPS  H13S 9805  -0.145   2.948   6.824 -0.1114 -0.5058  2.1203
   98SAPS  C214 9806  -0.318   2.873   6.912 -0.7710 -0.1133 -0.5803
   98SAPS  H14R 9807  -0.317   2.772   6.870 -0.2619 -0.8201  1.0579
   98SAPS  C215 9808  -0.352   2.882   7.044 -0.6551  0.1449 -0.1650
   98SAPS  H15R 9809  -0.403   2.807   7.106 -0.1353 -0.6116 -0.6284
   98SAPS  C216 9810  -0.328   3.009   7.122 -0.3247  0.3070  0.1900
   98SAPS  H16R 9811  -0.412   3.015   7.195 -0.4306 -1.0806  0.2005
   98SAPS  H16S 9812  -0.327   3.099   7.056 -1.8527  0.1584 -0.0813
   98SAPS  C217 9813  -0.188   2.992   7.193 -0.5095 -0.0106  0.1897
   98SAPS  H17R 9814  -0.119   2.934   7.128 -0.8731 -0.2297 -0.0029
   98SAPS  H17S 9815  -0.204   2.914   7.271  2.7485 -0.4084  0.6082
   98SAPS  C218 9816  -0.107   3.112   7.247  0.3481 -0.0078 -0.3093
   98SAPS  H18R 9817  -0.023   3.078   7.312 -0.6490 -2.3601 -0.1450
   98SAPS  H18S 9818  -0.176   3.174   7.309 -2.4116 -2.7902 -0.3084
   98SAPS  C219 9819  -0.062   3.204   7.125 -0.3320  0.3257 -0.0454
   98SAPS  H19R 9820  -0.146   3.221   7.055 -1.7534  2.9439  2.1069
   98SAPS  H19S 9821   0.025   3.155   7.077 -0.3271  1.1966 -0.9361
   98SAPS  C220 9822  -0.013   3.338   7.172  0.0804 -0.1056 -0.1724
   98SAPS  H20R 9823   0.080   3.330   7.232  0.1554 -1.2602 -0.4114
   98SAPS  H20S 9824  -0.092   3.382   7.237  0.0726  1.3543 -1.1308
   98SAPS  H20T 9825   0.010   3.403   7.085 -0.8985 -1.7897 -1.7658
   98SAPS   C33 9826   0.966   3.107   6.324  0.1052 -0.2230  0.1332
   98SAPS   H3X 9827   0.943   3.215   6.308  1.7268  0.0304 -0.6319
   98SAPS   H3Y 9828   1.051   3.085   6.256 -1.1034  1.5536 -2.1075
   98SAPS   C34 9829   0.993   3.065   6.472  1.0210  0.0326 -0.4001
   98SAPS   H4X 9830   1.011   2.956   6.479 -0.6158 -0.3518 -1.6154
   98SAPS   H4Y 9831   0.896   3.077   6.526  0.9006  2.0319 -0.9702
   98SAPS   C35 9832   1.113   3.138   6.533 -0.4234 -0.4712 -0.1464
   98SAPS   H5X 9833   1.202   3.142   6.467 -0.9007  2.2443 -0.7218
   98SAPS   H5Y 9834   1.143   3.082   6.625 -0.6012 -0.2675  0.0375
   98SAPS   C36 9835   1.076   3.277   6.565  0.4117  0.3128  0.3541
   98SAPS   H6X 9836   0.986   3.282   6.631 -0.8914 -0.3657 -1.2926
   98SAPS   H6Y 9837   1.043   3.326   6.471 -2.2189 -0.0124  1.0254
   98SAPS   C37 9838   1.184   3.345   6.651  0.1621 -0.6699 -0.1121
   98SAPS   H7X 9839   1.160   3.454   6.647 -1.7897 -1.0365  0.5819
   98SAPS   H7Y 9840   1.281   3.321   6.603  0.8827  1.9389 -0.1264
   98SAPS   C38 9841   1.191   3.291   6.794  0.1734 -0.6251 -0.5524
   98SAPS   H8X 9842   1.214   3.184   6.813  0.1191 -0.5482 -0.0466
   98SAPS   H8Y 9843   1.089   3.295   6.838 -0.6493 -0.3099 -2.4111
   98SAPS   C39 9844   1.291   3.375   6.872 -0.6628  0.0147 -1.1742
   98SAPS   H9X 9845   1.273   3.485   6.869  1.2448  0.6156  3.0003
   98SAPS   H9Y 9846   1.393   3.351   6.834 -0.7438 -2.6672  0.1344
   98SAPS  C310 9847   1.305   3.337   7.022  0.1965  0.7000 -0.6166
   98SAPS  H10X 9848   1.401   3.385   7.051 -0.0021  0.1364  1.0901
   98SAPS  H10Y 9849   1.310   3.226   7.035 -0.2325  0.3091 -3.2168
   98SAPS  C311 9850   1.192   3.396   7.115  0.3056 -0.4697 -1.1348
   98SAPS  H11X 9851   1.087   3.369   7.092 -0.2316 -1.0084  1.6556
   98SAPS  H11Y 9852   1.193   3.507   7.109 -2.6015 -0.4035 -1.8433
   98SAPS  C312 9853   1.214   3.365   7.264  0.7270  0.4616 -0.2819
   98SAPS  H12X 9854   1.323   3.359   7.286  1.1326 -2.2629 -2.4143
   98SAPS  H12Y 9855   1.168   3.266   7.284  1.8326  0.0566  0.3544
   98SAPS  C313 9856   1.145   3.451   7.371 -0.0791  0.1050  0.8153
   98SAPS  H13X 9857   1.152   3.554   7.331  0.4898 -0.3042 -0.1845
   98SAPS  H13Y 9858   1.214   3.447   7.458  2.8793  3.4391 -1.1263
   98SAPS  C314 9859   0.999   3.410   7.408 -0.4958 -0.3327 -0.5694
   98SAPS  H14X 9860   1.009   3.306   7.447  1.6870 -0.0777 -0.3628
   98SAPS  H14Y 9861   0.939   3.406   7.315 -0.8095 -1.6220 -0.3322
   98SAPS  C315 9862   0.932   3.505   7.507  0.2412 -0.0850  0.2349
   98SAPS  H15X 9863   0.984   3.508   7.605  1.0817 -2.8273 -0.0537
   98SAPS  H15Y 9864   0.833   3.461   7.533 -0.3149 -1.3279 -3.3816
   98SAPS  C316 9865   0.912   3.655   7.450  0.4448  0.2948  0.3979
   98SAPS  H16X 9866   0.871   3.645   7.347  1.4833 -4.2949  0.2248
   98SAPS  H16Y 9867   1.010   3.706   7.443 -0.3467  1.7117 -4.2465
   98SAPS  C317 9868   0.823   3.742   7.545  0.3664  0.0802 -0.8678
   98SAPS  H17X 9869   0.848   3.850   7.535  2.6791 -0.5272 -2.2034
   98SAPS  H17Y 9870   0.855   3.713   7.647 -1.1898 -1.0865 -0.6753
   98SAPS  C318 9871   0.671   3.731   7.534 -0.1745  0.7870  0.1775
   98SAPS  H18X 9872   0.639   3.790   7.445 -1.1447  3.1854  1.9925
   98SAPS  H18Y 9873   0.615   3.767   7.623 -1.0565  0.0083 -0.0407
   98SAPS  H18Z 9874   0.636   3.626   7.538  1.5776  0.1536 -0.1770
   99SAPS     N 9875   5.554   0.008   5.588 -0.5577 -0.7638 -0.6064
   99SAPS   HN1 9876   5.515  -0.072   5.534 -1.4691 -0.5934 -0.2220
   99SAPS   HN2 9877   5.629  -0.027   5.651  0.5203  0.5473 -1.1093
   99SAPS   HN3 9878   5.475   0.046   5.643  1.5461  1.5653  1.0590
   99SAPS   C12 9879   5.619   0.119   5.511 -0.3413 -0.3149  0.5166
   99SAPS  H12A 9880   5.660   0.076   5.421 -2.7952 -1.2859 -0.2148
   99SAPS   C13 9881   5.515   0.223   5.456 -0.5522  0.1148  0.1908
   99SAPS  O13A 9882   5.392   0.221   5.476 -0.1266 -0.4380  0.0928
   99SAPS  O13B 9883   5.567   0.318   5.385  0.2091  0.5195 -0.0112
   99SAPS   C11 9884   5.724   0.198   5.596 -0.3110  0.0239 -0.5202
   99SAPS  H11A 9885   5.683   0.248   5.686 -1.1018  0.1614 -0.9428
   99SAPS  H11B 9886   5.771   0.282   5.540  0.7494  0.5387  1.0771
   99SAPS     P 9887   5.969   0.146   5.688  0.0295 -0.2692  0.2407
   99SAPS   O13 9888   6.057   0.067   5.603 -0.0116 -0.1773  0.2190
   99SAPS   O14 9889   5.993   0.293   5.697  0.2877  0.8258 -0.1081
   99SAPS   O12 9890   5.831   0.105   5.634  0.5149  0.0016 -0.2266
   99SAPS   O11 9891   5.942   0.077   5.832 -0.9094  0.4897 -0.3487
   99SAPS    C1 9892   6.000   0.124   5.950 -1.1465  0.0947 -0.1962
   99SAPS    HA 9893   6.043   0.225   5.935  0.3657 -0.3975  0.6230
   99SAPS    HB 9894   5.924   0.104   6.028 -1.8120 -1.2700 -1.1562
   99SAPS    C2 9895   6.130   0.041   5.970  0.1857 -0.1615  0.4587
   99SAPS    HS 9896   6.192   0.059   5.880 -1.7369 -3.9494 -1.8783
   99SAPS   O21 9897   6.104  -0.102   5.976  0.4422  0.0053  0.0686
   99SAPS   C21 9898   6.213  -0.172   5.963 -0.3685  0.5604  0.3610
   99SAPS   O22 9899   6.318  -0.127   5.919 -0.4222  0.2097 -0.5898
   99SAPS   C22 9900   6.201  -0.310   6.026 -0.0402  0.1995  0.5915
   99SAPS   H2R 9901   6.247  -0.311   6.127  0.9189 -3.0567  0.2476
   99SAPS   H2S 9902   6.096  -0.332   6.056 -0.7973 -1.3999 -2.7582
   99SAPS    C3 9903   6.205   0.097   6.091 -0.6238 -0.3260  0.3731
   99SAPS    HX 9904   6.221   0.205   6.072 -0.4010 -0.7469 -2.1432
   99SAPS    HY 9905   6.305   0.050   6.100 -0.5017  0.1628  1.8693
   99SAPS   O31 9906   6.139   0.094   6.215 -0.6901 -0.4006  0.2037
   99SAPS   C31 9907   6.167  -0.016   6.294  0.3607  0.2784  0.2548
   99SAPS   O32 9908   6.245  -0.106   6.272  0.6444 -0.3144  0.3251
   99SAPS   C32 9909   6.069  -0.006   6.414  0.8034  0.1725 -0.2553
   99SAPS   H2X 9910   6.017  -0.104   6.417  0.3855  0.3315 -1.6851
   99SAPS   H2Y 9911   5.988   0.066   6.392 -0.9064 -1.2542  1.1266
   99SAPS   C23 9912   6.255  -0.423   5.934 -1.3467 -1.1117  0.0746
   99SAPS   H3R 9913   6.362  -0.401   5.913 -1.8011  2.8348  1.0336
   99SAPS   H3S 9914   6.207  -0.416   5.834 -0.7132 -1.7837 -0.2895
   99SAPS   C24 9915   6.230  -0.566   5.991 -0.6255 -0.5519  0.0457
   99SAPS   H4R 9916   6.228  -0.638   5.907 -2.3619 -0.4685 -0.0181
   99SAPS   H4S 9917   6.125  -0.551   6.023 -1.3092 -1.2007 -1.7652
   99SAPS   C25 9918   6.307  -0.613   6.099 -0.4648  0.5574 -0.8485
   99SAPS   H5R 9919   6.403  -0.651   6.062 -0.7172 -0.9015 -0.0881
   99SAPS   C26 9920   6.268  -0.636   6.231 -0.0956 -0.2911  0.3107
   99SAPS   H6R 9921   6.333  -0.704   6.288  0.1167 -1.4546 -1.2646
   99SAPS   C27 9922   6.128  -0.606   6.284 -0.8030 -0.4007  0.4682
   99SAPS   H7R 9923   6.060  -0.673   6.229  0.2728 -1.8455  0.8266
   99SAPS   H7S 9924   6.096  -0.500   6.270  0.1930  0.1188  1.8520
   99SAPS   C28 9925   6.123  -0.642   6.431  0.4332 -0.7618  0.6143
   99SAPS   H8R 9926   6.144  -0.746   6.459 -1.4099 -1.3471 -0.0076
   99SAPS   C29 9927   6.098  -0.558   6.529  0.4097 -0.3101  0.1908
   99SAPS   H9R 9928   6.081  -0.603   6.628  1.8552  0.6880  0.9303
   99SAPS  C210 9929   6.076  -0.407   6.529 -0.3308 -0.0053 -0.4686
   99SAPS  H10R 9930   5.976  -0.390   6.574  0.0220  4.1310 -0.8247
   99SAPS  H10S 9931   6.079  -0.370   6.424 -0.6187  1.0773 -0.1010
   99SAPS  C211 9932   6.173  -0.339   6.624  0.0718  0.5576 -0.1316
   99SAPS  H11R 9933   6.264  -0.307   6.571  0.1273  2.1744  0.8815
   99SAPS  C212 9934   6.165  -0.319   6.761  0.2572 -0.6148  0.8925
   99SAPS  H12R 9935   6.251  -0.265   6.804 -0.6896  3.3890 -1.6945
   99SAPS  C213 9936   6.044  -0.351   6.852  0.3342 -0.0453  0.5467
   99SAPS  H13R 9937   5.956  -0.362   6.785 -0.8076 -0.2962  2.0364
   99SAPS  H13S 9938   6.014  -0.265   6.915  2.3415  0.8125  0.4004
   99SAPS  C214 9939   6.060  -0.483   6.924  0.3105  0.1770  0.3843
   99SAPS  H14R 9940   6.140  -0.546   6.881 -0.4341  0.9892 -2.4167
   99SAPS  C215 9941   5.983  -0.530   7.025  0.8853 -1.0343 -0.1042
   99SAPS  H15R 9942   6.009  -0.626   7.073  0.8390 -1.5728 -1.1357
   99SAPS  C216 9943   5.864  -0.474   7.094  0.4335  0.4212 -0.9253
   99SAPS  H16R 9944   5.771  -0.471   7.034  1.1867  0.2258 -2.1345
   99SAPS  H16S 9945   5.896  -0.371   7.122  2.9079 -0.6056  0.2973
   99SAPS  C217 9946   5.834  -0.551   7.226 -0.0190 -0.5980  0.4190
   99SAPS  H17R 9947   5.791  -0.653   7.214  0.4928 -0.9383  1.3770
   99SAPS  H17S 9948   5.748  -0.497   7.269 -0.9707 -1.6035 -0.1617
   99SAPS  C218 9949   5.951  -0.545   7.330  0.1723  0.4276 -0.2670
   99SAPS  H18R 9950   5.979  -0.441   7.357 -0.2826  1.0419 -2.0662
   99SAPS  H18S 9951   6.042  -0.585   7.280  1.0562  0.4190  1.2866
   99SAPS  C219 9952   5.915  -0.617   7.461 -0.4563  0.0584 -0.8708
   99SAPS  H19R 9953   5.903  -0.725   7.436 -5.8248 -0.3225  1.9026
   99SAPS  H19S 9954   5.813  -0.589   7.495 -0.7857  0.2267 -1.9621
   99SAPS  C220 9955   6.016  -0.595   7.571  0.2382 -0.3159  0.1834
   99SAPS  H20R 9956   5.995  -0.650   7.665  0.4522 -1.9445 -0.6765
   99SAPS  H20S 9957   6.007  -0.487   7.591 -0.9984  0.0824 -2.2375
   99SAPS  H20T 9958   6.123  -0.601   7.539  0.2745  0.9460  0.0408
   99SAPS   C33 9959   6.133   0.020   6.543  0.1131 -0.1026 -0.5991
   99SAPS   H3X 9960   6.189   0.115   6.534 -2.1679  1.6394  1.9229
   99SAPS   H3Y 9961   6.204  -0.061   6.571  1.7594  1.5208  0.1346
   99SAPS   C34 9962   6.047   0.034   6.665  0.2427 -0.4841 -0.2478
   99SAPS   H4X 9963   6.000  -0.066   6.680  0.3941 -0.6053 -0.5551
   99SAPS   H4Y 9964   5.968   0.111   6.668  0.1457 -0.5984  0.2045
   99SAPS   C35 9965   6.141   0.055   6.784 -0.0005  0.0054 -0.1283
   99SAPS   H5X 9966   6.218   0.133   6.767  1.2836 -1.3708 -0.8492
   99SAPS   H5Y 9967   6.209  -0.033   6.795  0.2591  0.3146  0.8678
   99SAPS   C36 9968   6.069   0.071   6.922 -0.9457 -0.0252  0.2093
   99SAPS   H6X 9969   5.986  -0.003   6.917 -1.1013  0.1184  0.6613
   99SAPS   H6Y 9970   6.015   0.169   6.924 -0.2224  0.8507 -5.5063
   99SAPS   C37 9971   6.162   0.046   7.039  0.3293 -0.5308  0.8580
   99SAPS   H7X 9972   6.228   0.136   7.051  1.6795 -1.4928  0.9087
   99SAPS   H7Y 9973   6.227  -0.041   7.013  1.0350  0.6595 -1.7290
   99SAPS   C38 9974   6.082   0.012   7.158 -0.1149  0.1586  0.3771
   99SAPS   H8X 9975   6.046  -0.092   7.147  1.0103 -0.2118  0.1329
   99SAPS   H8Y 9976   5.995   0.079   7.178 -0.1456 -0.2833  1.8465
   99SAPS   C39 9977   6.172   0.018   7.285 -0.1079  0.2442  0.6526
   99SAPS   H9X 9978   6.279   0.012   7.255 -0.7725 -1.0676 -1.7078
   99SAPS   H9Y 9979   6.141  -0.069   7.346  0.1427 -1.4974 -1.5892
   99SAPS  C310 9980   6.172   0.148   7.368 -0.0400 -0.0539  1.0148
   99SAPS  H10X 9981   6.063   0.164   7.384 -0.5676 -0.5921 -1.6005
   99SAPS  H10Y 9982   6.214   0.227   7.303  0.2309 -2.5253 -2.0333
   99SAPS  C311 9983   6.243   0.133   7.500 -0.0513 -0.5396  0.1827
   99SAPS  H11X 9984   6.339   0.080   7.481  0.2167 -0.4923  1.3794
   99SAPS  H11Y 9985   6.174   0.068   7.558 -2.1656  1.3044 -0.1306
   99SAPS  C312 9986   6.263   0.254   7.595  0.0460 -0.6146  0.0743
   99SAPS  H12X 9987   6.165   0.277   7.643  0.5856 -0.4957  1.1226
   99SAPS  H12Y 9988   6.271   0.349   7.538  0.3752 -0.6418  0.0727
   99SAPS  C313 9989   6.371   0.239   7.700 -0.1867  0.1825  0.2245
   99SAPS  H13X 9990   6.470   0.237   7.650 -0.2688 -0.0890  0.0715
   99SAPS  H13Y 9991   6.360   0.144   7.757 -0.6680 -1.0389 -1.8243
   99SAPS  C314 9992   6.379   0.358   7.799  0.2841  0.4624  0.2213
   99SAPS  H14X 9993   6.280   0.342   7.848 -0.6744  0.2722 -1.6981
   99SAPS  H14Y 9994   6.374   0.449   7.737 -1.7020 -0.9678 -1.8749
   99SAPS  C315 9995   6.491   0.332   7.904 -0.4371 -0.2270  0.3919
   99SAPS  H15X 9996   6.468   0.236   7.956 -0.6132  0.2242  1.1718
   99SAPS  H15Y 9997   6.493   0.424   7.967 -2.6897  0.9776 -1.1499
   99SAPS  C316 9998   6.634   0.313   7.846  1.0325  0.3360 -0.8526
   99SAPS  H16X 9999   6.641   0.214   7.796 -0.3563  0.0742 -0.5542
   99SAPS  H16Y10000   6.712   0.317   7.925  2.1241  0.4862 -1.9147
   99SAPS  C31710001   6.678   0.429   7.745  0.1753 -0.1186  1.0060
   99SAPS  H17X10002   6.639   0.521   7.794 -0.8160  0.0555 -0.0672
   99SAPS  H17Y10003   6.618   0.422   7.651 -0.3549 -0.1413  1.3433
   99SAPS  C31810004   6.830   0.420   7.708 -0.3430  0.2537 -0.1923
   99SAPS  H18X10005   6.863   0.513   7.657 -0.6941 -0.6488 -2.1568
   99SAPS  H18Y10006   6.855   0.335   7.641  0.7411  0.3606  0.0484
   99SAPS  H18Z10007   6.887   0.401   7.802  0.2110  1.5036 -0.2532
  100SAPS     N10008   1.637   0.203   5.924  0.0079  0.3948 -0.3231
  100SAPS   HN110009   1.653   0.305   5.931  0.3397  0.4352 -1.4379
  100SAPS   HN210010   1.576   0.180   6.005 -0.7751  2.1282 -0.3903
  100SAPS   HN310011   1.723   0.145   5.919  0.2968  0.8971 -1.5150
  100SAPS   C1210012   1.553   0.192   5.800  0.0600  0.2511  0.2720
  100SAPS  H12A10013   1.482   0.273   5.811 -0.3296 -0.1672  0.9560
  100SAPS   C1310014   1.633   0.202   5.665  0.3067  0.1083 -0.1231
  100SAPS  O13A10015   1.723   0.293   5.652 -0.1621 -0.2679 -0.4196
  100SAPS  O13B10016   1.564   0.175   5.565  0.7693  0.1465 -0.5892
  100SAPS   C1110017   1.466   0.064   5.804  0.0682  0.1903  0.5654
  100SAPS  H11A10018   1.540  -0.017   5.788 -0.0404  0.6875 -3.7709
  100SAPS  H11B10019   1.407   0.068   5.710 -1.6058  0.1065  1.5678
  100SAPS     P10020   1.229   0.022   5.913 -0.4197  0.3047 -0.0618
  100SAPS   O1310021   1.152   0.117   5.831 -0.1933  0.6855  0.1952
  100SAPS   O1410022   1.202  -0.122   5.886  0.2149 -0.0531 -0.7695
  100SAPS   O1210023   1.382   0.051   5.917 -0.3986 -0.0626  0.7315
  100SAPS   O1110024   1.193   0.053   6.063 -0.2701  0.2094 -0.1389
  100SAPS    C110025   1.229   0.178   6.132 -0.1641 -0.3986  0.2590
  100SAPS    HA10026   1.323   0.213   6.085  1.6681 -3.3898  1.3713
  100SAPS    HB10027   1.150   0.256   6.124  0.3436  0.1070  0.0821
  100SAPS    C210028   1.273   0.159   6.280  0.7233  0.1707  0.2239
  100SAPS    HS10029   1.340   0.240   6.314  0.6931  0.6970 -0.9400
  100SAPS   O2110030   1.339   0.031   6.291  0.3166 -0.1533 -0.0966
  100SAPS   C2110031   1.447   0.016   6.221  0.3372 -0.5150  0.2833
  100SAPS   O2210032   1.522   0.108   6.176 -0.3235  0.1128  0.5871
  100SAPS   C2210033   1.462  -0.139   6.192  0.5557 -0.2579 -0.2416
  100SAPS   H2R10034   1.422  -0.198   6.277 -1.9179 -0.1554 -1.2714
  100SAPS   H2S10035   1.401  -0.169   6.104  0.5318 -1.8768  0.3117
  100SAPS    C310036   1.149   0.170   6.380 -0.3443  0.5958  1.4068
  100SAPS    HX10037   1.083   0.083   6.360 -0.2732  0.8236  0.1092
  100SAPS    HY10038   1.088   0.255   6.344  0.3535 -0.2712 -2.1833
  100SAPS   O3110039   1.182   0.181   6.512 -0.4873  0.1899 -0.3816
  100SAPS   C3110040   1.236   0.296   6.562 -0.7058 -1.1043 -0.5485
  100SAPS   O3210041   1.269   0.396   6.489 -0.0852  0.1660 -0.1184
  100SAPS   C3210042   1.250   0.293   6.710 -1.0913 -0.3343 -0.2080
  100SAPS   H2X10043   1.328   0.216   6.725 -0.6474 -0.1830 -1.6187
  100SAPS   H2Y10044   1.157   0.248   6.751 -1.8988  0.9180 -0.6166
  100SAPS   C2310045   1.606  -0.169   6.167 -0.3714  0.1395  0.5180
  100SAPS   H3R10046   1.665  -0.128   6.251 -0.3991  0.5675  0.3308
  100SAPS   H3S10047   1.640  -0.121   6.072 -1.6233  0.1621  0.0664
  100SAPS   C2410048   1.636  -0.324   6.152  1.4418  0.0172 -0.0902
  100SAPS   H4R10049   1.564  -0.361   6.076  1.0648  0.0221  0.2589
  100SAPS   H4S10050   1.607  -0.372   6.248  1.1688  0.0004 -0.1806
  100SAPS   C2510051   1.779  -0.350   6.125 -0.0180  0.7756 -0.4150
  100SAPS   H5R10052   1.816  -0.351   6.021 -1.9040  2.1077 -1.1418
  100SAPS   C2610053   1.877  -0.367   6.218 -0.2474 -0.3500  0.2569
  100SAPS   H6R10054   1.980  -0.385   6.184 -0.5819  1.7091 -2.1222
  100SAPS   C2710055   1.860  -0.356   6.367 -0.9352  0.2223 -0.2911
  100SAPS   H7R10056   1.927  -0.429   6.417 -1.5578 -1.0591 -1.2739
  100SAPS   H7S10057   1.763  -0.394   6.407 -0.0815 -0.1913  1.4797
  100SAPS   C2810058   1.877  -0.217   6.428 -0.0270 -0.1196 -0.0985
  100SAPS   H8R10059   1.964  -0.155   6.399  0.4264 -1.0744 -0.8315
  100SAPS   C2910060   1.814  -0.152   6.529  0.0804  0.3749 -1.0742
  100SAPS   H9R10061   1.840  -0.047   6.551  0.8897  0.0596 -0.4625
  100SAPS  C21010062   1.700  -0.204   6.613 -0.2036  0.1548 -1.5687
  100SAPS  H10R10063   1.722  -0.197   6.722  1.4102 -0.9404 -1.7924
  100SAPS  H10S10064   1.706  -0.314   6.598 -0.9278 -0.0326 -0.6276
  100SAPS  C21110065   1.559  -0.147   6.581 -0.2076  0.5707 -0.5823
  100SAPS  H11R10066   1.490  -0.216   6.530 -1.1225  1.8849 -1.1785
  100SAPS  C21210067   1.516  -0.021   6.595  0.0135  0.1988 -0.4292
  100SAPS  H12R10068   1.413   0.002   6.562 -0.7301  0.2813  1.7898
  100SAPS  C21310069   1.605   0.091   6.649 -0.1398  0.0143 -0.0708
  100SAPS  H13R10070   1.698   0.053   6.698 -0.7189  0.4575  1.4379
  100SAPS  H13S10071   1.548   0.140   6.731  0.6332 -0.7796  0.9748
  100SAPS  C21410072   1.629   0.188   6.537  0.4495 -0.3116 -0.0154
  100SAPS  H14R10073   1.558   0.196   6.453 -0.6100  1.2429  0.9702
  100SAPS  C21510074   1.738   0.263   6.534  0.4718  0.2286 -0.4823
  100SAPS  H15R10075   1.753   0.327   6.446 -1.8250  0.2898 -0.9022
  100SAPS  C21610076   1.851   0.257   6.634 -0.1121 -0.3858 -0.2040
  100SAPS  H16R10077   1.945   0.306   6.600 -1.2121  1.8775 -0.1529
  100SAPS  H16S10078   1.883   0.153   6.657 -0.3819 -0.0644  1.7837
  100SAPS  C21710079   1.793   0.333   6.752  0.1947  0.0547 -0.5433
  100SAPS  H17R10080   1.720   0.269   6.804 -0.5230  0.6326 -0.8184
  100SAPS  H17S10081   1.756   0.436   6.729  2.7751  1.3271  0.5726
  100SAPS  C21810082   1.897   0.348   6.868  0.1184 -0.0596 -0.3450
  100SAPS  H18R10083   1.955   0.252   6.869  1.6137  0.8048 -0.7805
  100SAPS  H18S10084   1.843   0.373   6.961  0.2257 -0.9917 -0.0211
  100SAPS  C21910085   2.012   0.446   6.838 -0.7584  0.2048  0.3878
  100SAPS  H19R10086   2.003   0.555   6.858  2.3345  0.8353 -1.1540
  100SAPS  H19S10087   2.040   0.436   6.731 -0.9665  0.8990  0.2622
  100SAPS  C22010088   2.139   0.401   6.911  0.8151 -0.5559 -0.4649
  100SAPS  H20R10089   2.110   0.373   7.014 -0.1157  2.3193  0.1359
  100SAPS  H20S10090   2.208   0.487   6.921 -0.1476  0.1230  0.5648
  100SAPS  H20T10091   2.189   0.311   6.868  0.9856 -1.0182  0.6784
  100SAPS   C3310092   1.300   0.422   6.774  0.0768 -0.5003 -0.1200
  100SAPS   H3X10093   1.219   0.498   6.769 -1.2302 -1.6854  1.7738
  100SAPS   H3Y10094   1.395   0.456   6.728  1.2306 -0.1503  2.3835
  100SAPS   C3410095   1.313   0.394   6.923  0.4613 -0.2981  0.8185
  100SAPS   H4X10096   1.368   0.298   6.934  0.1060 -0.8361 -1.5542
  100SAPS   H4Y10097   1.207   0.379   6.954 -0.3438 -1.1068 -2.0724
  100SAPS   C3510098   1.376   0.497   7.016 -0.4851  0.7141 -0.0325
  100SAPS   H5X10099   1.318   0.592   7.008 -0.2470  0.9290  0.6888
  100SAPS   H5Y10100   1.478   0.519   6.977 -0.2152 -0.0677  0.2193
  100SAPS   C3610101   1.372   0.462   7.169  0.2379 -0.1022 -0.3043
  100SAPS   H6X10102   1.269   0.437   7.201  0.2641  1.8213  1.5380
  100SAPS   H6Y10103   1.418   0.552   7.217  0.2762 -0.2532 -0.0547
  100SAPS   C3710104   1.446   0.333   7.197 -0.2826 -0.3328  0.7188
  100SAPS   H7X10105   1.535   0.322   7.132  0.1586  0.9765  1.0742
  100SAPS   H7Y10106   1.376   0.248   7.184 -1.5764  0.9378 -1.0636
  100SAPS   C3810107   1.504   0.320   7.333  0.6199 -0.0750 -0.4750
  100SAPS   H8X10108   1.428   0.352   7.407 -0.7126 -3.3073 -0.2996
  100SAPS   H8Y10109   1.597   0.378   7.347  1.2376 -1.4193  1.3296
  100SAPS   C3910110   1.538   0.171   7.360  0.0098  1.0308  0.3602
  100SAPS   H9X10111   1.610   0.123   7.291  0.1496  0.4398  0.9151
  100SAPS   H9Y10112   1.442   0.114   7.358 -0.3029  1.5069  1.1257
  100SAPS  C31010113   1.592   0.163   7.504  0.1242  0.3161  0.0139
  100SAPS  H10X10114   1.517   0.201   7.577 -1.4989 -0.7067 -1.0727
  100SAPS  H10Y10115   1.684   0.224   7.495 -0.3126  0.7697 -1.7060
  100SAPS  C31110116   1.636   0.020   7.537  0.2047  0.2119 -0.1338
  100SAPS  H11X10117   1.715  -0.016   7.468  0.0511 -0.2453 -0.0777
  100SAPS  H11Y10118   1.550  -0.049   7.524  1.7612 -1.4579 -2.3365
  100SAPS  C31210119   1.689  -0.001   7.685  0.4633 -0.0029  0.0101
  100SAPS  H12X10120   1.735  -0.102   7.684  0.7174  0.1111 -0.4179
  100SAPS  H12Y10121   1.598   0.003   7.749 -0.0166  1.1566 -0.7082
  100SAPS  C31310122   1.781   0.102   7.747  0.2030  0.2860 -0.7389
  100SAPS  H13X10123   1.735   0.204   7.750  0.4668  0.3818  1.3066
  100SAPS  H13Y10124   1.871   0.100   7.683  0.7424 -2.2582  0.0161
  100SAPS  C31410125   1.822   0.040   7.883  0.1054 -0.4294  0.2921
  100SAPS  H14X10126   1.834  -0.071   7.887  1.3361 -0.5156 -2.7991
  100SAPS  H14Y10127   1.738   0.060   7.953 -1.0638 -1.7076 -0.6702
  100SAPS  C31510128   1.948   0.100   7.949  0.2749  0.4016 -0.0164
  100SAPS  H15X10129   1.940   0.211   7.943  0.6044  0.4860  0.9499
  100SAPS  H15Y10130   2.043   0.076   7.896  0.6636  0.3825  0.6719
  100SAPS  C31610131   1.947   0.059   8.099  0.5234 -0.0483  0.6444
  100SAPS  H16X10132   1.842   0.066   8.132  0.7865 -2.0089  2.0427
  100SAPS  H16Y10133   2.005   0.134   8.158  3.6880 -1.0288 -0.9662
  100SAPS  C31710134   2.014  -0.079   8.113 -0.4097 -0.0457  0.6885
  100SAPS  H17X10135   2.110  -0.080   8.057 -2.8992  0.4393 -4.0732
  100SAPS  H17Y10136   1.941  -0.158   8.083 -0.9604 -0.0318  1.9172
  100SAPS  C31810137   2.060  -0.105   8.262  0.0991 -1.0456 -0.1053
  100SAPS  H18X10138   1.976  -0.089   8.332 -0.8998  0.9688 -1.6627
  100SAPS  H18Y10139   2.137  -0.027   8.280 -0.8432  0.1343 -1.0433
  100SAPS  H18Z10140   2.112  -0.202   8.278  1.4486 -0.4763 -0.8761
  101OSM      N10141   3.769   3.508   9.868 -0.0837  0.5096 -0.3545
  101OSM    C1510142   3.746   3.658   9.854 -0.4100 -0.2914  0.1627
  101OSM   H15A10143   3.830   3.722   9.877 -0.6285  1.7725 -3.9517
  101OSM   H15B10144   3.661   3.693   9.912 -0.8881  1.4908 -1.5186
  101OSM   H15C10145   3.725   3.687   9.752  1.0711 -0.0030 -0.0718
  101OSM    C1410146   3.836   3.478   9.996  0.3171 -0.7975 -0.7758
  101OSM   H14A10147   3.773   3.510  10.079 -0.8799 -2.1169 -1.1389
  101OSM   H14B10148   3.927   3.536  10.002 -0.5724  0.5505  0.9279
  101OSM   H14C10149   3.856   3.374  10.013  0.8231 -0.2637  2.8920
  101OSM    C1310150   3.639   3.450   9.872  0.2194  0.6553  0.2681
  101OSM   H13A10151   3.639   3.342   9.870 -2.5654  0.5812 -1.8964
  101OSM   H13B10152   3.581   3.479   9.785  2.4580 -0.9600 -1.9322
  101OSM   H13C10153   3.574   3.474   9.954 -0.9490  0.5953 -0.6208
  101OSM    C1210154   3.861   3.457   9.752  0.5220 -0.4405 -0.1298
  101OSM   H12A10155   3.952   3.514   9.765 -0.8563  1.7983  0.2546
  101OSM   H12B10156   3.811   3.480   9.659 -0.0789  0.7682  0.4740
  101OSM    C1110157   3.903   3.308   9.723  0.4266 -0.9782 -0.4850
  101OSM   H11A10158   3.980   3.271   9.794  2.5345  2.5869 -0.6410
  101OSM   H11B10159   3.957   3.315   9.626 -0.7423  1.0254 -1.0579
  101OSM      P10160   3.698   3.234   9.580  0.1882  0.5441 -0.0265
  101OSM    O1310161   3.566   3.175   9.607 -0.2140 -0.1457  0.0943
  101OSM    O1410162   3.706   3.368   9.523  0.2919  0.5104  0.0425
  101OSM    O1110163   3.794   3.144   9.493 -0.3264 -0.1257  0.3409
  101OSM    O1210164   3.784   3.229   9.718 -0.3333 -0.3222  0.3573
  101OSM    C1S10165   3.764   3.001   9.485  0.3543 -0.6925 -0.3747
  101OSM    H1S10166   3.661   2.994   9.444  0.0103  0.7060  0.1965
  101OSM    H1T10167   3.769   2.955   9.586 -0.8137 -0.3428 -0.1395
  101OSM     NF10168   3.799   2.783   9.376 -0.1714  0.3410 -0.4448
  101OSM    HNF10169   3.854   2.719   9.429  0.9987  0.9983 -0.8204
  101OSM    C2S10170   3.849   2.922   9.391  0.7103  0.2827  1.0651
  101OSM    H2S10171   3.837   2.976   9.295 -0.3993 -0.7954  0.5711
  101OSM    C3S10172   4.000   2.916   9.427  0.2919 -0.2016  0.4259
  101OSM    H3S10173   4.023   2.858   9.518 -0.8175  0.4472  1.1429
  101OSM     O310174   4.042   3.047   9.480  0.1701 -0.3100 -0.1729
  101OSM    HO310175   3.960   3.096   9.488  0.6837  0.8872 -1.6723
  101OSM    C4S10176   4.089   2.867   9.314 -0.0688  0.2730  0.4214
  101OSM    H4S10177   4.112   2.760   9.313 -0.3305  0.2151 -0.2446
  101OSM    C5S10178   4.154   2.934   9.221 -0.1665 -0.7396  0.3834
  101OSM    H5S10179   4.144   3.043   9.224  0.1691 -0.7020  0.1451
  101OSM    C6S10180   4.253   2.877   9.125  0.0138  0.6413 -0.6814
  101OSM    H6S10181   4.233   2.768   9.112  1.3015  0.4351 -1.0912
  101OSM    H6T10182   4.362   2.881   9.145  0.5491 -2.8053 -2.0518
  101OSM    C7S10183   4.223   2.933   8.979  1.1073  0.3763 -0.3412
  101OSM    H7S10184   4.282   2.870   8.908  3.1602  0.5720  1.0957
  101OSM    H7T10185   4.269   3.034   8.985  1.4280  0.3531 -1.9160
  101OSM    C8S10186   4.079   2.934   8.927  0.2124  0.0939 -0.1470
  101OSM    H8S10187   4.097   2.967   8.822  0.8086  3.3325  0.8527
  101OSM    H8T10188   4.013   3.009   8.976 -1.2971 -2.4731  1.9927
  101OSM    C9S10189   4.001   2.799   8.941 -0.0804 -0.4063  0.3547
  101OSM    H9S10190   4.001   2.786   9.051 -0.3305  1.1964  0.5724
  101OSM    H9T10191   4.063   2.727   8.884 -0.4777 -0.8676  0.5024
  101OSM   C10S10192   3.851   2.794   8.904 -0.3101 -0.3216 -0.0820
  101OSM   H10S10193   3.801   2.875   8.960 -2.4795  0.3710 -2.7701
  101OSM   H10T10194   3.798   2.704   8.943 -0.6690  0.3156  0.9327
  101OSM   C11S10195   3.823   2.833   8.756 -0.0804  0.3801  0.7082
  101OSM   H11S10196   3.856   2.936   8.733 -1.4458  0.6079 -0.3349
  101OSM   H11T10197   3.713   2.818   8.752  0.1610 -1.3757 -0.6354
  101OSM   C12S10198   3.875   2.725   8.660 -0.5303  0.4607  0.2136
  101OSM   H12S10199   3.840   2.626   8.695  3.8316 -0.8477  1.5236
  101OSM   H12T10200   3.986   2.720   8.660 -0.4600 -0.2389 -2.8434
  101OSM   C13S10201   3.847   2.747   8.518 -0.8390  0.6310  0.6432
  101OSM   H13S10202   3.909   2.675   8.460 -1.1624  0.9912 -0.1676
  101OSM   H13T10203   3.893   2.846   8.498  2.8130 -0.7113  1.5797
  101OSM   C14S10204   3.707   2.743   8.471 -0.2304 -0.1590  0.0340
  101OSM   H14S10205   3.643   2.820   8.520  0.9241  0.3262  0.8475
  101OSM   H14T10206   3.671   2.644   8.507  1.9671 -1.5730 -1.4605
  101OSM   C15S10207   3.691   2.748   8.321  0.0958 -0.2138  0.4296
  101OSM   H15S10208   3.751   2.827   8.271 -0.5091 -0.1233 -0.1714
  101OSM   H15T10209   3.585   2.769   8.293  0.3398  0.5250  0.0292
  101OSM   C16S10210   3.730   2.619   8.243  0.4351  0.3992  0.2966
  101OSM   H16S10211   3.659   2.540   8.274 -0.6456  1.1507 -0.1932
  101OSM   H16T10212   3.835   2.583   8.245 -0.1778 -1.4742  1.0777
  101OSM   C17S10213   3.680   2.637   8.100  0.1901 -0.0191 -0.8102
  101OSM   H17S10214   3.739   2.725   8.065 -0.9796  0.3211 -1.9957
  101OSM   H17T10215   3.572   2.664   8.098 -0.0332 -0.3892  2.0352
  101OSM   C18S10216   3.699   2.523   8.002 -0.0586 -0.1244  0.4444
  101OSM   H18S10217   3.649   2.432   8.042  1.1729 -0.5537  1.0807
  101OSM   H18T10218   3.808   2.501   8.000 -0.1558 -0.8735 -2.9791
  101OSM   H18U10219   3.671   2.536   7.895 -0.2751 -1.0782  0.3676
  101OSM    C1F10220   3.683   2.760   9.320  0.3707  0.1714 -0.0541
  101OSM     OF10221   3.634   2.841   9.239  0.2852  0.2890 -0.7120
  101OSM    C2F10222   3.612   2.640   9.357 -0.0241  0.3298 -0.3395
  101OSM    H2F10223   3.521   2.668   9.415 -0.6418 -0.3391 -0.9571
  101OSM    H2G10224   3.671   2.570   9.420 -0.6573  0.0760 -0.0169
  101OSM    C3F10225   3.568   2.574   9.227  0.0291 -0.2313  0.4684
  101OSM    H3F10226   3.515   2.646   9.160  2.3546  1.6951  0.5527
  101OSM    H3G10227   3.505   2.487   9.255  0.2832  0.0999  2.1510
  101OSM    C4F10228   3.694   2.517   9.151 -0.7086  0.2503  0.1623
  101OSM    H4F10229   3.731   2.436   9.217 -3.5692 -1.3764 -0.0698
  101OSM    H4G10230   3.771   2.595   9.132 -0.1010 -0.4860 -0.4898
  101OSM    C5F10231   3.665   2.471   9.006 -0.6458 -0.5388 -0.3079
  101OSM    H5F10232   3.620   2.561   8.958  0.4216  0.1515 -0.0478
  101OSM    H5G10233   3.596   2.386   8.992  0.5113 -1.3229 -1.4996
  101OSM    C6F10234   3.785   2.414   8.926  0.7113 -0.3175 -0.7097
  101OSM    H6F10235   3.832   2.333   8.985  2.2748  0.3984 -0.9164
  101OSM    H6G10236   3.862   2.494   8.916  0.3291  0.2008  0.2875
  101OSM    C7F10237   3.744   2.364   8.786 -1.0312  0.1748 -0.4320
  101OSM    H7F10238   3.690   2.443   8.729  0.4700 -1.5008 -4.4969
  101OSM    H7G10239   3.676   2.277   8.796  0.9785 -1.4185  0.0843
  101OSM    C8F10240   3.866   2.325   8.699 -0.8618 -0.1679 -0.1082
  101OSM    H8F10241   3.921   2.253   8.763 -2.1436 -1.4603 -0.4176
  101OSM    H8G10242   3.932   2.414   8.684  0.2703 -1.2257 -1.7125
  101OSM    C9F10243   3.837   2.258   8.564  0.2653 -0.7738  0.4323
  101OSM    H9F10244   3.787   2.322   8.489  3.4955  0.3107 -0.9812
  101OSM   C10F10245   3.863   2.135   8.535  0.6158  0.3891 -0.1288
  101OSM   H10F10246   3.839   2.101   8.433  0.9689  1.2333 -0.5014
  101OSM   C11F10247   3.930   2.030   8.626 -0.3369 -0.1640  0.7975
  101OSM   H11F10248   3.894   1.931   8.590 -1.3523  0.4940 -0.0418
  101OSM   H11G10249   3.910   2.042   8.735  2.8404 -2.0806  1.7435
  101OSM   C12F10250   4.085   2.016   8.603 -0.5664  0.3600  0.2720
  101OSM   H12F10251   4.122   1.984   8.703 -3.7167  1.1365  1.8107
  101OSM   H12G10252   4.132   2.112   8.572  3.2638 -2.1665 -2.8487
  101OSM   C13F10253   4.124   1.912   8.497 -0.0153  0.7400  0.2800
  101OSM   H13F10254   4.075   1.820   8.535  0.8063  0.4344  0.6066
  101OSM   H13G10255   4.232   1.889   8.496  0.0116  0.8481  0.5553
  101OSM   C14F10256   4.085   1.932   8.352  0.3214  0.3829 -0.1575
  101OSM   H14F10257   4.127   2.025   8.309 -0.4307  0.2727 -1.1865
  101OSM   H14G10258   3.974   1.943   8.353  0.1349 -0.8624 -1.8399
  101OSM   C15F10259   4.105   1.807   8.265 -0.6496 -0.4765  0.4156
  101OSM   H15F10260   4.210   1.790   8.296 -1.1669 -1.4331  1.7381
  101OSM   H15G10261   4.091   1.830   8.157 -1.8956 -0.3090  0.6001
  101OSM   C16F10262   4.019   1.686   8.303 -0.6044 -0.3419 -0.0684
  101OSM   H16F10263   3.910   1.710   8.299 -0.4920  0.1824 -0.0384
  101OSM   H16G10264   4.020   1.655   8.410 -0.2682 -1.1550 -0.2998
  101OSM   C17F10265   4.045   1.560   8.226 -0.5575 -0.3663  1.0220
  101OSM   H17F10266   4.145   1.512   8.239 -0.7105 -1.0210 -0.0328
  101OSM   H17G10267   4.032   1.593   8.120  1.7481 -0.4986  0.6339
  101OSM   C18F10268   3.942   1.449   8.233 -0.1268  0.6009 -0.0163
  101OSM   H18F10269   3.944   1.376   8.149  0.3647 -0.6061  1.0044
  101OSM   H18G10270   3.845   1.497   8.208 -1.0710 -0.7402  0.9451
  101OSM   H18H10271   3.950   1.394   8.330  3.3774  3.6605  1.6848
  102OSM      N10272   2.595   2.522  10.008  0.7697 -0.1841  0.3953
  102OSM    C1510273   2.485   2.415   9.985 -0.9831 -0.4913  0.2721
  102OSM   H15A10274   2.386   2.457   9.994 -0.5213  1.0952 -1.4974
  102OSM   H15B10275   2.500   2.319  10.033  1.8898 -0.1754  0.2213
  102OSM   H15C10276   2.503   2.389   9.882  2.0189 -2.5019  1.1606
  102OSM    C1410277   2.600   2.550  10.156 -0.1003 -0.2494  0.7602
  102OSM   H14A10278   2.686   2.609  10.184  0.6490 -0.3229 -1.2258
  102OSM   H14B10279   2.609   2.454  10.205  2.0762 -0.0189  0.9037
  102OSM   H14C10280   2.513   2.600  10.198  1.5260  2.6999  0.8602
  102OSM    C1310281   2.721   2.458   9.977  0.7492 -0.2488  0.1307
  102OSM   H13A10282   2.729   2.437   9.872  1.0543 -1.2144  0.3370
  102OSM   H13B10283   2.737   2.362  10.023 -1.0687 -1.1229 -0.9834
  102OSM   H13C10284   2.806   2.516  10.011  0.1353  0.2515  0.8508
  102OSM    C1210285   2.574   2.646   9.933 -0.2454 -0.1100 -0.1173
  102OSM   H12A10286   2.656   2.714   9.949  0.1176 -0.1676 -1.5236
  102OSM   H12B10287   2.480   2.687   9.965  0.0433 -0.7420  1.6518
  102OSM    C1110288   2.562   2.642   9.773  0.4304  1.4047  0.0399
  102OSM   H11A10289   2.551   2.747   9.738 -1.1346 -0.0337 -4.3520
  102OSM   H11B10290   2.470   2.586   9.746  1.0827  0.5929 -0.5502
  102OSM      P10291   2.666   2.455   9.623 -0.4055 -0.0547 -0.3443
  102OSM    O1310292   2.807   2.437   9.570  0.4237 -0.0450 -0.0656
  102OSM    O1410293   2.605   2.337   9.694  0.2257  0.3206 -0.0666
  102OSM    O1110294   2.570   2.504   9.503 -0.0227 -0.3922 -0.6494
  102OSM    O1210295   2.681   2.583   9.724  0.1703 -0.1272  0.5150
  102OSM    C1S10296   2.599   2.635   9.451  0.5099 -0.2788  0.4891
  102OSM    H1S10297   2.683   2.683   9.505  0.9057 -2.0743  1.5611
  102OSM    H1T10298   2.509   2.699   9.460 -0.4714 -1.6844  1.0016
  102OSM     NF10299   2.688   2.767   9.264  0.2226  0.2698  0.4346
  102OSM    HNF10300   2.633   2.830   9.210  0.9561  1.2582  0.8259
  102OSM    C2S10301   2.643   2.629   9.305 -0.3835 -0.2061  0.3489
  102OSM    H2S10302   2.721   2.551   9.293 -0.3303 -0.0125 -0.6869
  102OSM    C3S10303   2.519   2.572   9.216 -0.0372 -0.2123 -0.4233
  102OSM    H3S10304   2.435   2.645   9.211 -1.3878 -1.7573 -0.8605
  102OSM     O310305   2.466   2.447   9.261 -0.2009  0.3356 -0.1314
  102OSM    HO310306   2.490   2.439   9.353 -2.3825 -0.0112  0.4573
  102OSM    C4S10307   2.570   2.564   9.074  0.3780  0.1535  0.1969
  102OSM    H4S10308   2.585   2.657   9.017 -3.6112  0.7093 -0.1707
  102OSM    C5S10309   2.606   2.452   9.006  0.0700  0.5541 -0.1640
  102OSM    H5S10310   2.602   2.352   9.052 -0.7627 -0.3193 -2.0250
  102OSM    C6S10311   2.663   2.450   8.871 -1.2139  1.1845 -0.2203
  102OSM    H6S10312   2.590   2.409   8.798  1.3430  0.1373 -2.3524
  102OSM    H6T10313   2.741   2.371   8.877 -0.9467  1.4268 -0.4205
  102OSM    C7S10314   2.721   2.574   8.803  0.1863 -0.3451  0.0613
  102OSM    H7S10315   2.801   2.626   8.860 -0.7107  0.9391  0.2020
  102OSM    H7T10316   2.636   2.646   8.795  0.7412  0.1723 -1.6118
  102OSM    C8S10317   2.783   2.547   8.657  0.2514  0.4028 -0.6880
  102OSM    H8S10318   2.711   2.481   8.605 -0.8690  1.1165 -0.0683
  102OSM    H8T10319   2.880   2.495   8.674  1.0367  1.0054 -2.9550
  102OSM    C9S10320   2.804   2.672   8.574 -0.0571  0.4434 -1.2853
  102OSM    H9S10321   2.878   2.734   8.629  2.8052 -2.4916 -1.4545
  102OSM    H9T10322   2.710   2.729   8.561  0.9830  2.7274  0.6942
  102OSM   C10S10323   2.861   2.641   8.437 -1.1354  0.5002  0.5752
  102OSM   H10S10324   2.884   2.534   8.419 -1.4187  0.6640 -0.9084
  102OSM   H10T10325   2.958   2.691   8.419  0.3754 -1.4332  2.8184
  102OSM   C11S10326   2.773   2.680   8.316 -0.4247 -0.1590  0.0163
  102OSM   H11S10327   2.743   2.787   8.324 -1.8592 -0.6060  0.9788
  102OSM   H11T10328   2.680   2.619   8.321 -1.5719  1.4185 -1.0925
  102OSM   C12S10329   2.838   2.648   8.185 -0.1349 -0.0376  0.2018
  102OSM   H12S10330   2.866   2.541   8.178 -0.1442 -0.2490  2.6887
  102OSM   H12T10331   2.934   2.704   8.184 -0.2472  0.1493 -0.1151
  102OSM   C13S10332   2.759   2.703   8.064 -1.2941 -0.0557  0.8188
  102OSM   H13S10333   2.754   2.812   8.086  1.5713  0.4457 -0.5885
  102OSM   H13T10334   2.663   2.648   8.064  0.1919 -2.8921 -0.6060
  102OSM   C14S10335   2.834   2.683   7.931  0.7690 -0.9604 -0.3676
  102OSM   H14S10336   2.828   2.574   7.911 -0.0876 -0.7064 -1.5643
  102OSM   H14T10337   2.942   2.707   7.937  0.6154  0.6109 -2.5977
  102OSM   C15S10338   2.764   2.750   7.812  0.5996  0.8472 -0.1214
  102OSM   H15S10339   2.667   2.695   7.806  0.4179  1.1646 -0.1090
  102OSM   H15T10340   2.816   2.715   7.721  1.1611 -1.2078  0.9263
  102OSM   C16S10341   2.751   2.903   7.802  0.1859 -0.1067  0.3510
  102OSM   H16S10342   2.850   2.954   7.800 -0.1594  0.5554 -0.2246
  102OSM   H16T10343   2.704   2.951   7.891 -1.0878 -0.8609  0.1159
  102OSM   C17S10344   2.656   2.939   7.684 -0.6044 -0.0525  0.2476
  102OSM   H17S10345   2.559   2.889   7.706  0.3807 -1.8852  0.6191
  102OSM   H17T10346   2.686   2.890   7.589 -1.1137 -0.3301  0.2244
  102OSM   C18S10347   2.639   3.084   7.644 -0.1595  0.4519 -0.3235
  102OSM   H18S10348   2.624   3.108   7.536  1.3855  2.3135 -0.1888
  102OSM   H18T10349   2.734   3.134   7.672  1.7935 -2.2921 -1.5772
  102OSM   H18U10350   2.568   3.142   7.707 -1.6509 -0.7340 -0.8432
  102OSM    C1F10351   2.795   2.824   9.315 -0.4967 -0.4472  0.0226
  102OSM     OF10352   2.863   2.768   9.399 -0.1647 -0.2481  0.2489
  102OSM    C2F10353   2.817   2.967   9.266 -0.5275 -0.5666 -0.5031
  102OSM    H2F10354   2.793   3.043   9.344 -0.1943  1.4242 -2.2641
  102OSM    H2G10355   2.750   2.993   9.181 -1.7182  1.8023  1.0303
  102OSM    C3F10356   2.960   3.004   9.223 -0.4010 -0.6587 -0.3757
  102OSM    H3F10357   2.988   2.937   9.140  2.3523 -0.5273  0.3564
  102OSM    H3G10358   3.028   2.981   9.308 -1.5911 -2.1794  0.1998
  102OSM    C4F10359   2.974   3.147   9.163 -0.1278 -0.0828  0.0159
  102OSM    H4F10360   3.076   3.189   9.158  0.1837 -0.9201 -1.0270
  102OSM    H4G10361   2.922   3.207   9.241 -0.0029 -0.6526  0.5553
  102OSM    C5F10362   2.913   3.175   9.029 -0.5218 -0.0217  0.0562
  102OSM    H5F10363   2.921   3.280   8.993  0.8546 -0.4431 -0.9312
  102OSM    H5G10364   2.804   3.155   9.042 -0.5304  1.4737  3.4989
  102OSM    C6F10365   2.967   3.086   8.908  0.4272 -0.8391 -0.2847
  102OSM    H6F10366   2.909   3.118   8.819  0.2011 -0.5499 -0.0373
  102OSM    H6G10367   2.955   2.977   8.927  2.0228 -1.0132 -0.1454
  102OSM    C7F10368   3.117   3.104   8.887 -0.7632 -0.0123  0.1944
  102OSM    H7F10369   3.168   3.059   8.975  1.9068  1.8851 -0.2546
  102OSM    H7G10370   3.152   3.210   8.883 -0.8586 -0.0098 -1.0474
  102OSM    C8F10371   3.186   3.014   8.780  0.5628 -0.4829 -0.3127
  102OSM    H8F10372   3.173   2.905   8.796 -4.0737  0.2498  2.8905
  102OSM    H8G10373   3.293   3.043   8.785  0.7291 -0.7409 -1.8125
  102OSM    C9F10374   3.136   3.053   8.643 -0.2853 -0.8743  0.1527
  102OSM    H9F10375   3.028   3.045   8.624  0.1558 -2.4239 -2.0869
  102OSM   C10F10376   3.218   3.080   8.528  0.2918  0.3076 -0.3409
  102OSM   H10F10377   3.174   3.114   8.433 -0.7949  0.0555  0.0552
  102OSM   C11F10378   3.367   3.084   8.525  0.3370  0.1665 -0.2555
  102OSM   H11F10379   3.408   3.018   8.605 -3.2576  1.3374  2.8670
  102OSM   H11G10380   3.404   3.188   8.539  1.3232 -0.2050 -0.0076
  102OSM   C12F10381   3.436   3.025   8.396 -0.1626  0.2294 -0.7653
  102OSM   H12F10382   3.409   2.922   8.365  1.2685 -0.4114 -0.0216
  102OSM   H12G10383   3.542   3.003   8.421 -0.3564 -0.4351 -0.5059
  102OSM   C13F10384   3.444   3.124   8.277  0.9375  0.3065  0.5472
  102OSM   H13F10385   3.467   3.228   8.307 -1.4592  1.3437 -0.8701
  102OSM   H13G10386   3.342   3.134   8.234  1.5882  4.4920 -0.5087
  102OSM   C14F10387   3.546   3.088   8.174  0.0199 -0.8353  0.0761
  102OSM   H14F10388   3.523   2.980   8.160  1.3778 -1.4431  2.1013
  102OSM   H14G10389   3.647   3.096   8.219  0.5276 -1.0286 -0.9879
  102OSM   C15F10390   3.542   3.149   8.034  0.6513  0.3356  0.1089
  102OSM   H15F10391   3.505   3.253   8.047  1.4131  0.8316 -1.4454
  102OSM   H15G10392   3.469   3.092   7.973  2.1762 -0.7563 -0.7590
  102OSM   C16F10393   3.675   3.144   7.953 -0.7711 -0.3626  0.4525
  102OSM   H16F10394   3.733   3.213   8.018 -1.4269  0.8315 -0.1892
  102OSM   H16G10395   3.654   3.202   7.861 -1.8057 -1.0678  0.2306
  102OSM   C17F10396   3.743   3.014   7.938  0.0481  0.0630  0.2441
  102OSM   H17F10397   3.750   2.969   8.039 -0.3501 -1.2872 -0.3147
  102OSM   H17G10398   3.843   3.045   7.901 -1.3677  2.3230 -2.0827
  102OSM   C18F10399   3.677   2.917   7.838 -0.6474 -0.1688 -0.4363
  102OSM   H18F10400   3.574   2.889   7.865 -1.5613  0.7208 -2.7213
  102OSM   H18G10401   3.738   2.828   7.811 -0.1979  0.5500 -1.9210
  102OSM   H18H10402   3.659   2.972   7.743 -1.0731 -0.4975 -0.5495
  103OSM      N10403   2.762   5.319   9.676  0.1323  0.7165  0.0983
  103OSM    C1510404   2.748   5.170   9.710 -0.0583 -0.8777  0.7485
  103OSM   H15A10405   2.672   5.119   9.652  1.0824 -1.1756 -0.5323
  103OSM   H15B10406   2.712   5.156   9.811 -0.7750 -0.8300  0.5071
  103OSM   H15C10407   2.842   5.120   9.690  0.5943 -0.3882  2.3863
  103OSM    C1410408   2.634   5.387   9.714  0.1348 -0.0636  0.5574
  103OSM   H14A10409   2.554   5.341   9.659  0.8526 -1.4587  0.6489
  103OSM   H14B10410   2.631   5.494   9.699  0.2077 -0.1167  0.1604
  103OSM   H14C10411   2.618   5.374   9.820 -1.8425  3.7810  0.9155
  103OSM    C1310412   2.874   5.377   9.772  0.5820 -0.2738 -0.0045
  103OSM   H13A10413   2.864   5.331   9.869 -2.0900 -3.0110 -1.4277
  103OSM   H13B10414   2.849   5.481   9.787 -3.3408 -1.0717  0.0082
  103OSM   H13C10415   2.974   5.373   9.731  0.4906  1.4828 -0.4900
  103OSM    C1210416   2.808   5.316   9.531 -0.2347 -0.0283 -0.7449
  103OSM   H12A10417   2.883   5.239   9.533  0.1582  0.3631 -0.3486
  103OSM   H12B10418   2.846   5.413   9.504 -0.9110  0.8351  1.2615
  103OSM    C1110419   2.701   5.285   9.426  0.6054  0.3788 -0.1878
  103OSM   H11A10420   2.740   5.293   9.322 -0.8484  1.4436 -0.6822
  103OSM   H11B10421   2.626   5.367   9.426  0.2074  0.0263  0.3407
  103OSM      P10422   2.701   5.034   9.385 -0.1261 -0.0440 -1.0699
  103OSM    O1310423   2.845   5.043   9.430 -0.6918  0.3671  0.2947
  103OSM    O1410424   2.628   4.915   9.429  0.6653 -0.2396  0.0980
  103OSM    O1110425   2.688   5.051   9.236 -0.2862 -0.3696 -0.4430
  103OSM    O1210426   2.625   5.159   9.446 -0.1151  0.0564  0.0475
  103OSM    C1S10427   2.561   5.088   9.173 -0.2112 -0.4301 -0.4046
  103OSM    H1S10428   2.476   5.077   9.244  0.5778 -1.6424  0.3835
  103OSM    H1T10429   2.531   5.010   9.100  1.0622 -0.3474 -1.0461
  103OSM     NF10430   2.415   5.263   9.052  0.2696  0.1900 -0.3702
  103OSM    HNF10431   2.414   5.292   8.957 -0.0563  1.2687 -0.0483
  103OSM    C2S10432   2.550   5.235   9.108 -0.3655  0.4846 -0.0294
  103OSM    H2S10433   2.570   5.314   9.184  0.0875  0.5390 -0.2017
  103OSM    C3S10434   2.652   5.261   9.002  0.4929 -0.4462 -0.8837
  103OSM    H3S10435   2.640   5.185   8.922 -0.4232  0.4386 -1.6258
  103OSM     O310436   2.783   5.247   9.050 -0.5360  0.4751  0.4715
  103OSM    HO310437   2.775   5.192   9.128  2.2842  1.5408  1.6432
  103OSM    C4S10438   2.622   5.397   8.944 -0.2507 -0.0672  0.4712
  103OSM    H4S10439   2.629   5.484   9.011 -0.2748  0.0951  0.2647
  103OSM    C5S10440   2.602   5.413   8.809  0.0453 -0.3387 -0.4218
  103OSM    H5S10441   2.621   5.341   8.728 -1.6225  2.2836 -3.3644
  103OSM    C6S10442   2.586   5.554   8.756 -0.1307 -0.0924 -0.0652
  103OSM    H6S10443   2.670   5.567   8.684 -0.9453  1.6188 -0.7782
  103OSM    H6T10444   2.616   5.635   8.826 -0.6038  1.7016 -1.8395
  103OSM    C7S10445   2.456   5.575   8.677  0.3738 -0.3591 -0.1773
  103OSM    H7S10446   2.459   5.677   8.635 -0.0530 -0.1459  0.3081
  103OSM    H7T10447   2.366   5.569   8.742  1.4153 -0.2915  1.3220
  103OSM    C8S10448   2.434   5.483   8.552  0.6745  0.6455 -0.0576
  103OSM    H8S10449   2.468   5.381   8.579 -0.0486  0.3178 -0.3598
  103OSM    H8T10450   2.503   5.520   8.473  2.9266 -0.7634  1.1535
  103OSM    C9S10451   2.287   5.478   8.500  0.3301  0.0415 -0.2440
  103OSM    H9S10452   2.252   5.578   8.465  0.9394  0.2834 -0.1802
  103OSM    H9T10453   2.219   5.451   8.583 -0.8998  0.5664 -1.0462
  103OSM   C10S10454   2.264   5.402   8.367 -0.3171  0.0451 -0.2205
  103OSM   H10S10455   2.330   5.433   8.283 -1.2169 -0.7505 -1.2597
  103OSM   H10T10456   2.164   5.434   8.331 -0.6837  1.1697  1.6447
  103OSM   C11S10457   2.267   5.248   8.392  0.1148 -0.6152  0.1920
  103OSM   H11S10458   2.182   5.234   8.463 -0.8153 -0.6201 -0.9022
  103OSM   H11T10459   2.358   5.209   8.442 -0.2757  1.2177  2.5227
  103OSM   C12S10460   2.213   5.184   8.259  0.0507  0.1583 -0.4085
  103OSM   H12S10461   2.292   5.197   8.182  1.3054 -4.0368 -0.0788
  103OSM   H12T10462   2.117   5.230   8.229 -0.0342  0.1631 -0.1304
  103OSM   C13S10463   2.201   5.030   8.268  0.6626  0.8093  0.0201
  103OSM   H13S10464   2.140   5.002   8.357 -0.9725  1.7556 -0.7452
  103OSM   H13T10465   2.299   4.983   8.292 -0.0869 -0.4540  0.6952
  103OSM   C14S10466   2.138   4.973   8.141 -0.2884 -0.3053  0.2611
  103OSM   H14S10467   2.040   5.025   8.134  0.4553  1.1330 -0.0084
  103OSM   H14T10468   2.132   4.863   8.150  3.2511 -0.5247  1.5330
  103OSM   C15S10469   2.214   4.991   8.010  0.0638 -0.2494 -0.2194
  103OSM   H15S10470   2.197   5.090   7.962  0.5605 -0.3943 -0.6972
  103OSM   H15T10471   2.158   4.921   7.946 -0.8947 -1.9676  2.3422
  103OSM   C16S10472   2.359   4.952   8.011 -0.1568  0.5107  0.0662
  103OSM   H16S10473   2.383   4.881   8.093  0.8854  1.9066  1.0015
  103OSM   H16T10474   2.428   5.035   8.037  0.2319 -0.1081  1.0749
  103OSM   C17S10475   2.406   4.891   7.875 -1.0027  0.3367  0.0989
  103OSM   H17S10476   2.382   4.972   7.803 -0.2387  1.0833  0.6611
  103OSM   H17T10477   2.356   4.798   7.841  1.4780 -0.7617 -0.8541
  103OSM   C18S10478   2.559   4.874   7.863  0.2544  0.2725  0.4133
  103OSM   H18S10479   2.612   4.953   7.920  1.1021  0.1953 -0.2519
  103OSM   H18T10480   2.585   4.870   7.755 -2.1855 -1.4270 -0.1962
  103OSM   H18U10481   2.582   4.774   7.906 -1.2794 -0.4823 -0.4193
  103OSM    C1F10482   2.295   5.283   9.114 -0.0699  0.9427 -0.1301
  103OSM     OF10483   2.278   5.264   9.232 -0.0597  0.4458  0.4475
  103OSM    C2F10484   2.197   5.346   9.032 -0.0359  0.5244 -0.6685
  103OSM    H2F10485   2.216   5.456   9.034 -0.7657  0.6491 -0.0227
  103OSM    H2G10486   2.095   5.337   9.075 -0.1947  1.6598 -0.7717
  103OSM    C3F10487   2.188   5.297   8.884  0.1093 -0.3352  0.1566
  103OSM    H3F10488   2.281   5.304   8.825 -1.1562 -0.7266 -1.9788
  103OSM    H3G10489   2.124   5.367   8.827  0.0963  0.4001  1.0444
  103OSM    C4F10490   2.127   5.159   8.874  0.3487 -0.0507 -0.8231
  103OSM    H4F10491   2.027   5.157   8.922  0.9564  1.2936  0.5463
  103OSM    H4G10492   2.182   5.088   8.939 -0.1715 -0.4101 -0.7674
  103OSM    C5F10493   2.107   5.090   8.740  0.0176  1.0656 -0.5611
  103OSM    H5F10494   2.038   5.151   8.678  0.0282  1.3793 -0.2715
  103OSM    H5G10495   2.072   4.985   8.749  0.0965  0.9436 -1.4918
  103OSM    C6F10496   2.235   5.073   8.661 -0.5590  1.0007 -0.4599
  103OSM    H6F10497   2.290   5.169   8.652  0.6277  0.4923  0.8308
  103OSM    H6G10498   2.210   5.048   8.556 -1.7089  0.9913 -0.1974
  103OSM    C7F10499   2.340   4.970   8.707  0.7125 -0.2324 -0.0976
  103OSM    H7F10500   2.298   4.867   8.708  0.8949 -0.3021  0.8941
  103OSM    H7G10501   2.370   4.989   8.812 -0.8207  1.1911  0.1330
  103OSM    C8F10502   2.472   4.973   8.622  0.3503 -0.3428  0.1104
  103OSM    H8F10503   2.512   5.076   8.627 -0.9450  0.2091 -0.4309
  103OSM    H8G10504   2.433   4.962   8.518  1.5722 -1.0113 -0.2984
  103OSM    C9F10505   2.563   4.865   8.664  0.5000 -0.8801 -0.3809
  103OSM    H9F10506   2.565   4.847   8.773 -1.1597  3.6319  0.6229
  103OSM   C10F10507   2.638   4.787   8.586  0.2863 -0.5684 -0.1327
  103OSM   H10F10508   2.701   4.705   8.623  4.0937  1.8505 -0.6314
  103OSM   C11F10509   2.661   4.812   8.434  0.1839 -0.1535  0.1004
  103OSM   H11F10510   2.756   4.867   8.419 -0.0741 -0.0467 -1.3828
  103OSM   H11G10511   2.592   4.884   8.384 -0.0619 -1.3266 -1.3317
  103OSM   C12F10512   2.654   4.681   8.350 -0.5221  0.4137  0.0097
  103OSM   H12F10513   2.551   4.644   8.364 -0.3616  0.7775  2.8510
  103OSM   H12G10514   2.722   4.606   8.396  0.3920  1.6167  0.7060
  103OSM   C13F10515   2.674   4.699   8.202 -0.4617 -0.5937 -0.0354
  103OSM   H13F10516   2.627   4.612   8.151 -2.3413  0.2971  0.0816
  103OSM   H13G10517   2.638   4.794   8.158 -0.0793 -0.3575  0.1562
  103OSM   C14F10518   2.820   4.694   8.164  0.3460 -0.0186 -0.2911
  103OSM   H14F10519   2.855   4.594   8.198  1.2476  0.6809  0.8896
  103OSM   H14G10520   2.876   4.772   8.219 -1.7813  2.5993 -1.6249
  103OSM   C15F10521   2.856   4.705   8.010  0.4255  0.1159  0.0638
  103OSM   H15F10522   2.802   4.787   7.959  0.7037  0.2287 -0.0525
  103OSM   H15G10523   2.815   4.614   7.961  0.3350  0.7242 -1.0099
  103OSM   C16F10524   3.010   4.725   7.995  0.5184 -0.3242  0.2058
  103OSM   H16F10525   3.057   4.626   8.016 -0.5655 -1.1035 -0.8840
  103OSM   H16G10526   3.045   4.803   8.066  1.4566 -0.1877 -0.3898
  103OSM   C17F10527   3.055   4.768   7.858 -0.1945 -1.1376 -0.4951
  103OSM   H17F10528   3.014   4.868   7.831  1.3796 -0.0765  0.8442
  103OSM   H17G10529   3.011   4.695   7.787 -1.6495 -2.1068  1.3096
  103OSM   C18F10530   3.206   4.776   7.849  0.2577  0.8875 -0.4765
  103OSM   H18F10531   3.248   4.807   7.751  1.9994 -2.5897 -0.9864
  103OSM   H18G10532   3.244   4.672   7.856 -0.4345  0.6814  0.3438
  103OSM   H18H10533   3.243   4.834   7.936 -0.3246 -0.0764  0.4297
  104OSM      N10534   1.655   4.181   9.776 -0.1936  0.3686 -0.6365
  104OSM    C1510535   1.597   4.049   9.755  0.0339  0.0274  1.0219
  104OSM   H15A10536   1.600   3.977   9.836 -0.8626 -1.0471  0.1436
  104OSM   H15B10537   1.666   4.000   9.687  0.6026  0.0710  1.5609
  104OSM   H15C10538   1.498   4.060   9.712  0.1956 -0.6570  0.4454
  104OSM    C1410539   1.570   4.247   9.879  0.0486 -0.7148 -0.3945
  104OSM   H14A10540   1.605   4.347   9.901  1.8634 -1.8762  2.6087
  104OSM   H14B10541   1.566   4.194   9.973 -0.6232  0.6598  0.3793
  104OSM   H14C10542   1.465   4.248   9.851 -0.3174 -2.5545  0.7351
  104OSM    C1310543   1.786   4.168   9.829 -0.0942 -0.0514  0.0506
  104OSM   H13A10544   1.854   4.123   9.757 -0.9450 -0.7125 -0.3488
  104OSM   H13B10545   1.796   4.091   9.903  1.7798 -0.8793 -0.9743
  104OSM   H13C10546   1.832   4.260   9.864 -1.2278  0.5396  0.0221
  104OSM    C1210547   1.655   4.259   9.647 -0.2266 -0.0587  1.2324
  104OSM   H12A10548   1.706   4.352   9.667  0.5908 -0.5077  1.2513
  104OSM   H12B10549   1.552   4.269   9.614 -0.2778  0.0635  1.4259
  104OSM    C1110550   1.733   4.196   9.526 -0.2790  0.2862 -0.4408
  104OSM   H11A10551   1.736   4.271   9.443 -0.8960  2.2256  1.2108
  104OSM   H11B10552   1.673   4.108   9.494  0.1781 -0.4396  0.6503
  104OSM      P10553   1.926   4.008   9.516 -0.5291  0.1346 -0.1578
  104OSM    O1310554   2.065   3.991   9.561 -0.1004  0.0601 -0.7045
  104OSM    O1410555   1.823   3.917   9.568  0.4629 -0.1436 -0.0607
  104OSM    O1110556   1.912   4.000   9.363  0.5453 -0.1208  0.3195
  104OSM    O1210557   1.872   4.159   9.554  0.1671  0.1619  0.0521
  104OSM    C1S10558   1.953   4.116   9.291  0.2601  0.4538  0.1903
  104OSM    H1S10559   2.047   4.165   9.326  0.1670  1.3637 -0.7756
  104OSM    H1T10560   1.884   4.203   9.286 -0.0163  0.1699 -1.6031
  104OSM     NF10561   2.050   4.186   9.064 -0.0242 -0.2485  0.5113
  104OSM    HNF10562   2.006   4.228   8.986  1.8150 -0.7715 -0.8685
  104OSM    C2S10563   1.973   4.075   9.140 -0.1673 -0.0205  0.7820
  104OSM    H2S10564   2.043   3.988   9.138  1.1202  0.9830  1.1390
  104OSM    C3S10565   1.833   4.026   9.078  0.3216  0.8013  0.4743
  104OSM    H3S10566   1.768   4.114   9.099 -0.3169  0.6603 -0.7819
  104OSM     O310567   1.783   3.916   9.145 -0.2483  0.1022 -0.2657
  104OSM    HO310568   1.835   3.910   9.225  1.7522 -0.1097 -1.5204
  104OSM    C4S10569   1.835   3.995   8.929  0.3755  0.4341 -0.0101
  104OSM    H4S10570   1.841   4.089   8.873 -1.1499  0.8136  0.4052
  104OSM    C5S10571   1.837   3.878   8.863 -0.3483  0.4495 -0.0364
  104OSM    H5S10572   1.838   3.781   8.915 -0.4264 -0.6911 -2.0424
  104OSM    C6S10573   1.851   3.865   8.711  0.1573 -0.0790 -1.0282
  104OSM    H6S10574   1.836   3.963   8.661 -1.3096  0.1893 -0.1514
  104OSM    H6T10575   1.788   3.782   8.672  2.0681 -0.3366 -3.8243
  104OSM    C7S10576   1.987   3.816   8.671  0.5101 -0.5545 -0.5040
  104OSM    H7S10577   2.006   3.719   8.723  1.2117 -0.7049 -1.0295
  104OSM    H7T10578   2.071   3.876   8.712  0.9980 -3.3753  3.2310
  104OSM    C8S10579   2.011   3.788   8.520  0.0547 -0.6060  0.1402
  104OSM    H8S10580   2.010   3.883   8.462 -2.5891 -2.7933 -3.8752
  104OSM    H8T10581   1.922   3.744   8.470  0.1033 -0.2453 -0.2738
  104OSM    C9S10582   2.134   3.715   8.480  0.1396  0.4799  0.0108
  104OSM    H9S10583   2.135   3.610   8.516  1.9497  0.1865 -0.7878
  104OSM    H9T10584   2.228   3.758   8.521  0.4704  1.7334 -1.9294
  104OSM   C10S10585   2.159   3.700   8.332  0.4820 -0.0115  0.1590
  104OSM   H10S10586   2.255   3.648   8.314  0.5483  0.4507 -0.8910
  104OSM   H10T10587   2.164   3.802   8.287  1.3944  0.1113  0.5180
  104OSM   C11S10588   2.051   3.628   8.255  0.1867  0.6686 -0.3311
  104OSM   H11S10589   2.080   3.629   8.148  1.8435  0.9842  0.0974
  104OSM   H11T10590   1.961   3.692   8.267 -1.8903 -2.2121  0.7284
  104OSM   C12S10591   2.023   3.484   8.306  0.3335 -0.4329 -0.5175
  104OSM   H12S10592   2.007   3.477   8.416  1.7887 -2.1979 -0.3605
  104OSM   H12T10593   2.117   3.426   8.295  1.6151  1.0143  1.9473
  104OSM   C13S10594   1.911   3.419   8.221 -0.1370  0.0081  0.4585
  104OSM   H13S10595   1.847   3.509   8.211 -0.4789 -0.0987  1.5781
  104OSM   H13T10596   1.865   3.335   8.276  0.7851 -0.6673  0.2173
  104OSM   C14S10597   1.954   3.378   8.074  0.0282  0.2589  0.1261
  104OSM   H14S10598   2.061   3.348   8.077 -0.3372 -1.0941  2.7370
  104OSM   H14T10599   1.941   3.466   8.006 -0.2148  1.5662  1.8014
  104OSM   C15S10600   1.876   3.252   8.011  0.2261 -0.4119 -0.4431
  104OSM   H15S10601   1.766   3.270   8.012  0.2247 -0.3699 -1.0826
  104OSM   H15T10602   1.890   3.161   8.073 -1.6308 -1.8596 -2.0294
  104OSM   C16S10603   1.918   3.220   7.870  0.2963  0.3758  0.6624
  104OSM   H16S10604   1.946   3.319   7.828 -1.1179 -0.0294 -1.3931
  104OSM   H16T10605   1.837   3.175   7.810  1.2594  0.1880 -0.5343
  104OSM   C17S10606   2.044   3.142   7.856  0.3034  0.8284 -0.0767
  104OSM   H17S10607   2.027   3.055   7.922 -1.9558  0.8694 -0.5161
  104OSM   H17T10608   2.124   3.211   7.891 -0.0440  0.9996  0.3892
  104OSM   C18S10609   2.070   3.107   7.710 -0.0935  0.0949  0.5019
  104OSM   H18S10610   2.093   3.198   7.652 -0.5176 -0.2042 -0.1417
  104OSM   H18T10611   1.982   3.045   7.685 -1.9790  2.4757  0.8739
  104OSM   H18U10612   2.157   3.038   7.703  0.5229  1.0212 -1.7155
  104OSM    C1F10613   2.175   4.223   9.093  0.4876 -0.5131  0.0605
  104OSM     OF10614   2.251   4.163   9.168  0.6696  0.0494  0.2662
  104OSM    C2F10615   2.219   4.351   9.031  0.0812  0.0718  0.5121
  104OSM    H2F10616   2.218   4.438   9.100  0.4526 -0.5509  1.3147
  104OSM    H2G10617   2.142   4.376   8.955  0.4134 -2.0772 -0.6187
  104OSM    C3F10618   2.358   4.341   8.967 -0.1981 -0.5561  0.0072
  104OSM    H3F10619   2.435   4.317   9.044  0.8839  0.2422 -0.7989
  104OSM    H3G10620   2.381   4.438   8.920  0.5347 -0.5923  0.2850
  104OSM    C4F10621   2.363   4.244   8.850  0.1987 -0.0825  0.5704
  104OSM    H4F10622   2.324   4.146   8.885  2.0288 -1.2481 -0.5278
  104OSM    H4G10623   2.468   4.227   8.819 -0.1594 -0.7186 -0.3328
  104OSM    C5F10624   2.290   4.289   8.723 -1.0387  0.5564 -0.5936
  104OSM    H5F10625   2.330   4.391   8.702  0.9428 -0.1695 -0.5301
  104OSM    H5G10626   2.184   4.294   8.754 -0.0475 -0.9868  3.7110
  104OSM    C6F10627   2.328   4.198   8.606 -0.0009  0.3888 -0.1053
  104OSM    H6F10628   2.369   4.104   8.649 -1.0591  0.2395  0.6130
  104OSM    H6G10629   2.410   4.243   8.545 -2.1080  2.1860 -1.7850
  104OSM    C7F10630   2.208   4.164   8.518 -0.5350  0.5169  0.1191
  104OSM    H7F10631   2.133   4.244   8.505 -2.6810 -1.5120 -0.8162
  104OSM    H7G10632   2.167   4.076   8.572  3.0386  0.1494  2.6055
  104OSM    C8F10633   2.240   4.110   8.380 -0.2906 -0.0045  0.1394
  104OSM    H8F10634   2.251   4.206   8.324 -2.4225  0.6455  0.7327
  104OSM    H8G10635   2.154   4.062   8.328 -1.1254  0.6700  0.8521
  104OSM    C9F10636   2.355   4.013   8.378 -0.7506  0.2988 -0.0993
  104OSM    H9F10637   2.331   3.913   8.418  0.2267 -0.0678 -0.4064
  104OSM   C10F10638   2.478   4.042   8.340 -0.1800 -0.1839 -0.2623
  104OSM   H10F10639   2.553   3.964   8.354  1.4697  1.2595 -0.7124
  104OSM   C11F10640   2.530   4.176   8.295  0.3185 -0.1935  0.8439
  104OSM   H11F10641   2.608   4.206   8.368  2.0406  1.3975 -1.5068
  104OSM   H11G10642   2.464   4.266   8.289 -0.6545 -0.6839  3.0542
  104OSM   C12F10643   2.595   4.179   8.155 -0.7520  0.0354  0.5909
  104OSM   H12F10644   2.520   4.152   8.078  2.0823 -2.1041 -1.6377
  104OSM   H12G10645   2.671   4.098   8.152 -0.8024 -0.1735  3.1860
  104OSM   C13F10646   2.677   4.305   8.122  0.3196 -0.6898  0.0559
  104OSM   H13F10647   2.732   4.329   8.215 -1.1099 -0.1624  0.8008
  104OSM   H13G10648   2.614   4.392   8.094 -0.8095 -1.2188  0.8543
  104OSM   C14F10649   2.782   4.273   8.011  0.1165 -0.4865 -0.0615
  104OSM   H14F10650   2.763   4.356   7.940 -0.5376  0.3826  1.0796
  104OSM   H14G10651   2.773   4.183   7.947  0.1638  0.3442 -1.2695
  104OSM   C15F10652   2.923   4.309   8.054  0.1785  0.1533 -0.3196
  104OSM   H15F10653   2.943   4.396   8.120 -0.5561 -0.4884  0.8001
  104OSM   H15G10654   2.978   4.320   7.959  0.3571  2.2032 -0.0109
  104OSM   C16F10655   2.993   4.195   8.123  0.0726 -0.4945  0.7259
  104OSM   H16F10656   2.961   4.109   8.060 -3.0501  0.0164  1.4513
  104OSM   H16G10657   2.960   4.173   8.227  1.4423  0.5569  1.4216
  104OSM   C17F10658   3.151   4.210   8.117  0.3145 -0.8420  0.3093
  104OSM   H17F10659   3.178   4.312   8.153 -2.0700 -0.0664  0.0440
  104OSM   H17G10660   3.188   4.206   8.013 -0.4531  0.9057 -0.0721
  104OSM   C18F10661   3.227   4.095   8.206  0.5314  0.1276  0.2957
  104OSM   H18F10662   3.213   3.999   8.153 -1.9212 -0.1557  1.3138
  104OSM   H18G10663   3.174   4.080   8.303  0.6305  1.4530  0.5789
  104OSM   H18H10664   3.333   4.120   8.224  2.7692 -5.7478 -2.2277
  105OSM      N10665   1.848   3.594   9.786  0.6286  0.3729 -0.4008
  105OSM    C1510666   1.710   3.605   9.852 -0.3240  0.4873 -0.2622
  105OSM   H15A10667   1.694   3.567   9.953 -2.0798 -2.1745 -1.4171
  105OSM   H15B10668   1.645   3.538   9.797 -1.9642  1.2543  0.6544
  105OSM   H15C10669   1.652   3.694   9.835 -0.1231  0.8200  0.7163
  105OSM    C1410670   1.942   3.689   9.848 -0.7018 -0.4227 -0.5714
  105OSM   H14A10671   1.928   3.788   9.808 -0.8088 -0.8769 -1.7054
  105OSM   H14B10672   2.043   3.656   9.832 -1.0777 -2.0346  0.1751
  105OSM   H14C10673   1.939   3.693   9.956  1.3211 -1.3104 -0.4409
  105OSM    C1310674   1.899   3.450   9.810  0.3448 -0.2664  0.2963
  105OSM   H13A10675   1.837   3.374   9.766  0.0307 -1.0777  2.0814
  105OSM   H13B10676   1.923   3.423   9.911  1.4965 -2.4151 -0.4779
  105OSM   H13C10677   1.996   3.449   9.760 -0.5306 -0.0354 -1.4934
  105OSM    C1210678   1.834   3.631   9.642 -0.2059  0.0378 -0.4117
  105OSM   H12A10679   1.928   3.648   9.591 -0.2526  1.2830 -0.0945
  105OSM   H12B10680   1.794   3.731   9.638  0.7918  0.4853  0.2933
  105OSM    C1110681   1.749   3.536   9.553 -0.5277  0.1015 -0.0850
  105OSM   H11A10682   1.820   3.454   9.529 -0.7301  0.2977 -1.4810
  105OSM   H11B10683   1.741   3.594   9.458  2.0427  0.0410 -0.4182
  105OSM      P10684   1.587   3.341   9.588 -0.1893  0.5260 -0.3074
  105OSM    O1310685   1.706   3.251   9.595  0.2176  0.1743 -0.2918
  105OSM    O1410686   1.478   3.306   9.680  0.1867 -0.4415  0.0818
  105OSM    O1110687   1.537   3.336   9.441  0.1831  0.1217 -0.2743
  105OSM    O1210688   1.629   3.491   9.612  0.1275 -0.3582 -0.5747
  105OSM    C1S10689   1.605   3.272   9.336  0.2600  0.5093  0.2733
  105OSM    H1S10690   1.611   3.163   9.357  0.4618  0.1268 -1.6196
  105OSM    H1T10691   1.713   3.296   9.335  0.6864 -1.1969  1.2051
  105OSM     NF10692   1.632   3.232   9.100 -1.0056 -0.0224 -0.5528
  105OSM    HNF10693   1.693   3.275   9.033  1.2067 -0.0603  1.3391
  105OSM    C2S10694   1.551   3.303   9.193  0.2828 -0.3662 -0.7961
  105OSM    H2S10695   1.447   3.264   9.187  0.5533 -2.3211  3.4659
  105OSM    C3S10696   1.548   3.464   9.183 -0.1083  0.6060 -0.2222
  105OSM    H3S10697   1.649   3.506   9.200  0.2225  0.0265 -0.7042
  105OSM     O310698   1.470   3.528   9.283  0.1286  0.0723 -0.4735
  105OSM    HO310699   1.462   3.463   9.353 -0.1285  0.0093 -0.5636
  105OSM    C4S10700   1.503   3.495   9.048 -0.0967  0.1169  0.5416
  105OSM    H4S10701   1.406   3.451   9.022  0.6942 -0.5110 -1.5833
  105OSM    C5S10702   1.575   3.567   8.953 -0.9885 -0.2324  0.2504
  105OSM    H5S10703   1.670   3.614   8.984 -0.6168 -2.4145  2.7273
  105OSM    C6S10704   1.544   3.604   8.809  0.6884  0.5752  0.6541
  105OSM    H6S10705   1.556   3.712   8.784  0.0941  0.6434  0.6488
  105OSM    H6T10706   1.436   3.585   8.794 -0.2830  2.6076  3.9330
  105OSM    C7S10707   1.633   3.523   8.711  0.5313  0.0578 -0.2993
  105OSM    H7S10708   1.739   3.533   8.745  0.4942 -1.0671  0.1947
  105OSM    H7T10709   1.627   3.567   8.609  2.0563  1.1738  0.0533
  105OSM    C8S10710   1.610   3.372   8.706  0.9277 -0.2589  0.3143
  105OSM    H8S10711   1.502   3.352   8.690  1.1328 -0.5061 -0.8125
  105OSM    H8T10712   1.648   3.318   8.796 -0.7320 -2.0648 -0.0131
  105OSM    C9S10713   1.684   3.312   8.592  0.2495 -0.2550  0.0824
  105OSM    H9S10714   1.651   3.206   8.601  0.2335 -0.0690  3.6257
  105OSM    H9T10715   1.793   3.324   8.612  0.4637 -2.9113  0.8207
  105OSM   C10S10716   1.644   3.350   8.447 -0.1060  0.9297  0.1103
  105OSM   H10S10717   1.690   3.269   8.386 -1.5596  1.0825 -1.2518
  105OSM   H10T10718   1.680   3.448   8.410 -0.6621  0.4711 -1.7786
  105OSM   C11S10719   1.491   3.346   8.417  0.2420 -0.8536 -0.0802
  105OSM   H11S10720   1.434   3.420   8.476  0.9844 -1.6046  1.6511
  105OSM   H11T10721   1.457   3.247   8.454 -1.3176 -0.4563 -0.4022
  105OSM   C12S10722   1.468   3.356   8.266  0.2286 -0.1194  0.1421
  105OSM   H12S10723   1.367   3.322   8.236  1.0676 -3.0030  0.2692
  105OSM   H12T10724   1.533   3.278   8.220 -0.2372  1.0457 -2.6955
  105OSM   C13S10725   1.503   3.491   8.202 -0.0677  0.3125 -0.2316
  105OSM   H13S10726   1.614   3.495   8.192  0.0481 -0.0206  0.8093
  105OSM   H13T10727   1.471   3.569   8.274 -0.0968  0.0536  0.0418
  105OSM   C14S10728   1.442   3.520   8.066  0.2895 -0.4803 -0.0849
  105OSM   H14S10729   1.336   3.551   8.075  0.6835  0.6293  1.0160
  105OSM   H14T10730   1.448   3.422   8.014 -0.0393 -0.8508  0.5638
  105OSM   C15S10731   1.516   3.625   7.978 -0.6384 -0.0674 -0.2955
  105OSM   H15S10732   1.536   3.718   8.035  1.4348 -1.1763  0.8939
  105OSM   H15T10733   1.453   3.645   7.889  2.4314 -2.4628 -3.3094
  105OSM   C16S10734   1.637   3.565   7.906 -0.1231  0.1728  0.4024
  105OSM   H16S10735   1.596   3.463   7.886 -0.9022  0.1156  2.1016
  105OSM   H16T10736   1.717   3.547   7.980 -1.2497 -1.7703  1.2362
  105OSM   C17S10737   1.700   3.637   7.786 -0.1843 -0.4330  0.0230
  105OSM   H17S10738   1.722   3.738   7.828 -2.4618  0.5776 -1.0501
  105OSM   H17T10739   1.624   3.641   7.706  0.6341 -2.2615 -0.9170
  105OSM   C18S10740   1.835   3.587   7.734  0.4395  0.1192  0.3176
  105OSM   H18S10741   1.913   3.616   7.807  2.0821  0.1106 -1.3421
  105OSM   H18T10742   1.858   3.633   7.635 -3.7815 -1.2913 -1.5800
  105OSM   H18U10743   1.840   3.478   7.710  0.7396  0.0107  0.8670
  105OSM    C1F10744   1.623   3.102   9.090  0.1174 -0.6835 -0.1067
  105OSM     OF10745   1.560   3.034   9.170 -0.2440 -0.6049  0.3795
  105OSM    C2F10746   1.692   3.034   8.969 -0.5725 -0.4566  1.1158
  105OSM    H2F10747   1.800   3.056   8.980 -0.4505 -0.0914 -0.5853
  105OSM    H2G10748   1.667   3.076   8.869 -0.9652  1.8358  2.1339
  105OSM    C3F10749   1.667   2.881   8.977  0.9823 -0.2411 -0.0775
  105OSM    H3F10750   1.669   2.840   9.081 -0.0105 -0.1528 -0.0129
  105OSM    H3G10751   1.743   2.830   8.914 -0.8657 -0.5673 -2.1583
  105OSM    C4F10752   1.528   2.843   8.913 -0.0529 -0.2528 -0.1925
  105OSM    H4F10753   1.452   2.922   8.932 -0.6031 -0.3632 -1.8320
  105OSM    H4G10754   1.489   2.750   8.960 -2.3832  0.1664 -1.2060
  105OSM    C5F10755   1.546   2.817   8.766 -0.0886  0.1967 -0.7247
  105OSM    H5F10756   1.620   2.734   8.764 -0.2330  0.0441  0.1565
  105OSM    H5G10757   1.588   2.907   8.715 -1.8849  0.4376 -1.8562
  105OSM    C6F10758   1.418   2.771   8.690  0.2327 -0.1647 -0.5853
  105OSM    H6F10759   1.347   2.855   8.675  1.2873  1.8859  4.1577
  105OSM    H6G10760   1.374   2.690   8.753  4.0436 -0.9521  1.3086
  105OSM    C7F10761   1.450   2.699   8.559  0.7467  0.4110 -0.1434
  105OSM    H7F10762   1.369   2.643   8.505  1.4836 -1.5649  0.6887
  105OSM    H7G10763   1.530   2.624   8.579  0.7360  0.3372 -0.3747
  105OSM    C8F10764   1.496   2.801   8.465 -0.0563  0.3226 -0.6069
  105OSM    H8F10765   1.577   2.865   8.508  0.0071  0.4869 -0.9719
  105OSM    H8G10766   1.418   2.880   8.456  0.3933  0.8947  0.3138
  105OSM    C9F10767   1.557   2.746   8.337  0.0015 -0.1894 -0.2727
  105OSM    H9F10768   1.584   2.640   8.328  1.4143  0.1975 -0.8738
  105OSM   C10F10769   1.576   2.824   8.233 -0.3444 -0.0723 -0.8249
  105OSM   H10F10770   1.603   2.775   8.138 -0.0324  0.2515 -0.9031
  105OSM   C11F10771   1.553   2.970   8.234 -0.1278  0.0832  0.8441
  105OSM   H11F10772   1.609   3.019   8.316  0.7349 -1.8613  1.4794
  105OSM   H11G10773   1.445   2.994   8.248 -0.6931  0.1863 -2.6930
  105OSM   C12F10774   1.586   3.044   8.100  0.5491  0.0503 -0.5352
  105OSM   H12F10775   1.644   2.978   8.032  2.3590  1.2595 -0.2218
  105OSM   H12G10776   1.654   3.131   8.116 -0.5754  0.9568 -0.5144
  105OSM   C13F10777   1.454   3.086   8.032  0.3554  0.3306 -0.5056
  105OSM   H13F10778   1.400   3.148   8.108 -0.9856 -1.1513 -0.1917
  105OSM   H13G10779   1.393   2.995   8.010  1.5636 -0.5231 -0.3840
  105OSM   C14F10780   1.479   3.167   7.900  0.4993 -0.3818 -0.1975
  105OSM   H14F10781   1.535   3.095   7.837  2.1064 -1.5850  2.4382
  105OSM   H14G10782   1.536   3.259   7.924 -0.9742  0.9362 -1.4734
  105OSM   C15F10783   1.348   3.219   7.832  0.5203 -0.1807 -0.1615
  105OSM   H15F10784   1.368   3.323   7.798 -0.7233  0.3952  0.7959
  105OSM   H15G10785   1.266   3.213   7.907  0.5397 -0.7525 -0.1803
  105OSM   C16F10786   1.321   3.126   7.713  0.7264 -0.0492  0.9371
  105OSM   H16F10787   1.303   3.021   7.746  2.4817 -1.1729 -1.4111
  105OSM   H16G10788   1.417   3.117   7.658  0.3382  0.7415  0.0975
  105OSM   C17F10789   1.191   3.163   7.635 -0.6914 -0.0833  0.2028
  105OSM   H17F10790   1.209   3.268   7.603  2.0484 -0.9054 -1.2989
  105OSM   H17G10791   1.101   3.154   7.699 -0.2850  0.0822  0.8203
  105OSM   C18F10792   1.173   3.076   7.512 -0.6871  0.0005  0.2057
  105OSM   H18F10793   1.269   3.060   7.458 -1.2748 -0.8648 -0.6196
  105OSM   H18G10794   1.111   3.130   7.438 -1.0899  0.8846  1.1581
  105OSM   H18H10795   1.129   2.976   7.536 -2.0403  0.3683 -0.6667
  106OSM      N10796   2.977   1.757   9.984 -0.3077  0.6870 -0.5216
  106OSM    C1510797   3.012   1.742   9.841  0.8375 -0.4730  1.0999
  106OSM   H15A10798   3.076   1.825   9.815  0.9050  0.6227  4.2919
  106OSM   H15B10799   2.928   1.746   9.774  2.5063 -1.6912 -1.2207
  106OSM   H15C10800   3.070   1.652   9.829  1.9402  0.3659 -0.1745
  106OSM    C1410801   3.113   1.780  10.051  0.4098  0.4074  0.1833
  106OSM   H14A10802   3.159   1.872  10.018  0.8297  0.1351 -0.0087
  106OSM   H14B10803   3.188   1.702  10.039  0.5640  0.7787 -1.5738
  106OSM   H14C10804   3.100   1.788  10.157  0.9967 -1.0865  0.3995
  106OSM    C1310805   2.887   1.878   9.994  0.0812  0.6060 -0.9764
  106OSM   H13A10806   2.789   1.859   9.954 -0.3251  0.8877 -0.1428
  106OSM   H13B10807   2.924   1.958   9.932 -0.7183  2.3922  0.7259
  106OSM   H13C10808   2.871   1.907  10.097 -4.4252  0.5787 -1.4603
  106OSM    C1210809   2.907   1.628  10.030 -0.4651 -0.0677 -0.9053
  106OSM   H12A10810   2.901   1.615  10.137 -2.2096  1.3622 -0.7774
  106OSM   H12B10811   2.962   1.542   9.995  1.1863  0.5919 -0.0357
  106OSM    C1110812   2.773   1.609   9.967  0.3175 -0.3272  0.0908
  106OSM   H11A10813   2.754   1.667   9.874 -0.0490  0.5859  0.7240
  106OSM   H11B10814   2.688   1.640  10.031 -2.2223  1.2077 -3.6255
  106OSM      P10815   2.783   1.395   9.824 -0.0679 -0.3388 -0.2118
  106OSM    O1310816   2.928   1.358   9.829 -0.6561  0.0410  0.1235
  106OSM    O1410817   2.689   1.277   9.812  0.9661 -0.7153  0.1988
  106OSM    O1110818   2.750   1.499   9.708 -0.2990 -0.1626  0.8119
  106OSM    O1210819   2.746   1.471   9.958 -0.1052  0.0506 -0.3221
  106OSM    C1S10820   2.617   1.509   9.666  1.0463 -0.3391 -0.3709
  106OSM    H1S10821   2.565   1.572   9.742  0.8740 -1.7853  0.7634
  106OSM    H1T10822   2.550   1.420   9.665 -0.6475  0.8750 -1.2877
  106OSM     NF10823   2.465   1.577   9.486 -0.2384  0.0531 -0.2961
  106OSM    HNF10824   2.423   1.507   9.429 -0.7361  0.8284 -0.9055
  106OSM    C2S10825   2.606   1.565   9.525 -0.2524 -0.8824  0.2314
  106OSM    H2S10826   2.648   1.667   9.513 -0.1779 -1.0291 -0.8974
  106OSM    C3S10827   2.679   1.463   9.426  0.4202  0.0981 -0.1138
  106OSM    H3S10828   2.624   1.367   9.443 -0.5428  0.2354 -2.1735
  106OSM     O310829   2.816   1.444   9.455 -0.0638  0.3035 -0.1151
  106OSM    HO310830   2.827   1.490   9.539  0.2578  0.9623 -0.5026
  106OSM    C4S10831   2.645   1.505   9.283 -0.0434 -0.8397  0.1367
  106OSM    H4S10832   2.556   1.455   9.241 -0.3944  0.6675 -0.9898
  106OSM    C5S10833   2.724   1.579   9.204  0.3230 -0.5614 -0.0291
  106OSM    H5S10834   2.818   1.625   9.239 -1.4985  0.9506  3.4158
  106OSM    C6S10835   2.697   1.605   9.059  0.0710  0.0054 -0.2222
  106OSM    H6S10836   2.668   1.709   9.035 -1.5069 -0.3662 -0.0164
  106OSM    H6T10837   2.602   1.552   9.038 -1.2713  2.1454  0.1019
  106OSM    C7S10838   2.798   1.546   8.965 -0.1502 -0.6150  0.3100
  106OSM    H7S10839   2.848   1.453   9.001 -0.1159 -1.5843 -2.0143
  106OSM    H7T10840   2.877   1.624   8.960 -0.7760 -0.0278 -1.0961
  106OSM    C8S10841   2.737   1.514   8.826  0.9942 -0.9451 -0.4890
  106OSM    H8S10842   2.659   1.591   8.808  0.4850 -1.0128  1.1745
  106OSM    H8T10843   2.673   1.426   8.848  1.5493 -1.0069  1.0442
  106OSM    C9S10844   2.843   1.492   8.720 -0.2111  0.6296  0.4186
  106OSM    H9S10845   2.903   1.403   8.750  0.0728  0.5836 -0.2722
  106OSM    H9T10846   2.909   1.581   8.714 -1.7865  1.8253  0.2757
  106OSM   C10S10847   2.776   1.470   8.584  0.6003  0.4211 -0.2790
  106OSM   H10S10848   2.703   1.549   8.557 -1.8296 -1.2637  0.9988
  106OSM   H10T10849   2.702   1.389   8.602  2.2336 -1.0763 -0.0552
  106OSM   C11S10850   2.872   1.433   8.476  0.5886 -1.0026  0.2643
  106OSM   H11S10851   2.960   1.377   8.514  0.7794 -1.8454 -1.3015
  106OSM   H11T10852   2.926   1.523   8.438  0.2618 -0.8337  0.1933
  106OSM   C12S10853   2.815   1.374   8.340 -0.1331 -0.3287 -0.0124
  106OSM   H12S10854   2.752   1.285   8.362 -1.4675  0.5644 -0.1177
  106OSM   H12T10855   2.908   1.347   8.285  1.2879  0.9107  1.6911
  106OSM   C13S10856   2.727   1.456   8.244 -0.0222  0.3967  0.2759
  106OSM   H13S10857   2.771   1.558   8.247 -0.3524  0.5546 -0.0626
  106OSM   H13T10858   2.618   1.448   8.267  0.4096 -0.1394  2.3456
  106OSM   C14S10859   2.731   1.404   8.105  0.3569 -0.0089  1.1902
  106OSM   H14S10860   2.715   1.294   8.100 -1.3192  0.2117  1.1669
  106OSM   H14T10861   2.835   1.413   8.067 -0.1183 -0.8588 -0.4323
  106OSM   C15S10862   2.641   1.482   8.006  0.0184  0.5469  0.0675
  106OSM   H15S10863   2.659   1.591   8.019 -0.1215  0.6940 -0.8889
  106OSM   H15T10864   2.534   1.462   8.029 -0.2757  0.9899 -0.8328
  106OSM   C16S10865   2.680   1.454   7.863  0.6175  0.0970  0.0567
  106OSM   H16S10866   2.658   1.349   7.837 -2.5270  0.3636  1.1565
  106OSM   H16T10867   2.787   1.474   7.839  0.2687  0.7587 -1.0127
  106OSM   C17S10868   2.594   1.520   7.764 -0.3267  0.3897 -0.6508
  106OSM   H17S10869   2.607   1.631   7.763  1.4290  0.2482  1.1213
  106OSM   H17T10870   2.484   1.503   7.774 -0.5013 -0.6521 -3.4894
  106OSM   C18S10871   2.624   1.467   7.623  0.1800 -0.8137 -0.6746
  106OSM   H18S10872   2.718   1.513   7.583 -1.1126  1.9317 -0.7992
  106OSM   H18T10873   2.541   1.494   7.554 -0.7819 -1.2274  0.3082
  106OSM   H18U10874   2.627   1.356   7.617  0.9465 -0.7714 -1.2782
  106OSM    C1F10875   2.381   1.671   9.535  0.8039 -0.3828  0.4465
  106OSM     OF10876   2.410   1.754   9.612 -0.3413  0.1018  0.4657
  106OSM    C2F10877   2.230   1.655   9.501 -0.1830 -0.9824 -0.4228
  106OSM    H2F10878   2.174   1.742   9.542  0.1546 -1.6608  1.6280
  106OSM    H2G10879   2.181   1.578   9.564 -0.3872  0.6234  1.5054
  106OSM    C3F10880   2.186   1.645   9.355 -0.0475 -0.2624  0.2565
  106OSM    H3F10881   2.076   1.637   9.355 -0.0111 -1.0063  1.7725
  106OSM    H3G10882   2.217   1.551   9.303  0.2893 -0.3084  0.5377
  106OSM    C4F10883   2.218   1.774   9.274  0.1978  0.4169  0.0874
  106OSM    H4F10884   2.186   1.863   9.333 -1.9985  0.0117 -0.3990
  106OSM    H4G10885   2.163   1.771   9.178  0.8913  0.9221 -0.3296
  106OSM    C5F10886   2.367   1.799   9.227  0.4081 -0.0473 -0.5876
  106OSM    H5F10887   2.413   1.706   9.186 -0.5192 -0.3943 -0.8576
  106OSM    H5G10888   2.424   1.839   9.314  0.7881  2.1402 -1.7709
  106OSM    C6F10889   2.370   1.903   9.110  0.3661  0.0543  0.2538
  106OSM    H6F10890   2.288   1.875   9.041 -0.5269 -0.8573  1.6313
  106OSM    H6G10891   2.467   1.908   9.056  0.0222 -0.9648 -0.4791
  106OSM    C7F10892   2.332   2.045   9.153 -0.0391  0.1295 -0.4195
  106OSM    H7F10893   2.392   2.059   9.245  2.5155 -1.7357 -1.6688
  106OSM    H7G10894   2.227   2.047   9.187  0.6502 -0.7511  1.9392
  106OSM    C8F10895   2.353   2.163   9.051 -0.0768  0.2430 -0.4886
  106OSM    H8F10896   2.456   2.167   9.011  0.0075  1.2943 -0.1956
  106OSM    H8G10897   2.330   2.260   9.102  1.4735 -0.0526  0.8585
  106OSM    C9F10898   2.248   2.157   8.944  0.4261  0.1507  0.0699
  106OSM    H9F10899   2.145   2.154   8.981  0.5822  1.3374  0.6696
  106OSM   C10F10900   2.273   2.137   8.817  0.4564  0.7945  0.6887
  106OSM   H10F10901   2.194   2.127   8.742  2.5467 -2.5168 -1.3586
  106OSM   C11F10902   2.406   2.115   8.742 -0.3467 -0.4341 -0.4993
  106OSM   H11F10903   2.484   2.157   8.808 -0.3528 -0.6105 -0.3780
  106OSM   H11G10904   2.414   2.176   8.650 -0.6489  0.9651  0.3771
  106OSM   C12F10905   2.438   1.979   8.693 -0.0101 -0.3051  0.0194
  106OSM   H12F10906   2.429   1.908   8.778  1.4274 -2.1927 -1.3201
  106OSM   H12G10907   2.544   1.973   8.661  0.7559 -1.4391  2.5224
  106OSM   C13F10908   2.340   1.937   8.585 -0.4764  0.0166 -0.0217
  106OSM   H13F10909   2.248   1.996   8.603  0.1962  0.5303  1.9624
  106OSM   H13G10910   2.315   1.828   8.592 -0.1925 -0.1003 -0.7207
  106OSM   C14F10911   2.387   1.970   8.440 -0.2365 -0.8618 -0.5625
  106OSM   H14F10912   2.498   1.964   8.446 -0.2763 -0.7639  0.3233
  106OSM   H14G10913   2.370   2.077   8.413  4.3219  0.9358  2.5630
  106OSM   C15F10914   2.344   1.875   8.329 -0.0406  0.3124  0.9435
  106OSM   H15F10915   2.233   1.874   8.338 -0.0484 -1.2063  0.8470
  106OSM   H15G10916   2.374   1.768   8.337 -0.1603 -0.0304 -2.1057
  106OSM   C16F10917   2.389   1.914   8.191 -0.5218  0.5530  0.5248
  106OSM   H16F10918   2.351   2.017   8.168 -3.2753 -0.3304  0.7496
  106OSM   H16G10919   2.339   1.850   8.116  1.6581  1.2492 -1.6733
  106OSM   C17F10920   2.544   1.899   8.183 -0.0594  0.0376 -0.1797
  106OSM   H17F10921   2.559   1.789   8.188 -3.8511 -0.6065  0.7424
  106OSM   H17G10922   2.598   1.951   8.265  1.1176 -1.2403 -0.1130
  106OSM   C18F10923   2.614   1.936   8.050 -0.2996  0.7136  0.8699
  106OSM   H18F10924   2.590   1.849   7.985  0.9828 -0.5549  2.0091
  106OSM   H18G10925   2.722   1.936   8.074 -0.4746 -0.4814  1.7714
  106OSM   H18H10926   2.581   2.033   8.008 -2.0713  0.7881  2.2765
  107OSM      N10927   3.277   6.292   9.906 -0.2630  0.2498  0.4093
  107OSM    C1510928   3.186   6.282  10.023 -0.8898 -0.3097 -0.1086
  107OSM   H15A10929   3.218   6.360  10.090  2.0403 -1.0594 -0.4921
  107OSM   H15B10930   3.187   6.185  10.070  1.4409  0.0247  0.6316
  107OSM   H15C10931   3.084   6.295   9.988 -1.5523  0.0544  1.8098
  107OSM    C1410932   3.255   6.432   9.844 -0.0818 -0.1868 -0.4166
  107OSM   H14A10933   3.268   6.509   9.919  0.2672  0.2034 -0.8691
  107OSM   H14B10934   3.157   6.451   9.804  0.1364  1.2178 -0.3292
  107OSM   H14C10935   3.333   6.450   9.771  0.4862  1.3512  0.5244
  107OSM    C1310936   3.413   6.273   9.962 -0.5024 -0.2959 -0.2824
  107OSM   H13A10937   3.479   6.263   9.877 -3.0546 -0.9170 -2.3024
  107OSM   H13B10938   3.419   6.179  10.015 -1.7774 -2.4853 -3.6816
  107OSM   H13C10939   3.438   6.352  10.032  0.3979 -0.9324  0.1389
  107OSM    C1210940   3.238   6.185   9.811  0.2692  0.2974  0.0377
  107OSM   H12A10941   3.138   6.203   9.774 -0.1093  0.6047  1.1504
  107OSM   H12B10942   3.218   6.094   9.865 -0.7619 -0.1698 -1.0849
  107OSM    C1110943   3.334   6.144   9.697 -0.2678 -0.0695 -0.9188
  107OSM   H11A10944   3.376   6.234   9.648  1.9682  1.5529  3.4291
  107OSM   H11B10945   3.273   6.084   9.627 -2.2412 -1.6863  1.9953
  107OSM      P10946   3.403   5.907   9.795 -0.0206 -0.0611 -0.1273
  107OSM    O1310947   3.492   5.872   9.906 -0.1103  0.1311  0.3371
  107OSM    O1410948   3.263   5.890   9.827  0.4477 -0.9665 -0.0063
  107OSM    O1110949   3.444   5.831   9.666 -0.1784  0.0847  0.0221
  107OSM    O1210950   3.436   6.065   9.751  0.0343  0.0468  0.1147
  107OSM    C1S10951   3.365   5.777   9.567  0.2291 -0.0382  0.7642
  107OSM    H1S10952   3.272   5.834   9.547 -0.5213 -1.2000  0.8495
  107OSM    H1T10953   3.332   5.673   9.590 -0.6796 -0.6442 -2.7278
  107OSM     NF10954   3.347   5.694   9.337  0.4326  0.4186  0.0022
  107OSM    HNF10955   3.346   5.595   9.326 -5.5001  0.1160  0.0889
  107OSM    C2S10956   3.441   5.754   9.428 -0.0487  0.3052 -1.3708
  107OSM    H2S10957   3.468   5.856   9.393  0.1110  1.2417  1.2577
  107OSM    C3S10958   3.569   5.671   9.444 -0.0117 -0.4234 -0.0559
  107OSM    H3S10959   3.536   5.569   9.476 -1.5842  0.4436  1.2569
  107OSM     O310960   3.645   5.704   9.562  0.4827 -0.0076  0.0428
  107OSM    HO310961   3.597   5.771   9.611 -0.4915  0.2532 -1.2252
  107OSM    C4S10962   3.650   5.664   9.321  0.0723 -0.9901  0.1732
  107OSM    H4S10963   3.610   5.591   9.249  0.0282 -0.7101 -0.0844
  107OSM    C5S10964   3.752   5.743   9.279  0.7716 -0.4683  0.7961
  107OSM    H5S10965   3.802   5.824   9.335  3.0640 -0.7718 -0.6793
  107OSM    C6S10966   3.825   5.726   9.142  1.1889  0.2651  0.7152
  107OSM    H6S10967   3.927   5.682   9.155  1.7158  1.3382  0.3400
  107OSM    H6T10968   3.841   5.822   9.089 -2.2625 -0.3022 -1.7139
  107OSM    C7S10969   3.742   5.638   9.032  0.1389 -0.0971 -0.5038
  107OSM    H7S10970   3.749   5.531   9.061  0.9711  0.0392 -0.1731
  107OSM    H7T10971   3.808   5.658   8.945  2.9330 -1.8880  1.0482
  107OSM    C8S10972   3.605   5.691   8.999  0.2168  0.2169  0.4297
  107OSM    H8S10973   3.620   5.799   8.979 -0.0000  0.2883  0.6432
  107OSM    H8T10974   3.537   5.684   9.087 -0.3456  4.7793  0.6073
  107OSM    C9S10975   3.532   5.608   8.890 -0.7149  0.7769  0.2274
  107OSM    H9S10976   3.426   5.643   8.886 -0.3550  1.9295  0.3934
  107OSM    H9T10977   3.527   5.500   8.912 -0.3665  0.0498 -2.8217
  107OSM   C10S10978   3.604   5.606   8.752 -0.5053  0.0444  0.6203
  107OSM   H10S10979   3.700   5.551   8.765  0.2480  0.9905 -0.6671
  107OSM   H10T10980   3.634   5.706   8.714 -1.6655  0.6349  1.1930
  107OSM   C11S10981   3.518   5.530   8.641  0.2110 -0.0987  0.2395
  107OSM   H11S10982   3.423   5.586   8.624  0.0716 -0.2560  0.4894
  107OSM   H11T10983   3.494   5.430   8.683 -0.0981  0.3560  1.1731
  107OSM   C12S10984   3.600   5.517   8.513  0.2042 -0.5456 -0.7139
  107OSM   H12S10985   3.681   5.449   8.549  0.0218  0.1375  1.0600
  107OSM   H12T10986   3.639   5.617   8.486  0.9302 -0.3779  0.8435
  107OSM   C13S10987   3.518   5.447   8.404 -0.9396  0.4817  0.0422
  107OSM   H13S10988   3.429   5.506   8.374 -1.4295 -0.0493  0.4321
  107OSM   H13T10989   3.495   5.340   8.421  1.6368 -0.1534 -0.0564
  107OSM   C14S10990   3.608   5.435   8.279  0.2536 -0.1206  0.3241
  107OSM   H14S10991   3.710   5.414   8.317 -0.3984 -2.6204  0.9019
  107OSM   H14T10992   3.609   5.528   8.218 -3.1880 -0.6910 -0.8254
  107OSM   C15S10993   3.572   5.312   8.189 -0.3412  0.4964  1.1483
  107OSM   H15S10994   3.595   5.215   8.238  1.1593  0.4840  0.4737
  107OSM   H15T10995   3.634   5.320   8.098 -1.7480  1.5741  0.2345
  107OSM   C16S10996   3.429   5.294   8.137 -1.0081  0.2668  0.1335
  107OSM   H16S10997   3.389   5.393   8.108  1.2678  1.9522  2.2986
  107OSM   H16T10998   3.364   5.256   8.219 -0.7800 -0.1460  0.1312
  107OSM   C17S10999   3.412   5.204   8.019 -0.4078 -0.0908 -0.1456
  107OSM   H17S11000   3.467   5.247   7.933  0.5162 -0.9051  0.0145
  107OSM   H17T11001   3.302   5.204   8.003 -0.3017 -0.2425 -0.8877
  107OSM   C18S11002   3.461   5.061   8.034  0.4071  0.1675  0.2277
  107OSM   H18S11003   3.450   5.028   8.139  2.1253  1.3207  0.8156
  107OSM   H18T11004   3.571   5.070   8.016  0.4195  3.5164  1.1449
  107OSM   H18U11005   3.413   4.989   7.965  1.5972 -1.0126  0.6017
  107OSM    C1F11006   3.243   5.758   9.288 -0.7560  1.0337  0.1946
  107OSM     OF11007   3.235   5.878   9.309  0.6376 -0.1425 -0.0039
  107OSM    C2F11008   3.153   5.679   9.206  0.3274 -0.0897  0.2586
  107OSM    H2F11009   3.051   5.683   9.251 -0.2090  0.0788 -0.9249
  107OSM    H2G11010   3.179   5.572   9.221  3.1679  0.6876  1.6645
  107OSM    C3F11011   3.155   5.726   9.057  0.1515 -0.2355 -0.0671
  107OSM    H3F11012   3.259   5.715   9.020 -0.1131  0.3960 -1.0345
  107OSM    H3G11013   3.123   5.832   9.055  3.0708  0.7459  1.1166
  107OSM    C4F11014   3.062   5.651   8.976  0.4805 -0.2019  0.0310
  107OSM    H4F11015   2.959   5.642   9.016 -0.1353 -1.3050 -1.6925
  107OSM    H4G11016   3.105   5.549   8.975  2.7265  0.6736  0.4951
  107OSM    C5F11017   3.061   5.698   8.831  0.4131  0.7928  0.3065
  107OSM    H5F11018   3.168   5.692   8.800 -0.2131 -0.6117 -1.8186
  107OSM    H5G11019   3.025   5.803   8.831  0.2663  0.8229 -2.5750
  107OSM    C6F11020   2.988   5.612   8.727 -0.1577 -0.0558 -0.1192
  107OSM    H6F11021   2.893   5.590   8.780 -0.2013  1.6349  0.5808
  107OSM    H6G11022   3.044   5.517   8.725  1.1122  0.6798 -0.5335
  107OSM    C7F11023   2.989   5.672   8.590  0.4979 -0.1562  0.1368
  107OSM    H7F11024   2.958   5.773   8.624 -1.9037 -1.5857  2.6414
  107OSM    H7G11025   2.911   5.625   8.526  0.9643 -0.1879 -0.4153
  107OSM    C8F11026   3.121   5.677   8.511  0.0622 -0.1569 -0.4633
  107OSM    H8F11027   3.190   5.724   8.584 -1.4257  0.2745  0.6977
  107OSM    H8G11028   3.107   5.743   8.423  2.2553 -1.0901 -1.5940
  107OSM    C9F11029   3.156   5.545   8.450 -0.2944  0.5808  0.4577
  107OSM    H9F11030   3.234   5.482   8.496  1.0302  1.1519 -0.9169
  107OSM   C10F11031   3.107   5.489   8.338 -0.1390  0.4147  0.0886
  107OSM   H10F11032   3.152   5.393   8.311  0.2999  0.7472 -0.3817
  107OSM   C11F11033   3.016   5.557   8.239  0.3523  0.2767  0.2351
  107OSM   H11F11034   2.995   5.665   8.251  0.3501  0.2482  0.4944
  107OSM   H11G11035   2.916   5.512   8.260  0.6659  0.6916  2.9705
  107OSM   C12F11036   3.075   5.542   8.092  0.2182 -0.4363 -0.0991
  107OSM   H12F11037   3.107   5.439   8.062  2.3445  0.4282 -0.9811
  107OSM   H12G11038   3.156   5.616   8.075  1.0094 -1.3357 -0.3445
  107OSM   C13F11039   2.962   5.566   7.988  0.1002 -0.3337  0.6659
  107OSM   H13F11040   2.910   5.662   8.007 -0.5892 -1.1965  3.7500
  107OSM   H13G11041   2.891   5.483   8.010 -1.7783  0.6957 -1.1341
  107OSM   C14F11042   3.019   5.552   7.849  0.3744  0.2877  0.3454
  107OSM   H14F11043   2.934   5.536   7.779  1.3887 -2.0972 -0.4065
  107OSM   H14G11044   3.071   5.454   7.845 -0.2620 -0.0219 -1.0005
  107OSM   C15F11045   3.106   5.677   7.811  0.9263 -0.2448 -0.4316
  107OSM   H15F11046   3.202   5.674   7.867  0.8148  1.5734 -0.0794
  107OSM   H15G11047   3.050   5.770   7.836  0.1453 -0.8002 -0.0785
  107OSM   C16F11048   3.145   5.690   7.662 -0.4739 -0.1374  0.0206
  107OSM   H16F11049   3.055   5.695   7.598 -1.4460  0.9431  1.4099
  107OSM   H16G11050   3.209   5.602   7.637 -0.2048  0.2227 -0.5779
  107OSM   C17F11051   3.235   5.814   7.646 -0.2920 -0.3330 -0.4409
  107OSM   H17F11052   3.307   5.831   7.728 -1.6684  2.3067  0.3294
  107OSM   H17G11053   3.155   5.891   7.644 -0.5937 -0.6113 -2.6917
  107OSM   C18F11054   3.316   5.822   7.512  0.1591 -0.4333  0.7965
  107OSM   H18F11055   3.356   5.722   7.484  0.6615 -0.0804  0.2050
  107OSM   H18G11056   3.391   5.904   7.507 -0.7814  0.4809  1.4458
  107OSM   H18H11057   3.241   5.849   7.435  0.7472  0.1497  0.4133
  108OSM      N11058   1.231   3.023   9.702  0.2521  0.9931 -0.2348
  108OSM    C1511059   1.257   3.064   9.843 -0.0123 -0.1326  0.0862
  108OSM   H15A11060   1.188   3.146   9.856 -1.7824 -1.0221 -2.6859
  108OSM   H15B11061   1.358   3.102   9.846 -0.1765  0.4543 -1.0780
  108OSM   H15C11062   1.246   2.989   9.920  0.5246 -0.6817 -0.3652
  108OSM    C1411063   1.096   2.978   9.695  0.4175 -0.2621  0.1176
  108OSM   H14A11064   1.034   3.046   9.750  0.4477  1.1124 -1.4807
  108OSM   H14B11065   1.093   2.881   9.743  1.5309 -0.8751 -0.9848
  108OSM   H14C11066   1.065   2.963   9.592  1.6717 -1.1119 -0.1682
  108OSM    C1311067   1.240   3.138   9.606  0.0773  0.0167  1.0293
  108OSM   H13A11068   1.153   3.200   9.622 -3.1921 -3.3084 -2.0543
  108OSM   H13B11069   1.218   3.097   9.509 -0.1258 -0.0541  1.1048
  108OSM   H13C11070   1.334   3.191   9.618 -0.2175  0.8397 -0.1206
  108OSM    C1211071   1.329   2.908   9.659  0.2764 -0.4574  0.6401
  108OSM   H12A11072   1.427   2.952   9.645  0.1678 -0.9317 -2.1298
  108OSM   H12B11073   1.308   2.873   9.559  1.4589  0.0071  0.2051
  108OSM    C1111074   1.348   2.780   9.752  0.3258  0.1507 -0.2809
  108OSM   H11A11075   1.360   2.834   9.848  0.6943 -0.8333  0.2374
  108OSM   H11B11076   1.443   2.724   9.738 -0.3744 -1.2327  0.2904
  108OSM      P11077   1.210   2.590   9.645  0.0965 -0.3313  0.1009
  108OSM    O1311078   1.274   2.462   9.678 -1.1441 -0.6965 -0.0464
  108OSM    O1411079   1.063   2.586   9.620 -0.0859 -0.0375  0.0932
  108OSM    O1111080   1.274   2.646   9.511 -0.2551 -0.1616  0.7184
  108OSM    O1211081   1.234   2.693   9.759 -0.3678 -0.4995  0.5882
  108OSM    C1S11082   1.223   2.636   9.381  0.5007  0.2996 -0.2553
  108OSM    H1S11083   1.156   2.723   9.368 -0.4707 -0.1810  1.2408
  108OSM    H1T11084   1.160   2.547   9.362  0.2176  0.7210 -1.3810
  108OSM     NF11085   1.275   2.675   9.137  0.0912 -0.0917 -0.5672
  108OSM    HNF11086   1.268   2.591   9.084  0.4120  0.6673 -1.8380
  108OSM    C2S11087   1.326   2.652   9.267 -0.4889 -0.0855 -0.4937
  108OSM    H2S11088   1.380   2.743   9.302  0.6094 -0.9274  0.0812
  108OSM    C3S11089   1.418   2.533   9.285 -0.2282 -0.7444  0.1342
  108OSM    H3S11090   1.356   2.444   9.307  0.7095 -1.5566 -0.4886
  108OSM     O311091   1.489   2.553   9.408  0.3131 -0.8839  0.3238
  108OSM    HO311092   1.432   2.620   9.445  1.3702  1.0913 -1.4499
  108OSM    C4S11093   1.506   2.511   9.170 -0.8684 -0.4960 -0.0515
  108OSM    H4S11094   1.530   2.604   9.117  1.5183  0.7205  2.8424
  108OSM    C5S11095   1.546   2.394   9.115 -0.2055  0.2475 -0.1241
  108OSM    H5S11096   1.511   2.299   9.159 -1.6777  0.1175 -1.4736
  108OSM    C6S11097   1.634   2.367   8.992  0.7153 -0.4835  0.2604
  108OSM    H6S11098   1.588   2.283   8.935  1.2400 -0.3716 -0.3298
  108OSM    H6T11099   1.738   2.339   9.019  0.7291 -0.2388  0.4622
  108OSM    C7S11100   1.643   2.488   8.896  0.1732  0.5518  0.3524
  108OSM    H7S11101   1.688   2.576   8.947  1.1988 -1.1802  2.6268
  108OSM    H7T11102   1.542   2.517   8.861 -1.6390 -1.2021  3.6293
  108OSM    C8S11103   1.716   2.448   8.769 -0.9115 -0.3033 -0.1447
  108OSM    H8S11104   1.682   2.505   8.680 -0.7402 -0.3068 -0.2142
  108OSM    H8T11105   1.693   2.341   8.746  1.3611 -0.5303 -1.6989
  108OSM    C9S11106   1.868   2.436   8.795 -0.0860  0.2887 -0.2804
  108OSM    H9S11107   1.905   2.371   8.878 -0.6180 -2.8186 -2.2809
  108OSM    H9T11108   1.913   2.535   8.815 -0.9101  0.4780  0.6748
  108OSM   C10S11109   1.942   2.371   8.676 -0.2207  0.1819  1.4001
  108OSM   H10S11110   2.052   2.381   8.682  0.0058  1.6790 -2.4973
  108OSM   H10T11111   1.911   2.428   8.586 -2.5749 -1.3734  1.1390
  108OSM   C11S11112   1.906   2.227   8.633 -0.2601  0.5989  0.0278
  108OSM   H11S11113   1.799   2.212   8.609 -0.2893 -0.2824  0.6405
  108OSM   H11T11114   1.942   2.162   8.716  1.1026 -0.3161 -1.2418
  108OSM   C12S11115   1.995   2.185   8.511  0.5347 -0.0130 -0.5106
  108OSM   H12S11116   2.011   2.075   8.519 -4.7221 -1.1855 -2.0991
  108OSM   H12T11117   2.089   2.243   8.518  0.0399  0.8728 -1.0285
  108OSM   C13S11118   1.940   2.197   8.368 -0.9362  0.1773 -0.8077
  108OSM   H13S11119   2.020   2.185   8.291 -0.4005 -0.4687 -0.1626
  108OSM   H13T11120   1.896   2.297   8.351 -2.0958 -0.3564 -1.0940
  108OSM   C14S11121   1.830   2.093   8.336  0.5691  0.2954  0.4327
  108OSM   H14S11122   1.757   2.100   8.420 -0.2751  0.8488 -0.3362
  108OSM   H14T11123   1.881   1.994   8.340  2.6103  1.1949 -1.3082
  108OSM   C15S11124   1.740   2.125   8.214 -0.4775 -0.2377 -0.4157
  108OSM   H15S11125   1.795   2.127   8.117 -1.0117  0.0104 -0.7204
  108OSM   H15T11126   1.702   2.228   8.232  1.9089  0.5108  0.6785
  108OSM   C16S11127   1.621   2.027   8.195 -0.1124 -0.9003  0.8090
  108OSM   H16S11128   1.530   2.070   8.148  1.7663  1.2180 -1.1682
  108OSM   H16T11129   1.595   1.986   8.295  0.7361  2.1267  2.3954
  108OSM   C17S11130   1.647   1.921   8.091 -0.6078 -0.7449 -0.6092
  108OSM   H17S11131   1.739   1.875   8.133  0.1773  0.9477 -0.3667
  108OSM   H17T11132   1.679   1.963   7.993 -2.0035 -0.2365 -0.8730
  108OSM   C18S11133   1.526   1.832   8.081 -0.1282  1.2516  0.0344
  108OSM   H18S11134   1.542   1.761   7.998  1.7944  0.0431  1.3427
  108OSM   H18T11135   1.433   1.885   8.053 -0.6470  0.5251  0.3749
  108OSM   H18U11136   1.509   1.775   8.175  0.6564 -0.2610 -0.7106
  108OSM    C1F11137   1.217   2.787   9.100 -0.2218 -0.5417 -0.4113
  108OSM     OF11138   1.201   2.875   9.181 -0.5254 -0.0805  0.6045
  108OSM    C2F11139   1.157   2.792   8.965 -0.4871  0.4768 -0.3698
  108OSM    H2F11140   1.179   2.698   8.910 -0.4693 -0.2355  0.8126
  108OSM    H2G11141   1.213   2.877   8.921  1.9323 -0.6664  0.3078
  108OSM    C3F11142   1.006   2.823   8.975  0.6111 -0.3620 -0.2245
  108OSM    H3F11143   0.990   2.903   9.050  1.8312  0.4224 -0.7718
  108OSM    H3G11144   0.946   2.735   9.008 -0.1479 -0.2933 -1.3673
  108OSM    C4F11145   0.947   2.857   8.835 -0.2233 -0.0824 -0.2907
  108OSM    H4F11146   1.022   2.919   8.782 -0.5871  0.6729  0.0652
  108OSM    H4G11147   0.851   2.914   8.833  0.0430  0.3991 -2.9230
  108OSM    C5F11148   0.925   2.724   8.751  0.6270 -0.1876  0.3250
  108OSM    H5F11149   0.857   2.657   8.807  1.3375  0.0770  1.5370
  108OSM    H5G11150   1.017   2.663   8.739  0.2381 -0.6374 -0.4672
  108OSM    C6F11151   0.877   2.736   8.606 -0.2281 -0.3075 -0.1683
  108OSM    H6F11152   0.771   2.769   8.597 -0.3629 -0.9751 -1.2631
  108OSM    H6G11153   0.894   2.635   8.563 -0.7453 -0.7063  0.5405
  108OSM    C7F11154   0.957   2.832   8.515  0.4182  0.2963 -0.6202
  108OSM    H7F11155   1.065   2.810   8.533  0.5226  1.6089  0.5647
  108OSM    H7G11156   0.935   2.940   8.531  1.3865  0.8962 -3.0257
  108OSM    C8F11157   0.927   2.819   8.365  0.3340  0.0426  0.3351
  108OSM    H8F11158   0.851   2.898   8.345  1.4212  0.7654 -1.1091
  108OSM    H8G11159   0.870   2.727   8.342 -1.1310  1.4907 -2.4254
  108OSM    C9F11160   1.053   2.844   8.283  0.4533 -0.2858 -0.0533
  108OSM    H9F11161   1.121   2.758   8.296 -0.7542 -1.4802 -1.2018
  108OSM   C10F11162   1.075   2.931   8.182  0.6968  0.2500  0.2811
  108OSM   H10F11163   1.175   2.936   8.136  0.7517  2.8020  0.5475
  108OSM   C11F11164   0.972   3.022   8.120  0.0686  0.2613 -0.2554
  108OSM   H11F11165   1.018   3.122   8.107  2.4492 -0.7478 -0.1297
  108OSM   H11G11166   0.884   3.041   8.185 -0.1720 -0.1217 -0.4657
  108OSM   C12F11167   0.917   2.981   7.981 -0.3050 -0.3931 -0.3505
  108OSM   H12F11168   0.855   2.889   7.986 -2.0144  0.6444 -1.5855
  108OSM   H12G11169   0.999   2.964   7.908 -0.5224  0.9992 -0.9306
  108OSM   C13F11170   0.834   3.101   7.920  0.1011 -0.1020 -0.1259
  108OSM   H13F11171   0.897   3.192   7.908 -2.0345  1.2884 -1.6263
  108OSM   H13G11172   0.757   3.126   7.996  1.2260  3.1462  0.1150
  108OSM   C14F11173   0.778   3.068   7.779  0.6025  0.1667 -0.2633
  108OSM   H14F11174   0.698   2.991   7.785  2.7121 -2.0451  1.4201
  108OSM   H14G11175   0.849   3.023   7.708  0.5407 -1.9945  0.9564
  108OSM   C15F11176   0.709   3.199   7.717  0.2385  0.0703 -0.2083
  108OSM   H15F11177   0.718   3.198   7.606 -2.3802  1.6364 -0.5246
  108OSM   H15G11178   0.768   3.288   7.747 -1.5871  1.9623 -1.9500
  108OSM   C16F11179   0.567   3.218   7.774  0.7882 -0.0792 -0.3564
  108OSM   H16F11180   0.570   3.211   7.885 -0.2094 -0.7318 -0.3549
  108OSM   H16G11181   0.499   3.135   7.745 -1.3295  1.5628 -0.3724
  108OSM   C17F11182   0.499   3.351   7.747 -0.5745 -0.7558 -0.4478
  108OSM   H17F11183   0.393   3.348   7.781 -0.1815 -0.4808  0.8799
  108OSM   H17G11184   0.489   3.358   7.636 -2.6998  0.9370 -0.2324
  108OSM   C18F11185   0.569   3.470   7.791  0.2977  0.1855  0.1316
  108OSM   H18F11186   0.515   3.564   7.765 -0.4507 -0.5763 -1.1949
  108OSM   H18G11187   0.669   3.472   7.743 -0.5590 -2.0376 -1.9565
  108OSM   H18H11188   0.578   3.470   7.902 -2.3293  0.7141  0.4130
  109OSM      N11189   0.994   4.309   9.941  0.4480 -0.4029  0.3448
  109OSM    C1511190   0.968   4.411   9.834  0.0635 -0.2411 -0.8767
  109OSM   H15A11191   0.951   4.510   9.873  0.5552  0.1796 -1.7151
  109OSM   H15B11192   0.893   4.376   9.766  1.1341 -1.6432 -1.3923
  109OSM   H15C11193   1.059   4.410   9.776  0.8777 -3.0858  0.2671
  109OSM    C1411194   1.115   4.348  10.019  0.3555  0.4029 -0.5884
  109OSM   H14A11195   1.200   4.359   9.953  0.9371  0.1287  0.1066
  109OSM   H14B11196   1.138   4.279  10.098  0.8915  2.7505  1.4334
  109OSM   H14C11197   1.099   4.443  10.069  2.3865  0.8497 -0.7283
  109OSM    C1311198   0.873   4.294  10.028 -0.3991  0.2805  0.3160
  109OSM   H13A11199   0.783   4.260   9.979  0.1014  0.8352 -1.0401
  109OSM   H13B11200   0.853   4.383  10.086  0.5587 -0.0730  1.2093
  109OSM   H13C11201   0.892   4.217  10.101 -0.1953  1.2750  1.3394
  109OSM    C1211202   1.016   4.175   9.871 -0.5524 -0.1309  0.4793
  109OSM   H12A11203   0.962   4.177   9.777 -1.3035 -0.0663  0.9125
  109OSM   H12B11204   0.982   4.097   9.937  2.7174  0.1513  2.7385
  109OSM    C1111205   1.158   4.139   9.847 -0.1706 -0.5312 -0.1892
  109OSM   H11A11206   1.153   4.053   9.776 -0.0024  0.7220 -1.7778
  109OSM   H11B11207   1.200   4.097   9.941  0.7706  0.2439 -0.2521
  109OSM      P11208   1.249   4.297   9.665 -0.0594  0.2135 -0.3950
  109OSM    O1311209   1.123   4.283   9.597 -0.0581 -0.3680  1.3071
  109OSM    O1411210   1.306   4.436   9.679 -0.2310  0.3377  0.1097
  109OSM    O1111211   1.355   4.201   9.586 -0.4193 -0.0893 -0.0094
  109OSM    O1211212   1.241   4.247   9.814 -1.0680  0.3432 -0.4777
  109OSM    C1S11213   1.316   4.072   9.537  0.5174 -0.2196 -0.0694
  109OSM    H1S11214   1.216   4.042   9.573  1.5771 -0.8754  2.6289
  109OSM    H1T11215   1.388   3.994   9.570 -0.9060 -0.6498  2.2493
  109OSM     NF11216   1.285   3.940   9.330  0.3475  0.0509  0.0821
  109OSM    HNF11217   1.365   3.881   9.320 -0.3173 -0.7886 -0.5075
  109OSM    C2S11218   1.306   4.075   9.383 -0.1091  0.1835  0.8744
  109OSM    H2S11219   1.221   4.136   9.345  0.7674  1.4598  0.8764
  109OSM    C3S11220   1.436   4.139   9.328  0.6480  0.0725  0.5205
  109OSM    H3S11221   1.516   4.076   9.372  0.9422  0.3231  0.3467
  109OSM     O311222   1.454   4.272   9.372  0.0845  0.7931  0.1005
  109OSM    HO311223   1.407   4.276   9.455  0.7752 -1.0016  0.6176
  109OSM    C4S11224   1.444   4.121   9.182 -0.8269  0.0558 -0.2718
  109OSM    H4S11225   1.502   4.033   9.151 -1.8706 -0.4335 -0.9148
  109OSM    C5S11226   1.382   4.200   9.094  0.0450  0.1845 -0.1234
  109OSM    H5S11227   1.321   4.284   9.132  0.0480 -0.6304  1.7963
  109OSM    C6S11228   1.381   4.186   8.944  0.0055  0.0686 -0.0560
  109OSM    H6S11229   1.425   4.278   8.901 -1.8441  1.2456  0.4469
  109OSM    H6T11230   1.281   4.189   8.896 -0.0221  0.0704  0.0004
  109OSM    C7S11231   1.453   4.074   8.869 -0.0929 -0.3338 -0.5941
  109OSM    H7S11232   1.441   3.974   8.916 -0.4829  0.2985  0.6958
  109OSM    H7T11233   1.563   4.093   8.872 -0.1170 -0.0877 -1.1870
  109OSM    C8S11234   1.408   4.056   8.722 -0.2536 -0.4672  0.1607
  109OSM    H8S11235   1.428   4.152   8.669  0.6541 -0.6318  0.1787
  109OSM    H8T11236   1.298   4.042   8.714 -0.3609  0.0405  0.7045
  109OSM    C9S11237   1.467   3.942   8.643 -0.1748 -0.7510  0.1569
  109OSM    H9S11238   1.416   3.850   8.679 -1.2203 -0.1213  0.3146
  109OSM    H9T11239   1.578   3.940   8.654  0.0062  0.5135 -1.0953
  109OSM   C10S11240   1.453   3.960   8.490  0.0907  0.4707  0.1080
  109OSM   H10S11241   1.513   4.048   8.461 -1.3373  0.9807 -1.4847
  109OSM   H10T11242   1.348   3.995   8.480  0.3506  1.1539 -0.2561
  109OSM   C11S11243   1.486   3.838   8.409 -0.1642  0.5514 -0.3022
  109OSM   H11S11244   1.452   3.869   8.308 -1.3959  2.0386  0.5343
  109OSM   H11T11245   1.452   3.735   8.435  1.4774 -1.1166 -3.9882
  109OSM   C12S11246   1.637   3.821   8.380  0.0897 -0.3602 -0.3489
  109OSM   H12S11247   1.671   3.725   8.334 -0.4111  0.2188 -1.9898
  109OSM   H12T11248   1.701   3.836   8.470 -0.2151  2.0837 -0.4704
  109OSM   C13S11249   1.675   3.925   8.272 -0.1127  0.2610  0.6197
  109OSM   H13S11250   1.658   4.028   8.310 -2.0304  0.3529 -0.3782
  109OSM   H13T11251   1.617   3.914   8.178  1.3580 -0.9688 -0.1840
  109OSM   C14S11252   1.816   3.912   8.203  0.3765 -0.9335 -0.1151
  109OSM   H14S11253   1.817   3.824   8.134 -0.6539 -0.0769 -1.2597
  109OSM   H14T11254   1.885   3.900   8.289 -0.0387  0.1630  0.3851
  109OSM   C15S11255   1.844   4.028   8.109  0.1554 -0.4365  0.0220
  109OSM   H15S11256   1.818   4.131   8.140  0.9007 -0.4076  0.5801
  109OSM   H15T11257   1.779   4.017   8.020  0.7729 -0.9055 -0.3867
  109OSM   C16S11258   1.993   4.037   8.069  0.1915  0.2420  0.5604
  109OSM   H16S11259   2.042   4.067   8.164  0.8169 -2.3934  1.1582
  109OSM   H16T11260   2.010   4.122   7.999  3.3446 -0.8271 -0.1208
  109OSM   C17S11261   2.045   3.910   8.011 -0.0742  0.0746  0.5861
  109OSM   H17S11262   1.987   3.886   7.919 -1.0282  1.2311  0.8450
  109OSM   H17T11263   2.026   3.825   8.080 -2.6265  0.7177  0.7935
  109OSM   C18S11264   2.198   3.930   7.981  1.2883  0.0396 -0.6474
  109OSM   H18S11265   2.204   4.019   7.915  1.5435  1.0711  0.7196
  109OSM   H18T11266   2.245   3.837   7.942 -0.8068 -0.6252 -1.7353
  109OSM   H18U11267   2.252   3.962   8.073 -0.0071  1.8390 -0.4615
  109OSM    C1F11268   1.164   3.877   9.333  0.0664  0.7191 -0.2202
  109OSM     OF11269   1.067   3.939   9.369  0.2140 -0.5622  0.2420
  109OSM    C2F11270   1.159   3.727   9.322  0.2947  0.2975  0.1104
  109OSM    H2F11271   1.054   3.710   9.352  0.6704 -0.4882  1.0270
  109OSM    H2G11272   1.218   3.683   9.405 -2.6486  0.7276  2.6161
  109OSM    C3F11273   1.205   3.676   9.180  0.1819  0.3945  0.0900
  109OSM    H3F11274   1.173   3.570   9.175 -0.2597  0.5742 -3.6075
  109OSM    H3G11275   1.314   3.690   9.164  0.5076  1.5987  2.8479
  109OSM    C4F11276   1.146   3.741   9.053  0.3132  0.6241 -0.9936
  109OSM    H4F11277   1.171   3.849   9.059 -0.0056  0.6218  1.0393
  109OSM    H4G11278   1.035   3.734   9.061  0.3797 -0.5533 -0.9418
  109OSM    C5F11279   1.186   3.681   8.923 -0.1862  1.1327 -0.4837
  109OSM    H5F11280   1.154   3.575   8.911  3.5288 -0.6642  3.1009
  109OSM    H5G11281   1.297   3.680   8.915  0.0202  1.4614  1.8277
  109OSM    C6F11282   1.124   3.754   8.797 -0.2711 -0.6911 -0.6848
  109OSM    H6F11283   1.178   3.851   8.798 -0.2508 -0.7009  0.9257
  109OSM    H6G11284   1.017   3.780   8.805  0.0946  0.4655  0.9832
  109OSM    C7F11285   1.155   3.677   8.661  0.0000 -0.7428  0.1193
  109OSM    H7F11286   1.113   3.576   8.679 -1.2936 -0.3281 -0.4665
  109OSM    H7G11287   1.265   3.668   8.653  0.1574  1.4939 -0.9900
  109OSM    C8F11288   1.104   3.755   8.532 -0.1786 -0.6946 -0.1684
  109OSM    H8F11289   1.154   3.853   8.549  0.1698 -0.9006 -0.0077
  109OSM    H8G11290   0.993   3.766   8.542 -0.1806 -0.8618 -0.0041
  109OSM    C9F11291   1.140   3.696   8.399 -0.2292 -0.8597 -0.0686
  109OSM    H9F11292   1.182   3.595   8.411  0.1529 -0.6298  0.5682
  109OSM   C10F11293   1.117   3.752   8.277 -0.3162  0.1796  0.1014
  109OSM   H10F11294   1.131   3.685   8.191 -0.0371 -0.5555  0.7149
  109OSM   C11F11295   1.064   3.887   8.229 -0.4440 -0.5941  0.1181
  109OSM   H11F11296   0.995   3.923   8.309 -1.0139 -0.3999 -0.4490
  109OSM   H11G11297   1.008   3.871   8.134  1.8158  0.0129 -1.4137
  109OSM   C12F11298   1.157   4.004   8.218  0.2880  0.4088 -0.0072
  109OSM   H12F11299   1.205   4.024   8.317  0.5210 -2.2583  0.4968
  109OSM   H12G11300   1.092   4.093   8.203 -0.7426 -0.3319 -0.0477
  109OSM   C13F11301   1.255   4.010   8.103  0.8601  0.2352 -0.4130
  109OSM   H13F11302   1.195   3.982   8.014  2.0272 -0.1310 -1.1046
  109OSM   H13G11303   1.336   3.934   8.114  0.2029 -0.6379 -1.4840
  109OSM   C14F11304   1.300   4.153   8.071 -0.0001 -0.2760  0.9253
  109OSM   H14F11305   1.382   4.175   8.142  0.7807 -1.6448  0.4935
  109OSM   H14G11306   1.215   4.220   8.094  2.7348  3.8552 -0.0221
  109OSM   C15F11307   1.331   4.164   7.917 -0.7030  0.4453 -0.3270
  109OSM   H15F11308   1.261   4.102   7.857  1.2262 -0.7785 -1.4214
  109OSM   H15G11309   1.438   4.137   7.900 -0.4858 -0.5905  2.2135
  109OSM   C16F11310   1.331   4.311   7.867 -0.6679  0.2621  0.1518
  109OSM   H16F11311   1.388   4.353   7.953  0.6973 -3.0851  1.0694
  109OSM   H16G11312   1.232   4.362   7.869 -0.4478  0.7009 -0.2246
  109OSM   C17F11313   1.405   4.319   7.731  0.5481 -0.3527  0.3810
  109OSM   H17F11314   1.400   4.218   7.685  0.8522 -0.1779 -0.0477
  109OSM   H17G11315   1.510   4.349   7.746 -0.0016  1.0146  1.6899
  109OSM   C18F11316   1.342   4.412   7.627 -0.4743 -0.3529  0.3089
  109OSM   H18F11317   1.407   4.400   7.537 -0.0162  0.0958  0.5793
  109OSM   H18G11318   1.340   4.520   7.651  4.2249 -0.0052  0.1676
  109OSM   H18H11319   1.244   4.380   7.585 -0.3882 -0.0891 -0.1047
  110OSM      N11320   1.979   4.766   9.665  0.5267  0.0851  0.2908
  110OSM    C1511321   2.021   4.902   9.616  0.3007 -0.1305  0.1453
  110OSM   H15A11322   1.972   4.980   9.673  2.5586  0.1075  1.8945
  110OSM   H15B11323   2.013   4.912   9.509 -0.3367  4.1349  0.4129
  110OSM   H15C11324   2.128   4.914   9.624  0.9232 -3.4303 -1.4248
  110OSM    C1411325   2.071   4.675   9.603 -0.3623  0.1312  0.0557
  110OSM   H14A11326   2.174   4.704   9.618 -0.2421 -0.2079 -0.1081
  110OSM   H14B11327   2.054   4.669   9.496 -0.2950 -0.8718  0.0978
  110OSM   H14C11328   2.068   4.571   9.631  0.4705 -0.3686 -1.5632
  110OSM    C1311329   2.003   4.771   9.817 -0.6066  0.1223 -0.2098
  110OSM   H13A11330   2.108   4.787   9.834 -0.7202 -0.6452  1.3957
  110OSM   H13B11331   1.966   4.674   9.847  0.3342  0.1054  0.9535
  110OSM   H13C11332   1.945   4.844   9.872  0.8293 -0.1127  1.7202
  110OSM    C1211333   1.838   4.725   9.632 -0.4012 -0.5476 -0.3718
  110OSM   H12A11334   1.813   4.625   9.663 -1.2528 -0.8899 -2.0070
  110OSM   H12B11335   1.834   4.719   9.524 -0.1547 -2.8810 -0.2953
  110OSM    C1111336   1.728   4.829   9.670  0.0667 -0.2895  0.8131
  110OSM   H11A11337   1.764   4.913   9.732 -0.9644  0.4653  0.4164
  110OSM   H11B11338   1.644   4.768   9.710 -2.1114  1.0811 -1.3677
  110OSM      P11339   1.556   4.958   9.524 -0.0064 -0.3084  0.0575
  110OSM    O1311340   1.437   4.876   9.568 -0.3617 -0.0097 -0.1014
  110OSM    O1411341   1.566   5.091   9.584 -0.0388  0.5269  0.0960
  110OSM    O1111342   1.550   4.985   9.367  0.0715  0.3599  0.1366
  110OSM    O1211343   1.687   4.877   9.542  0.1063 -0.1066  0.3303
  110OSM    C1S11344   1.661   5.022   9.287  0.2676 -0.3372  0.5010
  110OSM    H1S11345   1.753   5.034   9.348 -0.6788 -1.9513  2.3554
  110OSM    H1T11346   1.635   5.125   9.252 -1.2410  1.0540  4.9514
  110OSM     NF11347   1.803   4.923   9.105  1.1929 -0.4845 -0.2055
  110OSM    HNF11348   1.834   4.956   9.016  3.4780 -0.3149  0.5955
  110OSM    C2S11349   1.673   4.923   9.164 -0.2473 -0.2239  0.3733
  110OSM    H2S11350   1.658   4.823   9.210 -0.1498  0.6849  2.4890
  110OSM    C3S11351   1.563   4.948   9.052 -0.1006  0.1144 -0.0990
  110OSM    H3S11352   1.599   5.031   8.987  2.4380  0.0179  1.0857
  110OSM     O311353   1.440   4.991   9.111  0.1737 -0.4308  0.0893
  110OSM    HO311354   1.452   4.991   9.206 -0.1541  0.0841  0.1316
  110OSM    C4S11355   1.532   4.824   8.975  0.4602  0.1318 -0.0669
  110OSM    H4S11356   1.585   4.832   8.878  2.4453 -3.5232  0.4971
  110OSM    C5S11357   1.445   4.720   8.989 -0.5222  0.4280 -0.4230
  110OSM    H5S11358   1.379   4.712   9.077 -1.5144  1.8316 -1.0040
  110OSM    C6S11359   1.407   4.612   8.893 -0.3463 -0.8187  0.6127
  110OSM    H6S11360   1.300   4.621   8.865 -0.2130  0.0649  0.3573
  110OSM    H6T11361   1.413   4.520   8.954 -1.2369 -2.2190 -1.3098
  110OSM    C7S11362   1.491   4.593   8.764  0.1890 -0.0160 -0.4682
  110OSM    H7S11363   1.591   4.571   8.807  0.0821 -1.8584 -1.0789
  110OSM    H7T11364   1.500   4.685   8.702 -0.6188  1.4321  1.4642
  110OSM    C8S11365   1.429   4.484   8.664 -0.1752  0.1017 -0.2702
  110OSM    H8S11366   1.329   4.523   8.635 -0.4950 -0.6101 -0.1352
  110OSM    H8T11367   1.424   4.387   8.717 -1.5454  0.9091  1.1589
  110OSM    C9S11368   1.518   4.465   8.537  0.5825  0.0633  0.2046
  110OSM    H9S11369   1.615   4.417   8.562  1.2816  1.9595  1.2795
  110OSM    H9T11370   1.546   4.567   8.503  2.2785  0.2702  2.0459
  110OSM   C10S11371   1.448   4.404   8.420 -0.6618  0.5977  0.0953
  110OSM   H10S11372   1.354   4.365   8.464  0.1282 -1.0059  0.4635
  110OSM   H10T11373   1.504   4.313   8.391 -0.8889  0.2059  0.8501
  110OSM   C11S11374   1.421   4.500   8.306 -0.3861  0.1827  0.4318
  110OSM   H11S11375   1.381   4.439   8.222  1.0662 -0.6711  0.3257
  110OSM   H11T11376   1.519   4.548   8.283  0.4447 -0.3701  2.5569
  110OSM   C12S11377   1.321   4.615   8.332  0.5254  0.1925 -0.4185
  110OSM   H12S11378   1.353   4.662   8.428  2.7089  0.6484 -1.3023
  110OSM   H12T11379   1.220   4.572   8.348 -0.1164  2.0191  0.7725
  110OSM   C13S11380   1.319   4.723   8.222 -0.2836 -0.3058  0.4144
  110OSM   H13S11381   1.416   4.774   8.204 -1.0112  0.8527 -0.3368
  110OSM   H13T11382   1.248   4.804   8.246  0.9331  0.4692  1.5672
  110OSM   C14S11383   1.272   4.661   8.091 -0.3999 -0.7071 -0.2523
  110OSM   H14S11384   1.171   4.618   8.109 -0.0393 -1.9858 -1.1354
  110OSM   H14T11385   1.345   4.584   8.057 -1.2653 -1.2684 -0.8646
  110OSM   C15S11386   1.261   4.756   7.972 -0.0122 -0.4470 -0.0704
  110OSM   H15S11387   1.355   4.805   7.941 -0.1800  0.2898  0.5540
  110OSM   H15T11388   1.197   4.842   8.000 -0.7296 -0.4871 -1.4802
  110OSM   C16S11389   1.202   4.698   7.842  0.5111  0.2952 -0.2200
  110OSM   H16S11390   1.224   4.589   7.834 -2.4870 -0.4524  0.4190
  110OSM   H16T11391   1.255   4.735   7.751 -1.3917  2.3838 -0.5620
  110OSM   C17S11392   1.056   4.724   7.827 -0.3194  0.5837  0.4709
  110OSM   H17S11393   1.049   4.830   7.796  0.1329  0.6507  0.5946
  110OSM   H17T11394   1.000   4.713   7.923  0.3538  1.4586  0.9745
  110OSM   C18S11395   0.998   4.635   7.719  0.0496  0.1348  0.3748
  110OSM   H18S11396   1.032   4.675   7.621  2.3314 -0.1730  0.9818
  110OSM   H18T11397   0.887   4.647   7.718 -0.0486 -0.7420 -0.0729
  110OSM   H18U11398   1.023   4.527   7.727 -0.4553 -0.1711 -1.5558
  110OSM    C1F11399   1.897   4.869   9.176 -0.5530  0.3766  0.1795
  110OSM     OF11400   1.874   4.802   9.275 -0.4784 -0.0642 -0.0999
  110OSM    C2F11401   2.038   4.885   9.128  0.3131  1.1011  0.4158
  110OSM    H2F11402   2.091   4.828   9.207 -0.8863 -1.6782 -0.6576
  110OSM    H2G11403   2.071   4.990   9.141  2.3418  0.6947 -1.0250
  110OSM    C3F11404   2.064   4.837   8.984 -0.0277 -0.3708  0.4391
  110OSM    H3F11405   2.170   4.860   8.959 -0.1665  1.3364  1.2808
  110OSM    H3G11406   1.996   4.895   8.917  0.4947  0.3292  0.5038
  110OSM    C4F11407   2.029   4.690   8.964  0.0015 -0.1702 -0.4753
  110OSM    H4F11408   1.925   4.672   8.999 -0.2638 -1.0092 -1.6489
  110OSM    H4G11409   2.095   4.625   9.025  0.6213 -1.3067 -2.2700
  110OSM    C5F11410   2.026   4.651   8.814  0.7007  0.1815 -0.0089
  110OSM    H5F11411   2.038   4.541   8.804 -2.4608 -0.2169 -0.2956
  110OSM    H5G11412   2.115   4.703   8.771 -1.2582  1.2366 -3.0768
  110OSM    C6F11413   1.901   4.701   8.733 -0.4267 -0.2244  0.1428
  110OSM    H6F11414   1.899   4.810   8.711  0.1449  0.1140  1.6158
  110OSM    H6G11415   1.806   4.673   8.783 -0.9982  0.3878 -0.5758
  110OSM    C7F11416   1.895   4.618   8.599  0.2961  0.1278 -0.4113
  110OSM    H7F11417   1.795   4.638   8.555  0.3218 -0.4750 -0.7530
  110OSM    H7G11418   1.895   4.510   8.621 -1.5382  0.3685  1.0043
  110OSM    C8F11419   1.997   4.665   8.495 -0.2373  0.0190  0.0702
  110OSM    H8F11420   2.000   4.775   8.488 -1.7433  0.0196 -0.9537
  110OSM    H8G11421   1.943   4.632   8.404 -1.9234 -0.2725  1.1273
  110OSM    C9F11422   2.127   4.592   8.508 -0.6916  0.4983 -0.2732
  110OSM    H9F11423   2.126   4.513   8.585 -1.5965 -2.3172 -2.9721
  110OSM   C10F11424   2.240   4.610   8.433  0.6587  0.8463 -0.4089
  110OSM   H10F11425   2.337   4.561   8.448  0.9650  0.7396 -2.4765
  110OSM   C11F11426   2.245   4.703   8.313 -0.6371 -0.7826 -0.1201
  110OSM   H11F11427   2.346   4.750   8.312 -1.4507  1.3827  2.7548
  110OSM   H11G11428   2.165   4.778   8.330  0.2670  0.1601  0.1117
  110OSM   C12F11429   2.227   4.626   8.181  1.0548 -0.0981 -0.1386
  110OSM   H12F11430   2.261   4.689   8.096 -0.7357  1.8622  0.5080
  110OSM   H12G11431   2.124   4.591   8.158  1.4605 -0.7083 -1.1176
  110OSM   C13F11432   2.327   4.513   8.159  0.4309  0.2307  0.4912
  110OSM   H13F11433   2.295   4.426   8.221  0.0885  0.0087  0.0144
  110OSM   H13G11434   2.428   4.542   8.193  0.3673 -0.0079  0.8891
  110OSM   C14F11435   2.334   4.451   8.014 -0.4772 -0.2516 -1.0285
  110OSM   H14F11436   2.404   4.367   8.031 -0.7604 -0.1901  0.5625
  110OSM   H14G11437   2.399   4.515   7.951  1.5978 -0.0612  1.1448
  110OSM   C15F11438   2.207   4.411   7.955 -0.1077  0.2455 -0.7757
  110OSM   H15F11439   2.136   4.378   8.034  1.0183 -0.5725 -0.0734
  110OSM   H15G11440   2.226   4.322   7.892 -1.1170 -0.8780  0.4408
  110OSM   C16F11441   2.125   4.516   7.878 -0.1931 -0.4355 -0.4513
  110OSM   H16F11442   2.128   4.609   7.938  0.4963 -0.5611 -0.2856
  110OSM   H16G11443   2.020   4.478   7.877  0.2442 -1.6963 -0.3395
  110OSM   C17F11444   2.178   4.560   7.739  0.1899  0.0174  0.5676
  110OSM   H17F11445   2.271   4.617   7.758  0.3092  0.7214 -1.8558
  110OSM   H17G11446   2.113   4.633   7.686 -0.1142 -0.1275  0.7396
  110OSM   C18F11447   2.224   4.448   7.646  0.3751 -0.9787  0.0970
  110OSM   H18F11448   2.322   4.405   7.675  0.0960 -0.4900  1.9029
  110OSM   H18G11449   2.231   4.473   7.538 -2.3332 -2.5048 -0.5214
  110OSM   H18H11450   2.136   4.380   7.640 -0.7004  0.2835  1.0657
  111OSM      N11451   4.580   1.362   9.708  0.7045 -0.2778  0.0543
  111OSM    C1511452   4.601   1.263   9.592  0.0818 -0.1290  0.0685
  111OSM   H15A11453   4.593   1.305   9.493 -0.9074 -4.3924 -1.8989
  111OSM   H15B11454   4.517   1.195   9.597 -0.5052  0.5490 -0.3585
  111OSM   H15C11455   4.692   1.207   9.608 -0.5416 -1.0305  0.5774
  111OSM    C1411456   4.568   1.284   9.833  0.3555 -0.8091 -0.4071
  111OSM   H14A11457   4.660   1.233   9.858  0.6422 -0.0830  0.0467
  111OSM   H14B11458   4.492   1.208   9.817 -0.3327  0.3328 -3.1500
  111OSM   H14C11459   4.543   1.354   9.911 -0.6179  1.5511 -2.6951
  111OSM    C1311460   4.697   1.452   9.720 -0.2079 -0.2794 -1.1571
  111OSM   H13A11461   4.682   1.529   9.795  1.0380  1.9831 -3.1136
  111OSM   H13B11462   4.729   1.507   9.633  4.0688 -0.8045 -0.1218
  111OSM   H13C11463   4.792   1.406   9.742 -0.3513 -0.2566 -0.4663
  111OSM    C1211464   4.453   1.431   9.677 -0.3915  0.1495  0.3465
  111OSM   H12A11465   4.461   1.492   9.588 -2.4763 -1.1855 -0.8400
  111OSM   H12B11466   4.429   1.503   9.754  0.6017 -0.7015  1.4841
  111OSM    C1111467   4.323   1.350   9.647 -0.1374  1.0878  0.1037
  111OSM   H11A11468   4.335   1.295   9.551 -0.5771  0.8850  0.1606
  111OSM   H11B11469   4.241   1.422   9.626 -2.4290 -1.3872  0.0270
  111OSM      P11470   4.264   1.115   9.728  0.3173  0.5199  0.0826
  111OSM    O1311471   4.384   1.038   9.686  0.3347 -0.9425 -0.4081
  111OSM    O1411472   4.189   1.067   9.849  0.1037 -0.4363  0.1442
  111OSM    O1111473   4.156   1.104   9.609  0.1799  0.1012  0.1339
  111OSM    O1211474   4.286   1.263   9.753 -0.1576  0.0702 -0.4155
  111OSM    C1S11475   4.022   1.167   9.612  0.1957  0.0367  0.5080
  111OSM    H1S11476   4.031   1.278   9.605 -0.3111 -0.0050 -1.2738
  111OSM    H1T11477   3.960   1.131   9.697 -1.0537  1.4868  0.2500
  111OSM     NF11478   3.833   1.197   9.453  0.1611  0.7529  0.3144
  111OSM    HNF11479   3.746   1.153   9.475  0.5741 -0.3282 -0.1846
  111OSM    C2S11480   3.952   1.117   9.482  0.6342  0.8204 -1.5284
  111OSM    H2S11481   4.027   1.130   9.402  1.8644  3.2353 -0.1077
  111OSM    C3S11482   3.924   0.962   9.486 -0.3485  0.3991  0.2599
  111OSM    H3S11483   3.843   0.953   9.562 -1.9171 -1.7623 -1.5438
  111OSM     O311484   4.032   0.885   9.535 -0.4487  0.6110  0.6728
  111OSM    HO311485   4.109   0.942   9.541  1.0978 -1.4494  2.0742
  111OSM    C4S11486   3.880   0.917   9.345 -0.3579  0.1163 -0.3593
  111OSM    H4S11487   3.943   0.964   9.268  2.2609  1.0665  2.1806
  111OSM    C5S11488   3.778   0.832   9.314 -0.3205 -0.0421 -0.2129
  111OSM    H5S11489   3.710   0.790   9.389  1.7275  0.7040  2.2215
  111OSM    C6S11490   3.742   0.799   9.172 -0.1698  0.0103  0.4702
  111OSM    H6S11491   3.648   0.740   9.163  1.4373 -2.4097 -1.6298
  111OSM    H6T11492   3.820   0.742   9.119  0.8944  0.1765  1.7946
  111OSM    C7S11493   3.719   0.929   9.084 -0.7697 -0.0199 -0.2223
  111OSM    H7S11494   3.820   0.977   9.076  0.6138 -2.7722 -0.4282
  111OSM    H7T11495   3.645   0.993   9.137  0.6336  1.7590 -0.2738
  111OSM    C8S11496   3.657   0.895   8.953 -0.3539  0.2197  0.0474
  111OSM    H8S11497   3.601   0.802   8.929  2.7879 -1.3722 -1.7475
  111OSM    H8T11498   3.743   0.887   8.883  0.1950  1.8714  0.4974
  111OSM    C9S11499   3.580   1.006   8.881 -0.0895 -0.0938  0.0890
  111OSM    H9S11500   3.630   1.105   8.886  1.1409 -0.6903 -0.0169
  111OSM    H9T11501   3.476   1.011   8.920  0.1373 -0.0914  0.7122
  111OSM   C10S11502   3.582   0.975   8.731 -0.2632  0.0243  0.4840
  111OSM   H10S11503   3.509   0.892   8.717 -1.0824  1.0223 -1.7966
  111OSM   H10T11504   3.685   0.949   8.698 -0.1889  0.6252  0.2283
  111OSM   C11S11505   3.515   1.086   8.643 -0.3360  0.1616 -0.4348
  111OSM   H11S11506   3.556   1.183   8.678 -1.3903  0.7178 -0.7093
  111OSM   H11T11507   3.408   1.096   8.669  0.4668  2.0904  2.6857
  111OSM   C12S11508   3.532   1.063   8.495  0.0312 -0.6336  0.0057
  111OSM   H12S11509   3.469   1.140   8.446 -0.5312  0.3070  2.0632
  111OSM   H12T11510   3.484   0.965   8.477 -0.0721 -0.3633 -1.2463
  111OSM   C13S11511   3.679   1.068   8.450  0.5374 -0.4821 -0.2383
  111OSM   H13S11512   3.727   0.971   8.475 -0.0345 -1.2525 -1.9624
  111OSM   H13T11513   3.731   1.150   8.504  0.9488 -0.8696 -0.0428
  111OSM   C14S11514   3.699   1.091   8.302  0.3758 -0.4594 -0.2022
  111OSM   H14S11515   3.805   1.094   8.271  0.5781 -2.8289  0.0904
  111OSM   H14T11516   3.667   1.195   8.280 -0.7510 -1.0102 -1.2419
  111OSM   C15S11517   3.640   0.987   8.206  0.3181  0.5152  0.4927
  111OSM   H15S11518   3.615   1.025   8.105  0.3689 -0.5199  0.0790
  111OSM   H15T11519   3.551   0.939   8.252  1.5855 -0.9824  1.5318
  111OSM   C16S11520   3.721   0.866   8.184  0.0961  1.0538  0.0186
  111OSM   H16S11521   3.740   0.814   8.280  0.1332 -1.7265 -1.3833
  111OSM   H16T11522   3.825   0.889   8.151 -0.0363 -0.2789 -1.4398
  111OSM   C17S11523   3.650   0.759   8.102 -0.1344  0.7000  0.3212
  111OSM   H17S11524   3.544   0.744   8.131 -0.4773  0.7038 -0.8716
  111OSM   H17T11525   3.690   0.658   8.125 -0.2677  0.3065 -1.0817
  111OSM   C18S11526   3.661   0.800   7.949  0.1315  0.0625 -0.0842
  111OSM   H18S11527   3.625   0.901   7.920  0.7531 -0.0463 -1.3066
  111OSM   H18T11528   3.604   0.726   7.889 -1.0241  0.0705  0.9612
  111OSM   H18U11529   3.760   0.779   7.902  0.4182  2.0745 -0.4871
  111OSM    C1F11530   3.838   1.327   9.411 -0.2317  0.4291  0.3141
  111OSM     OF11531   3.946   1.382   9.413  0.1030 -0.6551 -0.1775
  111OSM    C2F11532   3.713   1.392   9.363  0.0389  0.5748 -0.6534
  111OSM    H2F11533   3.704   1.493   9.409  1.4353  0.7994 -0.8235
  111OSM    H2G11534   3.633   1.326   9.403 -0.1064  0.0624 -1.7542
  111OSM    C3F11535   3.702   1.394   9.210  0.3563  0.4548  0.3515
  111OSM    H3F11536   3.594   1.417   9.196  0.0718 -1.6021 -1.2584
  111OSM    H3G11537   3.727   1.291   9.178 -3.7977 -1.3409  2.1439
  111OSM    C4F11538   3.790   1.498   9.136 -0.2028 -0.3919  0.4218
  111OSM    H4F11539   3.770   1.488   9.027 -2.3049 -0.1713  0.7613
  111OSM    H4G11540   3.896   1.470   9.156  0.5575  0.8275 -1.5055
  111OSM    C5F11541   3.770   1.649   9.173  0.7093 -0.1183  0.2312
  111OSM    H5F11542   3.785   1.665   9.282  0.3485 -0.7576  0.3822
  111OSM    H5G11543   3.665   1.680   9.153  0.0568 -0.5344  2.6534
  111OSM    C6F11544   3.859   1.751   9.103 -0.4948 -0.0026  0.3550
  111OSM    H6F11545   3.839   1.854   9.142  0.3459  0.0889  0.5759
  111OSM    H6G11546   3.834   1.749   8.995  0.0198  1.7641  0.1555
  111OSM    C7F11547   4.011   1.725   9.109  0.4864 -0.7125 -0.3568
  111OSM    H7F11548   4.032   1.616   9.106  0.7548 -0.6773  0.0950
  111OSM    H7G11549   4.043   1.762   9.209  2.1935  0.2664 -1.2267
  111OSM    C8F11550   4.090   1.800   9.003 -0.1097 -0.2058 -0.3015
  111OSM    H8F11551   4.060   1.903   8.977 -0.0460 -0.8748 -3.3737
  111OSM    H8G11552   4.069   1.740   8.912  0.7779 -1.9796  0.6058
  111OSM    C9F11553   4.243   1.799   9.024 -0.2583 -0.6787  0.4334
  111OSM    H9F11554   4.277   1.882   9.088 -2.9270  1.8170 -1.1398
  111OSM   C10F11555   4.332   1.719   8.966 -0.1467 -0.0710  0.0404
  111OSM   H10F11556   4.438   1.747   8.971 -0.2715  0.3514  0.3798
  111OSM   C11F11557   4.306   1.612   8.870 -0.5005 -0.3648 -0.4060
  111OSM   H11F11558   4.209   1.563   8.892 -2.2758  2.0948 -2.1227
  111OSM   H11G11559   4.385   1.533   8.868 -0.5876 -0.4964  0.6893
  111OSM   C12F11560   4.294   1.672   8.727  0.6468 -0.6608 -0.2109
  111OSM   H12F11561   4.391   1.717   8.695  0.4546 -0.9010 -1.1382
  111OSM   H12G11562   4.217   1.752   8.724 -0.7353 -1.5922  3.9900
  111OSM   C13F11563   4.246   1.586   8.603 -0.3228 -1.1608 -0.0071
  111OSM   H13F11564   4.274   1.636   8.508 -0.4277 -1.4625 -0.1954
  111OSM   H13G11565   4.137   1.569   8.611 -0.6454 -0.9808 -3.1079
  111OSM   C14F11566   4.294   1.443   8.604  0.3054  0.7764  0.0675
  111OSM   H14F11567   4.258   1.398   8.699  0.3011 -2.5088 -1.3490
  111OSM   H14G11568   4.405   1.452   8.613  0.3337 -0.4158  1.1815
  111OSM   C15F11569   4.236   1.352   8.488 -0.7184 -0.4922 -0.6529
  111OSM   H15F11570   4.287   1.354   8.389 -1.9645 -0.6070 -1.3155
  111OSM   H15G11571   4.130   1.379   8.470 -0.6869  1.0810  1.2170
  111OSM   C16F11572   4.236   1.203   8.523 -0.4967 -0.1111  0.3506
  111OSM   H16F11573   4.172   1.197   8.614 -2.1529  1.3628 -0.6450
  111OSM   H16G11574   4.338   1.177   8.557  0.5209  2.4003 -0.6033
  111OSM   C17F11575   4.175   1.122   8.414  0.2577 -0.2915  0.0472
  111OSM   H17F11576   4.212   1.159   8.316  0.5002 -0.1011  0.2092
  111OSM   H17G11577   4.071   1.158   8.399  0.7168  2.1242  2.0619
  111OSM   C18F11578   4.155   0.967   8.425  0.2763  0.4390  0.1970
  111OSM   H18F11579   4.082   0.954   8.508  0.9497 -0.3121  0.7000
  111OSM   H18G11580   4.247   0.910   8.452  0.5887  1.1500  0.6766
  111OSM   H18H11581   4.117   0.915   8.335 -0.4669 -2.1768  1.8897
  112OSM      N11582   2.525   6.051   9.806 -0.3669 -0.1057 -0.1048
  112OSM    C1511583   2.427   5.939   9.782  0.0165 -0.5227  0.2328
  112OSM   H15A11584   2.459   5.849   9.833  1.7801 -0.4582 -0.6822
  112OSM   H15B11585   2.430   5.925   9.675 -0.3816  1.3755 -0.0574
  112OSM   H15C11586   2.334   5.972   9.826 -0.2862  0.9183 -1.3824
  112OSM    C1411587   2.484   6.178   9.743 -0.0728 -0.0302 -0.4267
  112OSM   H14A11588   2.489   6.169   9.636 -0.2056  0.8847 -0.5134
  112OSM   H14B11589   2.547   6.259   9.774 -2.3969  1.8358 -0.3299
  112OSM   H14C11590   2.387   6.213   9.773  0.0537  0.0812 -0.1429
  112OSM    C1311591   2.529   6.070   9.956  0.4011  0.1071 -0.2247
  112OSM   H13A11592   2.610   6.135   9.985 -0.0534  0.9490 -0.8108
  112OSM   H13B11593   2.549   5.976  10.006 -0.1472  1.0012  1.7748
  112OSM   H13C11594   2.441   6.117   9.998 -0.1577 -0.8795 -0.2653
  112OSM    C1211595   2.663   5.997   9.747  0.2446  0.0512  0.2421
  112OSM   H12A11596   2.679   5.909   9.808  0.1787 -0.2744 -0.2022
  112OSM   H12B11597   2.744   6.065   9.769  0.7508  0.0110 -1.3626
  112OSM    C1111598   2.674   5.972   9.596 -0.4646  0.9167 -0.1742
  112OSM   H11A11599   2.780   5.944   9.577 -0.6148 -1.6603  2.1571
  112OSM   H11B11600   2.655   6.071   9.548 -0.7705  1.3487  0.8032
  112OSM      P11601   2.607   5.723   9.570  0.1002 -0.2273  0.0007
  112OSM    O1311602   2.722   5.671   9.493  0.3485  0.1754  0.2192
  112OSM    O1411603   2.594   5.700   9.715 -0.5045 -0.1022  0.0894
  112OSM    O1111604   2.481   5.657   9.512 -0.5703  0.3121  0.1480
  112OSM    O1211605   2.586   5.876   9.545  0.3173  0.0415 -0.0183
  112OSM    C1S11606   2.412   5.728   9.408 -0.1940 -0.8248  0.0175
  112OSM    H1S11607   2.483   5.750   9.325 -1.3661 -3.3667 -1.7865
  112OSM    H1T11608   2.361   5.822   9.437 -2.5587 -2.3342  1.0125
  112OSM     NF11609   2.270   5.680   9.210 -0.4611  0.0031 -0.2029
  112OSM    HNF11610   2.189   5.737   9.208 -0.3586  0.3063  2.0675
  112OSM    C2S11611   2.309   5.630   9.339 -0.0431 -0.2172  0.3798
  112OSM    H2S11612   2.352   5.528   9.327 -2.1924 -1.5495  2.8908
  112OSM    C3S11613   2.190   5.612   9.430  0.2942 -0.2673 -0.0337
  112OSM    H3S11614   2.137   5.710   9.437  0.4977 -0.1828  0.3864
  112OSM     O311615   2.228   5.576   9.563  0.4040 -0.7409  0.4446
  112OSM    HO311616   2.324   5.583   9.558  0.4029  0.2701  1.5156
  112OSM    C4S11617   2.089   5.515   9.383  0.6390  0.5365  0.4971
  112OSM    H4S11618   2.126   5.415   9.358  2.6567  1.3809 -0.0664
  112OSM    C5S11619   1.952   5.525   9.375 -0.6801 -0.5911  0.0449
  112OSM    H5S11620   1.901   5.613   9.418  2.0557 -0.0385  2.4902
  112OSM    C6S11621   1.865   5.416   9.329 -0.2305  0.4447  0.4528
  112OSM    H6S11622   1.827   5.371   9.424  1.9952 -3.0400 -0.1158
  112OSM    H6T11623   1.914   5.327   9.283 -0.3053  0.3089  0.6305
  112OSM    C7S11624   1.756   5.466   9.233  0.6523  0.2065  0.6915
  112OSM    H7S11625   1.713   5.565   9.258  1.1238  1.2716 -2.3307
  112OSM    H7T11626   1.670   5.395   9.232  0.4317  0.4007 -1.8543
  112OSM    C8S11627   1.816   5.469   9.089 -0.1846  0.3282 -0.1928
  112OSM    H8S11628   1.925   5.493   9.080 -0.6707  2.6870 -0.4805
  112OSM    H8T11629   1.761   5.551   9.039 -0.0425  1.2891  1.1580
  112OSM    C9S11630   1.778   5.347   9.004 -0.1585 -0.6134  0.3911
  112OSM    H9S11631   1.679   5.303   9.029 -1.2679  2.9531  3.0908
  112OSM    H9T11632   1.846   5.266   9.039  1.3714  1.0691  1.5391
  112OSM   C10S11633   1.793   5.375   8.851  0.0733 -0.0861  0.0374
  112OSM   H10S11634   1.903   5.378   8.838  0.2486 -1.4539  1.0319
  112OSM   H10T11635   1.745   5.469   8.815 -0.9451 -1.0256 -1.1692
  112OSM   C11S11636   1.748   5.263   8.756 -0.0493  1.0677  0.5246
  112OSM   H11S11637   1.649   5.221   8.787  0.2829 -0.1283  0.0473
  112OSM   H11T11638   1.817   5.176   8.767  2.2987  2.9993  1.9770
  112OSM   C12S11639   1.734   5.304   8.606 -0.0628  0.3402  0.0842
  112OSM   H12S11640   1.657   5.383   8.595  0.4200  1.4133  3.4645
  112OSM   H12T11641   1.704   5.214   8.548  3.2438  0.7199 -2.5108
  112OSM   C13S11642   1.865   5.350   8.551  0.5804  0.5010 -0.2071
  112OSM   H13S11643   1.947   5.277   8.568 -1.6132 -1.9724  0.4698
  112OSM   H13T11644   1.890   5.437   8.615  0.2702  1.7509 -1.7246
  112OSM   C14S11645   1.855   5.407   8.405 -0.4788  0.9343  0.3196
  112OSM   H14S11646   1.946   5.464   8.377 -0.2650  0.8285  0.7886
  112OSM   H14T11647   1.764   5.472   8.405  0.0162  1.6686 -1.0713
  112OSM   C15S11648   1.830   5.304   8.292  0.6450  0.3633  0.5351
  112OSM   H15S11649   1.730   5.262   8.316  0.5045  1.0666  1.2254
  112OSM   H15T11650   1.905   5.222   8.295  1.2182  0.6729 -2.4051
  112OSM   C16S11651   1.854   5.361   8.154 -0.0145  0.3592  0.3322
  112OSM   H16S11652   1.956   5.404   8.146  1.2922 -1.2643  5.0699
  112OSM   H16T11653   1.779   5.441   8.135  1.0197  1.2127 -0.3367
  112OSM   C17S11654   1.848   5.252   8.051 -0.4186 -0.1467 -0.9273
  112OSM   H17S11655   1.938   5.187   8.051  0.3167  0.6614  2.4702
  112OSM   H17T11656   1.856   5.313   7.958  0.6906  0.8121 -0.2390
  112OSM   C18S11657   1.721   5.172   8.039  0.4932  0.8379  0.3795
  112OSM   H18S11658   1.742   5.118   7.944  1.1057  3.1265 -0.8792
  112OSM   H18T11659   1.630   5.236   8.037  0.6031  1.0036  0.5546
  112OSM   H18U11660   1.705   5.093   8.115 -1.5075  0.5828 -0.2517
  112OSM    C1F11661   2.345   5.684   9.103  0.3694 -0.2742  0.3643
  112OSM     OF11662   2.447   5.620   9.098 -0.3111  0.3666  0.5114
  112OSM    C2F11663   2.308   5.783   8.997  0.2297 -0.5883  0.0565
  112OSM    H2F11664   2.392   5.834   8.944 -0.0850  1.3772  1.3144
  112OSM    H2G11665   2.254   5.863   9.053  0.6921 -1.1917  1.3998
  112OSM    C3F11666   2.193   5.738   8.909  0.1330  0.2808  0.0892
  112OSM    H3F11667   2.099   5.748   8.969 -1.1129  1.6019 -1.9647
  112OSM    H3G11668   2.211   5.631   8.885  0.3693  0.0994  1.0102
  112OSM    C4F11669   2.162   5.826   8.790 -0.1024  0.4050  1.0143
  112OSM    H4F11670   2.258   5.843   8.737 -0.2846 -1.8570 -0.1959
  112OSM    H4G11671   2.130   5.929   8.815 -0.0312  1.6067 -3.0936
  112OSM    C5F11672   2.069   5.762   8.687  0.2297  0.6967  0.4413
  112OSM    H5F11673   1.977   5.725   8.737 -0.6626  1.9617 -0.2024
  112OSM    H5G11674   2.117   5.678   8.633 -0.6813  0.7044 -0.4230
  112OSM    C6F11675   2.016   5.876   8.592  0.0218  0.3057 -0.2403
  112OSM    H6F11676   2.108   5.911   8.541 -0.9923 -1.4816 -3.6515
  112OSM    H6G11677   1.972   5.959   8.650 -1.1735 -0.8448  0.5696
  112OSM    C7F11678   1.913   5.827   8.487 -0.7488  0.3279 -0.2486
  112OSM    H7F11679   1.817   5.802   8.538 -0.1220 -1.0893  0.2719
  112OSM    H7G11680   1.952   5.730   8.451 -1.4555  0.7961 -2.4325
  112OSM    C8F11681   1.887   5.935   8.388 -0.4495 -0.1589 -0.1771
  112OSM    H8F11682   1.981   5.984   8.355 -0.1514 -0.9980 -0.5901
  112OSM    H8G11683   1.828   6.003   8.453 -0.2304 -2.7394  2.9547
  112OSM    C9F11684   1.799   5.888   8.275  0.6105 -0.1754 -0.1620
  112OSM    H9F11685   1.701   5.940   8.271 -0.1188 -1.5600 -2.3015
  112OSM   C10F11686   1.834   5.798   8.181 -0.1321 -0.1177  0.3131
  112OSM   H10F11687   1.757   5.773   8.106 -1.7941  2.6218  0.9496
  112OSM   C11F11688   1.968   5.740   8.174 -1.2352  0.2799 -0.2312
  112OSM   H11F11689   1.965   5.662   8.253 -0.5954  1.7597  1.3060
  112OSM   H11G11690   2.049   5.812   8.196  1.0435 -1.4671 -2.3631
  112OSM   C12F11691   2.000   5.679   8.030  0.6984 -0.1316 -0.8360
  112OSM   H12F11692   2.008   5.759   7.954  1.5215 -0.7028 -1.3560
  112OSM   H12G11693   1.917   5.606   8.016  0.8415 -0.2252 -1.2158
  112OSM   C13F11694   2.134   5.598   8.037  0.3782 -0.4262  0.5090
  112OSM   H13F11695   2.149   5.540   7.944 -0.0557 -0.0575  0.2070
  112OSM   H13G11696   2.116   5.530   8.124 -3.7828  0.0690  0.2321
  112OSM   C14F11697   2.262   5.683   8.052 -0.3352  0.4261 -0.0932
  112OSM   H14F11698   2.259   5.727   8.154  1.7075 -0.2263  0.2865
  112OSM   H14G11699   2.260   5.767   7.979 -0.8713 -0.3544 -1.0102
  112OSM   C15F11700   2.387   5.597   8.023 -0.5106 -0.4041  0.6609
  112OSM   H15F11701   2.403   5.579   7.915 -0.9831  0.7620  0.3767
  112OSM   H15G11702   2.385   5.500   8.077 -0.0834 -1.5352 -1.2882
  112OSM   C16F11703   2.514   5.666   8.066  0.3613  0.3433  0.1964
  112OSM   H16F11704   2.530   5.756   8.003 -3.8756  0.2624 -1.2871
  112OSM   H16G11705   2.600   5.598   8.047  0.6159  0.1841  1.7489
  112OSM   C17F11706   2.523   5.719   8.213  0.2782  0.0159 -0.1065
  112OSM   H17F11707   2.454   5.656   8.272  0.1536  1.2812  1.1423
  112OSM   H17G11708   2.486   5.823   8.208  1.6029  0.5707  1.0546
  112OSM   C18F11709   2.661   5.706   8.266 -0.1911 -0.2137  0.1242
  112OSM   H18F11710   2.668   5.767   8.359 -1.3584  1.5446 -0.8792
  112OSM   H18G11711   2.737   5.750   8.197 -0.8565  0.6206 -0.0932
  112OSM   H18H11712   2.674   5.597   8.279  0.4051 -0.1449  0.1657
  113OSM      N11713   1.605   2.234   9.580  0.4354  0.1313  0.1334
  113OSM    C1511714   1.507   2.249   9.687  0.0035 -0.2251 -0.0816
  113OSM   H15A11715   1.434   2.170   9.689 -2.8228  2.1854  2.2997
  113OSM   H15B11716   1.439   2.329   9.661 -1.3204 -1.7148 -1.4184
  113OSM   H15C11717   1.554   2.275   9.780  1.7114  1.1280 -1.2598
  113OSM    C1411718   1.544   2.190   9.459  0.2320 -0.2362  0.8686
  113OSM   H14A11719   1.479   2.106   9.482 -3.9488  1.0742 -4.1347
  113OSM   H14B11720   1.609   2.169   9.376  1.9922  3.7045  1.0437
  113OSM   H14C11721   1.470   2.260   9.422  0.3265 -1.4711 -1.8882
  113OSM    C1311722   1.672   2.363   9.551  0.0474 -0.0904 -0.8567
  113OSM   H13A11723   1.600   2.440   9.524 -1.0933  0.7555  3.8234
  113OSM   H13B11724   1.734   2.350   9.463  0.0387 -0.2808 -0.8347
  113OSM   H13C11725   1.719   2.407   9.638  2.8375  0.3783 -2.4646
  113OSM    C1211726   1.710   2.125   9.611 -0.5059 -0.6551  0.0779
  113OSM   H12A11727   1.757   2.156   9.703 -0.1303  0.8939 -0.6010
  113OSM   H12B11728   1.788   2.132   9.537 -0.1811  3.3188  0.5874
  113OSM    C1111729   1.656   1.978   9.629  0.4641  0.2805 -0.1624
  113OSM   H11A11730   1.744   1.916   9.655  0.1023 -0.8588 -1.5436
  113OSM   H11B11731   1.631   1.949   9.525  0.5663  0.8313 -0.3451
  113OSM      P11732   1.420   1.892   9.700  0.2562  0.5534  0.3075
  113OSM    O1311733   1.447   1.746   9.726  0.5373  0.4701  0.3739
  113OSM    O1411734   1.310   1.955   9.769  0.4329 -0.6026 -0.5967
  113OSM    O1111735   1.386   1.906   9.546 -0.2658  0.4645 -0.6302
  113OSM    O1211736   1.555   1.966   9.726  0.4139  0.6328 -0.2799
  113OSM    C1S11737   1.267   1.852   9.490 -0.5030  0.6578 -0.0573
  113OSM    H1S11738   1.179   1.913   9.523  0.3814  2.3625 -0.7083
  113OSM    H1T11739   1.261   1.748   9.528  2.7685  0.4511  0.1740
  113OSM     NF11740   1.148   1.838   9.270 -0.3410  0.8842  0.4928
  113OSM    HNF11741   1.136   1.743   9.243 -2.4419  1.0741  0.5386
  113OSM    C2S11742   1.276   1.873   9.330 -0.3406  0.2101 -0.3499
  113OSM    H2S11743   1.300   1.981   9.319  3.5904 -0.5615 -0.6730
  113OSM    C3S11744   1.395   1.796   9.275  0.0770  0.3002 -0.1597
  113OSM    H3S11745   1.385   1.687   9.296 -2.8643  0.4823 -0.1947
  113OSM     O311746   1.518   1.858   9.319  0.5214  0.3375  0.0007
  113OSM    HO311747   1.487   1.905   9.397 -1.6214 -0.6478 -0.1852
  113OSM    C4S11748   1.403   1.806   9.125  0.1596 -0.6854 -0.3029
  113OSM    H4S11749   1.425   1.906   9.084  1.8332 -1.1557 -0.6335
  113OSM    C5S11750   1.378   1.703   9.042  0.3919  0.3281  0.5020
  113OSM    H5S11751   1.361   1.606   9.091  2.7884  0.5655  1.9758
  113OSM    C6S11752   1.387   1.706   8.890 -0.6730  0.4165 -0.2864
  113OSM    H6S11753   1.320   1.626   8.851 -2.4861 -0.2530  3.6428
  113OSM    H6T11754   1.487   1.685   8.848  0.0961  0.6184  1.3842
  113OSM    C7S11755   1.347   1.837   8.816 -0.3818 -0.2502 -0.0212
  113OSM    H7S11756   1.418   1.916   8.849 -1.3518  0.1433  1.2189
  113OSM    H7T11757   1.240   1.850   8.846 -0.0327 -0.1842  1.2569
  113OSM    C8S11758   1.343   1.830   8.664 -0.1156 -0.0900 -0.4386
  113OSM    H8S11759   1.257   1.891   8.629 -2.4834 -1.1847  2.9853
  113OSM    H8T11760   1.304   1.731   8.633 -2.9060  0.0802  2.0335
  113OSM    C9S11761   1.479   1.850   8.593 -0.2028 -0.0492 -0.0364
  113OSM    H9S11762   1.470   1.813   8.488 -0.8931 -0.1168  0.0402
  113OSM    H9T11763   1.552   1.787   8.648  0.1790  2.1412  2.0976
  113OSM   C10S11764   1.529   1.999   8.598 -0.4566 -0.3749  0.1972
  113OSM   H10S11765   1.634   2.005   8.561 -1.2094  2.9007 -1.7973
  113OSM   H10T11766   1.527   2.031   8.705 -0.1206 -1.4919  0.5603
  113OSM   C11S11767   1.441   2.095   8.520 -0.0373  0.1408  0.3515
  113OSM   H11S11768   1.339   2.101   8.564 -0.6064  1.9800 -1.0939
  113OSM   H11T11769   1.428   2.059   8.415 -2.2993  0.0796  0.6033
  113OSM   C12S11770   1.510   2.235   8.506 -0.7760 -0.6950  0.3284
  113OSM   H12S11771   1.597   2.227   8.438 -2.2726 -0.5476 -1.7178
  113OSM   H12T11772   1.548   2.274   8.603  0.9514 -1.7318  0.1016
  113OSM   C13S11773   1.424   2.348   8.439 -1.1518 -0.8763  0.7175
  113OSM   H13S11774   1.482   2.441   8.424 -1.0598 -0.8951  0.9579
  113OSM   H13T11775   1.331   2.372   8.495 -1.1071  0.1794  0.3453
  113OSM   C14S11776   1.371   2.306   8.300 -0.4596 -0.2327  0.6282
  113OSM   H14S11777   1.316   2.211   8.318 -3.2087  0.5892 -2.3512
  113OSM   H14T11778   1.461   2.278   8.243  0.2077 -1.6185  2.2772
  113OSM   C15S11779   1.286   2.407   8.223 -0.2506 -0.3038 -0.9678
  113OSM   H15S11780   1.344   2.500   8.241  0.0346 -0.5354 -0.6935
  113OSM   H15T11781   1.191   2.420   8.279 -0.0946  1.7081 -1.0897
  113OSM   C16S11782   1.271   2.360   8.077  0.0657  0.2194 -0.3907
  113OSM   H16S11783   1.205   2.271   8.081  0.6202 -0.2182 -0.7662
  113OSM   H16T11784   1.371   2.323   8.043 -0.1679  0.2465 -1.1189
  113OSM   C17S11785   1.217   2.464   7.983 -0.1155 -0.3720  0.3951
  113OSM   H17S11786   1.119   2.480   8.033 -0.8880 -5.2386  0.9564
  113OSM   H17T11787   1.210   2.416   7.883 -0.0465  0.3066  0.0584
  113OSM   C18S11788   1.294   2.593   7.965  0.3697 -0.5281 -0.2844
  113OSM   H18S11789   1.400   2.566   7.947  0.8146 -0.6717  2.2101
  113OSM   H18T11790   1.288   2.654   8.058 -0.5614 -2.0092  0.6723
  113OSM   H18U11791   1.250   2.651   7.881  1.0227  0.8755  0.2977
  113OSM    C1F11792   1.047   1.917   9.260  0.1283  1.2819  0.5077
  113OSM     OF11793   1.050   2.030   9.300  0.2801 -0.2274 -0.3770
  113OSM    C2F11794   0.930   1.851   9.189  0.0780 -0.2234  0.3774
  113OSM    H2F11795   0.969   1.754   9.151  2.6496  1.1650 -0.8085
  113OSM    H2G11796   0.910   1.924   9.107 -0.1771  1.5585  1.9652
  113OSM    C3F11797   0.806   1.842   9.281 -0.4548  0.5399  0.4669
  113OSM    H3F11798   0.803   1.925   9.355 -1.6983  2.1484 -1.2970
  113OSM    H3G11799   0.816   1.746   9.336  0.1106  1.1085  1.3843
  113OSM    C4F11800   0.675   1.844   9.197  0.0481 -0.0679 -0.6178
  113OSM    H4F11801   0.601   1.795   9.263 -0.3111 -1.1911 -1.8099
  113OSM    H4G11802   0.688   1.804   9.094 -0.3531 -0.6217 -0.4567
  113OSM    C5F11803   0.627   1.987   9.189  0.3896  0.6295 -0.3594
  113OSM    H5F11804   0.702   2.047   9.134 -0.8148  2.0228 -0.5598
  113OSM    H5G11805   0.611   2.031   9.290  0.9174 -0.7521  0.3516
  113OSM    C6F11806   0.488   1.991   9.112  0.3464  0.6989 -0.2334
  113OSM    H6F11807   0.415   1.945   9.183  0.5814 -0.6917 -0.8453
  113OSM    H6G11808   0.497   1.928   9.021  1.2391 -0.8535  0.8627
  113OSM    C7F11809   0.438   2.134   9.091  0.4276  0.2302  0.2689
  113OSM    H7F11810   0.519   2.176   9.028 -0.2383 -1.9658 -2.2324
  113OSM    H7G11811   0.447   2.181   9.191  0.2059 -0.9798  0.8683
  113OSM    C8F11812   0.299   2.152   9.025  0.1406  0.3356 -0.4679
  113OSM    H8F11813   0.273   2.260   9.030 -2.3045 -0.2181 -0.2297
  113OSM    H8G11814   0.215   2.101   9.077 -1.5631  1.4832 -1.9545
  113OSM    C9F11815   0.316   2.106   8.882  0.5787 -0.7519 -0.6941
  113OSM    H9F11816   0.289   2.002   8.861  0.8393 -1.5220  2.3637
  113OSM   C10F11817   0.368   2.181   8.787 -0.3415  0.0379  0.2799
  113OSM   H10F11818   0.367   2.133   8.689 -1.8028 -2.0033  1.2131
  113OSM   C11F11819   0.408   2.325   8.788  0.0838 -0.3365  0.0005
  113OSM   H11F11820   0.384   2.382   8.880  0.1002  2.0548 -1.3872
  113OSM   H11G11821   0.365   2.388   8.708  1.5258  1.2729  0.4181
  113OSM   C12F11822   0.560   2.355   8.769 -0.2475  0.0846  0.6118
  113OSM   H12F11823   0.616   2.277   8.825 -0.2187 -1.3865 -1.3705
  113OSM   H12G11824   0.572   2.458   8.810 -0.4466  0.0600  0.7371
  113OSM   C13F11825   0.620   2.349   8.627  0.3849  0.5933 -0.2239
  113OSM   H13F11826   0.558   2.279   8.567  0.1880 -1.0385  1.7516
  113OSM   H13G11827   0.716   2.293   8.629 -0.5412 -1.0965 -0.6064
  113OSM   C14F11828   0.619   2.484   8.564 -0.4891 -0.2457  0.4371
  113OSM   H14F11829   0.707   2.545   8.596 -1.5603  1.4297  0.3055
  113OSM   H14G11830   0.541   2.560   8.585 -0.8889 -0.2807 -0.8515
  113OSM   C15F11831   0.656   2.474   8.415  0.2941  0.2380  0.1501
  113OSM   H15F11832   0.669   2.579   8.383  1.0214  0.2258  0.4021
  113OSM   H15G11833   0.570   2.440   8.352  0.0148  0.0144  0.6459
  113OSM   C16F11834   0.780   2.385   8.391 -0.0474 -1.0287  0.1462
  113OSM   H16F11835   0.768   2.277   8.412  1.0755 -0.8089  2.1979
  113OSM   H16G11836   0.864   2.427   8.451 -0.3831 -2.0037  1.3307
  113OSM   C17F11837   0.830   2.403   8.249 -0.8711  0.3237 -0.2959
  113OSM   H17F11838   0.939   2.383   8.244 -1.3709 -3.3005  0.5377
  113OSM   H17G11839   0.822   2.505   8.207  0.6553  0.0525 -1.3406
  113OSM   C18F11840   0.772   2.301   8.151 -0.8417  0.2806  0.0091
  113OSM   H18F11841   0.790   2.332   8.046 -0.0999  0.7698  0.2651
  113OSM   H18G11842   0.663   2.286   8.158 -1.4324  2.7756 -2.1993
  113OSM   H18H11843   0.817   2.203   8.178 -0.8765  0.5455  1.1055
  114OSM      N11844   1.223   5.068   9.836 -0.2850  0.3014  0.0142
  114OSM    C1511845   1.147   5.035   9.712  0.0637  0.2468 -0.5915
  114OSM   H15A11846   1.100   5.127   9.678 -2.7024 -1.0666 -0.5846
  114OSM   H15B11847   1.061   4.974   9.737 -0.3442  0.6515 -0.9877
  114OSM   H15C11848   1.213   5.003   9.634  2.2293  1.6473  0.5680
  114OSM    C1411849   1.152   5.084   9.965 -0.4181 -0.9496 -0.0735
  114OSM   H14A11850   1.076   5.158   9.949 -0.2260 -0.0450  2.7135
  114OSM   H14B11851   1.223   5.128  10.033 -0.4661  0.6624 -1.0284
  114OSM   H14C11852   1.112   4.987   9.993 -0.0681 -1.6265 -1.8191
  114OSM    C1311853   1.332   4.971   9.864 -0.6324 -0.6317  0.4633
  114OSM   H13A11854   1.401   5.009   9.938  0.4256  0.0522 -0.8368
  114OSM   H13B11855   1.379   4.937   9.773 -0.0099 -1.4931  1.0871
  114OSM   H13C11856   1.287   4.878   9.894 -0.4773 -1.1268 -0.7648
  114OSM    C1211857   1.300   5.192   9.801 -0.2691  0.5147  0.2519
  114OSM   H12A11858   1.365   5.187   9.714  3.2979  1.7509  2.5864
  114OSM   H12B11859   1.374   5.205   9.879  0.1199  0.0048 -0.0230
  114OSM    C1111860   1.216   5.320   9.786 -0.4764  0.3386  0.8500
  114OSM   H11A11861   1.187   5.334   9.893  0.6620  0.2674  1.1858
  114OSM   H11B11862   1.123   5.294   9.732 -0.2705  0.3805  0.4708
  114OSM      P11863   1.248   5.496   9.592 -0.2375  0.3013 -0.0413
  114OSM    O1311864   1.105   5.462   9.570 -0.2365  0.2033  0.0243
  114OSM    O1411865   1.273   5.637   9.609 -0.3230 -0.1769  0.0339
  114OSM    O1111866   1.349   5.435   9.479 -0.2381  0.2850  0.0507
  114OSM    O1211867   1.287   5.426   9.729  0.2125 -0.4243 -0.0058
  114OSM    C1S11868   1.356   5.292   9.438 -0.3724 -0.1201 -0.4537
  114OSM    H1S11869   1.306   5.222   9.509 -1.2835 -1.4853 -2.3503
  114OSM    H1T11870   1.459   5.260   9.413 -0.1299 -0.0188  0.3951
  114OSM     NF11871   1.244   5.125   9.271  0.2731  0.3755  0.2158
  114OSM    HNF11872   1.300   5.098   9.193 -2.7752  1.9261 -2.7632
  114OSM    C2S11873   1.259   5.269   9.311 -0.8783  0.0140  0.2196
  114OSM    H2S11874   1.169   5.317   9.356 -1.5002 -0.7579 -0.1671
  114OSM    C3S11875   1.312   5.350   9.189  0.2649  0.0464 -0.1250
  114OSM    H3S11876   1.379   5.287   9.126  1.4985  0.4741  0.7059
  114OSM     O311877   1.380   5.465   9.229 -0.4295 -0.0283  0.5866
  114OSM    HO311878   1.396   5.453   9.323 -0.6012  1.9714  0.9101
  114OSM    C4S11879   1.196   5.386   9.106  0.1499 -0.0784 -0.2564
  114OSM    H4S11880   1.164   5.306   9.038 -0.4662  0.2701 -0.3891
  114OSM    C5S11881   1.119   5.494   9.100  0.2211  0.0965 -0.3133
  114OSM    H5S11882   1.146   5.576   9.167  1.4147 -0.9276  0.5134
  114OSM    C6S11883   0.989   5.519   9.023  0.0529  0.2963 -0.4646
  114OSM    H6S11884   0.998   5.611   8.962  1.6471  0.3301 -0.2310
  114OSM    H6T11885   0.904   5.532   9.092  1.0114  0.1191  0.8008
  114OSM    C7S11886   0.936   5.418   8.923  0.7972 -1.1428  0.3354
  114OSM    H7S11887   0.834   5.443   8.888  0.7819 -0.7044  0.6816
  114OSM    H7T11888   0.946   5.317   8.968  3.3786 -0.6008  1.1616
  114OSM    C8S11889   1.027   5.431   8.794 -0.3916 -0.2777 -0.0131
  114OSM    H8S11890   1.128   5.414   8.837 -0.5051  2.3104  1.5015
  114OSM    H8T11891   1.026   5.529   8.742  0.9704 -0.6474 -0.8006
  114OSM    C9S11892   0.992   5.309   8.705 -0.2918  0.3659  0.2874
  114OSM    H9S11893   0.883   5.304   8.684 -0.1346 -1.8946 -0.2543
  114OSM    H9T11894   1.024   5.228   8.775  0.2497  1.7550  1.7069
  114OSM   C10S11895   1.072   5.288   8.573  0.1975  0.1838  0.4663
  114OSM   H10S11896   1.033   5.198   8.522  0.1193  0.3705  0.1914
  114OSM   H10T11897   1.175   5.262   8.606 -0.1852  0.2879  1.7756
  114OSM   C11S11898   1.082   5.411   8.478  0.2511  0.0004 -0.3211
  114OSM   H11S11899   1.142   5.371   8.394 -0.1656 -1.4546  0.0420
  114OSM   H11T11900   1.140   5.483   8.540  0.5393 -1.9984  1.9090
  114OSM   C12S11901   0.951   5.474   8.433  0.2853 -0.0934 -0.3983
  114OSM   H12S11902   0.969   5.583   8.421 -0.8306  0.3284  1.2936
  114OSM   H12T11903   0.901   5.466   8.532  1.3535 -0.7716  0.1042
  114OSM   C13S11904   0.893   5.407   8.303  0.3575 -1.0190 -0.6064
  114OSM   H13S11905   0.982   5.399   8.237  1.2367 -0.8428  0.5231
  114OSM   H13T11906   0.817   5.472   8.254  2.5283  0.2146 -2.5379
  114OSM   C14S11907   0.818   5.274   8.326  0.1152  0.2350  0.3486
  114OSM   H14S11908   0.739   5.275   8.248 -0.5691  3.9285  0.8952
  114OSM   H14T11909   0.774   5.267   8.427 -0.1293  1.0208  0.3053
  114OSM   C15S11910   0.904   5.150   8.288  0.4118  0.0655  0.2422
  114OSM   H15S11911   1.009   5.171   8.319  0.8146  1.1984 -1.7411
  114OSM   H15T11912   0.916   5.160   8.178 -0.4574 -0.8553  0.0479
  114OSM   C16S11913   0.835   5.016   8.327 -0.1788  0.4647  0.1829
  114OSM   H16S11914   0.739   5.011   8.273 -0.1316  3.7278 -0.4044
  114OSM   H16T11915   0.819   5.020   8.437 -0.2755 -1.7215  0.2742
  114OSM   C17S11916   0.913   4.883   8.298  0.1190  0.7596  0.0409
  114OSM   H17S11917   0.870   4.797   8.352 -0.1242  0.2455 -0.9450
  114OSM   H17T11918   1.019   4.878   8.330  0.5374  0.5250 -1.3018
  114OSM   C18S11919   0.922   4.843   8.146  0.1079 -0.4823 -0.0873
  114OSM   H18S11920   0.974   4.924   8.089  0.3501 -0.2508  0.4571
  114OSM   H18T11921   0.825   4.818   8.096 -0.2755 -0.8097  0.8110
  114OSM   H18U11922   0.984   4.752   8.136 -1.6890 -1.8504  0.7745
  114OSM    C1F11923   1.168   5.046   9.346  0.2130  0.1266 -0.2499
  114OSM     OF11924   1.090   5.088   9.436 -0.0732  0.2503 -0.6682
  114OSM    C2F11925   1.190   4.900   9.318  0.1897  0.0493 -0.0867
  114OSM    H2F11926   1.150   4.844   9.405 -0.1918  0.6837  0.1551
  114OSM    H2G11927   1.298   4.876   9.309  0.4618  1.2256 -0.1472
  114OSM    C3F11928   1.092   4.853   9.207 -0.1285  0.4815 -0.4740
  114OSM    H3F11929   0.989   4.862   9.248  0.5204  0.5811  1.2254
  114OSM    H3G11930   1.117   4.749   9.181 -2.6894 -0.8396  1.7928
  114OSM    C4F11931   1.097   4.931   9.075  0.0508 -0.6013 -1.1543
  114OSM    H4F11932   1.203   4.946   9.044  1.0705 -2.5889  1.1119
  114OSM    H4G11933   1.054   5.029   9.106 -1.8755 -2.1401  1.4610
  114OSM    C5F11934   1.016   4.885   8.956  0.3593  0.0357 -0.0582
  114OSM    H5F11935   0.915   4.917   8.990  0.9422  1.2471  0.5869
  114OSM    H5G11936   1.013   4.775   8.937 -2.2610 -0.0604  0.4612
  114OSM    C6F11937   1.067   4.948   8.823  0.1293  0.4468  0.4102
  114OSM    H6F11938   1.071   5.055   8.854  0.5294  1.1608 -1.9562
  114OSM    H6G11939   0.991   4.921   8.746  1.0931  0.0285 -0.4079
  114OSM    C7F11940   1.202   4.888   8.776 -0.3494  0.0327 -0.7371
  114OSM    H7F11941   1.200   4.786   8.821  0.2510  0.0679 -0.6285
  114OSM    H7G11942   1.295   4.936   8.814 -0.3676  0.6456 -1.4419
  114OSM    C8F11943   1.220   4.872   8.625  0.2594  0.1753 -0.4979
  114OSM    H8F11944   1.128   4.819   8.593  0.3416 -1.1209  1.2804
  114OSM    H8G11945   1.300   4.796   8.622  0.8716  0.4993  3.4305
  114OSM    C9F11946   1.253   4.990   8.540  0.6666 -0.4336 -0.1576
  114OSM    H9F11947   1.161   5.048   8.519 -1.1037 -2.8206  0.6001
  114OSM   C10F11948   1.375   5.033   8.499  0.2803 -0.3776 -0.2897
  114OSM   H10F11949   1.377   5.129   8.445  0.7764 -0.3539 -0.2379
  114OSM   C11F11950   1.511   4.971   8.526  0.3402 -0.3709 -0.0116
  114OSM   H11F11951   1.506   4.866   8.561 -0.9579  0.1391  1.4527
  114OSM   H11G11952   1.562   5.029   8.606 -0.0540  0.2792 -0.2200
  114OSM   C12F11953   1.597   4.972   8.401  0.0825  0.1288 -0.5787
  114OSM   H12F11954   1.622   5.077   8.377  0.6714 -0.3003 -1.9410
  114OSM   H12G11955   1.526   4.935   8.323 -2.8008 -0.0172  1.9076
  114OSM   C13F11956   1.721   4.890   8.420  0.2559 -0.3570 -0.0330
  114OSM   H13F11957   1.701   4.794   8.472  2.8190 -2.2126 -2.2201
  114OSM   H13G11958   1.791   4.945   8.486 -0.6935  1.3982 -0.4172
  114OSM   C14F11959   1.797   4.869   8.287  0.6894 -0.1001 -0.4116
  114OSM   H14F11960   1.890   4.813   8.310  0.3808 -0.3189  0.3290
  114OSM   H14G11961   1.818   4.963   8.231 -0.1260 -0.2760 -1.0331
  114OSM   C15F11962   1.724   4.772   8.196 -0.6491 -0.7132 -0.3564
  114OSM   H15F11963   1.638   4.827   8.152 -0.4624  0.9874  1.2823
  114OSM   H15G11964   1.694   4.682   8.253 -1.1959 -0.2972  0.0247
  114OSM   C16F11965   1.823   4.714   8.091  0.0359  0.0680 -0.4759
  114OSM   H16F11966   1.912   4.669   8.139 -0.8341  0.1246  1.2560
  114OSM   H16G11967   1.858   4.790   8.018 -0.9622 -0.5182 -1.6070
  114OSM   C17F11968   1.751   4.603   8.022  0.2844 -0.4564 -0.2635
  114OSM   H17F11969   1.682   4.555   8.094  1.2925  0.9990  1.7509
  114OSM   H17G11970   1.824   4.524   7.991  2.1517  1.3970 -0.8029
  114OSM   C18F11971   1.670   4.656   7.900  0.6095  0.0799 -0.5668
  114OSM   H18F11972   1.738   4.689   7.819  0.6559  0.4320 -0.3879
  114OSM   H18G11973   1.612   4.744   7.935  1.2325  0.1621  0.2839
  114OSM   H18H11974   1.601   4.580   7.858  2.1794 -2.1555  0.7447
  115OSM      N11975   6.771   3.259   9.683 -0.7129 -0.7160  0.3249
  115OSM    C1511976   6.788   3.387   9.764  0.2909 -0.7188  0.7175
  115OSM   H15A11977   6.700   3.394   9.826 -0.0181 -3.0534  0.6204
  115OSM   H15B11978   6.785   3.471   9.696  0.5208 -1.0660  0.2763
  115OSM   H15C11979   6.878   3.410   9.819 -0.8185 -0.5951  2.5711
  115OSM    C1411980   6.889   3.250   9.590  1.0810 -0.1427  0.6766
  115OSM   H14A11981   6.986   3.253   9.638  2.4095  3.7967 -1.8102
  115OSM   H14B11982   6.881   3.336   9.526 -1.6009  0.7329  2.0437
  115OSM   H14C11983   6.884   3.164   9.525  1.5687  1.4951 -1.6605
  115OSM    C1311984   6.768   3.142   9.764  0.2218  0.2973 -0.6070
  115OSM   H13A11985   6.827   3.063   9.718  0.0727 -0.3244  0.2538
  115OSM   H13B11986   6.672   3.100   9.790  0.5801  0.6077  1.3677
  115OSM   H13C11987   6.811   3.167   9.860 -2.1239 -0.8122  0.8144
  115OSM    C1211988   6.638   3.277   9.616  0.4130  0.3779  0.2459
  115OSM   H12A11989   6.621   3.184   9.564  0.0811 -0.1861  1.3267
  115OSM   H12B11990   6.638   3.348   9.535  2.7226  0.5816  0.3592
  115OSM    C1111991   6.512   3.298   9.705  0.2480 -0.0437  0.8050
  115OSM   H11A11992   6.529   3.228   9.790 -0.6187 -1.1754  0.0738
  115OSM   H11B11993   6.417   3.266   9.657 -0.1424  2.4319 -0.2271
  115OSM      P11994   6.417   3.541   9.674  0.2501  0.2585  0.2907
  115OSM    O1311995   6.284   3.534   9.734  0.7923 -0.3667 -0.2152
  115OSM    O1411996   6.487   3.672   9.661 -0.0556  0.7573  0.1119
  115OSM    O1111997   6.402   3.485   9.526  0.3207 -0.0949  0.4454
  115OSM    O1211998   6.497   3.429   9.754  0.1379 -0.2080  0.1036
  115OSM    C1S11999   6.351   3.566   9.418  0.3559  0.4127  0.2399
  115OSM    H1S12000   6.360   3.673   9.445  0.7164 -0.1082  2.3851
  115OSM    H1T12001   6.246   3.534   9.404 -0.3751  2.6356  0.3146
  115OSM     NF12002   6.379   3.626   9.173 -0.7148  0.6320 -0.2247
  115OSM    HNF12003   6.319   3.584   9.106 -0.7502 -0.4355  0.4636
  115OSM    C2S12004   6.437   3.545   9.288  1.0406  0.1512 -1.0466
  115OSM    H2S12005   6.542   3.574   9.311  0.8480  0.5114 -0.5935
  115OSM    C3S12006   6.437   3.391   9.258  0.3906 -0.3447 -0.9076
  115OSM    H3S12007   6.331   3.359   9.244  0.2546  0.8331 -2.9912
  115OSM     O312008   6.488   3.308   9.360 -0.8941 -0.4376  0.5031
  115OSM    HO312009   6.459   3.349   9.442 -1.2342  0.1176  0.1203
  115OSM    C4S12010   6.515   3.364   9.132  0.1130  0.0027 -0.2867
  115OSM    H4S12011   6.623   3.385   9.135  0.1148 -0.0760  2.5496
  115OSM    C5S12012   6.461   3.301   9.021 -0.0296 -0.7213 -0.3954
  115OSM    H5S12013   6.355   3.273   9.011 -0.0314 -0.1516 -2.4485
  115OSM    C6S12014   6.548   3.273   8.893  0.8405 -0.7243  0.0833
  115OSM    H6S12015   6.517   3.173   8.856 -0.6445 -0.3062  0.1376
  115OSM    H6T12016   6.655   3.252   8.916  0.6183 -0.0913  1.8396
  115OSM    C7S12017   6.510   3.372   8.778 -0.4974  0.3082 -0.3340
  115OSM    H7S12018   6.519   3.477   8.813 -1.3497 -0.0234  0.9147
  115OSM    H7T12019   6.402   3.363   8.757 -0.6380  1.5043 -0.2040
  115OSM    C8S12020   6.592   3.348   8.652 -0.6563 -0.1201  0.0706
  115OSM    H8S12021   6.590   3.239   8.634  1.4186  0.0064 -1.3408
  115OSM    H8T12022   6.701   3.373   8.655  0.0282 -2.8517  0.4652
  115OSM    C9S12023   6.512   3.426   8.538 -0.1072  0.4489  0.3216
  115OSM    H9S12024   6.498   3.532   8.568 -2.9191  0.3220 -0.2631
  115OSM    H9T12025   6.410   3.383   8.530 -0.1588  0.7433 -0.9851
  115OSM   C10S12026   6.569   3.412   8.392  0.3737  0.6119 -0.0469
  115OSM   H10S12027   6.549   3.304   8.375  2.5231 -0.2463  2.1950
  115OSM   H10T12028   6.680   3.418   8.392  0.6211 -1.7066  2.5029
  115OSM   C11S12029   6.498   3.497   8.297 -0.1837 -0.3204  0.0075
  115OSM   H11S12030   6.387   3.494   8.305 -0.7617 -0.8263 -4.9729
  115OSM   H11T12031   6.505   3.454   8.194  0.8696  1.7636 -0.8492
  115OSM   C12S12032   6.542   3.644   8.296 -0.1589 -0.5136 -0.2614
  115OSM   H12S12033   6.651   3.660   8.313  0.0895 -1.4238 -0.8936
  115OSM   H12T12034   6.500   3.684   8.391 -2.2855  0.7908 -1.6853
  115OSM   C13S12035   6.481   3.720   8.179  0.0494 -0.2075  0.2558
  115OSM   H13S12036   6.370   3.716   8.184  0.0973 -0.1943  2.0538
  115OSM   H13T12037   6.499   3.670   8.081 -0.2718 -1.4083  0.7851
  115OSM   C14S12038   6.525   3.869   8.171  0.3360  0.0045  0.8922
  115OSM   H14S12039   6.634   3.883   8.158 -0.1232  0.7347 -4.5397
  115OSM   H14T12040   6.489   3.920   8.263  0.2400  1.6982 -0.0578
  115OSM   C15S12041   6.452   3.944   8.052  0.5810  0.2712 -0.5296
  115OSM   H15S12042   6.346   3.919   8.069  0.5713 -0.2904 -1.3500
  115OSM   H15T12043   6.478   3.900   7.953 -2.0355 -2.8866  0.0399
  115OSM   C16S12044   6.467   4.093   8.053 -0.9087 -0.4639 -0.4507
  115OSM   H16S12045   6.568   4.120   8.017 -0.3497 -1.7122  0.1273
  115OSM   H16T12046   6.447   4.125   8.158 -1.9573 -0.5710 -0.6092
  115OSM   C17S12047   6.369   4.159   7.952 -0.4758  1.0279 -0.7953
  115OSM   H17S12048   6.376   4.269   7.959  1.4034  0.9183 -0.2713
  115OSM   H17T12049   6.260   4.139   7.960 -0.3925  0.8462  0.0201
  115OSM   C18S12050   6.402   4.121   7.808 -0.7931  0.2008  0.1863
  115OSM   H18S12051   6.337   4.186   7.745 -1.0158 -0.0618  0.1443
  115OSM   H18T12052   6.368   4.017   7.788 -0.4610 -0.1242  1.3007
  115OSM   H18U12053   6.511   4.128   7.791 -0.9669 -0.2603 -1.3168
  115OSM    C1F12054   6.405   3.756   9.180 -0.1365  0.0273  0.0157
  115OSM     OF12055   6.444   3.810   9.279 -0.2268 -0.4165 -0.0599
  115OSM    C2F12056   6.361   3.833   9.062 -0.6444  0.3677  0.1280
  115OSM    H2F12057   6.396   3.937   9.080  0.0085  0.7171 -2.7278
  115OSM    H2G12058   6.251   3.831   9.050 -0.8589  0.0767  1.8306
  115OSM    C3F12059   6.439   3.790   8.934 -0.2133 -0.0744 -0.7264
  115OSM    H3F12060   6.424   3.683   8.906  0.1040 -0.5792  0.9260
  115OSM    H3G12061   6.540   3.836   8.944 -0.7624  0.7107  1.8756
  115OSM    C4F12062   6.391   3.877   8.813  0.4533  0.0713 -0.3578
  115OSM    H4F12063   6.409   3.987   8.823  1.3984 -0.0834 -0.1973
  115OSM    H4G12064   6.283   3.855   8.802  0.6039 -0.5419 -0.5935
  115OSM    C5F12065   6.462   3.838   8.683 -0.6271 -0.1644 -0.5595
  115OSM    H5F12066   6.474   3.728   8.692 -2.1002 -0.2003  2.1414
  115OSM    H5G12067   6.566   3.876   8.690 -0.2599 -1.1154 -0.7332
  115OSM    C6F12068   6.384   3.878   8.552 -0.5601 -0.2875  0.1326
  115OSM    H6F12069   6.295   3.814   8.537 -0.5597  0.0654 -1.5834
  115OSM    H6G12070   6.461   3.855   8.475  0.6217 -0.1071  1.2239
  115OSM    C7F12071   6.340   4.025   8.539 -0.1375  0.1173  0.6435
  115OSM    H7F12072   6.439   4.075   8.545  0.7020 -1.3343 -0.4244
  115OSM    H7G12073   6.287   4.063   8.629 -0.6990  0.2558  0.2651
  115OSM    C8F12074   6.257   4.047   8.413  0.2778 -0.0791 -0.3437
  115OSM    H8F12075   6.304   4.008   8.320 -0.3860  0.4023 -0.8871
  115OSM    H8G12076   6.257   4.157   8.402  1.2941 -0.0023  0.3130
  115OSM    C9F12077   6.112   3.997   8.418 -0.6958 -0.8340 -0.1605
  115OSM    H9F12078   6.066   4.032   8.512 -2.0884 -2.4638 -0.1902
  115OSM   C10F12079   6.038   3.935   8.327  0.3765  0.1035  0.1658
  115OSM   H10F12080   5.931   3.923   8.352  1.1337  0.4021  4.2527
  115OSM   C11F12081   6.093   3.889   8.197  0.8383 -0.5022  0.3759
  115OSM   H11F12082   6.142   3.790   8.205  1.6182  0.0181  3.3786
  115OSM   H11G12083   6.173   3.958   8.162 -0.2920  0.8703  0.4006
  115OSM   C12F12084   5.984   3.879   8.098  0.1188  0.1964 -0.5973
  115OSM   H12F12085   5.929   3.975   8.093  1.1776  0.8604  0.1015
  115OSM   H12G12086   5.910   3.805   8.136 -0.6246  1.1657 -0.0965
  115OSM   C13F12087   6.029   3.840   7.955 -0.3345  0.2661 -0.3856
  115OSM   H13F12088   6.068   3.736   7.958 -1.1224 -0.0339 -0.5372
  115OSM   H13G12089   6.111   3.915   7.943  0.2987 -0.7497 -3.6112
  115OSM   C14F12090   5.922   3.853   7.849  0.1951  0.1648 -0.0511
  115OSM   H14F12091   5.869   3.950   7.840  1.8353  1.0467 -0.7721
  115OSM   H14G12092   5.833   3.795   7.880  0.2720  0.6990  1.2394
  115OSM   C15F12093   5.972   3.799   7.720 -0.5825 -0.3236 -0.3670
  115OSM   H15F12094   6.028   3.704   7.738  0.9177  0.5363 -0.3643
  115OSM   H15G12095   6.045   3.862   7.665 -0.4823  0.1533  0.3081
  115OSM   C16F12096   5.856   3.764   7.624 -0.0631 -0.0968 -0.4757
  115OSM   H16F12097   5.802   3.853   7.586  0.5506  2.2804  3.6231
  115OSM   H16G12098   5.780   3.717   7.690 -0.0066  2.2233  1.3752
  115OSM   C17F12099   5.892   3.667   7.505 -0.1779 -0.3496  0.5179
  115OSM   H17F12100   5.939   3.580   7.554  0.1498 -1.7754 -2.1748
  115OSM   H17G12101   5.968   3.721   7.445 -0.7019  1.2056  1.1971
  115OSM   C18F12102   5.790   3.610   7.402  0.2646 -0.3778  0.2814
  115OSM   H18F12103   5.733   3.534   7.459 -1.3190  0.7291  0.2176
  115OSM   H18G12104   5.837   3.565   7.312 -0.4708  3.3711 -2.2120
  115OSM   H18H12105   5.710   3.681   7.373 -0.3168 -1.4354 -0.7409
  116OSM      N12106   3.082   0.120   9.755 -0.2164  0.4616  0.6218
  116OSM    C1512107   3.106   0.175   9.894 -0.4189  0.6723  0.7856
  116OSM   H15A12108   3.203   0.215   9.918 -1.2281  4.1014 -0.9841
  116OSM   H15B12109   3.085   0.093   9.961 -0.2178 -0.3624 -0.3740
  116OSM   H15C12110   3.049   0.266   9.911  0.8389  1.6392  0.0174
  116OSM    C1412111   3.171   0.002   9.751 -0.7255 -0.4856  0.0404
  116OSM   H14A12112   3.144  -0.087   9.805  0.0332 -1.9052 -1.7924
  116OSM   H14B12113   3.277   0.016   9.763 -0.2814 -2.2365 -1.3038
  116OSM   H14C12114   3.167  -0.029   9.647 -2.2104 -1.7515  0.4431
  116OSM    C1312115   2.945   0.064   9.737  0.3932 -0.5118  1.4351
  116OSM   H13A12116   2.897   0.160   9.736  1.3852  0.0052  1.9986
  116OSM   H13B12117   2.901   0.016   9.824 -1.7125 -0.2517  0.5628
  116OSM   H13C12118   2.924   0.002   9.651 -0.3142  0.6947  0.7123
  116OSM    C1212119   3.115   0.228   9.650  0.4310 -0.1897  0.0747
  116OSM   H12A12120   3.104   0.192   9.548 -2.6408  0.3792  0.1165
  116OSM   H12B12121   3.217   0.262   9.653 -0.2023  1.7641  0.9155
  116OSM    C1112122   3.035   0.356   9.651  0.6862  0.2951 -0.7098
  116OSM   H11A12123   3.083   0.432   9.585  0.9771 -0.1465 -1.0191
  116OSM   H11B12124   3.032   0.387   9.757 -0.9887 -1.5931 -0.1432
  116OSM      P12125   2.784   0.434   9.667 -0.1768  0.1321  0.2474
  116OSM    O1312126   2.662   0.350   9.699  0.2465  0.5601  0.5478
  116OSM    O1412127   2.829   0.519   9.777  0.0926 -0.4524 -0.1062
  116OSM    O1112128   2.746   0.538   9.546  0.8208  0.1196  0.0506
  116OSM    O1212129   2.898   0.334   9.611  0.1366  0.0829  0.2739
  116OSM    C1S12130   2.833   0.541   9.431 -0.8024 -0.6755  0.2172
  116OSM    H1S12131   2.938   0.512   9.450 -0.4126  0.7861  0.4013
  116OSM    H1T12132   2.849   0.645   9.397  0.8156 -1.1511 -0.5640
  116OSM     NF12133   2.893   0.495   9.194  0.6748 -0.0286 -0.4252
  116OSM    HNF12134   2.880   0.557   9.117  0.7160  0.5497  0.0227
  116OSM    C2S12135   2.788   0.468   9.296  0.5482  0.1459 -0.3896
  116OSM    H2S12136   2.784   0.358   9.308  1.3828  0.0303 -1.0395
  116OSM    C3S12137   2.652   0.517   9.242  0.5873  0.1574  0.0210
  116OSM    H3S12138   2.652   0.628   9.242 -0.8721  0.1806 -0.9098
  116OSM     O312139   2.537   0.476   9.321  0.0983  0.3397  0.3376
  116OSM    HO312140   2.565   0.461   9.411 -0.4308  1.9433  0.8108
  116OSM    C4S12141   2.619   0.459   9.115  0.3420 -0.2712 -1.2783
  116OSM    H4S12142   2.609   0.349   9.121  2.8260 -0.5050 -0.4293
  116OSM    C5S12143   2.587   0.529   9.005 -0.0734 -0.0776  0.3883
  116OSM    H5S12144   2.576   0.638   9.011  0.4069  0.0354 -0.6189
  116OSM    C6S12145   2.545   0.447   8.888  0.2924  0.6434  0.4139
  116OSM    H6S12146   2.489   0.511   8.816 -0.7832  1.0794  1.5996
  116OSM    H6T12147   2.468   0.374   8.923  2.1041 -1.2759  0.5422
  116OSM    C7S12148   2.645   0.361   8.808  0.0641 -0.1817  0.2049
  116OSM    H7S12149   2.578   0.314   8.733  0.7651  0.4927 -0.8884
  116OSM    H7T12150   2.680   0.276   8.871  0.8756 -0.3332 -0.4186
  116OSM    C8S12151   2.765   0.437   8.742  1.0071  0.2695 -0.7042
  116OSM    H8S12152   2.830   0.477   8.823  0.3310  1.5994 -0.7917
  116OSM    H8T12153   2.723   0.525   8.688  1.9572  0.2112 -1.5684
  116OSM    C9S12154   2.858   0.346   8.652 -0.3018  0.4820  0.1574
  116OSM    H9S12155   2.909   0.273   8.718  0.5194  0.4407 -0.5056
  116OSM    H9T12156   2.940   0.407   8.608 -0.4206  1.0389  0.6925
  116OSM   C10S12157   2.793   0.266   8.542 -0.4172 -0.3913 -0.7111
  116OSM   H10S12158   2.712   0.199   8.580 -0.7462 -0.7403 -1.9914
  116OSM   H10T12159   2.866   0.201   8.489  1.0832 -0.2695  1.1103
  116OSM   C11S12160   2.746   0.349   8.420  0.4769  0.0512  0.7182
  116OSM   H11S12161   2.648   0.393   8.450  0.3718 -0.5914  1.3418
  116OSM   H11T12162   2.720   0.276   8.341  2.2376  0.1643 -0.0098
  116OSM   C12S12163   2.853   0.431   8.342 -0.7430  0.2218  0.0640
  116OSM   H12S12164   2.937   0.372   8.300 -1.1547  1.3373 -2.5671
  116OSM   H12T12165   2.903   0.504   8.409 -0.4840  1.4917 -1.4494
  116OSM   C13S12166   2.795   0.505   8.217  0.2585 -0.3387  0.0336
  116OSM   H13S12167   2.868   0.584   8.191  1.9678 -2.2153 -1.1985
  116OSM   H13T12168   2.696   0.545   8.249  0.0731  0.2734 -1.2320
  116OSM   C14S12169   2.782   0.421   8.099 -0.2308 -0.1485  0.3998
  116OSM   H14S12170   2.720   0.331   8.118  0.7891 -1.0726 -0.5010
  116OSM   H14T12171   2.881   0.375   8.077 -0.5947 -0.8909  0.2472
  116OSM   C15S12172   2.740   0.486   7.964 -0.0115  0.0438  0.4389
  116OSM   H15S12173   2.807   0.574   7.955  2.0466 -1.0810  3.2212
  116OSM   H15T12174   2.632   0.509   7.982  0.2387  0.2945  1.7570
  116OSM   C16S12175   2.753   0.377   7.852  0.4004  0.1783  0.6474
  116OSM   H16S12176   2.851   0.326   7.866 -0.1979 -1.0212  0.6086
  116OSM   H16T12177   2.762   0.425   7.753  2.5676 -2.3485 -0.5048
  116OSM   C17S12178   2.630   0.284   7.846 -0.9866 -1.0546 -0.0076
  116OSM   H17S12179   2.545   0.347   7.811 -0.4256  0.8347  1.7856
  116OSM   H17T12180   2.603   0.252   7.949 -0.9462 -0.6045  0.1491
  116OSM   C18S12181   2.658   0.167   7.764  0.2969 -0.4394  0.8343
  116OSM   H18S12182   2.707   0.181   7.666  0.9071 -3.7774  0.5325
  116OSM   H18T12183   2.555   0.129   7.747 -0.7950  2.3651  0.6258
  116OSM   H18U12184   2.709   0.093   7.829 -1.7473 -0.1431  2.9198
  116OSM    C1F12185   3.010   0.436   9.207  0.0890 -0.5682  0.1200
  116OSM     OF12186   3.043   0.368   9.304  0.5418  0.1859 -0.5152
  116OSM    C2F12187   3.112   0.478   9.105  0.2061  0.1444  0.4332
  116OSM    H2F12188   3.148   0.580   9.132 -0.7937  0.6111  0.0476
  116OSM    H2G12189   3.066   0.490   9.005  2.1085  1.0332 -0.3773
  116OSM    C3F12190   3.227   0.378   9.105 -0.1629 -0.6043  0.7566
  116OSM    H3F12191   3.192   0.274   9.089  0.7703 -1.0814  1.6783
  116OSM    H3G12192   3.278   0.386   9.203  1.3434  3.4643 -0.1504
  116OSM    C4F12193   3.343   0.407   9.002  0.4992 -0.5238  0.5134
  116OSM    H4F12194   3.425   0.338   9.031  1.2841 -0.6571 -1.8625
  116OSM    H4G12195   3.367   0.515   9.008 -1.6462  0.2646 -2.5038
  116OSM    C5F12196   3.303   0.365   8.860  0.0173  0.2728  0.1042
  116OSM    H5F12197   3.203   0.398   8.825  1.5006  3.0337 -1.9541
  116OSM    H5G12198   3.310   0.255   8.853  1.8022  0.4095 -0.7482
  116OSM    C6F12199   3.394   0.417   8.746  0.5856  0.1553  0.5185
  116OSM    H6F12200   3.502   0.390   8.753  0.7912  0.2194 -1.7179
  116OSM    H6G12201   3.382   0.528   8.747 -1.2240  0.0440 -1.6126
  116OSM    C7F12202   3.334   0.379   8.616  0.5122  0.0328  0.0459
  116OSM    H7F12203   3.237   0.434   8.605  1.0535  1.9148  3.4592
  116OSM    H7G12204   3.310   0.270   8.618 -2.1600  0.4678  4.5171
  116OSM    C8F12205   3.418   0.398   8.481  0.8177 -0.2315  0.0743
  116OSM    H8F12206   3.363   0.331   8.411 -0.0210 -0.2016  0.6988
  116OSM    H8G12207   3.512   0.353   8.518  0.3135 -0.6860  0.8198
  116OSM    C9F12208   3.436   0.536   8.427  0.3106 -0.4007 -0.2612
  116OSM    H9F12209   3.464   0.599   8.512 -1.1075 -0.7677  0.5107
  116OSM   C10F12210   3.413   0.575   8.298 -0.4801 -0.3557  0.2084
  116OSM   H10F12211   3.406   0.684   8.286  1.2893 -0.2849 -0.4115
  116OSM   C11F12212   3.364   0.493   8.179 -0.2178 -0.3041  0.3979
  116OSM   H11F12213   3.309   0.407   8.223 -0.2859  0.2437  1.4051
  116OSM   H11G12214   3.454   0.457   8.126 -0.4900  0.3133 -0.5107
  116OSM   C12F12215   3.286   0.561   8.066  1.0853  0.0279 -0.0761
  116OSM   H12F12216   3.333   0.649   8.019 -1.4015  0.9521 -1.0047
  116OSM   H12G12217   3.192   0.595   8.114  1.1756 -0.2249  0.2900
  116OSM   C13F12218   3.238   0.459   7.965  0.5261  0.0562  1.1036
  116OSM   H13F12219   3.202   0.369   8.020 -0.0382 -0.2073  0.3191
  116OSM   H13G12220   3.330   0.434   7.908  0.7527  1.9627  0.5683
  116OSM   C14F12221   3.123   0.515   7.874 -0.0189 -0.1872  0.4406
  116OSM   H14F12222   3.044   0.554   7.942 -0.1933  0.5632 -0.1793
  116OSM   H14G12223   3.079   0.439   7.806 -0.9389  0.0886  0.7078
  116OSM   C15F12224   3.171   0.633   7.789 -0.0711 -0.3197 -0.4211
  116OSM   H15F12225   3.239   0.599   7.708  1.1784  2.6813 -0.7718
  116OSM   H15G12226   3.223   0.708   7.852 -0.1526 -0.1617 -0.5424
  116OSM   C16F12227   3.065   0.715   7.726  0.0926  0.0108 -0.2524
  116OSM   H16F12228   3.111   0.799   7.670  1.1732  0.6196  1.4743
  116OSM   H16G12229   3.002   0.759   7.806  2.0938 -0.7981  1.8871
  116OSM   C17F12230   2.971   0.646   7.622 -0.3428  0.4445 -0.1367
  116OSM   H17F12231   2.882   0.705   7.591  0.9093  3.3929  1.4557
  116OSM   H17G12232   2.937   0.554   7.672  2.5861 -1.2016 -0.9341
  116OSM   C18F12233   3.054   0.611   7.497  0.3964  0.2554 -0.6429
  116OSM   H18F12234   3.143   0.550   7.523  0.2573  0.2045 -0.2799
  116OSM   H18G12235   3.096   0.691   7.432 -0.3613  0.7100 -0.5855
  116OSM   H18H12236   2.995   0.554   7.423 -0.0884  2.0295 -1.6829
  117OSM      N12237   2.285   0.718   9.650 -0.3905  0.3002 -0.3197
  117OSM    C1512238   2.240   0.847   9.590  0.5494 -0.2542 -0.3445
  117OSM   H15A12239   2.184   0.824   9.501  0.8157 -1.0426 -0.3203
  117OSM   H15B12240   2.325   0.911   9.568  1.2352 -0.6156  1.1137
  117OSM   H15C12241   2.168   0.898   9.653  0.6760  3.3508 -2.8185
  117OSM    C1412242   2.382   0.659   9.550  0.4896  0.1732 -0.3728
  117OSM   H14A12243   2.337   0.644   9.453 -1.9589 -0.8240  0.8279
  117OSM   H14B12244   2.416   0.567   9.594  2.4175  0.4168 -1.2636
  117OSM   H14C12245   2.470   0.719   9.532  0.4568  0.6263  0.8608
  117OSM    C1312246   2.362   0.752   9.776  0.7427  0.0081 -0.7583
  117OSM   H13A12247   2.409   0.672   9.832  0.7358  0.4759 -0.0680
  117OSM   H13B12248   2.296   0.798   9.848  1.1226  0.9936 -1.0185
  117OSM   H13C12249   2.442   0.823   9.757  2.7379 -1.1281  2.6097
  117OSM    C1212250   2.167   0.624   9.679  0.8290 -0.4466 -0.0595
  117OSM   H12A12251   2.108   0.656   9.764 -0.6864 -1.3844 -0.7282
  117OSM   H12B12252   2.208   0.529   9.711 -0.3147 -1.5038 -1.6251
  117OSM    C1112253   2.062   0.594   9.558  0.1728 -0.3396 -0.1786
  117OSM   H11A12254   1.997   0.509   9.587 -0.4840  0.2949  0.2334
  117OSM   H11B12255   2.132   0.560   9.478 -0.3832  1.3548 -1.4470
  117OSM      P12256   1.866   0.761   9.595 -0.1992 -0.1668  0.6751
  117OSM    O1312257   1.847   0.683   9.720  0.7365  0.0559 -0.7794
  117OSM    O1412258   1.893   0.906   9.614  0.1790 -0.5199  0.5912
  117OSM    O1112259   1.751   0.741   9.489 -0.3072 -0.7763 -0.0007
  117OSM    O1212260   1.991   0.709   9.518  0.1074 -0.1835  0.2145
  117OSM    C1S12261   1.770   0.761   9.351 -0.1293  0.0799  1.0521
  117OSM    H1S12262   1.789   0.662   9.304 -0.1637  0.1951  0.7879
  117OSM    H1T12263   1.849   0.834   9.323 -0.7021  0.5159  0.5319
  117OSM     NF12264   1.661   0.804   9.131 -0.0554  0.0129  0.1695
  117OSM    HNF12265   1.710   0.880   9.089 -1.1001  0.0821 -0.9849
  117OSM    C2S12266   1.635   0.812   9.273 -0.1561  0.1533  0.1800
  117OSM    H2S12267   1.544   0.757   9.305 -1.4073  1.9387 -0.1798
  117OSM    C3S12268   1.602   0.954   9.320  0.9569 -0.9980 -0.5847
  117OSM    H3S12269   1.682   1.030   9.305 -0.6236  0.8550  0.0945
  117OSM     O312270   1.575   0.966   9.462 -0.0065 -0.8160 -0.7066
  117OSM    HO312271   1.603   0.886   9.509  3.2743  1.2621  1.3507
  117OSM    C4S12272   1.478   1.013   9.241 -0.2970  0.1064  0.1083
  117OSM    H4S12273   1.399   0.936   9.232  0.5985 -1.0959  1.9341
  117OSM    C5S12274   1.468   1.134   9.176  0.4767  0.9797 -0.0700
  117OSM    H5S12275   1.552   1.204   9.176 -0.2933  1.9269  1.0906
  117OSM    C6S12276   1.352   1.179   9.104  0.1718 -0.4510  0.7624
  117OSM    H6S12277   1.316   1.277   9.141  0.0679  0.1476 -0.8286
  117OSM    H6T12278   1.264   1.114   9.123  0.4230 -0.8452  0.5901
  117OSM    C7S12279   1.373   1.177   8.951 -0.2288 -0.4732 -0.0436
  117OSM    H7S12280   1.271   1.185   8.909 -1.0655  2.1788  2.1897
  117OSM    H7T12281   1.415   1.079   8.922  1.0798  0.7460 -2.5595
  117OSM    C8S12282   1.461   1.286   8.902 -0.2246 -0.1005  0.7346
  117OSM    H8S12283   1.558   1.286   8.955 -0.0874  0.2050  0.4898
  117OSM    H8T12284   1.411   1.374   8.950 -0.8401 -1.0617  1.9193
  117OSM    C9S12285   1.475   1.307   8.755  0.1699  0.2521  0.4979
  117OSM    H9S12286   1.370   1.315   8.720  0.0680 -1.9086  0.1916
  117OSM    H9T12287   1.519   1.213   8.718  0.0670  1.4642 -3.0760
  117OSM   C10S12288   1.560   1.427   8.721 -0.5719  0.7166 -0.1506
  117OSM   H10S12289   1.653   1.407   8.778 -0.1644 -2.5705 -1.7103
  117OSM   H10T12290   1.511   1.525   8.741 -0.6568  0.4491  1.0284
  117OSM   C11S12291   1.603   1.436   8.578 -0.0499  0.9545  0.3327
  117OSM   H11S12292   1.669   1.349   8.559 -0.4295  0.5689  0.7665
  117OSM   H11T12293   1.660   1.531   8.569  0.1156  0.9404  1.1437
  117OSM   C12S12294   1.488   1.437   8.480  0.6068  0.8368  0.1712
  117OSM   H12S12295   1.409   1.509   8.511 -0.7612 -0.8058  0.5972
  117OSM   H12T12296   1.427   1.345   8.489 -0.3365  1.6049  2.4851
  117OSM   C13S12297   1.523   1.448   8.328 -0.2880  0.0188  0.1624
  117OSM   H13S12298   1.585   1.357   8.315  1.7975  1.1477  1.6354
  117OSM   H13T12299   1.592   1.533   8.312 -1.2190  0.4227 -2.0466
  117OSM   C14S12300   1.405   1.456   8.239  0.4510 -0.3191  0.2422
  117OSM   H14S12301   1.360   1.557   8.240  1.3311  0.0843  1.7478
  117OSM   H14T12302   1.334   1.379   8.277 -0.1218  0.1190  0.0664
  117OSM   C15S12303   1.432   1.428   8.084 -0.3251 -0.0747 -0.3549
  117OSM   H15S12304   1.486   1.333   8.066 -1.8996 -0.5835 -2.9244
  117OSM   H15T12305   1.484   1.520   8.051 -0.0665  0.2287  0.8401
  117OSM   C16S12306   1.302   1.412   8.005 -0.3997 -1.0062  0.7864
  117OSM   H16S12307   1.252   1.509   8.022  1.5291 -0.0162  1.0582
  117OSM   H16T12308   1.250   1.319   8.038  0.0509 -0.9917  1.5505
  117OSM   C17S12309   1.337   1.401   7.858 -0.7612  0.4945  0.3732
  117OSM   H17S12310   1.406   1.315   7.843  0.4744  1.0622  2.4101
  117OSM   H17T12311   1.399   1.482   7.814  0.6664 -0.7254  0.0813
  117OSM   C18S12312   1.215   1.373   7.771 -0.4238  0.4519 -0.9280
  117OSM   H18S12313   1.162   1.291   7.824  1.0588 -0.5865 -0.9877
  117OSM   H18T12314   1.242   1.338   7.669  2.8041 -2.4530  0.7336
  117OSM   H18U12315   1.140   1.455   7.767 -2.9265 -1.6028  0.6041
  117OSM    C1F12316   1.633   0.709   9.045  0.1888  0.5680 -0.1064
  117OSM     OF12317   1.565   0.611   9.074 -0.4372 -0.4082  0.4298
  117OSM    C2F12318   1.682   0.735   8.912  0.2588 -0.0953 -0.6305
  117OSM    H2F12319   1.793   0.723   8.912  0.2272 -0.5702  0.7563
  117OSM    H2G12320   1.666   0.843   8.889  0.2727 -0.1461 -0.8792
  117OSM    C3F12321   1.611   0.662   8.801  0.2824  0.3802 -0.5491
  117OSM    H3F12322   1.505   0.692   8.813  0.7402  1.7455  0.2373
  117OSM    H3G12323   1.612   0.554   8.830  0.6547  0.4826 -0.1743
  117OSM    C4F12324   1.678   0.646   8.665 -0.5715 -0.6992 -0.2588
  117OSM    H4F12325   1.785   0.618   8.674 -0.1301  0.0749 -2.5199
  117OSM    H4G12326   1.672   0.737   8.602 -1.0363 -2.0180 -2.2031
  117OSM    C5F12327   1.597   0.543   8.579  0.4717 -0.0627 -0.7825
  117OSM    H5F12328   1.558   0.467   8.651 -2.0236  2.6134  0.9480
  117OSM    H5G12329   1.666   0.498   8.505 -0.9602  1.6338 -3.3142
  117OSM    C6F12330   1.469   0.591   8.505  0.4984 -0.2538  0.0600
  117OSM    H6F12331   1.492   0.692   8.465  1.2855 -0.3096  0.3511
  117OSM    H6G12332   1.391   0.605   8.584  0.6713 -0.1098  0.2087
  117OSM    C7F12333   1.425   0.506   8.390  0.1869 -0.3886 -0.5966
  117OSM    H7F12334   1.419   0.405   8.437 -1.2031  0.2271  0.6067
  117OSM    H7G12335   1.502   0.501   8.310  2.2268 -2.2376  1.3723
  117OSM    C8F12336   1.280   0.557   8.341  0.6249 -0.3648 -0.3890
  117OSM    H8F12337   1.296   0.662   8.308  0.6209 -0.9454 -2.3868
  117OSM    H8G12338   1.208   0.551   8.425  0.6418  0.2315 -0.3304
  117OSM    C9F12339   1.223   0.499   8.215  0.1202  0.3871  0.3624
  117OSM    H9F12340   1.173   0.401   8.224  2.0225 -0.7162 -0.3537
  117OSM   C10F12341   1.219   0.546   8.085 -0.2167  0.3117 -0.2581
  117OSM   H10F12342   1.185   0.479   8.005  0.5838 -1.9015  1.1391
  117OSM   C11F12343   1.278   0.681   8.042  0.0040  0.0372  0.0993
  117OSM   H11F12344   1.367   0.658   7.980 -0.7701 -0.2597 -0.9396
  117OSM   H11G12345   1.304   0.753   8.123 -1.9370  1.0323 -0.0891
  117OSM   C12F12346   1.180   0.762   7.955 -0.1980  0.1112 -0.3601
  117OSM   H12F12347   1.095   0.783   8.024  0.6821 -2.1599  1.5243
  117OSM   H12G12348   1.140   0.693   7.878 -1.5415 -1.7145  1.8507
  117OSM   C13F12349   1.234   0.894   7.893  0.0565  1.0327 -0.0581
  117OSM   H13F12350   1.327   0.858   7.844 -0.1843 -1.1041  0.9387
  117OSM   H13G12351   1.262   0.972   7.966 -0.7449  0.9873  0.3065
  117OSM   C14F12352   1.131   0.957   7.810 -0.4563  0.0386 -0.3302
  117OSM   H14F12353   1.101   0.892   7.724 -5.3757 -2.2832  2.6938
  117OSM   H14G12354   1.181   1.042   7.759  1.9708 -0.9922  0.2353
  117OSM   C15F12355   1.008   1.015   7.881 -0.0965 -0.3484  0.9246
  117OSM   H15F12356   1.058   1.079   7.957  0.9065 -0.6673  0.5478
  117OSM   H15G12357   0.959   0.928   7.930 -0.9161 -0.2240  0.3519
  117OSM   C16F12358   0.907   1.084   7.792 -0.5848 -0.2659 -0.1262
  117OSM   H16F12359   0.888   1.024   7.700  0.8224 -0.2705 -0.4340
  117OSM   H16G12360   0.944   1.182   7.754  3.1579 -1.8921 -1.1577
  117OSM   C17F12361   0.773   1.108   7.860  0.0608  0.8181  0.5190
  117OSM   H17F12362   0.784   1.176   7.947  0.8424  0.9150  0.3579
  117OSM   H17G12363   0.724   1.010   7.879 -0.6254  0.8598 -0.9358
  117OSM   C18F12364   0.673   1.181   7.771  0.1058  0.0628  0.5315
  117OSM   H18F12365   0.646   1.113   7.688 -0.8929 -0.3866  1.1971
  117OSM   H18G12366   0.731   1.264   7.725 -0.5713  0.5963  0.6234
  117OSM   H18H12367   0.582   1.212   7.826  0.0380  1.6773 -0.4384
  118OSM      N12368   0.797   1.781  10.111  0.0416  0.4453 -0.2684
  118OSM    C1512369   0.902   1.745  10.215  0.2675  0.9534 -0.1816
  118OSM   H15A12370   0.954   1.655  10.185 -0.0973  0.5305  0.4478
  118OSM   H15B12371   0.858   1.727  10.312 -2.2040  1.0645 -1.2254
  118OSM   H15C12372   0.975   1.824  10.228  1.5741 -0.0520 -1.0264
  118OSM    C1412373   0.846   1.720   9.981  0.1111 -0.0361 -0.7081
  118OSM   H14A12374   0.774   1.752   9.907 -1.4243 -1.1483  0.2334
  118OSM   H14B12375   0.847   1.612   9.989 -2.1741 -0.0407  0.2290
  118OSM   H14C12376   0.948   1.750   9.960 -0.0672  2.3922  1.4434
  118OSM    C1312377   0.674   1.716  10.153  0.1467 -0.2153  1.3148
  118OSM   H13A12378   0.679   1.608  10.162 -1.0852 -0.5074 -0.6700
  118OSM   H13B12379   0.600   1.744  10.079  1.1959 -0.0743  0.2821
  118OSM   H13C12380   0.649   1.761  10.248 -2.2324  0.5584  0.3830
  118OSM    C1212381   0.784   1.927  10.104  0.2718  0.4228  0.6746
  118OSM   H12A12382   0.881   1.968  10.076 -0.1625  0.7453 -0.4161
  118OSM   H12B12383   0.754   1.972  10.197 -0.8020  0.2925  0.4010
  118OSM    C1112384   0.698   1.982   9.997 -0.0480 -0.0404 -0.0139
  118OSM   H11A12385   0.757   1.979   9.903  1.7082 -0.7293  1.0728
  118OSM   H11B12386   0.684   2.092  10.013 -0.2826 -0.0633 -0.0555
  118OSM      P12387   0.476   1.916   9.860  0.3603 -0.1178 -0.0566
  118OSM    O1312388   0.526   1.850   9.738 -0.0746  0.8226 -0.4513
  118OSM    O1412389   0.343   1.866   9.913  0.1469  0.1431  0.1119
  118OSM    O1112390   0.453   2.069   9.836  0.4207  0.3594  0.6268
  118OSM    O1212391   0.584   1.914   9.979  0.7161 -0.2303 -0.1488
  118OSM    C1S12392   0.531   2.157   9.759  0.0198  0.6517  0.0808
  118OSM    H1S12393   0.633   2.114   9.745  0.0224  0.9565 -0.9704
  118OSM    H1T12394   0.540   2.250   9.818  1.7768  0.1387  0.6812
  118OSM     NF12395   0.550   2.290   9.535 -0.1036  0.1495 -0.0795
  118OSM    HNF12396   0.534   2.386   9.516  1.4112  0.6539  0.9703
  118OSM    C2S12397   0.465   2.198   9.619  0.0879  0.5153  0.0035
  118OSM    H2S12398   0.446   2.109   9.556 -2.0195  0.7403  0.2190
  118OSM    C3S12399   0.323   2.250   9.650 -0.0218  0.3129  0.5100
  118OSM    H3S12400   0.319   2.329   9.727  0.9382  2.1620 -1.2359
  118OSM     O312401   0.244   2.149   9.715  0.5007  0.2821 -0.6670
  118OSM    HO312402   0.308   2.093   9.760 -0.3258 -1.8523 -1.9696
  118OSM    C4S12403   0.253   2.296   9.524  0.3449 -0.0604 -0.2354
  118OSM    H4S12404   0.281   2.399   9.496 -0.6268  0.1890 -0.3300
  118OSM    C5S12405   0.161   2.232   9.445  0.5813 -0.5335 -0.6698
  118OSM    H5S12406   0.120   2.142   9.492 -0.5675 -0.0767 -0.7563
  118OSM    C6S12407   0.098   2.276   9.320  0.1236 -0.1489  0.5203
  118OSM    H6S12408   0.062   2.189   9.260 -1.3744 -1.3928  3.0213
  118OSM    H6T12409   0.175   2.324   9.256 -1.1297  2.3551  0.7768
  118OSM    C7S12410  -0.017   2.372   9.339  0.3438 -0.1947 -0.6918
  118OSM    H7S12411   0.012   2.468   9.387  1.4688 -0.0987 -1.5227
  118OSM    H7T12412  -0.092   2.324   9.406 -1.8242  0.1280 -2.7287
  118OSM    C8S12413  -0.074   2.413   9.206 -0.2605  0.4588  0.1954
  118OSM    H8S12414  -0.100   2.321   9.148  0.9552  0.9920 -1.2897
  118OSM    H8T12415   0.003   2.465   9.144 -0.5969  0.1839 -0.4591
  118OSM    C9S12416  -0.205   2.496   9.217  0.1553 -0.0978  0.1153
  118OSM    H9S12417  -0.189   2.581   9.287  2.1763 -0.2792 -0.0692
  118OSM    H9T12418  -0.277   2.435   9.276 -1.6408  1.3554 -0.4582
  118OSM   C10S12419  -0.269   2.536   9.076  0.4041  0.4041 -0.7093
  118OSM   H10S12420  -0.197   2.590   9.011 -0.7325  0.6037 -1.8201
  118OSM   H10T12421  -0.350   2.611   9.085 -0.7611 -0.7047 -1.7220
  118OSM   C11S12422  -0.330   2.425   8.995  0.5268  0.1622 -0.3491
  118OSM   H11S12423  -0.419   2.390   9.051 -0.2901  1.0951 -1.0326
  118OSM   H11T12424  -0.266   2.338   8.967 -1.6141 -1.0743 -1.7049
  118OSM   C12S12425  -0.380   2.468   8.855 -0.3629  0.3597  0.2421
  118OSM   H12S12426  -0.450   2.553   8.869  0.1785  0.9289 -0.4045
  118OSM   H12T12427  -0.444   2.391   8.808 -1.9831 -0.2266  3.2038
  118OSM   C13S12428  -0.268   2.514   8.762  0.6363  0.1104 -0.4433
  118OSM   H13S12429  -0.218   2.604   8.804  0.0531  0.3268 -0.2101
  118OSM   H13T12430  -0.309   2.556   8.668 -1.1801 -0.3485  0.1124
  118OSM   C14S12431  -0.162   2.406   8.731  0.3683 -0.9795  0.0218
  118OSM   H14S12432  -0.114   2.373   8.826  2.5184  0.7942 -0.3567
  118OSM   H14T12433  -0.082   2.450   8.668  1.4899 -1.6354  0.9434
  118OSM   C15S12434  -0.224   2.298   8.651 -0.0354  0.7054  1.0870
  118OSM   H15S12435  -0.306   2.337   8.587  0.9715  3.5531  1.3797
  118OSM   H15T12436  -0.260   2.231   8.732  0.1389 -2.8097 -1.4938
  118OSM   C16S12437  -0.120   2.221   8.574 -0.3580  0.2312  0.4839
  118OSM   H16S12438  -0.028   2.209   8.635 -1.6455 -2.5239  2.0724
  118OSM   H16T12439  -0.092   2.278   8.483  1.7298 -1.5725 -0.0905
  118OSM   C17S12440  -0.167   2.080   8.532 -0.2108 -0.6723  0.5576
  118OSM   H17S12441  -0.246   2.088   8.454  1.1596 -1.0462 -0.9370
  118OSM   H17T12442  -0.213   2.035   8.623  0.4014  1.0015  1.7358
  118OSM   C18S12443  -0.056   1.993   8.479  0.5266  0.1821 -0.3529
  118OSM   H18S12444   0.006   2.048   8.404  1.6972  1.7410  1.6591
  118OSM   H18T12445  -0.093   1.896   8.439 -1.7838  1.4069 -1.4030
  118OSM   H18U12446   0.017   1.972   8.560  0.3322  0.7952 -0.0089
  118OSM    C1F12447   0.668   2.244   9.491 -0.2508 -0.1953 -0.2145
  118OSM     OF12448   0.694   2.127   9.509  0.0302 -0.0362 -0.1294
  118OSM    C2F12449   0.752   2.341   9.413 -0.8535 -0.2963  0.1067
  118OSM    H2F12450   0.845   2.355   9.471  1.3206  1.8506 -3.5248
  118OSM    H2G12451   0.694   2.435   9.409 -0.3783 -0.0344 -0.8792
  118OSM    C3F12452   0.778   2.281   9.270 -0.0019  0.5065 -0.4265
  118OSM    H3F12453   0.679   2.268   9.220 -0.3999 -0.4738  0.5659
  118OSM    H3G12454   0.828   2.182   9.276  0.3174  0.7283  0.7406
  118OSM    C4F12455   0.866   2.368   9.181  0.0178 -0.4181  0.0782
  118OSM    H4F12456   0.973   2.351   9.208  0.5379  1.6377 -0.4936
  118OSM    H4G12457   0.830   2.470   9.206 -0.4727 -0.3452 -0.8472
  118OSM    C5F12458   0.858   2.340   9.031 -0.1743  0.4277 -0.6423
  118OSM    H5F12459   0.898   2.426   8.974 -1.4951  1.5746  0.0926
  118OSM    H5G12460   0.750   2.332   9.006  0.0404 -0.7599 -1.2979
  118OSM    C6F12461   0.934   2.217   8.975  0.7761  0.5223 -0.3084
  118OSM    H6F12462   0.881   2.126   9.011 -0.6454  2.0392  1.6419
  118OSM    H6G12463   1.028   2.215   9.035  0.6021 -0.7883 -0.0543
  118OSM    C7F12464   0.957   2.221   8.825  0.3763 -0.4943  0.0461
  118OSM    H7F12465   1.025   2.307   8.804 -2.6586  1.6817 -1.6878
  118OSM    H7G12466   0.856   2.254   8.792  0.9033  1.1027 -0.0434
  118OSM    C8F12467   0.998   2.091   8.757  0.0540 -0.2588 -0.0693
  118OSM    H8F12468   1.108   2.087   8.775  0.0861  0.6670  0.0028
  118OSM    H8G12469   0.993   2.096   8.646 -0.0332 -0.9470 -0.0993
  118OSM    C9F12470   0.921   1.968   8.807  0.0438 -0.1328 -0.2101
  118OSM    H9F12471   0.961   1.920   8.898 -0.6027 -2.4098 -1.0557
  118OSM   C10F12472   0.829   1.909   8.731  0.0566 -0.1371 -0.4361
  118OSM   H10F12473   0.802   1.808   8.767 -0.1540  0.6390  1.7334
  118OSM   C11F12474   0.779   1.947   8.595 -0.0075  0.3717  0.1260
  118OSM   H11F12475   0.830   1.876   8.527 -3.2894  0.8390 -3.1526
  118OSM   H11G12476   0.813   2.048   8.563  1.0223  1.1388  3.2240
  118OSM   C12F12477   0.616   1.934   8.580 -0.6350  0.8367  0.7193
  118OSM   H12F12478   0.551   1.995   8.647 -1.7888  2.7479 -1.9549
  118OSM   H12G12479   0.604   1.824   8.589  1.7324  0.2126 -2.1385
  118OSM   C13F12480   0.586   1.968   8.432 -0.9736  0.3080 -0.5183
  118OSM   H13F12481   0.668   1.923   8.372 -1.8947 -2.6585  0.2546
  118OSM   H13G12482   0.608   2.076   8.424 -0.9645  0.5081  1.5391
  118OSM   C14F12483   0.450   1.926   8.371 -0.3804  0.7524 -0.1980
  118OSM   H14F12484   0.433   1.820   8.402  2.2900  0.3283  0.1005
  118OSM   H14G12485   0.455   1.926   8.260  0.1184 -3.1952 -0.3372
  118OSM   C15F12486   0.329   2.009   8.419 -0.0057 -0.6535 -0.0052
  118OSM   H15F12487   0.341   2.008   8.529 -0.6141 -1.1049  0.0643
  118OSM   H15G12488   0.232   1.964   8.388 -0.1078  1.0400 -2.4275
  118OSM   C16F12489   0.327   2.154   8.360 -0.0979 -0.1982 -1.1028
  118OSM   H16F12490   0.320   2.148   8.249 -3.0275  1.3765 -1.1138
  118OSM   H16G12491   0.426   2.200   8.379  0.1410 -0.1253 -2.4354
  118OSM   C17F12492   0.217   2.245   8.417  0.2080  0.4043 -0.8470
  118OSM   H17F12493   0.222   2.252   8.528 -1.8969 -1.9269 -0.5269
  118OSM   H17G12494   0.117   2.206   8.391  0.6675 -0.8798 -0.7420
  118OSM   C18F12495   0.225   2.388   8.361  0.5269  0.6852  1.0534
  118OSM   H18F12496   0.284   2.462   8.418 -0.9304  1.8269  1.1375
  118OSM   H18G12497   0.128   2.441   8.347  0.3803  0.1310 -0.2773
  118OSM   H18H12498   0.268   2.376   8.259 -0.2959 -2.6192  0.9848
  119OSM      N12499   1.585   0.271   9.831 -0.3121  0.1205 -0.0522
  119OSM    C1512500   1.638   0.139   9.862  0.2864  0.2002 -1.0447
  119OSM   H15A12501   1.604   0.066   9.790  1.1007  0.4797 -1.7235
  119OSM   H15B12502   1.609   0.112   9.962 -2.0517  0.8026 -1.5061
  119OSM   H15C12503   1.746   0.141   9.857  0.3538 -0.5221 -0.1186
  119OSM    C1412504   1.435   0.268   9.859 -0.7072  0.5225  0.5577
  119OSM   H14A12505   1.418   0.216   9.952 -1.3764  2.0418  1.3336
  119OSM   H14B12506   1.379   0.212   9.785  0.0950 -1.3699  1.3293
  119OSM   H14C12507   1.401   0.371   9.858 -2.7276 -0.0936 -0.3616
  119OSM    C1312508   1.645   0.367   9.922  0.1244 -0.0415 -0.3961
  119OSM   H13A12509   1.593   0.369  10.017 -0.9301  0.2008 -0.9633
  119OSM   H13B12510   1.629   0.467   9.886 -2.2441 -0.7223 -1.3661
  119OSM   H13C12511   1.748   0.337   9.936 -0.4458 -1.2179  1.7844
  119OSM    C1212512   1.620   0.300   9.688  0.2329 -0.3468 -0.0457
  119OSM   H12A12513   1.574   0.393   9.656 -1.4046 -0.8771  0.6287
  119OSM   H12B12514   1.568   0.224   9.631  0.4115 -1.6922  1.4903
  119OSM    C1112515   1.770   0.308   9.648 -0.6128  0.5535  0.3228
  119OSM   H11A12516   1.829   0.384   9.704  2.0681 -0.4951 -0.9057
  119OSM   H11B12517   1.773   0.341   9.543 -0.7025 -0.6067 -0.0602
  119OSM      P12518   1.794   0.065   9.566 -0.2343  0.4357 -0.2278
  119OSM    O1312519   1.880  -0.052   9.604 -0.3554 -0.2704 -0.2886
  119OSM    O1412520   1.645   0.049   9.574 -0.7932  0.1979 -0.7512
  119OSM    O1112521   1.836   0.130   9.427  0.2401 -0.1649  0.7691
  119OSM    O1212522   1.842   0.182   9.662 -0.1559  0.1905  0.1017
  119OSM    C1S12523   1.970   0.166   9.403 -0.7794 -0.3423  0.7441
  119OSM    H1S12524   2.034   0.076   9.416 -0.4639 -0.0551  1.1860
  119OSM    H1T12525   2.008   0.242   9.474  0.5360 -2.7172  2.7578
  119OSM     NF12526   2.131   0.230   9.210  0.0336 -0.2087  0.1532
  119OSM    HNF12527   2.178   0.318   9.216 -1.3878  0.5586  0.3384
  119OSM    C2S12528   1.987   0.218   9.256 -0.4450 -0.3248 -0.0064
  119OSM    H2S12529   1.943   0.147   9.183 -2.4449  0.4908  0.3528
  119OSM    C3S12530   1.902   0.342   9.229 -0.0750 -0.3606 -0.1142
  119OSM    H3S12531   1.904   0.434   9.292  0.4038  0.8306 -1.7848
  119OSM     O312532   1.762   0.300   9.245 -0.4278  0.2984 -0.5020
  119OSM    HO312533   1.755   0.238   9.317 -2.7168 -0.4929 -1.3265
  119OSM    C4S12534   1.928   0.382   9.087  0.1582  0.0198  0.4202
  119OSM    H4S12535   1.897   0.314   9.007  2.0677 -1.2066  0.6829
  119OSM    C5S12536   1.998   0.485   9.034  0.6346 -0.4345 -0.0987
  119OSM    H5S12537   2.041   0.560   9.103 -0.0863  0.5546 -0.6889
  119OSM    C6S12538   2.005   0.522   8.886 -0.7971  1.5254  0.0233
  119OSM    H6S12539   2.008   0.633   8.879  0.0853  1.4874 -0.4135
  119OSM    H6T12540   1.916   0.484   8.831 -1.1532  1.8572  0.3646
  119OSM    C7S12541   2.140   0.483   8.816  0.5687 -0.1007 -0.1932
  119OSM    H7S12542   2.154   0.375   8.797 -1.6370 -0.3913 -0.3703
  119OSM    H7T12543   2.226   0.508   8.882 -1.4048  0.7532  2.2189
  119OSM    C8S12544   2.157   0.559   8.687  0.3657 -0.7067  0.3771
  119OSM    H8S12545   2.265   0.556   8.658  0.0045 -0.7769 -1.0761
  119OSM    H8T12546   2.144   0.668   8.698 -0.5976 -0.5531 -1.7363
  119OSM    C9S12547   2.072   0.491   8.578  0.0985 -0.1703 -1.1401
  119OSM    H9S12548   1.974   0.462   8.619 -0.5814 -2.2257 -3.9263
  119OSM    H9T12549   2.115   0.395   8.544  0.7429 -0.6773  0.9928
  119OSM   C10S12550   2.042   0.584   8.460  0.6602  1.4965  0.1780
  119OSM   H10S12551   2.136   0.619   8.413  0.1360  3.2949  0.4093
  119OSM   H10T12552   1.976   0.667   8.495  0.5660  1.8748 -0.8740
  119OSM   C11S12553   1.966   0.493   8.363  0.4720 -0.1065 -0.1642
  119OSM   H11S12554   1.865   0.474   8.405 -0.5241  1.2832 -1.8030
  119OSM   H11T12555   2.023   0.402   8.335  0.5051  0.3721 -1.7582
  119OSM   C12S12556   1.942   0.576   8.232 -0.5469 -0.1529 -0.0581
  119OSM   H12S12557   2.031   0.595   8.167 -1.0046 -2.2600 -1.3902
  119OSM   H12T12558   1.908   0.678   8.261 -1.0237 -0.6412  1.1541
  119OSM   C13S12559   1.847   0.507   8.141  0.3297 -0.1489 -0.5236
  119OSM   H13S12560   1.749   0.496   8.192  1.1219 -1.0188  0.8797
  119OSM   H13T12561   1.882   0.409   8.102  0.3469 -1.2592  2.0679
  119OSM   C14S12562   1.817   0.597   8.014 -0.4317  0.4094 -0.3997
  119OSM   H14S12563   1.909   0.617   7.954  0.1223  0.1887  0.3609
  119OSM   H14T12564   1.786   0.696   8.054 -2.3940  0.3339 -1.5721
  119OSM   C15S12565   1.705   0.540   7.929  0.1145 -0.5823 -0.1197
  119OSM   H15S12566   1.617   0.557   7.995 -0.2278  0.3695 -0.7955
  119OSM   H15T12567   1.733   0.433   7.919  0.1419 -0.5224 -0.7074
  119OSM   C16S12568   1.687   0.595   7.789 -0.5056 -0.1322  0.0428
  119OSM   H16S12569   1.783   0.588   7.734 -0.4456 -2.0929  0.3323
  119OSM   H16T12570   1.658   0.702   7.794  0.8769  0.2322  0.9515
  119OSM   C17S12571   1.580   0.519   7.701  0.2318  0.0495  0.8247
  119OSM   H17S12572   1.487   0.524   7.762 -0.6114 -0.8924 -0.3448
  119OSM   H17T12573   1.604   0.411   7.695 -2.1078 -0.4766 -0.1386
  119OSM   C18S12574   1.566   0.581   7.565  0.1563 -0.0147  0.4783
  119OSM   H18S12575   1.559   0.691   7.582  2.3530  0.1876  0.4623
  119OSM   H18T12576   1.476   0.535   7.519  0.9812 -1.7808  0.5602
  119OSM   H18U12577   1.647   0.565   7.491  0.3942  0.5436  0.6061
  119OSM    C1F12578   2.201   0.119   9.190 -0.7449 -0.4524  0.3600
  119OSM     OF12579   2.166   0.004   9.214 -0.3519 -0.0729 -0.4134
  119OSM    C2F12580   2.345   0.134   9.157 -0.1887 -0.1440  0.3315
  119OSM    H2F12581   2.393   0.169   9.251  2.0772 -0.8323 -0.5015
  119OSM    H2G12582   2.369   0.205   9.075 -1.6972  2.0154  1.6385
  119OSM    C3F12583   2.419   0.009   9.105  0.9928  0.7871  0.4203
  119OSM    H3F12584   2.367  -0.030   9.015  0.3575 -0.2627  1.2263
  119OSM    H3G12585   2.411  -0.064   9.188  0.8300  1.9708  1.4811
  119OSM    C4F12586   2.565   0.021   9.063  0.2127  0.0093 -1.0411
  119OSM    H4F12587   2.620  -0.061   9.115  0.8196  0.2727 -1.2614
  119OSM    H4G12588   2.612   0.113   9.103 -1.7959 -0.0412  1.7342
  119OSM    C5F12589   2.585   0.011   8.912 -0.3155 -0.4003  0.3421
  119OSM    H5F12590   2.692   0.037   8.898 -0.3749 -0.6832 -0.6751
  119OSM    H5G12591   2.514   0.070   8.850  0.0399  0.0657  0.3737
  119OSM    C6F12592   2.569  -0.139   8.860 -0.1714 -0.1036 -0.6840
  119OSM    H6F12593   2.469  -0.172   8.897  0.9331 -0.5935  2.1158
  119OSM    H6G12594   2.647  -0.203   8.904 -1.9913 -0.4260  2.3440
  119OSM    C7F12595   2.583  -0.156   8.708 -0.2209 -0.1940 -0.1749
  119OSM    H7F12596   2.662  -0.084   8.678  0.8819  0.3288  3.5653
  119OSM    H7G12597   2.494  -0.111   8.658 -0.0233  3.5233  2.3905
  119OSM    C8F12598   2.610  -0.289   8.646  0.0471  0.2871  0.5368
  119OSM    H8F12599   2.709  -0.332   8.671 -0.3129 -0.4791  0.6763
  119OSM    H8G12600   2.626  -0.269   8.538  1.3029 -0.6786  0.5238
  119OSM    C9F12601   2.501  -0.388   8.676 -0.5049  0.4412 -0.0887
  119OSM    H9F12602   2.404  -0.353   8.638 -1.6688 -1.8554  0.6003
  119OSM   C10F12603   2.517  -0.518   8.700 -0.4993 -0.2641 -0.7802
  119OSM   H10F12604   2.424  -0.569   8.729  0.3909 -2.6476 -1.8297
  119OSM   C11F12605   2.649  -0.592   8.711 -0.5690 -0.0134 -0.3083
  119OSM   H11F12606   2.686  -0.597   8.815 -1.0601  1.3105 -0.0589
  119OSM   H11G12607   2.732  -0.548   8.651 -0.2808 -0.2320 -0.0775
  119OSM   C12F12608   2.638  -0.739   8.657 -0.1903 -0.3965 -0.3160
  119OSM   H12F12609   2.588  -0.798   8.737  1.0041 -0.3274  0.5090
  119OSM   H12G12610   2.743  -0.774   8.653  0.8578  2.6118 -1.8590
  119OSM   C13F12611   2.575  -0.751   8.517  0.6702  0.5033  0.3949
  119OSM   H13F12612   2.465  -0.736   8.524  0.4519  1.0825 -2.7871
  119OSM   H13G12613   2.568  -0.860   8.495 -0.7460  0.9957 -1.8780
  119OSM   C14F12614   2.641  -0.667   8.407  0.6993 -0.2421  0.5881
  119OSM   H14F12615   2.752  -0.664   8.406  0.6982 -0.1726  0.6564
  119OSM   H14G12616   2.609  -0.561   8.419 -0.7849 -0.4425 -1.1832
  119OSM   C15F12617   2.597  -0.708   8.261 -0.4143  0.4080  0.0500
  119OSM   H15F12618   2.487  -0.697   8.257 -0.6487 -1.6476  0.0642
  119OSM   H15G12619   2.607  -0.818   8.262 -1.0035  0.3441  1.5967
  119OSM   C16F12620   2.688  -0.650   8.148  0.4247  0.3461  0.2855
  119OSM   H16F12621   2.796  -0.665   8.171  0.1450 -0.5560  1.0574
  119OSM   H16G12622   2.671  -0.540   8.146 -1.2435  0.1483 -2.5513
  119OSM   C17F12623   2.658  -0.695   8.004 -0.7426 -0.0501  0.1645
  119OSM   H17F12624   2.725  -0.778   7.973 -0.3483  0.1869  0.3700
  119OSM   H17G12625   2.694  -0.611   7.943 -1.5325 -0.4442 -0.8709
  119OSM   C18F12626   2.514  -0.717   7.981  0.2831  0.4424 -0.2655
  119OSM   H18F12627   2.489  -0.806   8.042  0.4592 -0.5359 -1.5824
  119OSM   H18G12628   2.496  -0.750   7.877  0.4116 -4.5635  1.0313
  119OSM   H18H12629   2.454  -0.626   8.006 -1.9726 -1.1603  0.4561
  120OSM      N12630   0.332   6.206  10.031  0.0477 -0.2265 -0.5375
  120OSM    C1512631   0.391   6.065  10.019  0.0915 -0.1945  0.1884
  120OSM   H15A12632   0.423   6.054   9.917 -0.6023  3.0031 -0.4570
  120OSM   H15B12633   0.310   5.994  10.032  0.1146 -0.8023 -2.4980
  120OSM   H15C12634   0.476   6.029  10.076  0.2443  0.4604  0.3762
  120OSM    C1412635   0.263   6.208  10.164  0.1649  0.9533  0.5312
  120OSM   H14A12636   0.333   6.184  10.243  1.0906 -1.1870 -0.8267
  120OSM   H14B12637   0.170   6.153  10.170  0.3931  0.1551 -2.0171
  120OSM   H14C12638   0.236   6.308  10.193  1.4741  1.5910 -0.3507
  120OSM    C1312639   0.441   6.309  10.031  0.7595 -0.3967  0.3784
  120OSM   H13A12640   0.389   6.399  10.004  2.2090  0.1723 -0.6584
  120OSM   H13B12641   0.506   6.295   9.946  0.2177  0.1178 -0.1270
  120OSM   H13C12642   0.488   6.320  10.128 -0.7287  0.4497  1.0323
  120OSM    C1212643   0.231   6.232   9.917 -0.0593 -0.6509  0.6009
  120OSM   H12A12644   0.185   6.328   9.934  2.8188  1.8117 -3.6551
  120OSM   H12B12645   0.147   6.164   9.918 -1.0879  0.5833  2.1022
  120OSM    C1112646   0.273   6.238   9.769 -0.5718  0.4552  0.5141
  120OSM   H11A12647   0.349   6.316   9.750  1.3459 -1.3581  0.2939
  120OSM   H11B12648   0.179   6.264   9.716  0.1317 -0.2019 -1.1244
  120OSM      P12649   0.223   5.995   9.666 -0.0921 -0.1917  0.0217
  120OSM    O1312650   0.289   5.864   9.685 -0.0636  0.1484  0.5522
  120OSM    O1412651   0.094   6.007   9.729 -0.7917  0.1865 -0.5942
  120OSM    O1112652   0.215   6.021   9.512 -0.8432 -0.6670 -0.4830
  120OSM    O1212653   0.322   6.110   9.726  0.4400 -0.3790 -0.3912
  120OSM    C1S12654   0.336   6.057   9.438 -0.2281  0.3511 -0.7663
  120OSM    H1S12655   0.428   6.017   9.485  1.0180  2.1890 -1.5175
  120OSM    H1T12656   0.351   6.167   9.428 -1.6699  0.6582  0.1487
  120OSM     NF12657   0.457   6.041   9.230  0.1229 -0.4187 -0.1658
  120OSM    HNF12658   0.462   6.127   9.179  2.1400 -0.7241 -0.5375
  120OSM    C2S12659   0.326   6.006   9.291  0.3091 -0.3784 -0.2559
  120OSM    H2S12660   0.319   5.896   9.283 -1.1717 -0.4374  1.3712
  120OSM    C3S12661   0.212   6.083   9.217 -0.2846 -0.1720  0.0714
  120OSM    H3S12662   0.243   6.189   9.211  0.5601 -0.4868 -2.0778
  120OSM     O312663   0.090   6.075   9.279  0.5849 -0.1427  0.1861
  120OSM    HO312664   0.118   6.052   9.368 -2.5330  2.4645  2.0473
  120OSM    C4S12665   0.188   6.025   9.082  1.1476 -0.8850  0.0848
  120OSM    H4S12666   0.122   5.937   9.084 -0.1897 -0.0120 -2.0499
  120OSM    C5S12667   0.220   6.091   8.966  0.1495  0.1931  0.4576
  120OSM    H5S12668   0.262   6.192   8.981  2.0529 -0.4811  0.0189
  120OSM    C6S12669   0.207   6.037   8.823  0.5625 -0.4095  0.1984
  120OSM    H6S12670   0.150   6.112   8.764  0.1364  0.6069  1.8265
  120OSM    H6T12671   0.127   5.961   8.813 -2.9297  2.8777  0.6775
  120OSM    C7S12672   0.322   5.998   8.724  0.0713 -0.3751 -0.4863
  120OSM    H7S12673   0.389   5.920   8.766  1.6745  1.5582  0.7024
  120OSM    H7T12674   0.388   6.086   8.712 -0.4353  0.1238  0.3291
  120OSM    C8S12675   0.259   5.963   8.591 -0.5155  0.5133 -0.5152
  120OSM    H8S12676   0.198   6.044   8.547 -0.8825 -1.2499 -3.5721
  120OSM    H8T12677   0.191   5.875   8.600  1.5627 -1.2837 -1.3070
  120OSM    C9S12678   0.365   5.937   8.485  0.3082 -0.3049 -0.7333
  120OSM    H9S12679   0.442   5.861   8.509  1.5434  1.1117 -0.1039
  120OSM    H9T12680   0.409   6.038   8.474 -0.4344  0.5351  2.7225
  120OSM   C10S12681   0.296   5.893   8.359 -0.0819  0.1076  0.0546
  120OSM   H10S12682   0.199   5.947   8.350  0.6221  1.2265 -1.3080
  120OSM   H10T12683   0.269   5.785   8.366 -0.8701  0.3181  0.3589
  120OSM   C11S12684   0.382   5.917   8.236 -0.3471 -0.1568 -1.0460
  120OSM   H11S12685   0.441   5.823   8.227  1.8478  1.1317 -0.8419
  120OSM   H11T12686   0.445   6.006   8.257  1.2747 -0.8687 -2.6599
  120OSM   C12S12687   0.319   5.934   8.101  0.2869  0.4267  0.3185
  120OSM   H12S12688   0.383   5.994   8.032  1.3719 -2.5581 -1.4922
  120OSM   H12T12689   0.224   5.990   8.117  0.3779  2.0726 -3.7595
  120OSM   C13S12690   0.292   5.798   8.033  0.4638 -0.0566  0.2862
  120OSM   H13S12691   0.238   5.740   8.111  1.7616 -2.1325 -0.3103
  120OSM   H13T12692   0.383   5.743   8.003 -1.4242 -2.9010 -0.6236
  120OSM   C14S12693   0.192   5.814   7.914  0.2092  0.5804 -0.1179
  120OSM   H14S12694   0.244   5.872   7.834 -1.4076  0.9320 -0.9573
  120OSM   H14T12695   0.117   5.875   7.968  0.9781  0.4708  1.0969
  120OSM   C15S12696   0.147   5.681   7.860 -0.3358  0.8172  0.2731
  120OSM   H15S12697   0.063   5.626   7.908 -0.2901 -1.5049 -2.0515
  120OSM   H15T12698   0.232   5.610   7.851 -1.2199 -0.2109 -0.2310
  120OSM   C16S12699   0.089   5.699   7.721  0.1456  0.5488  0.7087
  120OSM   H16S12700   0.151   5.761   7.653 -0.7843 -1.2583 -1.9236
  120OSM   H16T12701  -0.010   5.749   7.734  0.7336  1.7514  0.7236
  120OSM   C17S12702   0.062   5.570   7.639 -0.7735  0.0013  0.0738
  120OSM   H17S12703  -0.009   5.505   7.694  1.2657 -2.0597  0.4200
  120OSM   H17T12704   0.157   5.514   7.645 -1.0419 -0.4395  0.2831
  120OSM   C18S12705   0.018   5.593   7.497 -0.2653  0.0104 -0.0915
  120OSM   H18S12706   0.064   5.687   7.459  2.0110  0.6193  3.6787
  120OSM   H18T12707  -0.091   5.613   7.499 -0.3276 -0.3684  0.6993
  120OSM   H18U12708   0.029   5.508   7.425 -0.1291  0.0541 -0.1216
  120OSM    C1F12709   0.560   5.962   9.243 -0.3614  0.5508 -0.0311
  120OSM     OF12710   0.560   5.879   9.337  0.9658 -0.2329 -0.0548
  120OSM    C2F12711   0.666   5.967   9.133  0.3374  0.5938  0.4680
  120OSM    H2F12712   0.768   5.976   9.176  0.2052 -1.3266  1.2590
  120OSM    H2G12713   0.654   6.066   9.084 -1.7964  1.2438  2.1827
  120OSM    C3F12714   0.647   5.852   9.036 -0.8061 -0.6616 -0.3709
  120OSM    H3F12715   0.558   5.880   8.977 -1.1166 -1.4051 -0.2708
  120OSM    H3G12716   0.639   5.750   9.080  0.2295 -1.1538 -1.2777
  120OSM    C4F12717   0.754   5.850   8.931 -0.1113 -0.0072  0.5789
  120OSM    H4F12718   0.857   5.837   8.971  0.3236 -1.0970 -0.8335
  120OSM    H4G12719   0.761   5.947   8.876 -2.0847 -0.5271 -0.6964
  120OSM    C5F12720   0.731   5.751   8.821  0.5755 -0.0853 -0.4985
  120OSM    H5F12721   0.635   5.779   8.772 -0.1085  0.6003  1.1517
  120OSM    H5G12722   0.718   5.650   8.865 -1.2777  1.2531  2.3065
  120OSM    C6F12723   0.834   5.759   8.711 -0.3784  0.3337  0.1375
  120OSM    H6F12724   0.843   5.662   8.657  2.8624  0.7879 -0.3585
  120OSM    H6G12725   0.934   5.772   8.757 -0.6971 -0.7590  1.1973
  120OSM    C7F12726   0.805   5.861   8.594 -0.7628  0.5012  0.1733
  120OSM    H7F12727   0.904   5.893   8.554 -0.6954  0.7945  0.5725
  120OSM    H7G12728   0.753   5.951   8.631  1.2025  1.3077  1.1403
  120OSM    C8F12729   0.727   5.798   8.477 -0.3082  0.1379 -0.3380
  120OSM    H8F12730   0.641   5.747   8.525  0.9687 -0.3317  1.5996
  120OSM    H8G12731   0.797   5.716   8.450  0.2344  0.6735 -0.5812
  120OSM    C9F12732   0.693   5.894   8.365  0.9564 -0.0638 -0.1796
  120OSM    H9F12733   0.619   5.968   8.397  1.1786  0.2590 -0.4063
  120OSM   C10F12734   0.725   5.885   8.234  0.4411 -0.2344 -0.4150
  120OSM   H10F12735   0.693   5.971   8.174 -2.3346  0.7591  2.2418
  120OSM   C11F12736   0.808   5.777   8.166 -0.1051 -0.3504  0.3220
  120OSM   H11F12737   0.864   5.711   8.236  1.2005  0.8124  0.4229
  120OSM   H11G12738   0.881   5.824   8.097 -0.9550  0.6716  0.0934
  120OSM   C12F12739   0.707   5.702   8.073 -0.4735  0.5201 -1.1251
  120OSM   H12F12740   0.649   5.771   8.007 -0.9115  2.0928  0.7965
  120OSM   H12G12741   0.651   5.631   8.138 -1.8630  1.2423 -1.4981
  120OSM   C13F12742   0.797   5.612   7.982  0.2474 -0.0070 -0.4954
  120OSM   H13F12743   0.870   5.551   8.040  3.1999  2.1617 -1.6515
  120OSM   H13G12744   0.863   5.693   7.945 -0.5735  0.7404 -0.3438
  120OSM   C14F12745   0.737   5.527   7.861 -0.2171  0.2549  0.6132
  120OSM   H14F12746   0.682   5.437   7.898 -1.2854  1.3735  1.8887
  120OSM   H14G12747   0.826   5.500   7.802  1.1892  2.3210  1.6694
  120OSM   C15F12748   0.642   5.614   7.780  0.0866 -0.4070  0.7370
  120OSM   H15F12749   0.695   5.706   7.748 -1.7364 -0.0029 -1.2997
  120OSM   H15G12750   0.552   5.635   7.842 -0.3822  0.4365 -0.1952
  120OSM   C16F12751   0.583   5.545   7.661  0.2963  0.0342 -0.5886
  120OSM   H16F12752   0.498   5.486   7.702 -0.4639  0.7904 -1.0602
  120OSM   H16G12753   0.645   5.475   7.601  2.2994  0.2005  1.1763
  120OSM   C17F12754   0.527   5.632   7.556  0.6849 -0.1931  0.6952
  120OSM   H17F12755   0.610   5.681   7.501 -0.5217  2.3729  1.0369
  120OSM   H17G12756   0.467   5.716   7.596  2.0720  1.1404  0.0589
  120OSM   C18F12757   0.440   5.559   7.457  0.2694 -0.5549  0.4249
  120OSM   H18F12758   0.401   5.625   7.377 -0.1494 -1.9348 -0.5466
  120OSM   H18G12759   0.354   5.518   7.514  1.1334 -1.3434  1.1989
  120OSM   H18H12760   0.488   5.478   7.397 -1.3486 -1.0461 -0.2648
  121OSM      N12761   0.064   1.611   9.821  0.8356 -0.3174  0.0841
  121OSM    C1512762  -0.041   1.555   9.731  0.5655  0.0797  0.4507
  121OSM   H15A12763  -0.046   1.598   9.632  1.1209 -0.8579  0.0047
  121OSM   H15B12764  -0.141   1.570   9.769  0.0606 -3.0957  0.6069
  121OSM   H15C12765  -0.016   1.453   9.706  0.2598 -0.1889  1.2150
  121OSM    C1412766   0.025   1.620   9.962 -0.7523  0.0036  0.3067
  121OSM   H14A12767  -0.016   1.533  10.012  1.0770  0.6485  3.1960
  121OSM   H14B12768  -0.045   1.700   9.978  0.3742  1.1087 -0.1061
  121OSM   H14C12769   0.114   1.637  10.022  2.8919 -3.2510 -3.5123
  121OSM    C1312770   0.192   1.527   9.810  0.2977 -0.1410 -0.3952
  121OSM   H13A12771   0.270   1.558   9.878  1.0109 -2.1599 -0.2276
  121OSM   H13B12772   0.223   1.524   9.706  0.0289 -3.4822 -0.4852
  121OSM   H13C12773   0.170   1.422   9.824  1.3878 -1.3405 -5.5475
  121OSM    C1212774   0.098   1.752   9.782 -0.8409 -0.1192 -0.0222
  121OSM   H12A12775   0.187   1.775   9.839 -0.5093 -3.8717  1.2223
  121OSM   H12B12776   0.016   1.817   9.809  0.6326  0.2943  4.0792
  121OSM    C1112777   0.134   1.785   9.638  0.1448 -0.0696  0.3451
  121OSM   H11A12778   0.207   1.716   9.589 -0.9335  0.0803 -1.5801
  121OSM   H11B12779   0.168   1.891   9.632  0.2298 -0.1023  0.2423
  121OSM      P12780  -0.084   1.871   9.528 -0.0293 -0.5026  0.2137
  121OSM    O1312781  -0.216   1.803   9.522  0.3522 -0.2523 -0.0413
  121OSM    O1412782  -0.076   1.980   9.629 -0.2286  0.3311  0.3470
  121OSM    O1112783  -0.042   1.923   9.390 -0.1421 -0.5504 -0.1576
  121OSM    O1212784   0.022   1.766   9.555 -0.3232 -0.4398 -0.1215
  121OSM    C1S12785  -0.029   1.839   9.276  0.5437 -0.7396  0.9193
  121OSM    H1S12786   0.002   1.734   9.294  0.5972 -1.1870 -1.4008
  121OSM    H1T12787   0.052   1.871   9.207  0.3503 -4.6500 -1.4305
  121OSM     NF12788  -0.170   1.749   9.090  0.0894 -0.2506 -0.1739
  121OSM    HNF12789  -0.161   1.786   8.998 -1.6388  0.6911 -0.0016
  121OSM    C2S12790  -0.165   1.840   9.200 -0.1496  0.1272 -0.0002
  121OSM    H2S12791  -0.252   1.820   9.266 -1.6660  1.5894 -1.4711
  121OSM    C3S12792  -0.205   1.991   9.152 -0.1130 -0.1646 -0.5771
  121OSM    H3S12793  -0.128   2.028   9.082  0.1023  0.3420 -0.0798
  121OSM     O312794  -0.211   2.092   9.253 -0.1519 -0.3752 -0.2625
  121OSM    HO312795  -0.138   2.060   9.307 -0.6539  0.6124  1.0664
  121OSM    C4S12796  -0.334   1.989   9.073  0.2501  0.3657  0.9440
  121OSM    H4S12797  -0.420   1.943   9.125 -1.2202  1.3696 -0.4963
  121OSM    C5S12798  -0.360   2.048   8.949 -0.7880 -0.2927 -1.0065
  121OSM    H5S12799  -0.285   2.113   8.901 -1.5317  0.7071 -0.8406
  121OSM    C6S12800  -0.492   2.041   8.885  0.5791 -0.0310 -0.5284
  121OSM    H6S12801  -0.516   2.141   8.843  0.3708  0.1873  0.1040
  121OSM    H6T12802  -0.575   2.007   8.950  0.0316 -0.2906 -1.3462
  121OSM    C7S12803  -0.483   1.939   8.774  0.2213 -0.1886 -0.1330
  121OSM    H7S12804  -0.466   1.845   8.831  0.1892 -0.7428 -1.0170
  121OSM    H7T12805  -0.397   1.960   8.707 -0.4784  0.7779 -0.7563
  121OSM    C8S12806  -0.609   1.928   8.684  0.2992  0.5775  0.4054
  121OSM    H8S12807  -0.701   1.897   8.738  1.6180 -1.6091  1.5329
  121OSM    H8T12808  -0.603   1.844   8.612 -2.7654  1.3104 -0.8224
  121OSM    C9S12809  -0.629   2.051   8.603  0.2641 -0.7215  0.0753
  121OSM    H9S12810  -0.539   2.095   8.554  0.3113 -0.1153  0.6898
  121OSM    H9T12811  -0.668   2.122   8.680  0.0789 -0.1004 -0.5738
  121OSM   C10S12812  -0.747   2.044   8.507 -0.1466 -0.3568 -0.3608
  121OSM   H10S12813  -0.743   2.148   8.468  1.2987 -0.6924 -1.1935
  121OSM   H10T12814  -0.846   2.030   8.553 -0.4514  2.0900 -0.1390
  121OSM   C11S12815  -0.727   1.950   8.387 -0.2707  0.0001 -0.5832
  121OSM   H11S12816  -0.732   1.844   8.418  3.2397  0.2852  1.5593
  121OSM   H11T12817  -0.626   1.977   8.348  0.6375 -0.6619  1.2021
  121OSM   C12S12818  -0.817   1.986   8.259 -0.1312 -0.1229  0.2240
  121OSM   H12S12819  -0.792   2.085   8.215 -2.3309  0.2267 -0.3594
  121OSM   H12T12820  -0.920   1.999   8.298 -0.3583  1.3278 -0.7724
  121OSM   C13S12821  -0.821   1.899   8.142  0.2319 -0.0887  0.4122
  121OSM   H13S12822  -0.922   1.887   8.096  0.9500  0.1259 -1.3136
  121OSM   H13T12823  -0.807   1.794   8.176 -2.3402 -0.6970 -0.1470
  121OSM   C14S12824  -0.720   1.928   8.033  0.6628  0.3195  0.0418
  121OSM   H14S12825  -0.619   1.943   8.077  0.4131  1.6246  0.2220
  121OSM   H14T12826  -0.754   2.022   7.985 -1.0869  0.4842  1.5083
  121OSM   C15S12827  -0.712   1.814   7.927  0.3724  0.3280 -0.3081
  121OSM   H15S12828  -0.810   1.801   7.877  0.3693  0.1167 -0.2477
  121OSM   H15T12829  -0.686   1.719   7.978  1.4459  0.2059 -1.0386
  121OSM   C16S12830  -0.605   1.840   7.818  0.2994 -0.8495  0.6090
  121OSM   H16S12831  -0.544   1.932   7.831  2.4322 -1.4340 -3.5411
  121OSM   H16T12832  -0.668   1.858   7.728  0.1234 -2.0353  0.4859
  121OSM   C17S12833  -0.496   1.736   7.782 -0.5071 -0.4607  0.3662
  121OSM   H17S12834  -0.549   1.647   7.743 -1.4322  0.6367 -0.9937
  121OSM   H17T12835  -0.434   1.721   7.873  0.3416  2.0607  0.2951
  121OSM   C18S12836  -0.396   1.774   7.671  0.0271  0.3911 -0.2386
  121OSM   H18S12837  -0.447   1.774   7.572 -1.9639  2.6141  0.6931
  121OSM   H18T12838  -0.305   1.710   7.662 -0.9640 -1.2799  1.0472
  121OSM   H18U12839  -0.359   1.878   7.683 -0.3749  0.3368  1.7404
  121OSM    C1F12840  -0.194   1.620   9.110  0.0034  0.1505  0.9135
  121OSM     OF12841  -0.215   1.573   9.221 -0.0409  0.0251 -0.2149
  121OSM    C2F12842  -0.199   1.531   8.988 -0.2519 -0.4919  0.2735
  121OSM    H2F12843  -0.194   1.426   9.024 -3.3240 -1.2100 -1.1645
  121OSM    H2G12844  -0.098   1.543   8.942  0.0125 -1.2924  0.6304
  121OSM    C3F12845  -0.309   1.553   8.889 -0.1900 -0.2450 -0.4538
  121OSM    H3F12846  -0.296   1.659   8.857  1.1329 -0.3668 -0.3749
  121OSM    H3G12847  -0.410   1.547   8.935  0.2937  1.1270  0.8911
  121OSM    C4F12848  -0.319   1.452   8.776 -0.8380  0.2730  0.6534
  121OSM    H4F12849  -0.376   1.367   8.819 -0.2409 -0.6040 -0.2149
  121OSM    H4G12850  -0.215   1.415   8.759 -0.5704  1.0012  0.6831
  121OSM    C5F12851  -0.396   1.490   8.648 -0.1281  0.1231 -0.2679
  121OSM    H5F12852  -0.497   1.525   8.679  0.2117  1.1207 -0.2510
  121OSM    H5G12853  -0.421   1.401   8.587 -1.3000  0.9303 -1.0189
  121OSM    C6F12854  -0.325   1.604   8.582  0.2460 -0.2749  0.8463
  121OSM    H6F12855  -0.217   1.593   8.560  0.3603  0.1502  1.1812
  121OSM    H6G12856  -0.324   1.699   8.640 -1.7457  0.1708  0.2229
  121OSM    C7F12857  -0.399   1.641   8.450 -0.1177 -0.4659 -0.4776
  121OSM    H7F12858  -0.503   1.665   8.480  0.0670 -1.2438  0.8830
  121OSM    H7G12859  -0.400   1.556   8.378  2.2850 -2.0118  1.1543
  121OSM    C8F12860  -0.339   1.776   8.386  0.1099 -0.3916 -0.1685
  121OSM    H8F12861  -0.228   1.764   8.389  0.0462 -0.8348  0.7779
  121OSM    H8G12862  -0.361   1.858   8.457 -2.7819 -1.4803  0.3308
  121OSM    C9F12863  -0.406   1.792   8.247 -0.1156 -0.2992  0.0722
  121OSM    H9F12864  -0.502   1.742   8.226  0.3094 -0.2713 -2.1391
  121OSM   C10F12865  -0.367   1.875   8.146  0.0280  0.4252 -0.0168
  121OSM   H10F12866  -0.417   1.864   8.049  0.4773  2.8439 -0.5637
  121OSM   C11F12867  -0.238   1.958   8.145  0.1258 -0.5157  0.3111
  121OSM   H11F12868  -0.199   1.971   8.249  2.9945 -1.8799 -0.4949
  121OSM   H11G12869  -0.260   2.054   8.094  1.4034 -1.3149 -1.8784
  121OSM   C12F12870  -0.129   1.912   8.052 -1.0806  0.1167 -0.1841
  121OSM   H12F12871  -0.175   1.856   7.968  0.3934 -0.3131 -0.7384
  121OSM   H12G12872  -0.063   1.837   8.100 -0.8269  0.8374  0.6123
  121OSM   C13F12873  -0.045   2.035   8.008 -0.5827 -0.3851  0.3727
  121OSM   H13F12874   0.062   2.007   8.019 -0.6655 -1.4181 -1.1331
  121OSM   H13G12875  -0.082   2.111   8.080 -2.5476  0.1203 -1.0789
  121OSM   C14F12876  -0.069   2.059   7.859 -0.8528 -0.2413  0.1447
  121OSM   H14F12877  -0.178   2.071   7.841 -0.8094 -2.0824 -1.6735
  121OSM   H14G12878  -0.029   1.965   7.815 -0.4649  0.9683 -2.2377
  121OSM   C15F12879   0.001   2.187   7.801 -0.2920  0.0989 -0.0556
  121OSM   H15F12880  -0.062   2.278   7.811  1.8018  1.5721  0.4935
  121OSM   H15G12881   0.012   2.176   7.691  2.4353  0.0404  0.1544
  121OSM   C16F12882   0.132   2.225   7.873 -0.0915  0.0928 -0.4712
  121OSM   H16F12883   0.197   2.136   7.886  1.2990  0.9390 -1.3498
  121OSM   H16G12884   0.114   2.282   7.966  1.6963  0.0011 -0.0248
  121OSM   C17F12885   0.223   2.321   7.789  0.4794  0.0151  1.3546
  121OSM   H17F12886   0.215   2.276   7.688  1.8668 -0.7647  1.5592
  121OSM   H17G12887   0.330   2.322   7.820  0.4816  2.8494  1.4498
  121OSM   C18F12888   0.188   2.469   7.782 -0.0886  0.3386 -0.0825
  121OSM   H18F12889   0.183   2.514   7.883 -1.7172 -0.1715  0.1046
  121OSM   H18G12890   0.085   2.493   7.746  1.3410  2.5800 -3.2531
  121OSM   H18H12891   0.253   2.519   7.707 -0.6628  0.6015 -0.4183
  122OSM      N12892   6.694   0.838   9.858  0.1466  0.6930 -0.4039
  122OSM    C1512893   6.601   0.835   9.975  0.5206 -0.4332  0.1855
  122OSM   H15A12894   6.518   0.768   9.967  1.0676 -1.3194  1.5662
  122OSM   H15B12895   6.565   0.932  10.008  1.0593 -0.1631  0.0028
  122OSM   H15C12896   6.660   0.790  10.054  1.2645  0.8314  0.3785
  122OSM    C1412897   6.634   0.923   9.744 -0.1663 -0.2177  0.0510
  122OSM   H14A12898   6.700   0.944   9.662 -2.9049 -0.1139 -2.2937
  122OSM   H14B12899   6.606   1.020   9.785 -0.0034 -0.4462  0.7133
  122OSM   H14C12900   6.542   0.882   9.707  0.8942  0.2429 -3.3828
  122OSM    C1312901   6.813   0.911   9.905 -0.0959 -0.6806  0.2497
  122OSM   H13A12902   6.793   1.010   9.943  2.1472  0.0529 -0.2878
  122OSM   H13B12903   6.889   0.928   9.830 -0.5305 -0.2665 -0.1032
  122OSM   H13C12904   6.855   0.859   9.990 -0.0259 -1.7392 -0.4236
  122OSM    C1212905   6.715   0.695   9.816 -0.5404 -0.0478 -0.0184
  122OSM   H12A12906   6.622   0.642   9.804 -0.5290 -0.2350  0.7191
  122OSM   H12B12907   6.773   0.651   9.896 -1.6577  0.3202  1.0217
  122OSM    C1112908   6.797   0.676   9.686  0.7430  0.4850 -0.6685
  122OSM   H11A12909   6.886   0.742   9.688  1.8274 -0.7832 -2.9007
  122OSM   H11B12910   6.736   0.715   9.601 -1.6944  0.8135  1.1078
  122OSM      P12911   6.743   0.432   9.616  0.3411  0.2848 -0.5301
  122OSM    O1312912   6.780   0.296   9.662  0.3090 -0.0774  0.2751
  122OSM    O1412913   6.604   0.475   9.625  0.4709  0.0377  0.0036
  122OSM    O1112914   6.780   0.437   9.460  0.3947 -0.0044  0.4962
  122OSM    O1212915   6.839   0.543   9.680  0.4719  0.4513 -0.1285
  122OSM    C1S12916   6.913   0.423   9.418 -0.3181  0.7220 -0.3055
  122OSM    H1S12917   6.949   0.319   9.427 -0.7084  0.4983 -1.2164
  122OSM    H1T12918   6.974   0.495   9.477 -3.0309  3.3949 -0.4598
  122OSM     NF12919   7.058   0.409   9.221 -0.4979 -0.4815 -0.1935
  122OSM    HNF12920   7.126   0.482   9.224 -1.4527  0.5428 -1.7446
  122OSM    C2S12921   6.932   0.455   9.265 -0.9749  0.3672 -0.4441
  122OSM    H2S12922   6.858   0.388   9.217 -1.9395  0.6821  0.5746
  122OSM    C3S12923   6.898   0.609   9.234 -0.3668 -0.0590  0.3113
  122OSM    H3S12924   6.981   0.672   9.271  2.3228 -3.0620 -0.1601
  122OSM     O312925   6.778   0.648   9.301  0.2078  0.0757  0.3888
  122OSM    HO312926   6.755   0.574   9.357  2.1404 -0.7405  0.1805
  122OSM    C4S12927   6.896   0.623   9.088  0.1669  0.8271  0.5448
  122OSM    H4S12928   6.857   0.529   9.047 -0.1013 -0.5076  3.5659
  122OSM    C5S12929   6.937   0.719   9.006 -0.2440 -0.0750 -0.8245
  122OSM    H5S12930   6.961   0.817   9.051  1.7928 -0.9359  0.1207
  122OSM    C6S12931   6.936   0.713   8.853 -0.0038 -0.2702 -0.5274
  122OSM    H6S12932   6.930   0.820   8.824 -0.1138  0.2664  1.3550
  122OSM    H6T12933   6.850   0.658   8.810 -0.5690  0.6309 -0.5725
  122OSM    C7S12934   7.072   0.649   8.810  0.0429 -0.4243 -0.0745
  122OSM    H7S12935   7.063   0.539   8.825 -1.6844 -0.3604 -0.4212
  122OSM    H7T12936   7.156   0.695   8.866  0.4345 -1.4007  0.1581
  122OSM    C8S12937   7.091   0.669   8.662  0.4604 -0.2605 -0.2835
  122OSM    H8S12938   7.182   0.618   8.623  0.2835 -1.1244  0.4075
  122OSM    H8T12939   7.100   0.778   8.646 -2.4795 -0.1294 -1.6966
  122OSM    C9S12940   6.979   0.615   8.568  0.3055  0.5524  0.5041
  122OSM    H9S12941   6.881   0.664   8.587  0.1308  0.2796  0.3037
  122OSM    H9T12942   6.959   0.507   8.582 -0.7677  1.0109  3.0830
  122OSM   C10S12943   7.019   0.649   8.426  0.0054  0.1027  0.1420
  122OSM   H10S12944   7.110   0.591   8.402 -1.9284 -2.5602 -1.3221
  122OSM   H10T12945   7.052   0.754   8.421  0.5131 -0.0712 -0.2075
  122OSM   C11S12946   6.911   0.609   8.328  0.3504 -0.2905 -0.0631
  122OSM   H11S12947   6.815   0.645   8.371  1.9562  2.1396  1.7290
  122OSM   H11T12948   6.912   0.499   8.314 -0.0441 -0.4841  1.3256
  122OSM   C12S12949   6.917   0.674   8.185 -0.3457 -0.3540  0.0273
  122OSM   H12S12950   6.905   0.783   8.204  2.8793  0.0854  0.0406
  122OSM   H12T12951   6.828   0.639   8.128 -2.2994 -0.8663  3.1308
  122OSM   C13S12952   7.039   0.636   8.098 -0.0579 -0.0362  1.0361
  122OSM   H13S12953   7.077   0.535   8.124 -2.9586 -0.6391  3.5214
  122OSM   H13T12954   7.114   0.711   8.131 -0.2351 -0.6869  3.0786
  122OSM   C14S12955   7.004   0.651   7.945  0.4375  0.1925 -0.1192
  122OSM   H14S12956   6.904   0.601   7.938 -0.3636  1.2271  2.7030
  122OSM   H14T12957   7.074   0.600   7.875  1.0694  0.3490  0.4011
  122OSM   C15S12958   6.996   0.797   7.895  0.2019  0.7007  0.3317
  122OSM   H15S12959   7.097   0.843   7.899  0.7257 -0.0636 -2.2433
  122OSM   H15T12960   6.925   0.849   7.963  0.0906  1.9097 -0.6751
  122OSM   C16S12961   6.940   0.794   7.754  0.1351 -0.1909 -0.6841
  122OSM   H16S12962   6.829   0.803   7.751  0.1667  0.0900 -2.7737
  122OSM   H16T12963   6.953   0.696   7.705  0.5747  0.2400 -1.4500
  122OSM   C17S12964   7.013   0.896   7.661  0.0988  0.6350 -0.0804
  122OSM   H17S12965   7.120   0.870   7.654  1.4044  4.1095  3.1744
  122OSM   H17T12966   7.007   0.992   7.717 -2.0636  1.0561 -0.9155
  122OSM   C18S12967   6.939   0.926   7.529 -0.5060 -0.5763  0.2241
  122OSM   H18S12968   6.829   0.932   7.538 -0.6363 -1.8995 -0.4095
  122OSM   H18T12969   6.960   0.849   7.452 -1.1816  0.0613 -0.6082
  122OSM   H18U12970   6.993   1.015   7.489 -0.4260 -0.5262  0.4398
  122OSM    C1F12971   7.106   0.284   9.219 -0.0351 -0.1209  0.5500
  122OSM     OF12972   7.028   0.187   9.222 -0.1861 -0.5296 -0.2277
  122OSM    C2F12973   7.250   0.258   9.237 -0.8672 -0.1475  0.8237
  122OSM    H2F12974   7.269   0.233   9.344  1.7829 -1.7383  0.0648
  122OSM    H2G12975   7.305   0.348   9.201  1.3794 -1.5277  0.6456
  122OSM    C3F12976   7.294   0.138   9.159  0.2230  0.4689 -0.4745
  122OSM    H3F12977   7.298   0.171   9.053 -0.4636  1.5209 -0.1940
  122OSM    H3G12978   7.219   0.057   9.171  0.4451  0.2356 -0.6492
  122OSM    C4F12979   7.424   0.081   9.210  0.7104 -0.5650 -0.1699
  122OSM    H4F12980   7.406   0.063   9.318 -0.8591 -0.6220 -0.4228
  122OSM    H4G12981   7.506   0.155   9.199  0.2027 -0.2070 -1.7609
  122OSM    C5F12982   7.462  -0.053   9.149 -0.4885 -0.1302 -0.0208
  122OSM    H5F12983   7.375  -0.122   9.151  1.2756 -2.5084 -0.2426
  122OSM    H5G12984   7.546  -0.094   9.210 -0.3940  1.2288  0.7955
  122OSM    C6F12985   7.509  -0.043   9.002  0.1701 -0.6105  0.1238
  122OSM    H6F12986   7.445   0.033   8.953 -0.3139 -1.0007  0.1396
  122OSM    H6G12987   7.493  -0.136   8.944  0.4013 -0.2818 -0.4707
  122OSM    C7F12988   7.659  -0.025   8.975 -0.3085 -0.4809 -0.2595
  122OSM    H7F12989   7.704  -0.113   9.028  0.7555  0.0610 -0.2344
  122OSM    H7G12990   7.710   0.067   9.010 -0.1986 -0.2851 -0.9327
  122OSM    C8F12991   7.709  -0.023   8.831 -1.2495  0.3630 -0.2178
  122OSM    H8F12992   7.662   0.063   8.780  0.4250  1.6340  0.2842
  122OSM    H8G12993   7.662  -0.114   8.788 -1.4327 -0.0869  0.8999
  122OSM    C9F12994   7.862  -0.033   8.824 -0.2196 -0.1763 -0.8288
  122OSM    H9F12995   7.916   0.010   8.910  0.8512 -1.3080 -0.9114
  122OSM   C10F12996   7.928  -0.117   8.738 -0.4492 -0.7452 -0.3369
  122OSM   H10F12997   8.035  -0.136   8.754 -0.7243 -0.6173  1.9843
  122OSM   C11F12998   7.863  -0.208   8.632 -0.7053 -0.0888 -1.0464
  122OSM   H11F12999   7.870  -0.173   8.526 -2.2339  1.5560 -0.6683
  122OSM   H11G13000   7.751  -0.211   8.631 -0.8002  1.7941 -2.7043
  122OSM   C12F13001   7.921  -0.349   8.649 -0.5131 -0.0552 -0.4680
  122OSM   H12F13002   7.846  -0.418   8.603  0.2890 -1.7915  0.7158
  122OSM   H12G13003   7.926  -0.379   8.756 -1.1887  1.7813  0.1139
  122OSM   C13F13004   8.050  -0.367   8.570 -0.3495 -0.4136 -0.3601
  122OSM   H13F13005   8.136  -0.311   8.614 -0.1337 -1.0730  0.0837
  122OSM   H13G13006   8.022  -0.341   8.466 -2.2512 -0.1670  0.1825
  122OSM   C14F13007   8.090  -0.520   8.575 -0.0750 -0.3836  0.5095
  122OSM   H14F13008   7.995  -0.572   8.552 -2.1792  2.2547  2.4793
  122OSM   H14G13009   8.126  -0.549   8.676  2.5912 -1.2938 -0.6158
  122OSM   C15F13010   8.200  -0.555   8.473 -0.1934 -0.0808 -0.4526
  122OSM   H15F13011   8.225  -0.663   8.480 -2.7291 -0.6045  2.6287
  122OSM   H15G13012   8.293  -0.496   8.486 -0.6378  0.2058  1.7129
  122OSM   C16F13013   8.146  -0.550   8.336  0.4698 -0.1556 -0.0084
  122OSM   H16F13014   8.111  -0.449   8.305  1.2165  0.6374  1.6464
  122OSM   H16G13015   8.049  -0.604   8.345 -0.0712  1.0969  2.3023
  122OSM   C17F13016   8.237  -0.616   8.232  0.1277  0.0202  0.1362
  122OSM   H17F13017   8.201  -0.626   8.128  3.9989 -0.8413 -1.2915
  122OSM   H17G13018   8.248  -0.724   8.258 -0.2435 -0.5707 -2.0426
  122OSM   C18F13019   8.379  -0.549   8.226 -0.0380  0.1575  0.0902
  122OSM   H18F13020   8.425  -0.526   8.324 -2.1053  1.0739  0.9010
  122OSM   H18G13021   8.366  -0.450   8.177  0.0310  0.7387  1.2155
  122OSM   H18H13022   8.440  -0.606   8.152  0.2371 -0.2933  0.6533
  123OSM      N13023   2.676   4.658   5.269 -0.0792 -0.0691 -0.3511
  123OSM    C1513024   2.624   4.527   5.228  0.0588  0.0596  0.2044
  123OSM   H15A13025   2.529   4.539   5.179  0.9505  0.4078 -1.5257
  123OSM   H15B13026   2.605   4.463   5.313 -0.9688  0.4260  0.2599
  123OSM   H15C13027   2.694   4.479   5.161 -0.6141 -1.2491  0.4004
  123OSM    C1413028   2.704   4.743   5.151 -0.4744  0.4797  0.4645
  123OSM   H14A13029   2.735   4.841   5.184 -1.1216  0.0538  2.4858
  123OSM   H14B13030   2.625   4.759   5.079  0.0227  0.4346 -0.0969
  123OSM   H14C13031   2.786   4.705   5.092 -0.8582  2.0526 -1.1389
  123OSM    C1313032   2.566   4.724   5.352 -0.5337 -0.0953  0.1626
  123OSM   H13A13033   2.544   4.661   5.437  0.5380 -1.1873 -0.3311
  123OSM   H13B13034   2.481   4.734   5.287  1.2155 -2.9165 -2.8695
  123OSM   H13C13035   2.604   4.821   5.381  1.2131 -0.9553  0.9045
  123OSM    C1213036   2.806   4.652   5.354 -0.1188 -0.7178 -0.1684
  123OSM   H12A13037   2.851   4.750   5.362 -1.1421 -0.2369 -0.1741
  123OSM   H12B13038   2.882   4.606   5.293  0.8441 -1.6213  1.6102
  123OSM    C1113039   2.799   4.593   5.500 -0.0487  0.1163  0.2669
  123OSM   H11A13040   2.730   4.652   5.564 -0.1074 -0.7220  1.0130
  123OSM   H11B13041   2.900   4.603   5.545  0.7854  0.9251 -1.6745
  123OSM      P13042   2.849   4.341   5.435 -0.1296  0.0591 -0.0847
  123OSM    O1313043   2.763   4.231   5.372  0.1354 -0.1628  0.3077
  123OSM    O1413044   2.951   4.401   5.339  0.4092 -0.2222 -0.0253
  123OSM    O1113045   2.920   4.286   5.567  0.3592  0.3250  0.2789
  123OSM    O1213046   2.751   4.453   5.490 -0.1591  0.1159  0.3615
  123OSM    C1S13047   2.844   4.254   5.684 -0.3672  0.6204  0.3946
  123OSM    H1S13048   2.814   4.147   5.681 -3.3977  1.4045 -0.9569
  123OSM    H1T13049   2.750   4.312   5.697 -0.1451  0.8586  0.9300
  123OSM     NF13050   2.844   4.237   5.932  0.3299 -0.5842  0.0519
  123OSM    HNF13051   2.805   4.307   5.991  1.0890 -0.5384  0.5149
  123OSM    C2S13052   2.924   4.269   5.812  1.0288 -0.1221  0.5900
  123OSM    H2S13053   3.003   4.191   5.803 -1.9104 -3.1722 -0.9519
  123OSM    C3S13054   3.005   4.403   5.815  0.5728 -0.3626 -0.3336
  123OSM    H3S13055   2.924   4.478   5.821 -0.5000 -1.4563 -0.6566
  123OSM     O313056   3.094   4.431   5.702 -0.1253 -0.0582 -0.1218
  123OSM    HO313057   3.063   4.368   5.637 -0.3217  0.3958 -0.4699
  123OSM    C4S13058   3.093   4.404   5.942  0.2131  0.6957 -0.3712
  123OSM    H4S13059   3.197   4.372   5.926  0.1898  0.8758 -0.8899
  123OSM    C5S13060   3.067   4.468   6.054 -0.9422 -0.0079 -0.0104
  123OSM    H5S13061   2.985   4.541   6.063  0.7224  2.7431 -4.0605
  123OSM    C6S13062   3.162   4.487   6.168 -0.1380 -0.1217  0.1666
  123OSM    H6S13063   3.171   4.597   6.177 -0.0360  0.1956 -2.8743
  123OSM    H6T13064   3.264   4.448   6.145 -0.8896 -1.2171 -1.5005
  123OSM    C7S13065   3.121   4.441   6.310  0.8420  0.1625 -0.5753
  123OSM    H7S13066   3.095   4.333   6.307 -1.2992  0.5555  1.1358
  123OSM    H7T13067   3.027   4.491   6.342 -0.2708 -0.1279 -3.1159
  123OSM    C8S13068   3.223   4.480   6.412  0.7079 -0.5403  0.2152
  123OSM    H8S13069   3.249   4.587   6.394  0.9642 -0.6106  0.1666
  123OSM    H8T13070   3.322   4.431   6.404  1.5038  0.3025  3.4930
  123OSM    C9S13071   3.174   4.462   6.559 -0.4932 -0.3434  0.7640
  123OSM    H9S13072   3.165   4.352   6.573 -2.8887 -0.6540 -2.2002
  123OSM    H9T13073   3.077   4.512   6.582 -0.1530  1.3477 -1.2443
  123OSM   C10S13074   3.269   4.528   6.661 -0.8203  0.5003  0.0055
  123OSM   H10S13075   3.271   4.637   6.639 -0.7956  0.2873 -1.0838
  123OSM   H10T13076   3.371   4.489   6.637 -1.8395 -1.7479 -0.9738
  123OSM   C11S13077   3.231   4.483   6.799 -0.2461 -0.1179  0.5397
  123OSM   H11S13078   3.251   4.375   6.817 -1.6696 -0.0594  3.0383
  123OSM   H11T13079   3.122   4.504   6.803  0.1807  2.5302  0.2906
  123OSM   C12S13080   3.301   4.576   6.909  0.0014  1.3570  0.2012
  123OSM   H12S13081   3.289   4.680   6.870 -0.4239  0.8333 -1.1391
  123OSM   H12T13082   3.410   4.554   6.907  0.3335  2.9189 -0.5036
  123OSM   C13S13083   3.247   4.566   7.047  0.4838 -0.2263  0.8085
  123OSM   H13S13084   3.285   4.474   7.096  0.0232 -1.2021 -0.5915
  123OSM   H13T13085   3.139   4.543   7.038  0.5832 -0.7663  0.9456
  123OSM   C14S13086   3.284   4.684   7.142 -0.1257 -0.3964 -0.2232
  123OSM   H14S13087   3.254   4.656   7.245 -2.1096 -0.3922 -0.7485
  123OSM   H14T13088   3.223   4.764   7.095  0.8288  0.1088 -0.6300
  123OSM   C15S13089   3.432   4.716   7.142  0.0053  0.2222  0.1808
  123OSM   H15S13090   3.471   4.736   7.040 -0.2808  0.9756  0.2089
  123OSM   H15T13091   3.486   4.630   7.186 -0.0699 -0.8443 -1.6898
  123OSM   C16S13092   3.466   4.838   7.228 -0.1845 -0.4010 -0.5133
  123OSM   H16S13093   3.565   4.881   7.201 -1.0373  2.9546  1.1206
  123OSM   H16T13094   3.471   4.815   7.337 -0.8508  1.3311 -0.0810
  123OSM   C17S13095   3.365   4.953   7.213 -0.3751  0.0668  0.6857
  123OSM   H17S13096   3.277   4.920   7.273 -0.7322  0.3204  0.3039
  123OSM   H17T13097   3.324   4.966   7.111 -0.8291  0.3376  0.8959
  123OSM   C18S13098   3.427   5.080   7.274 -0.5742  0.2125  0.2533
  123OSM   H18S13099   3.360   5.166   7.250 -1.4321  0.0492  1.8885
  123OSM   H18T13100   3.527   5.112   7.238 -0.0070 -1.0442  0.6763
  123OSM   H18U13101   3.435   5.065   7.384 -2.3335 -0.0815  0.3692
  123OSM    C1F13102   2.790   4.119   5.942  0.4077 -0.0699 -0.1600
  123OSM     OF13103   2.831   4.027   5.877 -1.1209  0.0330  0.4967
  123OSM    C2F13104   2.669   4.112   6.040  0.4448  0.3009 -0.0876
  123OSM    H2F13105   2.678   4.022   6.105 -0.9639  0.9674  1.0891
  123OSM    H2G13106   2.577   4.103   5.980 -0.8884 -0.3574  1.9403
  123OSM    C3F13107   2.640   4.237   6.131 -0.1804 -0.1004 -0.2616
  123OSM    H3F13108   2.542   4.214   6.178  0.8319 -0.3403  1.8798
  123OSM    H3G13109   2.617   4.328   6.071 -1.8520 -0.4326 -0.1741
  123OSM    C4F13110   2.752   4.271   6.231  0.0902 -0.5450 -0.6683
  123OSM    H4F13111   2.724   4.365   6.285  1.2992  1.3807 -3.1850
  123OSM    H4G13112   2.849   4.305   6.188 -0.7030  0.1313 -1.9656
  123OSM    C5F13113   2.780   4.149   6.322 -0.2197 -0.2381  0.2740
  123OSM    H5F13114   2.823   4.075   6.252 -2.7209 -0.6913 -0.9180
  123OSM    H5G13115   2.682   4.116   6.362 -0.7275 -0.1281 -0.8351
  123OSM    C6F13116   2.868   4.182   6.446  0.4736 -0.7215  0.0756
  123OSM    H6F13117   2.962   4.233   6.414 -1.1942  1.0993 -2.3228
  123OSM    H6G13118   2.892   4.080   6.482  1.1069 -0.2495  1.0354
  123OSM    C7F13119   2.799   4.270   6.557 -0.1176  0.4922 -0.2561
  123OSM    H7F13120   2.690   4.249   6.558  0.1919 -1.2958 -0.9889
  123OSM    H7G13121   2.795   4.376   6.525  1.5481  0.4332 -0.7871
  123OSM    C8F13122   2.868   4.258   6.694 -0.0205  0.0126  0.0620
  123OSM    H8F13123   2.830   4.334   6.764 -1.3409 -0.6160  0.0525
  123OSM    H8G13124   2.977   4.278   6.683  0.5596 -1.2842  2.5928
  123OSM    C9F13125   2.848   4.135   6.769  0.1167 -0.8592 -0.2128
  123OSM    H9F13126   2.799   4.052   6.717  0.1722 -1.1352  0.1671
  123OSM   C10F13127   2.892   4.122   6.898  0.2980 -0.0404  0.2600
  123OSM   H10F13128   2.885   4.024   6.946  0.3011  0.5653  1.5429
  123OSM   C11F13129   2.953   4.227   6.983 -0.5321 -0.2580 -0.9162
  123OSM   H11F13130   3.026   4.282   6.919  1.1235 -1.9840 -0.5969
  123OSM   H11G13131   3.012   4.179   7.064 -0.0821 -0.3258 -1.2841
  123OSM   C12F13132   2.855   4.328   7.055 -0.0642  0.2589  0.2990
  123OSM   H12F13133   2.769   4.358   6.993 -1.5131  1.2115  2.6513
  123OSM   H12G13134   2.923   4.416   7.065  0.2992  0.0241 -0.0481
  123OSM   C13F13135   2.785   4.276   7.176  0.4315 -0.3957 -0.1958
  123OSM   H13F13136   2.868   4.231   7.235  0.1505 -0.8531 -0.1464
  123OSM   H13G13137   2.712   4.203   7.136 -1.7949  3.4053 -3.8096
  123OSM   C14F13138   2.719   4.391   7.259 -0.0324  0.5221  0.1277
  123OSM   H14F13139   2.633   4.439   7.207 -1.1396 -2.7895 -1.3759
  123OSM   H14G13140   2.787   4.477   7.272  0.0946  0.3282  0.7512
  123OSM   C15F13141   2.688   4.344   7.404 -0.7694  0.3851  0.0339
  123OSM   H15F13142   2.763   4.269   7.440 -1.9405  0.2210  2.3082
  123OSM   H15G13143   2.601   4.275   7.403  0.4592 -1.3374  2.0471
  123OSM   C16F13144   2.678   4.449   7.511  0.2980 -0.1051 -0.2477
  123OSM   H16F13145   2.600   4.524   7.485  1.1502  0.8038 -0.2459
  123OSM   H16G13146   2.773   4.507   7.514  1.5172 -2.0070 -0.4030
  123OSM   C17F13147   2.644   4.407   7.654  0.5929 -0.0684  0.4573
  123OSM   H17F13148   2.729   4.339   7.674  1.5916  1.4149  1.5189
  123OSM   H17G13149   2.554   4.343   7.662  1.8019 -1.9848 -0.4297
  123OSM   C18F13150   2.646   4.519   7.747  0.0655 -0.5365 -0.0206
  123OSM   H18F13151   2.736   4.584   7.749 -0.0540 -0.3640 -0.2799
  123OSM   H18G13152   2.622   4.489   7.852  0.2042  0.3310  0.2628
  123OSM   H18H13153   2.571   4.596   7.721  1.8199  1.1619 -0.2212
  124OSM      N13154   5.216   2.882   4.948 -0.5846  0.3424 -0.6426
  124OSM    C1513155   5.118   2.931   4.855 -0.1607  0.6702  0.2870
  124OSM   H15A13156   5.148   3.007   4.784 -2.1456  1.2363 -0.0174
  124OSM   H15B13157   5.030   2.970   4.906 -0.7758  0.4405 -0.5714
  124OSM   H15C13158   5.093   2.845   4.795  2.0885  0.0751  0.1138
  124OSM    C1413159   5.277   3.000   5.016 -0.6296 -0.4609  0.4365
  124OSM   H14A13160   5.346   3.058   4.955 -1.4135  0.3944  0.3444
  124OSM   H14B13161   5.344   2.957   5.089  2.1000  1.3525 -0.8329
  124OSM   H14C13162   5.206   3.070   5.056  1.1412  0.8544  1.4543
  124OSM    C1313163   5.157   2.797   5.057  0.5269 -0.3251  0.5484
  124OSM   H13A13164   5.240   2.764   5.116 -0.0305  1.0068  2.1613
  124OSM   H13B13165   5.110   2.717   5.002 -0.6024  0.8498 -0.2699
  124OSM   H13C13166   5.088   2.844   5.125  2.0830 -0.5662  2.3554
  124OSM    C1213167   5.320   2.802   4.871  0.2298 -0.4626  0.2495
  124OSM   H12A13168   5.364   2.868   4.797  1.4932  0.1612  1.5229
  124OSM   H12B13169   5.272   2.720   4.819 -2.6596 -0.7601  3.0830
  124OSM    C1113170   5.442   2.732   4.943 -0.8122 -0.5159 -0.0343
  124OSM   H11A13171   5.498   2.800   5.010 -0.3279 -4.1666  3.6434
  124OSM   H11B13172   5.507   2.696   4.861 -1.3988  0.0333 -0.7531
  124OSM      P13173   5.460   2.547   5.137  0.3475 -0.0889 -0.0069
  124OSM    O1313174   5.355   2.530   5.246 -0.9570 -0.7440  0.5162
  124OSM    O1413175   5.522   2.422   5.089  0.1097  0.3743  0.7200
  124OSM    O1113176   5.578   2.651   5.174  0.3486  0.1396  0.5130
  124OSM    O1213177   5.385   2.620   5.012 -0.0092 -0.0790 -0.4830
  124OSM    C1S13178   5.577   2.768   5.255  0.8462  0.5776  1.0130
  124OSM    H1S13179   5.500   2.837   5.215 -0.6245 -1.1535  0.7003
  124OSM    H1T13180   5.677   2.816   5.250  1.7102 -1.1145  1.3125
  124OSM     NF13181   5.546   2.869   5.467 -0.3864 -0.4959  0.2305
  124OSM    HNF13182   5.633   2.912   5.488  0.5802 -0.8014 -2.6808
  124OSM    C2S13183   5.554   2.740   5.405 -0.1265 -0.0371  0.1775
  124OSM    H2S13184   5.459   2.684   5.419  0.3865 -0.7787  0.7541
  124OSM    C3S13185   5.671   2.652   5.456 -0.0534  0.1771  0.0152
  124OSM    H3S13186   5.767   2.707   5.445  0.5238 -0.7334  0.3516
  124OSM     O313187   5.693   2.523   5.395 -0.4702  0.1466  0.2518
  124OSM    HO313188   5.631   2.514   5.323  2.5001 -2.3894 -2.2629
  124OSM    C4S13189   5.653   2.640   5.601 -0.8394 -0.0632  0.4645
  124OSM    H4S13190   5.582   2.564   5.637 -1.8559  1.0349  0.8411
  124OSM    C5S13191   5.734   2.698   5.692  0.0287  0.1733 -0.1277
  124OSM    H5S13192   5.809   2.771   5.657  0.2851  0.3576  0.7745
  124OSM    C6S13193   5.727   2.692   5.847  0.0518 -0.6633  0.1657
  124OSM    H6S13194   5.823   2.698   5.902 -1.0332  1.4221  2.0336
  124OSM    H6T13195   5.684   2.597   5.885 -1.0435  0.0745  0.8473
  124OSM    C7S13196   5.643   2.810   5.911  0.4640  0.8397  0.0053
  124OSM    H7S13197   5.537   2.795   5.879  0.9284 -1.6234 -0.5585
  124OSM    H7T13198   5.675   2.912   5.882  1.2800  1.2101  2.0339
  124OSM    C8S13199   5.668   2.813   6.065 -0.3930  0.6818  0.2782
  124OSM    H8S13200   5.763   2.869   6.076 -1.2906  2.4131 -0.3693
  124OSM    H8T13201   5.683   2.707   6.094 -3.0555  0.2072  0.1677
  124OSM    C9S13202   5.562   2.889   6.145  0.3720  0.3887  0.2420
  124OSM    H9S13203   5.545   2.985   6.090  0.8755  0.3198 -0.0379
  124OSM    H9T13204   5.605   2.916   6.243 -0.4900  0.6695  0.5533
  124OSM   C10S13205   5.427   2.828   6.148 -0.7815 -0.6341 -0.0024
  124OSM   H10S13206   5.387   2.811   6.046  1.4982  0.3495 -1.1575
  124OSM   H10T13207   5.346   2.888   6.194 -1.4053 -1.9168  0.6252
  124OSM   C11S13208   5.428   2.690   6.224  0.3011  0.3295  0.8214
  124OSM   H11S13209   5.512   2.631   6.181  0.0463  1.3848 -1.2426
  124OSM   H11T13210   5.335   2.639   6.189  0.8572 -0.3199  0.2317
  124OSM   C12S13211   5.439   2.701   6.376  0.0687  0.1574  0.3231
  124OSM   H12S13212   5.360   2.770   6.413  0.9372  1.4642 -0.1934
  124OSM   H12T13213   5.536   2.738   6.415  0.0969  1.1167 -0.6037
  124OSM   C13S13214   5.415   2.563   6.438  0.1442  0.1299  0.6008
  124OSM   H13S13215   5.492   2.488   6.410 -3.1863 -2.9931 -0.9399
  124OSM   H13T13216   5.320   2.527   6.392  1.7606 -2.1526 -1.2148
  124OSM   C14S13217   5.401   2.573   6.591 -0.4221 -0.0843  0.4343
  124OSM   H14S13218   5.366   2.477   6.635  0.6897 -0.9474 -0.4963
  124OSM   H14T13219   5.322   2.646   6.619 -0.5396  0.4237 -1.1295
  124OSM   C15S13220   5.541   2.585   6.656  0.4056 -0.9357 -0.1853
  124OSM   H15S13221   5.589   2.680   6.624  1.1463 -1.2614 -0.0700
  124OSM   H15T13222   5.612   2.501   6.637  1.1205 -0.7804  1.5789
  124OSM   C16S13223   5.533   2.589   6.812 -0.1452 -0.3551  0.1520
  124OSM   H16S13224   5.633   2.616   6.852  0.4419 -2.6100  0.3155
  124OSM   H16T13225   5.524   2.482   6.840 -0.0006 -1.2329 -2.8248
  124OSM   C17S13226   5.439   2.689   6.875  0.0241 -0.5911 -0.4980
  124OSM   H17S13227   5.365   2.731   6.804 -1.6914 -0.4100  1.3181
  124OSM   H17T13228   5.506   2.767   6.916  1.6772 -2.3687  0.3847
  124OSM   C18S13229   5.368   2.636   6.999 -0.1687  0.1741 -0.7737
  124OSM   H18S13230   5.301   2.717   7.035 -0.8054  0.1218 -1.8133
  124OSM   H18T13231   5.443   2.602   7.073 -0.1635  0.2953 -0.7236
  124OSM   H18U13232   5.314   2.543   6.970  1.6646 -1.1294 -0.1912
  124OSM    C1F13233   5.436   2.944   5.444  0.4411  0.6723 -0.1921
  124OSM     OF13234   5.338   2.894   5.388 -0.1741  0.7751 -0.5886
  124OSM    C2F13235   5.440   3.080   5.507  0.0831 -0.4267  0.4139
  124OSM    H2F13236   5.438   3.166   5.437  1.6414 -0.5569  0.1857
  124OSM    H2G13237   5.530   3.098   5.569  1.9482  1.0610 -2.4648
  124OSM    C3F13238   5.326   3.096   5.611 -0.2684 -0.6264  0.0898
  124OSM    H3F13239   5.224   3.105   5.568 -1.4642 -2.6255  2.2858
  124OSM    H3G13240   5.332   3.201   5.648  0.2333 -0.3954 -0.6352
  124OSM    C4F13241   5.329   2.997   5.721 -0.7739  0.0909  0.5086
  124OSM    H4F13242   5.436   2.989   5.749  0.4437  1.1862 -3.2270
  124OSM    H4G13243   5.300   2.900   5.673  1.8987 -1.0071  0.9308
  124OSM    C5F13244   5.239   3.017   5.841 -0.3768  0.8927  0.1885
  124OSM    H5F13245   5.263   3.120   5.875  2.2838  0.6834 -0.8279
  124OSM    H5G13246   5.271   2.942   5.916  1.4596  2.0629  0.6494
  124OSM    C6F13247   5.086   2.998   5.818 -1.2826 -0.1869  0.0602
  124OSM    H6F13248   5.063   2.901   5.770  3.2668 -0.4162 -2.1377
  124OSM    H6G13249   5.059   3.073   5.740  0.1091  0.0282 -0.2416
  124OSM    C7F13250   4.998   3.014   5.945  0.2894 -0.0596  0.2938
  124OSM    H7F13251   5.012   3.117   5.984  2.2606 -0.4678  0.7839
  124OSM    H7G13252   5.036   2.939   6.017  0.7370  0.2589  0.4022
  124OSM    C8F13253   4.845   3.002   5.922  0.8949  1.1981  0.6250
  124OSM    H8F13254   4.795   3.068   5.849 -1.0178 -0.6529  0.1812
  124OSM    H8G13255   4.803   3.032   6.020  1.6411 -0.8152  1.6277
  124OSM    C9F13256   4.811   2.857   5.889 -0.3299  0.8413 -0.3365
  124OSM    H9F13257   4.807   2.817   5.787 -1.0653 -1.0251  0.3797
  124OSM   C10F13258   4.770   2.761   5.976  0.0713  0.2298 -0.4609
  124OSM   H10F13259   4.759   2.658   5.942  2.0033 -1.0074  2.2613
  124OSM   C11F13260   4.755   2.771   6.126 -0.2711  1.1078  0.3088
  124OSM   H11F13261   4.785   2.869   6.168 -0.8230  0.2243  2.9374
  124OSM   H11G13262   4.823   2.692   6.164 -2.4381 -1.0882 -0.1135
  124OSM   C12F13263   4.615   2.741   6.182  0.2934 -0.1787 -0.2704
  124OSM   H12F13264   4.569   2.654   6.129  3.3406 -1.4523 -1.0528
  124OSM   H12G13265   4.549   2.826   6.156  1.2401  0.7752  0.3879
  124OSM   C13F13266   4.609   2.720   6.330  0.2203  0.1975 -0.7194
  124OSM   H13F13267   4.670   2.794   6.386 -0.3673 -1.0315  1.6894
  124OSM   H13G13268   4.643   2.616   6.350  0.0044  0.3217  0.3884
  124OSM   C14F13269   4.463   2.742   6.385  0.5008 -0.0145 -0.4873
  124OSM   H14F13270   4.391   2.682   6.324 -0.1971 -0.3956  0.6739
  124OSM   H14G13271   4.437   2.850   6.389 -0.8523 -0.3381  0.0922
  124OSM   C15F13272   4.459   2.691   6.528 -0.7277  0.2275 -0.6448
  124OSM   H15F13273   4.457   2.580   6.525  0.4229  0.1868 -3.0015
  124OSM   H15G13274   4.358   2.716   6.567 -0.5201 -1.0252  0.7807
  124OSM   C16F13275   4.573   2.738   6.621 -0.3634  0.3260  0.6076
  124OSM   H16F13276   4.601   2.844   6.601  1.1155 -0.3464 -1.2378
  124OSM   H16G13277   4.653   2.665   6.597 -2.0627 -1.3632 -0.1639
  124OSM   C17F13278   4.541   2.728   6.764 -0.1252  0.2997  0.3229
  124OSM   H17F13279   4.540   2.621   6.797 -1.7450  0.3983  0.6855
  124OSM   H17G13280   4.444   2.778   6.781 -0.3162 -0.1140  0.4616
  124OSM   C18F13281   4.646   2.798   6.862  0.4592  0.1578  0.2760
  124OSM   H18F13282   4.612   2.784   6.967 -0.8510 -0.2805 -0.1836
  124OSM   H18G13283   4.644   2.907   6.841 -0.6622 -0.1297 -1.3623
  124OSM   H18H13284   4.752   2.766   6.853  2.1036  4.1929  2.7197
  125OSM      N13285   5.102   3.760   5.415 -0.0694  0.2628  0.6578
  125OSM    C1513286   5.038   3.631   5.384 -0.1025  0.4178  0.1803
  125OSM   H15A13287   5.044   3.587   5.285 -0.1317 -3.0615  1.5584
  125OSM   H15B13288   4.935   3.627   5.417  0.3097  1.8292  1.7412
  125OSM   H15C13289   5.088   3.552   5.440 -0.0112 -1.5620 -2.4868
  125OSM    C1413290   5.249   3.749   5.379 -0.8003  1.1204  0.0766
  125OSM   H14A13291   5.258   3.698   5.285 -2.3450 -0.8978  0.9312
  125OSM   H14B13292   5.296   3.676   5.444 -1.5200  1.6568  1.2240
  125OSM   H14C13293   5.304   3.842   5.384 -2.4478  2.0630  1.8941
  125OSM    C1313294   5.040   3.869   5.328 -0.5442  0.3393  0.4768
  125OSM   H13A13295   5.103   3.956   5.315 -0.6728  0.1022 -2.2570
  125OSM   H13B13296   4.953   3.921   5.366  0.0511  2.3700 -0.7436
  125OSM   H13C13297   5.026   3.843   5.224  0.2751  0.9595  0.1975
  125OSM    C1213298   5.087   3.800   5.556 -0.5019 -0.2178  0.6807
  125OSM   H12A13299   5.152   3.743   5.619 -1.1965 -0.5492  1.1083
  125OSM   H12B13300   4.986   3.790   5.594 -0.8883  2.3893  0.5835
  125OSM    C1113301   5.131   3.955   5.594  0.1884 -0.2217 -0.3943
  125OSM   H11A13302   5.097   3.981   5.697  1.0330 -0.0637 -0.1436
  125OSM   H11B13303   5.079   4.024   5.524  0.4823 -0.6265 -1.0124
  125OSM      P13304   5.360   3.910   5.710  0.1555 -0.0358  0.8381
  125OSM    O1313305   5.331   3.771   5.741 -0.6843  0.5491  0.6905
  125OSM    O1413306   5.495   3.952   5.683 -0.7481 -0.4593  0.6015
  125OSM    O1113307   5.306   3.991   5.837 -0.1721  0.2269  0.4640
  125OSM    O1213308   5.271   3.966   5.590 -0.2929  0.4753 -0.1250
  125OSM    C1S13309   5.337   4.131   5.854 -1.1099  0.4493  0.2399
  125OSM    H1S13310   5.394   4.176   5.771  1.6484 -0.1036  1.7302
  125OSM    H1T13311   5.403   4.138   5.942  0.5014  0.8366 -0.9625
  125OSM     NF13312   5.240   4.356   5.893  0.2251 -0.2711 -0.6743
  125OSM    HNF13313   5.208   4.407   5.972  1.0937 -1.1675  0.2835
  125OSM    C2S13314   5.203   4.216   5.881 -0.3442 -0.0703  0.2900
  125OSM    H2S13315   5.142   4.208   5.788 -0.9581  2.0057  0.4491
  125OSM    C3S13316   5.127   4.160   6.002 -0.3008 -0.0601 -0.7739
  125OSM    H3S13317   5.065   4.068   5.991 -1.8474  0.9185 -0.6749
  125OSM     O313318   5.017   4.239   6.035 -0.2023  0.2393 -0.3194
  125OSM    HO313319   5.012   4.317   5.980 -1.8193  0.8769  0.6626
  125OSM    C4S13320   5.214   4.146   6.123 -0.3568  0.2282 -0.4548
  125OSM    H4S13321   5.244   4.244   6.162  2.3558  0.5524 -3.0108
  125OSM    C5S13322   5.256   4.021   6.171 -1.0555 -0.2541  0.4772
  125OSM    H5S13323   5.219   3.928   6.126 -1.1602 -0.0358  0.1048
  125OSM    C6S13324   5.344   3.993   6.287  0.3199 -0.0618 -0.6446
  125OSM    H6S13325   5.447   3.959   6.261  0.5451 -1.2541  1.5967
  125OSM    H6T13326   5.310   3.904   6.345 -1.2059  0.6919 -0.3382
  125OSM    C7S13327   5.346   4.103   6.394 -0.2299  0.8926 -0.1405
  125OSM    H7S13328   5.240   4.124   6.418 -0.8889  1.2074 -2.9648
  125OSM    H7T13329   5.387   4.193   6.344 -2.0865  1.2249 -1.1552
  125OSM    C8S13330   5.422   4.072   6.526  0.5672 -0.4782 -0.5075
  125OSM    H8S13331   5.386   4.143   6.603  1.7312 -0.0075 -0.3827
  125OSM    H8T13332   5.529   4.097   6.507  0.5096 -0.9326 -1.4912
  125OSM    C9S13333   5.407   3.938   6.585  0.1264 -0.0070 -0.3333
  125OSM    H9S13334   5.452   3.868   6.510  0.0053  1.5834 -1.9516
  125OSM    H9T13335   5.299   3.914   6.591 -0.0261  0.9620  1.0910
  125OSM   C10S13336   5.473   3.922   6.722  1.0599  0.4451  0.4184
  125OSM   H10S13337   5.412   3.982   6.793 -1.6789 -0.1189 -1.2651
  125OSM   H10T13338   5.581   3.948   6.731  1.0571  0.2249  1.1284
  125OSM   C11S13339   5.449   3.787   6.774 -0.3387 -0.3689 -0.8001
  125OSM   H11S13340   5.499   3.713   6.709 -2.7571 -2.4283 -0.4514
  125OSM   H11T13341   5.340   3.764   6.777 -0.5397  0.4403  2.1909
  125OSM   C12S13342   5.485   3.774   6.926 -0.2851 -0.2690  0.5136
  125OSM   H12S13343   5.418   3.835   6.991 -0.8833  0.8499 -1.0924
  125OSM   H12T13344   5.589   3.813   6.932  0.0655 -0.5655 -2.3164
  125OSM   C13S13345   5.500   3.625   6.972  0.0336  0.2375 -0.2883
  125OSM   H13S13346   5.583   3.569   6.923  0.5666  1.6979 -1.1026
  125OSM   H13T13347   5.406   3.577   6.938  0.7528 -0.5268 -1.2675
  125OSM   C14S13348   5.505   3.591   7.123 -0.3290  0.4613 -0.0985
  125OSM   H14S13349   5.599   3.628   7.170 -1.2076  1.6677  0.7707
  125OSM   H14T13350   5.506   3.482   7.143 -0.2302  0.3847 -0.5086
  125OSM   C15S13351   5.392   3.658   7.196  0.3737  0.3282  0.2085
  125OSM   H15S13352   5.292   3.625   7.160  1.6077 -1.4579 -1.8032
  125OSM   H15T13353   5.398   3.768   7.184 -1.2839  0.3137 -1.1493
  125OSM   C16S13354   5.401   3.630   7.351  0.6505  0.1997  0.3906
  125OSM   H16S13355   5.506   3.616   7.381  0.8199  2.2115  0.9143
  125OSM   H16T13356   5.341   3.541   7.377  2.4220 -0.3035  3.0274
  125OSM   C17S13357   5.358   3.752   7.434 -0.4033  0.0924 -0.1750
  125OSM   H17S13358   5.420   3.842   7.413  1.2532 -0.5803  1.5307
  125OSM   H17T13359   5.383   3.722   7.538  1.5794  0.4089 -0.5055
  125OSM   C18S13360   5.205   3.781   7.432  0.4626  0.1480 -0.5180
  125OSM   H18S13361   5.176   3.832   7.338 -0.4664 -0.1485 -0.3943
  125OSM   H18T13362   5.174   3.850   7.513  0.2281  0.9518 -1.2774
  125OSM   H18U13363   5.144   3.689   7.433 -0.2454  0.5962 -1.5214
  125OSM    C1F13364   5.294   4.424   5.796 -0.1777  0.4957 -0.0330
  125OSM     OF13365   5.280   4.400   5.675 -0.2443  0.4846 -0.6721
  125OSM    C2F13366   5.381   4.532   5.843 -0.2403 -0.0036  0.4935
  125OSM    H2F13367   5.326   4.580   5.927 -2.3622 -1.1660 -0.1631
  125OSM    H2G13368   5.409   4.609   5.768  0.9462 -1.0340 -0.1692
  125OSM    C3F13369   5.514   4.473   5.898  0.0723  0.7559  0.4573
  125OSM    H3F13370   5.574   4.428   5.816 -1.1730 -0.1286 -0.0117
  125OSM    H3G13371   5.482   4.400   5.975 -0.8552 -1.8184 -2.2118
  125OSM    C4F13372   5.610   4.580   5.961  0.1981  0.0173 -0.5931
  125OSM    H4F13373   5.629   4.648   5.875  0.8058 -1.8739 -2.0263
  125OSM    H4G13374   5.700   4.521   5.984  0.3193  0.2422 -0.4871
  125OSM    C5F13375   5.547   4.673   6.078 -0.0745  0.3441 -0.1267
  125OSM    H5F13376   5.470   4.738   6.032  0.4746  0.2530 -1.2148
  125OSM    H5G13377   5.618   4.751   6.114  0.2509 -0.2047  0.4402
  125OSM    C6F13378   5.477   4.585   6.192 -0.3187 -0.1672  0.0761
  125OSM    H6F13379   5.530   4.490   6.215 -0.9694 -1.5097 -3.2503
  125OSM    H6G13380   5.379   4.545   6.157 -0.6268 -1.2619  2.0550
  125OSM    C7F13381   5.439   4.671   6.317 -0.1716  0.1778  0.0447
  125OSM    H7F13382   5.369   4.752   6.287  0.5638  1.2333  1.0764
  125OSM    H7G13383   5.532   4.727   6.341  0.7167 -0.6070 -1.4468
  125OSM    C8F13384   5.376   4.591   6.430 -0.0643  0.5856 -0.4180
  125OSM    H8F13385   5.270   4.566   6.407 -0.5537  2.0738  0.1403
  125OSM    H8G13386   5.370   4.649   6.524  2.1394 -0.6911  0.5813
  125OSM    C9F13387   5.446   4.458   6.459 -0.0107  0.3843 -0.3987
  125OSM    H9F13388   5.429   4.374   6.390 -2.0610 -0.4895  1.0486
  125OSM   C10F13389   5.540   4.433   6.550 -0.1079  0.1848  0.3657
  125OSM   H10F13390   5.571   4.327   6.548 -1.7957 -0.4157  2.0210
  125OSM   C11F13391   5.590   4.523   6.657 -0.0735 -0.1910  0.1257
  125OSM   H11F13392   5.522   4.608   6.674  1.0105  1.3048 -2.3836
  125OSM   H11G13393   5.679   4.578   6.620 -0.1740  0.6863  1.1358
  125OSM   C12F13394   5.609   4.444   6.786  0.0198 -0.8995 -0.0223
  125OSM   H12F13395   5.627   4.525   6.860  0.1484 -0.8957 -0.0572
  125OSM   H12G13396   5.694   4.373   6.777  0.3737 -0.4067 -0.6489
  125OSM   C13F13397   5.476   4.372   6.825  0.4512 -0.1105 -0.3392
  125OSM   H13F13398   5.459   4.278   6.769 -0.5528 -0.6937  0.8994
  125OSM   H13G13399   5.391   4.440   6.803  1.5709  1.2237 -0.7498
  125OSM   C14F13400   5.470   4.337   6.974 -0.3747  0.3110 -0.0652
  125OSM   H14F13401   5.369   4.347   7.021 -1.0469 -1.5978 -0.9991
  125OSM   H14G13402   5.534   4.408   7.031  0.7251 -0.2198 -0.6113
  125OSM   C15F13403   5.538   4.201   7.010  0.0475 -0.4202 -0.1051
  125OSM   H15F13404   5.634   4.197   6.955  0.9646  0.1174  1.3901
  125OSM   H15G13405   5.472   4.121   6.969  0.5611 -0.7432 -0.3061
  125OSM   C16F13406   5.560   4.193   7.157 -0.5781 -0.1902 -0.6520
  125OSM   H16F13407   5.478   4.233   7.220  0.3751  0.9986 -0.1334
  125OSM   H16G13408   5.643   4.257   7.194 -2.2968  0.8181  1.7702
  125OSM   C17F13409   5.594   4.047   7.208  0.2713 -0.1327  0.3377
  125OSM   H17F13410   5.512   3.977   7.180 -1.3016  1.5547  0.5036
  125OSM   H17G13411   5.609   4.058   7.317  2.4259  1.7353 -0.0781
  125OSM   C18F13412   5.726   4.002   7.151 -0.1169 -0.4426 -0.1132
  125OSM   H18F13413   5.802   4.082   7.155  0.7994 -1.1526 -1.9763
  125OSM   H18G13414   5.710   3.976   7.044 -1.4358 -0.2497  0.0123
  125OSM   H18H13415   5.753   3.907   7.202  0.8736 -0.2603 -0.2789
  126OSM      N13416   2.096   3.069   5.407  0.2701  0.2234  0.3962
  126OSM    C1513417   2.002   2.962   5.449  0.2807  1.2791  0.2408
  126OSM   H15A13418   2.047   2.865   5.433 -1.9348  0.4714 -1.6397
  126OSM   H15B13419   1.899   2.973   5.418 -0.7658  1.2790  3.3506
  126OSM   H15C13420   1.997   2.957   5.557  2.8299  0.7861  0.3996
  126OSM    C1413421   2.096   3.066   5.256  0.1809  0.0786 -0.1516
  126OSM   H14A13422   2.109   2.967   5.215  0.3904  0.3103 -0.6578
  126OSM   H14B13423   2.172   3.131   5.215 -1.2127  0.8319 -1.6759
  126OSM   H14C13424   2.006   3.107   5.211  0.0571  1.6536  1.4203
  126OSM    C1313425   2.049   3.199   5.438  0.4506  0.2266  0.1241
  126OSM   H13A13426   2.063   3.212   5.544 -1.1406 -0.7586  0.5047
  126OSM   H13B13427   1.947   3.213   5.404  0.8421  0.4602 -0.9735
  126OSM   H13C13428   2.097   3.283   5.391  0.2095  0.0891 -0.3774
  126OSM    C1213429   2.237   3.053   5.457 -0.9177 -0.6796  0.4722
  126OSM   H12A13430   2.240   3.042   5.564 -0.3694 -0.5423  0.4746
  126OSM   H12B13431   2.296   3.142   5.437 -0.2669 -1.1545  0.2421
  126OSM    C1113432   2.331   2.935   5.394 -0.4528 -0.8555 -0.3900
  126OSM   H11A13433   2.427   2.949   5.448 -1.4649  1.8237  0.8869
  126OSM   H11B13434   2.360   2.958   5.289  0.8139 -0.9468 -0.0734
  126OSM      P13435   2.325   2.704   5.532  0.1073 -0.4739  0.0540
  126OSM    O1313436   2.229   2.595   5.546 -0.4780  0.3826  1.4644
  126OSM    O1413437   2.470   2.670   5.520  0.1013 -0.7237  0.3065
  126OSM    O1113438   2.301   2.795   5.654 -0.2540 -0.3045 -0.1906
  126OSM    O1213439   2.279   2.804   5.414  0.0379  0.7235  0.1599
  126OSM    C1S13440   2.334   2.734   5.783 -0.2984 -0.0845 -0.1327
  126OSM    H1S13441   2.443   2.737   5.804 -0.8980  1.5209  3.4757
  126OSM    H1T13442   2.293   2.634   5.809 -0.7066  0.2376  0.4897
  126OSM     NF13443   2.301   2.790   6.028  0.5717  0.2831 -0.6650
  126OSM    HNF13444   2.221   2.800   6.087  0.6724  1.1530 -0.6533
  126OSM    C2S13445   2.278   2.833   5.890  0.1587 -0.2922 -0.1034
  126OSM    H2S13446   2.339   2.926   5.885 -0.5747  0.2695  0.9830
  126OSM    C3S13447   2.127   2.868   5.854 -0.0107  0.0308 -0.1367
  126OSM    H3S13448   2.079   2.771   5.830 -0.5596 -0.0972  1.3630
  126OSM     O313449   2.107   2.956   5.745 -0.0447  0.0433 -0.1942
  126OSM    HO313450   2.188   2.924   5.705 -0.2920 -1.7224  0.6223
  126OSM    C4S13451   2.061   2.937   5.977 -0.1524 -0.2694  0.5824
  126OSM    H4S13452   2.081   3.046   5.978  0.8948 -0.4450  1.4549
  126OSM    C5S13453   1.988   2.878   6.074  0.3433 -0.3131 -0.5216
  126OSM    H5S13454   1.970   2.770   6.063 -0.6416 -0.0822 -1.3359
  126OSM    C6S13455   1.921   2.944   6.196 -0.3856  0.4629 -0.5944
  126OSM    H6S13456   1.811   2.953   6.199 -0.4042  0.2785  1.7618
  126OSM    H6T13457   1.946   3.050   6.217 -2.2895  1.3219 -2.3247
  126OSM    C7S13458   1.958   2.862   6.325 -1.1050  0.8451  0.2021
  126OSM    H7S13459   2.067   2.872   6.341 -0.7428 -0.9959 -0.7993
  126OSM    H7T13460   1.935   2.755   6.306  2.3995  0.0714 -0.3207
  126OSM    C8S13461   1.879   2.905   6.445  0.5759 -0.2364 -0.6745
  126OSM    H8S13462   1.772   2.881   6.429  0.0646 -0.4687  2.4272
  126OSM    H8T13463   1.881   3.015   6.461  3.5440 -0.5074  1.8937
  126OSM    C9S13464   1.921   2.850   6.582 -0.1513 -0.1893 -0.2279
  126OSM    H9S13465   2.031   2.862   6.592  0.0639  1.1839 -3.2673
  126OSM    H9T13466   1.899   2.741   6.586  2.6598 -0.7899  2.6526
  126OSM   C10S13467   1.849   2.900   6.700  0.0917 -0.1760  0.0771
  126OSM   H10S13468   1.739   2.891   6.681 -0.1222 -2.0169  1.8369
  126OSM   H10T13469   1.868   3.009   6.711 -0.3131 -0.1211  0.2500
  126OSM   C11S13470   1.893   2.843   6.837  0.0947 -0.7027  0.1913
  126OSM   H11S13471   2.004   2.841   6.850  0.2367  1.0950 -0.4363
  126OSM   H11T13472   1.851   2.741   6.839 -0.0146 -0.7241 -1.6370
  126OSM   C12S13473   1.826   2.920   6.956  0.2291 -0.0253  0.1956
  126OSM   H12S13474   1.717   2.895   6.957 -0.1835  1.5631 -1.4759
  126OSM   H12T13475   1.825   3.029   6.937 -3.5964  0.2486  1.1073
  126OSM   C13S13476   1.882   2.879   7.093  0.1416  0.1290  0.8710
  126OSM   H13S13477   1.989   2.910   7.100  0.2773 -0.1892  0.2279
  126OSM   H13T13478   1.894   2.769   7.098 -1.3446 -0.1441 -0.8431
  126OSM   C14S13479   1.793   2.922   7.210  0.1249 -0.5737 -0.1575
  126OSM   H14S13480   1.848   2.885   7.299 -0.4170  1.1064  0.9243
  126OSM   H14T13481   1.693   2.875   7.207 -0.1965 -0.0209  1.2398
  126OSM   C15S13482   1.772   3.074   7.227  0.2898  0.1272  0.1099
  126OSM   H15S13483   1.703   3.106   7.146 -0.1205 -1.2087 -0.0858
  126OSM   H15T13484   1.868   3.129   7.214 -0.9372  2.3092 -0.2400
  126OSM   C16S13485   1.717   3.096   7.368  0.9050 -0.5457  0.2508
  126OSM   H16S13486   1.803   3.076   7.436  2.5052  0.1018 -1.4988
  126OSM   H16T13487   1.629   3.034   7.393 -1.3007  1.8590 -1.0334
  126OSM   C17S13488   1.681   3.250   7.393  0.9829  0.2096 -0.0826
  126OSM   H17S13489   1.610   3.284   7.315 -1.5569 -1.0855  1.4912
  126OSM   H17T13490   1.769   3.315   7.374 -0.6781  2.1688 -1.4455
  126OSM   C18S13491   1.640   3.290   7.535 -0.0571  0.4714 -1.3743
  126OSM   H18S13492   1.714   3.253   7.609 -1.5339  1.5616  0.7657
  126OSM   H18T13493   1.538   3.260   7.569  0.4604  0.7736  0.5728
  126OSM   H18U13494   1.636   3.401   7.538  2.8750  0.6288 -0.7222
  126OSM    C1F13495   2.423   2.793   6.082 -0.4169 -0.2615 -0.0389
  126OSM     OF13496   2.526   2.821   6.017  0.2072 -0.6752 -0.2031
  126OSM    C2F13497   2.426   2.788   6.235  0.0470 -0.7408  0.2096
  126OSM    H2F13498   2.364   2.700   6.259 -1.5052  0.4626  0.8298
  126OSM    H2G13499   2.369   2.876   6.273 -1.6490 -1.6899 -0.0698
  126OSM    C3F13500   2.568   2.783   6.307 -0.3838  0.6812  0.7686
  126OSM    H3F13501   2.600   2.888   6.323  0.4511  0.3020  1.6522
  126OSM    H3G13502   2.648   2.726   6.256 -0.4262  1.2379  0.0562
  126OSM    C4F13503   2.553   2.721   6.450 -1.2231  0.3985 -0.6665
  126OSM    H4F13504   2.644   2.734   6.512 -1.8072 -0.9372  0.5500
  126OSM    H4G13505   2.526   2.614   6.436  1.0170 -0.1213 -1.3223
  126OSM    C5F13506   2.450   2.791   6.543  0.0333 -0.0211  0.1145
  126OSM    H5F13507   2.349   2.757   6.512  0.5711 -1.5361 -0.0167
  126OSM    H5G13508   2.458   2.901   6.526 -2.1452 -0.0477 -1.4935
  126OSM    C6F13509   2.464   2.739   6.691  0.1519 -0.4430 -0.3760
  126OSM    H6F13510   2.499   2.634   6.687 -0.8305 -0.8054  0.1308
  126OSM    H6G13511   2.365   2.747   6.740  1.6616  1.6656  2.6556
  126OSM    C7F13512   2.557   2.830   6.761 -0.4064  0.3358 -0.2843
  126OSM    H7F13513   2.519   2.934   6.762  1.1622  1.0024 -2.4601
  126OSM    H7G13514   2.649   2.837   6.699 -0.2932 -0.2281 -0.1880
  126OSM    C8F13515   2.586   2.788   6.909 -0.1601  0.5096  0.1419
  126OSM    H8F13516   2.487   2.773   6.956 -0.1350 -1.0875 -0.2541
  126OSM    H8G13517   2.635   2.874   6.959 -0.9192  0.7331  0.5215
  126OSM    C9F13518   2.674   2.663   6.906  0.3605 -0.7117 -0.2206
  126OSM    H9F13519   2.673   2.612   6.808 -1.6105 -0.3334 -0.4327
  126OSM   C10F13520   2.750   2.627   7.008  0.3964  0.1875 -0.4845
  126OSM   H10F13521   2.836   2.559   6.999 -1.7399 -2.7552 -0.0775
  126OSM   C11F13522   2.752   2.694   7.144 -0.1079 -0.0264 -0.4651
  126OSM   H11F13523   2.757   2.620   7.226  0.9917 -0.4891 -0.9202
  126OSM   H11G13524   2.657   2.746   7.167 -0.4626 -0.7972 -0.1631
  126OSM   C12F13525   2.866   2.804   7.142  0.3625  0.8167 -0.0260
  126OSM   H12F13526   2.871   2.847   7.040  0.2471  0.8672 -0.0102
  126OSM   H12G13527   2.961   2.749   7.165 -0.4949 -0.9231 -0.4590
  126OSM   C13F13528   2.845   2.907   7.256 -0.2755 -0.2125  0.1110
  126OSM   H13F13529   2.823   2.862   7.356  2.0900 -0.2530  0.6645
  126OSM   H13G13530   2.749   2.952   7.224  1.8382  4.7631 -0.0583
  126OSM   C14F13531   2.960   3.007   7.263  0.3826  0.0296  0.1551
  126OSM   H14F13532   2.980   3.038   7.158 -2.3067  1.9512  0.0935
  126OSM   H14G13533   3.054   2.957   7.295  0.3659  0.2472  0.5496
  126OSM   C15F13534   2.923   3.122   7.352  0.1198 -0.3423 -0.1907
  126OSM   H15F13535   2.916   3.093   7.459 -0.5389 -1.6104 -0.5615
  126OSM   H15G13536   2.830   3.168   7.313 -0.1841 -0.2325  0.6578
  126OSM   C16F13537   3.027   3.238   7.326  1.0552 -0.3751 -0.1823
  126OSM   H16F13538   3.029   3.276   7.222  1.1877 -0.7542 -0.3212
  126OSM   H16G13539   3.130   3.207   7.355  0.4771 -1.0507  1.2642
  126OSM   C17F13540   3.005   3.359   7.422 -0.1676  0.3015 -0.5832
  126OSM   H17F13541   3.018   3.319   7.525 -1.8071  3.9368  1.2021
  126OSM   H17G13542   2.902   3.398   7.420 -0.4730 -0.3692 -3.4267
  126OSM   C18F13543   3.096   3.479   7.396  0.4598 -0.1744 -0.3514
  126OSM   H18F13544   3.087   3.552   7.480  1.9866  1.5226 -1.5860
  126OSM   H18G13545   3.067   3.526   7.300 -1.7976 -0.3647  0.1755
  126OSM   H18H13546   3.200   3.442   7.400 -0.2621 -2.2098  1.8698
  127OSM      N13547   4.374   1.590   5.448 -0.1382 -0.4442 -0.1420
  127OSM    C1513548   4.374   1.445   5.443 -0.7325  0.1089  0.2668
  127OSM   H15A13549   4.343   1.408   5.346 -2.5644 -1.0008  1.2180
  127OSM   H15B13550   4.302   1.409   5.514 -0.0312 -1.1500  0.3688
  127OSM   H15C13551   4.463   1.388   5.467 -0.5758 -0.3998 -1.4093
  127OSM    C1413552   4.451   1.641   5.331 -0.3319  0.6909 -0.0189
  127OSM   H14A13553   4.441   1.748   5.322 -2.6015  0.4008 -1.5889
  127OSM   H14B13554   4.414   1.602   5.238  1.9430 -0.6022 -0.4524
  127OSM   H14C13555   4.556   1.615   5.332 -0.6051 -0.5547 -1.0639
  127OSM    C1313556   4.233   1.643   5.446 -0.3066 -0.0736 -0.0470
  127OSM   H13A13557   4.244   1.749   5.462  0.6359  0.2311 -2.3256
  127OSM   H13B13558   4.184   1.590   5.527  4.0470  0.0361  3.0141
  127OSM   H13C13559   4.188   1.624   5.350 -1.0235  0.9606  0.0630
  127OSM    C1213560   4.447   1.647   5.570 -0.8761  0.3966  0.0837
  127OSM   H12A13561   4.533   1.584   5.590 -1.2503  0.2967  1.4930
  127OSM   H12B13562   4.380   1.645   5.654  0.5518  0.6993  1.2855
  127OSM    C1113563   4.500   1.795   5.565 -0.0748 -0.2488 -0.4404
  127OSM   H11A13564   4.580   1.811   5.490  0.1241  0.8229 -0.0280
  127OSM   H11B13565   4.543   1.832   5.661 -1.6584  3.5449 -1.0289
  127OSM      P13566   4.310   1.953   5.639 -0.1429 -0.0058 -0.2495
  127OSM    O1313567   4.350   2.091   5.652 -0.5155  0.0452 -0.9588
  127OSM    O1413568   4.170   1.937   5.598 -0.0670  0.0670 -0.0439
  127OSM    O1113569   4.347   1.879   5.771  0.2719  0.2702  0.0732
  127OSM    O1213570   4.399   1.888   5.531  0.2436 -0.4867 -0.4383
  127OSM    C1S13571   4.261   1.875   5.885 -0.0594 -0.4358 -0.1903
  127OSM    H1S13572   4.167   1.820   5.865  0.6273 -1.7476  0.0174
  127OSM    H1T13573   4.234   1.976   5.920  1.6443  0.9623 -2.6355
  127OSM     NF13574   4.245   1.796   6.126  0.1860  0.1792 -0.0345
  127OSM    HNF13575   4.245   1.877   6.183 -0.2301  0.9625 -1.1262
  127OSM    C2S13576   4.334   1.810   6.006 -0.8774 -0.8175  0.4445
  127OSM    H2S13577   4.365   1.711   5.967  2.5432  0.9015 -1.6007
  127OSM    C3S13578   4.474   1.886   6.040 -0.3603  0.4340  0.4006
  127OSM    H3S13579   4.448   1.990   6.071  2.8254  2.3083 -2.5612
  127OSM     O313580   4.569   1.909   5.931 -0.1626 -0.0381 -0.4163
  127OSM    HO313581   4.526   1.877   5.851 -1.7160  1.8709 -0.4185
  127OSM    C4S13582   4.540   1.819   6.153  0.5375 -0.0528 -0.4585
  127OSM    H4S13583   4.545   1.709   6.145 -1.0300 -0.2371  0.6110
  127OSM    C5S13584   4.604   1.884   6.253 -0.8786  0.4181 -0.9155
  127OSM    H5S13585   4.592   1.993   6.259 -0.6810  0.4360 -0.8338
  127OSM    C6S13586   4.677   1.814   6.378  0.0011  0.4812  0.5008
  127OSM    H6S13587   4.773   1.865   6.397  0.3147  0.3072 -0.5305
  127OSM    H6T13588   4.727   1.720   6.347  2.8288  1.5676  1.4923
  127OSM    C7S13589   4.608   1.787   6.510  0.9688  0.2404 -0.4353
  127OSM    H7S13590   4.615   1.887   6.560  1.5185 -0.2383  0.4711
  127OSM    H7T13591   4.654   1.700   6.561 -0.6200 -0.5380 -0.2724
  127OSM    C8S13592   4.457   1.745   6.507  0.6297 -0.0311  0.1998
  127OSM    H8S13593   4.401   1.818   6.444  1.1285 -0.3525 -0.6239
  127OSM    H8T13594   4.404   1.740   6.605  0.8320  0.4748  0.3380
  127OSM    C9S13595   4.436   1.596   6.460  0.0138  0.3651 -0.2335
  127OSM    H9S13596   4.497   1.581   6.369 -0.3039  1.2337 -0.6086
  127OSM    H9T13597   4.326   1.589   6.442  0.0655  0.8391 -0.7602
  127OSM   C10S13598   4.486   1.493   6.570  0.2638 -0.7337 -0.3447
  127OSM   H10S13599   4.581   1.524   6.618 -0.2798  0.3868  0.0407
  127OSM   H10T13600   4.514   1.396   6.524  0.4460 -2.2938  2.7432
  127OSM   C11S13601   4.391   1.469   6.685  0.1531  0.1262  0.0737
  127OSM   H11S13602   4.306   1.410   6.643  1.7010 -1.4487 -1.0121
  127OSM   H11T13603   4.346   1.563   6.724 -1.9942  0.1771 -2.2242
  127OSM   C12S13604   4.446   1.381   6.805  0.2220 -0.0149  0.1089
  127OSM   H12S13605   4.534   1.422   6.860 -0.3178  1.9941 -0.4438
  127OSM   H12T13606   4.473   1.279   6.772  0.3066  1.4398 -5.2813
  127OSM   C13S13607   4.334   1.381   6.910 -0.2557 -0.4515  0.5385
  127OSM   H13S13608   4.246   1.345   6.854  1.4439 -1.4116 -1.6507
  127OSM   H13T13609   4.321   1.485   6.947  2.9811  0.3933 -0.3705
  127OSM   C14S13610   4.345   1.282   7.033 -0.8780 -0.2577 -0.3537
  127OSM   H14S13611   4.434   1.308   7.095 -1.1024 -0.2840 -0.0172
  127OSM   H14T13612   4.356   1.181   6.988 -0.7021  0.6244 -2.3895
  127OSM   C15S13613   4.212   1.296   7.108 -0.3551 -0.1311 -0.2842
  127OSM   H15S13614   4.200   1.216   7.185  0.7713 -1.0635 -1.0264
  127OSM   H15T13615   4.133   1.284   7.031 -1.8123 -2.5527  1.4609
  127OSM   C16S13616   4.194   1.432   7.189 -0.0075  0.3984  0.1584
  127OSM   H16S13617   4.201   1.521   7.123 -0.1103  1.6360  1.7650
  127OSM   H16T13618   4.273   1.442   7.266 -1.2043  0.1754  1.4516
  127OSM   C17S13619   4.054   1.444   7.256 -0.7487  0.0878  0.2194
  127OSM   H17S13620   4.023   1.345   7.297  0.5686 -0.8697 -0.9534
  127OSM   H17T13621   3.976   1.459   7.178 -1.0353 -2.1343  0.0047
  127OSM   C18S13622   4.045   1.564   7.355  0.3653 -0.2718 -0.5040
  127OSM   H18S13623   4.065   1.660   7.303 -0.0289 -0.0530 -0.2559
  127OSM   H18T13624   4.115   1.551   7.441 -1.5764 -2.6534  0.8178
  127OSM   H18U13625   3.944   1.563   7.402  0.6143  1.5875  0.1911
  127OSM    C1F13626   4.141   1.712   6.125 -0.2419  0.0152  0.3837
  127OSM     OF13627   4.145   1.620   6.040  0.6926 -0.3149 -0.1473
  127OSM    C2F13628   4.041   1.738   6.231  0.4362 -0.1652  0.1701
  127OSM    H2F13629   3.950   1.795   6.201  0.4983 -0.5672 -0.7969
  127OSM    H2G13630   4.080   1.812   6.304  1.9083 -2.6077  2.0165
  127OSM    C3F13631   3.990   1.608   6.302  0.3388  0.6479 -0.2047
  127OSM    H3F13632   4.084   1.566   6.344  0.6115 -0.1727 -1.5711
  127OSM    H3G13633   3.954   1.532   6.229  2.7456 -0.8682  0.0575
  127OSM    C4F13634   3.884   1.616   6.412 -0.0006 -0.4172 -0.1681
  127OSM    H4F13635   3.852   1.512   6.438 -0.7817 -0.1697 -0.0895
  127OSM    H4G13636   3.794   1.667   6.369  0.2415  0.9251  0.8470
  127OSM    C5F13637   3.936   1.700   6.532 -0.1236  0.2468  0.1707
  127OSM    H5F13638   3.849   1.715   6.600 -0.7875 -1.4665 -0.2559
  127OSM    H5G13639   3.970   1.799   6.497  3.0140 -0.4516  0.9475
  127OSM    C6F13640   4.052   1.636   6.610  0.6244 -0.3773  0.2149
  127OSM    H6F13641   4.149   1.669   6.566 -1.1612  2.8381 -1.7468
  127OSM    H6G13642   4.045   1.527   6.593 -0.2092 -0.3730  0.4912
  127OSM    C7F13643   4.035   1.658   6.759  0.2311 -0.1055  0.0188
  127OSM    H7F13644   4.109   1.588   6.804  0.5649  0.2894  0.0933
  127OSM    H7G13645   3.936   1.617   6.789 -0.3644  1.3484  0.1586
  127OSM    C8F13646   4.050   1.808   6.812 -0.3103 -0.5557  0.0306
  127OSM    H8F13647   4.012   1.805   6.916  0.0382 -2.0924  0.1370
  127OSM    H8G13648   3.987   1.877   6.752  1.1129  1.3987  0.6748
  127OSM    C9F13649   4.188   1.850   6.813  0.4279  0.2275  0.1263
  127OSM    H9F13650   4.223   1.879   6.713 -1.3868 -3.2197 -1.7038
  127OSM   C10F13651   4.264   1.874   6.920  0.4891 -0.1066 -0.1313
  127OSM   H10F13652   4.364   1.917   6.905  0.4113  0.1602  0.0928
  127OSM   C11F13653   4.217   1.874   7.066  0.6289  0.0053 -0.0808
  127OSM   H11F13654   4.255   1.785   7.121 -1.7649 -1.0952 -0.0686
  127OSM   H11G13655   4.107   1.860   7.080  0.7794 -0.7695  0.3587
  127OSM   C12F13656   4.249   2.002   7.152  0.0088  0.0333  0.6254
  127OSM   H12F13657   4.206   1.989   7.253  2.0481  1.7980  1.8115
  127OSM   H12G13658   4.193   2.082   7.098 -0.1900 -1.2002 -1.0983
  127OSM   C13F13659   4.399   2.038   7.176 -0.1857  0.5938 -0.1731
  127OSM   H13F13660   4.413   2.139   7.219  3.3676  0.1103  0.1552
  127OSM   H13G13661   4.449   2.034   7.077 -1.0602 -3.2342 -0.6331
  127OSM   C14F13662   4.471   1.938   7.271  0.0428  0.1892 -0.6256
  127OSM   H14F13663   4.463   1.831   7.244 -3.0174  0.6653 -2.0152
  127OSM   H14G13664   4.415   1.955   7.366  1.7454  0.9501  0.2921
  127OSM   C15F13665   4.616   1.972   7.275  0.2313  0.7253 -0.3136
  127OSM   H15F13666   4.627   2.073   7.320 -1.3279  0.7307  0.1155
  127OSM   H15G13667   4.649   1.965   7.169  1.8883 -1.5424  0.2657
  127OSM   C16F13668   4.717   1.883   7.351 -0.7962  0.2278 -0.6862
  127OSM   H16F13669   4.687   1.888   7.458  0.9346  0.6636 -0.1922
  127OSM   H16G13670   4.818   1.929   7.345 -0.3177 -0.2634  2.0981
  127OSM   C17F13671   4.716   1.738   7.310  0.6937  0.8423 -0.2178
  127OSM   H17F13672   4.722   1.746   7.199  2.2502  1.9031 -0.0950
  127OSM   H17G13673   4.619   1.691   7.335 -0.0268  2.9221  1.1917
  127OSM   C18F13674   4.829   1.646   7.368 -0.5728 -0.8835  0.0627
  127OSM   H18F13675   4.833   1.638   7.479  0.8312 -0.6263  0.0487
  127OSM   H18G13676   4.930   1.683   7.339 -1.0796  1.0255  0.5673
  127OSM   H18H13677   4.821   1.543   7.327 -0.1610 -0.8581 -0.0843
  128OSM      N13678   4.452   5.780   5.442 -0.2759 -0.0265 -0.1793
  128OSM    C1513679   4.380   5.741   5.573  0.2599  0.6517 -0.3135
  128OSM   H15A13680   4.370   5.826   5.639  1.6350  0.0586  0.7212
  128OSM   H15B13681   4.419   5.652   5.621 -2.0706 -0.3806 -0.1888
  128OSM   H15C13682   4.280   5.713   5.546  0.3646 -0.0137 -0.0288
  128OSM    C1413683   4.481   5.666   5.349 -0.0053  0.4659 -0.6219
  128OSM   H14A13684   4.392   5.614   5.316  0.8796 -0.3254 -1.8382
  128OSM   H14B13685   4.554   5.600   5.391 -0.8157  0.5393  0.9575
  128OSM   H14C13686   4.527   5.703   5.258  1.0570  0.0029 -0.2865
  128OSM    C1313687   4.359   5.883   5.371  0.7284  0.4306  0.1134
  128OSM   H13A13688   4.411   5.944   5.299  0.7466 -0.7520 -0.9209
  128OSM   H13B13689   4.315   5.951   5.441 -0.0756  0.5261 -0.4737
  128OSM   H13C13690   4.285   5.829   5.314 -0.1613  0.3280  1.3492
  128OSM    C1213691   4.585   5.841   5.472 -0.6311 -0.0255 -0.4717
  128OSM   H12A13692   4.578   5.937   5.522 -2.1484 -0.9324  1.1588
  128OSM   H12B13693   4.624   5.861   5.373  1.1350 -1.8079 -0.1948
  128OSM    C1113694   4.692   5.767   5.563 -0.0448  1.0030 -0.0905
  128OSM   H11A13695   4.680   5.792   5.671  1.1648 -0.2885  0.3610
  128OSM   H11B13696   4.786   5.818   5.534 -1.0954  2.2985 -1.3967
  128OSM      P13697   4.828   5.554   5.501  0.6489  0.2915  0.2652
  128OSM    O1313698   4.820   5.409   5.481  0.2320 -0.1865 -0.2222
  128OSM    O1413699   4.875   5.633   5.381 -0.1449 -0.4391  0.3005
  128OSM    O1113700   4.923   5.595   5.616  0.4976  0.4286  0.3241
  128OSM    O1213701   4.698   5.625   5.537  0.1133 -0.0317  0.0150
  128OSM    C1S13702   4.882   5.537   5.747 -0.1533  0.5784  0.4466
  128OSM    H1S13703   4.909   5.429   5.744  0.9637  0.8132  1.0398
  128OSM    H1T13704   4.777   5.550   5.781 -0.1383  1.8995  0.0262
  128OSM     NF13705   4.925   5.568   5.991 -0.2030 -0.1723 -0.2041
  128OSM    HNF13706   4.898   5.637   6.058 -0.0073  0.3196 -0.6330
  128OSM    C2S13707   4.970   5.604   5.856 -0.1022 -0.0504 -1.0482
  128OSM    H2S13708   5.074   5.569   5.840  1.4221  3.1500  0.7739
  128OSM    C3S13709   4.977   5.754   5.843  0.3062 -0.5437  0.3907
  128OSM    H3S13710   4.876   5.800   5.844 -1.2503 -3.6963  1.5794
  128OSM     O313711   5.052   5.793   5.730  0.1775 -0.0949  0.5179
  128OSM    HO313712   5.059   5.719   5.669 -1.4239 -0.2801  0.5155
  128OSM    C4S13713   5.057   5.809   5.960 -0.2900  1.0378 -0.1455
  128OSM    H4S13714   5.145   5.748   5.984 -0.4628  0.0588 -1.8560
  128OSM    C5S13715   5.031   5.928   6.031  0.0913  0.3290  0.5402
  128OSM    H5S13716   4.945   5.984   5.993  0.0114 -0.6904 -0.8423
  128OSM    C6S13717   5.099   5.975   6.155  0.0607 -0.3778  0.1729
  128OSM    H6S13718   5.025   5.997   6.235  1.0839  2.0209  0.5311
  128OSM    H6T13719   5.142   6.073   6.127 -0.0435 -0.5290 -0.5338
  128OSM    C7S13720   5.211   5.892   6.219  0.4270 -0.0343 -0.6117
  128OSM    H7S13721   5.268   5.952   6.294 -0.2135  0.1323 -0.2534
  128OSM    H7T13722   5.281   5.846   6.145  0.6716 -0.8858  0.1207
  128OSM    C8S13723   5.168   5.772   6.301  0.0977  0.5258  0.7001
  128OSM    H8S13724   5.250   5.697   6.302 -0.1700  0.0364 -2.5284
  128OSM    H8T13725   5.094   5.720   6.236  2.5030 -1.7307 -0.4146
  128OSM    C9S13726   5.116   5.788   6.447 -0.8006  0.4589  0.8222
  128OSM    H9S13727   5.015   5.835   6.449 -0.7601  0.6794 -1.0374
  128OSM    H9T13728   5.194   5.853   6.492  0.1469  0.9828 -1.4215
  128OSM   C10S13729   5.105   5.651   6.523  0.1811 -0.0186  0.0662
  128OSM   H10S13730   5.209   5.612   6.535  0.1664  0.0602  0.4539
  128OSM   H10T13731   5.052   5.588   6.448 -0.3339  1.1865 -0.6203
  128OSM   C11S13732   5.035   5.648   6.656 -0.2501 -0.1462  0.0037
  128OSM   H11S13733   4.926   5.664   6.639  0.0317  2.7191  0.3581
  128OSM   H11T13734   5.068   5.724   6.729 -1.8195 -0.9205  1.5948
  128OSM   C12S13735   5.077   5.511   6.711  0.2195  0.1303  1.0408
  128OSM   H12S13736   5.188   5.519   6.711  0.3319 -0.9980 -0.7617
  128OSM   H12T13737   5.049   5.433   6.637 -0.6117  1.2265  0.1675
  128OSM   C13S13738   5.035   5.483   6.851  0.4800  0.1937  0.0253
  128OSM   H13S13739   5.087   5.387   6.875  1.6335  1.0466  1.0545
  128OSM   H13T13740   4.928   5.454   6.847  0.9633 -2.1052  1.6981
  128OSM   C14S13741   5.058   5.591   6.950 -0.1770  0.0378 -0.3080
  128OSM   H14S13742   4.988   5.676   6.938 -0.2520 -0.1439 -1.1704
  128OSM   H14T13743   5.160   5.634   6.937 -0.5320  0.3303 -2.2841
  128OSM   C15S13744   5.042   5.541   7.090 -0.4518 -0.5180 -0.6205
  128OSM   H15S13745   5.113   5.460   7.115 -0.4005 -0.4596 -0.5770
  128OSM   H15T13746   4.937   5.511   7.113  0.5293 -1.4516  3.3371
  128OSM   C16S13747   5.067   5.656   7.195  0.5518  0.2199  0.4580
  128OSM   H16S13748   5.022   5.746   7.149  0.7254  1.3159  2.3121
  128OSM   H16T13749   5.172   5.658   7.231  0.1910  0.4465  1.5360
  128OSM   C17S13750   4.980   5.631   7.318  0.5275 -0.3700  0.1040
  128OSM   H17S13751   4.871   5.632   7.297  0.4054 -0.3661  0.7092
  128OSM   H17T13752   5.000   5.716   7.388  0.6955 -0.2724 -0.0609
  128OSM   C18S13753   5.006   5.495   7.392  0.2124 -0.0890  0.9632
  128OSM   H18S13754   5.114   5.491   7.420  0.1932 -1.1442  0.9227
  128OSM   H18T13755   4.993   5.410   7.321  1.3306  0.1015  0.5026
  128OSM   H18U13756   4.941   5.471   7.478 -0.1123 -1.6842  0.3084
  128OSM    C1F13757   4.929   5.441   6.033  0.2392  0.5317  0.0884
  128OSM     OF13758   4.986   5.349   5.973 -0.0874  0.0881 -0.3182
  128OSM    C2F13759   4.875   5.425   6.169  0.2450 -0.1665 -0.0194
  128OSM    H2F13760   4.766   5.446   6.172  0.3830  0.5274  0.1423
  128OSM    H2G13761   4.920   5.507   6.228  2.5074  0.8674 -2.9147
  128OSM    C3F13762   4.921   5.294   6.237 -0.4249 -0.6434 -0.0475
  128OSM    H3F13763   5.032   5.294   6.233 -0.3868  1.1232  0.0726
  128OSM    H3G13764   4.883   5.210   6.176 -2.8194 -0.3045  0.8621
  128OSM    C4F13765   4.904   5.297   6.385  0.2324  0.5681 -0.2511
  128OSM    H4F13766   4.961   5.378   6.436  1.0705 -0.4922  0.5588
  128OSM    H4G13767   4.945   5.206   6.434  0.0847  0.9597  0.6181
  128OSM    C5F13768   4.758   5.298   6.427 -0.4599  0.5981  0.0125
  128OSM    H5F13769   4.690   5.224   6.380 -0.1015  1.1939 -1.5090
  128OSM    H5G13770   4.706   5.393   6.401 -3.0846 -1.0667 -1.2293
  128OSM    C6F13771   4.751   5.293   6.585 -0.5057 -0.3701  0.2560
  128OSM    H6F13772   4.645   5.304   6.615 -0.0391  2.1409  1.2365
  128OSM    H6G13773   4.815   5.371   6.631  1.3972 -2.1821  0.8400
  128OSM    C7F13774   4.802   5.155   6.642 -0.6106  0.4629 -0.0410
  128OSM    H7F13775   4.912   5.150   6.624 -0.6309 -0.7694  0.1182
  128OSM    H7G13776   4.752   5.076   6.582 -0.9831  1.6666 -1.3784
  128OSM    C8F13777   4.790   5.148   6.794  0.4641  0.2727  0.2024
  128OSM    H8F13778   4.697   5.193   6.834  1.1058  1.0439  0.8741
  128OSM    H8G13779   4.864   5.215   6.844 -0.1741 -0.3249  1.9940
  128OSM    C9F13780   4.809   5.003   6.837  0.0984  0.1406  0.0020
  128OSM    H9F13781   4.909   4.965   6.811 -0.1113  1.0249 -2.3237
  128OSM   C10F13782   4.725   4.939   6.922 -0.0322  0.7437 -0.2330
  128OSM   H10F13783   4.743   4.835   6.951 -3.5298  0.1259  0.2097
  128OSM   C11F13784   4.593   4.983   6.977 -0.4150 -0.1550  0.7876
  128OSM   H11F13785   4.519   4.907   6.946 -0.2902 -0.6167  1.5744
  128OSM   H11G13786   4.551   5.069   6.922 -2.2509 -1.9800 -0.8105
  128OSM   C12F13787   4.606   5.012   7.128  0.5124  0.0134 -0.6553
  128OSM   H12F13788   4.698   5.070   7.147 -0.1709  1.4955 -1.6965
  128OSM   H12G13789   4.597   4.915   7.181  0.3234  0.2043 -0.3311
  128OSM   C13F13790   4.486   5.091   7.174 -0.5198  0.4408 -0.3999
  128OSM   H13F13791   4.393   5.031   7.177  0.1916 -0.6644  0.6506
  128OSM   H13G13792   4.460   5.169   7.100 -1.3730 -0.4877 -1.1134
  128OSM   C14F13793   4.511   5.148   7.313 -0.0091  0.3718 -0.0513
  128OSM   H14F13794   4.422   5.207   7.346 -0.9668 -0.2021 -1.5094
  128OSM   H14G13795   4.594   5.220   7.296  1.2331 -0.9850  0.1471
  128OSM   C15F13796   4.549   5.038   7.419  0.1468 -0.4724  0.0827
  128OSM   H15F13797   4.632   4.972   7.387  1.4470  0.4162  1.4646
  128OSM   H15G13798   4.459   4.973   7.427  0.0725 -0.3536  0.2227
  128OSM   C16F13799   4.591   5.103   7.554  0.0329 -0.2058 -0.2892
  128OSM   H16F13800   4.521   5.178   7.596  0.3992 -0.0084 -0.0285
  128OSM   H16G13801   4.684   5.156   7.525 -1.6404  0.7917 -4.7663
  128OSM   C17F13802   4.621   5.017   7.680  0.3448  0.4237 -0.1585
  128OSM   H17F13803   4.693   4.939   7.646  0.6076  0.2800  0.7052
  128OSM   H17G13804   4.537   4.957   7.722  0.7716  1.2575  2.0400
  128OSM   C18F13805   4.686   5.084   7.800 -0.6235 -0.0200  0.3129
  128OSM   H18F13806   4.781   5.136   7.773 -1.1857 -0.2101 -2.2909
  128OSM   H18G13807   4.716   5.010   7.877 -2.1666  1.1142  2.0935
  128OSM   H18H13808   4.619   5.162   7.842 -2.0478  0.7209 -2.9884
  129OSM      N13809   2.706   2.348   5.574  0.6306  0.1320 -0.5015
  129OSM    C1513810   2.632   2.445   5.658  0.7512 -0.5154  0.5648
  129OSM   H15A13811   2.564   2.506   5.602  0.2082 -1.5306  0.0859
  129OSM   H15B13812   2.702   2.514   5.703  1.7976 -1.2860  0.1880
  129OSM   H15C13813   2.574   2.400   5.737 -1.0368  0.1060 -0.3556
  129OSM    C1413814   2.756   2.424   5.456  0.0059  0.1366  0.1022
  129OSM   H14A13815   2.830   2.379   5.391 -1.8773  1.1592 -2.9049
  129OSM   H14B13816   2.811   2.513   5.484 -2.8652  1.8844  0.5286
  129OSM   H14C13817   2.673   2.440   5.389  1.5862  2.9603 -1.3734
  129OSM    C1313818   2.821   2.288   5.647  0.1060  0.4101 -0.5935
  129OSM   H13A13819   2.887   2.231   5.584  1.5989 -0.8564  1.9780
  129OSM   H13B13820   2.779   2.212   5.712  0.5418  0.8178  0.1766
  129OSM   H13C13821   2.874   2.361   5.708  1.3082 -0.5863 -0.4102
  129OSM    C1213822   2.611   2.243   5.516  0.4187 -0.8570  0.3070
  129OSM   H12A13823   2.677   2.180   5.459  1.0032 -0.0965  0.1254
  129OSM   H12B13824   2.537   2.285   5.449 -1.2397  0.4187  2.7710
  129OSM    C1113825   2.541   2.152   5.616 -0.0688 -0.3236  0.7302
  129OSM   H11A13826   2.456   2.105   5.562 -0.0299  0.0215  0.3644
  129OSM   H11B13827   2.490   2.211   5.695 -3.1508 -0.5867 -0.9105
  129OSM      P13828   2.663   1.929   5.587 -0.2242 -0.1114  0.3553
  129OSM    O1313829   2.553   1.893   5.501 -0.4466 -0.2680  0.1678
  129OSM    O1413830   2.790   1.959   5.519  0.0958  0.5235  0.4321
  129OSM    O1113831   2.683   1.823   5.699  0.3064 -0.3051  0.6801
  129OSM    O1213832   2.631   2.054   5.674 -0.1279 -0.7628  0.1585
  129OSM    C1S13833   2.809   1.794   5.752  0.3611 -0.0260 -0.3015
  129OSM    H1S13834   2.878   1.878   5.776  2.1963 -1.6268  0.3391
  129OSM    H1T13835   2.861   1.728   5.679  0.8650 -1.2031  1.0759
  129OSM     NF13836   2.914   1.742   5.968  0.8688  0.6079 -0.4079
  129OSM    HNF13837   2.984   1.671   5.960 -0.4146 -0.4600 -3.7161
  129OSM    C2S13838   2.797   1.722   5.891  0.7705  0.9780  0.6113
  129OSM    H2S13839   2.714   1.773   5.943  0.4621  1.5151 -0.3854
  129OSM    C3S13840   2.756   1.571   5.849 -0.6455 -0.2809  0.2088
  129OSM    H3S13841   2.832   1.524   5.784 -0.5596 -1.0925  0.8709
  129OSM     O313842   2.625   1.547   5.788 -0.2619  0.2750  0.9514
  129OSM    HO313843   2.603   1.627   5.738 -1.6351 -0.1926  0.7542
  129OSM    C4S13844   2.736   1.495   5.977 -0.4513 -0.4161 -0.3097
  129OSM    H4S13845   2.664   1.543   6.045  0.8282  0.2359  0.6287
  129OSM    C5S13846   2.784   1.377   6.024 -0.0595  0.3452  0.3111
  129OSM    H5S13847   2.844   1.307   5.965  0.6150  0.3241  1.0092
  129OSM    C6S13848   2.761   1.329   6.162  0.3698  0.1654 -0.7115
  129OSM    H6S13849   2.859   1.317   6.212 -0.4426  0.4487  1.0307
  129OSM    H6T13850   2.726   1.224   6.162 -1.2335  0.6568  0.4192
  129OSM    C7S13851   2.666   1.399   6.251  0.0079 -0.0047  0.1274
  129OSM    H7S13852   2.563   1.400   6.211  0.8203  1.6669 -2.1210
  129OSM    H7T13853   2.687   1.508   6.259 -1.7132  0.3372  0.4392
  129OSM    C8S13854   2.653   1.336   6.395  0.0640 -0.0811 -0.4106
  129OSM    H8S13855   2.639   1.226   6.390  2.1522 -0.3510 -1.0381
  129OSM    H8T13856   2.557   1.378   6.432 -0.9327 -2.7126  0.1592
  129OSM    C9S13857   2.771   1.383   6.475  0.1334 -0.4852 -0.5814
  129OSM    H9S13858   2.784   1.492   6.456  1.9289 -0.5767 -0.0950
  129OSM    H9T13859   2.864   1.330   6.445  0.3322  0.2813 -1.3712
  129OSM   C10S13860   2.756   1.361   6.628  0.6997 -0.2295  0.2174
  129OSM   H10S13861   2.838   1.425   6.667  1.4726 -0.1742 -1.4225
  129OSM   H10T13862   2.763   1.252   6.646  2.2637 -0.8725 -3.4497
  129OSM   C11S13863   2.616   1.401   6.691  0.5401  0.0928 -0.1196
  129OSM   H11S13864   2.588   1.349   6.786 -1.2845  0.8008 -0.2358
  129OSM   H11T13865   2.537   1.351   6.630 -0.0372 -1.1682  1.5619
  129OSM   C12S13866   2.587   1.552   6.714 -0.3187  0.0124 -0.2315
  129OSM   H12S13867   2.565   1.589   6.611 -1.9216 -1.8286 -0.6156
  129OSM   H12T13868   2.681   1.605   6.741  0.5026 -0.8448 -1.3308
  129OSM   C13S13869   2.470   1.595   6.803 -0.5306 -0.0849 -0.1335
  129OSM   H13S13870   2.473   1.547   6.903  0.3177 -0.3254 -0.2648
  129OSM   H13T13871   2.383   1.554   6.747 -0.0596 -1.3422  0.0258
  129OSM   C14S13872   2.459   1.749   6.804  0.2549  0.0302  0.2522
  129OSM   H14S13873   2.462   1.789   6.701  0.8834 -2.4716 -0.7854
  129OSM   H14T13874   2.547   1.789   6.859  0.8424  0.2778 -0.8594
  129OSM   C15S13875   2.330   1.793   6.877  0.0189 -0.2354  0.4253
  129OSM   H15S13876   2.326   1.739   6.974 -1.5735 -0.1444  0.4208
  129OSM   H15T13877   2.242   1.765   6.816 -0.3829  0.5201  0.6512
  129OSM   C16S13878   2.306   1.942   6.893  0.2472  0.0870 -0.0350
  129OSM   H16S13879   2.281   1.992   6.796  2.5458  0.0608 -0.7140
  129OSM   H16T13880   2.405   1.983   6.925  0.3225 -2.2039  2.9938
  129OSM   C17S13881   2.204   1.976   7.006 -1.0833 -0.1663  0.0062
  129OSM   H17S13882   2.219   2.080   7.042 -1.1382 -0.2080  0.1524
  129OSM   H17T13883   2.230   1.925   7.102  0.8307 -0.9039 -0.8500
  129OSM   C18S13884   2.062   1.937   6.957  0.9740 -0.2995 -0.7720
  129OSM   H18S13885   2.045   2.003   6.869 -0.8413  0.6811  0.2542
  129OSM   H18T13886   1.980   1.956   7.030  0.8655  0.2174 -1.0264
  129OSM   H18U13887   2.065   1.829   6.931 -0.3249 -1.0161  1.7190
  129OSM    C1F13888   2.942   1.852   6.041  0.1576  0.2471 -0.1121
  129OSM     OF13889   2.872   1.950   6.021  0.1272 -0.3541  0.2656
  129OSM    C2F13890   3.073   1.850   6.110 -0.4765  0.2731 -0.5090
  129OSM    H2F13891   3.097   1.950   6.151  0.2641 -0.4039  0.7495
  129OSM    H2G13892   3.150   1.834   6.031  0.8850 -1.7801  1.1353
  129OSM    C3F13893   3.094   1.757   6.227 -0.1033 -0.1633 -0.3507
  129OSM    H3F13894   3.192   1.791   6.266  0.1869 -0.1901 -1.0446
  129OSM    H3G13895   3.098   1.649   6.205 -1.0652 -0.5831  1.3040
  129OSM    C4F13896   2.985   1.771   6.333 -0.1116 -0.3885  0.1292
  129OSM    H4F13897   2.898   1.703   6.320  1.4318 -2.0698 -2.0816
  129OSM    H4G13898   2.947   1.876   6.330 -2.3364 -1.1406  0.3288
  129OSM    C5F13899   3.042   1.756   6.471 -0.3175 -0.1901  0.3219
  129OSM    H5F13900   3.115   1.837   6.493 -1.9067  1.1250  0.9893
  129OSM    H5G13901   3.092   1.657   6.470 -0.9141 -0.5156 -1.3648
  129OSM    C6F13902   2.943   1.755   6.585  0.5626 -0.4131 -0.3249
  129OSM    H6F13903   3.000   1.735   6.678  0.9104  0.1555 -0.4079
  129OSM    H6G13904   2.868   1.674   6.580 -0.1533  0.1809  0.4832
  129OSM    C7F13905   2.853   1.883   6.595 -0.3970 -0.0140 -0.1378
  129OSM    H7F13906   2.780   1.868   6.677  1.9502 -1.7455  1.7449
  129OSM    H7G13907   2.801   1.892   6.497 -1.5089 -2.2540  0.1786
  129OSM    C8F13908   2.940   2.007   6.642 -0.3536 -0.1451 -0.0701
  129OSM    H8F13909   2.877   2.096   6.619  0.7644 -0.2087 -4.2804
  129OSM    H8G13910   3.029   2.021   6.576 -0.6292  0.3513 -0.3413
  129OSM    C9F13911   2.984   2.001   6.789 -0.4713 -0.3383  0.1773
  129OSM    H9F13912   3.037   1.907   6.811  0.7493 -0.0196 -1.2123
  129OSM   C10F13913   2.962   2.092   6.888 -0.3952 -1.0889  0.4903
  129OSM   H10F13914   2.996   2.082   6.992  1.2400 -0.4774  0.0401
  129OSM   C11F13915   2.896   2.229   6.868  0.0388 -0.1509  0.4078
  129OSM   H11F13916   2.930   2.275   6.773  2.2294  0.4489  1.4191
  129OSM   H11G13917   2.939   2.312   6.929  3.8971 -1.4775 -0.2233
  129OSM   C12F13918   2.747   2.238   6.894 -0.6731  0.4576  0.2125
  129OSM   H12F13919   2.682   2.171   6.834  0.1645 -0.8915  0.7832
  129OSM   H12G13920   2.710   2.339   6.863 -0.2020  0.0754 -1.7229
  129OSM   C13F13921   2.702   2.200   7.038 -0.4703 -0.0204 -0.6549
  129OSM   H13F13922   2.737   2.097   7.062 -1.0988 -0.0341  0.2576
  129OSM   H13G13923   2.591   2.197   7.045 -0.3808 -0.4671  3.3430
  129OSM   C14F13924   2.753   2.287   7.154  0.1518 -0.2874 -0.5369
  129OSM   H14F13925   2.720   2.392   7.141  1.9771  0.2190 -1.3722
  129OSM   H14G13926   2.864   2.291   7.155  0.2785 -1.6445  2.5622
  129OSM   C15F13927   2.724   2.256   7.301  0.6258 -0.6064 -0.1718
  129OSM   H15F13928   2.760   2.332   7.373 -0.8397  0.2384 -0.2749
  129OSM   H15G13929   2.767   2.157   7.328 -0.4392 -1.5129 -1.5969
  129OSM   C16F13930   2.573   2.232   7.316  0.1211  0.0006 -0.3461
  129OSM   H16F13931   2.541   2.147   7.252 -0.0617  0.6593 -1.1490
  129OSM   H16G13932   2.504   2.315   7.289 -1.6483 -0.7087  1.7916
  129OSM   C17F13933   2.524   2.201   7.461 -1.2345  0.3943  0.5926
  129OSM   H17F13934   2.414   2.212   7.459 -1.5797 -1.9744  2.2407
  129OSM   H17G13935   2.569   2.285   7.519 -1.3681  1.9811 -1.4794
  129OSM   C18F13936   2.552   2.063   7.516  0.4570 -0.0772  0.1603
  129OSM   H18F13937   2.661   2.055   7.530  0.6270 -1.4216 -1.5989
  129OSM   H18G13938   2.508   1.988   7.447  0.0989  1.3029 -1.1782
  129OSM   H18H13939   2.502   2.052   7.614 -0.5263 -2.5210 -0.5453
  130OSM      N13940   6.055   4.954   5.384  0.1743 -0.0881 -0.3652
  130OSM    C1513941   6.073   5.043   5.495  0.1809  0.6941  0.1212
  130OSM   H15A13942   6.076   4.994   5.591  2.6559 -0.5763 -0.5206
  130OSM   H15B13943   5.993   5.116   5.500 -0.7117 -0.3291  1.4733
  130OSM   H15C13944   6.163   5.102   5.479  0.0464  0.4605 -1.5907
  130OSM    C1413945   6.067   5.034   5.260 -0.5176  0.2823  0.0054
  130OSM   H14A13946   6.026   5.130   5.286 -1.8752  0.0658 -1.2107
  130OSM   H14B13947   6.007   4.989   5.182 -0.5958  1.3989 -0.6038
  130OSM   H14C13948   6.168   5.041   5.221 -0.7304  1.6233 -0.3498
  130OSM    C1313949   6.157   4.845   5.388 -0.2693  0.0412 -0.2451
  130OSM   H13A13950   6.133   4.771   5.462 -1.1318 -0.3770 -0.9207
  130OSM   H13B13951   6.255   4.882   5.414 -0.5620  0.9753 -0.4308
  130OSM   H13C13952   6.176   4.799   5.292  0.8967 -2.3987  1.0736
  130OSM    C1213953   5.918   4.887   5.381 -0.2476  0.4039 -0.1172
  130OSM   H12A13954   5.912   4.819   5.466  1.3753  0.9929  0.4931
  130OSM   H12B13955   5.917   4.810   5.305  2.3648  1.1825 -1.0287
  130OSM    C1113956   5.791   4.968   5.356  0.0144 -0.6285 -0.2051
  130OSM   H11A13957   5.707   4.895   5.355 -0.9945  0.4799 -2.4710
  130OSM   H11B13958   5.788   5.022   5.259 -1.9740  0.7846  0.5703
  130OSM      P13959   5.757   5.221   5.452  0.1173  0.0197 -0.3361
  130OSM    O1313960   5.878   5.294   5.416  0.1827 -0.1468  0.0244
  130OSM    O1413961   5.646   5.254   5.367  0.5456  0.5226  0.2229
  130OSM    O1113962   5.715   5.263   5.597 -0.1017  0.0016  0.0314
  130OSM    O1213963   5.774   5.068   5.456  0.2179 -0.1431  0.1801
  130OSM    C1S13964   5.719   5.179   5.712  0.3780  0.0620 -0.6598
  130OSM    H1S13965   5.706   5.072   5.686 -1.2853 -0.0391  0.4625
  130OSM    H1T13966   5.637   5.200   5.783 -0.0061 -3.0499 -0.0602
  130OSM     NF13967   5.853   5.120   5.898 -0.5836 -0.0192  0.0519
  130OSM    HNF13968   5.826   5.168   5.981 -2.1999 -0.6093 -0.0788
  130OSM    C2S13969   5.858   5.204   5.785 -0.1124  0.0889 -0.4082
  130OSM    H2S13970   5.944   5.177   5.719 -0.0056  0.9798 -0.6553
  130OSM    C3S13971   5.882   5.353   5.810 -0.7850 -0.3027 -0.3767
  130OSM    H3S13972   5.795   5.397   5.864 -1.3761 -0.1458 -1.4461
  130OSM     O313973   5.903   5.430   5.693 -0.6907 -0.0017  0.2145
  130OSM    HO313974   5.896   5.369   5.619  0.9889 -1.9849  1.5977
  130OSM    C4S13975   6.002   5.380   5.906 -0.2270 -0.0847  0.5816
  130OSM    H4S13976   6.073   5.300   5.931 -0.3838 -1.1280 -2.0585
  130OSM    C5S13977   6.024   5.492   5.980  0.9210 -0.1029  0.4748
  130OSM    H5S13978   5.962   5.580   5.960 -1.1440 -2.0491 -2.5545
  130OSM    C6S13979   6.132   5.515   6.076  0.0415  0.1312 -0.0813
  130OSM    H6S13980   6.193   5.600   6.038 -1.6945  1.5376  0.1397
  130OSM    H6T13981   6.202   5.432   6.097  1.0832  0.7653 -0.9207
  130OSM    C7S13982   6.077   5.576   6.204  0.2565  0.1433  0.6143
  130OSM    H7S13983   6.033   5.676   6.184  0.8691  0.2237 -0.3911
  130OSM    H7T13984   6.160   5.583   6.278  0.7184 -0.3975  0.1588
  130OSM    C8S13985   5.972   5.492   6.285 -0.2262  0.2636  0.0269
  130OSM    H8S13986   6.005   5.387   6.306  0.1461  0.3071 -0.3338
  130OSM    H8T13987   5.885   5.498   6.216  1.0078  0.7674 -1.5421
  130OSM    C9S13988   5.949   5.553   6.423  0.0185 -0.2484 -0.3822
  130OSM    H9S13989   5.913   5.658   6.420  0.3045 -0.1401 -0.1093
  130OSM    H9T13990   6.044   5.547   6.481  0.1364  1.7841 -0.2850
  130OSM   C10S13991   5.845   5.472   6.496  0.0114 -0.3386  0.2407
  130OSM   H10S13992   5.885   5.369   6.487 -0.2306 -0.3315 -1.1521
  130OSM   H10T13993   5.744   5.486   6.452  0.5525  0.7615 -0.7089
  130OSM   C11S13994   5.841   5.521   6.644  0.0996  0.0449  0.1667
  130OSM   H11S13995   5.807   5.627   6.648 -0.5954 -0.2008  1.2773
  130OSM   H11T13996   5.949   5.504   6.663  0.5175 -2.2024 -3.3067
  130OSM   C12S13997   5.756   5.434   6.744 -0.0703  0.0019 -0.4368
  130OSM   H12S13998   5.757   5.324   6.731 -1.8262 -0.0819 -0.0667
  130OSM   H12T13999   5.659   5.486   6.730  1.1208  2.3185 -0.7311
  130OSM   C13S14000   5.816   5.463   6.883 -0.2131 -0.6837  0.3081
  130OSM   H13S14001   5.779   5.560   6.922  0.5951 -0.6770  1.0942
  130OSM   H13T14002   5.926   5.474   6.879 -0.4797  2.4449 -1.2162
  130OSM   C14S14003   5.775   5.346   6.977 -0.4424  0.2300  0.7272
  130OSM   H14S14004   5.787   5.241   6.940 -2.5106 -0.3021  1.4363
  130OSM   H14T14005   5.665   5.347   6.991 -1.0234 -1.2368 -2.7477
  130OSM   C15S14006   5.836   5.353   7.120 -0.2445 -0.7861 -0.2926
  130OSM   H15S14007   5.807   5.440   7.183  2.1472 -0.4786  0.4857
  130OSM   H15T14008   5.946   5.360   7.106 -0.0856 -2.3598  0.0235
  130OSM   C16S14009   5.827   5.219   7.194 -0.0767 -0.0065  0.2068
  130OSM   H16S14010   5.879   5.146   7.128  0.1284 -0.2075  0.5819
  130OSM   H16T14011   5.722   5.182   7.204  0.7385 -3.0311 -1.1587
  130OSM   C17S14012   5.899   5.224   7.327 -0.6699 -0.6117 -0.6855
  130OSM   H17S14013   5.861   5.316   7.376  2.7116  0.1938  0.7370
  130OSM   H17T14014   6.006   5.247   7.308 -0.9035  2.2104  0.8860
  130OSM   C18S14015   5.882   5.102   7.415 -0.4139 -0.4813  0.5427
  130OSM   H18S14016   5.954   5.103   7.499  0.6205  0.6838 -0.3145
  130OSM   H18T14017   5.904   5.007   7.362 -3.0245 -0.3451 -0.9334
  130OSM   H18U14018   5.777   5.098   7.449 -0.7947 -2.2750 -0.6848
  130OSM    C1F14019   5.870   4.991   5.889 -0.0608 -0.2953 -0.4229
  130OSM     OF14020   5.896   4.947   5.784  0.1263  0.4944 -0.4067
  130OSM    C2F14021   5.854   4.905   6.012  0.1636 -1.0863 -0.1993
  130OSM    H2F14022   5.950   4.850   6.024  1.6885  1.2026 -1.1762
  130OSM    H2G14023   5.769   4.839   5.986 -0.7343  1.0151 -3.0779
  130OSM    C3F14024   5.841   4.989   6.140 -0.5824 -0.1571 -0.0939
  130OSM    H3F14025   5.761   5.064   6.123 -0.2679  0.4655  1.0681
  130OSM    H3G14026   5.930   5.054   6.150  0.3110 -1.4599  0.7620
  130OSM    C4F14027   5.821   4.914   6.271 -0.0427  0.1966 -0.0689
  130OSM    H4F14028   5.907   4.844   6.276  2.2589  2.8477  0.1050
  130OSM    H4G14029   5.720   4.873   6.288 -1.0596  1.4729 -2.5200
  130OSM    C5F14030   5.835   5.013   6.389 -0.8069 -0.3353  0.4045
  130OSM    H5F14031   5.771   5.104   6.396  1.4007  1.3804 -0.6052
  130OSM    H5G14032   5.935   5.059   6.382 -0.3656 -1.4578 -1.2640
  130OSM    C6F14033   5.833   4.946   6.524  0.1601 -0.1613  0.0615
  130OSM    H6F14034   5.909   4.865   6.527 -0.3824 -0.6313  1.8313
  130OSM    H6G14035   5.736   4.897   6.544 -1.0962  0.6250 -3.3016
  130OSM    C7F14036   5.881   5.027   6.640  0.2435  0.3637  0.7478
  130OSM    H7F14037   5.804   5.107   6.649  1.8488  2.0890 -0.1586
  130OSM    H7G14038   5.979   5.076   6.623 -0.0070  1.5054  2.3186
  130OSM    C8F14039   5.884   4.950   6.770 -0.8566  0.4089 -0.8450
  130OSM    H8F14040   5.885   5.036   6.841 -0.8129  0.8872 -1.4104
  130OSM    H8G14041   5.985   4.904   6.771 -1.6345 -1.3795 -1.5421
  130OSM    C9F14042   5.774   4.856   6.805  0.0313 -0.1029  0.0979
  130OSM    H9F14043   5.682   4.875   6.747  0.7209  2.1118 -0.3725
  130OSM   C10F14044   5.767   4.788   6.919 -0.6289 -0.1571 -0.0681
  130OSM   H10F14045   5.688   4.712   6.928 -0.1364 -0.9697 -2.0302
  130OSM   C11F14046   5.867   4.794   7.031 -0.3723  0.6226  0.5436
  130OSM   H11F14047   5.898   4.898   7.053 -2.0141  1.3916 -0.6049
  130OSM   H11G14048   5.959   4.735   7.008 -1.1895  0.1159 -1.6327
  130OSM   C12F14049   5.816   4.723   7.164  0.0333 -0.0524  0.2316
  130OSM   H12F14050   5.718   4.767   7.191 -1.4803 -1.7669 -2.0350
  130OSM   H12G14051   5.876   4.745   7.254 -0.1190 -0.8044  0.5228
  130OSM   C13F14052   5.792   4.571   7.160  1.1463  0.6994  0.6052
  130OSM   H13F14053   5.804   4.523   7.061 -0.2549  1.1019  0.2210
  130OSM   H13G14054   5.686   4.557   7.191  1.3449 -2.2841  0.2497
  130OSM   C14F14055   5.879   4.491   7.257  0.1672  0.0326 -0.6886
  130OSM   H14F14056   5.979   4.540   7.264 -0.7662  1.7773  1.4746
  130OSM   H14G14057   5.902   4.392   7.212  0.9228  0.3232 -0.9606
  130OSM   C15F14058   5.815   4.481   7.392  0.4547 -0.3310 -0.0032
  130OSM   H15F14059   5.724   4.419   7.381 -0.7673  1.1327  1.2726
  130OSM   H15G14060   5.783   4.577   7.439 -0.7456 -0.0683 -1.2901
  130OSM   C16F14061   5.900   4.405   7.496 -0.1150  0.5002 -0.1776
  130OSM   H16F14062   5.855   4.431   7.595  0.8759  0.9735  0.1614
  130OSM   H16G14063   6.004   4.441   7.504  0.4554 -1.0552 -0.2862
  130OSM   C17F14064   5.898   4.254   7.467 -0.1175  0.3563 -0.6364
  130OSM   H17F14065   5.963   4.236   7.378  1.9373  0.7463  0.7176
  130OSM   H17G14066   5.800   4.219   7.427 -0.9730  0.1940  1.4824
  130OSM   C18F14067   5.950   4.155   7.570 -0.3058  0.3158 -0.3897
  130OSM   H18F14068   5.944   4.067   7.503 -0.6157  1.4846 -1.9437
  130OSM   H18G14069   5.878   4.151   7.655 -1.1362 -0.8847 -1.1221
  130OSM   H18H14070   6.049   4.174   7.618 -0.8329  1.8519  0.1285
  131OSM      N14071   3.006   1.289   5.203 -0.0711  0.4986  0.4424
  131OSM    C1514072   2.881   1.284   5.119 -0.4276 -0.4513 -0.2205
  131OSM   H15A14073   2.894   1.282   5.012  0.3038  0.8888 -0.1746
  131OSM   H15B14074   2.821   1.374   5.127 -0.4241 -0.5028  0.4454
  131OSM   H15C14075   2.811   1.212   5.158 -0.5348 -1.5795 -2.3411
  131OSM    C1414076   3.090   1.169   5.163 -0.0030  0.4413  0.0939
  131OSM   H14A14077   3.097   1.162   5.056  0.3342 -1.9551  0.2327
  131OSM   H14B14078   3.045   1.081   5.206  0.5448 -0.5574 -1.3019
  131OSM   H14C14079   3.192   1.168   5.201 -0.8631  1.2014  2.6509
  131OSM    C1314080   3.087   1.407   5.167 -0.5384  0.8517 -0.5771
  131OSM   H13A14081   3.052   1.504   5.199 -1.0217  0.3442  0.5047
  131OSM   H13B14082   3.099   1.410   5.060  1.3742 -1.4175 -0.5101
  131OSM   H13C14083   3.181   1.400   5.220 -0.0482 -0.1521 -1.5588
  131OSM    C1214084   2.974   1.283   5.349  0.2298  0.0747  0.4114
  131OSM   H12A14085   2.906   1.201   5.368  0.5804  0.0602  1.7062
  131OSM   H12B14086   2.915   1.369   5.379 -1.1395 -0.4386 -0.6791
  131OSM    C1114087   3.085   1.273   5.459 -0.1336  0.0281 -0.1458
  131OSM   H11A14088   3.138   1.178   5.441 -2.6917 -1.3430 -0.9714
  131OSM   H11B14089   3.036   1.260   5.558 -2.3767 -1.4666 -1.3764
  131OSM      P14090   3.126   1.525   5.517 -0.1275 -0.0456  0.2619
  131OSM    O1314091   3.207   1.624   5.448 -0.0289 -0.0867 -0.0276
  131OSM    O1414092   2.984   1.540   5.516  0.9967  0.1635 -0.0472
  131OSM    O1114093   3.183   1.512   5.662 -0.0138 -0.3259 -0.2303
  131OSM    O1214094   3.164   1.387   5.453 -0.4596 -0.2571 -0.2102
  131OSM    C1S14095   3.260   1.402   5.700  0.5574 -0.5409  0.3972
  131OSM    H1S14096   3.354   1.391   5.642 -0.0037 -0.5453 -0.5293
  131OSM    H1T14097   3.208   1.305   5.687  0.9940 -1.1800  2.8157
  131OSM     NF14098   3.393   1.291   5.870  0.0724  0.3609 -0.3871
  131OSM    HNF14099   3.349   1.219   5.924  2.8704 -1.5375 -0.4241
  131OSM    C2S14100   3.314   1.409   5.847  0.5348 -0.7210  0.1780
  131OSM    H2S14101   3.378   1.497   5.868  2.7231 -2.4157  1.0101
  131OSM    C3S14102   3.192   1.425   5.943 -0.3378 -0.5401  0.4393
  131OSM    H3S14103   3.131   1.333   5.939 -0.6292 -0.4459  1.8718
  131OSM     O314104   3.109   1.536   5.914  0.6676  0.4370 -0.4361
  131OSM    HO314105   3.122   1.553   5.820 -0.0758  1.4796 -0.3638
  131OSM    C4S14106   3.248   1.438   6.085 -0.0203  0.1039  0.8761
  131OSM    H4S14107   3.284   1.540   6.104 -2.4697  1.0945  0.6029
  131OSM    C5S14108   3.251   1.350   6.184  0.3185  0.3063 -0.4718
  131OSM    H5S14109   3.217   1.245   6.175  0.3151  0.2859 -0.2247
  131OSM    C6S14110   3.295   1.383   6.326 -0.4520  0.0747 -0.2958
  131OSM    H6S14111   3.364   1.303   6.362  1.2216  1.2741 -0.7409
  131OSM    H6T14112   3.198   1.361   6.375 -0.4657 -0.3658 -0.5130
  131OSM    C7S14113   3.351   1.518   6.371  0.0417 -0.1035  0.0407
  131OSM    H7S14114   3.292   1.609   6.349  0.6700  0.8958  2.2279
  131OSM    H7T14115   3.445   1.526   6.312 -0.0703 -1.2936 -0.3401
  131OSM    C8S14116   3.383   1.520   6.517 -0.6467 -0.4954 -0.5558
  131OSM    H8S14117   3.423   1.422   6.552  0.7062 -0.5263 -2.0686
  131OSM    H8T14118   3.285   1.533   6.568  0.6514 -0.1069  2.0271
  131OSM    C9S14119   3.479   1.628   6.562  0.3352  0.6093 -0.6301
  131OSM    H9S14120   3.430   1.724   6.534  0.7490  0.5651 -1.5374
  131OSM    H9T14121   3.574   1.633   6.506  1.4531 -5.0904  0.1546
  131OSM   C10S14122   3.512   1.615   6.713  0.6591 -0.0293  0.7796
  131OSM   H10S14123   3.599   1.679   6.741  0.1355  0.3677  1.5074
  131OSM   H10T14124   3.540   1.510   6.736 -0.3700 -0.1113  1.7258
  131OSM   C11S14125   3.404   1.659   6.810  0.1505  0.4198  0.5141
  131OSM   H11S14126   3.324   1.583   6.802 -0.7647  1.4659 -0.4892
  131OSM   H11T14127   3.368   1.761   6.789  1.0040  1.1930  2.5629
  131OSM   C12S14128   3.463   1.647   6.958  0.4059  0.0970 -0.0288
  131OSM   H12S14129   3.548   1.719   6.963 -0.4675  1.1490  0.1519
  131OSM   H12T14130   3.508   1.548   6.980  2.4692  0.2409 -3.0724
  131OSM   C13S14131   3.361   1.691   7.067  0.2429  0.6054 -0.1482
  131OSM   H13S14132   3.278   1.617   7.073  0.7189  0.1101  0.4904
  131OSM   H13T14133   3.307   1.781   7.029  0.3389  0.1912 -1.3125
  131OSM   C14S14134   3.415   1.710   7.208  0.5729 -0.1788 -0.7910
  131OSM   H14S14135   3.483   1.798   7.211 -0.8505  0.9647 -0.0476
  131OSM   H14T14136   3.486   1.631   7.238  1.3400  0.5851 -0.5669
  131OSM   C15S14137   3.298   1.732   7.314  0.1543  0.7534  0.2265
  131OSM   H15S14138   3.352   1.734   7.411  0.7976 -1.0119 -0.0488
  131OSM   H15T14139   3.223   1.650   7.308  0.1364  0.7036  1.1073
  131OSM   C16S14140   3.219   1.866   7.291 -0.1429  0.6066  0.3153
  131OSM   H16S14141   3.157   1.851   7.200  2.4738  0.8889 -1.6090
  131OSM   H16T14142   3.292   1.946   7.269  0.8810 -0.5456 -0.6219
  131OSM   C17S14143   3.120   1.906   7.403 -0.5306  0.7665  0.2727
  131OSM   H17S14144   3.164   1.922   7.504  0.4511  0.4669 -0.0906
  131OSM   H17T14145   3.047   1.823   7.415  1.5261 -1.1945 -0.0031
  131OSM   C18S14146   3.046   2.034   7.367  0.3227 -1.4005  0.0604
  131OSM   H18S14147   2.991   2.021   7.272  0.2791  1.9240 -0.4882
  131OSM   H18T14148   3.109   2.125   7.353 -1.3052 -0.1977  0.2619
  131OSM   H18U14149   2.969   2.061   7.442  0.7438  1.4390 -0.4005
  131OSM    C1F14150   3.521   1.285   5.844  0.1862 -0.0389 -0.5549
  131OSM     OF14151   3.578   1.389   5.812  0.4803  0.0680 -0.3763
  131OSM    C2F14152   3.604   1.162   5.856  0.1072 -0.2251  0.1534
  131OSM    H2F14153   3.654   1.142   5.759  0.8101 -0.3044  0.5279
  131OSM    H2G14154   3.530   1.080   5.868 -2.4887  2.0148  0.4277
  131OSM    C3F14155   3.707   1.177   5.965 -0.1326 -0.0331  0.6474
  131OSM    H3F14156   3.785   1.246   5.927 -1.3694 -0.1842 -2.4728
  131OSM    H3G14157   3.770   1.087   5.980 -0.5590  0.0364  3.2473
  131OSM    C4F14158   3.648   1.199   6.100  0.1252  0.3880 -0.7724
  131OSM    H4F14159   3.566   1.125   6.113  1.5112 -0.9259  0.9277
  131OSM    H4G14160   3.608   1.301   6.119 -2.0906 -0.6457  0.5290
  131OSM    C5F14161   3.747   1.169   6.216 -0.5962  0.4200  0.3611
  131OSM    H5F14162   3.835   1.235   6.201 -1.0914  0.8293 -0.9187
  131OSM    H5G14163   3.784   1.065   6.208  0.3386  0.8706 -2.1471
  131OSM    C6F14164   3.679   1.208   6.354  0.0452  0.5392 -0.1917
  131OSM    H6F14165   3.590   1.146   6.376  0.7728 -0.5543 -0.2411
  131OSM    H6G14166   3.656   1.316   6.338  0.1863  0.7107  0.6714
  131OSM    C7F14167   3.769   1.190   6.471 -0.7204 -0.1091 -0.2878
  131OSM    H7F14168   3.869   1.203   6.424  0.0174 -0.3183  1.1634
  131OSM    H7G14169   3.774   1.082   6.494 -0.6632  0.2944  1.7250
  131OSM    C8F14170   3.740   1.292   6.586 -0.5335 -0.2531  0.3245
  131OSM    H8F14171   3.707   1.394   6.556  0.4900  0.2837  0.9634
  131OSM    H8G14172   3.840   1.306   6.632  0.6127 -0.3727 -2.0174
  131OSM    C9F14173   3.638   1.232   6.684 -0.2327  0.4957  0.5349
  131OSM    H9F14174   3.554   1.181   6.634  0.4890  1.4468 -1.8259
  131OSM   C10F14175   3.630   1.244   6.815  0.1337  0.5267 -1.1928
  131OSM   H10F14176   3.543   1.210   6.874  1.5901  2.3993  2.3406
  131OSM   C11F14177   3.719   1.333   6.905 -0.0595  0.1145  0.3996
  131OSM   H11F14178   3.655   1.414   6.946 -2.6612 -2.2828  1.4506
  131OSM   H11G14179   3.797   1.376   6.839 -0.9566  0.4699 -0.4510
  131OSM   C12F14180   3.793   1.242   7.008 -0.3275 -0.5579  0.1294
  131OSM   H12F14181   3.841   1.311   7.080 -1.4145  0.1177  0.2182
  131OSM   H12G14182   3.877   1.185   6.962  0.2316 -1.1827  1.8780
  131OSM   C13F14183   3.708   1.142   7.085  0.6026 -0.6976  0.7178
  131OSM   H13F14184   3.705   1.046   7.028 -1.5122 -1.0945  1.4162
  131OSM   H13G14185   3.605   1.178   7.102 -0.2541 -3.6513  2.3971
  131OSM   C14F14186   3.764   1.122   7.226  0.2782  0.3760 -0.4416
  131OSM   H14F14187   3.871   1.097   7.212  0.7611  1.5855  0.9121
  131OSM   H14G14188   3.722   1.032   7.278  0.1930 -0.6098 -2.1230
  131OSM   C15F14189   3.745   1.245   7.320  0.0124  0.2238 -0.3047
  131OSM   H15F14190   3.784   1.343   7.283 -0.6754  0.2565 -0.9710
  131OSM   H15G14191   3.801   1.222   7.413  1.2174  0.8423 -0.8540
  131OSM   C16F14192   3.591   1.262   7.352  0.0457 -0.3007  0.2875
  131OSM   H16F14193   3.551   1.165   7.386 -1.8909  0.3148 -0.0899
  131OSM   H16G14194   3.529   1.295   7.266 -0.5990 -0.5825  0.6329
  131OSM   C17F14195   3.575   1.373   7.459  0.7452  0.6348 -0.9351
  131OSM   H17F14196   3.617   1.468   7.421 -0.5493  0.9337 -1.6763
  131OSM   H17G14197   3.622   1.332   7.551  0.8134 -0.9961 -1.6453
  131OSM   C18F14198   3.423   1.390   7.489  0.2747  0.8414 -0.5378
  131OSM   H18F14199   3.394   1.295   7.539  0.0411  0.8577 -0.6413
  131OSM   H18G14200   3.361   1.405   7.398 -1.9758  2.0787  1.1082
  131OSM   H18H14201   3.397   1.468   7.564 -0.9673 -0.2452  0.2133
  132OSM      N14202   5.221   1.547   5.467 -0.4624 -0.2474 -0.1527
  132OSM    C1514203   5.225   1.579   5.322 -0.0129  0.7031  0.5324
  132OSM   H15A14204   5.280   1.505   5.266 -1.3215  1.2262 -1.5514
  132OSM   H15B14205   5.262   1.677   5.294 -0.3964  0.4297 -0.9842
  132OSM   H15C14206   5.128   1.579   5.276 -0.8989  1.3274  2.2873
  132OSM    C1414207   5.353   1.565   5.525 -0.4378 -0.3571  0.0963
  132OSM   H14A14208   5.395   1.650   5.473  0.2195  0.1278  1.3787
  132OSM   H14B14209   5.414   1.479   5.500 -0.7381 -0.5286 -0.0425
  132OSM   H14C14210   5.348   1.568   5.633 -1.3671 -0.1106  0.0545
  132OSM    C1314211   5.137   1.654   5.530 -0.0514 -0.1103 -0.1714
  132OSM   H13A14212   5.123   1.622   5.633  1.0013 -2.5709 -0.7049
  132OSM   H13B14213   5.036   1.652   5.493 -0.1040  0.1091 -0.0401
  132OSM   H13C14214   5.178   1.754   5.530  0.8118 -0.4242 -2.0659
  132OSM    C1214215   5.162   1.407   5.484 -0.4584 -0.3659 -0.1860
  132OSM   H12A14216   5.174   1.387   5.589 -1.2755  1.1313  0.2278
  132OSM   H12B14217   5.221   1.338   5.426  0.0752  1.0745 -1.4170
  132OSM    C1114218   5.015   1.383   5.447  0.9038  0.3679  0.6838
  132OSM   H11A14219   5.007   1.272   5.438  0.4456  0.5345 -2.0014
  132OSM   H11B14220   5.007   1.426   5.345  0.0417  2.2037  1.4851
  132OSM      P14221   4.785   1.511   5.485 -0.0502 -0.2741 -0.4055
  132OSM    O1314222   4.822   1.620   5.388  0.5524 -0.5879  0.4395
  132OSM    O1414223   4.693   1.398   5.444 -0.1763 -0.1311  0.8233
  132OSM    O1114224   4.739   1.574   5.630  0.2489  0.1798 -0.3867
  132OSM    O1214225   4.920   1.452   5.536  0.5548 -0.0034 -0.0315
  132OSM    C1S14226   4.758   1.506   5.752  0.4163 -0.0348  0.0698
  132OSM    H1S14227   4.777   1.397   5.740  3.2573  0.3153  0.7105
  132OSM    H1T14228   4.660   1.505   5.804 -0.6850 -1.3414 -1.8965
  132OSM     NF14229   4.885   1.495   5.966  0.6299  0.2202 -0.0160
  132OSM    HNF14230   4.858   1.548   6.046  0.0843 -1.7594  1.1893
  132OSM    C2S14231   4.877   1.564   5.835 -0.1343  0.2511  0.2964
  132OSM    H2S14232   4.972   1.539   5.783 -0.0606  1.5584 -0.2376
  132OSM    C3S14233   4.871   1.719   5.847  0.3847  0.4561 -0.3555
  132OSM    H3S14234   4.793   1.740   5.923  1.5112  1.7816  0.4823
  132OSM     O314235   4.835   1.796   5.738  0.1538  0.0117  0.3539
  132OSM    HO314236   4.784   1.737   5.681  0.5245 -1.2293  1.2810
  132OSM    C4S14237   5.002   1.765   5.908 -0.4071  0.4994  0.0525
  132OSM    H4S14238   5.089   1.710   5.869 -0.2449  2.3125 -2.3726
  132OSM    C5S14239   5.009   1.857   6.008 -0.4542  0.1165  0.6435
  132OSM    H5S14240   4.914   1.888   6.053 -0.8353  0.4593 -0.3705
  132OSM    C6S14241   5.134   1.906   6.077  0.6908  0.3143  0.0544
  132OSM    H6S14242   5.109   2.004   6.123 -1.5462  0.2522 -0.9038
  132OSM    H6T14243   5.213   1.927   6.001  0.9534 -1.7640 -0.2893
  132OSM    C7S14244   5.177   1.816   6.193  0.6314  0.5095 -0.4918
  132OSM    H7S14245   5.275   1.850   6.234  0.5040  0.5131 -0.1909
  132OSM    H7T14246   5.201   1.716   6.150 -2.7507  0.3340 -2.2755
  132OSM    C8S14247   5.058   1.812   6.298 -0.1276 -0.2240  0.1483
  132OSM    H8S14248   4.974   1.750   6.260 -0.7881 -0.8932  2.4962
  132OSM    H8T14249   5.031   1.920   6.306  0.5336  0.0968 -1.5528
  132OSM    C9S14250   5.089   1.752   6.440 -0.6075  0.0093 -0.1131
  132OSM    H9S14251   5.161   1.667   6.435 -0.6674  0.0208 -1.6983
  132OSM    H9T14252   4.991   1.725   6.485 -0.3627  1.2408  1.2398
  132OSM   C10S14253   5.127   1.849   6.555 -0.6368 -0.2326  0.1132
  132OSM   H10S14254   5.054   1.932   6.546  2.3554  2.8195  1.5612
  132OSM   H10T14255   5.227   1.893   6.535 -0.9021  0.2894 -0.0716
  132OSM   C11S14256   5.128   1.803   6.704  0.0947 -0.3063  0.0977
  132OSM   H11S14257   5.194   1.877   6.755  0.1186  0.0074 -0.3820
  132OSM   H11T14258   5.189   1.712   6.718 -1.4324 -1.4826 -0.6132
  132OSM   C12S14259   4.995   1.808   6.774  0.0151  0.2026  0.1863
  132OSM   H12S14260   4.923   1.739   6.725 -0.4513  0.8322 -0.0334
  132OSM   H12T14261   4.959   1.913   6.765  1.3176  0.8270  1.6195
  132OSM   C13S14262   4.992   1.774   6.920  0.3060  0.1791  0.5582
  132OSM   H13S14263   5.032   1.672   6.937 -1.1951 -0.9668 -2.1244
  132OSM   H13T14264   4.885   1.766   6.948  0.7010 -0.8233  1.9027
  132OSM   C14S14265   5.064   1.881   7.004  0.0813  0.5667 -0.0487
  132OSM   H14S14266   5.015   1.980   6.989 -1.4100 -0.2258 -0.5760
  132OSM   H14T14267   5.171   1.882   6.977 -0.0815 -1.6034 -0.9481
  132OSM   C15S14268   5.067   1.859   7.157  0.4538 -0.2722  0.6419
  132OSM   H15S14269   5.127   1.772   7.189  2.2730  0.9021  0.5585
  132OSM   H15T14270   4.959   1.856   7.186  0.1286  0.2451 -0.4604
  132OSM   C16S14271   5.102   1.978   7.244 -0.5054  0.1341 -0.1399
  132OSM   H16S14272   5.112   1.945   7.349 -1.4425  1.1623  0.2945
  132OSM   H16T14273   5.023   2.056   7.244 -0.5203  0.1497 -1.3670
  132OSM   C17S14274   5.240   2.033   7.210  0.2814  0.5511 -0.1736
  132OSM   H17S14275   5.214   2.104   7.128 -2.6525  0.7051  0.7912
  132OSM   H17T14276   5.299   1.956   7.155 -1.3015  0.2617 -1.5634
  132OSM   C18S14277   5.309   2.097   7.329 -0.1739 -0.3394  0.6921
  132OSM   H18S14278   5.417   2.116   7.311  0.1461 -1.9049  0.8537
  132OSM   H18T14279   5.307   2.024   7.413 -0.5679 -1.5946 -0.3719
  132OSM   H18U14280   5.273   2.199   7.357  0.5359  0.6360 -1.7207
  132OSM    C1F14281   4.919   1.363   5.973  0.2768  0.2098 -0.4221
  132OSM     OF14282   4.980   1.308   5.879 -0.4091 -0.6279 -0.3204
  132OSM    C2F14283   4.877   1.300   6.106 -0.1004 -0.7631  0.6706
  132OSM    H2F14284   4.963   1.271   6.171 -0.5696  0.3847  1.8478
  132OSM    H2G14285   4.820   1.205   6.092 -0.8850 -0.2482  0.3263
  132OSM    C3F14286   4.800   1.398   6.198  0.0374  0.3871  0.6271
  132OSM    H3F14287   4.700   1.424   6.159  0.3488 -0.6348 -0.9552
  132OSM    H3G14288   4.847   1.498   6.208  0.2321  0.6398 -2.1383
  132OSM    C4F14289   4.781   1.329   6.333  0.1132  0.4762 -0.3440
  132OSM    H4F14290   4.741   1.411   6.397 -0.3865  1.0946 -1.4109
  132OSM    H4G14291   4.876   1.295   6.379 -0.6310 -0.9853  0.1719
  132OSM    C5F14292   4.690   1.212   6.340  0.2433 -0.5990  0.6012
  132OSM    H5F14293   4.707   1.126   6.272  1.9911 -0.0367  0.2949
  132OSM    H5G14294   4.591   1.247   6.305  0.1718 -0.7261  0.6730
  132OSM    C6F14295   4.679   1.162   6.489 -0.2401  0.4633 -0.7269
  132OSM    H6F14296   4.631   1.230   6.562 -0.7612 -0.9892  0.3185
  132OSM    H6G14297   4.783   1.147   6.526 -0.7779  1.4646  1.3629
  132OSM    C7F14298   4.583   1.041   6.488  0.8004  0.9867 -0.7083
  132OSM    H7F14299   4.634   0.958   6.434 -1.3426  0.4541 -2.0251
  132OSM    H7G14300   4.491   1.058   6.429  0.7936  0.5231 -0.8413
  132OSM    C8F14301   4.544   1.002   6.632 -0.2321  0.0323 -0.4298
  132OSM    H8F14302   4.524   1.097   6.687 -0.4253  0.1698 -0.7339
  132OSM    H8G14303   4.635   0.967   6.685 -0.0762  1.2563  0.1552
  132OSM    C9F14304   4.442   0.889   6.631  0.4898 -0.1150  0.3820
  132OSM    H9F14305   4.410   0.866   6.528 -1.2075  1.9876  0.3700
  132OSM   C10F14306   4.375   0.837   6.732 -0.1078  0.0876  0.5184
  132OSM   H10F14307   4.304   0.755   6.715 -1.3625  1.6375 -2.4853
  132OSM   C11F14308   4.389   0.883   6.872  1.0505 -0.2329  0.2703
  132OSM   H11F14309   4.302   0.946   6.901  0.9074 -0.8719  1.2732
  132OSM   H11G14310   4.471   0.959   6.879  0.9893  0.1547 -2.1624
  132OSM   C12F14311   4.400   0.773   6.972 -0.0360 -0.0516  0.3230
  132OSM   H12F14312   4.486   0.711   6.939 -0.7330  0.5374 -2.9336
  132OSM   H12G14313   4.310   0.710   6.962 -0.1552  0.2026 -0.2403
  132OSM   C13F14314   4.419   0.833   7.111  0.0779 -0.8140  0.2275
  132OSM   H13F14315   4.325   0.880   7.148  1.2111  2.0187 -0.2198
  132OSM   H13G14316   4.493   0.916   7.115 -1.2338  0.4772 -1.0369
  132OSM   C14F14317   4.450   0.733   7.221  0.0558 -0.7608  0.8145
  132OSM   H14F14318   4.547   0.681   7.207  0.3890 -0.2110  1.0722
  132OSM   H14G14319   4.374   0.653   7.206 -2.3923  1.2193  1.8978
  132OSM   C15F14320   4.446   0.782   7.369  0.1149  0.0715 -0.5166
  132OSM   H15F14321   4.355   0.845   7.387  0.2370 -0.1193  0.8548
  132OSM   H15G14322   4.536   0.845   7.384  0.6658 -0.8876  0.3304
  132OSM   C16F14323   4.449   0.670   7.471 -0.6130  0.1856  0.0590
  132OSM   H16F14324   4.542   0.612   7.453 -0.7334  0.1556 -0.4672
  132OSM   H16G14325   4.366   0.596   7.469  0.1564 -0.8025  1.8679
  132OSM   C17F14326   4.468   0.722   7.621  0.3918 -0.0057  0.8958
  132OSM   H17F14327   4.373   0.766   7.656 -1.1289 -1.8747 -0.6483
  132OSM   H17G14328   4.549   0.798   7.622  1.5810 -1.2184  0.5524
  132OSM   C18F14329   4.514   0.614   7.718 -0.1047 -0.1079 -0.0859
  132OSM   H18F14330   4.437   0.535   7.703  1.5004 -1.2892 -2.8391
  132OSM   H18G14331   4.509   0.651   7.823 -2.0092  1.6324 -0.7276
  132OSM   H18H14332   4.618   0.577   7.700 -0.1387 -0.6358  0.7483
  133OSM      N14333   5.418   2.048   4.958  0.9192  0.2594  0.8279
  133OSM    C1514334   5.549   2.029   5.026 -0.5346  0.0199 -0.2388
  133OSM   H15A14335   5.580   1.926   5.038  0.1216  0.3767  1.3922
  133OSM   H15B14336   5.527   2.060   5.127 -1.7046 -0.1590 -0.4242
  133OSM   H15C14337   5.628   2.095   4.995 -0.3616 -0.4450 -0.8040
  133OSM    C1414338   5.350   2.171   5.000  0.6652 -0.4641  0.0390
  133OSM   H14A14339   5.307   2.161   5.098  0.8986 -1.7228  0.0290
  133OSM   H14B14340   5.274   2.199   4.928  0.4742 -0.2769  0.3121
  133OSM   H14C14341   5.429   2.245   5.002  1.4971 -1.3490  0.8632
  133OSM    C1314342   5.433   2.052   4.809  0.3489 -0.0031 -0.9435
  133OSM   H13A14343   5.462   1.952   4.779 -1.0408 -1.8068  2.9852
  133OSM   H13B14344   5.514   2.117   4.781  0.7402  1.2283  2.6228
  133OSM   H13C14345   5.342   2.077   4.757 -0.3540 -0.4447  0.0313
  133OSM    C1214346   5.328   1.925   4.978 -0.8144  0.2468  0.3949
  133OSM   H12A14347   5.380   1.840   4.937 -2.3164 -0.6251  0.2237
  133OSM   H12B14348   5.242   1.938   4.914  0.2156 -1.3790 -1.4354
  133OSM    C1114349   5.282   1.896   5.121 -0.2415 -0.1195 -0.6212
  133OSM   H11A14350   5.206   1.817   5.103 -0.6736  0.0669  0.3467
  133OSM   H11B14351   5.228   1.986   5.158 -0.1203  0.1623 -1.1127
  133OSM      P14352   5.413   1.908   5.350 -0.0279 -0.2447  0.4297
  133OSM    O1314353   5.304   1.885   5.443 -0.1595  0.2668 -0.2394
  133OSM    O1414354   5.538   1.851   5.396 -0.4306 -0.2601 -0.2857
  133OSM    O1114355   5.425   2.060   5.313  0.1568 -0.2317 -0.1574
  133OSM    O1214356   5.380   1.849   5.207 -0.2128 -0.1678 -0.1933
  133OSM    C1S14357   5.519   2.144   5.384 -0.2356 -0.4925  0.3372
  133OSM    H1S14358   5.543   2.234   5.324  0.0461 -0.9178 -0.1988
  133OSM    H1T14359   5.618   2.094   5.396 -0.2281 -0.8428 -1.0087
  133OSM     NF14360   5.516   2.116   5.616 -0.5290 -0.0536 -0.9701
  133OSM    HNF14361   5.447   2.059   5.659  1.5295 -2.1022 -0.1840
  133OSM    C2S14362   5.461   2.197   5.512  0.3992 -0.7132 -0.3424
  133OSM    H2S14363   5.501   2.300   5.522  1.3323 -1.0762 -0.2458
  133OSM    C3S14364   5.304   2.218   5.516  0.1882 -0.4081 -0.4615
  133OSM    H3S14365   5.248   2.124   5.531 -2.2645  0.6408 -2.2567
  133OSM     O314366   5.253   2.273   5.395  0.0414  0.4548 -0.0184
  133OSM    HO314367   5.321   2.275   5.328 -0.6245  1.4743 -0.6970
  133OSM    C4S14368   5.268   2.310   5.626 -0.2043 -0.3483 -0.8808
  133OSM    H4S14369   5.204   2.265   5.704  0.0868  1.1010  0.2386
  133OSM    C5S14370   5.302   2.440   5.645 -0.1564 -0.6512 -0.7327
  133OSM    H5S14371   5.354   2.492   5.563  1.6556  0.1339  0.8461
  133OSM    C6S14372   5.261   2.522   5.761 -0.1689 -0.3158  0.7667
  133OSM    H6S14373   5.160   2.491   5.794 -1.1416  2.8810  1.1690
  133OSM    H6T14374   5.249   2.630   5.735 -1.1339 -0.2835  1.2934
  133OSM    C7S14375   5.372   2.512   5.868 -0.4723 -0.2068  0.3106
  133OSM    H7S14376   5.340   2.587   5.943  0.3289  0.3654  0.0928
  133OSM    H7T14377   5.472   2.549   5.837 -0.3242 -2.1740 -1.8131
  133OSM    C8S14378   5.383   2.374   5.927 -0.1506  1.2554 -0.5851
  133OSM    H8S14379   5.456   2.309   5.874 -2.0147 -2.5494  1.1367
  133OSM    H8T14380   5.284   2.322   5.921  0.2861  0.3181  0.1308
  133OSM    C9S14381   5.434   2.373   6.072 -0.5120 -0.0686  0.3649
  133OSM    H9S14382   5.353   2.411   6.137 -0.2405 -1.5185  1.6053
  133OSM    H9T14383   5.523   2.439   6.084  0.7863 -1.5568 -0.6067
  133OSM   C10S14384   5.474   2.225   6.119 -0.3883  1.5672  0.3748
  133OSM   H10S14385   5.563   2.191   6.063 -0.1564 -2.6466  2.8254
  133OSM   H10T14386   5.389   2.158   6.093 -0.9393  2.1395  0.6548
  133OSM   C11S14387   5.501   2.227   6.267 -0.7120  0.4026  0.5464
  133OSM   H11S14388   5.407   2.265   6.312 -1.3998 -0.7871  0.1630
  133OSM   H11T14389   5.580   2.300   6.292 -1.6050  0.5898  3.1294
  133OSM   C12S14390   5.552   2.094   6.323 -0.1771 -0.0348 -0.3810
  133OSM   H12S14391   5.642   2.058   6.268  0.1539  2.0840 -1.3385
  133OSM   H12T14392   5.472   2.017   6.319 -1.1958  1.0031 -0.6622
  133OSM   C13S14393   5.606   2.105   6.464 -0.2649 -0.7475  0.5099
  133OSM   H13S14394   5.695   2.171   6.470 -0.5916 -0.3187  0.6294
  133OSM   H13T14395   5.643   2.004   6.493 -0.8680 -1.7064 -1.8170
  133OSM   C14S14396   5.508   2.141   6.580 -0.7318 -0.1125 -0.3229
  133OSM   H14S14397   5.426   2.067   6.565 -0.7119 -0.1564 -0.2174
  133OSM   H14T14398   5.470   2.245   6.582 -0.7566 -0.1289  0.4636
  133OSM   C15S14399   5.576   2.116   6.717 -0.6876 -0.7134  0.2253
  133OSM   H15S14400   5.664   2.180   6.734 -0.2041 -1.0371 -0.9518
  133OSM   H15T14401   5.598   2.007   6.723  1.2549 -0.4406 -1.0464
  133OSM   C16S14402   5.482   2.152   6.836 -0.4606  0.3764  0.4065
  133OSM   H16S14403   5.393   2.085   6.838 -0.3559  0.2055 -0.4003
  133OSM   H16T14404   5.441   2.255   6.837 -0.3425  0.4255  0.0032
  133OSM   C17S14405   5.536   2.132   6.979  0.9316 -0.1599 -0.1792
  133OSM   H17S14406   5.564   2.027   7.004 -1.0344 -1.1863 -1.9713
  133OSM   H17T14407   5.466   2.158   7.061 -0.2366 -2.5255 -0.3409
  133OSM   C18S14408   5.662   2.222   7.005  0.2108 -0.2318 -0.0917
  133OSM   H18S14409   5.745   2.210   6.933  0.9417 -0.7534  0.8041
  133OSM   H18T14410   5.687   2.194   7.110 -1.4515 -1.0221  0.1389
  133OSM   H18U14411   5.634   2.330   7.002  0.8698 -0.0752 -0.8363
  133OSM    C1F14412   5.645   2.105   5.652  0.6438  0.2010 -0.0215
  133OSM     OF14413   5.728   2.182   5.606 -0.0393 -0.1285 -0.4277
  133OSM    C2F14414   5.679   1.988   5.737  0.9014 -0.9784 -0.7188
  133OSM    H2F14415   5.752   1.928   5.680  2.4888 -0.7536  0.9962
  133OSM    H2G14416   5.584   1.938   5.767 -0.1337  2.4022  2.4357
  133OSM    C3F14417   5.751   2.031   5.865 -0.3520  0.8326  0.4442
  133OSM    H3F14418   5.698   2.117   5.910  0.4118  1.2722  0.5059
  133OSM    H3G14419   5.855   2.066   5.847 -0.4123  0.0362 -1.8130
  133OSM    C4F14420   5.761   1.923   5.978 -0.3352 -0.4814  0.3169
  133OSM    H4F14421   5.806   1.830   5.939 -4.3512 -1.6884 -2.0628
  133OSM    H4G14422   5.656   1.901   6.007 -0.4194 -1.9302 -0.9832
  133OSM    C5F14423   5.847   1.966   6.096  0.2636  0.2680 -1.4215
  133OSM    H5F14424   5.817   2.065   6.135  1.7566  0.2630 -0.1485
  133OSM    H5G14425   5.952   1.984   6.066  1.2933 -1.7841  0.6599
  133OSM    C6F14426   5.838   1.864   6.209  0.4293 -0.5127  0.1163
  133OSM    H6F14427   5.836   1.757   6.178  0.5266 -0.5072  0.0914
  133OSM    H6G14428   5.742   1.881   6.262  0.2683  0.4896 -0.4733
  133OSM    C7F14429   5.949   1.893   6.308 -0.1131 -0.7912  0.2496
  133OSM    H7F14430   5.951   2.003   6.325  0.1076 -0.8095  0.3502
  133OSM    H7G14431   6.048   1.879   6.260  0.3816  1.0551  0.6431
  133OSM    C8F14432   5.925   1.839   6.455  0.4895  0.5482  0.8328
  133OSM    H8F14433   5.902   1.730   6.449 -2.9296  1.1358  1.2155
  133OSM    H8G14434   5.835   1.882   6.504 -0.8371 -1.4156  0.2399
  133OSM    C9F14435   6.058   1.865   6.523  0.3225 -0.1422 -0.2620
  133OSM    H9F14436   6.148   1.853   6.461  1.0078 -1.5342  0.9596
  133OSM   C10F14437   6.073   1.906   6.653  0.5950 -0.6812 -1.0126
  133OSM   H10F14438   6.171   1.938   6.692 -0.9911  1.8781  1.2576
  133OSM   C11F14439   5.948   1.937   6.745 -0.0435 -0.0308 -0.7617
  133OSM   H11F14440   5.849   1.921   6.699 -0.0264 -0.9168 -0.5221
  133OSM   H11G14441   5.946   2.041   6.782 -2.6778 -0.5089  0.6581
  133OSM   C12F14442   5.953   1.849   6.873  0.3227  0.1138 -0.2102
  133OSM   H12F14443   6.053   1.850   6.922 -0.0481 -1.7108  0.6449
  133OSM   H12G14444   5.931   1.748   6.834  0.1097 -0.7957  2.1023
  133OSM   C13F14445   5.851   1.897   6.976 -0.9101  0.7091  0.1235
  133OSM   H13F14446   5.752   1.889   6.927 -2.7029  0.9124  3.4200
  133OSM   H13G14447   5.870   2.002   7.009  1.5533  0.5411 -0.5548
  133OSM   C14F14448   5.849   1.802   7.100  0.4990  0.5300 -0.3524
  133OSM   H14F14449   5.950   1.800   7.146  0.6491 -1.7304 -0.6651
  133OSM   H14G14450   5.836   1.699   7.058 -1.1596  0.9093 -0.8194
  133OSM   C15F14451   5.722   1.826   7.185  0.2550  0.6859 -0.5158
  133OSM   H15F14452   5.634   1.793   7.126  1.2374 -1.6240 -0.7617
  133OSM   H15G14453   5.716   1.934   7.212  2.0553  0.0958  2.7519
  133OSM   C16F14454   5.727   1.748   7.312 -0.3195 -0.0996  0.2884
  133OSM   H16F14455   5.810   1.779   7.378  1.4518  1.2217 -2.3882
  133OSM   H16G14456   5.734   1.638   7.298  1.6436 -0.2702  2.1258
  133OSM   C17F14457   5.590   1.770   7.380  0.9179 -0.1264  0.1964
  133OSM   H17F14458   5.554   1.683   7.440  0.3207 -0.9095 -1.2223
  133OSM   H17G14459   5.506   1.771   7.307 -0.2719 -1.0025  1.4950
  133OSM   C18F14460   5.598   1.897   7.471 -0.4051  0.0985 -0.3447
  133OSM   H18F14461   5.682   1.877   7.541 -0.9753  0.0845  0.3469
  133OSM   H18G14462   5.499   1.924   7.513  0.1464  0.4743  0.7414
  133OSM   H18H14463   5.622   1.987   7.411  0.1783  0.2622  0.1162
  134OSM      N14464   6.420   5.620   5.618  0.2291  0.5642 -0.0540
  134OSM    C1514465   6.391   5.697   5.491 -0.5745  0.0075 -0.2282
  134OSM   H15A14466   6.361   5.629   5.412  0.8475 -1.3367  0.3394
  134OSM   H15B14467   6.476   5.759   5.466 -1.2328  1.5577  1.1534
  134OSM   H15C14468   6.308   5.763   5.512 -0.6580 -0.1610 -0.0186
  134OSM    C1414469   6.463   5.728   5.708  0.3660  0.0695  0.3238
  134OSM   H14A14470   6.380   5.797   5.705  1.5394  1.5259 -0.2153
  134OSM   H14B14471   6.549   5.792   5.694 -0.8758  2.1288  1.4947
  134OSM   H14C14472   6.457   5.695   5.811 -1.5107 -1.3645 -0.1954
  134OSM    C1314473   6.292   5.568   5.677 -0.6536  0.0532 -0.2211
  134OSM   H13A14474   6.316   5.496   5.754 -0.3040 -0.8587 -1.1466
  134OSM   H13B14475   6.248   5.502   5.604  1.1625  0.1029 -1.4453
  134OSM   H13C14476   6.229   5.653   5.696  1.2640  1.1452  1.6600
  134OSM    C1214477   6.515   5.506   5.597  0.0449 -0.9166  0.4183
  134OSM   H12A14478   6.616   5.543   5.582  0.3199  0.0867  3.8554
  134OSM   H12B14479   6.484   5.465   5.502  1.5564  0.5856 -0.7903
  134OSM    C1114480   6.528   5.400   5.714  0.8469 -0.1317  0.2391
  134OSM   H11A14481   6.548   5.466   5.801  1.0910  0.4099 -0.2194
  134OSM   H11B14482   6.619   5.336   5.717  0.5979 -0.5655 -0.8294
  134OSM      P14483   6.373   5.206   5.639  0.0169 -0.3575  0.3327
  134OSM    O1314484   6.275   5.255   5.539  0.7860 -0.2319 -0.3655
  134OSM    O1414485   6.496   5.143   5.590 -0.1135 -1.1991  0.4332
  134OSM    O1114486   6.295   5.106   5.739 -1.0196 -1.0875 -0.3989
  134OSM    O1214487   6.412   5.326   5.734 -0.3404  0.2876  0.0047
  134OSM    C1S14488   6.345   5.081   5.871 -0.8301 -0.4435  0.7517
  134OSM    H1S14489   6.329   5.171   5.935  0.3801 -0.5856  1.2807
  134OSM    H1T14490   6.451   5.049   5.877 -0.9377 -0.5459  3.1095
  134OSM     NF14491   6.282   4.965   6.082  0.1026 -0.0520 -0.0332
  134OSM    HNF14492   6.334   4.885   6.109 -0.0056 -0.2872 -0.5110
  134OSM    C2S14493   6.261   4.971   5.935 -0.0568 -0.2967 -0.5026
  134OSM    H2S14494   6.155   4.997   5.913 -0.2772 -0.0574  0.7672
  134OSM    C3S14495   6.291   4.837   5.866  0.5502 -0.0994 -0.3194
  134OSM    H3S14496   6.396   4.813   5.892  1.0012  0.7242 -1.2920
  134OSM     O314497   6.281   4.839   5.726 -0.1821 -0.3484  0.5445
  134OSM    HO314498   6.264   4.932   5.708 -3.0185 -0.7348  0.7994
  134OSM    C4S14499   6.198   4.732   5.915  0.8511 -0.2580 -0.3533
  134OSM    H4S14500   6.102   4.736   5.861 -0.9581  0.2211  2.6618
  134OSM    C5S14501   6.211   4.627   5.996  0.0564 -0.4217  0.3115
  134OSM    H5S14502   6.309   4.621   6.045  0.9587  2.4717 -0.9397
  134OSM    C6S14503   6.103   4.529   6.042 -0.1324  0.6881 -0.3505
  134OSM    H6S14504   6.149   4.432   6.070  0.1654  0.7349 -0.6663
  134OSM    H6T14505   6.029   4.513   5.961 -0.4296 -0.4249  0.1289
  134OSM    C7S14506   6.041   4.585   6.167 -0.2811  0.8645 -0.3615
  134OSM    H7S14507   5.989   4.682   6.152 -1.1588  0.6868  1.3228
  134OSM    H7T14508   6.117   4.607   6.244 -3.2100  1.1026  2.6825
  134OSM    C8S14509   5.936   4.494   6.236  0.1531 -0.7017 -0.4817
  134OSM    H8S14510   5.987   4.397   6.250  0.8266 -0.0777  1.8194
  134OSM    H8T14511   5.846   4.484   6.171 -0.5198 -2.0182  0.5914
  134OSM    C9S14512   5.912   4.547   6.377 -0.2331 -0.3093  0.4899
  134OSM    H9S14513   5.839   4.479   6.425 -1.1622 -0.0289 -0.4936
  134OSM    H9T14514   5.863   4.645   6.394 -0.1147 -0.0045 -0.8376
  134OSM   C10S14515   6.045   4.548   6.467  0.1824  0.1818  0.1512
  134OSM   H10S14516   6.097   4.645   6.448 -0.9961  0.7643 -0.1900
  134OSM   H10T14517   6.104   4.457   6.446 -1.2553 -0.6805 -0.3064
  134OSM   C11S14518   6.022   4.557   6.620 -0.2444  0.0287  0.9023
  134OSM   H11S14519   5.928   4.499   6.630 -0.8078  0.7325 -0.1693
  134OSM   H11T14520   5.986   4.660   6.641 -2.4617 -0.3551 -0.7114
  134OSM   C12S14521   6.138   4.507   6.704 -0.5140 -0.0962  0.4699
  134OSM   H12S14522   6.233   4.556   6.678  0.1669 -1.2170  0.7585
  134OSM   H12T14523   6.157   4.397   6.699 -0.6040 -0.2389  2.5808
  134OSM   C13S14524   6.115   4.543   6.846  0.6737 -0.1220 -0.8750
  134OSM   H13S14525   6.012   4.517   6.880  0.9726  1.0564  1.0666
  134OSM   H13T14526   6.130   4.653   6.844  0.3695 -0.0527  0.2687
  134OSM   C14S14527   6.235   4.488   6.931  0.3194 -0.1065 -0.5431
  134OSM   H14S14528   6.329   4.523   6.883  0.7015 -0.6230 -0.1812
  134OSM   H14T14529   6.234   4.377   6.925  1.9458 -0.2013  0.4445
  134OSM   C15S14530   6.228   4.531   7.074 -0.8029  0.2003  0.1315
  134OSM   H15S14531   6.128   4.507   7.115 -0.5167 -2.2302 -0.4325
  134OSM   H15T14532   6.242   4.641   7.077  0.4895  0.2353 -3.2086
  134OSM   C16S14533   6.326   4.466   7.166 -0.3039 -0.3796 -0.7266
  134OSM   H16S14534   6.315   4.357   7.147  0.9790 -0.5827 -0.3738
  134OSM   H16T14535   6.288   4.483   7.269  1.8624  1.3771 -0.1606
  134OSM   C17S14536   6.474   4.507   7.157 -0.4230 -0.4128 -0.2574
  134OSM   H17S14537   6.506   4.516   7.050  0.2998 -0.5599 -0.0615
  134OSM   H17T14538   6.545   4.427   7.187  0.0891  0.0211 -0.2871
  134OSM   C18S14539   6.509   4.640   7.226 -0.3294 -0.1615  0.2070
  134OSM   H18S14540   6.455   4.728   7.186 -1.3455  0.0712  1.9804
  134OSM   H18T14541   6.612   4.670   7.198 -0.8724  1.8815  0.2831
  134OSM   H18U14542   6.490   4.635   7.335  0.8487  0.8210  0.4790
  134OSM    C1F14543   6.230   5.069   6.151  0.1705  0.5259  0.2451
  134OSM     OF14544   6.155   5.143   6.098  0.2489 -0.3637  0.4214
  134OSM    C2F14545   6.259   5.068   6.297  0.2600 -0.8843 -0.3294
  134OSM    H2F14546   6.370   5.065   6.303  0.4728  1.8417 -1.6067
  134OSM    H2G14547   6.205   4.981   6.342 -2.9081  2.0941  2.1432
  134OSM    C3F14548   6.205   5.192   6.360  0.3397 -0.6468  0.2278
  134OSM    H3F14549   6.097   5.213   6.351  0.9114  2.0137 -1.8527
  134OSM    H3G14550   6.256   5.277   6.310 -2.6210 -0.2828 -2.5157
  134OSM    C4F14551   6.245   5.187   6.508  0.6263  0.2041  0.0050
  134OSM    H4F14552   6.350   5.151   6.517  0.1427 -1.2836  0.0606
  134OSM    H4G14553   6.186   5.107   6.558 -0.1870  0.7023 -0.1399
  134OSM    C5F14554   6.227   5.321   6.567  0.1356 -0.2497 -0.2876
  134OSM    H5F14555   6.139   5.386   6.546 -1.3674 -1.9969  0.2911
  134OSM    H5G14556   6.310   5.375   6.517  2.1183 -2.0419  0.9276
  134OSM    C6F14557   6.258   5.331   6.719 -0.1680 -0.6625  0.4983
  134OSM    H6F14558   6.246   5.435   6.756 -0.2747 -0.8631  1.0433
  134OSM    H6G14559   6.362   5.298   6.739  0.7047  1.6173 -0.0002
  134OSM    C7F14560   6.167   5.257   6.815  0.1147  0.1497 -0.3845
  134OSM    H7F14561   6.192   5.151   6.791  1.5240  0.2970  0.3340
  134OSM    H7G14562   6.058   5.268   6.796  0.2800  0.5663 -1.1050
  134OSM    C8F14563   6.191   5.294   6.964  0.2662  0.3486  0.1180
  134OSM    H8F14564   6.114   5.239   7.022 -0.0853  0.5381 -0.1648
  134OSM    H8G14565   6.157   5.399   6.978 -1.3774 -0.2861  1.1615
  134OSM    C9F14566   6.325   5.284   7.030 -0.2870  0.3663 -0.1085
  134OSM    H9F14567   6.355   5.377   7.080 -0.6991  0.2566  0.3540
  134OSM   C10F14568   6.401   5.178   7.051 -0.6808 -0.0877 -0.5987
  134OSM   H10F14569   6.490   5.206   7.110 -0.3349  1.7027 -1.8733
  134OSM   C11F14570   6.377   5.037   7.021 -0.7277  0.0067  0.6460
  134OSM   H11F14571   6.269   5.018   7.007 -0.2773 -0.5412 -3.1842
  134OSM   H11G14572   6.426   4.970   7.094  1.0170  0.6996  0.1807
  134OSM   C12F14573   6.435   4.996   6.878 -0.4348 -0.0772 -0.3704
  134OSM   H12F14574   6.545   5.002   6.865 -0.5219  3.1531 -0.2926
  134OSM   H12G14575   6.393   5.069   6.806 -2.2915 -0.2775  0.4580
  134OSM   C13F14576   6.389   4.852   6.855  0.4253 -0.7114 -0.1747
  134OSM   H13F14577   6.280   4.845   6.835 -0.0587  3.2272  0.2446
  134OSM   H13G14578   6.410   4.795   6.948 -1.0506 -0.2133  0.4913
  134OSM   C14F14579   6.444   4.768   6.734  0.0995  0.0254  0.0554
  134OSM   H14F14580   6.398   4.666   6.738 -0.6219  0.2639 -1.4956
  134OSM   H14G14581   6.549   4.743   6.761 -0.1414 -0.7010  0.3474
  134OSM   C15F14582   6.430   4.821   6.587 -0.3636  0.1757 -0.7348
  134OSM   H15F14583   6.494   4.911   6.572 -2.7477  1.9464 -0.7452
  134OSM   H15G14584   6.329   4.864   6.572 -0.7439 -0.5988 -0.4224
  134OSM   C16F14585   6.479   4.718   6.485  0.3382  0.3716 -0.3924
  134OSM   H16F14586   6.427   4.630   6.527  1.5710  0.1572  0.7383
  134OSM   H16G14587   6.586   4.692   6.497  0.0714 -0.3186  0.5894
  134OSM   C17F14588   6.439   4.743   6.338 -0.0435 -0.0086 -0.1366
  134OSM   H17F14589   6.336   4.783   6.325  0.5325  0.8179 -2.7575
  134OSM   H17G14590   6.439   4.648   6.281 -3.2247 -0.0310 -0.2555
  134OSM   C18F14591   6.544   4.841   6.283 -0.1031  0.4110  0.2630
  134OSM   H18F14592   6.525   4.847   6.174  1.4008  1.6888  0.0407
  134OSM   H18G14593   6.647   4.800   6.289  0.8831  2.2150 -2.5416
  134OSM   H18H14594   6.546   4.947   6.318 -0.5409  0.8312 -0.9462
  135OSM      N14595   5.507   5.589   5.490  0.0482 -0.3631  0.3774
  135OSM    C1514596   5.580   5.514   5.593 -0.0969  0.2691  0.4878
  135OSM   H15A14597   5.519   5.445   5.650 -0.1730  0.5432  0.7382
  135OSM   H15B14598   5.632   5.589   5.651 -0.8103  3.0545 -2.2572
  135OSM   H15C14599   5.649   5.446   5.545 -2.1382  0.4570 -3.0389
  135OSM    C1414600   5.420   5.494   5.417 -0.0603  0.0489 -0.1342
  135OSM   H14A14601   5.374   5.546   5.334  0.1845  2.9554  1.4115
  135OSM   H14B14602   5.337   5.466   5.480  0.4169  1.0426  0.9721
  135OSM   H14C14603   5.471   5.406   5.380 -1.7229 -0.2936 -1.7560
  135OSM    C1314604   5.418   5.688   5.562 -0.8426  0.0474 -0.1842
  135OSM   H13A14605   5.340   5.646   5.622  0.3152 -1.8047  0.0981
  135OSM   H13B14606   5.357   5.743   5.492  0.2469 -0.4119 -1.5706
  135OSM   H13C14607   5.476   5.757   5.621 -0.5511 -2.0439  2.1129
  135OSM    C1214608   5.595   5.668   5.392  0.2841 -0.4681 -0.2513
  135OSM   H12A14609   5.542   5.727   5.318  0.4756  1.1730  0.8727
  135OSM   H12B14610   5.656   5.596   5.339  0.9726 -0.5951  0.6836
  135OSM    C1114611   5.709   5.757   5.451 -0.5522  0.3725  0.2684
  135OSM   H11A14612   5.769   5.800   5.368  0.8244  1.8456  1.9446
  135OSM   H11B14613   5.776   5.689   5.507 -2.7144 -1.8707  0.2888
  135OSM      P14614   5.616   5.990   5.484 -0.3445 -0.3314 -0.0785
  135OSM    O1314615   5.684   6.034   5.358 -0.1346  0.4192  0.0223
  135OSM    O1414616   5.472   5.981   5.477  0.1883 -0.7209 -0.2432
  135OSM    O1114617   5.650   6.105   5.590 -0.1737 -0.1862  0.1188
  135OSM    O1214618   5.674   5.852   5.544  0.0468 -0.8624 -0.1199
  135OSM    C1S14619   5.599   6.109   5.722  1.1011  0.2205  0.2487
  135OSM    H1S14620   5.545   6.015   5.747 -0.1289  0.6799 -0.6215
  135OSM    H1T14621   5.527   6.193   5.724  0.0339 -0.6160 -1.1229
  135OSM     NF14622   5.649   6.159   5.961 -0.0853 -0.5724 -0.0066
  135OSM    HNF14623   5.608   6.247   5.986  0.5189 -0.0556 -0.7970
  135OSM    C2S14624   5.707   6.145   5.828 -0.1430 -0.0768 -0.2820
  135OSM    H2S14625   5.777   6.060   5.818 -0.2563 -0.1364 -0.5670
  135OSM    C3S14626   5.789   6.272   5.788 -0.2381 -0.7915  0.2395
  135OSM    H3S14627   5.715   6.355   5.780 -1.8007 -2.2388 -1.4195
  135OSM     O314628   5.843   6.269   5.659 -0.4159 -0.0229  0.3636
  135OSM    HO314629   5.780   6.205   5.625 -1.1914  0.2207  1.3032
  135OSM    C4S14630   5.893   6.301   5.897 -0.5581 -0.5984  0.6162
  135OSM    H4S14631   5.853   6.351   5.987  0.7390  1.5383  0.0943
  135OSM    C5S14632   6.027   6.268   5.901  1.5855 -0.1347  0.4071
  135OSM    H5S14633   6.066   6.195   5.828 -0.4391  0.3287 -1.2162
  135OSM    C6S14634   6.116   6.298   6.012 -0.2085 -0.0341 -0.9899
  135OSM    H6S14635   6.061   6.352   6.092  0.5545 -0.8023  0.0843
  135OSM    H6T14636   6.207   6.350   5.974  0.9563 -1.7170 -0.6167
  135OSM    C7S14637   6.172   6.167   6.077  0.7347 -0.2744 -0.2532
  135OSM    H7S14638   6.249   6.183   6.156  0.7948 -0.4582 -0.2748
  135OSM    H7T14639   6.228   6.112   5.999  1.7330  0.8491 -0.3650
  135OSM    C8S14640   6.062   6.063   6.124 -0.0196 -0.3734  0.2499
  135OSM    H8S14641   6.039   5.998   6.037 -3.0923  1.5420 -0.5306
  135OSM    H8T14642   5.972   6.118   6.158 -0.0103 -1.8326  2.9454
  135OSM    C9S14643   6.090   5.984   6.256  0.3174 -0.1725 -0.5455
  135OSM    H9S14644   6.003   5.919   6.283 -0.3598 -0.4968 -3.2538
  135OSM    H9T14645   6.119   6.053   6.339  1.0101 -1.1897  0.0826
  135OSM   C10S14646   6.211   5.889   6.246  1.1641 -0.1225  0.5254
  135OSM   H10S14647   6.304   5.946   6.223  0.9606  0.0742  0.1780
  135OSM   H10T14648   6.193   5.816   6.164  1.5738  0.8674 -0.4892
  135OSM   C11S14649   6.236   5.829   6.380  0.6410  0.3370 -0.1398
  135OSM   H11S14650   6.149   5.780   6.429  0.6278 -0.6231 -1.1038
  135OSM   H11T14651   6.272   5.914   6.442  1.2582 -0.7093  0.9886
  135OSM   C12S14652   6.365   5.737   6.379  0.1099  0.5032 -0.1929
  135OSM   H12S14653   6.447   5.801   6.343  1.8157 -1.8770 -0.7729
  135OSM   H12T14654   6.359   5.653   6.307  0.7770 -0.0531  0.3875
  135OSM   C13S14655   6.381   5.661   6.515 -1.0701 -0.5039 -0.3423
  135OSM   H13S14656   6.464   5.589   6.497 -1.3586 -0.4737 -1.9017
  135OSM   H13T14657   6.284   5.613   6.540 -0.7416 -1.4086 -0.7432
  135OSM   C14S14658   6.417   5.755   6.627  0.0682  0.0366 -0.7214
  135OSM   H14S14659   6.332   5.825   6.644  0.8586  0.5547  1.4037
  135OSM   H14T14660   6.503   5.820   6.599 -0.6010  0.6242 -1.4478
  135OSM   C15S14661   6.445   5.683   6.752 -0.5438 -0.2095 -0.8792
  135OSM   H15S14662   6.525   5.611   6.726  0.5209 -0.2974  2.2224
  135OSM   H15T14663   6.365   5.620   6.796 -0.7326  0.1987 -0.6349
  135OSM   C16S14664   6.501   5.768   6.866 -0.8052  0.4273 -0.5036
  135OSM   H16S14665   6.419   5.837   6.897 -1.3572  0.6447 -2.3640
  135OSM   H16T14666   6.593   5.819   6.832  0.2150 -0.1457  1.2832
  135OSM   C17S14667   6.538   5.668   6.975  0.1404  0.0062 -0.1131
  135OSM   H17S14668   6.609   5.594   6.934  1.1722 -0.7491  2.8385
  135OSM   H17T14669   6.454   5.620   7.029  2.2308 -0.2390  3.1951
  135OSM   C18S14670   6.597   5.738   7.101 -0.2035 -0.5548  0.1302
  135OSM   H18S14671   6.628   5.666   7.180 -1.3395 -2.2487 -0.9019
  135OSM   H18T14672   6.542   5.823   7.146  0.4148  0.9714 -1.8773
  135OSM   H18U14673   6.694   5.784   7.073 -1.3072  1.0140 -1.2920
  135OSM    C1F14674   5.607   6.050   6.025 -0.4085  0.4992  0.2531
  135OSM     OF14675   5.612   5.939   5.975 -0.1781  0.5244 -0.1510
  135OSM    C2F14676   5.555   6.062   6.164  0.1053 -0.2322  1.0691
  135OSM    H2F14677   5.445   6.073   6.149 -0.0795 -1.1016  1.7457
  135OSM    H2G14678   5.597   6.151   6.214 -0.2650 -0.4762  1.8229
  135OSM    C3F14679   5.578   5.943   6.258  0.0694  0.1855  0.6081
  135OSM    H3F14680   5.684   5.912   6.270 -0.1102  0.3401  3.2110
  135OSM    H3G14681   5.533   5.849   6.219  0.5408  0.0625  0.3557
  135OSM    C4F14682   5.528   5.973   6.398 -0.2322 -0.2563 -0.1408
  135OSM    H4F14683   5.431   6.027   6.401 -0.9146 -1.4733  1.5098
  135OSM    H4G14684   5.601   6.042   6.446 -1.0510 -0.1107  0.9481
  135OSM    C5F14685   5.518   5.836   6.479 -0.2378  0.5423 -0.0195
  135OSM    H5F14686   5.617   5.788   6.495 -0.3612  0.7715  1.5709
  135OSM    H5G14687   5.461   5.762   6.418  0.5241  1.4938 -1.9760
  135OSM    C6F14688   5.462   5.858   6.620 -0.2882  0.1539 -0.3793
  135OSM    H6F14689   5.352   5.874   6.621 -0.4116 -0.6440 -0.6618
  135OSM    H6G14690   5.510   5.952   6.654 -1.4704  1.0915 -1.1994
  135OSM    C7F14691   5.498   5.741   6.722 -0.1560  0.0537 -0.0703
  135OSM    H7F14692   5.609   5.734   6.733 -0.0064  0.3921 -1.1909
  135OSM    H7G14693   5.461   5.648   6.674  1.3794 -0.4679 -0.2932
  135OSM    C8F14694   5.425   5.753   6.861  0.1231  0.0311 -0.2949
  135OSM    H8F14695   5.316   5.772   6.851  0.0827  0.1055  0.2746
  135OSM    H8G14696   5.471   5.841   6.910  0.5574 -1.1988  1.6589
  135OSM    C9F14697   5.460   5.629   6.948  0.4122 -0.3839  0.0484
  135OSM    H9F14698   5.414   5.534   6.919  1.0001 -0.6919  0.1027
  135OSM   C10F14699   5.547   5.626   7.058 -0.4363 -0.2898 -0.6014
  135OSM   H10F14700   5.549   5.534   7.117 -1.7824 -0.4599 -0.7926
  135OSM   C11F14701   5.630   5.740   7.112  0.4770 -0.1920  0.7645
  135OSM   H11F14702   5.573   5.836   7.118  1.5746  0.4915  0.6516
  135OSM   H11G14703   5.717   5.762   7.046  0.2027  1.9075  1.0156
  135OSM   C12F14704   5.684   5.718   7.251  0.4254  0.2870 -0.4008
  135OSM   H12F14705   5.715   5.816   7.293  1.2921  0.1321 -0.6647
  135OSM   H12G14706   5.774   5.655   7.238 -0.0604 -1.2032  2.6387
  135OSM   C13F14707   5.590   5.653   7.350  0.3269  0.8332  0.0166
  135OSM   H13F14708   5.592   5.544   7.330 -0.2919  0.4171  1.9809
  135OSM   H13G14709   5.490   5.701   7.350  0.4225  1.0437  0.5269
  135OSM   C14F14710   5.636   5.649   7.497 -0.2072  0.1797  0.1479
  135OSM   H14F14711   5.552   5.613   7.560 -0.4904 -2.1636 -1.4180
  135OSM   H14G14712   5.667   5.748   7.536  2.3362 -0.5263  0.1008
  135OSM   C15F14713   5.760   5.559   7.533 -0.3683  0.7914  0.4887
  135OSM   H15F14714   5.842   5.597   7.468 -0.7232 -0.0485 -0.4731
  135OSM   H15G14715   5.744   5.453   7.504  2.6354 -0.0892  1.6518
  135OSM   C16F14716   5.796   5.556   7.681 -0.7689  0.2584  0.6082
  135OSM   H16F14717   5.721   5.507   7.747  0.7878 -1.5250  1.1490
  135OSM   H16G14718   5.823   5.656   7.720  2.4362 -0.0883 -0.4072
  135OSM   C17F14719   5.917   5.462   7.696 -0.1913 -0.4436  0.0832
  135OSM   H17F14720   6.003   5.502   7.636 -0.7300 -1.3545 -1.3622
  135OSM   H17G14721   5.891   5.363   7.653 -1.2840 -1.1241  2.2218
  135OSM   C18F14722   5.955   5.439   7.844 -0.2731  0.0872 -0.1315
  135OSM   H18F14723   6.053   5.391   7.864  0.4139  0.4589 -2.2741
  135OSM   H18G14724   5.879   5.371   7.886  1.0287 -1.0029  0.5500
  135OSM   H18H14725   5.954   5.539   7.894 -0.5156  0.5427 -1.0147
  136OSM      N14726   4.235   6.886   5.050 -0.6171  0.0514 -0.4401
  136OSM    C1514727   4.288   7.001   4.975 -0.3521  0.3041  0.4614
  136OSM   H15A14728   4.258   6.995   4.871  1.0700 -1.9778  0.1178
  136OSM   H15B14729   4.396   7.004   4.973 -0.3321  1.9349  1.7029
  136OSM   H15C14730   4.264   7.097   5.020  2.1763  1.0146  0.4732
  136OSM    C1414731   4.091   6.862   5.024  0.4833  0.6096 -0.2052
  136OSM   H14A14732   4.069   6.890   4.922  0.8693 -1.3178 -0.8633
  136OSM   H14B14733   4.041   6.931   5.090 -1.1426 -0.3934 -0.3400
  136OSM   H14C14734   4.049   6.763   5.040  1.4145 -0.1904 -2.3533
  136OSM    C1314735   4.309   6.761   5.011 -0.1710  0.1517 -0.5926
  136OSM   H13A14736   4.416   6.758   5.022 -0.2294 -4.2245  0.6864
  136OSM   H13B14737   4.290   6.733   4.908  0.1413  1.7417 -1.1154
  136OSM   H13C14738   4.269   6.681   5.071  0.5229  0.3633  0.1603
  136OSM    C1214739   4.267   6.916   5.202 -0.1198  0.3532 -0.3684
  136OSM   H12A14740   4.209   7.006   5.219 -0.6310 -0.1574  0.6438
  136OSM   H12B14741   4.373   6.929   5.219  0.2138 -1.5517 -0.8001
  136OSM    C1114742   4.221   6.810   5.300 -0.1683  0.6253  0.2804
  136OSM   H11A14743   4.111   6.817   5.296 -0.0715  1.8628 -2.4737
  136OSM   H11B14744   4.244   6.842   5.404 -0.7216 -0.0333  0.6121
  136OSM      P14745   4.220   6.546   5.335 -0.4544  0.1808 -0.3052
  136OSM    O1314746   4.076   6.541   5.289 -0.6961  0.1664 -0.3325
  136OSM    O1414747   4.307   6.436   5.304 -0.7895  0.2480 -0.2775
  136OSM    O1114748   4.214   6.554   5.493 -0.8198 -0.6560  0.2904
  136OSM    O1214749   4.283   6.685   5.280 -0.1167 -0.7062 -0.4592
  136OSM    C1S14750   4.173   6.658   5.578 -0.4063 -0.5575 -1.1815
  136OSM    H1S14751   4.100   6.728   5.533  1.4948  1.7458 -0.8890
  136OSM    H1T14752   4.260   6.712   5.622 -2.1459  0.1951  1.6178
  136OSM     NF14753   4.091   6.723   5.794  0.3551  0.5423  0.1180
  136OSM    HNF14754   4.161   6.756   5.856  0.3965  0.7245 -0.0229
  136OSM    C2S14755   4.114   6.602   5.715  0.0585  0.5294  0.1183
  136OSM    H2S14756   4.014   6.557   5.696  0.1060  0.0426  0.9719
  136OSM    C3S14757   4.206   6.492   5.772 -0.3944 -0.1582 -0.0124
  136OSM    H3S14758   4.309   6.532   5.763 -0.3866 -0.2266 -0.2613
  136OSM     O314759   4.196   6.368   5.690 -0.3447 -0.0960  0.3062
  136OSM    HO314760   4.176   6.395   5.600  0.0706  2.0718  0.7991
  136OSM    C4S14761   4.176   6.459   5.910 -0.2315 -0.7397 -0.5651
  136OSM    H4S14762   4.211   6.527   5.989 -0.9859 -2.0035  0.8989
  136OSM    C5S14763   4.095   6.364   5.959 -0.0720 -0.6416  0.3089
  136OSM    H5S14764   4.052   6.301   5.879 -1.9444  1.8416 -0.7745
  136OSM    C6S14765   4.063   6.332   6.103  0.4446  0.0556 -0.5370
  136OSM    H6S14766   4.039   6.224   6.106 -1.6100  0.4844  1.2206
  136OSM    H6T14767   3.972   6.390   6.132  0.8131 -0.7350  2.5093
  136OSM    C7S14768   4.166   6.361   6.215 -0.9202  0.2322 -0.3588
  136OSM    H7S14769   4.202   6.465   6.207  0.5660 -0.1205  1.1007
  136OSM    H7T14770   4.251   6.291   6.201 -4.0909 -3.5643 -2.7270
  136OSM    C8S14771   4.098   6.337   6.348 -0.4915 -0.1446 -0.7319
  136OSM    H8S14772   4.055   6.235   6.353  3.5471 -2.1259 -1.5700
  136OSM    H8T14773   4.021   6.415   6.361  1.3382  2.0487 -2.1244
  136OSM    C9S14774   4.200   6.354   6.464  0.0104 -0.5572  0.0794
  136OSM    H9S14775   4.248   6.453   6.444 -1.9517  0.2830 -0.7261
  136OSM    H9T14776   4.277   6.277   6.442 -0.7875 -2.0129  2.1440
  136OSM   C10S14777   4.138   6.345   6.605 -0.7505  0.2921  0.8171
  136OSM   H10S14778   4.045   6.287   6.588  0.2408 -0.8702 -0.9244
  136OSM   H10T14779   4.121   6.447   6.646  1.1062  1.3837 -0.8885
  136OSM   C11S14780   4.225   6.254   6.708  0.1620 -0.1108  0.8454
  136OSM   H11S14781   4.330   6.280   6.683 -1.1047  1.5669 -3.7651
  136OSM   H11T14782   4.214   6.147   6.682 -2.1756  0.6655 -1.7474
  136OSM   C12S14783   4.194   6.272   6.853  0.9622 -0.3574 -0.0009
  136OSM   H12S14784   4.088   6.267   6.883  1.2290  0.7010  1.2202
  136OSM   H12T14785   4.222   6.375   6.885  1.4105  0.1553 -1.9065
  136OSM   C13S14786   4.271   6.170   6.932 -0.4719 -0.3432  0.0640
  136OSM   H13S14787   4.375   6.164   6.894 -0.2062 -0.5099  0.8236
  136OSM   H13T14788   4.230   6.071   6.903 -2.0684  0.6545 -1.2928
  136OSM   C14S14789   4.276   6.199   7.082  0.2665 -0.1935  0.1211
  136OSM   H14S14790   4.170   6.216   7.110 -0.6715  0.1925 -3.2864
  136OSM   H14T14791   4.330   6.293   7.108 -1.2584  0.7593 -0.0335
  136OSM   C15S14792   4.331   6.082   7.167  0.1068  0.1527  0.1895
  136OSM   H15S14793   4.440   6.072   7.148 -0.0199 -1.3965  0.1520
  136OSM   H15T14794   4.279   5.986   7.146 -0.9805  1.0043 -1.1830
  136OSM   C16S14795   4.305   6.101   7.319 -0.4341 -0.3743 -0.5696
  136OSM   H16S14796   4.335   6.012   7.379 -2.8201  0.0551  1.4531
  136OSM   H16T14797   4.195   6.088   7.324 -0.3947 -0.8115 -0.7360
  136OSM   C17S14798   4.383   6.218   7.387 -0.4664  0.2753 -0.2497
  136OSM   H17S14799   4.351   6.313   7.340  0.9687  0.2963 -1.2774
  136OSM   H17T14800   4.491   6.216   7.360  0.1792 -0.7183  2.1626
  136OSM   C18S14801   4.364   6.220   7.541 -0.4100  0.0055 -0.4206
  136OSM   H18S14802   4.413   6.136   7.595  1.4047  2.0846  1.3776
  136OSM   H18T14803   4.256   6.230   7.565 -0.1131  0.4250  0.8411
  136OSM   H18U14804   4.415   6.312   7.578 -1.2464 -0.3991  1.9082
  136OSM    C1F14805   3.988   6.808   5.762 -0.2814 -0.0450  0.0523
  136OSM     OF14806   3.915   6.773   5.679  0.8166  0.4536  0.3816
  136OSM    C2F14807   3.972   6.950   5.824 -0.5522  0.3519  0.9526
  136OSM    H2F14808   3.985   7.024   5.743 -2.6614  0.0240  0.2473
  136OSM    H2G14809   4.051   6.959   5.902  1.0877 -0.8214 -0.4935
  136OSM    C3F14810   3.836   6.980   5.886  0.4188  1.5487 -0.3707
  136OSM    H3F14811   3.757   6.968   5.810  0.5824 -1.1128 -0.2108
  136OSM    H3G14812   3.839   7.085   5.922  0.8556  0.9437  1.4739
  136OSM    C4F14813   3.799   6.886   6.005 -0.5837 -0.6502  0.7385
  136OSM    H4F14814   3.797   6.779   5.975  0.0077 -0.4141 -0.1876
  136OSM    H4G14815   3.697   6.919   6.034 -0.2500  1.6442 -0.4488
  136OSM    C5F14816   3.897   6.905   6.117 -0.7597  0.4148 -0.3894
  136OSM    H5F14817   3.913   7.014   6.129 -2.6460  0.8047 -0.9986
  136OSM    H5G14818   3.999   6.872   6.089  0.1799 -0.3075  3.3204
  136OSM    C6F14819   3.848   6.829   6.243 -0.7758 -0.1660 -0.0480
  136OSM    H6F14820   3.865   6.719   6.233 -0.3033 -0.0146 -1.0679
  136OSM    H6G14821   3.738   6.841   6.255 -0.8954  2.4718 -2.6527
  136OSM    C7F14822   3.929   6.871   6.368 -0.3414  0.7174 -0.4026
  136OSM    H7F14823   3.909   6.977   6.396 -0.3611  0.0222  2.4150
  136OSM    H7G14824   4.035   6.881   6.338 -0.5384 -0.1541 -1.4633
  136OSM    C8F14825   3.893   6.782   6.487 -0.0850 -0.2566  0.4500
  136OSM    H8F14826   3.930   6.680   6.464  1.9214  0.4601  0.3078
  136OSM    H8G14827   3.783   6.770   6.476  0.1382 -0.8641 -1.5646
  136OSM    C9F14828   3.943   6.837   6.615  0.1374  0.1389  0.1642
  136OSM    H9F14829   4.045   6.875   6.628 -0.2772  0.9276  1.2654
  136OSM   C10F14830   3.887   6.804   6.733  0.2087 -0.8432 -0.3405
  136OSM   H10F14831   3.930   6.837   6.829 -1.6325 -0.0536  0.2608
  136OSM   C11F14832   3.778   6.707   6.754  0.5151 -0.1617 -0.6650
  136OSM   H11F14833   3.803   6.621   6.688  1.1476 -0.2696 -0.2966
  136OSM   H11G14834   3.679   6.748   6.724  1.6525  2.8151 -0.7004
  136OSM   C12F14835   3.775   6.654   6.903 -0.1995  0.0258 -0.2533
  136OSM   H12F14836   3.875   6.614   6.929 -1.3948 -2.1110  1.3854
  136OSM   H12G14837   3.709   6.567   6.920  0.0381  0.0404  0.7728
  136OSM   C13F14838   3.736   6.754   7.007  0.8843 -0.2584 -0.4080
  136OSM   H13F14839   3.628   6.777   6.997  0.4407 -1.1640  1.7408
  136OSM   H13G14840   3.795   6.848   7.000  2.6300 -1.0549  2.3524
  136OSM   C14F14841   3.753   6.692   7.149 -0.3760  0.3981 -0.2857
  136OSM   H14F14842   3.859   6.659   7.162 -0.8802 -0.8723  0.8574
  136OSM   H14G14843   3.692   6.600   7.137  1.6268 -1.1120  0.3878
  136OSM   C15F14844   3.689   6.776   7.261 -0.2485 -0.2928 -0.4488
  136OSM   H15F14845   3.693   6.882   7.227 -0.4559 -0.2614 -0.3730
  136OSM   H15G14846   3.742   6.780   7.358 -1.4022  0.5967  0.1628
  136OSM   C16F14847   3.543   6.739   7.295 -0.1136  0.5964  0.3198
  136OSM   H16F14848   3.528   6.629   7.301 -1.0438  0.7259  0.5160
  136OSM   H16G14849   3.482   6.766   7.207  1.4916  1.2938 -0.6187
  136OSM   C17F14850   3.484   6.806   7.420 -0.3614  0.7844  0.4842
  136OSM   H17F14851   3.376   6.813   7.399 -0.6517  1.3346  2.0076
  136OSM   H17G14852   3.520   6.908   7.448  2.2357  0.0598  0.1041
  136OSM   C18F14853   3.486   6.713   7.541  0.6386  0.6995  0.5368
  136OSM   H18F14854   3.591   6.688   7.568  0.1592 -0.9698  0.9169
  136OSM   H18G14855   3.413   6.630   7.530  1.6760  0.0043 -1.7037
  136OSM   H18H14856   3.455   6.777   7.626  0.2393 -0.3530  1.1913
  137OSM      N14857   0.954   4.947   5.678 -0.3428  0.4824  0.5328
  137OSM    C1514858   1.046   4.833   5.706  0.1347  0.3471  0.5005
  137OSM   H15A14859   1.088   4.845   5.804  0.3986  2.4765  0.1740
  137OSM   H15B14860   1.125   4.816   5.634  2.8004  2.3146  2.7340
  137OSM   H15C14861   0.990   4.741   5.719 -1.0116  1.2869  2.7529
  137OSM    C1414862   0.875   4.968   5.800  0.4150 -0.8420  0.4400
  137OSM   H14A14863   0.829   4.873   5.824  0.3870 -1.2388 -1.1133
  137OSM   H14B14864   0.802   5.047   5.795 -0.8693 -2.0601 -0.6389
  137OSM   H14C14865   0.929   4.984   5.893 -1.1272  1.3984  1.0215
  137OSM    C1314866   1.031   5.070   5.654  0.4038  0.4119  0.1725
  137OSM   H13A14867   0.971   5.157   5.634 -1.5024 -0.7329  0.6787
  137OSM   H13B14868   1.100   5.049   5.574 -0.0068 -1.1176  0.1908
  137OSM   H13C14869   1.087   5.093   5.744 -1.6816  0.5068  1.5165
  137OSM    C1214870   0.864   4.903   5.559 -0.3935 -0.1663 -0.0579
  137OSM   H12A14871   0.927   4.884   5.474  1.2299  0.1630  1.0244
  137OSM   H12B14872   0.800   4.985   5.530 -0.8503 -1.5381 -3.4040
  137OSM    C1114873   0.776   4.769   5.579 -0.0176  0.1163 -0.1799
  137OSM   H11A14874   0.722   4.759   5.482  1.3518  1.2102 -1.0967
  137OSM   H11B14875   0.694   4.775   5.654  1.8731  1.3126  1.8832
  137OSM      P14876   0.792   4.522   5.662  0.0962 -0.0706 -0.2166
  137OSM    O1314877   0.666   4.502   5.594 -0.4177  0.7218  0.6912
  137OSM    O1414878   0.895   4.412   5.650  0.0095 -0.5462 -0.2528
  137OSM    O1114879   0.766   4.570   5.811 -0.4553  0.4092 -0.1634
  137OSM    O1214880   0.858   4.653   5.600 -0.1921  0.1001  0.4676
  137OSM    C1S14881   0.878   4.566   5.905 -0.1201 -0.2538  0.0485
  137OSM    H1S14882   0.935   4.661   5.896 -0.7975  0.6275  3.5203
  137OSM    H1T14883   0.938   4.475   5.887 -1.9915 -1.2941 -1.3356
  137OSM     NF14884   0.922   4.614   6.156 -0.1210  0.2293  1.0461
  137OSM    HNF14885   0.960   4.539   6.210  0.1242 -2.8003 -2.9155
  137OSM    C2S14886   0.824   4.573   6.054  0.3442 -0.2775 -0.0699
  137OSM    H2S14887   0.738   4.643   6.047 -0.1733 -1.0060 -1.5515
  137OSM    C3S14888   0.744   4.437   6.075 -0.1619 -0.5009  0.1925
  137OSM    H3S14889   0.809   4.350   6.051  0.9703  0.6448 -1.0910
  137OSM     O314890   0.631   4.416   5.991 -0.0804 -0.2448 -0.2067
  137OSM    HO314891   0.632   4.483   5.922 -1.2861 -0.2764 -0.2689
  137OSM    C4S14892   0.707   4.434   6.220 -0.0860 -0.5182 -0.3905
  137OSM    H4S14893   0.608   4.478   6.240  0.1602  0.4325 -1.2114
  137OSM    C5S14894   0.764   4.376   6.326 -0.3037 -0.1246 -0.0556
  137OSM    H5S14895   0.862   4.329   6.312  0.0701  0.7426 -0.3932
  137OSM    C6S14896   0.697   4.380   6.462  1.0656  0.2454  0.4348
  137OSM    H6S14897   0.673   4.273   6.478  2.4116 -0.5780 -2.4851
  137OSM    H6T14898   0.612   4.451   6.462  0.4274 -0.5080  0.0396
  137OSM    C7S14899   0.802   4.419   6.576 -0.4659  0.0998  0.1746
  137OSM    H7S14900   0.742   4.450   6.665  0.4475  0.7341  0.5795
  137OSM    H7T14901   0.854   4.504   6.529 -0.5533 -0.4319 -0.9127
  137OSM    C8S14902   0.895   4.305   6.609  0.4866  0.2062 -0.7463
  137OSM    H8S14903   0.908   4.239   6.520 -1.3031 -0.4838 -0.5299
  137OSM    H8T14904   0.849   4.240   6.686 -0.1819  1.8705  0.3167
  137OSM    C9S14905   1.034   4.345   6.647 -0.0703  0.2093  0.2011
  137OSM    H9S14906   1.086   4.394   6.562  1.2199  1.8828  1.8737
  137OSM    H9T14907   1.088   4.254   6.682  0.8033  1.3065  1.8822
  137OSM   C10S14908   1.042   4.441   6.767  0.2606 -0.1442 -0.4892
  137OSM   H10S14909   0.999   4.539   6.737  0.3344 -0.3436 -1.2592
  137OSM   H10T14910   1.150   4.444   6.790 -0.2926  0.6577  2.4996
  137OSM   C11S14911   0.955   4.392   6.889 -0.9811  0.1011 -0.6157
  137OSM   H11S14912   0.972   4.282   6.901 -1.3045  0.2591  1.6180
  137OSM   H11T14913   0.852   4.415   6.857 -1.2140 -1.7306 -1.3470
  137OSM   C12S14914   0.993   4.462   7.022  0.0949 -0.4967  0.1836
  137OSM   H12S14915   0.958   4.568   7.019 -1.5134 -1.0281 -1.1320
  137OSM   H12T14916   1.103   4.459   7.033  0.3974 -0.2913 -2.3430
  137OSM   C13S14917   0.934   4.380   7.139  0.3805 -0.2619 -0.1221
  137OSM   H13S14918   0.960   4.273   7.121  1.2553  0.1110 -1.1440
  137OSM   H13T14919   0.823   4.385   7.141  0.4335  0.9126  0.8788
  137OSM   C14S14920   0.983   4.434   7.268 -0.2321 -0.1611 -0.0557
  137OSM   H14S14921   0.949   4.539   7.281  2.1641  0.7126 -0.5022
  137OSM   H14T14922   1.093   4.441   7.273 -0.1746 -1.0823  0.1668
  137OSM   C15S14923   0.934   4.354   7.391 -0.3754 -0.1791 -0.2640
  137OSM   H15S14924   0.823   4.358   7.400 -0.3578  4.1602  0.2379
  137OSM   H15T14925   0.977   4.406   7.479 -0.9225  0.2851 -0.2630
  137OSM   C16S14926   0.981   4.207   7.405  0.8315  0.6991  0.4409
  137OSM   H16S14927   1.092   4.215   7.411  1.0281 -1.3700  0.5457
  137OSM   H16T14928   0.933   4.143   7.327 -1.4323  1.1889  1.3768
  137OSM   C17S14929   0.940   4.135   7.534 -0.3884  0.0514 -0.4771
  137OSM   H17S14930   0.979   4.034   7.560 -3.0414 -0.5683  1.6641
  137OSM   H17T14931   0.831   4.115   7.522 -0.8885  3.0982 -1.8399
  137OSM   C18S14932   0.977   4.223   7.660  0.0173  0.3676  0.6234
  137OSM   H18S14933   1.078   4.266   7.643 -0.1503  0.6863  0.4481
  137OSM   H18T14934   0.974   4.159   7.752  1.0822  0.0130  0.4258
  137OSM   H18U14935   0.915   4.315   7.665 -0.1704  0.4279 -1.6745
  137OSM    C1F14936   0.986   4.730   6.153  0.5182  0.1915 -0.2032
  137OSM     OF14937   0.945   4.813   6.074 -0.1208 -0.4645  0.2761
  137OSM    C2F14938   1.110   4.754   6.236  0.0678 -0.4831  0.4524
  137OSM    H2F14939   1.145   4.859   6.232  0.2644 -0.5790 -0.9676
  137OSM    H2G14940   1.200   4.703   6.193  0.6387  0.3904  0.5902
  137OSM    C3F14941   1.116   4.694   6.379  0.0436 -0.5810  0.2005
  137OSM    H3F14942   1.100   4.584   6.369 -0.4660 -0.7230  2.1748
  137OSM    H3G14943   1.030   4.725   6.442  2.8086  0.6430  3.7475
  137OSM    C4F14944   1.236   4.738   6.457 -0.5972 -0.1335 -0.3829
  137OSM    H4F14945   1.240   4.847   6.438 -0.7635 -0.2797 -1.3130
  137OSM    H4G14946   1.321   4.682   6.412  0.0539  0.3653  0.2060
  137OSM    C5F14947   1.236   4.711   6.607  0.4223  0.5029  0.1424
  137OSM    H5F14948   1.339   4.729   6.646 -0.1158  2.2743  0.8397
  137OSM    H5G14949   1.218   4.605   6.631  2.8131  0.1168  0.4468
  137OSM    C6F14950   1.148   4.811   6.676 -0.2875 -0.7896  0.2934
  137OSM    H6F14951   1.039   4.791   6.671 -0.2971 -0.5950 -0.3065
  137OSM    H6G14952   1.169   4.906   6.623  1.3065 -0.8189  0.7898
  137OSM    C7F14953   1.194   4.833   6.820  0.4636  0.0388 -0.1994
  137OSM    H7F14954   1.303   4.853   6.813  0.0906  3.3141  1.4895
  137OSM    H7G14955   1.190   4.738   6.878  1.4739  0.2585  0.2491
  137OSM    C8F14956   1.133   4.944   6.904 -0.2001 -0.1801  0.7996
  137OSM    H8F14957   1.136   5.040   6.848 -1.4482  0.8863  2.4714
  137OSM    H8G14958   1.200   4.960   6.990 -0.7354  2.6391  0.7884
  137OSM    C9F14959   0.995   4.917   6.952  0.5670  0.3957  0.1332
  137OSM    H9F14960   0.920   4.943   6.877  0.1531  1.3310  0.8528
  137OSM   C10F14961   0.958   4.856   7.068  0.3994 -0.3256 -0.4857
  137OSM   H10F14962   0.851   4.845   7.092 -0.5534  1.9170 -3.0832
  137OSM   C11F14963   1.049   4.810   7.176  0.5011 -0.1008 -0.4232
  137OSM   H11F14964   1.155   4.838   7.161  0.6379  0.5942  1.5436
  137OSM   H11G14965   1.043   4.699   7.175  0.8262 -0.1289  0.2273
  137OSM   C12F14966   1.015   4.852   7.322 -0.0568 -0.3008  0.0811
  137OSM   H12F14967   1.074   4.795   7.396  0.5755  0.9009  0.5411
  137OSM   H12G14968   0.907   4.835   7.342 -0.2236  0.7553  0.1563
  137OSM   C13F14969   1.039   4.997   7.358  0.3546  0.6763 -0.1352
  137OSM   H13F14970   0.971   5.063   7.300  0.9617 -0.0580 -1.7326
  137OSM   H13G14971   1.145   5.027   7.340  0.9572 -0.7381  0.8959
  137OSM   C14F14972   1.017   5.032   7.509  0.2304  0.0228 -0.2902
  137OSM   H14F14973   1.089   5.111   7.539  0.1345 -0.0813  0.2346
  137OSM   H14G14974   1.054   4.953   7.577 -1.2037 -1.9256 -1.6830
  137OSM   C15F14975   0.870   5.072   7.541  0.0691  0.4260 -0.1560
  137OSM   H15F14976   0.813   4.978   7.558  0.6107 -0.1190 -1.3036
  137OSM   H15G14977   0.838   5.130   7.451  0.4645  0.1225 -0.4928
  137OSM   C16F14978   0.851   5.161   7.670 -0.2969  0.3407 -1.0750
  137OSM   H16F14979   0.742   5.170   7.685 -0.1075  1.7690 -0.4087
  137OSM   H16G14980   0.897   5.258   7.644 -0.4928  1.0484  1.0289
  137OSM   C17F14981   0.930   5.110   7.793 -0.0654  0.2773  0.3256
  137OSM   H17F14982   1.036   5.087   7.769 -0.2279 -0.1677  0.0199
  137OSM   H17G14983   0.882   5.015   7.826 -1.1190  0.9783  0.8530
  137OSM   C18F14984   0.920   5.209   7.914 -0.9552 -0.3048  0.3337
  137OSM   H18F14985   1.000   5.170   7.981  0.6109  0.0500 -1.2664
  137OSM   H18G14986   0.822   5.197   7.966 -0.8112 -1.1627  0.4195
  137OSM   H18H14987   0.932   5.317   7.890 -2.1220 -0.0237  0.9351
  138OSM      N14988   1.435   5.771   5.135  0.3845  0.3026 -0.1447
  138OSM    C1514989   1.461   5.726   4.994  0.0274 -0.1674  0.1656
  138OSM   H15A14990   1.369   5.686   4.953 -0.2050  0.4264  0.0854
  138OSM   H15B14991   1.532   5.645   4.993  0.4636  0.1997 -1.3172
  138OSM   H15C14992   1.487   5.805   4.925  0.7957 -0.8911 -0.3833
  138OSM    C1414993   1.326   5.871   5.124  0.0126  0.2155  0.0947
  138OSM   H14A14994   1.310   5.919   5.219  3.5741  1.0365  0.4091
  138OSM   H14B14995   1.232   5.827   5.093 -0.8537  4.1261 -3.7615
  138OSM   H14C14996   1.344   5.942   5.045  0.0059  0.0176 -0.0850
  138OSM    C1314997   1.386   5.659   5.221  0.0492  0.4787  0.5153
  138OSM   H13A14998   1.293   5.617   5.187  1.0767 -0.0383 -1.8810
  138OSM   H13B14999   1.390   5.696   5.323  1.6932  0.5589  0.4541
  138OSM   H13C15000   1.457   5.579   5.231 -1.0047 -0.3532  1.6794
  138OSM    C1215001   1.557   5.845   5.188 -0.1819  0.2832  0.3737
  138OSM   H12A15002   1.539   5.874   5.291  0.5658 -2.4541  1.3677
  138OSM   H12B15003   1.563   5.943   5.142  0.3312  0.3501  0.5695
  138OSM    C1115004   1.692   5.760   5.199 -0.2578  0.2449 -0.6420
  138OSM   H11A15005   1.771   5.828   5.236 -0.1101 -0.1435 -0.2288
  138OSM   H11B15006   1.735   5.733   5.100 -0.1170 -1.2316 -0.2131
  138OSM      P15007   1.782   5.624   5.396 -0.1847 -0.4790 -0.1754
  138OSM    O1315008   1.773   5.482   5.435  0.6215 -0.4795 -0.5206
  138OSM    O1415009   1.917   5.666   5.350  0.6329  0.2654 -0.1756
  138OSM    O1115010   1.725   5.722   5.506 -0.6281 -0.1184  0.0372
  138OSM    O1215011   1.681   5.642   5.276  0.2521  0.3512  0.4281
  138OSM    C1S15012   1.731   5.678   5.648  0.5143 -0.0296 -0.4293
  138OSM    H1S15013   1.832   5.706   5.686  0.9236 -1.3612 -0.5037
  138OSM    H1T15014   1.717   5.570   5.666 -2.2716 -0.0170 -1.9429
  138OSM     NF15015   1.648   5.743   5.878  0.0829 -0.1639  0.1155
  138OSM    HNF15016   1.595   5.682   5.936  0.5551 -1.5255 -0.8239
  138OSM    C2S15017   1.625   5.762   5.730 -0.5439  0.7205  0.3591
  138OSM    H2S15018   1.654   5.862   5.692 -2.2927  1.1889  0.1736
  138OSM    C3S15019   1.481   5.728   5.684 -0.5510  0.1546  0.1444
  138OSM    H3S15020   1.461   5.620   5.698  0.8807 -0.4528 -2.1266
  138OSM     O315021   1.459   5.754   5.546 -0.2840 -0.3034 -0.1683
  138OSM    HO315022   1.544   5.745   5.501 -0.0457  0.8617  0.0123
  138OSM    C4S15023   1.390   5.821   5.756  0.5129  0.2920 -0.0892
  138OSM    H4S15024   1.388   5.920   5.708  0.5991  0.7149  0.7594
  138OSM    C5S15025   1.312   5.799   5.864  0.2739  0.6794  0.0628
  138OSM    H5S15026   1.296   5.702   5.914 -0.6037  1.3637  1.1634
  138OSM    C6S15027   1.220   5.906   5.922 -0.3222 -0.0643 -0.1883
  138OSM    H6S15028   1.143   5.852   5.982  0.9870  0.0634  1.6756
  138OSM    H6T15029   1.166   5.965   5.845 -0.6289 -2.1369 -1.6502
  138OSM    C7S15030   1.287   6.006   6.025 -0.1684 -0.8252  0.5521
  138OSM    H7S15031   1.199   6.063   6.062  0.3721  1.4823 -1.4070
  138OSM    H7T15032   1.350   6.085   5.979 -0.8225 -0.5844  0.0466
  138OSM    C8S15033   1.352   5.928   6.138 -0.0961  0.2585 -0.2919
  138OSM    H8S15034   1.390   5.828   6.106  1.1677  0.0017  1.8114
  138OSM    H8T15035   1.261   5.902   6.197  0.8487  1.0142  1.5947
  138OSM    C9S15036   1.445   5.989   6.233  0.0538 -0.3040  0.5551
  138OSM    H9S15037   1.392   6.081   6.266 -1.5418 -0.1234 -2.1289
  138OSM    H9T15038   1.542   6.009   6.183  0.2657 -1.7310  0.3614
  138OSM   C10S15039   1.472   5.901   6.357  0.3907  0.5602 -0.0543
  138OSM   H10S15040   1.523   5.805   6.338 -0.0038  0.2150  0.5676
  138OSM   H10T15041   1.371   5.873   6.396  0.4754 -2.5835 -1.8568
  138OSM   C11S15042   1.528   5.972   6.474 -0.6113  1.1580  0.0353
  138OSM   H11S15043   1.475   6.066   6.499 -2.5112  0.9860 -2.8947
  138OSM   H11T15044   1.631   6.004   6.447  0.8322 -2.3234  0.8849
  138OSM   C12S15045   1.554   5.879   6.598  0.4290 -0.4642 -0.1605
  138OSM   H12S15046   1.610   5.795   6.552  2.3916  0.7421 -0.0787
  138OSM   H12T15047   1.456   5.852   6.643  0.7236  0.2678  0.9678
  138OSM   C13S15048   1.644   5.953   6.694  0.4367 -0.0888 -0.5581
  138OSM   H13S15049   1.598   6.053   6.707 -0.9443 -0.2416 -3.3322
  138OSM   H13T15050   1.734   5.986   6.639 -0.0147  0.8037 -0.7905
  138OSM   C14S15051   1.684   5.873   6.816  0.8332 -0.0539  0.0102
  138OSM   H14S15052   1.727   5.780   6.774  0.5590 -0.7593  1.2496
  138OSM   H14T15053   1.603   5.848   6.887  1.0274  1.3097  0.7593
  138OSM   C15S15054   1.802   5.955   6.886  0.9175  0.8460 -0.0626
  138OSM   H15S15055   1.769   6.051   6.932  0.1255 -0.4205  2.2095
  138OSM   H15T15056   1.879   5.980   6.810 -0.3953 -0.4250 -1.8809
  138OSM   C16S15057   1.864   5.861   6.996 -0.1680 -0.6922  0.8948
  138OSM   H16S15058   1.940   5.931   7.038  0.0845  0.2650 -1.0462
  138OSM   H16T15059   1.917   5.774   6.949  0.2562  0.7273 -1.4124
  138OSM   C17S15060   1.773   5.815   7.107  0.2289 -0.7522  0.9211
  138OSM   H17S15061   1.688   5.752   7.072  0.0841  0.1490 -0.4328
  138OSM   H17T15062   1.716   5.905   7.141 -0.0738  0.0459 -1.4969
  138OSM   C18S15063   1.854   5.749   7.222 -0.0879  0.3603 -0.4596
  138OSM   H18S15064   1.794   5.732   7.314 -0.0059 -1.4207 -0.6983
  138OSM   H18T15065   1.938   5.816   7.251 -0.2047  0.3290 -0.0402
  138OSM   H18U15066   1.910   5.655   7.202 -0.6241 -0.5205  1.8984
  138OSM    C1F15067   1.760   5.774   5.943  0.0280 -0.3317 -0.2269
  138OSM     OF15068   1.845   5.830   5.880  0.3852  0.4262  0.1350
  138OSM    C2F15069   1.778   5.740   6.086 -0.2651  0.1845  0.8279
  138OSM    H2F15070   1.708   5.656   6.105  1.4439 -0.9028  2.7259
  138OSM    H2G15071   1.747   5.824   6.152 -1.0470  2.3600 -2.1092
  138OSM    C3F15072   1.927   5.693   6.125  0.7540  0.3287  0.2226
  138OSM    H3F15073   1.984   5.785   6.099  2.1249 -0.6503 -0.3483
  138OSM    H3G15074   1.964   5.605   6.069  2.3707 -1.1618  3.3633
  138OSM    C4F15075   1.938   5.641   6.269  0.2509  0.2064  0.0091
  138OSM    H4F15076   2.047   5.628   6.288  0.0949 -0.4021  0.5568
  138OSM    H4G15077   1.894   5.539   6.270 -1.2113  0.8189  0.2950
  138OSM    C5F15078   1.877   5.729   6.377 -1.0208  0.4755 -0.4274
  138OSM    H5F15079   1.768   5.716   6.391 -1.2212 -0.1514 -2.2990
  138OSM    H5G15080   1.894   5.833   6.340 -2.3716  0.9466  0.2078
  138OSM    C6F15081   1.952   5.709   6.511 -0.6201  0.2411  0.1170
  138OSM    H6F15082   1.996   5.607   6.506 -2.7535 -0.7948  0.9986
  138OSM    H6G15083   1.881   5.707   6.597  1.6887  1.3085  2.1548
  138OSM    C7F15084   2.064   5.802   6.542  0.1056 -0.0390  0.4384
  138OSM    H7F15085   2.010   5.894   6.574  0.9239  0.9908 -1.0248
  138OSM    H7G15086   2.124   5.833   6.454  0.4406  2.9812  1.6081
  138OSM    C8F15087   2.163   5.748   6.647  0.5020 -0.9661  0.1003
  138OSM    H8F15088   2.221   5.665   6.601  1.7147  0.5949 -1.3134
  138OSM    H8G15089   2.085   5.714   6.718 -1.8363  1.4549 -1.1441
  138OSM    C9F15090   2.245   5.859   6.694 -0.7730 -1.0021 -0.1361
  138OSM    H9F15091   2.284   5.928   6.617 -0.6218  1.0704  1.7126
  138OSM   C10F15092   2.285   5.888   6.820 -0.3745 -0.3569 -0.1821
  138OSM   H10F15093   2.356   5.967   6.846 -1.6614  0.7096  0.2068
  138OSM   C11F15094   2.243   5.791   6.926  0.2082 -0.2517 -0.1893
  138OSM   H11F15095   2.306   5.699   6.923  1.9091  0.7376  2.2620
  138OSM   H11G15096   2.134   5.770   6.915 -0.0662  0.7478  0.5402
  138OSM   C12F15097   2.280   5.835   7.075  0.3816  0.0790  0.5422
  138OSM   H12F15098   2.231   5.933   7.095  1.3201  0.3575  1.5719
  138OSM   H12G15099   2.388   5.856   7.086  0.5275 -0.5405  0.3137
  138OSM   C13F15100   2.244   5.731   7.176  0.2487  0.5463 -0.1392
  138OSM   H13F15101   2.301   5.638   7.154  2.0098  1.5540  0.0159
  138OSM   H13G15102   2.136   5.706   7.166  0.3839 -0.3091  0.4222
  138OSM   C14F15103   2.275   5.784   7.323  1.1581  0.4436  0.2812
  138OSM   H14F15104   2.226   5.884   7.323  0.1328  0.0045 -1.7577
  138OSM   H14G15105   2.386   5.788   7.330  1.4481 -1.6132 -1.7637
  138OSM   C15F15106   2.218   5.700   7.439 -0.2096  0.3666 -0.0856
  138OSM   H15F15107   2.241   5.594   7.415 -1.0713  0.4408 -1.2867
  138OSM   H15G15108   2.108   5.710   7.439 -0.1582  1.0456 -0.8271
  138OSM   C16F15109   2.260   5.740   7.580  0.0460  0.0638 -0.0091
  138OSM   H16F15110   2.224   5.842   7.605 -0.3313 -0.6042  2.4497
  138OSM   H16G15111   2.371   5.739   7.572  0.0772 -4.0444 -1.4102
  138OSM   C17F15112   2.210   5.631   7.674 -0.1977 -0.4814 -0.2225
  138OSM   H17F15113   2.256   5.655   7.772 -0.2278  0.1016 -0.3475
  138OSM   H17G15114   2.259   5.537   7.641  2.5464 -0.8795  4.2102
  138OSM   C18F15115   2.053   5.615   7.689 -0.3687  0.0369 -0.2261
  138OSM   H18F15116   2.008   5.712   7.716 -0.7031  0.1530 -1.1938
  138OSM   H18G15117   2.028   5.551   7.777 -0.3618  3.3950  2.4023
  138OSM   H18H15118   2.007   5.572   7.598 -0.0248 -0.6514 -0.0827
  139OSM      N15119   5.411   6.459   5.493  0.6613 -0.3177  0.0666
  139OSM    C1515120   5.340   6.533   5.390  0.0025 -0.0669 -0.9499
  139OSM   H15A15121   5.284   6.464   5.329  0.4888 -0.2880 -1.1527
  139OSM   H15B15122   5.399   6.586   5.316  0.4932 -0.5367 -0.9080
  139OSM   H15C15123   5.273   6.600   5.440  3.1896  0.1337  3.6818
  139OSM    C1415124   5.294   6.422   5.586  0.3412 -0.2596  0.5905
  139OSM   H14A15125   5.230   6.362   5.523  0.7820  0.4716 -0.5983
  139OSM   H14B15126   5.232   6.508   5.607  0.1715  0.3604 -2.0956
  139OSM   H14C15127   5.327   6.359   5.667  0.5255  1.5784  2.0115
  139OSM    C1315128   5.469   6.333   5.446  0.1433 -0.0424 -0.0651
  139OSM   H13A15129   5.541   6.348   5.367  0.5648  0.7088  0.4477
  139OSM   H13B15130   5.390   6.274   5.403 -0.1419  1.1544 -1.2566
  139OSM   H13C15131   5.516   6.276   5.525  1.3885  2.7651  1.3520
  139OSM    C1215132   5.520   6.545   5.567 -0.2361  0.4025 -0.5802
  139OSM   H12A15133   5.592   6.580   5.495  0.4147  4.2309  1.6798
  139OSM   H12B15134   5.574   6.471   5.624  0.6196  0.6857 -1.0078
  139OSM    C1115135   5.474   6.664   5.650  0.4059 -0.1713 -0.2067
  139OSM   H11A15136   5.557   6.715   5.704 -0.1567  0.6498 -0.0946
  139OSM   H11B15137   5.402   6.629   5.726 -1.1234 -0.2742 -1.6603
  139OSM      P15138   5.293   6.857   5.646  0.1200 -0.5476 -0.1784
  139OSM    O1315139   5.310   7.005   5.614 -0.7839 -0.5337  0.3007
  139OSM    O1415140   5.163   6.800   5.598  0.1848  0.4167 -0.0496
  139OSM    O1115141   5.315   6.846   5.810 -0.7627  0.5407  0.0841
  139OSM    O1215142   5.409   6.773   5.584  0.4333  0.0423 -0.5794
  139OSM    C1S15143   5.389   6.952   5.875  0.3276  0.6009  0.1866
  139OSM    H1S15144   5.439   7.017   5.800  0.4036  2.4734  1.7690
  139OSM    H1T15145   5.470   6.915   5.942 -0.0891  3.8763  2.8209
  139OSM     NF15146   5.404   7.161   5.995 -0.1545  0.7587  0.7575
  139OSM    HNF15147   5.460   7.147   6.077 -1.5127 -1.3960  1.4281
  139OSM    C2S15148   5.310   7.054   5.958  0.0207 -0.1357  0.7783
  139OSM    H2S15149   5.220   7.092   5.904  0.0070  1.2528  1.7097
  139OSM    C3S15150   5.253   6.969   6.077  0.0117 -0.0659 -0.2247
  139OSM    H3S15151   5.336   6.941   6.145  3.0228 -0.0535 -3.5943
  139OSM     O315152   5.184   6.847   6.038 -0.5983  0.0446  0.1111
  139OSM    HO315153   5.218   6.834   5.949  0.0646 -3.1373  0.7046
  139OSM    C4S15154   5.166   7.061   6.159  0.6107  0.5526 -0.6200
  139OSM    H4S15155   5.067   7.085   6.117  1.5414  0.5169 -3.0469
  139OSM    C5S15156   5.198   7.104   6.283 -0.0040  0.3412 -0.0190
  139OSM    H5S15157   5.279   7.049   6.331 -0.1165  0.0956 -0.1103
  139OSM    C6S15158   5.098   7.187   6.355  0.2329  0.1613 -0.6081
  139OSM    H6S15159   5.036   7.117   6.415  1.4073 -0.1459  0.3098
  139OSM    H6T15160   5.032   7.235   6.280 -0.8492  0.9921  0.8165
  139OSM    C7S15161   5.167   7.300   6.435 -0.2999 -0.4525  0.3778
  139OSM    H7S15162   5.094   7.354   6.499  3.4529  2.3284  2.7266
  139OSM    H7T15163   5.199   7.390   6.378 -0.2338 -0.6984  0.0232
  139OSM    C8S15164   5.281   7.242   6.527  0.2327  0.2075 -0.7352
  139OSM    H8S15165   5.323   7.333   6.574  0.0790 -0.5752  1.0379
  139OSM    H8T15166   5.368   7.213   6.465  1.1608  0.9505  0.1853
  139OSM    C9S15167   5.236   7.134   6.628 -0.2420  0.5979  0.5345
  139OSM    H9S15168   5.203   7.046   6.568 -0.6456  2.8478 -2.7940
  139OSM    H9T15169   5.144   7.170   6.679 -2.0141 -1.0367 -1.3349
  139OSM   C10S15170   5.351   7.088   6.727  0.3782 -0.5934 -0.2106
  139OSM   H10S15171   5.365   7.169   6.803  0.3176  2.3271 -3.0927
  139OSM   H10T15172   5.441   7.085   6.662 -1.4748 -1.1889 -2.8653
  139OSM   C11S15173   5.315   6.956   6.804  0.4198 -0.3369  0.1826
  139OSM   H11S15174   5.287   6.871   6.739 -0.6776  0.8076 -0.9028
  139OSM   H11T15175   5.218   6.975   6.855 -0.3669  0.0596 -1.3907
  139OSM   C12S15176   5.417   6.921   6.909 -0.5022  0.5211 -0.4797
  139OSM   H12S15177   5.450   7.016   6.958 -0.6064 -0.0429  0.7297
  139OSM   H12T15178   5.507   6.876   6.863  1.2941  2.4086  1.0108
  139OSM   C13S15179   5.364   6.840   7.024 -0.0710 -0.2573 -0.8079
  139OSM   H13S15180   5.435   6.758   7.047 -1.0614 -0.4782  1.7930
  139OSM   H13T15181   5.275   6.787   6.983 -1.6968  1.2773  0.5931
  139OSM   C14S15182   5.352   6.909   7.159  0.2329  0.0383 -0.0203
  139OSM   H14S15183   5.266   6.979   7.154 -1.5559 -1.7564  2.6995
  139OSM   H14T15184   5.445   6.965   7.181 -0.9388  1.1278  2.5309
  139OSM   C15S15185   5.335   6.818   7.277  0.3723 -0.7045 -0.3016
  139OSM   H15S15186   5.427   6.762   7.303 -1.8708 -2.4778  5.3325
  139OSM   H15T15187   5.252   6.743   7.274  1.3176 -1.7612 -0.6817
  139OSM   C16S15188   5.306   6.904   7.410 -0.4935  0.3900  0.0030
  139OSM   H16S15189   5.219   6.971   7.391 -0.4702 -0.0802 -1.9844
  139OSM   H16T15190   5.400   6.964   7.417 -0.3036 -0.0173  1.0995
  139OSM   C17S15191   5.287   6.822   7.534 -0.2504 -0.1575  0.1262
  139OSM   H17S15192   5.384   6.782   7.570 -0.9166  0.4042  2.7384
  139OSM   H17T15193   5.222   6.734   7.514  1.6690 -1.3759 -1.1196
  139OSM   C18S15194   5.238   6.890   7.660  0.4268 -0.2770  0.5767
  139OSM   H18S15195   5.312   6.969   7.682  0.0566  0.7884 -1.7090
  139OSM   H18T15196   5.245   6.810   7.737  0.2706 -1.2865 -0.4322
  139OSM   H18U15197   5.138   6.935   7.643  1.0380  1.2238  0.7986
  139OSM    C1F15198   5.426   7.258   5.909  0.1926 -0.4253 -0.2886
  139OSM     OF15199   5.367   7.263   5.803  0.2082 -0.2945  0.3357
  139OSM    C2F15200   5.531   7.357   5.938  0.0757  0.3519 -0.3542
  139OSM    H2F15201   5.490   7.460   5.942 -0.3039  0.2772 -1.8371
  139OSM    H2G15202   5.604   7.353   5.854  1.6498 -0.7940  0.9702
  139OSM    C3F15203   5.616   7.332   6.063  0.1697 -0.2117  0.2293
  139OSM    H3F15204   5.677   7.240   6.052  0.3132 -0.0455 -0.3951
  139OSM    H3G15205   5.553   7.324   6.154 -2.2144  1.4728 -1.1451
  139OSM    C4F15206   5.703   7.454   6.087  0.7644  1.4372  0.1477
  139OSM    H4F15207   5.644   7.547   6.075  0.3016  1.1331 -0.0162
  139OSM    H4G15208   5.770   7.466   6.000 -0.2856 -0.6811 -1.0548
  139OSM    C5F15209   5.770   7.457   6.224  0.0088 -0.0321  0.7447
  139OSM    H5F15210   5.822   7.554   6.241 -2.4710  0.7044  6.3560
  139OSM    H5G15211   5.837   7.368   6.225  2.1954  1.4497 -1.4777
  139OSM    C6F15212   5.681   7.445   6.347  0.0894  0.3043  0.4518
  139OSM    H6F15213   5.649   7.343   6.376 -1.6132  0.4769 -0.6448
  139OSM    H6G15214   5.587   7.502   6.330 -0.5459 -1.3630 -2.3952
  139OSM    C7F15215   5.749   7.489   6.473 -0.1497 -1.0854 -0.3167
  139OSM    H7F15216   5.787   7.593   6.464 -0.7910 -0.7678  0.6080
  139OSM    H7G15217   5.834   7.419   6.488  2.7317  1.6190 -2.4820
  139OSM    C8F15218   5.648   7.499   6.582  0.0933 -0.1282 -0.2023
  139OSM    H8F15219   5.613   7.394   6.595 -2.6461  0.4871 -1.7199
  139OSM    H8G15220   5.558   7.561   6.557 -0.0975 -0.0952  0.5285
  139OSM    C9F15221   5.721   7.547   6.702  1.0959  0.6667  0.1819
  139OSM    H9F15222   5.821   7.592   6.690 -0.0521  3.1850 -0.5965
  139OSM   C10F15223   5.670   7.537   6.828 -0.4884 -0.8580  0.2817
  139OSM   H10F15224   5.730   7.555   6.918 -1.0917 -0.2278  0.5703
  139OSM   C11F15225   5.531   7.490   6.852  0.3281  0.7384 -0.1735
  139OSM   H11F15226   5.500   7.405   6.788 -0.1590 -1.7387  3.0970
  139OSM   H11G15227   5.463   7.575   6.831 -0.6453 -0.1454 -0.7013
  139OSM   C12F15228   5.502   7.458   7.003  0.2751  0.1138 -0.1639
  139OSM   H12F15229   5.568   7.375   7.036  2.5407  2.0119  0.2912
  139OSM   H12G15230   5.396   7.424   7.007 -0.5194  2.1921 -1.5462
  139OSM   C13F15231   5.517   7.575   7.098 -0.0494  0.6355  0.2025
  139OSM   H13F15232   5.421   7.631   7.093  0.2118  0.9469 -2.1305
  139OSM   H13G15233   5.602   7.638   7.065  1.5277 -0.4866  1.9349
  139OSM   C14F15234   5.544   7.516   7.243  0.0104  0.5702 -1.0666
  139OSM   H14F15235   5.616   7.588   7.286 -0.0463  0.7066 -1.2004
  139OSM   H14G15236   5.600   7.421   7.230 -1.7764 -1.1499  2.3178
  139OSM   C15F15237   5.417   7.500   7.333  0.4363  0.1961  0.8575
  139OSM   H15F15238   5.341   7.437   7.282  1.8438 -0.0503 -1.0325
  139OSM   H15G15239   5.377   7.599   7.360  0.6188  0.3896  0.4233
  139OSM   C16F15240   5.435   7.428   7.471 -0.0156  0.0766 -0.2529
  139OSM   H16F15241   5.504   7.487   7.535 -1.5639  0.0415  1.4870
  139OSM   H16G15242   5.477   7.330   7.440 -0.0066 -0.3167  0.9766
  139OSM   C17F15243   5.313   7.406   7.558  0.0429  0.3355  0.5317
  139OSM   H17F15244   5.235   7.485   7.546 -3.9363 -3.2994  0.2369
  139OSM   H17G15245   5.340   7.392   7.664 -1.0897  0.6120  0.8695
  139OSM   C18F15246   5.236   7.281   7.502 -0.4552 -0.3349 -0.0815
  139OSM   H18F15247   5.145   7.263   7.564 -1.8243  0.3999 -1.7706
  139OSM   H18G15248   5.309   7.197   7.504  1.2947  1.1435  0.7953
  139OSM   H18H15249   5.215   7.308   7.396 -1.0904 -1.3295 -0.2259
  140OSM      N15250   0.706   1.906   5.571  0.1334  0.1076  0.0268
  140OSM    C1515251   0.586   1.871   5.493  0.1786  0.0058  0.1620
  140OSM   H15A15252   0.571   1.945   5.415 -3.5630 -1.2019 -0.4634
  140OSM   H15B15253   0.488   1.860   5.537 -1.7856  1.1096 -3.4693
  140OSM   H15C15254   0.610   1.785   5.433 -0.0298  0.2604 -0.2963
  140OSM    C1415255   0.830   1.875   5.499 -0.4337  0.1314 -0.3926
  140OSM   H14A15256   0.842   1.946   5.418 -0.1562  0.2413 -0.2557
  140OSM   H14B15257   0.834   1.771   5.469  0.6348 -0.5030  1.7364
  140OSM   H14C15258   0.912   1.894   5.567 -0.7530  0.5900 -0.1323
  140OSM    C1315259   0.710   2.054   5.601 -0.6829  0.3300 -0.4073
  140OSM   H13A15260   0.630   2.083   5.667  1.4751  0.1285  2.5292
  140OSM   H13B15261   0.707   2.121   5.517  1.0093  0.0522 -0.7412
  140OSM   H13C15262   0.803   2.073   5.652 -0.6904 -2.1465  0.7006
  140OSM    C1215263   0.693   1.830   5.701 -0.6655  0.8193 -0.8440
  140OSM   H12A15264   0.707   1.725   5.678 -1.4059  0.2884  0.9209
  140OSM   H12B15265   0.594   1.842   5.743 -0.6424  0.5887 -0.7231
  140OSM    C1115266   0.791   1.870   5.819  0.7745 -0.5517  0.9308
  140OSM   H11A15267   0.761   1.782   5.880  0.4219 -2.1981 -1.4854
  140OSM   H11B15268   0.755   1.962   5.870 -0.1534 -0.0924 -0.5130
  140OSM      P15269   1.001   1.741   5.772 -0.0587  0.2052 -0.1642
  140OSM    O1315270   0.911   1.634   5.722  0.3221 -0.3681  0.3063
  140OSM    O1415271   1.123   1.763   5.695  0.0870 -0.0042 -0.1596
  140OSM    O1115272   1.038   1.708   5.923  0.0119 -0.2304  0.6307
  140OSM    O1215273   0.925   1.878   5.784 -0.3867  0.0099  0.3413
  140OSM    C1S15274   1.097   1.587   5.964  0.1438  0.0538  0.1586
  140OSM    H1S15275   1.203   1.579   5.932 -0.2892  0.5908 -1.5080
  140OSM    H1T15276   1.034   1.502   5.930 -1.3975  0.9897  0.5888
  140OSM     NF15277   1.165   1.465   6.185 -0.3780  0.4174  0.9084
  140OSM    HNF15278   1.119   1.377   6.191 -1.9290  0.8926 -2.0626
  140OSM    C2S15279   1.092   1.571   6.121 -0.5981 -0.5567  0.0831
  140OSM    H2S15280   1.139   1.660   6.167  0.7272 -1.9438  1.5264
  140OSM    C3S15281   0.937   1.583   6.169 -0.5277 -0.5127  0.4903
  140OSM    H3S15282   0.877   1.496   6.135  0.0022 -1.0960  1.0353
  140OSM     O315283   0.868   1.694   6.116  0.1584  0.1405  0.4905
  140OSM    HO315284   0.921   1.729   6.044 -1.7286  0.3731 -0.8590
  140OSM    C4S15285   0.933   1.608   6.316 -0.2103  1.0031 -0.1034
  140OSM    H4S15286   1.022   1.652   6.363  0.0053 -0.3757  0.8673
  140OSM    C5S15287   0.827   1.582   6.404 -0.0744 -0.0300  0.5876
  140OSM    H5S15288   0.745   1.516   6.373  1.1206 -1.4344  0.2800
  140OSM    C6S15289   0.831   1.628   6.542  0.6420  0.1095  0.0734
  140OSM    H6S15290   0.778   1.726   6.534 -1.5035 -0.9877  0.0123
  140OSM    H6T15291   0.933   1.649   6.582  0.1299  1.3209  0.8015
  140OSM    C7S15292   0.760   1.540   6.637 -0.3189  0.2760  0.0085
  140OSM    H7S15293   0.808   1.440   6.644 -1.1461 -0.1114  0.2280
  140OSM    H7T15294   0.652   1.523   6.622 -0.1935 -1.4465  0.8522
  140OSM    C8S15295   0.759   1.613   6.770  0.0715  0.0410  0.1305
  140OSM    H8S15296   0.704   1.709   6.769  0.6263  0.3614 -1.1102
  140OSM    H8T15297   0.867   1.619   6.796  0.2768 -0.7559 -0.4908
  140OSM    C9S15298   0.692   1.520   6.872  0.8686  0.5402  0.5164
  140OSM    H9S15299   0.755   1.430   6.886  2.3843  0.9465 -2.6809
  140OSM    H9T15300   0.593   1.491   6.831  0.3321  1.9009  0.7684
  140OSM   C10S15301   0.675   1.580   7.009  0.5144 -0.1558 -0.2160
  140OSM   H10S15302   0.609   1.668   6.994  2.3169  1.1250 -1.1058
  140OSM   H10T15303   0.769   1.636   7.031 -1.3009  3.8518 -1.6888
  140OSM   C11S15304   0.622   1.481   7.106 -0.6706  0.2918 -0.0271
  140OSM   H11S15305   0.688   1.392   7.117 -0.7718  0.2498  0.2576
  140OSM   H11T15306   0.543   1.419   7.058  1.8951 -2.6884 -0.7071
  140OSM   C12S15307   0.568   1.545   7.233 -0.0132 -0.2143  0.5129
  140OSM   H12S15308   0.497   1.622   7.196 -2.7506 -2.4972  0.7224
  140OSM   H12T15309   0.653   1.595   7.283  2.8331 -1.8884 -2.2515
  140OSM   C13S15310   0.493   1.449   7.327  0.9147  0.4418 -0.3797
  140OSM   H13S15311   0.445   1.508   7.407  0.2404 -0.2468 -0.2605
  140OSM   H13T15312   0.557   1.379   7.385  1.0921  1.8601  1.1733
  140OSM   C14S15313   0.384   1.363   7.264 -0.0977  0.9126 -0.2636
  140OSM   H14S15314   0.446   1.293   7.205  1.3577  1.5133  0.5171
  140OSM   H14T15315   0.330   1.431   7.195 -0.4012  2.7358  1.6469
  140OSM   C15S15316   0.280   1.295   7.356 -0.6511 -0.0300  0.2770
  140OSM   H15S15317   0.215   1.225   7.300 -0.8197 -0.6100  1.1751
  140OSM   H15T15318   0.221   1.376   7.404  0.7784  1.1755  0.0888
  140OSM   C16S15319   0.346   1.197   7.463 -0.3231 -0.1954  0.4211
  140OSM   H16S15320   0.388   1.261   7.543 -0.1612 -1.4679  1.3918
  140OSM   H16T15321   0.427   1.140   7.413 -1.0113  0.0848 -1.1037
  140OSM   C17S15322   0.230   1.114   7.523  0.2726  0.0108  0.2186
  140OSM   H17S15323   0.183   1.050   7.446  0.8488  0.2203 -0.3091
  140OSM   H17T15324   0.148   1.184   7.552 -0.8826 -1.9837  2.0691
  140OSM   C18S15325   0.268   1.030   7.645 -0.1829  0.6324 -0.1646
  140OSM   H18S15326   0.332   0.943   7.618 -2.4595 -1.3838  0.6165
  140OSM   H18T15327   0.178   0.985   7.691  0.5606  0.1120  0.8246
  140OSM   H18U15328   0.305   1.095   7.728 -0.7045 -1.2349  1.6079
  140OSM    C1F15329   1.295   1.457   6.176  0.8655  0.2964 -0.0803
  140OSM     OF15330   1.362   1.547   6.126 -0.2156  0.0915 -0.0318
  140OSM    C2F15331   1.358   1.324   6.222 -0.2570  0.1086 -1.1216
  140OSM    H2F15332   1.450   1.314   6.160  1.8408 -0.4631  1.8705
  140OSM    H2G15333   1.295   1.238   6.191  0.8689 -0.0748 -3.0150
  140OSM    C3F15334   1.405   1.330   6.370 -0.8385 -0.3804  0.0756
  140OSM    H3F15335   1.485   1.408   6.371 -0.8865 -0.2670  2.7881
  140OSM    H3G15336   1.446   1.230   6.395  0.9366  0.6211  1.4560
  140OSM    C4F15337   1.289   1.358   6.467  0.0525 -0.2385 -0.5470
  140OSM    H4F15338   1.207   1.286   6.451 -0.0079 -0.3199  0.1166
  140OSM    H4G15339   1.237   1.455   6.451  0.7509  0.2474  0.0202
  140OSM    C5F15340   1.321   1.356   6.617 -0.8679 -0.2499 -0.9532
  140OSM    H5F15341   1.411   1.417   6.640 -0.0523 -2.1188  1.2101
  140OSM    H5G15342   1.342   1.249   6.636  0.3128  0.5636  3.2543
  140OSM    C6F15343   1.208   1.386   6.705 -0.0768 -0.1061  0.0634
  140OSM    H6F15344   1.123   1.324   6.670 -1.5656  0.8496  1.8140
  140OSM    H6G15345   1.179   1.491   6.685 -0.1476 -0.2381 -0.5326
  140OSM    C7F15346   1.230   1.381   6.861 -0.1852 -0.5243 -0.2086
  140OSM    H7F15347   1.308   1.451   6.897 -1.9383  0.5214  1.7720
  140OSM    H7G15348   1.279   1.283   6.882  0.6941  0.1096  0.7819
  140OSM    C8F15349   1.093   1.366   6.933 -0.1892  0.1042 -0.0593
  140OSM    H8F15350   1.124   1.323   7.031  0.3801  1.6150  0.4646
  140OSM    H8G15351   1.019   1.309   6.874  2.5482 -2.1245 -1.5973
  140OSM    C9F15352   1.059   1.519   6.950 -0.1339 -0.3051 -0.2543
  140OSM    H9F15353   1.041   1.575   6.858  0.4568 -1.6505 -1.2286
  140OSM   C10F15354   1.053   1.586   7.072 -0.3936 -0.3266  0.3311
  140OSM   H10F15355   1.031   1.693   7.069  1.8837  0.1856 -1.4390
  140OSM   C11F15356   1.071   1.515   7.204 -0.2526 -0.5892 -0.3827
  140OSM   H11F15357   1.019   1.417   7.201  1.5680 -1.6094  0.0786
  140OSM   H11G15358   1.019   1.581   7.277 -0.4117  2.3376 -2.9458
  140OSM   C12F15359   1.220   1.497   7.251  0.3753 -0.6503 -0.0568
  140OSM   H12F15360   1.272   1.594   7.238 -0.1932 -0.3988 -0.5011
  140OSM   H12G15361   1.275   1.422   7.190  0.8351  0.7847 -1.4510
  140OSM   C13F15362   1.226   1.456   7.402 -0.3938  1.1048  0.4905
  140OSM   H13F15363   1.184   1.355   7.425 -2.2319  1.3654 -1.3973
  140OSM   H13G15364   1.165   1.523   7.467 -2.9556 -0.3564 -0.2495
  140OSM   C14F15365   1.376   1.462   7.445 -0.3176  0.4358  0.4746
  140OSM   H14F15366   1.372   1.472   7.556 -1.7622  0.3033  0.4602
  140OSM   H14G15367   1.438   1.542   7.400  0.5340 -1.0098 -1.0418
  140OSM   C15F15368   1.448   1.334   7.396 -0.0417  0.2096 -0.3916
  140OSM   H15F15369   1.555   1.362   7.402 -0.7699  3.1323  0.6184
  140OSM   H15G15370   1.436   1.305   7.289  0.1578 -0.2101 -0.3017
  140OSM   C16F15371   1.427   1.207   7.477 -0.7520 -0.1918  0.7999
  140OSM   H16F15372   1.328   1.170   7.443 -0.5819  1.5483 -1.8843
  140OSM   H16G15373   1.419   1.219   7.588  1.5831 -2.8820  1.3960
  140OSM   C17F15374   1.536   1.103   7.459 -0.7185 -0.1311 -0.0160
  140OSM   H17F15375   1.636   1.148   7.475 -0.7112 -0.4696  0.9582
  140OSM   H17G15376   1.539   1.071   7.353 -1.3366  0.4079 -0.2008
  140OSM   C18F15377   1.531   0.989   7.561 -0.3418  1.2015 -0.4453
  140OSM   H18F15378   1.550   1.032   7.662 -1.3172 -2.2614  1.4148
  140OSM   H18G15379   1.598   0.902   7.543 -0.9626  0.1353  1.9283
  140OSM   H18H15380   1.432   0.939   7.551 -0.3692  1.3258 -0.7948
  141OSM      N15381   7.210   5.548   5.411  0.4752  0.2767  0.3624
  141OSM    C1515382   7.294   5.563   5.288 -0.1932  0.1503  0.3091
  141OSM   H15A15383   7.341   5.468   5.271 -0.9301 -0.1407 -0.1480
  141OSM   H15B15384   7.370   5.633   5.319 -1.1238  1.3885 -0.1192
  141OSM   H15C15385   7.244   5.599   5.199  1.1764  2.0589  0.2612
  141OSM    C1415386   7.149   5.682   5.442 -0.4321 -0.2458  0.0613
  141OSM   H14A15387   7.087   5.720   5.363  2.5649 -0.1578 -2.4286
  141OSM   H14B15388   7.229   5.751   5.462 -0.2884 -0.3193 -0.2578
  141OSM   H14C15389   7.080   5.666   5.524  0.5271 -1.6723  0.6174
  141OSM    C1315390   7.089   5.454   5.382 -1.2424 -0.0900  0.3080
  141OSM   H13A15391   7.053   5.431   5.481  0.7664 -2.6826  0.5452
  141OSM   H13B15392   7.126   5.373   5.321  0.2635  2.4251 -2.3780
  141OSM   H13C15393   7.017   5.511   5.326 -1.8081 -0.7452  0.3645
  141OSM    C1215394   7.294   5.493   5.531 -0.0716  0.3692  0.1070
  141OSM   H12A15395   7.364   5.569   5.563  0.2411  0.3378 -0.4976
  141OSM   H12B15396   7.359   5.413   5.501  1.4447  2.2413 -1.8336
  141OSM    C1115397   7.210   5.447   5.655  0.0476  0.0003 -0.0325
  141OSM   H11A15398   7.142   5.526   5.694  2.3015  1.6721  0.7003
  141OSM   H11B15399   7.279   5.420   5.738 -1.5837 -1.2322  0.9841
  141OSM      P15400   7.069   5.243   5.736 -0.0673 -0.4757 -0.4490
  141OSM    O1315401   6.924   5.265   5.724 -0.6127 -0.3059 -0.2344
  141OSM    O1415402   7.118   5.105   5.741 -0.1681 -0.4164 -0.4323
  141OSM    O1115403   7.116   5.316   5.877 -0.2334  0.1004 -0.1576
  141OSM    O1215404   7.149   5.318   5.624  1.0758 -0.6219 -0.2180
  141OSM    C1S15405   7.078   5.259   5.997 -0.4033 -0.1539 -0.4864
  141OSM    H1S15406   6.972   5.228   5.997  0.6509 -4.2872  0.7155
  141OSM    H1T15407   7.106   5.334   6.074  0.4189  1.4659 -2.2481
  141OSM     NF15408   7.091   5.061   6.154  0.2483 -0.2911  0.1624
  141OSM    HNF15409   7.142   5.081   6.238  0.0999 -0.4712  0.2953
  141OSM    C2S15410   7.155   5.125   6.032  0.2908 -0.3781  0.2636
  141OSM    H2S15411   7.148   5.052   5.949  0.2837 -0.4334  0.3127
  141OSM    C3S15412   7.311   5.153   6.053 -0.0186 -0.0612 -0.6013
  141OSM    H3S15413   7.325   5.230   6.132 -0.6999 -0.6329  0.1017
  141OSM     O315414   7.383   5.197   5.947  0.1506 -0.4013  0.4934
  141OSM    HO315415   7.317   5.233   5.887 -1.1503 -2.7477  0.4223
  141OSM    C4S15416   7.372   5.018   6.098 -0.7917  0.2299 -0.3055
  141OSM    H4S15417   7.377   4.939   6.021  2.3169 -0.8301  0.8136
  141OSM    C5S15418   7.442   5.005   6.211  0.7143 -0.3852 -0.6960
  141OSM    H5S15419   7.462   5.095   6.271 -0.8476 -0.8363  0.5767
  141OSM    C6S15420   7.515   4.874   6.247 -0.2860 -0.2093 -0.6354
  141OSM    H6S15421   7.533   4.808   6.160 -1.1748 -0.0532 -0.9459
  141OSM    H6T15422   7.460   4.815   6.323  0.3147  2.1534  1.8109
  141OSM    C7S15423   7.653   4.903   6.312  0.0608  0.4419  0.2422
  141OSM    H7S15424   7.634   4.929   6.418  1.0961 -1.6538  0.9991
  141OSM    H7T15425   7.712   4.982   6.261  0.3145 -1.5473 -2.8671
  141OSM    C8S15426   7.747   4.780   6.314 -0.6950 -0.0365 -0.4531
  141OSM    H8S15427   7.747   4.740   6.211  1.9575 -0.2199 -0.4336
  141OSM    H8T15428   7.696   4.721   6.393 -1.4698 -1.1465 -1.7296
  141OSM    C9S15429   7.897   4.811   6.352  0.0981  0.1854  0.1093
  141OSM    H9S15430   7.949   4.867   6.273  0.7447  1.5864  1.4807
  141OSM    H9T15431   7.945   4.711   6.348  3.8277  1.8158  0.3387
  141OSM   C10S15432   7.914   4.873   6.494  0.0245  0.5581 -0.2275
  141OSM   H10S15433   7.866   4.973   6.499  0.4784  0.7373  0.9671
  141OSM   H10T15434   8.024   4.886   6.505 -0.1004  0.3195  1.6092
  141OSM   C11S15435   7.855   4.789   6.611 -0.7504  0.9322 -0.6393
  141OSM   H11S15436   7.855   4.684   6.575 -2.0412  0.3358  0.9793
  141OSM   H11T15437   7.746   4.808   6.608 -0.9297 -0.0174 -0.4704
  141OSM   C12S15438   7.929   4.814   6.741 -0.5465  0.5980  0.0914
  141OSM   H12S15439   7.943   4.919   6.773 -1.8368  0.8441 -0.1053
  141OSM   H12T15440   8.031   4.778   6.715 -0.9483 -0.9925  0.5508
  141OSM   C13S15441   7.868   4.728   6.855 -0.4938 -0.3000 -0.7032
  141OSM   H13S15442   7.929   4.740   6.947  0.3057 -3.4944 -0.7098
  141OSM   H13T15443   7.884   4.621   6.832  1.1100  0.0807 -1.5344
  141OSM   C14S15444   7.728   4.768   6.893  0.1013 -0.0013 -0.1123
  141OSM   H14S15445   7.666   4.778   6.801 -0.5113  1.3433  0.4270
  141OSM   H14T15446   7.730   4.869   6.938 -1.9546 -0.3527  0.9231
  141OSM   C15S15447   7.656   4.671   6.991  0.8524 -0.4057  0.5703
  141OSM   H15S15448   7.728   4.656   7.074  0.3910  2.4660  1.5897
  141OSM   H15T15449   7.639   4.572   6.942  4.9732 -0.7972 -0.4000
  141OSM   C16S15450   7.526   4.728   7.052  0.4789  0.1975  0.2563
  141OSM   H16S15451   7.459   4.763   6.971  1.0906 -0.1337 -0.4023
  141OSM   H16T15452   7.543   4.813   7.121 -3.3037  0.8455  0.5770
  141OSM   C17S15453   7.433   4.626   7.123  0.0344  0.2602  0.5775
  141OSM   H17S15454   7.414   4.534   7.065 -3.0473  0.5272  1.0398
  141OSM   H17T15455   7.332   4.671   7.118 -0.2860 -0.5180 -0.1911
  141OSM   C18S15456   7.460   4.598   7.274  0.2012  0.1664  0.5920
  141OSM   H18S15457   7.441   4.688   7.337 -0.7253  0.4762 -0.1014
  141OSM   H18T15458   7.563   4.560   7.290 -0.1607 -1.5854 -0.9149
  141OSM   H18U15459   7.385   4.528   7.316  0.1592  1.0005  1.9504
  141OSM    C1F15460   6.973   4.994   6.166 -0.3943  0.0367 -0.1194
  141OSM     OF15461   6.897   4.979   6.073  0.4831 -0.0879  0.6738
  141OSM    C2F15462   6.930   4.951   6.302 -0.1164 -0.3054 -0.5732
  141OSM    H2F15463   6.894   4.847   6.295 -0.9517 -0.1956  1.5691
  141OSM    H2G15464   6.842   5.011   6.334  0.3213 -0.1352  0.3474
  141OSM    C3F15465   7.049   4.954   6.412 -0.0477 -0.4833  0.1456
  141OSM    H3F15466   7.059   5.054   6.459  3.1466  0.5081 -2.3271
  141OSM    H3G15467   7.144   4.927   6.362  0.6938  0.7660  0.8330
  141OSM    C4F15468   7.020   4.853   6.525  0.7442  0.0019 -0.1550
  141OSM    H4F15469   7.115   4.806   6.557 -0.2141 -0.3204  2.4804
  141OSM    H4G15470   6.962   4.771   6.479  0.5960  0.5089 -0.8911
  141OSM    C5F15471   6.928   4.902   6.643 -0.1484  0.2794 -0.2272
  141OSM    H5F15472   6.831   4.928   6.596  0.2679 -1.8136 -2.4648
  141OSM    H5G15473   6.977   4.996   6.677 -0.8928  1.0977 -1.3394
  141OSM    C6F15474   6.927   4.795   6.751 -0.2742 -0.1157  0.0083
  141OSM    H6F15475   7.033   4.768   6.772 -0.6798 -1.1264  0.8283
  141OSM    H6G15476   6.869   4.707   6.717  0.1447 -1.3627  2.3451
  141OSM    C7F15477   6.879   4.848   6.884 -0.8204 -0.0320 -0.5559
  141OSM    H7F15478   6.771   4.870   6.872 -1.0475  0.0608  1.2919
  141OSM    H7G15479   6.931   4.942   6.915  0.0280 -0.4871 -0.5778
  141OSM    C8F15480   6.892   4.742   6.997  0.6366 -0.4836  0.6458
  141OSM    H8F15481   6.866   4.779   7.099 -1.0865 -2.3095  0.9262
  141OSM    H8G15482   6.999   4.710   6.999  1.1253  1.0913  1.2133
  141OSM    C9F15483   6.793   4.635   6.985 -0.5230  0.3616  0.5140
  141OSM    H9F15484   6.691   4.668   6.959 -0.2609  0.2517 -0.7089
  141OSM   C10F15485   6.829   4.507   7.002  0.9122 -0.0290 -0.3181
  141OSM   H10F15486   6.745   4.440   7.024 -0.1604  0.7796 -1.7817
  141OSM   C11F15487   6.957   4.439   7.043 -1.0242  0.4139  0.7170
  141OSM   H11F15488   7.036   4.517   7.038 -0.2912 -0.1538  2.5772
  141OSM   H11G15489   6.983   4.361   6.968 -0.4895  1.5770 -0.3520
  141OSM   C12F15490   6.944   4.379   7.188 -0.7883  0.6607 -0.6548
  141OSM   H12F15491   6.849   4.324   7.207 -1.1357  1.2464 -0.7050
  141OSM   H12G15492   6.945   4.463   7.260  0.6362  1.0626 -1.1145
  141OSM   C13F15493   7.059   4.288   7.222  0.2682 -0.6395 -0.5217
  141OSM   H13F15494   7.160   4.330   7.199  0.3002 -0.2206  0.3529
  141OSM   H13G15495   7.059   4.194   7.162 -0.4640  1.0328 -3.3551
  141OSM   C14F15496   7.060   4.251   7.377 -0.0720  0.6616  0.1838
  141OSM   H14F15497   6.964   4.211   7.415 -0.5703  0.4148 -1.2924
  141OSM   H14G15498   7.085   4.339   7.440  0.9328 -1.3870  2.8438
  141OSM   C15F15499   7.154   4.128   7.402 -0.1624 -0.3042 -1.0117
  141OSM   H15F15500   7.257   4.165   7.381 -1.3755  3.4053 -1.1191
  141OSM   H15G15501   7.138   4.049   7.326 -0.5784 -0.4312 -0.7913
  141OSM   C16F15502   7.134   4.065   7.538  0.0282  0.1923 -0.5396
  141OSM   H16F15503   7.029   4.055   7.573 -0.8438  1.8646 -2.4825
  141OSM   H16G15504   7.174   4.145   7.603  2.7294  0.4594 -2.3592
  141OSM   C17F15505   7.196   3.921   7.563  0.3118 -0.2083  0.4718
  141OSM   H17F15506   7.139   3.841   7.511  1.2105  0.3731 -1.4797
  141OSM   H17G15507   7.187   3.894   7.670  1.0215 -0.8919  0.3657
  141OSM   C18F15508   7.343   3.917   7.523  0.6281  0.7527  0.2410
  141OSM   H18F15509   7.384   3.815   7.538 -2.0160 -0.4606 -0.1139
  141OSM   H18G15510   7.406   3.976   7.593  0.7342  0.4135  0.4328
  141OSM   H18H15511   7.355   3.939   7.415 -1.6569 -2.7105 -0.8967
  142OSM      N15512   0.502   6.297   5.612  0.1608  0.2779 -0.4283
  142OSM    C1515513   0.409   6.346   5.509 -0.0044 -0.2135 -0.8319
  142OSM   H15A15514   0.454   6.432   5.462  1.4979  0.2650  1.3571
  142OSM   H15B15515   0.307   6.360   5.542 -0.0932 -3.4372  0.5607
  142OSM   H15C15516   0.403   6.274   5.429 -1.7758  0.7092 -1.5959
  142OSM    C1415517   0.629   6.241   5.549  0.5807 -0.3507 -0.5075
  142OSM   H14A15518   0.671   6.317   5.485  1.4717  0.4092  0.9342
  142OSM   H14B15519   0.617   6.145   5.501  0.3822 -0.0231 -1.1278
  142OSM   H14C15520   0.699   6.220   5.629  1.4313  2.2179 -0.4715
  142OSM    C1315521   0.536   6.412   5.709  0.3856  0.2387  0.6066
  142OSM   H13A15522   0.452   6.459   5.758  0.0038 -1.0538  1.2351
  142OSM   H13B15523   0.580   6.496   5.657 -1.2703  0.2652 -0.8698
  142OSM   H13C15524   0.592   6.369   5.791  1.7884 -2.8246 -1.7510
  142OSM    C1215525   0.433   6.194   5.694  0.2343  0.0429 -0.5362
  142OSM   H12A15526   0.475   6.188   5.793  0.6500  1.4417 -0.6038
  142OSM   H12B15527   0.437   6.102   5.637  0.3113 -0.2711 -0.0281
  142OSM    C1115528   0.283   6.228   5.725  0.2894 -0.8585  0.5472
  142OSM   H11A15529   0.268   6.338   5.728 -1.0577 -0.9129 -1.7101
  142OSM   H11B15530   0.265   6.186   5.826 -0.4824 -2.0163 -0.0609
  142OSM      P15531   0.134   6.037   5.634  0.7485 -0.5251 -0.1567
  142OSM    O1315532   0.029   6.036   5.533  0.1924 -0.1828  0.4551
  142OSM    O1415533   0.245   5.943   5.619 -0.6460  0.4283 -0.5252
  142OSM    O1115534   0.083   6.031   5.783 -0.7344  0.1556  0.1040
  142OSM    O1215535   0.193   6.183   5.622 -1.0649  0.4260 -0.1807
  142OSM    C1S15536   0.013   5.927   5.855  0.4521  0.2693 -0.3889
  142OSM    H1S15537   0.050   5.827   5.825  0.4452  0.6362 -1.7006
  142OSM    H1T15538  -0.094   5.945   5.831  0.6082 -0.3954 -1.6447
  142OSM     NF15539  -0.003   5.809   6.081 -0.0563 -0.2100 -0.1396
  142OSM    HNF15540  -0.093   5.809   6.124  0.1193 -0.8242  0.2414
  142OSM    C2S15541   0.040   5.930   6.014 -0.6750  0.0935  0.3066
  142OSM    H2S15542   0.150   5.933   6.027 -0.6029 -0.0842 -0.2585
  142OSM    C3S15543  -0.036   6.060   6.070 -0.2123  0.5979 -0.0603
  142OSM    H3S15544  -0.145   6.045   6.053  0.0029  0.7994 -1.8316
  142OSM     O315545  -0.008   6.173   5.990  0.0486  0.1031 -0.4948
  142OSM    HO315546   0.054   6.144   5.923 -0.2027  0.5400 -0.9168
  142OSM    C4S15547  -0.004   6.082   6.218 -0.2098  0.0836 -0.0793
  142OSM    H4S15548   0.096   6.123   6.239  1.1840 -3.5061  0.9945
  142OSM    C5S15549  -0.074   6.047   6.325  0.3469 -0.1611 -0.3802
  142OSM    H5S15550  -0.171   5.998   6.308  0.5612 -0.7466  0.0342
  142OSM    C6S15551  -0.034   6.060   6.466 -0.1949  0.0660 -0.8545
  142OSM    H6S15552  -0.079   5.975   6.522  0.0289  1.2823  1.2818
  142OSM    H6T15553  -0.080   6.154   6.503  0.0540  0.5073 -1.6400
  142OSM    C7S15554   0.120   6.071   6.501 -0.2799  0.1059 -0.2683
  142OSM    H7S15555   0.170   6.162   6.462 -0.1572  1.3261  2.5080
  142OSM    H7T15556   0.164   5.976   6.464 -2.7321 -1.1924 -0.0724
  142OSM    C8S15557   0.151   6.094   6.652 -0.5806  0.1634 -0.2392
  142OSM    H8S15558   0.063   6.057   6.708 -0.4667 -0.9256 -0.7629
  142OSM    H8T15559   0.158   6.203   6.671  0.4121  0.4529 -2.0324
  142OSM    C9S15560   0.266   6.009   6.711  0.6126  0.0160  0.3508
  142OSM    H9S15561   0.286   5.915   6.654  4.4647  1.6554 -1.4177
  142OSM    H9T15562   0.226   5.985   6.812 -0.4608 -1.8808 -0.4624
  142OSM   C10S15563   0.397   6.090   6.722  0.4250 -0.1737  0.5883
  142OSM   H10S15564   0.372   6.185   6.775  0.9957  1.3467 -1.7440
  142OSM   H10T15565   0.435   6.121   6.623 -2.3111 -1.0701 -0.8594
  142OSM   C11S15566   0.520   6.014   6.777 -0.0836  0.2679 -0.3224
  142OSM   H11S15567   0.604   6.083   6.798  0.6677 -1.0731  1.3014
  142OSM   H11T15568   0.549   5.949   6.692  0.0121  0.7246 -0.6399
  142OSM   C12S15569   0.495   5.935   6.901  0.1227  0.5168 -0.6444
  142OSM   H12S15570   0.389   5.903   6.905 -0.7758  3.3229  0.3849
  142OSM   H12T15571   0.506   5.996   6.994 -0.2636 -0.1825 -0.1357
  142OSM   C13S15572   0.583   5.811   6.914 -0.9013  0.0534 -0.3334
  142OSM   H13S15573   0.561   5.756   6.820  1.1088 -0.0170 -0.8167
  142OSM   H13T15574   0.554   5.745   6.998 -2.8561  1.4171  0.1011
  142OSM   C14S15575   0.735   5.824   6.912 -0.3021  0.1570  0.3506
  142OSM   H14S15576   0.763   5.879   6.820 -0.1667  1.0250  0.9062
  142OSM   H14T15577   0.789   5.728   6.894  0.1206  0.7222 -1.6672
  142OSM   C15S15578   0.779   5.901   7.037 -0.4525  0.0915 -0.0077
  142OSM   H15S15579   0.716   5.991   7.057  1.7161  2.0382 -1.4532
  142OSM   H15T15580   0.879   5.943   7.013  0.8754 -1.7559  1.9642
  142OSM   C16S15581   0.796   5.816   7.161 -0.5963 -0.0070 -0.0205
  142OSM   H16S15582   0.905   5.804   7.175 -0.1692  1.1753 -1.9028
  142OSM   H16T15583   0.743   5.719   7.156  0.3271 -0.5952  1.1848
  142OSM   C17S15584   0.753   5.887   7.283  0.6675  0.1817 -0.6010
  142OSM   H17S15585   0.754   5.819   7.371  0.5854 -0.8292 -1.3653
  142OSM   H17T15586   0.646   5.913   7.273  1.4449  3.8599 -0.8186
  142OSM   C18S15587   0.836   6.007   7.315 -0.2954  0.7020 -0.1167
  142OSM   H18S15588   0.801   6.064   7.403  1.7029  0.7839  0.6817
  142OSM   H18T15589   0.847   6.077   7.230  1.4061  0.2172 -0.3373
  142OSM   H18U15590   0.942   5.976   7.330 -1.0619 -1.4534  1.3956
  142OSM    C1F15591   0.060   5.696   6.078  0.4179  0.1119 -0.6333
  142OSM     OF15592   0.151   5.686   5.994  0.1650  0.2292 -0.0588
  142OSM    C2F15593   0.007   5.597   6.168 -0.2762 -0.0939 -0.2513
  142OSM    H2F15594  -0.072   5.539   6.116 -0.7735  0.7938 -0.5005
  142OSM    H2G15595  -0.043   5.649   6.252 -0.6282  1.2668 -1.2709
  142OSM    C3F15596   0.101   5.488   6.208 -1.0105 -0.1935  0.2193
  142OSM    H3F15597   0.132   5.428   6.120  0.4557  1.4417 -0.4399
  142OSM    H3G15598   0.053   5.416   6.278  1.7171 -0.8698  1.5448
  142OSM    C4F15599   0.236   5.538   6.271 -0.6261 -0.2810  0.6799
  142OSM    H4F15600   0.286   5.600   6.192 -1.2041 -0.9586 -0.2324
  142OSM    H4G15601   0.304   5.452   6.289  0.6580  1.1783  3.4401
  142OSM    C5F15602   0.227   5.620   6.403 -0.0987 -0.1321  0.9482
  142OSM    H5F15603   0.171   5.712   6.376  0.7606  0.6224  1.6527
  142OSM    H5G15604   0.328   5.658   6.428  0.6161 -1.1818 -0.2024
  142OSM    C6F15605   0.164   5.543   6.514 -0.1476 -0.1861  0.5280
  142OSM    H6F15606   0.209   5.442   6.525  0.2293 -0.0698  0.0663
  142OSM    H6G15607   0.055   5.539   6.493 -0.4527  2.0612  1.4033
  142OSM    C7F15608   0.162   5.620   6.649 -0.4803  0.0988  0.0168
  142OSM    H7F15609   0.106   5.716   6.642  1.5539  1.2994 -0.7880
  142OSM    H7G15610   0.268   5.639   6.678 -0.9145  2.1669  0.4537
  142OSM    C8F15611   0.087   5.553   6.763  0.2521 -0.8612  0.2917
  142OSM    H8F15612  -0.016   5.525   6.732  0.2140 -0.9426  0.4909
  142OSM    H8G15613   0.061   5.635   6.834 -1.3256 -0.9743 -0.1204
  142OSM    C9F15614   0.152   5.435   6.826  0.4312 -0.6442 -0.8188
  142OSM    H9F15615   0.210   5.375   6.755 -0.5531 -3.0653  0.3249
  142OSM   C10F15616   0.147   5.406   6.955  0.3077  0.9325  0.0554
  142OSM   H10F15617   0.198   5.311   6.978 -0.5890 -0.1745 -2.2827
  142OSM   C11F15618   0.080   5.493   7.061  0.6465  0.2293  0.2966
  142OSM   H11F15619   0.021   5.433   7.133 -1.0875  0.8369 -0.5595
  142OSM   H11G15620   0.002   5.568   7.036  0.9943  0.7479  0.7329
  142OSM   C12F15621   0.186   5.566   7.151 -0.3971  0.6834  0.3237
  142OSM   H12F15622   0.280   5.507   7.158  2.3521  4.3015 -2.2470
  142OSM   H12G15623   0.152   5.596   7.253 -1.6662  1.3316 -0.2712
  142OSM   C13F15624   0.229   5.703   7.093  0.3792  0.9409  0.5537
  142OSM   H13F15625   0.137   5.754   7.059 -0.0693  0.5891  1.2251
  142OSM   H13G15626   0.291   5.691   7.001 -0.8049  1.9239 -0.3915
  142OSM   C14F15627   0.316   5.790   7.186  0.2654 -0.3923 -0.1239
  142OSM   H14F15628   0.350   5.871   7.119 -0.7165  1.4239  1.4627
  142OSM   H14G15629   0.404   5.727   7.211  0.8916  0.1263 -0.9776
  142OSM   C15F15630   0.248   5.848   7.316  0.0546  0.7470  0.1808
  142OSM   H15F15631   0.257   5.780   7.403  0.6864 -0.3051 -0.6756
  142OSM   H15G15632   0.140   5.872   7.305 -0.2532 -0.3884  0.5957
  142OSM   C16F15633   0.324   5.979   7.348  0.3863  0.0452 -0.6900
  142OSM   H16F15634   0.307   6.047   7.261 -0.1527 -1.4431 -1.7913
  142OSM   H16G15635   0.429   5.944   7.357 -0.3731 -2.2750 -0.0777
  142OSM   C17F15636   0.275   6.037   7.484  0.2883 -0.0545 -0.2099
  142OSM   H17F15637   0.344   6.123   7.499  2.1809 -1.6625  0.8583
  142OSM   H17G15638   0.302   5.965   7.565  1.6590  0.3604 -0.2666
  142OSM   C18F15639   0.128   6.073   7.486  0.2248 -0.0674 -0.0547
  142OSM   H18F15640   0.068   5.979   7.491  0.7231 -0.5105 -1.7650
  142OSM   H18G15641   0.099   6.133   7.397  0.5288 -2.6216 -2.0149
  142OSM   H18H15642   0.100   6.137   7.573 -0.4966 -2.2747  1.4326
  143OSM      N15643   1.122   7.173   5.302  0.3972 -0.4008  0.5694
  143OSM    C1515644   1.205   7.129   5.189 -0.1905  0.1537  0.1581
  143OSM   H15A15645   1.310   7.115   5.214  0.0511 -1.0648 -1.3550
  143OSM   H15B15646   1.210   7.209   5.117 -2.0844  1.0086  0.9125
  143OSM   H15C15647   1.188   7.030   5.148 -0.8503  0.6481 -0.7883
  143OSM    C1415648   1.151   7.323   5.313 -0.1799  0.6661 -0.1338
  143OSM   H14A15649   1.163   7.368   5.215  1.7155  1.8990  0.6159
  143OSM   H14B15650   1.245   7.338   5.364 -1.4510  1.2452  2.2010
  143OSM   H14C15651   1.069   7.370   5.364  0.6389  0.7204  1.1789
  143OSM    C1315652   0.978   7.153   5.267  0.1952  0.2145 -0.2648
  143OSM   H13A15653   0.939   7.225   5.196 -1.5545  1.0058  1.4274
  143OSM   H13B15654   0.909   7.152   5.350 -2.0306 -0.4968 -2.0206
  143OSM   H13C15655   0.977   7.057   5.217 -0.1737  0.4330 -0.6800
  143OSM    C1215656   1.161   7.097   5.429 -0.9881 -0.3246  0.2831
  143OSM   H12A15657   1.256   7.145   5.450 -1.0923  0.6841 -1.3942
  143OSM   H12B15658   1.153   6.992   5.402  2.0372 -0.7755  0.6746
  143OSM    C1115659   1.073   7.129   5.553  0.3100  0.2959  0.9327
  143OSM   H11A15660   1.063   7.239   5.559  1.1594  0.2993  3.2722
  143OSM   H11B15661   1.131   7.089   5.639  1.8953 -0.6373 -0.5055
  143OSM      P15662   0.924   6.911   5.577  0.1767 -0.0597  0.1575
  143OSM    O1315663   0.848   6.846   5.468  0.1687 -0.3950  0.1941
  143OSM    O1415664   1.051   6.850   5.603 -0.1031  0.0164 -0.3829
  143OSM    O1115665   0.832   6.910   5.700  0.0928 -0.0477 -0.0461
  143OSM    O1215666   0.947   7.060   5.533  0.6423  0.4421 -0.1225
  143OSM    C1S15667   0.866   7.005   5.799 -0.6045 -0.1299  0.6099
  143OSM    H1S15668   0.820   7.105   5.782  0.6647  0.0054 -2.8366
  143OSM    H1T15669   0.974   7.023   5.818 -0.9867  0.3195  2.5612
  143OSM     NF15670   0.852   7.083   6.033 -0.2570  0.0538  0.0035
  143OSM    HNF15671   0.941   7.076   6.079  0.3022  2.4141 -0.5428
  143OSM    C2S15672   0.814   6.969   5.944  0.0279 -0.7058  0.3202
  143OSM    H2S15673   0.703   6.968   5.946 -0.1258 -1.1178 -3.1484
  143OSM    C3S15674   0.867   6.830   5.980 -0.2830 -1.2727 -0.4661
  143OSM    H3S15675   0.974   6.832   5.949 -0.5369  0.9035 -1.3597
  143OSM     O315676   0.801   6.726   5.905 -0.0921  0.1595  0.3123
  143OSM    HO315677   0.751   6.768   5.835  0.0139 -1.2659 -0.6423
  143OSM    C4S15678   0.845   6.803   6.125 -0.3668  0.9088 -0.2633
  143OSM    H4S15679   0.743   6.813   6.166 -0.5339  2.5800 -0.9906
  143OSM    C5S15680   0.950   6.769   6.205 -0.6277 -0.0821  0.5093
  143OSM    H5S15681   1.053   6.766   6.164 -1.3087 -0.8347 -1.2575
  143OSM    C6S15682   0.936   6.749   6.354  0.2757  0.9972 -0.3954
  143OSM    H6S15683   1.014   6.811   6.403 -0.5076  0.8217  1.1628
  143OSM    H6T15684   0.959   6.643   6.380 -0.2620  0.7485 -0.8998
  143OSM    C7S15685   0.802   6.772   6.427  0.7997  0.0790  0.8629
  143OSM    H7S15686   0.726   6.718   6.367 -0.1725 -0.0830  2.1949
  143OSM    H7T15687   0.783   6.881   6.416  2.4883  0.3143 -0.0699
  143OSM    C8S15688   0.789   6.722   6.570 -0.0125 -0.8428  0.0944
  143OSM    H8S15689   0.780   6.611   6.566  0.2046 -0.8699  0.2809
  143OSM    H8T15690   0.691   6.761   6.604  0.6084 -0.7475  1.8880
  143OSM    C9S15691   0.870   6.785   6.682 -0.4956 -0.1992  0.1105
  143OSM    H9S15692   0.860   6.895   6.688  2.2802  0.2412 -1.4604
  143OSM    H9T15693   0.979   6.777   6.659 -0.3219  0.4235  0.6831
  143OSM   C10S15694   0.842   6.723   6.817  0.0505  0.5161  0.5113
  143OSM   H10S15695   0.861   6.616   6.792  1.2929  0.7713  0.2847
  143OSM   H10T15696   0.735   6.724   6.847 -0.1556 -2.0207  0.1401
  143OSM   C11S15697   0.929   6.752   6.937 -0.0362 -0.2857  0.3231
  143OSM   H11S15698   0.884   6.845   6.977 -0.4540  0.1140 -1.0285
  143OSM   H11T15699   1.035   6.775   6.913  0.2136 -0.0014  1.6185
  143OSM   C12S15700   0.936   6.644   7.045  1.0068 -0.1682  0.7595
  143OSM   H12S15701   0.997   6.560   7.005  0.2349  0.5399 -2.1648
  143OSM   H12T15702   0.831   6.607   7.053  1.9531 -2.7354  2.6684
  143OSM   C13S15703   0.966   6.703   7.179  0.2658  0.0941  0.3045
  143OSM   H13S15704   0.920   6.804   7.183 -0.7034 -0.2989 -0.6870
  143OSM   H13T15705   1.076   6.720   7.167  0.2681  0.7885  1.1770
  143OSM   C14S15706   0.938   6.618   7.301 -0.4607 -0.1344  0.7909
  143OSM   H14S15707   0.838   6.569   7.302  0.8388 -3.1349 -1.0113
  143OSM   H14T15708   0.969   6.682   7.386  0.6240  0.5373 -0.0822
  143OSM   C15S15709   1.030   6.490   7.299  0.0091  0.3305 -0.4771
  143OSM   H15S15710   1.139   6.508   7.291  0.0582  0.3290  0.1436
  143OSM   H15T15711   0.996   6.427   7.214  0.0887 -0.1170 -0.1788
  143OSM   C16S15712   1.011   6.399   7.420  0.0802 -0.0647  0.0907
  143OSM   H16S15713   0.906   6.380   7.449 -0.2159 -0.2620 -1.0560
  143OSM   H16T15714   1.036   6.462   7.508  2.6799  0.5326 -0.9826
  143OSM   C17S15715   1.101   6.276   7.425 -1.2114 -0.9767  0.5183
  143OSM   H17S15716   1.204   6.314   7.414 -1.5729  0.0508  0.6248
  143OSM   H17T15717   1.065   6.224   7.333 -2.9994 -1.3049  1.3520
  143OSM   C18S15718   1.091   6.187   7.551  0.2947  0.4445  0.1674
  143OSM   H18S15719   0.992   6.138   7.557  0.8374 -0.6266  0.5156
  143OSM   H18T15720   1.120   6.238   7.646 -1.4515  0.5329  0.6745
  143OSM   H18U15721   1.165   6.107   7.531  0.6378  0.8156 -0.0846
  143OSM    C1F15722   0.787   7.200   6.037  0.0629 -0.1166 -0.5794
  143OSM     OF15723   0.688   7.223   5.976  0.2571  0.4126  0.8542
  143OSM    C2F15724   0.861   7.299   6.121  0.5529 -0.0919  0.9997
  143OSM    H2F15725   0.846   7.400   6.078 -1.1618 -1.0534 -0.8235
  143OSM    H2G15726   0.966   7.264   6.132  0.1890 -2.6343 -2.1880
  143OSM    C3F15727   0.795   7.305   6.263  0.0271 -0.4482 -0.0336
  143OSM    H3F15728   0.687   7.318   6.238  0.2633  1.0619 -0.3598
  143OSM    H3G15729   0.837   7.393   6.316 -0.5719  1.2943 -2.2770
  143OSM    C4F15730   0.821   7.172   6.334  0.5325  0.1815 -0.6480
  143OSM    H4F15731   0.927   7.141   6.320  0.1141 -1.7438  0.1802
  143OSM    H4G15732   0.766   7.092   6.282  2.1625 -0.9965 -0.6188
  143OSM    C5F15733   0.773   7.193   6.480 -1.1648 -0.2582 -0.3140
  143OSM    H5F15734   0.815   7.288   6.518 -0.1445 -0.8140 -0.0378
  143OSM    H5G15735   0.822   7.116   6.543  0.8966  1.0355 -0.2690
  143OSM    C6F15736   0.623   7.205   6.502 -0.1738  0.0079 -0.8037
  143OSM    H6F15737   0.575   7.108   6.475  0.2600 -0.3387 -0.3617
  143OSM    H6G15738   0.581   7.285   6.438  0.7469  0.7238 -0.5322
  143OSM    C7F15739   0.592   7.253   6.648  0.0662  0.2368 -0.3728
  143OSM    H7F15740   0.642   7.352   6.654  1.1889 -0.0315 -3.4363
  143OSM    H7G15741   0.644   7.190   6.724  0.9760  1.3330 -0.0545
  143OSM    C8F15742   0.449   7.250   6.693  0.9025  0.3722  0.8283
  143OSM    H8F15743   0.406   7.147   6.700 -0.0754  0.1203 -4.6901
  143OSM    H8G15744   0.379   7.299   6.622 -0.2730 -0.1018  1.6199
  143OSM    C9F15745   0.434   7.327   6.820 -0.6888  0.2564  0.4838
  143OSM    H9F15746   0.382   7.424   6.807 -1.8225 -0.5947 -1.7834
  143OSM   C10F15747   0.456   7.282   6.945 -0.4648  0.5197 -0.4753
  143OSM   H10F15748   0.457   7.352   7.030  1.6588  0.0930 -0.1031
  143OSM   C11F15749   0.504   7.140   6.974  0.1722 -0.3710  0.6719
  143OSM   H11F15750   0.615   7.146   6.972  0.1699 -0.1402  1.1171
  143OSM   H11G15751   0.464   7.062   6.907  0.3336  1.7860 -2.1194
  143OSM   C12F15752   0.475   7.096   7.117  0.0185 -0.0986 -0.0120
  143OSM   H12F15753   0.365   7.090   7.127  0.1216 -0.7787  0.8208
  143OSM   H12G15754   0.520   7.169   7.188  0.3019 -0.4705  0.1932
  143OSM   C13F15755   0.550   6.966   7.153  0.7665  0.2262 -0.2327
  143OSM   H13F15756   0.658   6.974   7.129  0.9179  1.8618  0.8024
  143OSM   H13G15757   0.505   6.888   7.088 -0.8640 -0.2064  1.3302
  143OSM   C14F15758   0.533   6.925   7.298  0.7902  0.2321  0.4796
  143OSM   H14F15759   0.425   6.927   7.325  0.4744  1.3980 -0.7548
  143OSM   H14G15760   0.587   7.000   7.359 -1.0742  0.9384  1.3525
  143OSM   C15F15761   0.588   6.782   7.312  0.0154 -0.1326 -0.7868
  143OSM   H15F15762   0.699   6.783   7.317 -0.0446  0.1373  1.5203
  143OSM   H15G15763   0.550   6.719   7.229  1.1594  1.3212 -2.5032
  143OSM   C16F15764   0.554   6.718   7.451  0.6764  0.2235  0.1152
  143OSM   H16F15765   0.443   6.714   7.447  0.4600  2.6124  1.5679
  143OSM   H16G15766   0.582   6.795   7.526  0.8127 -1.1789  1.5590
  143OSM   C17F15767   0.628   6.584   7.479  0.5520 -0.8133 -0.2796
  143OSM   H17F15768   0.732   6.623   7.477  0.4485 -0.5465 -2.3902
  143OSM   H17G15769   0.609   6.529   7.384  2.7933  0.6605 -1.6781
  143OSM   C18F15770   0.588   6.510   7.607  0.1884 -0.0451 -0.7312
  143OSM   H18F15771   0.608   6.575   7.696 -0.4793  0.2278 -0.7796
  143OSM   H18G15772   0.636   6.410   7.616 -1.5794 -0.7516  2.7420
  143OSM   H18H15773   0.478   6.494   7.609  0.0226  0.7046  2.4831
  144OSM      N15774   6.705   0.805   5.371 -0.2349 -0.3979 -0.6911
  144OSM    C1515775   6.763   0.691   5.294  0.4604 -0.0499  0.2582
  144OSM   H15A15776   6.751   0.713   5.189  0.4865  0.8338  0.4333
  144OSM   H15B15777   6.720   0.594   5.317 -1.5258  0.2546 -1.8630
  144OSM   H15C15778   6.870   0.679   5.308  0.2500  0.2358  2.5441
  144OSM    C1415779   6.733   0.931   5.299 -1.5009 -0.3485  0.1067
  144OSM   H14A15780   6.696   1.016   5.354  0.5097 -0.3360  1.5732
  144OSM   H14B15781   6.702   0.934   5.195  1.7764 -2.3947 -1.0925
  144OSM   H14C15782   6.840   0.950   5.299 -1.6084  0.4398  2.0457
  144OSM    C1315783   6.564   0.789   5.387  1.1658 -0.5254 -0.2731
  144OSM   H13A15784   6.502   0.810   5.301 -3.1985 -0.8029  2.5006
  144OSM   H13B15785   6.528   0.850   5.469  1.4069 -0.8233  0.0577
  144OSM   H13C15786   6.532   0.689   5.413 -0.3826 -0.1656 -0.6944
  144OSM    C1215787   6.768   0.807   5.511 -0.1937 -0.5297  0.6794
  144OSM   H12A15788   6.747   0.710   5.553 -1.3334  0.1137  1.6424
  144OSM   H12B15789   6.716   0.874   5.578  0.7563 -0.5634  1.4827
  144OSM    C1115790   6.917   0.825   5.524 -0.6864  0.2739 -1.0012
  144OSM   H11A15791   6.966   0.738   5.475  0.0836 -0.2092  0.5573
  144OSM   H11B15792   6.932   0.816   5.633 -2.0242  0.3219 -0.8013
  144OSM      P15793   6.989   1.069   5.560 -0.0936 -0.1238  0.0403
  144OSM    O1315794   7.044   1.188   5.488 -0.6654 -0.1519  0.1505
  144OSM    O1415795   6.856   1.098   5.626  0.3749 -0.1686 -0.5818
  144OSM    O1115796   7.095   1.017   5.667 -0.0464 -0.1563 -0.1145
  144OSM    O1215797   6.970   0.948   5.463  0.2755  0.2093  0.5482
  144OSM    C1S15798   7.101   1.076   5.798  0.1600 -0.5471  0.7503
  144OSM    H1S15799   7.022   1.151   5.819 -0.3728 -0.4604 -1.3073
  144OSM    H1T15800   7.198   1.130   5.805  1.0167 -1.8537 -0.5307
  144OSM     NF15801   7.092   1.022   6.042 -0.6941  0.2162  0.0005
  144OSM    HNF15802   7.172   1.041   6.098  1.1208 -0.4703 -2.2161
  144OSM    C2S15803   7.112   0.962   5.905 -0.0712  0.3475 -0.2772
  144OSM    H2S15804   7.023   0.900   5.883  0.1078 -0.0571  0.1366
  144OSM    C3S15805   7.240   0.882   5.879  0.1794 -0.0521 -0.0540
  144OSM    H3S15806   7.334   0.932   5.911  0.6456 -1.0326  0.1536
  144OSM     O315807   7.264   0.861   5.738 -0.4984 -1.0896  0.0748
  144OSM    HO315808   7.206   0.929   5.703  0.4566 -0.0078  0.5062
  144OSM    C4S15809   7.228   0.747   5.944 -0.1824  0.0285  0.1138
  144OSM    H4S15810   7.250   0.754   6.052  0.9018 -1.5856  0.0328
  144OSM    C5S15811   7.179   0.634   5.900  0.4554  0.6730 -0.0431
  144OSM    H5S15812   7.133   0.639   5.800  0.3747  2.5655  0.0598
  144OSM    C6S15813   7.166   0.505   5.973  0.4560  0.4238 -0.1712
  144OSM    H6S15814   7.209   0.524   6.074 -0.0489 -0.2997  0.1930
  144OSM    H6T15815   7.229   0.432   5.919  1.6413  0.9670  0.4327
  144OSM    C7S15816   7.022   0.461   5.975  1.3974  0.2691  0.9449
  144OSM    H7S15817   7.028   0.357   6.012  1.0958  0.3527  1.2407
  144OSM    H7T15818   6.982   0.455   5.872  2.8325 -3.5205  0.4650
  144OSM    C8S15819   6.927   0.532   6.073  0.0243 -0.2172 -0.5612
  144OSM    H8S15820   6.831   0.476   6.078  0.2629 -0.6664 -0.8783
  144OSM    H8T15821   6.901   0.628   6.024 -0.9961  0.3564  1.0171
  144OSM    C9S15822   6.981   0.561   6.211  0.1220 -0.1425 -0.0279
  144OSM    H9S15823   7.049   0.648   6.211 -1.7862  1.4141  0.8136
  144OSM    H9T15824   7.032   0.480   6.267 -0.2965  0.2669  0.9568
  144OSM   C10S15825   6.866   0.611   6.296 -0.1573  0.7845 -0.3991
  144OSM   H10S15826   6.790   0.531   6.303  1.8042 -1.4621 -2.6200
  144OSM   H10T15827   6.821   0.699   6.245 -3.8605 -1.1529 -0.7946
  144OSM   C11S15828   6.924   0.639   6.435  0.6351 -0.6595 -1.4900
  144OSM   H11S15829   7.003   0.717   6.438  2.6827 -2.6200 -1.4104
  144OSM   H11T15830   6.980   0.552   6.475  0.6780 -0.3422 -0.8449
  144OSM   C12S15831   6.811   0.660   6.546  0.5095 -0.6900 -0.0228
  144OSM   H12S15832   6.867   0.651   6.642 -0.2179 -0.6103  0.4215
  144OSM   H12T15833   6.737   0.577   6.535 -0.1586 -0.2945  1.2384
  144OSM   C13S15834   6.747   0.798   6.511  0.0535  0.5423  0.4613
  144OSM   H13S15835   6.727   0.810   6.402  1.0546  1.1488  0.3307
  144OSM   H13T15836   6.823   0.876   6.533  0.6932 -0.3729  1.6112
  144OSM   C14S15837   6.614   0.813   6.580  0.3020 -0.1629 -0.1010
  144OSM   H14S15838   6.539   0.745   6.534  0.6819 -0.2400 -0.6248
  144OSM   H14T15839   6.576   0.917   6.567  1.4053  0.1465 -1.0371
  144OSM   C15S15840   6.629   0.794   6.731  0.0682  0.0234 -0.8102
  144OSM   H15S15841   6.691   0.877   6.770  0.0857 -0.5967  0.5474
  144OSM   H15T15842   6.687   0.701   6.749 -1.0262 -0.3044  1.3443
  144OSM   C16S15843   6.488   0.779   6.804  0.0342 -0.3758 -0.2919
  144OSM   H16S15844   6.450   0.675   6.794 -1.4301  0.0437  0.5850
  144OSM   H16T15845   6.405   0.839   6.758 -2.4258 -0.8946  3.1065
  144OSM   C17S15846   6.500   0.807   6.958 -0.5047 -1.1198 -0.2568
  144OSM   H17S15847   6.585   0.873   6.985 -0.2089 -2.0905  1.2981
  144OSM   H17T15848   6.519   0.719   7.023 -1.2455  0.8874  2.9163
  144OSM   C18S15849   6.370   0.879   7.002 -0.3501  0.0642  0.5018
  144OSM   H18S15850   6.369   0.894   7.112 -0.1070  0.0265  0.5103
  144OSM   H18T15851   6.284   0.809   6.989  1.0891 -1.4389 -1.5812
  144OSM   H18U15852   6.358   0.972   6.943  1.3193 -0.1791 -0.2846
  144OSM    C1F15853   6.983   1.069   6.095  0.6843 -0.2934 -0.1732
  144OSM     OF15854   6.875   1.065   6.044 -0.2266 -0.3246 -0.2531
  144OSM    C2F15855   6.998   1.137   6.236  0.7875  0.3430 -0.2030
  144OSM    H2F15856   6.967   1.242   6.220  1.5764  0.8207  1.3059
  144OSM    H2G15857   7.108   1.137   6.252  0.9013 -1.7600 -0.6904
  144OSM    C3F15858   6.916   1.062   6.353 -0.0727 -0.4369 -0.3266
  144OSM    H3F15859   6.946   0.955   6.356 -3.0701 -1.4271 -1.6620
  144OSM    H3G15860   6.808   1.060   6.327  0.0681 -0.1277 -0.9530
  144OSM    C4F15861   6.923   1.137   6.492 -0.1856 -0.2832  0.3664
  144OSM    H4F15862   7.027   1.132   6.530 -0.5763  1.8262  1.8996
  144OSM    H4G15863   6.854   1.083   6.559 -1.1819  1.6404  0.9860
  144OSM    C5F15864   6.888   1.288   6.486 -0.0330  0.1573 -0.8081
  144OSM    H5F15865   6.795   1.323   6.436 -1.4741  1.5625  2.5490
  144OSM    H5G15866   6.974   1.337   6.437 -0.8597  1.2241 -1.2326
  144OSM    C6F15867   6.869   1.333   6.635  1.0060  0.0517  0.4625
  144OSM    H6F15868   6.874   1.443   6.649  1.8453  0.3777 -1.8810
  144OSM    H6G15869   6.956   1.288   6.686  0.3096 -1.0591  0.7016
  144OSM    C7F15870   6.739   1.277   6.706  0.4451  0.4934  0.3816
  144OSM    H7F15871   6.746   1.167   6.716  2.6448  0.3360 -1.9709
  144OSM    H7G15872   6.658   1.301   6.634  1.2193 -0.3794 -0.8182
  144OSM    C8F15873   6.714   1.340   6.848  0.8712  0.4219  0.4888
  144OSM    H8F15874   6.725   1.446   6.817  1.0453  0.3895  0.4374
  144OSM    H8G15875   6.798   1.317   6.916 -0.0996  0.5593  1.7717
  144OSM    C9F15876   6.582   1.307   6.915  0.2634 -0.7013 -0.5331
  144OSM    H9F15877   6.494   1.309   6.849  0.5601 -2.2288 -1.0305
  144OSM   C10F15878   6.567   1.276   7.050 -0.1003  1.2086 -0.1122
  144OSM   H10F15879   6.465   1.261   7.089  0.1719 -1.0360 -0.1225
  144OSM   C11F15880   6.667   1.265   7.157 -0.0230 -0.6255 -0.2457
  144OSM   H11F15881   6.620   1.316   7.243 -0.8712 -0.6430 -0.6867
  144OSM   H11G15882   6.759   1.320   7.129  0.8096 -2.2550 -0.8470
  144OSM   C12F15883   6.706   1.120   7.198  0.0052 -0.3369  0.1214
  144OSM   H12F15884   6.611   1.062   7.192  0.0345 -0.3050 -1.0366
  144OSM   H12G15885   6.751   1.118   7.299 -1.2055 -0.5129  0.6747
  144OSM   C13F15886   6.804   1.052   7.092  0.5441  0.6085 -0.1252
  144OSM   H13F15887   6.889   1.121   7.072  1.4624 -0.8437 -1.4808
  144OSM   H13G15888   6.757   1.043   6.992  1.6004 -0.5336 -0.5475
  144OSM   C14F15889   6.842   0.907   7.124  0.0795  0.0751 -0.2234
  144OSM   H14F15890   6.750   0.848   7.139  0.4092 -0.7342 -1.2542
  144OSM   H14G15891   6.902   0.901   7.217 -1.7839  1.3394  1.1290
  144OSM   C15F15892   6.907   0.837   7.004  0.2505 -0.4467  0.1050
  144OSM   H15F15893   6.977   0.914   6.965 -1.2407  1.0779  0.2913
  144OSM   H15G15894   6.823   0.816   6.934 -1.2113 -0.6322  1.8401
  144OSM   C16F15895   6.982   0.710   7.037 -0.0885 -0.5640  0.1891
  144OSM   H16F15896   7.061   0.736   7.111  0.8735  1.0731 -1.3403
  144OSM   H16G15897   7.052   0.690   6.953  1.1871  0.9877  0.8149
  144OSM   C17F15898   6.895   0.599   7.086 -0.3736  0.2061  0.7355
  144OSM   H17F15899   6.836   0.634   7.173 -0.2117 -0.3153  1.0618
  144OSM   H17G15900   6.962   0.516   7.117 -0.1148 -0.0171 -0.3931
  144OSM   C18F15901   6.801   0.538   6.989  0.2789  0.2031  0.0545
  144OSM   H18F15902   6.858   0.504   6.900  0.0360 -0.2365  0.0689
  144OSM   H18G15903   6.722   0.606   6.950  0.7428 -0.2080 -1.7003
  144OSM   H18H15904   6.740   0.455   7.029 -2.1304  1.3006 -1.1507
  145SAPE     N15905   1.923   3.103   9.584 -0.3992  0.2620  0.2582
  145SAPE   HN115906   1.825   3.137   9.586 -0.6811 -0.1350 -2.6978
  145SAPE   HN215907   1.941   3.102   9.687  1.8841  2.3911  0.0036
  145SAPE   HN315908   1.996   3.164   9.542  0.9003 -0.1931  1.7630
  145SAPE   C1215909   1.944   2.965   9.522  0.6507 -0.4466 -0.2260
  145SAPE  H12A15910   1.876   2.949   9.435 -1.3825  0.1972  1.1652
  145SAPE  H12B15911   1.929   2.893   9.605  1.7862  0.6616  0.9855
  145SAPE   C1115912   2.096   2.951   9.484  0.3512  0.4139  0.5108
  145SAPE  H11A15913   2.122   3.000   9.388  1.9313  0.1252  0.7567
  145SAPE  H11B15914   2.116   2.843   9.471 -0.8114  0.0769  1.3734
  145SAPE     P15915   2.329   2.946   9.594 -0.1441 -0.2630  0.3107
  145SAPE   O1315916   2.422   3.032   9.675 -0.1271 -0.0622  0.0657
  145SAPE   O1415917   2.318   2.805   9.633 -0.1927 -0.2605 -0.2051
  145SAPE   O1215918   2.185   3.003   9.586  0.5846 -0.1054 -0.2164
  145SAPE   O1115919   2.378   2.953   9.436 -0.6344 -0.2167  0.0462
  145SAPE    C115920   2.406   3.087   9.394  0.1584 -0.3896  0.0388
  145SAPE    HA15921   2.316   3.149   9.410 -0.3921 -1.5712  1.8432
  145SAPE    HB15922   2.483   3.131   9.461 -0.7612  1.2795  0.0409
  145SAPE    C215923   2.454   3.101   9.248  0.4395 -1.0842 -0.1053
  145SAPE    HS15924   2.560   3.068   9.238  1.0308  0.1960  1.6058
  145SAPE   O2115925   2.437   3.239   9.213 -0.4502  0.0799  0.0937
  145SAPE   C2115926   2.534   3.317   9.262  0.0120  0.4074 -0.4757
  145SAPE   O2215927   2.633   3.278   9.323 -0.1163 -0.2637 -0.1750
  145SAPE   C2215928   2.518   3.458   9.215  1.2890 -0.3557 -0.3087
  145SAPE   H2R15929   2.410   3.473   9.190  1.7238  1.0869 -1.4548
  145SAPE   H2S15930   2.547   3.529   9.296 -1.1833  0.7253 -0.2596
  145SAPE    C315931   2.365   3.007   9.156 -0.1305  0.3438  0.1306
  145SAPE    HX15932   2.256   3.024   9.168 -0.5506 -0.8642 -1.5296
  145SAPE    HY15933   2.386   2.902   9.183 -0.3718 -0.0578 -1.1800
  145SAPE   O3115934   2.378   3.043   9.016  0.1793  0.4370  0.1870
  145SAPE   C3115935   2.478   2.981   8.949  0.0609 -0.4391  1.0208
  145SAPE   O3215936   2.570   2.927   8.996 -0.6082 -0.2900 -0.5390
  145SAPE   C3215937   2.475   3.035   8.805 -0.5740  0.1477 -1.0392
  145SAPE   H2X15938   2.498   3.143   8.818 -2.0131  0.2573  0.9389
  145SAPE   H2Y15939   2.373   3.014   8.766 -1.3647 -2.5223  2.0649
  145SAPE   C2315940   2.597   3.490   9.086 -0.3877 -0.4451  0.7510
  145SAPE   H3R15941   2.702   3.480   9.121 -0.5280 -0.0750  1.2880
  145SAPE   H3S15942   2.580   3.596   9.058  1.7324 -0.0117  0.9433
  145SAPE   C2415943   2.572   3.387   8.980  0.3022 -0.7363  0.5104
  145SAPE   H4R15944   2.466   3.386   8.947  0.5582  1.0710 -0.4785
  145SAPE   H4S15945   2.599   3.287   9.020  0.5578 -2.0826 -2.6574
  145SAPE   C2515946   2.650   3.416   8.857 -0.5675  0.0665  0.4536
  145SAPE   H5R15947   2.757   3.410   8.883  0.3973  1.8410 -2.6816
  145SAPE   C2615948   2.611   3.449   8.729  0.3828 -0.0876  0.3803
  145SAPE   H6R15949   2.693   3.454   8.655 -0.4203  3.1822 -0.4480
  145SAPE   C2715950   2.474   3.443   8.675 -0.0174 -0.5378  0.2875
  145SAPE   H7R15951   2.389   3.455   8.745 -0.8779  2.8425 -1.1476
  145SAPE   H7S15952   2.461   3.352   8.613 -0.2466  0.5091 -1.2684
  145SAPE   C2815953   2.466   3.562   8.588 -0.7415 -0.4579 -0.8435
  145SAPE   H8R15954   2.468   3.655   8.647  0.1894 -1.2508  0.4502
  145SAPE   C2915955   2.482   3.576   8.458 -0.5958  0.1406 -0.1946
  145SAPE   H9R15956   2.460   3.673   8.409 -1.0892 -1.2175 -2.9013
  145SAPE  C21015957   2.507   3.471   8.350 -0.3213  0.2410 -0.6078
  145SAPE  H10R15958   2.567   3.389   8.396 -1.2807  0.0267  0.3068
  145SAPE  H10S15959   2.575   3.508   8.271 -1.0807 -0.7290 -1.7455
  145SAPE  C21115960   2.384   3.411   8.292  1.0589  1.3191 -0.6259
  145SAPE  H11R15961   2.306   3.379   8.363  0.4331  1.2388 -1.3489
  145SAPE  C21215962   2.357   3.409   8.160 -0.4317 -0.1239  0.2932
  145SAPE  H12R15963   2.258   3.371   8.132  0.0365 -3.2365  2.3063
  145SAPE  C21315964   2.436   3.474   8.049  0.5021 -0.2710  0.3113
  145SAPE  H13R15965   2.544   3.496   8.064  0.5342 -0.3419  0.1862
  145SAPE  H13S15966   2.388   3.574   8.042  2.3898  0.6022 -1.3698
  145SAPE  C21415967   2.409   3.403   7.921 -0.3951 -0.5997 -0.0294
  145SAPE  H14R15968   2.494   3.340   7.892  1.3772  1.6043  0.0949
  145SAPE  C21515969   2.317   3.430   7.818  0.2556  0.1121 -0.1565
  145SAPE  H15R15970   2.300   3.343   7.752  1.7050 -1.8329  1.8668
  145SAPE  C21615971   2.207   3.536   7.813 -0.1116 -0.4475 -0.2477
  145SAPE  H16R15972   2.222   3.614   7.891  0.5959  1.3064 -2.0304
  145SAPE  H16S15973   2.109   3.485   7.823 -0.8220  0.7889 -0.6931
  145SAPE  C21715974   2.195   3.621   7.679  0.4168  0.4431  0.6044
  145SAPE  H17R15975   2.279   3.693   7.678 -0.7889  1.9305  1.2571
  145SAPE  H17S15976   2.105   3.686   7.677  0.2608  0.2197 -0.0706
  145SAPE  C21815977   2.183   3.521   7.562 -0.3347  1.0952  0.7556
  145SAPE  H18R15978   2.103   3.445   7.578 -1.2979  1.7033 -0.8915
  145SAPE  H18S15979   2.282   3.472   7.547 -0.4224  1.0808  0.1889
  145SAPE  C21915980   2.156   3.596   7.431 -0.7615  0.4819  0.3509
  145SAPE  H19R15981   2.247   3.657   7.412  0.3930 -0.8595  1.3150
  145SAPE  H19S15982   2.056   3.645   7.434 -1.0864  0.2486 -3.2640
  145SAPE  C22015983   2.140   3.509   7.302 -0.1210  0.0084  0.2291
  145SAPE  H20R15984   2.054   3.439   7.299 -0.5227  0.5269 -1.2425
  145SAPE  H20S15985   2.227   3.440   7.297  0.2472  0.5222 -0.8867
  145SAPE  H20T15986   2.131   3.579   7.216  0.7651  0.8279  0.7839
  145SAPE   C3315987   2.592   2.970   8.719  1.2122  1.0168 -0.3187
  145SAPE   H3X15988   2.573   2.860   8.717 -0.7957  1.3257 -1.2461
  145SAPE   H3Y15989   2.692   2.972   8.767  1.9266 -0.1485 -1.6857
  145SAPE   C3415990   2.588   3.012   8.573  0.1429  0.5496  0.0613
  145SAPE   H4X15991   2.685   2.972   8.537 -0.7789 -2.4381  0.5960
  145SAPE   H4Y15992   2.580   3.121   8.551  1.1295  0.2169 -2.2172
  145SAPE   C3515993   2.480   2.940   8.499 -0.3393 -0.0836  0.3075
  145SAPE   H5X15994   2.380   2.968   8.538 -0.5499  0.5890 -0.6748
  145SAPE   H5Y15995   2.486   2.830   8.503  2.6958  0.0076  0.3140
  145SAPE   C3615996   2.484   2.988   8.357 -0.2267 -0.0090  0.2560
  145SAPE   H6X15997   2.579   2.943   8.320  0.5051  0.6462  1.2921
  145SAPE   H6Y15998   2.481   3.099   8.349 -0.4735 -0.1019 -1.3305
  145SAPE   C3715999   2.367   2.930   8.264 -0.5662 -0.6059 -0.1132
  145SAPE   H7X16000   2.274   2.979   8.299 -1.1056 -0.5455 -1.5683
  145SAPE   H7Y16001   2.345   2.825   8.293 -0.0873 -0.4885  0.7184
  145SAPE   C3816002   2.392   2.943   8.113 -0.8148 -0.4985 -0.3794
  145SAPE   H8X16003   2.500   2.964   8.096 -0.6288 -0.2565  0.9889
  145SAPE   H8Y16004   2.326   3.029   8.086 -0.8275  1.1020  3.9758
  145SAPE   C3916005   2.356   2.799   8.055  0.3671  0.8712  1.4861
  145SAPE   H9X16006   2.252   2.772   8.083  1.5133 -2.0291  3.3609
  145SAPE   H9Y16007   2.416   2.722   8.108  0.9305 -0.7545 -1.3196
  145SAPE  C31016008   2.384   2.790   7.903  0.9555  0.1228  0.8466
  145SAPE  H10X16009   2.487   2.750   7.897  1.0579  0.2883  1.4737
  145SAPE  H10Y16010   2.382   2.887   7.848 -1.4373  1.1201  2.5091
  145SAPE  C31116011   2.289   2.695   7.828  0.2042 -0.6134 -0.4737
  145SAPE  H11X16012   2.305   2.712   7.719 -1.0238  0.7264 -0.4761
  145SAPE  H11Y16013   2.183   2.726   7.840  0.3727  0.1896 -0.9585
  145SAPE  C31216014   2.301   2.550   7.858 -0.7885  0.8011 -0.0266
  145SAPE  H12X16015   2.303   2.540   7.969 -0.8482  1.7000  0.0630
  145SAPE  H12Y16016   2.393   2.503   7.818 -1.3270 -1.5516  1.3052
  145SAPE  C31316017   2.204   2.458   7.774 -0.6353 -0.2407 -0.0474
  145SAPE  H13X16018   2.233   2.460   7.667  1.2726  0.2957  0.4436
  145SAPE  H13Y16019   2.104   2.506   7.788 -0.6882 -0.2200 -0.4672
  145SAPE  C31416020   2.198   2.309   7.809 -0.0891 -0.2550  0.1742
  145SAPE  H14X16021   2.160   2.305   7.914  1.6174  1.1972  0.9091
  145SAPE  H14Y16022   2.293   2.254   7.792 -0.0991  0.6576 -3.7261
  145SAPE  C31516023   2.090   2.226   7.727 -0.4950 -1.0377  0.3483
  145SAPE  H15X16024   1.992   2.278   7.723  0.1790  0.3934  1.4927
  145SAPE  H15Y16025   2.063   2.131   7.778 -1.9501 -1.6289 -1.4460
  145SAPE  C31616026   2.138   2.187   7.589  0.2419  0.2645  0.2767
  145SAPE  H16X16027   2.234   2.131   7.585 -0.0208 -0.2125 -4.1560
  145SAPE  H16Y16028   2.168   2.281   7.538  2.0179  1.1778  2.7560
  145SAPE  C31716029   2.043   2.105   7.505 -0.2855  0.9853  0.3842
  145SAPE  H17X16030   1.956   2.171   7.488 -1.6978 -0.6542  0.9696
  145SAPE  H17Y16031   2.001   2.019   7.561 -0.4397  1.1236  0.4806
  145SAPE  C31816032   2.117   2.052   7.381 -0.3962  0.1441  0.4203
  145SAPE  H18X16033   2.073   1.962   7.333 -1.3621  1.4387 -1.2302
  145SAPE  H18Y16034   2.227   2.041   7.396 -0.1384 -0.8515 -1.7469
  145SAPE  H18Z16035   2.118   2.136   7.307  1.4984  1.5318  1.9118
  146SAPE     N16036   2.445   2.126   9.709  0.1710 -0.3689  0.9103
  146SAPE   HN116037   2.517   2.199   9.728  0.2128 -0.5972  1.6597
  146SAPE   HN216038   2.359   2.144   9.764 -1.3869 -2.1931 -0.8147
  146SAPE   HN316039   2.487   2.040   9.749  1.1244 -0.7173 -0.7455
  146SAPE   C1216040   2.409   2.112   9.561  0.9191 -1.0169  0.6292
  146SAPE  H12A16041   2.347   2.021   9.548  0.0479 -0.1786 -1.3956
  146SAPE  H12B16042   2.504   2.100   9.504 -1.5920 -1.3189 -3.9122
  146SAPE   C1116043   2.338   2.245   9.505  0.3570  0.7995  0.0892
  146SAPE  H11A16044   2.320   2.233   9.396 -0.6906 -1.9997  0.4966
  146SAPE  H11B16045   2.409   2.329   9.522  0.0052  1.0953  0.1100
  146SAPE     P16046   2.078   2.212   9.551 -0.1612 -0.1162  0.0280
  146SAPE   O1316047   2.078   2.073   9.601  0.1888  0.0118  0.1200
  146SAPE   O1416048   1.978   2.296   9.616 -0.1547 -0.2375 -0.4478
  146SAPE   O1216049   2.220   2.274   9.578 -0.5281  0.6657 -0.0188
  146SAPE   O1116050   2.061   2.212   9.396  0.5143 -0.0315  0.2220
  146SAPE    C116051   2.096   2.307   9.298  0.0941 -0.1695  0.8001
  146SAPE    HA16052   2.125   2.402   9.347  1.4969 -0.9910  1.6210
  146SAPE    HB16053   2.172   2.275   9.224 -0.8778  1.3865 -0.9340
  146SAPE    C216054   1.966   2.345   9.220 -0.0078 -0.4882  0.0316
  146SAPE    HS16055   1.878   2.352   9.287 -0.7424 -1.2600 -0.8288
  146SAPE   O2116056   1.955   2.236   9.123  0.0514  0.2513 -0.0463
  146SAPE   C2116057   1.878   2.133   9.164 -0.1280 -0.3735  0.3637
  146SAPE   O2216058   1.809   2.126   9.262  0.6692  0.6942 -0.1364
  146SAPE   C2216059   1.897   2.028   9.068  0.5878  0.0884  0.3104
  146SAPE   H2R16060   1.901   2.066   8.963  0.9884 -3.1989 -0.9923
  146SAPE   H2S16061   1.990   1.973   9.093  2.3579  3.0980  0.8271
  146SAPE    C316062   1.978   2.486   9.156  0.1426  0.1260 -0.3522
  146SAPE    HX16063   2.012   2.561   9.230  0.2966 -0.1650 -0.1242
  146SAPE    HY16064   1.880   2.497   9.105 -0.9857 -4.0624  0.5537
  146SAPE   O3116065   2.071   2.468   9.050 -0.0640 -0.3039 -0.1906
  146SAPE   C3116066   2.149   2.576   9.030  0.3771 -0.4776  0.2966
  146SAPE   O3216067   2.142   2.675   9.094  0.5462 -0.0593 -0.0139
  146SAPE   C3216068   2.231   2.548   8.902  0.1112  0.1291  0.2242
  146SAPE   H2X16069   2.208   2.442   8.878  1.3208 -0.8203  2.8320
  146SAPE   H2Y16070   2.338   2.556   8.932 -0.3080  0.1025  1.8342
  146SAPE   C2316071   1.777   1.932   9.073  0.4084 -0.5003 -0.1020
  146SAPE   H3R16072   1.676   1.977   9.068  0.3063 -0.6111  0.8451
  146SAPE   H3S16073   1.775   1.888   9.175  0.3563 -3.4482 -1.2936
  146SAPE   C2416074   1.800   1.810   8.985  0.4480  0.3391  0.1042
  146SAPE   H4R16075   1.739   1.726   9.023 -0.6933 -1.3971 -4.8042
  146SAPE   H4S16076   1.908   1.785   8.988  0.2912 -0.5120 -0.8244
  146SAPE   C2516077   1.761   1.842   8.843 -0.4687 -0.7546  0.1733
  146SAPE   H5R16078   1.659   1.875   8.819  0.6800  2.5110 -0.7381
  146SAPE   C2616079   1.844   1.830   8.741 -0.1193 -0.2357 -0.2338
  146SAPE   H6R16080   1.810   1.870   8.644 -1.8338  1.2899  0.9259
  146SAPE   C2716081   1.987   1.787   8.750 -0.0538 -0.0370 -0.4591
  146SAPE   H7R16082   2.044   1.835   8.832 -0.8973 -1.3988  0.9943
  146SAPE   H7S16083   2.037   1.812   8.654 -0.6682 -1.1100 -1.0763
  146SAPE   C2816084   2.011   1.633   8.762 -0.5477 -0.2183  0.6216
  146SAPE   H8R16085   2.009   1.610   8.869  0.1866  0.9071  0.8973
  146SAPE   C2916086   1.995   1.538   8.666 -0.1467 -0.2874 -0.2715
  146SAPE   H9R16087   2.016   1.435   8.699 -0.5412 -0.9933 -2.1166
  146SAPE  C21016088   1.950   1.564   8.529 -0.3381  0.4896  0.0033
  146SAPE  H10R16089   2.033   1.618   8.477 -0.9303  1.3371 -0.0891
  146SAPE  H10S16090   1.870   1.640   8.543 -2.3818 -1.8526  1.9992
  146SAPE  C21116091   1.914   1.439   8.451 -0.0504 -0.3593  0.2679
  146SAPE  H11R16092   1.902   1.344   8.504  0.3332 -0.8460 -0.4998
  146SAPE  C21216093   1.889   1.431   8.321  0.1567 -0.0973  0.1161
  146SAPE  H12R16094   1.868   1.334   8.274  0.8295  0.5599 -1.6359
  146SAPE  C21316095   1.902   1.544   8.225  0.3680  0.3273  0.0566
  146SAPE  H13R16096   2.007   1.580   8.227 -0.4927  3.2693 -1.3647
  146SAPE  H13S16097   1.846   1.633   8.262  0.5141  0.0241  1.0625
  146SAPE  C21416098   1.859   1.512   8.082  0.6042 -0.1371 -0.6417
  146SAPE  H14R16099   1.808   1.415   8.068 -0.4365  0.1818  0.7632
  146SAPE  C21516100   1.875   1.594   7.973  0.2136 -0.3284 -0.8060
  146SAPE  H15R16101   1.844   1.549   7.877  3.7389 -2.4851 -1.1067
  146SAPE  C21616102   1.949   1.729   7.965 -0.0557  0.1747  0.1069
  146SAPE  H16R16103   1.973   1.756   8.070 -0.1941 -0.1978  0.2341
  146SAPE  H16S16104   1.881   1.804   7.919  3.1693  2.7603 -0.8480
  146SAPE  C21716105   2.073   1.720   7.872 -0.2515 -1.0091 -0.1549
  146SAPE  H17R16106   2.057   1.653   7.786  0.1367  1.1993 -2.0570
  146SAPE  H17S16107   2.154   1.676   7.935 -0.0506  0.8361  0.9662
  146SAPE  C21816108   2.120   1.862   7.828 -0.1427  0.0546  0.2318
  146SAPE  H18R16109   2.128   1.932   7.913 -1.2326  1.0316 -0.4352
  146SAPE  H18S16110   2.053   1.903   7.750  1.0389 -0.8697 -1.3375
  146SAPE  C21916111   2.263   1.867   7.776 -0.7166 -0.1221  0.3576
  146SAPE  H19R16112   2.338   1.835   7.852  0.5416  1.5776 -0.1171
  146SAPE  H19S16113   2.291   1.968   7.740 -1.0180 -0.5742 -1.1827
  146SAPE  C22016114   2.284   1.778   7.648  0.3571 -0.0477  0.4097
  146SAPE  H20R16115   2.265   1.844   7.560 -1.0658 -0.6652  0.2120
  146SAPE  H20S16116   2.211   1.694   7.646  0.0600  0.2177 -0.9140
  146SAPE  H20T16117   2.386   1.737   7.635  0.0913  0.0248 -2.8349
  146SAPE   C3316118   2.206   2.655   8.794  0.4490 -0.1901  0.0347
  146SAPE   H3X16119   2.208   2.751   8.851 -1.1798 -0.0450 -0.0908
  146SAPE   H3Y16120   2.101   2.654   8.757  0.7110  1.0526 -0.8274
  146SAPE   C3416121   2.307   2.659   8.679 -0.1274 -0.1485  0.2450
  146SAPE   H4X16122   2.410   2.656   8.720  0.5739 -0.8114 -1.4572
  146SAPE   H4Y16123   2.290   2.744   8.609  0.3208  1.1182  1.6124
  146SAPE   C3516124   2.285   2.534   8.586 -0.4003 -0.8310  0.3363
  146SAPE   H5X16125   2.179   2.533   8.553  0.4351  0.7448 -2.8852
  146SAPE   H5Y16126   2.298   2.442   8.648 -1.9048 -0.2561  1.5536
  146SAPE   C3616127   2.362   2.529   8.455 -0.0846 -0.4904 -0.2853
  146SAPE   H6X16128   2.471   2.522   8.477 -0.1125  3.3794  2.0377
  146SAPE   H6Y16129   2.350   2.627   8.405 -3.3717 -0.5799  0.1461
  146SAPE   C3716130   2.299   2.422   8.363  0.2910 -0.0955 -0.2789
  146SAPE   H7X16131   2.196   2.460   8.348  0.8000  2.6170  2.1928
  146SAPE   H7Y16132   2.302   2.332   8.428 -1.1004  0.1788  0.1991
  146SAPE   C3816133   2.367   2.412   8.230  0.1603 -0.4510  0.0803
  146SAPE   H8X16134   2.366   2.517   8.194 -3.4860 -0.6319 -0.7491
  146SAPE   H8Y16135   2.296   2.354   8.167 -0.0378 -0.0892 -0.0329
  146SAPE   C3916136   2.500   2.351   8.224  1.2375  0.3288  0.2906
  146SAPE   H9X16137   2.513   2.249   8.265  2.2856  0.4793  0.3720
  146SAPE   H9Y16138   2.562   2.420   8.286 -0.1213  2.3009 -0.4229
  146SAPE  C31016139   2.553   2.343   8.077  0.0930 -0.4186 -0.2964
  146SAPE  H10X16140   2.516   2.440   8.036 -1.1046  0.1393  1.9212
  146SAPE  H10Y16141   2.504   2.261   8.020  1.9852  0.0424 -2.7556
  146SAPE  C31116142   2.703   2.328   8.074  0.1097  0.3565 -0.9737
  146SAPE  H11X16143   2.731   2.239   8.134  1.7117  2.1836  1.1957
  146SAPE  H11Y16144   2.751   2.407   8.137 -0.4515  2.8649 -3.4734
  146SAPE  C31216145   2.758   2.317   7.936  0.1601  0.2484  0.0807
  146SAPE  H12X16146   2.721   2.405   7.880  2.3155  2.5093  1.9499
  146SAPE  H12Y16147   2.701   2.234   7.888  1.3500 -0.5519 -0.0156
  146SAPE  C31316148   2.904   2.287   7.927  0.2988 -0.3448 -0.8931
  146SAPE  H13X16149   2.930   2.196   7.985  0.1296  0.1047 -0.1075
  146SAPE  H13Y16150   2.961   2.367   7.978  0.0991 -1.9110  1.9817
  146SAPE  C31416151   2.947   2.263   7.786  0.4335 -0.5003  0.2657
  146SAPE  H14X16152   3.055   2.248   7.766  0.5904  0.6754  0.1272
  146SAPE  H14Y16153   2.920   2.353   7.726  2.0703  0.2395  0.5867
  146SAPE  C31516154   2.874   2.147   7.721 -0.3368 -0.0777  0.4290
  146SAPE  H15X16155   2.897   2.149   7.612 -0.0447  1.6960  0.4941
  146SAPE  H15Y16156   2.767   2.166   7.742  0.0657 -1.9287  5.6100
  146SAPE  C31616157   2.898   2.012   7.791 -0.1766  0.3383  0.5911
  146SAPE  H16X16158   2.878   2.019   7.900 -1.4651 -3.4717  0.7443
  146SAPE  H16Y16159   3.008   1.999   7.785 -0.1596  0.7262 -0.0101
  146SAPE  C31716160   2.836   1.893   7.731 -0.1304 -0.0405  0.1396
  146SAPE  H17X16161   2.854   1.909   7.623  0.1655 -1.2780 -0.0075
  146SAPE  H17Y16162   2.725   1.893   7.734 -0.1610  2.4748  0.8109
  146SAPE  C31816163   2.904   1.765   7.774 -0.1527  0.9121  0.2851
  146SAPE  H18X16164   2.841   1.686   7.727  0.7658  0.7233 -0.6553
  146SAPE  H18Y16165   2.889   1.753   7.883 -0.7872  2.4985  0.4047
  146SAPE  H18Z16166   3.009   1.755   7.739 -0.3995  0.7318 -0.4274
  147SAPE     N16167   4.686   5.615   9.619  0.1360 -0.1434  0.0456
  147SAPE   HN116168   4.723   5.519   9.635  0.1176 -0.1714 -0.0810
  147SAPE   HN216169   4.604   5.588   9.562 -0.2157 -0.6844  0.7996
  147SAPE   HN316170   4.757   5.668   9.565 -0.1173 -1.3406 -1.5398
  147SAPE   C1216171   4.632   5.690   9.735  0.1175  0.3378  0.5182
  147SAPE  H12A16172   4.718   5.731   9.792  0.2418  1.2847 -0.3284
  147SAPE  H12B16173   4.557   5.623   9.784  0.6283 -1.5413 -1.1634
  147SAPE   C1116174   4.545   5.818   9.688 -0.8694  0.8191 -0.2241
  147SAPE  H11A16175   4.506   5.856   9.785  1.9288 -0.9877  1.7421
  147SAPE  H11B16176   4.455   5.788   9.630 -1.8109  0.1497  1.5202
  147SAPE     P16177   4.578   6.006   9.499  0.2496  0.2000 -0.1957
  147SAPE   O1316178   4.456   6.081   9.539 -0.2337  0.1973  0.5790
  147SAPE   O1416179   4.697   6.087   9.453  0.0953  0.2535  0.7043
  147SAPE   O1216180   4.632   5.916   9.619 -0.0489 -0.1376 -0.4042
  147SAPE   O1116181   4.519   5.897   9.391 -0.5288 -0.1711  0.7296
  147SAPE    C116182   4.383   5.897   9.346  0.5247  0.2847  0.1569
  147SAPE    HA16183   4.317   5.847   9.420 -2.2446  2.2474 -0.8209
  147SAPE    HB16184   4.350   5.997   9.310 -2.2051 -0.1489  1.1948
  147SAPE    C216185   4.365   5.803   9.220 -0.2855  0.6131 -0.3176
  147SAPE    HS16186   4.417   5.708   9.245  0.4349  1.1375  0.2307
  147SAPE   O2116187   4.433   5.872   9.115 -0.0771 -0.1520 -0.0495
  147SAPE   C2116188   4.484   5.785   9.021 -0.1434  0.0127 -0.2760
  147SAPE   O2216189   4.462   5.667   9.026  0.4814 -0.0683  0.1444
  147SAPE   C2216190   4.551   5.867   8.906  0.0367 -0.2480 -0.0645
  147SAPE   H2R16191   4.561   5.973   8.936  0.4759  0.0748 -1.2837
  147SAPE   H2S16192   4.655   5.827   8.902 -1.3301 -4.3462  0.5639
  147SAPE    C316193   4.215   5.774   9.195  0.3741 -0.0102 -0.8396
  147SAPE    HX16194   4.164   5.730   9.283 -2.3319 -0.7533 -2.6665
  147SAPE    HY16195   4.224   5.694   9.118  2.1390 -0.5561 -0.1333
  147SAPE   O3116196   4.150   5.891   9.148 -0.1695  0.1231 -0.1396
  147SAPE   C3116197   4.137   5.907   9.017 -0.5859  0.3508 -0.4299
  147SAPE   O3216198   4.158   5.823   8.933  1.1711  0.1723  0.1554
  147SAPE   C3216199   4.077   6.044   9.002  0.5748 -0.1237 -0.1703
  147SAPE   H2X16200   4.154   6.113   9.044  1.1988  0.6800 -2.5199
  147SAPE   H2Y16201   3.981   6.055   9.058  0.9964  0.3688  0.4793
  147SAPE   C2316202   4.464   5.863   8.782 -0.1215  0.8085  0.0778
  147SAPE   H3R16203   4.359   5.836   8.803 -0.1460  1.0531  0.2822
  147SAPE   H3S16204   4.492   5.783   8.711 -2.9736 -0.4971  0.2917
  147SAPE   C2416205   4.452   5.998   8.715  0.4202  0.7511 -0.4426
  147SAPE   H4R16206   4.424   6.079   8.786 -2.0954 -0.2729 -0.1669
  147SAPE   H4S16207   4.367   5.986   8.644 -0.4028 -1.0497  0.7708
  147SAPE   C2516208   4.576   6.036   8.645  0.3711  0.1128  1.0542
  147SAPE   H5R16209   4.651   6.065   8.720 -1.2083 -0.2399  2.8639
  147SAPE   C2616210   4.612   6.027   8.515  0.3070  0.2167  0.0495
  147SAPE   H6R16211   4.715   6.055   8.489  1.2130 -2.2179  0.7187
  147SAPE   C2716212   4.511   5.988   8.413 -0.3288 -0.1619  0.7886
  147SAPE   H7R16213   4.425   6.057   8.403 -0.2250 -0.1688 -0.1942
  147SAPE   H7S16214   4.463   5.894   8.448  0.6727 -1.5984 -1.4672
  147SAPE   C2816215   4.575   5.979   8.272 -0.1518  0.3492 -0.2194
  147SAPE   H8R16216   4.661   6.040   8.242  0.9424 -0.9817  0.1441
  147SAPE   C2916217   4.531   5.888   8.175  0.2570 -0.1383  0.1334
  147SAPE   H9R16218   4.591   5.883   8.084  1.6739 -1.0971  1.0810
  147SAPE  C21016219   4.406   5.804   8.177 -0.3291  0.3310 -0.0023
  147SAPE  H10R16220   4.351   5.836   8.268  1.4556  0.6143  1.0102
  147SAPE  H10S16221   4.429   5.695   8.174  2.3423  0.8544 -1.6450
  147SAPE  C21116222   4.314   5.821   8.064 -0.1992 -0.6823  0.3309
  147SAPE  H11R16223   4.356   5.828   7.963  0.1604  0.2427  0.5405
  147SAPE  C21216224   4.183   5.840   8.073  0.3682  0.5100 -0.1078
  147SAPE  H12R16225   4.136   5.857   7.975 -0.2386 -1.7114 -0.2511
  147SAPE  C21316226   4.095   5.835   8.194  0.4719  0.6554  0.3266
  147SAPE  H13R16227   4.120   5.931   8.244  2.9573  1.7093 -2.5918
  147SAPE  H13S16228   4.128   5.756   8.266  0.2032 -1.1627 -1.4476
  147SAPE  C21416229   3.949   5.816   8.181 -0.0870 -0.7437  0.0471
  147SAPE  H14R16230   3.884   5.902   8.202  0.6018 -0.3623  0.6267
  147SAPE  C21516231   3.894   5.696   8.168 -0.5464  0.4111 -0.5123
  147SAPE  H15R16232   3.787   5.690   8.144 -0.0748 -2.5465 -2.3931
  147SAPE  C21616233   3.965   5.566   8.160  0.4874  0.0800  0.2746
  147SAPE  H16R16234   3.965   5.514   8.258  1.7929 -0.1959  0.1451
  147SAPE  H16S16235   4.074   5.573   8.140  0.2495  0.7240 -0.9166
  147SAPE  C21716236   3.907   5.459   8.065  0.2741 -0.4736 -0.2570
  147SAPE  H17R16237   3.797   5.474   8.060  0.4739  1.5044  0.3550
  147SAPE  H17S16238   3.928   5.359   8.107 -1.8136 -1.4074 -1.3186
  147SAPE  C21816239   3.965   5.451   7.925  0.0244 -0.1654 -0.0662
  147SAPE  H18R16240   4.074   5.470   7.937 -0.3660  2.4998 -0.1953
  147SAPE  H18S16241   3.924   5.532   7.861 -0.2181 -0.9157 -0.8788
  147SAPE  C21916242   3.942   5.318   7.851 -0.5770  0.6559  0.2528
  147SAPE  H19R16243   3.833   5.298   7.842 -0.2015 -2.0029  0.7492
  147SAPE  H19S16244   3.977   5.230   7.910 -1.7623 -0.0807 -0.1047
  147SAPE  C22016245   4.008   5.325   7.712 -0.4477  0.1169  0.3596
  147SAPE  H20R16246   4.115   5.350   7.726 -0.9038  0.5913  3.7927
  147SAPE  H20S16247   3.968   5.411   7.654 -0.7611 -0.7794 -0.7815
  147SAPE  H20T16248   3.982   5.239   7.647 -1.2015  0.0670  0.7271
  147SAPE   C3316249   4.053   6.093   8.864  0.4013  0.2555 -0.5595
  147SAPE   H3X16250   4.146   6.069   8.808  0.5077 -0.4170 -0.1001
  147SAPE   H3Y16251   4.053   6.204   8.867  1.3702  0.2371  1.2805
  147SAPE   C3416252   3.941   6.022   8.782  0.2339  0.0260  0.3134
  147SAPE   H4X16253   3.839   6.053   8.814  0.8770  1.4423  1.1028
  147SAPE   H4Y16254   3.942   5.912   8.794 -1.9123 -0.0049  0.6462
  147SAPE   C3516255   3.942   6.067   8.634  0.9399  0.0254  0.7992
  147SAPE   H5X16256   3.893   5.996   8.565 -2.1150  2.9184 -0.2637
  147SAPE   H5Y16257   4.043   6.088   8.593  0.1301  3.7237  0.2971
  147SAPE   C3616258   3.858   6.196   8.603 -0.6039 -0.0958 -0.2468
  147SAPE   H6X16259   3.932   6.270   8.639  2.2216 -3.0919  0.5239
  147SAPE   H6Y16260   3.769   6.191   8.670  1.1813  0.3723  2.2923
  147SAPE   C3716261   3.830   6.221   8.456  0.5267  0.0273 -0.0205
  147SAPE   H7X16262   3.766   6.312   8.456 -2.3467 -1.8466  1.0441
  147SAPE   H7Y16263   3.778   6.132   8.415 -0.0543 -0.7741  2.3040
  147SAPE   C3816264   3.954   6.257   8.376 -0.0093 -0.2502  0.5411
  147SAPE   H8X16265   4.030   6.182   8.405 -0.7104 -0.4761  1.9159
  147SAPE   H8Y16266   3.991   6.354   8.415  0.0761  0.1230 -0.4507
  147SAPE   C3916267   3.925   6.260   8.223  0.8321 -0.6672  0.4655
  147SAPE   H9X16268   3.840   6.328   8.203 -0.2044 -1.8799  0.6691
  147SAPE   H9Y16269   3.884   6.161   8.195  0.4424 -0.4606  0.3109
  147SAPE  C31016270   4.044   6.306   8.141  0.4837  0.4475  0.1101
  147SAPE  H10X16271   4.019   6.279   8.037 -1.4058  0.9143  0.4093
  147SAPE  H10Y16272   4.124   6.238   8.178  0.7440  1.3953  1.3727
  147SAPE  C31116273   4.082   6.460   8.138  0.0674  0.7805 -1.2268
  147SAPE  H11X16274   4.143   6.496   8.223 -0.8271 -2.2155  0.8582
  147SAPE  H11Y16275   3.987   6.518   8.137 -0.0512  0.6241 -0.3125
  147SAPE  C31216276   4.174   6.495   8.023  0.1927 -0.0376 -0.0048
  147SAPE  H12X16277   4.144   6.438   7.932  0.4261  2.8264 -2.0406
  147SAPE  H12Y16278   4.278   6.460   8.041  1.0460  1.6911 -1.1905
  147SAPE  C31316279   4.162   6.643   7.996  0.0043  1.2534 -0.6139
  147SAPE  H13X16280   4.145   6.692   8.095 -0.9347  0.2557 -0.2552
  147SAPE  H13Y16281   4.077   6.679   7.935  0.3398  0.8909 -1.3099
  147SAPE  C31416282   4.297   6.691   7.940  0.2062  0.4485 -0.1574
  147SAPE  H14X16283   4.377   6.656   8.008  0.0207  2.0103  0.9311
  147SAPE  H14Y16284   4.292   6.802   7.948  1.7869  0.5060  0.2398
  147SAPE  C31516285   4.327   6.649   7.797 -0.4259 -0.1874  0.2642
  147SAPE  H15X16286   4.256   6.681   7.718  1.0330  1.8904 -0.3015
  147SAPE  H15Y16287   4.330   6.538   7.801  1.5789 -0.1928 -0.1296
  147SAPE  C31616288   4.465   6.702   7.748  0.0333 -0.2964  0.4470
  147SAPE  H16X16289   4.548   6.695   7.821 -0.5819  3.5615  1.7895
  147SAPE  H16Y16290   4.452   6.812   7.748  0.4534 -0.2210  2.0351
  147SAPE  C31716291   4.511   6.643   7.614  0.0434 -0.2377  0.2403
  147SAPE  H17X16292   4.432   6.664   7.539  0.0872 -1.8569 -0.2985
  147SAPE  H17Y16293   4.524   6.533   7.624  0.0605 -0.3007 -0.4407
  147SAPE  C31816294   4.633   6.703   7.547 -0.3580 -0.4666 -0.0130
  147SAPE  H18X16295   4.731   6.661   7.577 -0.0192  0.8906  0.8930
  147SAPE  H18Y16296   4.635   6.812   7.571 -0.0592 -0.6137  0.6509
  147SAPE  H18Z16297   4.629   6.683   7.438  0.2056  2.4475 -0.6595
  148SAPE     N16298   3.511   1.256   9.865 -0.3915 -0.2330  0.0379
  148SAPE   HN116299   3.536   1.156   9.853 -0.0107  0.0501 -1.7832
  148SAPE   HN216300   3.564   1.294   9.946  1.9994 -2.0284 -0.5784
  148SAPE   HN316301   3.410   1.239   9.885 -0.1788 -0.6286  0.8085
  148SAPE   C1216302   3.548   1.327   9.742 -0.2033 -0.0727  0.4585
  148SAPE  H12A16303   3.636   1.275   9.698  0.8111 -0.2079  2.5632
  148SAPE  H12B16304   3.594   1.423   9.772  1.4223 -0.9849  1.0138
  148SAPE   C1116305   3.421   1.346   9.643  0.2323  0.3670 -0.1238
  148SAPE  H11A16306   3.463   1.382   9.547  1.2659  3.9327  1.5168
  148SAPE  H11B16307   3.343   1.419   9.675  0.5063  1.4907 -1.9093
  148SAPE     P16308   3.401   1.117   9.522  0.1602  0.0827  0.2291
  148SAPE   O1316309   3.550   1.092   9.549 -0.2651 -0.0328  0.4665
  148SAPE   O1416310   3.311   1.001   9.518 -0.4260 -0.1278  0.1568
  148SAPE   O1216311   3.358   1.221   9.632  0.4827 -0.1160 -0.7932
  148SAPE   O1116312   3.386   1.196   9.383 -0.1474 -0.1941 -0.1278
  148SAPE    C116313   3.267   1.266   9.345  1.0082 -0.1372  0.2038
  148SAPE    HA16314   3.234   1.310   9.442  0.0476 -2.4822  1.0094
  148SAPE    HB16315   3.290   1.353   9.279 -1.3250 -0.8434 -1.6604
  148SAPE    C216316   3.159   1.178   9.292  0.4339  0.1667 -0.7340
  148SAPE    HS16317   3.117   1.119   9.376  1.6704  1.3000  0.7269
  148SAPE   O2116318   3.206   1.096   9.179  0.4756  0.2976  0.1149
  148SAPE   C2116319   3.128   0.983   9.166  0.3903 -0.5674 -0.5875
  148SAPE   O2216320   3.032   0.958   9.238 -0.8096  0.1815 -0.0524
  148SAPE   C2216321   3.185   0.888   9.066 -0.1829  0.7662 -0.7130
  148SAPE   H2R16322   3.264   0.943   9.011  0.5116  1.1716  0.6388
  148SAPE   H2S16323   3.235   0.807   9.124 -0.5287  0.2810 -1.0854
  148SAPE    C316324   3.035   1.264   9.249  0.4379  0.3079  1.0431
  148SAPE    HX16325   3.000   1.319   9.339 -1.3763 -1.2929  1.3823
  148SAPE    HY16326   2.942   1.204   9.240  0.0786  1.1138 -1.0947
  148SAPE   O3116327   3.068   1.363   9.147 -0.7567 -0.6785 -0.3717
  148SAPE   C3116328   3.075   1.313   9.025  0.0070 -0.8271  0.1375
  148SAPE   O3216329   3.030   1.205   8.994 -0.0617  0.2473 -0.1970
  148SAPE   C3216330   3.151   1.398   8.921  0.5868 -0.5749 -0.4983
  148SAPE   H2X16331   3.233   1.456   8.968 -0.6679  0.7252  0.1191
  148SAPE   H2Y16332   3.078   1.471   8.881  1.0249 -1.3485 -2.9106
  148SAPE   C2316333   3.092   0.830   8.957 -0.2375  0.3200 -0.2244
  148SAPE   H3R16334   3.039   0.910   8.900 -1.2601 -0.3508 -0.2317
  148SAPE   H3S16335   3.013   0.770   9.007  0.8585 -1.2941 -0.3702
  148SAPE   C2416336   3.183   0.749   8.865  0.9698  0.3416 -0.2085
  148SAPE   H4R16337   3.227   0.667   8.926  3.0178  0.0961 -1.8938
  148SAPE   H4S16338   3.265   0.804   8.816  1.6447 -1.0112 -0.6534
  148SAPE   C2516339   3.095   0.675   8.762 -0.2878 -0.3067  0.0451
  148SAPE   H5R16340   3.029   0.600   8.808 -1.1023 -0.1601 -0.8369
  148SAPE   C2616341   3.087   0.701   8.628  0.3254  0.0977 -0.6054
  148SAPE   H6R16342   3.007   0.653   8.571  1.0443  1.0946 -2.5538
  148SAPE   C2716343   3.167   0.802   8.544  0.2965 -0.3896 -0.3250
  148SAPE   H7R16344   3.188   0.748   8.448 -0.8913 -1.1801 -0.1593
  148SAPE   H7S16345   3.266   0.825   8.589  1.6525  1.5382 -3.9206
  148SAPE   C2816346   3.085   0.925   8.515 -0.3702 -0.1041  0.4779
  148SAPE   H8R16347   3.008   0.950   8.590 -1.1422  1.5286 -0.7883
  148SAPE   C2916348   3.089   1.011   8.410  0.3628  0.4993  0.2070
  148SAPE   H9R16349   3.031   1.105   8.411 -1.4152 -0.5389  1.7986
  148SAPE  C21016350   3.182   0.999   8.293 -0.7201  0.0462 -0.1223
  148SAPE  H10R16351   3.287   0.970   8.317 -0.8568  0.0304  0.4784
  148SAPE  H10S16352   3.196   1.099   8.247 -1.9829  1.0753  1.5885
  148SAPE  C21116353   3.126   0.890   8.199 -0.2598  0.4253  0.5560
  148SAPE  H11R16354   3.122   0.788   8.238 -0.1328 -0.3919 -1.4569
  148SAPE  C21216355   3.085   0.907   8.068  0.5325 -0.0299 -0.1178
  148SAPE  H12R16356   3.050   0.819   8.011  1.2592 -0.2041 -0.3141
  148SAPE  C21316357   3.082   1.031   7.984 -0.2137 -0.1802  0.3354
  148SAPE  H13R16358   3.172   1.020   7.920 -1.3834 -1.0334 -1.2122
  148SAPE  H13S16359   3.107   1.126   8.036 -0.8407  0.1699  0.0037
  148SAPE  C21416360   2.962   1.074   7.903  0.9176 -0.2291  0.0489
  148SAPE  H14R16361   2.872   1.012   7.905  1.9353 -1.7593  1.7329
  148SAPE  C21516362   2.963   1.187   7.827 -0.4461 -0.6094  0.6581
  148SAPE  H15R16363   2.870   1.207   7.774  0.8466  1.1813 -1.0892
  148SAPE  C21616364   3.073   1.288   7.799 -0.2546 -0.1233 -0.5609
  148SAPE  H16R16365   3.167   1.237   7.768 -0.4736  0.3024 -1.9855
  148SAPE  H16S16366   3.103   1.356   7.882 -1.3010  0.1205 -0.3761
  148SAPE  C21716367   3.047   1.380   7.676  0.0846  0.3431  0.6715
  148SAPE  H17R16368   3.107   1.473   7.682  1.9440 -0.5843 -1.8743
  148SAPE  H17S16369   2.941   1.412   7.666 -0.2883 -0.6470  1.2792
  148SAPE  C21816370   3.072   1.314   7.545  0.6328  0.3361 -0.1841
  148SAPE  H18R16371   3.010   1.222   7.533 -1.8922  1.8538  0.5717
  148SAPE  H18S16372   3.177   1.278   7.547  0.4695 -0.1369  0.0226
  148SAPE  C21916373   3.061   1.404   7.417  0.4356 -0.1719 -0.7630
  148SAPE  H19R16374   3.117   1.500   7.428 -0.3600  0.0670  2.3381
  148SAPE  H19S16375   2.956   1.441   7.408 -0.4846 -1.7235  2.0790
  148SAPE  C22016376   3.097   1.327   7.291 -0.7371 -0.2881 -0.9340
  148SAPE  H20R16377   3.066   1.396   7.210 -2.0618  0.4217  0.1454
  148SAPE  H20S16378   3.044   1.231   7.275 -1.1491 -0.1596 -0.3669
  148SAPE  H20T16379   3.208   1.313   7.286 -0.4206  1.9554 -1.2078
  148SAPE   C3316380   3.203   1.316   8.801  0.2224 -0.0296  0.6341
  148SAPE   H3X16381   3.130   1.238   8.774  0.3523  0.7122 -2.1972
  148SAPE   H3Y16382   3.292   1.253   8.822 -0.0253  0.1283  2.3294
  148SAPE   C3416383   3.240   1.404   8.679 -0.2540  0.2100 -0.3921
  148SAPE   H4X16384   3.332   1.461   8.704 -0.2537 -0.4612  1.2621
  148SAPE   H4Y16385   3.156   1.474   8.655  0.5330  1.6172  0.7623
  148SAPE   C3516386   3.283   1.324   8.551 -0.6154 -0.0890 -0.8347
  148SAPE   H5X16387   3.236   1.224   8.541  0.7691 -0.8937  0.2783
  148SAPE   H5Y16388   3.393   1.308   8.556 -0.6157  0.1202 -0.0571
  148SAPE   C3616389   3.253   1.407   8.422 -0.1555  0.1980 -0.4765
  148SAPE   H6X16390   3.256   1.517   8.436  1.4091  0.2130 -0.7262
  148SAPE   H6Y16391   3.150   1.379   8.391  0.0930  0.7793 -1.9194
  148SAPE   C3716392   3.351   1.373   8.304  0.2354  0.0188 -0.3387
  148SAPE   H7X16393   3.384   1.268   8.318 -1.3265 -0.4909 -0.2855
  148SAPE   H7Y16394   3.445   1.433   8.311  0.7005 -0.7085 -0.2527
  148SAPE   C3816395   3.286   1.403   8.169  0.9652 -1.0947  1.0639
  148SAPE   H8X16396   3.216   1.487   8.186 -0.6808 -2.2666  0.3530
  148SAPE   H8Y16397   3.225   1.318   8.132  0.2307 -0.6644  1.2868
  148SAPE   C3916398   3.382   1.434   8.052 -0.8259  0.0617  0.7287
  148SAPE   H9X16399   3.432   1.533   8.064 -0.8754  0.1044  0.5936
  148SAPE   H9Y16400   3.328   1.434   7.955  0.9269  2.6735 -0.3606
  148SAPE  C31016401   3.490   1.327   8.031  0.2302  0.3663  0.1505
  148SAPE  H10X16402   3.431   1.234   8.012 -1.0777  0.7072  2.2349
  148SAPE  H10Y16403   3.545   1.301   8.124 -0.0163  1.2236  0.5403
  148SAPE  C31116404   3.592   1.355   7.914 -0.0383  0.5952 -0.5669
  148SAPE  H11X16405   3.630   1.458   7.933  1.3630 -0.3070  2.0408
  148SAPE  H11Y16406   3.535   1.356   7.819  1.4554  0.1861 -1.5104
  148SAPE  C31216407   3.707   1.253   7.910 -0.3254 -0.8231  0.0631
  148SAPE  H12X16408   3.674   1.153   7.876  1.4426 -1.3358 -0.2549
  148SAPE  H12Y16409   3.753   1.249   8.011  0.6197 -1.1173 -0.3717
  148SAPE  C31316410   3.821   1.313   7.823  0.0010  0.2120 -0.1141
  148SAPE  H13X16411   3.859   1.408   7.867  1.2180 -0.0232 -0.6396
  148SAPE  H13Y16412   3.785   1.333   7.720 -3.3509 -0.8219  0.7304
  148SAPE  C31416413   3.938   1.209   7.828  0.4520 -0.5441 -0.0951
  148SAPE  H14X16414   3.885   1.113   7.808  0.1253 -0.4282  0.2169
  148SAPE  H14Y16415   3.996   1.197   7.922  0.8821 -4.1294 -0.6403
  148SAPE  C31516416   4.040   1.233   7.714  0.8321  0.2642 -0.3977
  148SAPE  H15X16417   3.988   1.214   7.618 -1.0254  0.2441  0.5826
  148SAPE  H15Y16418   4.108   1.148   7.738 -0.0431 -0.4144 -0.2818
  148SAPE  C31616419   4.113   1.372   7.713 -0.2249 -0.4249 -0.1039
  148SAPE  H16X16420   4.040   1.456   7.705  0.3154  0.2770  1.8176
  148SAPE  H16Y16421   4.184   1.374   7.628 -0.4019 -3.0222 -0.4027
  148SAPE  C31716422   4.183   1.401   7.847 -0.1778  0.2714  0.1164
  148SAPE  H17X16423   4.272   1.339   7.875 -0.0646  1.8673  3.9630
  148SAPE  H17Y16424   4.112   1.388   7.931 -2.2570  1.7740 -1.3277
  148SAPE  C31816425   4.242   1.538   7.859  0.0843  0.2332 -0.3650
  148SAPE  H18X16426   4.156   1.607   7.868  0.3718  0.4138  1.1620
  148SAPE  H18Y16427   4.304   1.570   7.772  0.9683 -0.6324 -0.0810
  148SAPE  H18Z16428   4.307   1.553   7.948 -0.3845 -0.5670  0.1230
  149SAPE     N16429   0.076   3.396   9.722 -0.0393 -0.4040 -0.2927
  149SAPE   HN116430   0.141   3.315   9.728 -2.6381 -2.5260  1.6520
  149SAPE   HN216431   0.011   3.402   9.803  1.0986  0.3794  0.5816
  149SAPE   HN316432   0.019   3.369   9.639  0.0785  0.4979 -0.6743
  149SAPE   C1216433   0.155   3.516   9.692 -0.0838 -0.0434  0.3876
  149SAPE  H12A16434   0.229   3.542   9.771 -0.2964  0.3481  0.4615
  149SAPE  H12B16435   0.084   3.601   9.704 -1.2891 -1.1652  1.4013
  149SAPE   C1116436   0.220   3.506   9.552  0.2825 -0.1791  0.2188
  149SAPE  H11A16437   0.249   3.608   9.518  1.9360 -1.3190 -2.0296
  149SAPE  H11B16438   0.162   3.460   9.469  2.3239 -0.6138 -1.0424
  149SAPE     P16439   0.470   3.460   9.639  0.4476  0.3766 -0.1979
  149SAPE   O1316440   0.487   3.604   9.599 -0.2382 -0.0381  0.3020
  149SAPE   O1416441   0.471   3.441   9.784  0.1377 -0.0061  0.0617
  149SAPE   O1216442   0.337   3.420   9.570 -0.0593 -0.2373  0.7489
  149SAPE   O1116443   0.589   3.378   9.576 -0.2579 -0.7066  0.1174
  149SAPE    C116444   0.575   3.285   9.472 -0.3489 -0.8076 -0.2571
  149SAPE    HA16445   0.505   3.205   9.504  0.3108 -1.3771 -0.1905
  149SAPE    HB16446   0.543   3.336   9.379  0.8614  1.6222  0.5843
  149SAPE    C216447   0.708   3.212   9.439  0.3852  0.1485 -0.0012
  149SAPE    HS16448   0.746   3.173   9.536 -2.6814 -1.0697  0.7979
  149SAPE   O2116449   0.802   3.297   9.371 -0.0572  0.2984  0.1749
  149SAPE   C2116450   0.927   3.269   9.364  0.5705 -0.2265  0.1931
  149SAPE   O2216451   0.984   3.172   9.410 -0.0829 -0.2306 -1.2123
  149SAPE   C2216452   1.009   3.375   9.289 -0.3509  0.4379  0.1671
  149SAPE   H2R16453   0.944   3.428   9.217  1.3565 -0.0851 -1.8305
  149SAPE   H2S16454   1.037   3.441   9.375 -3.2721  0.0290  1.5614
  149SAPE    C316455   0.665   3.086   9.354 -0.3852  0.3152 -0.1638
  149SAPE    HX16456   0.599   3.033   9.426  1.1417  0.2933  1.2855
  149SAPE    HY16457   0.756   3.025   9.333  0.3370  1.0139  0.8390
  149SAPE   O3116458   0.596   3.121   9.224  0.5803  0.5649  0.0946
  149SAPE   C3116459   0.680   3.128   9.119  0.3419  0.1046 -0.1702
  149SAPE   O3216460   0.780   3.064   9.101  0.1129  0.1032 -0.0873
  149SAPE   C3216461   0.606   3.213   9.013 -0.0736  0.2955 -0.8178
  149SAPE   H2X16462   0.564   3.296   9.074 -0.4630 -1.8423  2.0131
  149SAPE   H2Y16463   0.527   3.143   8.979  1.1738 -2.3322  1.2913
  149SAPE   C2316464   1.136   3.314   9.209 -0.0914 -0.1728 -0.9724
  149SAPE   H3R16465   1.204   3.262   9.280  0.4802  0.0075 -1.3808
  149SAPE   H3S16466   1.209   3.393   9.180  0.4484 -0.7616 -1.2284
  149SAPE   C2416467   1.098   3.215   9.099 -0.3154 -0.5217  0.1566
  149SAPE   H4R16468   1.018   3.254   9.032  0.5045 -0.5212 -0.8614
  149SAPE   H4S16469   1.041   3.136   9.152  0.8291 -2.0273 -0.7470
  149SAPE   C2516470   1.205   3.142   9.021 -0.1182 -0.9196  0.2446
  149SAPE   H5R16471   1.279   3.085   9.078  1.8069  0.0148 -1.1800
  149SAPE   C2616472   1.223   3.142   8.881  0.7590 -0.5608  0.5842
  149SAPE   H6R16473   1.313   3.086   8.850  1.3479 -0.6344  2.2918
  149SAPE   C2716474   1.135   3.220   8.781  0.1681 -0.1965  0.0911
  149SAPE   H7R16475   1.084   3.311   8.818  1.2599  0.9336 -1.1085
  149SAPE   H7S16476   1.055   3.148   8.751 -0.4317  0.3983  0.2361
  149SAPE   C2816477   1.222   3.264   8.663 -0.5733 -0.2124 -0.7496
  149SAPE   H8R16478   1.325   3.286   8.696 -0.3946 -0.4729 -1.1331
  149SAPE   C2916479   1.180   3.273   8.539  0.3350 -0.2880  0.4437
  149SAPE   H9R16480   1.253   3.304   8.463  0.2175 -1.1020 -0.0102
  149SAPE  C21016481   1.042   3.232   8.496  0.2072 -0.3889  0.7192
  149SAPE  H10R16482   1.007   3.149   8.560  0.7519 -1.0200  0.2098
  149SAPE  H10S16483   1.050   3.204   8.389 -2.8702 -0.7407  0.5060
  149SAPE  C21116484   0.949   3.347   8.508 -0.5888 -0.2613 -0.1668
  149SAPE  H11R16485   0.928   3.365   8.614  1.9199 -3.7863  1.1040
  149SAPE  C21216486   0.897   3.427   8.411 -0.0237 -0.0069 -0.4834
  149SAPE  H12R16487   0.820   3.498   8.448 -2.0735 -2.1177 -0.4635
  149SAPE  C21316488   0.921   3.407   8.262  0.7386  0.2474  0.8353
  149SAPE  H13R16489   0.895   3.301   8.245  0.7459  0.4650 -0.6137
  149SAPE  H13S16490   1.027   3.424   8.236  0.6670  0.8737  0.9429
  149SAPE  C21416491   0.817   3.474   8.177  0.7638 -0.1697 -0.4186
  149SAPE  H14R16492   0.715   3.478   8.220  0.1954 -0.9442 -1.6152
  149SAPE  C21516493   0.822   3.512   8.047 -0.3908  0.1456 -0.0085
  149SAPE  H15R16494   0.737   3.563   7.999  0.1988 -0.3186 -1.5850
  149SAPE  C21616495   0.952   3.506   7.964 -0.0938 -0.4299  0.1715
  149SAPE  H16R16496   0.930   3.438   7.878 -2.6313  2.1243 -1.3685
  149SAPE  H16S16497   1.036   3.461   8.021 -0.6127 -0.2782  1.0711
  149SAPE  C21716498   1.010   3.646   7.922 -0.3027  0.5955  0.0836
  149SAPE  H17R16499   1.038   3.699   8.016 -0.0505  0.7838 -0.0954
  149SAPE  H17S16500   0.934   3.704   7.865  1.4925  0.6514 -2.3934
  149SAPE  C21816501   1.141   3.624   7.845 -0.3981 -0.1140 -0.3091
  149SAPE  H18R16502   1.109   3.578   7.748 -1.2708 -1.8883  0.7637
  149SAPE  H18S16503   1.211   3.554   7.895 -1.9495 -2.0989 -0.7682
  149SAPE  C21916504   1.217   3.760   7.821  0.1250  0.5821 -0.4863
  149SAPE  H19R16505   1.301   3.729   7.756  0.3485  0.1874 -0.0138
  149SAPE  H19S16506   1.253   3.802   7.918  0.0564 -1.7273  0.6160
  149SAPE  C22016507   1.122   3.855   7.749  0.7098  0.6193 -0.6172
  149SAPE  H20R16508   1.170   3.951   7.719 -0.1901  0.6600 -1.9857
  149SAPE  H20S16509   1.041   3.887   7.819 -1.2615 -1.4493 -1.8169
  149SAPE  H20T16510   1.078   3.817   7.655 -1.4279 -0.3603  0.6976
  149SAPE   C3316511   0.695   3.277   8.910 -0.3327 -1.0238 -0.3597
  149SAPE   H3X16512   0.782   3.212   8.884  0.8214  0.6860 -0.9646
  149SAPE   H3Y16513   0.755   3.362   8.949 -0.8110 -0.5770 -0.5872
  149SAPE   C3416514   0.620   3.315   8.784  0.2924 -0.8623  0.1005
  149SAPE   H4X16515   0.682   3.379   8.718 -0.4492 -0.6008 -0.3560
  149SAPE   H4Y16516   0.536   3.379   8.817  2.3249  1.9287  0.1970
  149SAPE   C3516517   0.567   3.196   8.700 -0.5220 -0.5704 -0.0437
  149SAPE   H5X16518   0.493   3.229   8.623  1.4261  3.2099 -0.5293
  149SAPE   H5Y16519   0.504   3.130   8.764  0.7119 -0.6399  1.1366
  149SAPE   C3616520   0.669   3.109   8.625  0.5216 -0.2454 -0.5374
  149SAPE   H6X16521   0.710   3.032   8.695  2.5387  0.9144 -0.3441
  149SAPE   H6Y16522   0.756   3.174   8.602  0.3717  0.5780  1.0558
  149SAPE   C3716523   0.606   3.050   8.496  0.6748  0.2954 -0.0959
  149SAPE   H7X16524   0.503   3.015   8.515 -0.5360  4.2464  1.6893
  149SAPE   H7Y16525   0.653   2.953   8.467 -0.3377  0.2246 -1.5983
  149SAPE   C3816526   0.601   3.141   8.377 -0.3312 -0.0415 -0.2885
  149SAPE   H8X16527   0.705   3.170   8.352  0.0227 -1.5548 -0.7195
  149SAPE   H8Y16528   0.557   3.238   8.406  1.6810  1.1735 -1.0933
  149SAPE   C3916529   0.532   3.086   8.252  0.3131 -0.0775 -0.0940
  149SAPE   H9X16530   0.572   3.143   8.165  0.7165  0.0328  0.1626
  149SAPE   H9Y16531   0.424   3.110   8.256  0.2390 -0.6014  1.7806
  149SAPE  C31016532   0.575   2.938   8.215  0.6224 -0.1242  0.1176
  149SAPE  H10X16533   0.530   2.871   8.291  0.4729 -0.3407 -0.1616
  149SAPE  H10Y16534   0.685   2.923   8.216  0.4502 -1.4493  0.9145
  149SAPE  C31116535   0.512   2.899   8.086 -0.7111 -0.0445 -0.3491
  149SAPE  H11X16536   0.546   2.970   8.007 -1.5240  0.2760 -0.4289
  149SAPE  H11Y16537   0.401   2.903   8.077 -0.8002  0.4829  0.8239
  149SAPE  C31216538   0.555   2.749   8.054 -0.0239 -0.0995 -0.5806
  149SAPE  H12X16539   0.504   2.693   8.135  1.5001  2.4848  2.3612
  149SAPE  H12Y16540   0.663   2.724   8.057 -0.1835 -0.7094  0.6573
  149SAPE  C31316541   0.496   2.709   7.917 -0.0258 -0.4808  0.4987
  149SAPE  H13X16542   0.544   2.778   7.844 -1.0784  0.8463  1.0293
  149SAPE  H13Y16543   0.385   2.723   7.916  0.0470  0.1212 -0.6126
  149SAPE  C31416544   0.540   2.572   7.868  0.2548 -0.2073 -0.2024
  149SAPE  H14X16545   0.526   2.570   7.758  0.3745  3.4306 -0.3861
  149SAPE  H14Y16546   0.476   2.497   7.919  0.7118  0.0742  0.8152
  149SAPE  C31516547   0.696   2.543   7.888  0.3962 -0.0835  0.0036
  149SAPE  H15X16548   0.711   2.435   7.868  0.8610  0.0929 -0.6106
  149SAPE  H15Y16549   0.717   2.559   7.996  0.2794 -2.3090  0.4023
  149SAPE  C31616550   0.787   2.638   7.810 -0.1443  0.4624 -0.1014
  149SAPE  H16X16551   0.801   2.742   7.847  3.1143  0.4804 -1.0861
  149SAPE  H16Y16552   0.739   2.649   7.710 -1.3495 -1.0520  0.2753
  149SAPE  C31716553   0.931   2.572   7.790  0.4391 -0.7955  0.3122
  149SAPE  H17X16554   0.920   2.467   7.755 -1.8619  0.0910 -1.9568
  149SAPE  H17Y16555   0.980   2.572   7.889  0.6431  2.4691  0.3284
  149SAPE  C31816556   1.016   2.632   7.680 -0.8899 -0.2944  0.5400
  149SAPE  H18X16557   1.098   2.564   7.648 -2.0026 -1.0391 -0.8210
  149SAPE  H18Y16558   1.057   2.729   7.718 -1.8374  0.5020 -0.4098
  149SAPE  H18Z16559   0.948   2.654   7.596 -0.5325 -1.3594 -0.0424
  150SAPE     N16560   1.715   1.065   9.716 -0.5855  0.2131  0.5730
  150SAPE   HN116561   1.748   1.030   9.809  0.5609 -0.5007 -0.0775
  150SAPE   HN216562   1.621   1.029   9.692 -0.1417 -0.8548  0.3906
  150SAPE   HN316563   1.783   1.032   9.645 -0.1987  0.1917  0.9476
  150SAPE   C1216564   1.709   1.217   9.725 -0.1366 -0.0413  0.3556
  150SAPE  H12A16565   1.793   1.260   9.785  2.5102 -1.1760 -2.2581
  150SAPE  H12B16566   1.610   1.244   9.766 -0.3419 -0.1466 -0.0658
  150SAPE   C1116567   1.721   1.286   9.584 -0.1380  0.3074  0.6967
  150SAPE  H11A16568   1.729   1.396   9.593 -0.1243  0.4737 -1.0708
  150SAPE  H11B16569   1.628   1.266   9.527 -0.3437 -1.3375  1.5279
  150SAPE     P16570   1.978   1.302   9.521  0.0022  0.2779  0.2155
  150SAPE   O1316571   2.002   1.364   9.655  0.1991 -0.0958  0.0854
  150SAPE   O1416572   2.082   1.202   9.484 -0.0924  0.8309  0.2125
  150SAPE   O1216573   1.836   1.233   9.515 -0.7723  0.0739 -0.5413
  150SAPE   O1116574   1.975   1.416   9.409 -0.0242  0.0224 -0.5688
  150SAPE    C116575   1.886   1.393   9.293 -0.9100 -0.0158 -0.0428
  150SAPE    HA16576   1.782   1.362   9.316 -1.1934  0.2740 -0.8990
  150SAPE    HB16577   1.880   1.497   9.252  1.9435  0.3367  0.2358
  150SAPE    C216578   1.949   1.300   9.191 -0.1479  0.0436  0.5300
  150SAPE    HS16579   1.961   1.197   9.230  0.5055 -0.5958 -1.2662
  150SAPE   O2116580   2.074   1.365   9.154  1.0563  0.5038  0.5238
  150SAPE   C2116581   2.169   1.284   9.108 -0.2841  0.4946 -0.3883
  150SAPE   O2216582   2.157   1.164   9.092 -0.1552 -0.7670  0.1549
  150SAPE   C2216583   2.277   1.374   9.051 -0.2819 -0.0258 -0.3251
  150SAPE   H2R16584   2.234   1.465   9.005 -0.8116 -0.8456 -1.4859
  150SAPE   H2S16585   2.333   1.406   9.142 -0.9732  0.5279 -0.0828
  150SAPE    C316586   1.857   1.270   9.069 -0.5801 -0.3590  0.9818
  150SAPE    HX16587   1.828   1.369   9.028  1.5269  0.2092  0.7332
  150SAPE    HY16588   1.761   1.219   9.091 -0.5920 -0.9213 -0.2849
  150SAPE   O3116589   1.934   1.203   8.965  0.6046 -0.2245 -0.8115
  150SAPE   C3116590   1.910   1.068   8.952 -0.0742 -0.4730  0.5010
  150SAPE   O3216591   1.817   1.006   9.004 -0.8583  0.2515 -0.0219
  150SAPE   C3216592   2.013   1.008   8.855  0.0399  0.7029 -0.3434
  150SAPE   H2X16593   2.071   0.933   8.914 -0.4885  0.3665 -0.2479
  150SAPE   H2Y16594   2.087   1.080   8.813 -1.5995  1.0606 -2.8673
  150SAPE   C2316595   2.367   1.313   8.939  0.2689 -0.0350 -0.0365
  150SAPE   H3R16596   2.393   1.208   8.966  3.8893  0.3724 -1.4611
  150SAPE   H3S16597   2.464   1.367   8.946  0.1899  0.3319 -1.6479
  150SAPE   C2416598   2.307   1.311   8.795 -0.2514  0.1906 -0.4787
  150SAPE   H4R16599   2.200   1.288   8.807 -0.0820 -1.6856 -2.1080
  150SAPE   H4S16600   2.351   1.232   8.731 -0.4842 -0.1189 -0.2558
  150SAPE   C2516601   2.331   1.442   8.730  0.0154  0.3816  0.7524
  150SAPE   H5R16602   2.292   1.535   8.774 -0.9576  0.4747 -0.2510
  150SAPE   C2616603   2.380   1.452   8.602 -0.3806  0.2712 -0.2113
  150SAPE   H6R16604   2.381   1.551   8.554 -0.8881 -0.7419 -2.4133
  150SAPE   C2716605   2.414   1.336   8.514  0.3130 -0.0178  0.5736
  150SAPE   H7R16606   2.475   1.257   8.562  0.9187 -0.2572 -0.5663
  150SAPE   H7S16607   2.479   1.379   8.435  0.6311  1.6018  1.6548
  150SAPE   C2816608   2.291   1.274   8.449  0.3611  0.3908 -0.0890
  150SAPE   H8R16609   2.234   1.203   8.511  3.0714 -0.4986  1.5383
  150SAPE   C2916610   2.254   1.295   8.321 -0.4983 -0.3255 -0.3163
  150SAPE   H9R16611   2.157   1.264   8.282 -1.3379  0.9116  0.7139
  150SAPE  C21016612   2.339   1.373   8.219  1.5860 -0.3520  0.3618
  150SAPE  H10R16613   2.422   1.309   8.183  0.4406 -2.5220  1.3940
  150SAPE  H10S16614   2.403   1.453   8.264  1.7961 -1.0630  1.3563
  150SAPE  C21116615   2.242   1.435   8.118 -0.0298 -0.3790  0.4728
  150SAPE  H11R16616   2.208   1.537   8.141 -0.7690 -0.0658 -1.7571
  150SAPE  C21216617   2.191   1.376   8.012 -0.2938  0.7041 -0.0092
  150SAPE  H12R16618   2.116   1.429   7.951  0.2144 -0.2041 -1.4432
  150SAPE  C21316619   2.241   1.238   7.970 -0.4183 -0.0070  0.3129
  150SAPE  H13R16620   2.162   1.172   7.930  0.7514 -0.4793 -1.2712
  150SAPE  H13S16621   2.290   1.177   8.049 -0.4671 -1.1540 -0.5322
  150SAPE  C21416622   2.351   1.255   7.865 -0.4774 -0.9044 -0.6060
  150SAPE  H14R16623   2.452   1.255   7.909 -0.6441 -1.5413 -0.2150
  150SAPE  C21516624   2.323   1.268   7.733 -0.5931  0.6568 -0.3696
  150SAPE  H15R16625   2.410   1.252   7.668  0.2500  1.0099  0.6304
  150SAPE  C21616626   2.195   1.259   7.658 -0.3272  0.0642 -0.0093
  150SAPE  H16R16627   2.215   1.324   7.570 -0.4074 -1.2517 -1.0254
  150SAPE  H16S16628   2.111   1.294   7.722  0.0964 -1.5953  1.5485
  150SAPE  C21716629   2.159   1.125   7.599 -0.1509  0.4729  1.1182
  150SAPE  H17R16630   2.237   1.098   7.525 -0.1351  0.4218  1.1533
  150SAPE  H17S16631   2.072   1.138   7.532  0.3930  1.4213  0.5734
  150SAPE  C21816632   2.117   1.024   7.707 -0.6205 -0.6918  0.0066
  150SAPE  H18R16633   2.049   1.070   7.782  0.3812  0.2591  0.3468
  150SAPE  H18S16634   2.195   1.001   7.783 -1.6829 -2.7282  0.5753
  150SAPE  C21916635   2.053   0.894   7.668  0.6187  0.0831  0.1300
  150SAPE  H19R16636   2.001   0.837   7.748 -0.6188 -0.1829 -0.8257
  150SAPE  H19S16637   2.132   0.822   7.639 -1.1341 -1.9516  0.1473
  150SAPE  C22016638   1.947   0.914   7.560 -0.7696  0.7327  0.8424
  150SAPE  H20R16639   1.994   0.933   7.461 -1.1291 -2.1973  0.0357
  150SAPE  H20S16640   1.885   1.005   7.576 -0.9761  1.1664 -1.8691
  150SAPE  H20T16641   1.882   0.825   7.553 -1.6935  1.5341 -2.2863
  150SAPE   C3316642   1.944   0.953   8.739 -0.0818  1.1654 -0.7202
  150SAPE   H3X16643   1.853   0.898   8.768  0.1601  0.6837 -0.8690
  150SAPE   H3Y16644   2.007   0.884   8.679 -0.7265 -0.3133  0.2730
  150SAPE   C3416645   1.899   1.065   8.641 -0.2456  0.4682 -0.9738
  150SAPE   H4X16646   1.993   1.110   8.606  1.8385 -2.7430  0.0424
  150SAPE   H4Y16647   1.834   1.142   8.688 -0.9804 -0.3128 -0.6712
  150SAPE   C3516648   1.802   1.015   8.531 -0.0079 -0.5636 -0.7934
  150SAPE   H5X16649   1.737   1.101   8.507 -1.4971 -0.8436  1.8377
  150SAPE   H5Y16650   1.728   0.944   8.574 -1.5306  2.0133  1.1594
  150SAPE   C3616651   1.877   0.952   8.411 -0.0518 -0.5986 -0.3048
  150SAPE   H6X16652   1.820   0.906   8.328 -1.1174  1.0309 -0.5308
  150SAPE   H6Y16653   1.948   0.879   8.457  0.4260  0.0743  0.0537
  150SAPE   C3716654   1.961   1.051   8.337 -0.1043 -0.3091 -0.2260
  150SAPE   H7X16655   2.043   1.086   8.402 -1.3845  3.8489 -0.5621
  150SAPE   H7Y16656   1.892   1.134   8.308 -0.8528 -0.9694 -0.3851
  150SAPE   C3816657   2.017   1.008   8.201  0.3544 -0.3191 -0.0869
  150SAPE   H8X16658   2.089   0.925   8.220 -0.5830 -0.5944  2.7370
  150SAPE   H8Y16659   2.093   1.081   8.165  1.1864 -1.3407 -0.4699
  150SAPE   C3916660   1.923   0.982   8.079 -0.1616  0.1798 -0.2708
  150SAPE   H9X16661   1.834   0.920   8.104 -1.0350  0.7442 -1.8898
  150SAPE   H9Y16662   1.973   0.910   8.010 -3.8638 -2.8475 -0.1372
  150SAPE  C31016663   1.886   1.110   8.007  0.1053 -0.4385  0.0468
  150SAPE  H10X16664   1.969   1.165   7.958  2.0664 -2.1782  1.2378
  150SAPE  H10Y16665   1.850   1.169   8.094 -3.1511 -0.7305 -0.9874
  150SAPE  C31116666   1.766   1.083   7.917 -0.3645  0.3405 -0.5933
  150SAPE  H11X16667   1.692   1.026   7.977  0.5473  0.0747  0.3161
  150SAPE  H11Y16668   1.803   1.014   7.837  0.8367  0.7835 -0.4502
  150SAPE  C31216669   1.687   1.206   7.862 -0.0386 -0.0432 -0.6471
  150SAPE  H12X16670   1.662   1.277   7.943  1.2527  0.5844 -0.7739
  150SAPE  H12Y16671   1.592   1.177   7.811 -0.5237 -1.1983  0.8564
  150SAPE  C31316672   1.775   1.277   7.753  0.1437 -0.0044  0.0345
  150SAPE  H13X16673   1.798   1.208   7.669 -0.5846 -1.7896  1.2330
  150SAPE  H13Y16674   1.868   1.306   7.807 -1.5066  0.6531  2.7250
  150SAPE  C31416675   1.702   1.400   7.693  0.7543 -0.7781 -0.2690
  150SAPE  H14X16676   1.673   1.462   7.781 -0.9245 -2.7136  0.6221
  150SAPE  H14Y16677   1.615   1.369   7.632  2.4135 -1.3744 -2.4512
  150SAPE  C31516678   1.799   1.481   7.601  0.5879  0.3546 -0.0096
  150SAPE  H15X16679   1.816   1.422   7.509  1.6658 -0.6828  0.8195
  150SAPE  H15Y16680   1.895   1.493   7.655  0.5373  1.3193 -0.1196
  150SAPE  C31616681   1.761   1.621   7.563 -0.8142 -0.8009 -0.1176
  150SAPE  H16X16682   1.738   1.673   7.659  2.6092 -0.3073  0.5624
  150SAPE  H16Y16683   1.670   1.620   7.499 -0.8178  1.5769 -0.2145
  150SAPE  C31716684   1.884   1.697   7.499  0.5557 -0.2261  0.1957
  150SAPE  H17X16685   1.970   1.715   7.568  0.1371 -0.8394  0.8974
  150SAPE  H17Y16686   1.846   1.801   7.491  0.1253 -0.3089  1.0387
  150SAPE  C31816687   1.919   1.643   7.360  0.2718  0.0680  0.1417
  150SAPE  H18X16688   2.005   1.696   7.314 -1.2443  1.6604 -0.9622
  150SAPE  H18Y16689   1.838   1.665   7.288  0.4777 -1.9846 -0.7952
  150SAPE  H18Z16690   1.952   1.537   7.352 -1.5102 -0.5265  0.2158
  151SAPE     N16691   6.133   5.143   9.884  0.7139 -0.8059  0.3865
  151SAPE   HN116692   6.214   5.090   9.845  1.9794  1.2055  0.1190
  151SAPE   HN216693   6.169   5.215   9.950 -0.2985 -1.5149  1.7574
  151SAPE   HN316694   6.090   5.061   9.930  0.9820 -2.2979 -1.8513
  151SAPE   C1216695   6.042   5.190   9.772  0.3673  0.1619  0.6750
  151SAPE  H12A16696   6.098   5.259   9.706  0.3558 -1.4104 -1.0436
  151SAPE  H12B16697   5.951   5.232   9.820 -1.9815 -3.0742 -0.6356
  151SAPE   C1116698   5.993   5.068   9.694 -0.0079 -0.3350 -0.4925
  151SAPE  H11A16699   5.909   5.092   9.625 -0.7755 -1.7406 -0.0780
  151SAPE  H11B16700   5.946   4.997   9.765  0.3911  0.9575  1.1128
  151SAPE     P16701   6.080   4.909   9.502  0.3019  0.1872  0.1574
  151SAPE   O1316702   6.211   4.856   9.463 -0.4795  0.0194 -0.3974
  151SAPE   O1416703   5.976   4.805   9.537  0.6140  0.2639  0.5635
  151SAPE   O1216704   6.102   5.001   9.633 -0.4410 -1.1532 -0.2595
  151SAPE   O1116705   6.025   5.009   9.392  0.7286  0.3713 -0.1044
  151SAPE    C116706   6.120   5.106   9.343  0.3170  0.1969  0.3513
  151SAPE    HA16707   6.128   5.186   9.419 -0.9460 -1.6763  2.5481
  151SAPE    HB16708   6.218   5.062   9.315  0.5910  1.4794 -0.8329
  151SAPE    C216709   6.077   5.164   9.202  0.0717 -0.2174 -0.2415
  151SAPE    HS16710   5.996   5.239   9.211  1.0351  0.7220  0.8255
  151SAPE   O2116711   6.046   5.067   9.101  0.1213  0.3129 -0.3251
  151SAPE   C2116712   5.922   5.014   9.123  1.1377 -0.0235  0.6358
  151SAPE   O2216713   5.826   5.071   9.170  0.1903 -0.5195 -0.2487
  151SAPE   C2216714   5.921   4.877   9.056  0.2257 -0.0759 -0.0985
  151SAPE   H2R16715   5.977   4.871   8.959  0.9249 -0.8864  0.3391
  151SAPE   H2S16716   5.987   4.816   9.122 -0.1721  0.5657  0.9122
  151SAPE    C316717   6.192   5.251   9.144 -0.0436  0.6261  0.1720
  151SAPE    HX16718   6.210   5.338   9.211 -0.6914  0.4139  0.6205
  151SAPE    HY16719   6.155   5.280   9.043  1.6851 -0.1669 -0.7450
  151SAPE   O3116720   6.321   5.176   9.121  0.7023  0.0681  0.0826
  151SAPE   C3116721   6.427   5.245   9.123 -0.4802 -0.2920 -0.1947
  151SAPE   O3216722   6.443   5.361   9.156  0.6677  0.3747  0.2170
  151SAPE   C3216723   6.545   5.152   9.070  0.0635  0.3168 -0.4061
  151SAPE   H2X16724   6.496   5.107   8.981  0.1859 -0.6398 -0.0064
  151SAPE   H2Y16725   6.564   5.075   9.149  1.6929 -0.1236 -1.1914
  151SAPE   C2316726   5.780   4.814   9.041 -0.3833 -0.0778 -0.4046
  151SAPE   H3R16727   5.707   4.817   9.125  0.2871  0.9179  0.1540
  151SAPE   H3S16728   5.791   4.703   9.046 -2.2924 -0.3142 -0.4757
  151SAPE   C2416729   5.707   4.838   8.910  0.1109  0.6377  0.6358
  151SAPE   H4R16730   5.613   4.780   8.910  0.4274  0.0999 -0.4472
  151SAPE   H4S16731   5.750   4.784   8.823 -1.3003  0.4005  0.0682
  151SAPE   C2516732   5.681   4.987   8.875 -0.3707  0.7164 -0.1895
  151SAPE   H5R16733   5.664   5.043   8.968  0.9151  0.1694  0.4183
  151SAPE   C2616734   5.676   5.033   8.749  0.2591 -0.0986  0.4544
  151SAPE   H6R16735   5.662   5.140   8.729 -0.3344  0.0490  1.5404
  151SAPE   C2716736   5.691   4.945   8.625 -0.4556  0.1917  0.0087
  151SAPE   H7R16737   5.634   4.992   8.542 -1.6021 -0.1686  0.5611
  151SAPE   H7S16738   5.641   4.847   8.643  3.7732 -2.4307 -1.2111
  151SAPE   C2816739   5.836   4.938   8.593  0.2519 -0.4809 -0.5199
  151SAPE   H8R16740   5.906   4.909   8.673 -2.1074 -1.8380  1.1510
  151SAPE   C2916741   5.898   4.968   8.477  0.1459  0.0456  0.5011
  151SAPE   H9R16742   6.006   4.956   8.465  0.1412 -0.4434  0.9135
  151SAPE  C21016743   5.829   5.011   8.348 -0.0181 -0.2330  0.2401
  151SAPE  H10R16744   5.735   5.069   8.365  0.1641 -0.4380  2.1665
  151SAPE  H10S16745   5.797   4.924   8.288  0.8246  0.4462 -1.2717
  151SAPE  C21116746   5.906   5.095   8.244  1.2706  0.9572 -0.2951
  151SAPE  H11R16747   5.887   5.203   8.236  1.0006  1.0763  1.6065
  151SAPE  C21216748   6.005   5.057   8.165  0.7635  0.1380 -0.3031
  151SAPE  H12R16749   6.043   5.136   8.098 -2.5737  1.9229 -0.3046
  151SAPE  C21316750   6.072   4.923   8.156 -0.0944  0.0174 -0.2966
  151SAPE  H13R16751   6.007   4.852   8.101  2.0306 -4.0322  1.9367
  151SAPE  H13S16752   6.068   4.877   8.258  1.0135 -0.5772 -0.4996
  151SAPE  C21416753   6.215   4.931   8.108  0.2615 -0.8636  0.3466
  151SAPE  H14R16754   6.285   4.875   8.171  0.4900 -2.8948 -1.5662
  151SAPE  C21516755   6.260   4.963   7.980 -0.0955  0.5164 -0.1127
  151SAPE  H15R16756   6.367   4.956   7.958 -0.0499  0.0607  0.2386
  151SAPE  C21616757   6.176   4.989   7.865  0.0327 -0.7828  0.1349
  151SAPE  H16R16758   6.181   5.093   7.827  1.3560 -0.9934 -0.3221
  151SAPE  H16S16759   6.072   4.950   7.871  0.0635 -0.8659  0.1230
  151SAPE  C21716760   6.239   4.900   7.751  0.4104  0.0200 -0.3576
  151SAPE  H17R16761   6.250   4.796   7.788 -1.6873  0.5138  2.0089
  151SAPE  H17S16762   6.332   4.949   7.716 -0.6339  2.5442  0.1170
  151SAPE  C21816763   6.149   4.888   7.627 -0.3965  0.7134 -0.4250
  151SAPE  H18R16764   6.111   4.988   7.597 -0.2331  0.5058 -1.3552
  151SAPE  H18S16765   6.056   4.829   7.642  0.5260 -0.3280  1.6162
  151SAPE  C21916766   6.230   4.857   7.497 -0.6336 -0.2852  0.2733
  151SAPE  H19R16767   6.335   4.882   7.522 -0.8627  0.8874  0.1210
  151SAPE  H19S16768   6.194   4.923   7.415 -0.1618 -0.5687 -0.1734
  151SAPE  C22016769   6.213   4.713   7.458  0.2152  0.1986 -0.3107
  151SAPE  H20R16770   6.105   4.691   7.467  0.4789 -0.3329  2.9878
  151SAPE  H20S16771   6.259   4.641   7.529  0.0351  0.3073 -0.0797
  151SAPE  H20T16772   6.266   4.701   7.361 -0.3651  1.7555 -0.8573
  151SAPE   C3316773   6.679   5.229   9.037 -0.4416 -0.4255  0.1436
  151SAPE   H3X16774   6.701   5.290   9.128 -0.6887 -0.8681  0.5067
  151SAPE   H3Y16775   6.672   5.301   8.953  1.2745 -0.9913 -0.5397
  151SAPE   C3416776   6.800   5.140   8.996  0.4561  0.5175 -0.3257
  151SAPE   H4X16777   6.827   5.070   9.078  0.4710 -0.7880 -1.4188
  151SAPE   H4Y16778   6.891   5.201   8.980  1.2633 -0.1617  1.3863
  151SAPE   C3516779   6.767   5.066   8.859 -0.4688  0.1242 -0.3309
  151SAPE   H5X16780   6.764   5.148   8.784  0.6794 -0.3420 -0.9142
  151SAPE   H5Y16781   6.668   5.016   8.865 -1.5305  1.5929 -3.3014
  151SAPE   C3616782   6.871   4.959   8.810  0.0370 -0.2173 -0.6367
  151SAPE   H6X16783   6.893   4.896   8.899  0.1157  1.2290  0.3889
  151SAPE   H6Y16784   6.956   5.015   8.766  0.3864 -0.9425 -0.9093
  151SAPE   C3716785   6.803   4.876   8.705  0.3227  0.7214  0.1925
  151SAPE   H7X16786   6.707   4.837   8.746  0.1065  0.9778 -0.0647
  151SAPE   H7Y16787   6.854   4.784   8.668  0.9905  0.8540  0.7691
  151SAPE   C3816788   6.754   4.954   8.581 -0.5570 -0.4632 -0.4411
  151SAPE   H8X16789   6.816   5.044   8.558  2.0219 -2.2332 -0.8024
  151SAPE   H8Y16790   6.645   4.977   8.590 -0.7847 -2.2060  2.3049
  151SAPE   C3916791   6.782   4.869   8.454 -0.8522  1.1528 -0.5043
  151SAPE   H9X16792   6.731   4.771   8.459 -0.1841  0.8438  0.4554
  151SAPE   H9Y16793   6.893   4.865   8.445 -0.8916 -0.8061 -0.4313
  151SAPE  C31016794   6.729   4.935   8.327 -0.5275  0.0434 -0.0096
  151SAPE  H10X16795   6.772   5.036   8.307  0.4596 -0.4245 -0.3117
  151SAPE  H10Y16796   6.619   4.953   8.333 -1.2936 -2.5648 -3.1356
  151SAPE  C31116797   6.761   4.857   8.202 -0.8688  0.7549 -0.0395
  151SAPE  H11X16798   6.728   4.751   8.214 -2.0809  1.0844 -0.3726
  151SAPE  H11Y16799   6.870   4.852   8.179 -0.8385  0.3419  0.1801
  151SAPE  C31216800   6.686   4.907   8.077 -0.0887  0.2608 -0.3117
  151SAPE  H12X16801   6.725   5.010   8.062 -0.9442  0.7910  0.9405
  151SAPE  H12Y16802   6.577   4.927   8.079  0.1780  1.9848 -1.3344
  151SAPE  C31316803   6.719   4.819   7.953  0.0037  0.2346  0.3967
  151SAPE  H13X16804   6.694   4.711   7.965  1.5599 -0.3494 -1.2150
  151SAPE  H13Y16805   6.829   4.821   7.938 -0.1559  0.3941 -0.8464
  151SAPE  C31416806   6.657   4.885   7.822 -0.4400  0.7306 -0.4012
  151SAPE  H14X16807   6.676   4.994   7.829 -0.6690  0.9003 -1.9868
  151SAPE  H14Y16808   6.548   4.866   7.825 -0.1978 -0.7430 -0.1082
  151SAPE  C31516809   6.712   4.819   7.690 -0.4692 -0.6039 -0.4872
  151SAPE  H15X16810   6.822   4.811   7.701 -0.5346 -1.5846 -0.4830
  151SAPE  H15Y16811   6.702   4.885   7.602 -1.6101 -1.3440 -0.9458
  151SAPE  C31616812   6.666   4.676   7.669 -0.5088  0.4791 -0.7959
  151SAPE  H16X16813   6.563   4.681   7.627 -0.9160  1.4589  0.2745
  151SAPE  H16Y16814   6.680   4.625   7.767  1.1199  2.8580  0.3044
  151SAPE  C31716815   6.757   4.612   7.560  0.6811  0.3965  0.0805
  151SAPE  H17X16816   6.860   4.590   7.597  0.7699 -2.5499 -1.6192
  151SAPE  H17Y16817   6.749   4.685   7.476  1.2778 -0.8607 -1.0980
  151SAPE  C31816818   6.689   4.479   7.527  0.1329  0.5761 -0.0895
  151SAPE  H18X16819   6.747   4.394   7.567  0.4367  0.2519 -1.1832
  151SAPE  H18Y16820   6.684   4.472   7.416 -1.4895  0.5493 -0.0371
  151SAPE  H18Z16821   6.586   4.474   7.567 -0.8338 -0.0972 -2.4634
  152SAPE     N16822   7.206   4.494   9.630  0.1250 -0.4186 -0.2557
  152SAPE   HN116823   7.109   4.531   9.644  0.6283  0.6967  0.4118
  152SAPE   HN216824   7.217   4.405   9.684  0.1647 -0.7969 -0.8739
  152SAPE   HN316825   7.268   4.570   9.663 -1.6493  0.6804  0.6673
  152SAPE   C1216826   7.229   4.474   9.482 -0.2889  0.7306 -0.3487
  152SAPE  H12A16827   7.167   4.548   9.427 -0.6733  1.2902  0.7880
  152SAPE  H12B16828   7.193   4.373   9.455 -1.2309  0.7531  0.7542
  152SAPE   C1116829   7.379   4.484   9.454  0.4389  0.0918 -0.5190
  152SAPE  H11A16830   7.404   4.470   9.347 -0.5486  0.2879 -0.7866
  152SAPE  H11B16831   7.420   4.407   9.523 -0.6237  0.5093  0.6251
  152SAPE     P16832   7.566   4.657   9.464  0.1035  0.0482  0.0591
  152SAPE   O1316833   7.577   4.798   9.499  0.4689  0.3322 -0.3404
  152SAPE   O1416834   7.655   4.568   9.533  0.7059 -0.0002 -0.2770
  152SAPE   O1216835   7.416   4.615   9.505  0.5061  0.1854 -0.3479
  152SAPE   O1116836   7.580   4.638   9.306 -0.7313 -0.4435 -0.9904
  152SAPE    C116837   7.703   4.596   9.244 -0.1237  0.4683  0.0657
  152SAPE    HA16838   7.789   4.604   9.314 -1.3634 -1.8582  2.0373
  152SAPE    HB16839   7.679   4.487   9.237 -2.3179  0.8530  0.9513
  152SAPE    C216840   7.747   4.683   9.117  0.0522  0.5309 -0.2719
  152SAPE    HS16841   7.857   4.669   9.114  0.2006  1.3128  0.7791
  152SAPE   O2116842   7.710   4.816   9.132  0.4125  0.1884  0.3815
  152SAPE   C2116843   7.809   4.896   9.171 -0.4036  0.2512 -0.2511
  152SAPE   O2216844   7.918   4.853   9.198 -0.3276 -0.6823 -0.3164
  152SAPE   C2216845   7.750   5.036   9.165  0.0418 -0.3751 -0.4629
  152SAPE   H2R16846   7.645   5.027   9.201  0.5577  2.5869  2.1820
  152SAPE   H2S16847   7.819   5.103   9.221 -0.5803  1.5778 -1.8894
  152SAPE    C316848   7.691   4.618   8.991  0.4760  0.3272 -0.3798
  152SAPE    HX16849   7.580   4.632   8.990  0.2206 -1.4533 -1.4757
  152SAPE    HY16850   7.704   4.508   9.002  0.3489  0.4408  1.0565
  152SAPE   O3116851   7.752   4.662   8.870 -0.6781  0.4909  0.4403
  152SAPE   C3116852   7.675   4.690   8.764 -0.1232 -1.1382  0.1948
  152SAPE   O3216853   7.559   4.670   8.752 -0.0814 -0.0814  0.0784
  152SAPE   C3216854   7.762   4.784   8.681  0.2852 -0.3420  0.2058
  152SAPE   H2X16855   7.864   4.739   8.682  0.5756  0.3080  1.3102
  152SAPE   H2Y16856   7.773   4.875   8.743  0.9657 -0.1333 -0.2056
  152SAPE   C2316857   7.748   5.079   9.014  0.3336 -0.3775  0.7764
  152SAPE   H3R16858   7.693   5.176   9.013 -1.0218 -1.1237 -0.3459
  152SAPE   H3S16859   7.689   5.011   8.948  0.3166  1.1471 -0.8647
  152SAPE   C2416860   7.885   5.103   8.952  0.5685  0.2587 -0.4546
  152SAPE   H4R16861   7.956   5.025   8.985  1.6405  0.1379 -2.8244
  152SAPE   H4S16862   7.925   5.192   9.004 -0.8976  1.1146 -0.7183
  152SAPE   C2516863   7.901   5.108   8.805 -0.3678 -0.0325  0.6477
  152SAPE   H5R16864   7.972   5.036   8.762 -1.3030 -0.1731 -0.7428
  152SAPE   C2616865   7.821   5.171   8.713  0.0460  0.4984  0.4878
  152SAPE   H6R16866   7.838   5.147   8.607  1.5600 -2.2489  1.2400
  152SAPE   C2716867   7.711   5.264   8.740  0.2449 -0.0660  0.1680
  152SAPE   H7R16868   7.694   5.268   8.849  1.2245 -0.6590  0.3506
  152SAPE   H7S16869   7.620   5.232   8.684  0.9487 -0.6144 -0.6891
  152SAPE   C2816870   7.755   5.401   8.682  0.3204 -0.1795 -1.0851
  152SAPE   H8R16871   7.835   5.442   8.744 -1.2514  1.1124  0.1843
  152SAPE   C2916872   7.721   5.461   8.566 -0.6477  0.1046 -0.2067
  152SAPE   H9R16873   7.782   5.546   8.533  1.8958 -1.0331  1.2606
  152SAPE  C21016874   7.626   5.415   8.466  0.1239  0.4284 -0.2322
  152SAPE  H10R16875   7.522   5.440   8.498  0.4264  0.0938  1.0718
  152SAPE  H10S16876   7.630   5.304   8.463 -2.5859  0.1414  2.3300
  152SAPE  C21116877   7.659   5.471   8.325  0.2489 -0.1632  0.4938
  152SAPE  H11R16878   7.677   5.579   8.323  3.0710 -0.5107  1.7400
  152SAPE  C21216879   7.662   5.407   8.207 -0.6768  0.6301  0.1487
  152SAPE  H12R16880   7.693   5.457   8.113 -2.7605  1.4771 -0.1564
  152SAPE  C21316881   7.630   5.261   8.193  0.0510 -0.0837 -0.0660
  152SAPE  H13R16882   7.519   5.252   8.197 -0.0608  1.5286  1.3561
  152SAPE  H13S16883   7.665   5.203   8.281  0.9296  0.6494  0.0731
  152SAPE  C21416884   7.687   5.200   8.066  0.4662  0.8565  0.4171
  152SAPE  H14R16885   7.796   5.195   8.059  0.3491 -1.9296 -0.7233
  152SAPE  C21516886   7.619   5.173   7.951  0.4597  0.3984 -0.0382
  152SAPE  H15R16887   7.674   5.114   7.875  0.6112 -0.2468  0.5626
  152SAPE  C21616888   7.474   5.181   7.918  0.2057  0.3228 -0.2597
  152SAPE  H16R16889   7.427   5.278   7.944 -2.2157 -0.8544  0.0338
  152SAPE  H16S16890   7.419   5.105   7.977  1.2947 -0.7566 -0.5879
  152SAPE  C21716891   7.443   5.149   7.770 -0.1888  0.3529  0.0630
  152SAPE  H17R16892   7.335   5.130   7.752  0.1148 -2.4829  0.7071
  152SAPE  H17S16893   7.488   5.050   7.749  1.8692  1.0214  1.0981
  152SAPE  C21816894   7.510   5.249   7.675  0.0632 -0.3130  0.1907
  152SAPE  H18R16895   7.619   5.257   7.693  0.2732  0.8680 -1.3082
  152SAPE  H18S16896   7.465   5.349   7.696  0.1095  0.0028 -1.0924
  152SAPE  C21916897   7.506   5.216   7.530  0.3550  0.0547 -0.0673
  152SAPE  H19R16898   7.565   5.123   7.517 -0.3548 -0.7240  1.9453
  152SAPE  H19S16899   7.558   5.295   7.471  0.4378 -0.6327 -0.9350
  152SAPE  C22016900   7.365   5.206   7.475  0.1339  0.2205  0.3360
  152SAPE  H20R16901   7.385   5.198   7.366  1.3639  0.2698  0.5436
  152SAPE  H20S16902   7.302   5.296   7.489 -1.5624 -0.7305 -0.7998
  152SAPE  H20T16903   7.307   5.116   7.507 -2.2189  1.7998  0.7152
  152SAPE   C3316904   7.704   4.801   8.540  0.2279 -0.4835  0.2904
  152SAPE   H3X16905   7.696   4.909   8.515  0.8091 -0.4656  0.1548
  152SAPE   H3Y16906   7.598   4.767   8.540 -0.0945  0.4762 -0.3403
  152SAPE   C3416907   7.767   4.720   8.425  0.4070  0.6544 -0.3183
  152SAPE   H4X16908   7.744   4.613   8.445 -0.1489  0.6110 -1.1617
  152SAPE   H4Y16909   7.878   4.725   8.430  0.4478 -0.6142  0.6837
  152SAPE   C3516910   7.704   4.754   8.291 -0.2136  0.0595 -0.3836
  152SAPE   H5X16911   7.748   4.852   8.263  1.5932 -0.6570 -0.2018
  152SAPE   H5Y16912   7.595   4.774   8.294  0.5343  5.8925  1.1304
  152SAPE   C3616913   7.740   4.640   8.189  0.3379 -0.0238  0.6141
  152SAPE   H6X16914   7.696   4.547   8.231 -0.9812  0.5379  0.5043
  152SAPE   H6Y16915   7.851   4.633   8.178  0.2957  1.0290 -0.7025
  152SAPE   C3716916   7.690   4.655   8.043 -0.7107 -0.2998  0.1296
  152SAPE   H7X16917   7.579   4.651   8.048 -0.8063  0.9848 -0.6619
  152SAPE   H7Y16918   7.720   4.576   7.971 -0.6802  1.8223 -2.3070
  152SAPE   C3816919   7.729   4.792   7.975 -0.2432  0.0283  0.1428
  152SAPE   H8X16920   7.839   4.806   7.978 -0.1476 -0.6621  0.1047
  152SAPE   H8Y16921   7.666   4.867   8.026 -2.7484 -2.4340  0.9477
  152SAPE   C3916922   7.689   4.810   7.821  0.2542 -0.2522  0.0131
  152SAPE   H9X16923   7.673   4.917   7.797 -2.0443 -1.1801 -3.3134
  152SAPE   H9Y16924   7.587   4.771   7.803  0.6296 -0.7335 -1.1431
  152SAPE  C31016925   7.786   4.756   7.719 -0.3452 -0.2283  0.0916
  152SAPE  H10X16926   7.811   4.649   7.739 -1.0147 -0.3978  0.0391
  152SAPE  H10Y16927   7.881   4.814   7.724  0.1608 -0.8802 -1.5364
  152SAPE  C31116928   7.728   4.777   7.578  0.4148 -0.3396 -0.0725
  152SAPE  H11X16929   7.677   4.874   7.569 -1.9748 -1.5836 -0.6060
  152SAPE  H11Y16930   7.650   4.698   7.568 -0.4399  0.2241  1.7555
  152SAPE  C31216931   7.832   4.765   7.463  0.1575 -0.1184  0.0585
  152SAPE  H12X16932   7.837   4.655   7.451 -1.5563 -0.1045 -1.3365
  152SAPE  H12Y16933   7.929   4.808   7.494 -0.4777  2.0634 -0.7332
  152SAPE  C31316934   7.792   4.821   7.327  0.0979  0.1213  0.1141
  152SAPE  H13X16935   7.687   4.787   7.316 -0.3642  2.0223 -2.6090
  152SAPE  H13Y16936   7.847   4.775   7.242  3.0242  3.0962  0.1350
  152SAPE  C31416937   7.802   4.975   7.328  0.6850  0.0530  0.2188
  152SAPE  H14X16938   7.909   4.999   7.346  0.4117  1.2690  0.3053
  152SAPE  H14Y16939   7.749   5.012   7.418 -0.0917 -1.5545  0.4580
  152SAPE  C31516940   7.746   5.043   7.207  0.1739  0.5494  0.2190
  152SAPE  H15X16941   7.635   5.046   7.209  0.1445 -0.5131  0.5342
  152SAPE  H15Y16942   7.781   4.980   7.122  0.8108 -0.2342  1.0334
  152SAPE  C31616943   7.800   5.189   7.194 -0.1435 -0.3658  0.0729
  152SAPE  H16X16944   7.910   5.201   7.203 -0.2887  0.9515  0.2736
  152SAPE  H16Y16945   7.771   5.244   7.286 -0.8483 -0.0276 -0.3398
  152SAPE  C31716946   7.731   5.251   7.071 -0.8895  0.2127 -0.2974
  152SAPE  H17X16947   7.623   5.233   7.089 -0.5403  0.6690  2.7321
  152SAPE  H17Y16948   7.769   5.198   6.982  1.3862  0.2311  0.6083
  152SAPE  C31816949   7.755   5.403   7.058 -0.6387  0.9354  0.4563
  152SAPE  H18X16950   7.715   5.454   7.148  1.5517  0.9334  1.5000
  152SAPE  H18Y16951   7.695   5.431   6.969  0.4749 -0.4174 -0.7523
  152SAPE  H18Z16952   7.861   5.434   7.049 -0.7653  1.4847  0.7730
  153SAPE     N16953   6.876   1.558   9.476 -0.2187  0.2261 -0.6508
  153SAPE   HN116954   6.873   1.505   9.566 -0.6244  1.5471  0.1443
  153SAPE   HN216955   6.931   1.497   9.412  2.0985 -1.0494  2.2998
  153SAPE   HN316956   6.919   1.651   9.495 -0.9391  0.7428 -1.4688
  153SAPE   C1216957   6.744   1.563   9.406 -0.7697 -0.3958 -0.3263
  153SAPE  H12A16958   6.757   1.625   9.315  0.3174 -0.2301 -0.0612
  153SAPE  H12B16959   6.681   1.621   9.477 -1.6229 -1.6635 -0.0009
  153SAPE   C1116960   6.680   1.425   9.373 -0.4789 -0.5397  0.4183
  153SAPE  H11A16961   6.744   1.362   9.307 -0.3772  0.3244 -0.3335
  153SAPE  H11B16962   6.593   1.452   9.309 -0.1904 -1.4824 -0.3982
  153SAPE     P16963   6.617   1.215   9.532 -0.2180 -0.2697  0.1208
  153SAPE   O1316964   6.738   1.130   9.516 -0.1813 -0.2432 -0.4440
  153SAPE   O1416965   6.552   1.214   9.666 -0.6275 -0.6043 -0.5219
  153SAPE   O1216966   6.641   1.364   9.490 -0.1509  0.4405 -0.2561
  153SAPE   O1116967   6.511   1.179   9.426 -0.2040  0.2392  0.0555
  153SAPE    C116968   6.544   1.137   9.293  0.6523 -0.3755  0.3415
  153SAPE    HA16969   6.455   1.159   9.229  0.6407 -1.7943 -0.1899
  153SAPE    HB16970   6.622   1.202   9.248 -1.5696  2.7445  0.6578
  153SAPE    C216971   6.584   0.992   9.288 -0.1165  1.0210  0.1505
  153SAPE    HS16972   6.684   0.964   9.330  0.1861 -1.1769 -1.8186
  153SAPE   O2116973   6.587   0.952   9.142 -0.2897  0.3354 -0.2557
  153SAPE   C2116974   6.697   1.001   9.082  0.2722  0.1011  0.2780
  153SAPE   O2216975   6.786   1.059   9.141  0.2554 -0.2051  0.1655
  153SAPE   C2216976   6.679   0.984   8.933 -0.0437 -0.1727 -0.9452
  153SAPE   H2R16977   6.733   0.891   8.903  0.0745 -0.0715 -1.0479
  153SAPE   H2S16978   6.572   0.977   8.906 -0.5978  0.7251  0.8380
  153SAPE    C316979   6.491   0.896   9.360  0.7252  0.9727 -0.6107
  153SAPE    HX16980   6.509   0.899   9.469  0.1699  0.7224 -0.5058
  153SAPE    HY16981   6.501   0.790   9.329 -1.1836 -0.3940  2.8684
  153SAPE   O3116982   6.354   0.938   9.341  0.1748 -0.0897 -1.0393
  153SAPE   C3116983   6.303   0.908   9.224  0.0898  0.5545  0.0413
  153SAPE   O3216984   6.341   0.818   9.148  0.0865 -0.3648 -0.2142
  153SAPE   C3216985   6.186   1.004   9.188  0.1860  0.2738  0.6824
  153SAPE   H2X16986   6.198   1.104   9.235 -2.2852  0.2267  1.5435
  153SAPE   H2Y16987   6.091   0.960   9.223 -0.7297  0.5475 -1.2959
  153SAPE   C2316988   6.730   1.099   8.840 -0.3678 -0.6998 -0.2337
  153SAPE   H3R16989   6.829   1.120   8.887 -2.3091 -2.3041  5.3561
  153SAPE   H3S16990   6.680   1.196   8.861 -0.9430 -0.9521 -0.4235
  153SAPE   C2416991   6.726   1.060   8.699 -0.3115 -0.2986  0.4947
  153SAPE   H4R16992   6.782   0.966   8.677  2.3360  1.5379 -1.2918
  153SAPE   H4S16993   6.773   1.132   8.628  1.0500 -2.3513 -0.8195
  153SAPE   C2516994   6.583   1.047   8.656 -0.4758 -0.5254 -0.4495
  153SAPE   H5R16995   6.518   1.120   8.706  0.6954  1.3670 -1.5608
  153SAPE   C2616996   6.530   0.994   8.550  0.5431 -0.0737  0.0066
  153SAPE   H6R16997   6.420   0.995   8.552  0.4694 -2.2095  2.5946
  153SAPE   C2716998   6.586   0.920   8.433 -0.3439  0.0442 -0.8896
  153SAPE   H7R16999   6.697   0.919   8.437 -0.3740  0.3460  0.0993
  153SAPE   H7S17000   6.568   0.975   8.338  2.1420  0.8903 -0.9426
  153SAPE   C2817001   6.522   0.787   8.419  0.3636 -0.2248  0.3959
  153SAPE   H8R17002   6.520   0.726   8.510  0.1529  0.8507  1.1315
  153SAPE   C2917003   6.466   0.733   8.311  0.5410 -0.0200 -0.2345
  153SAPE   H9R17004   6.419   0.635   8.329  0.3227  0.0122 -0.6365
  153SAPE  C21017005   6.452   0.796   8.176  0.0849  0.1280  0.3000
  153SAPE  H10R17006   6.423   0.901   8.195 -0.3015  0.0722  0.0175
  153SAPE  H10S17007   6.368   0.749   8.120  1.2071 -2.5887  0.7059
  153SAPE  C21117008   6.573   0.785   8.087 -0.0358 -0.3176  0.6873
  153SAPE  H11R17009   6.669   0.804   8.138  0.0272  0.4685  0.2837
  153SAPE  C21217010   6.576   0.756   7.958 -0.3841  0.0159 -0.2781
  153SAPE  H12R17011   6.671   0.748   7.903 -0.4618 -2.6823 -0.1412
  153SAPE  C21317012   6.454   0.746   7.867 -0.1269 -0.3841  0.8131
  153SAPE  H13R17013   6.357   0.725   7.917 -0.7132  0.1363 -0.0778
  153SAPE  H13S17014   6.468   0.657   7.801  1.1135 -0.2742  0.8915
  153SAPE  C21417015   6.427   0.873   7.800  0.2099 -0.3952 -0.0996
  153SAPE  H14R17016   6.394   0.957   7.863  1.7995  0.0710  0.1533
  153SAPE  C21517017   6.467   0.894   7.670  0.2072  0.2058  0.2339
  153SAPE  H15R17018   6.484   0.995   7.630  0.4012  0.5830  1.2403
  153SAPE  C21617019   6.531   0.785   7.591 -0.7839 -0.9368 -0.2379
  153SAPE  H16R17020   6.478   0.688   7.599  1.3252 -2.0474  1.3778
  153SAPE  H16S17021   6.635   0.787   7.628 -0.3395  0.0834 -1.4764
  153SAPE  C21717022   6.537   0.809   7.432 -0.1170 -0.7695 -0.1126
  153SAPE  H17R17023   6.605   0.891   7.403 -1.3843  0.2735 -0.2203
  153SAPE  H17S17024   6.437   0.840   7.397  0.1370 -0.0445 -0.2039
  153SAPE  C21817025   6.588   0.681   7.353 -0.4260  0.5184  0.0746
  153SAPE  H18R17026   6.680   0.648   7.406 -1.0249 -2.8409 -0.7739
  153SAPE  H18S17027   6.618   0.708   7.250  1.6486 -0.6096  0.3335
  153SAPE  C21917028   6.480   0.573   7.341 -0.2474 -0.2043 -0.5376
  153SAPE  H19R17029   6.390   0.610   7.287  0.2229  2.8667  0.6286
  153SAPE  H19S17030   6.453   0.548   7.446 -0.9757 -3.3892 -1.3661
  153SAPE  C22017031   6.524   0.433   7.282 -0.3216 -0.0411 -0.0698
  153SAPE  H20R17032   6.613   0.396   7.338 -0.9636 -0.6138  0.5953
  153SAPE  H20S17033   6.550   0.458   7.177 -2.0053  2.3475 -0.0084
  153SAPE  H20T17034   6.446   0.355   7.283  0.7858 -1.1778  0.5189
  153SAPE   C3317035   6.172   1.028   9.028  0.3223  0.7544 -1.1445
  153SAPE   H3X17036   6.092   1.103   9.010 -1.0999 -0.5354 -0.4741
  153SAPE   H3Y17037   6.118   0.942   8.982  1.5247  0.0548 -1.2876
  153SAPE   C3417038   6.303   1.072   8.965 -0.2217 -0.3582 -0.3753
  153SAPE   H4X17039   6.372   0.995   8.925  2.4323  1.9834 -0.6069
  153SAPE   H4Y17040   6.369   1.118   9.041  1.9291 -2.1289 -1.0694
  153SAPE   C3517041   6.275   1.179   8.857  0.3814  0.6743 -0.2966
  153SAPE   H5X17042   6.367   1.230   8.822  0.5992 -0.8342 -2.1156
  153SAPE   H5Y17043   6.213   1.262   8.898 -0.6789 -0.4917  0.5568
  153SAPE   C3617044   6.191   1.119   8.745 -0.3992 -0.0457  0.2208
  153SAPE   H6X17045   6.094   1.072   8.773  0.1242 -2.3175 -1.4891
  153SAPE   H6Y17046   6.256   1.041   8.701 -0.0042  0.6558 -0.4435
  153SAPE   C3717047   6.159   1.225   8.634  0.3154  0.0250 -0.7007
  153SAPE   H7X17048   6.254   1.268   8.597  1.2816 -1.1553  0.3264
  153SAPE   H7Y17049   6.107   1.313   8.679  2.6851  0.6098  1.0925
  153SAPE   C3817050   6.071   1.173   8.515 -0.2143 -0.1502  0.3677
  153SAPE   H8X17051   6.032   1.256   8.453  0.6651  0.5396  0.7241
  153SAPE   H8Y17052   5.979   1.126   8.555 -1.1444  1.3654  0.0944
  153SAPE   C3917053   6.151   1.077   8.426  0.2018  0.4244  0.5496
  153SAPE   H9X17054   6.199   1.005   8.496 -1.7400  0.0436  1.5342
  153SAPE   H9Y17055   6.229   1.133   8.370  2.8382 -2.0216  1.4998
  153SAPE  C31017056   6.062   0.988   8.326 -0.1860  0.0583  0.0448
  153SAPE  H10X17057   5.968   0.962   8.381  1.3566 -2.7665  1.6120
  153SAPE  H10Y17058   6.113   0.893   8.298 -2.0518 -1.0271  0.1165
  153SAPE  C31117059   6.037   1.058   8.192 -0.0552 -0.7407  0.1949
  153SAPE  H11X17060   6.021   1.165   8.218  0.7150 -0.4911 -0.3127
  153SAPE  H11Y17061   5.948   1.020   8.138 -0.1497 -0.6724  0.3025
  153SAPE  C31217062   6.160   1.052   8.097  0.1563 -0.4544 -0.4277
  153SAPE  H12X17063   6.169   0.949   8.055  2.6603 -0.7451  0.6174
  153SAPE  H12Y17064   6.257   1.073   8.148  0.2173  2.0205 -1.4277
  153SAPE  C31317065   6.139   1.150   7.986  0.5984  0.8038 -0.0082
  153SAPE  H13X17066   6.034   1.187   7.985 -0.0723 -0.9752  0.6580
  153SAPE  H13Y17067   6.145   1.089   7.894 -0.3023  0.2791  0.2653
  153SAPE  C31417068   6.239   1.264   7.983 -0.4633 -0.3393  0.2748
  153SAPE  H14X17069   6.242   1.317   7.886  1.6763  0.0799  0.5249
  153SAPE  H14Y17070   6.344   1.230   7.991  1.0484  3.3298 -1.6657
  153SAPE  C31517071   6.216   1.375   8.097  0.3162  0.3048 -0.4717
  153SAPE  H15X17072   6.183   1.338   8.197 -0.3488 -1.4175 -1.2888
  153SAPE  H15Y17073   6.131   1.435   8.060 -0.2677 -0.5740 -0.5834
  153SAPE  C31617074   6.334   1.471   8.105  0.2317  0.5624  0.2742
  153SAPE  H16X17075   6.313   1.570   8.150  0.1792  0.8569 -0.3855
  153SAPE  H16Y17076   6.364   1.483   7.998 -0.3762  1.7526  0.2136
  153SAPE  C31717077   6.440   1.412   8.196  0.8582  0.0428  0.3048
  153SAPE  H17X17078   6.451   1.302   8.182  0.0238 -0.0150  0.0497
  153SAPE  H17Y17079   6.417   1.438   8.301  0.9839  2.1651 -0.1477
  153SAPE  C31817080   6.572   1.483   8.168 -0.8629  0.0054 -0.8651
  153SAPE  H18X17081   6.561   1.586   8.206  0.5641 -0.3822  0.7506
  153SAPE  H18Y17082   6.586   1.488   8.058  0.8388 -3.3073 -0.9348
  153SAPE  H18Z17083   6.658   1.435   8.219 -0.9017  1.2809  0.4613
  154SAPE     N17084   0.760   1.200   9.734  0.1038  0.8482  0.3242
  154SAPE   HN117085   0.758   1.281   9.669  1.8360  0.2507 -0.5431
  154SAPE   HN217086   0.689   1.131   9.703  0.3844  1.0087 -0.6893
  154SAPE   HN317087   0.744   1.242   9.828 -0.5707  1.5756 -0.1136
  154SAPE   C1217088   0.895   1.143   9.720 -0.7364 -1.0964  0.0563
  154SAPE  H12A17089   0.917   1.080   9.809  1.8006 -0.1181  0.2045
  154SAPE  H12B17090   0.966   1.228   9.706 -2.3914  0.0616 -1.8757
  154SAPE   C1117091   0.901   1.065   9.584 -0.2819 -0.9001  0.3110
  154SAPE  H11A17092   0.997   1.012   9.567 -1.3931 -2.4816 -1.2970
  154SAPE  H11B17093   0.886   1.147   9.511 -4.9376  0.2678  2.2027
  154SAPE     P17094   0.800   0.816   9.571 -0.4185  0.5151  0.0333
  154SAPE   O1317095   0.913   0.777   9.657  0.1294 -0.2258  0.0555
  154SAPE   O1417096   0.669   0.779   9.629  0.2126 -0.4577 -0.1983
  154SAPE   O1217097   0.800   0.975   9.562  0.4544  0.3188 -0.5027
  154SAPE   O1117098   0.801   0.749   9.429  0.7241  0.5311 -0.4741
  154SAPE    C117099   0.807   0.609   9.420 -0.3674  0.1295  0.9342
  154SAPE    HA17100   0.879   0.558   9.487  0.0289  0.6694  0.9193
  154SAPE    HB17101   0.708   0.568   9.451  0.2334 -3.0465 -0.9142
  154SAPE    C217102   0.822   0.558   9.272  0.1081  0.2648 -0.3749
  154SAPE    HS17103   0.932   0.560   9.254  0.5701  1.2842  2.1492
  154SAPE   O2117104   0.748   0.639   9.185 -0.6266  0.1508 -0.2524
  154SAPE   C2117105   0.814   0.711   9.093 -0.5933  0.7855  0.3634
  154SAPE   O2217106   0.933   0.724   9.092 -0.2494  0.6446  0.6044
  154SAPE   C2217107   0.724   0.777   8.990  0.2017  0.3160  0.5657
  154SAPE   H2R17108   0.679   0.695   8.930 -0.3890  0.1075  1.2747
  154SAPE   H2S17109   0.648   0.828   9.052  0.7197  1.6488  0.1320
  154SAPE    C317110   0.781   0.417   9.243  0.1340 -0.4354  0.1039
  154SAPE    HX17111   0.673   0.400   9.267  0.0596  2.3907  2.3847
  154SAPE    HY17112   0.829   0.349   9.317 -0.9459  1.5244  2.7684
  154SAPE   O3117113   0.822   0.388   9.105 -0.3751 -0.3546  0.5342
  154SAPE   C3117114   0.739   0.305   9.037 -0.3274 -0.8472  0.3670
  154SAPE   O3217115   0.657   0.231   9.088 -0.3079  0.2304  0.7140
  154SAPE   C3217116   0.770   0.318   8.892 -0.1464 -0.6259 -0.2507
  154SAPE   H2X17117   0.774   0.214   8.853  1.4849 -0.3825 -0.8519
  154SAPE   H2Y17118   0.869   0.370   8.888 -1.0763  1.6798  3.1042
  154SAPE   C2317119   0.791   0.884   8.910 -0.9007  0.6737  0.0687
  154SAPE   H3R17120   0.877   0.847   8.850 -2.2665  1.3545 -2.4778
  154SAPE   H3S17121   0.833   0.957   8.983  0.7816  1.2820 -1.4017
  154SAPE   C2417122   0.692   0.956   8.810 -0.5322  0.2986 -0.8818
  154SAPE   H4R17123   0.687   0.879   8.729  0.7924  0.1991 -0.8914
  154SAPE   H4S17124   0.741   1.045   8.765  1.1098  0.1497  0.5063
  154SAPE   C2517125   0.559   1.002   8.867 -0.4448 -0.4312  0.6023
  154SAPE   H5R17126   0.565   1.072   8.952 -0.3228  0.5469 -0.1841
  154SAPE   C2617127   0.440   0.961   8.814  0.3861 -0.0495  0.1008
  154SAPE   H6R17128   0.350   0.995   8.868 -0.9673 -2.2215 -0.6502
  154SAPE   C2717129   0.420   0.870   8.694 -0.1154  0.7322  0.4214
  154SAPE   H7R17130   0.344   0.792   8.714 -1.1265  1.5966  0.0603
  154SAPE   H7S17131   0.510   0.809   8.675 -0.4545  0.0116  1.0896
  154SAPE   C2817132   0.367   0.935   8.565  0.4749 -0.2345  0.2488
  154SAPE   H8R17133   0.402   1.039   8.555 -0.7141  0.2679  1.0298
  154SAPE   C2917134   0.298   0.878   8.467 -0.6202 -0.0676  0.3084
  154SAPE   H9R17135   0.255   0.939   8.386 -0.9463 -0.7736 -0.0585
  154SAPE  C21017136   0.268   0.731   8.467 -0.5111 -0.7277 -0.9034
  154SAPE  H10R17137   0.174   0.698   8.418 -1.1001  1.5435 -1.4421
  154SAPE  H10S17138   0.245   0.695   8.570 -0.4561  0.9280 -0.2791
  154SAPE  C21117139   0.389   0.649   8.415 -0.3415  0.3651  0.2924
  154SAPE  H11R17140   0.473   0.633   8.483 -1.0949  1.7890  1.6163
  154SAPE  C21217141   0.390   0.594   8.291 -0.3565 -0.2603  0.2269
  154SAPE  H12R17142   0.485   0.545   8.262  0.1191  0.0618  1.2047
  154SAPE  C21317143   0.292   0.594   8.175 -0.4422  0.6580  0.1697
  154SAPE  H13R17144   0.189   0.601   8.216 -1.7026 -0.2987 -2.5741
  154SAPE  H13S17145   0.304   0.492   8.131  0.0221  0.0823  1.5829
  154SAPE  C21417146   0.329   0.707   8.077  0.1829  0.3084  0.9502
  154SAPE  H14R17147   0.428   0.753   8.096 -0.1862  2.0741 -1.0405
  154SAPE  C21517148   0.280   0.717   7.946  1.5437 -0.5000 -0.0617
  154SAPE  H15R17149   0.325   0.775   7.864  1.0291 -1.4878 -1.0650
  154SAPE  C21617150   0.166   0.628   7.892 -0.2048 -0.0669  0.1346
  154SAPE  H16R17151   0.072   0.688   7.887  0.4226  1.1858  2.2146
  154SAPE  H16S17152   0.141   0.546   7.963 -0.0976  0.5740  0.9232
  154SAPE  C21717153   0.198   0.557   7.758  0.4490  0.2942 -0.0312
  154SAPE  H17R17154   0.278   0.483   7.777 -1.8358 -2.3190  0.0064
  154SAPE  H17S17155   0.234   0.636   7.690 -1.5727 -0.4135 -2.0378
  154SAPE  C21817156   0.074   0.488   7.702  0.1459  0.1317  0.1066
  154SAPE  H18R17157  -0.008   0.563   7.702  0.9817  1.1348 -1.8515
  154SAPE  H18S17158   0.044   0.405   7.769 -0.0344 -0.7300 -1.0063
  154SAPE  C21917159   0.088   0.419   7.561  0.7247 -0.3972 -0.4553
  154SAPE  H19R17160   0.175   0.349   7.566  4.1864  3.3177 -2.6225
  154SAPE  H19S17161   0.121   0.492   7.484 -1.4570 -0.4763 -1.5429
  154SAPE  C22017162  -0.045   0.360   7.516 -0.5439  0.0213 -0.0009
  154SAPE  H20R17163  -0.083   0.278   7.580  0.3622 -0.0386  0.4834
  154SAPE  H20S17164  -0.037   0.323   7.412  1.7854 -0.8487  0.4360
  154SAPE  H20T17165  -0.128   0.433   7.502  0.4569  0.7891 -2.4612
  154SAPE   C3317166   0.655   0.402   8.814 -0.9125  0.2361  0.2331
  154SAPE   H3X17167   0.671   0.507   8.847 -1.8157 -0.9609  5.2221
  154SAPE   H3Y17168   0.556   0.374   8.854 -0.8680 -0.3582 -0.0487
  154SAPE   C3417169   0.643   0.389   8.667  0.0565  0.2580 -0.7055
  154SAPE   H4X17170   0.540   0.419   8.637 -0.1050  0.9749  0.5314
  154SAPE   H4Y17171   0.649   0.280   8.644 -0.6222  0.1616 -0.4549
  154SAPE   C3517172   0.762   0.461   8.601  0.1785  0.1647  0.2407
  154SAPE   H5X17173   0.850   0.438   8.664 -1.0838  0.1516  2.0544
  154SAPE   H5Y17174   0.750   0.571   8.609  0.3417  0.2043 -0.0297
  154SAPE   C3617175   0.765   0.435   8.452  0.0265 -0.0985 -0.1734
  154SAPE   H6X17176   0.672   0.469   8.402 -1.1227  0.3543  2.1439
  154SAPE   H6Y17177   0.775   0.327   8.428 -0.7735 -0.0891 -0.5594
  154SAPE   C3717178   0.880   0.504   8.380  0.0067  0.4442  0.4378
  154SAPE   H7X17179   0.862   0.518   8.271  0.9571 -2.8398 -0.2296
  154SAPE   H7Y17180   0.974   0.445   8.387 -0.0947  0.3826  1.5003
  154SAPE   C3817181   0.903   0.646   8.434  0.4216 -0.5773 -0.1389
  154SAPE   H8X17182   0.984   0.676   8.365 -1.5452  3.0473 -1.1316
  154SAPE   H8Y17183   0.941   0.655   8.538  3.2205  1.6782 -1.2304
  154SAPE   C3917184   0.787   0.742   8.410 -0.3691  0.1578  0.0971
  154SAPE   H9X17185   0.707   0.725   8.485  0.1702  0.8384  0.8460
  154SAPE   H9Y17186   0.747   0.735   8.307 -0.3143 -1.2228  0.1528
  154SAPE  C31017187   0.835   0.886   8.420 -0.2179 -0.1779 -0.3927
  154SAPE  H10X17188   0.917   0.907   8.348  1.0307 -0.2130  0.9589
  154SAPE  H10Y17189   0.879   0.891   8.522 -0.1688 -2.0537 -0.2765
  154SAPE  C31117190   0.725   0.982   8.376 -0.4706  0.2948 -0.3627
  154SAPE  H11X17191   0.764   1.080   8.412 -0.8798 -0.3575  2.0694
  154SAPE  H11Y17192   0.624   0.966   8.420  0.2772 -2.8079  0.5196
  154SAPE  C31217193   0.722   1.015   8.220 -0.1475 -0.6390 -0.3577
  154SAPE  H12X17194   0.695   0.917   8.174 -2.8467 -0.4624  0.7206
  154SAPE  H12Y17195   0.824   1.049   8.190  0.3812  0.2077  2.1388
  154SAPE  C31317196   0.611   1.114   8.180 -0.3711  0.0796 -0.4096
  154SAPE  H13X17197   0.646   1.155   8.083  3.0744 -0.7201  0.3640
  154SAPE  H13Y17198   0.618   1.199   8.251 -3.0466 -0.8653  1.1251
  154SAPE  C31417199   0.471   1.067   8.192 -0.3539 -0.2780  0.3865
  154SAPE  H14X17200   0.422   1.094   8.288 -2.4323  0.3744 -0.8038
  154SAPE  H14Y17201   0.457   0.961   8.162 -3.5828  0.3998 -0.9555
  154SAPE  C31517202   0.375   1.139   8.091 -0.0633  0.1542  0.6800
  154SAPE  H15X17203   0.412   1.128   7.987 -0.9062 -1.8214  0.5376
  154SAPE  H15Y17204   0.365   1.244   8.125 -0.8760  0.5401 -0.7287
  154SAPE  C31617205   0.234   1.081   8.083 -0.2599  0.6843 -0.1021
  154SAPE  H16X17206   0.196   1.061   8.186  3.2502 -0.3774  1.1210
  154SAPE  H16Y17207   0.241   0.981   8.035  0.8648  0.1427  1.1181
  154SAPE  C31717208   0.136   1.168   8.006 -0.2130 -0.1814 -0.1630
  154SAPE  H17X17209   0.175   1.203   7.909 -1.0960 -0.4664 -0.6285
  154SAPE  H17Y17210   0.123   1.260   8.067 -0.0119  0.9375 -1.7499
  154SAPE  C31817211   0.002   1.098   7.984  0.0879  0.6208  0.5418
  154SAPE  H18X17212   0.016   1.005   7.925 -2.4667  0.5994 -0.1782
  154SAPE  H18Y17213  -0.064   1.165   7.925  3.1851  2.7113 -0.8166
  154SAPE  H18Z17214  -0.046   1.076   8.082  2.9693 -1.4061  1.6276
  155SAPE     N17215   0.848   6.960   9.398 -0.4219 -0.2560  0.1224
  155SAPE   HN117216   0.949   6.946   9.415  0.1127  0.6310 -2.0023
  155SAPE   HN217217   0.814   7.022   9.475  1.0925  4.0557 -2.3230
  155SAPE   HN317218   0.807   6.867   9.418  2.2228 -1.7538 -1.0523
  155SAPE   C1217219   0.822   7.028   9.268 -0.6561  0.4987  0.3945
  155SAPE  H12A17220   0.711   7.024   9.258 -0.6089 -0.7928  0.2176
  155SAPE  H12B17221   0.860   6.957   9.191  0.0427 -0.0402  1.2266
  155SAPE   C1117222   0.882   7.173   9.261  0.3876 -0.9768 -0.2243
  155SAPE  H11A17223   0.846   7.229   9.349 -0.0297 -0.9539 -0.4070
  155SAPE  H11B17224   0.845   7.215   9.165  1.0376  0.2707  0.0588
  155SAPE     P17225   1.120   7.232   9.366  0.0770  0.1995  0.1923
  155SAPE   O1317226   1.051   7.235   9.495 -0.0252 -0.5283  0.0924
  155SAPE   O1417227   1.253   7.166   9.362 -0.9511  0.4109 -0.2334
  155SAPE   O1217228   1.022   7.169   9.256 -0.2878 -0.0528 -0.2721
  155SAPE   O1117229   1.143   7.380   9.312  0.3595  0.1123 -0.1654
  155SAPE    C117230   1.101   7.426   9.189 -0.4668 -0.0726  0.6387
  155SAPE    HA17231   1.005   7.381   9.157 -0.0817 -0.2444 -0.2916
  155SAPE    HB17232   1.082   7.534   9.209 -0.9744  0.0585 -0.5065
  155SAPE    C217233   1.211   7.407   9.078  0.0348 -0.5294  0.2020
  155SAPE    HS17234   1.184   7.473   8.992  2.4679  2.3143  1.4232
  155SAPE   O2117235   1.222   7.273   9.035  0.4789  0.3670 -0.4453
  155SAPE   C2117236   1.117   7.224   8.987  0.8780  0.0912 -0.3018
  155SAPE   O2217237   1.013   7.281   8.957  0.4046 -0.5559  0.0385
  155SAPE   C2217238   1.131   7.070   8.978 -0.0882 -0.6457  0.4292
  155SAPE   H2R17239   1.218   7.027   9.033  2.1964  1.0254 -1.6470
  155SAPE   H2S17240   1.045   7.028   9.033  0.7326  0.3928  2.6132
  155SAPE    C317241   1.345   7.479   9.106 -0.0061  0.5077 -0.6213
  155SAPE    HX17242   1.395   7.432   9.193 -1.3448  1.4130  0.6774
  155SAPE    HY17243   1.337   7.582   9.146  1.0377 -0.6362  2.9266
  155SAPE   O3117244   1.426   7.477   8.992  0.0727  0.0739 -0.0157
  155SAPE   C3117245   1.512   7.379   8.984  0.3272  0.4082 -0.5014
  155SAPE   O3217246   1.523   7.287   9.067  0.1003  0.4809  0.2578
  155SAPE   C3217247   1.594   7.403   8.861 -0.0756  0.1983 -0.4187
  155SAPE   H2X17248   1.657   7.493   8.876  0.3785 -0.0723 -0.6520
  155SAPE   H2Y17249   1.522   7.415   8.777  0.4306 -0.4565 -0.9666
  155SAPE   C2317250   1.122   7.010   8.835 -0.1468  0.2102 -0.5182
  155SAPE   H3R17251   1.025   7.031   8.784  0.6372  1.1249 -1.6946
  155SAPE   H3S17252   1.122   6.901   8.857 -0.3579  0.0814 -1.1298
  155SAPE   C2417253   1.232   7.056   8.746  0.7271  0.7596 -0.3425
  155SAPE   H4R17254   1.325   7.011   8.786  0.0915  0.1038  0.4244
  155SAPE   H4S17255   1.251   7.165   8.755  1.4517  0.4978  1.9255
  155SAPE   C2517256   1.210   7.027   8.600 -0.4237  0.4390  0.4970
  155SAPE   H5R17257   1.227   6.924   8.565  0.5275  0.3793  1.0961
  155SAPE   C2617258   1.186   7.121   8.505 -0.4608 -0.4553 -0.1312
  155SAPE   H6R17259   1.173   7.088   8.401  0.2539  0.3757 -0.4932
  155SAPE   C2717260   1.182   7.275   8.516 -0.1688  0.2895  0.0262
  155SAPE   H7R17261   1.151   7.310   8.415 -2.5625 -0.1701  0.5504
  155SAPE   H7S17262   1.283   7.314   8.541 -0.9663  1.7180  1.1648
  155SAPE   C2817263   1.076   7.328   8.611  0.0269  0.1499 -0.4321
  155SAPE   H8R17264   1.005   7.251   8.645 -1.2384  1.1388 -0.7361
  155SAPE   C2917265   1.073   7.453   8.661 -0.4591 -0.1490  0.9072
  155SAPE   H9R17266   0.996   7.475   8.736 -0.5671  3.0007  0.0309
  155SAPE  C21017267   1.174   7.563   8.635 -0.2675 -0.1104 -0.0135
  155SAPE  H10R17268   1.111   7.647   8.599  0.1992 -0.0104 -0.6148
  155SAPE  H10S17269   1.243   7.529   8.554  0.5017  0.1856  0.5056
  155SAPE  C21117270   1.262   7.618   8.747  0.2434  0.2971  0.2684
  155SAPE  H11R17271   1.353   7.556   8.746  0.0905 -0.4091 -5.5744
  155SAPE  C21217272   1.251   7.740   8.804 -0.2105  0.6431 -0.0557
  155SAPE  H12R17273   1.314   7.745   8.894 -0.0375 -3.6270  0.2638
  155SAPE  C21317274   1.144   7.848   8.774 -0.0919  0.5271 -0.9494
  155SAPE  H13R17275   1.054   7.819   8.833  1.1704 -0.2010  0.7114
  155SAPE  H13S17276   1.117   7.844   8.667 -2.1636  0.5996 -0.4745
  155SAPE  C21417277   1.198   7.983   8.822  0.3566  0.2733  1.1436
  155SAPE  H14R17278   1.201   7.985   8.932 -0.5135 -1.7728  1.2553
  155SAPE  C21517279   1.224   8.094   8.743  0.1017 -0.4052 -1.4650
  155SAPE  H15R17280   1.269   8.188   8.779 -0.3079 -0.3067 -1.2103
  155SAPE  C21617281   1.213   8.108   8.595 -0.0229  0.9730  0.1117
  155SAPE  H16R17282   1.119   8.157   8.564  0.0637  0.3373 -1.2415
  155SAPE  H16S17283   1.203   8.007   8.547  0.4295  1.2685 -0.6290
  155SAPE  C21717284   1.338   8.182   8.547 -1.0753 -0.2409  0.0191
  155SAPE  H17R17285   1.431   8.138   8.589 -1.9277 -1.7278  0.4204
  155SAPE  H17S17286   1.343   8.289   8.577 -0.6797 -0.3076  0.1978
  155SAPE  C21817287   1.337   8.177   8.398  0.3688  0.0887  0.4416
  155SAPE  H18R17288   1.243   8.208   8.346 -0.0883 -0.6194  0.8221
  155SAPE  H18S17289   1.354   8.071   8.369  0.7003  0.2086  0.1948
  155SAPE  C21917290   1.447   8.268   8.354  0.2935 -0.2574 -0.7588
  155SAPE  H19R17291   1.531   8.244   8.422 -1.6431 -0.7714  1.6003
  155SAPE  H19S17292   1.418   8.374   8.374 -0.0483 -0.2211 -1.4150
  155SAPE  C22017293   1.486   8.258   8.211 -1.1064  0.0005  0.0138
  155SAPE  H20R17294   1.407   8.234   8.137  0.2836 -3.6949 -0.4846
  155SAPE  H20S17295   1.558   8.173   8.205 -1.7372 -0.7640  2.2047
  155SAPE  H20T17296   1.541   8.350   8.183  0.9376 -1.4456 -1.0217
  155SAPE   C3317297   1.684   7.278   8.817 -0.0873 -0.1472 -0.3299
  155SAPE   H3X17298   1.610   7.217   8.761 -2.1216  0.6692  1.3222
  155SAPE   H3Y17299   1.714   7.224   8.909 -0.9004  0.6412  0.4335
  155SAPE   C3417300   1.794   7.306   8.713 -0.2171 -0.8749  0.0908
  155SAPE   H4X17301   1.816   7.206   8.670 -0.0373 -0.3258 -1.1312
  155SAPE   H4Y17302   1.887   7.337   8.766  1.1965 -1.8631 -1.6870
  155SAPE   C3517303   1.770   7.397   8.593 -0.0016  0.2653 -0.1109
  155SAPE   H5X17304   1.859   7.402   8.527 -0.7728 -2.3572 -1.4714
  155SAPE   H5Y17305   1.746   7.497   8.636 -1.2420  0.8151 -1.9832
  155SAPE   C3617306   1.645   7.361   8.505 -0.0099  0.2736  0.0012
  155SAPE   H6X17307   1.550   7.378   8.559 -0.6039 -0.0493 -0.9261
  155SAPE   H6Y17308   1.655   7.252   8.484 -1.6321 -0.0918  0.9439
  155SAPE   C3717309   1.641   7.428   8.367  0.1911 -0.5749  0.0390
  155SAPE   H7X17310   1.741   7.415   8.320  1.0226 -1.9506  2.0414
  155SAPE   H7Y17311   1.637   7.535   8.399 -1.0281 -0.2199 -1.2084
  155SAPE   C3817312   1.537   7.387   8.271 -0.2821 -0.0837 -0.1831
  155SAPE   H8X17313   1.438   7.421   8.310  1.2140  0.8908  3.0967
  155SAPE   H8Y17314   1.532   7.277   8.261  1.4370 -0.4329  2.0831
  155SAPE   C3917315   1.546   7.458   8.137  0.2469  0.6981  0.3466
  155SAPE   H9X17316   1.623   7.423   8.065 -1.1043  1.8905 -1.7802
  155SAPE   H9Y17317   1.557   7.568   8.139 -3.2653  1.2319 -1.6557
  155SAPE  C31017318   1.420   7.422   8.057 -0.1975  0.3972  0.0167
  155SAPE  H10X17319   1.330   7.447   8.117 -1.0351 -0.7740 -0.7030
  155SAPE  H10Y17320   1.417   7.314   8.030  2.0497  0.1658  0.5191
  155SAPE  C31117321   1.416   7.507   7.928 -0.3083  0.3379 -0.6348
  155SAPE  H11X17322   1.514   7.480   7.885  0.2211  0.4641  0.4520
  155SAPE  H11Y17323   1.416   7.618   7.934  1.0104  0.2851  2.8098
  155SAPE  C31217324   1.309   7.454   7.841 -0.2675  0.4864  0.2668
  155SAPE  H12X17325   1.210   7.449   7.893 -2.0627 -2.7947 -3.0287
  155SAPE  H12Y17326   1.343   7.353   7.809  0.4622  0.8687 -0.1848
  155SAPE  C31317327   1.269   7.550   7.728 -0.3084 -0.7035 -0.7386
  155SAPE  H13X17328   1.356   7.571   7.662 -2.3353  3.0519 -2.5672
  155SAPE  H13Y17329   1.224   7.642   7.771  1.0502 -1.0804  1.6725
  155SAPE  C31417330   1.170   7.479   7.636  0.2409 -0.4151 -0.7216
  155SAPE  H14X17331   1.079   7.447   7.692  0.9569  1.4407  1.6763
  155SAPE  H14Y17332   1.215   7.384   7.600 -0.9798 -1.2565 -0.0999
  155SAPE  C31517333   1.127   7.573   7.514  0.5794  0.3392 -0.5298
  155SAPE  H15X17334   1.070   7.517   7.437 -2.2839  1.1024  0.9293
  155SAPE  H15Y17335   1.217   7.610   7.459  0.4544 -1.3731 -2.0019
  155SAPE  C31617336   1.043   7.688   7.563  0.6168  0.1608 -0.2744
  155SAPE  H16X17337   1.102   7.754   7.629  0.3605 -0.5093  0.6473
  155SAPE  H16Y17338   0.961   7.651   7.630 -0.3381  0.0536 -1.4666
  155SAPE  C31717339   0.990   7.771   7.450 -0.3175 -0.4880 -0.4440
  155SAPE  H17X17340   1.081   7.796   7.391  0.4252  0.6006  1.0838
  155SAPE  H17Y17341   0.947   7.868   7.484 -0.8943 -0.4278 -1.3177
  155SAPE  C31817342   0.884   7.701   7.363  0.2187 -0.1009  0.0255
  155SAPE  H18X17343   0.808   7.646   7.422  1.3865 -1.8716 -0.0732
  155SAPE  H18Y17344   0.952   7.627   7.315  0.8658  1.0004 -0.8087
  155SAPE  H18Z17345   0.841   7.784   7.302 -3.0115 -0.8947  1.0191
  156SAPE     N17346   7.107   5.970   9.897  0.2082 -0.1003  0.1968
  156SAPE   HN117347   7.175   5.996   9.823  0.9313 -0.2752  0.7829
  156SAPE   HN217348   7.141   6.027   9.978  0.4130 -1.0406  0.7897
  156SAPE   HN317349   7.117   5.868   9.914  0.3080 -0.2474 -0.6989
  156SAPE   C1217350   6.971   6.019   9.871  0.8066  0.0239  0.7845
  156SAPE  H12A17351   6.973   6.105   9.801 -0.1828 -1.8156 -1.6210
  156SAPE  H12B17352   6.935   6.055   9.970 -0.3894  0.0046  0.3765
  156SAPE   C1117353   6.884   5.903   9.815 -0.0425 -0.4834 -0.3090
  156SAPE  H11A17354   6.779   5.940   9.813  0.4235  1.6223  3.5316
  156SAPE  H11B17355   6.878   5.834   9.902  1.0965 -2.1066 -1.4540
  156SAPE     P17356   6.835   5.800   9.587  0.1210 -0.0748  0.3343
  156SAPE   O1317357   6.797   5.660   9.603  0.1155  0.1524  0.3816
  156SAPE   O1417358   6.721   5.888   9.578  0.2740  0.0044  0.5666
  156SAPE   O1217359   6.934   5.844   9.701 -0.5177 -0.2560 -0.1845
  156SAPE   O1117360   6.927   5.812   9.455  0.0575 -0.1653 -0.6928
  156SAPE    C117361   7.050   5.737   9.461  0.1075  0.3854 -0.6284
  156SAPE    HA17362   7.100   5.757   9.558 -0.2612  0.4951 -0.4598
  156SAPE    HB17363   7.039   5.627   9.477 -4.1949  0.3175 -2.5646
  156SAPE    C217364   7.157   5.767   9.354  0.9510 -0.0127  0.3552
  156SAPE    HS17365   7.180   5.874   9.369 -4.6519  1.5187  0.3783
  156SAPE   O2117366   7.101   5.728   9.229  0.2525 -0.2730  0.5816
  156SAPE   C2117367   7.029   5.819   9.168 -0.2612 -0.1629  1.1629
  156SAPE   O2217368   7.014   5.935   9.206 -0.3708 -0.0946  0.4793
  156SAPE   C2217369   7.010   5.776   9.020 -0.1688 -0.2799 -0.6165
  156SAPE   H2R17370   7.113   5.768   8.980  1.2081  2.2776  2.0922
  156SAPE   H2S17371   6.965   5.674   9.020  0.3184 -0.6296  3.1113
  156SAPE    C317372   7.290   5.688   9.374  1.0725 -0.1730 -0.4859
  156SAPE    HX17373   7.261   5.581   9.381  3.1401 -0.7464  0.1341
  156SAPE    HY17374   7.332   5.712   9.474 -3.0355  1.6185  1.0349
  156SAPE   O3117375   7.382   5.715   9.263  0.0185 -0.3905  0.1862
  156SAPE   C3117376   7.439   5.608   9.209  0.2890 -0.2268 -0.4863
  156SAPE   O3217377   7.428   5.495   9.253  0.4497  1.0485  0.3385
  156SAPE   C3217378   7.524   5.651   9.092  0.3144 -0.7010  0.1184
  156SAPE   H2X17379   7.627   5.671   9.128  0.4267  0.7897 -0.9368
  156SAPE   H2Y17380   7.487   5.746   9.048  1.7171  1.2851  2.9475
  156SAPE   C2317381   6.940   5.883   8.930  0.0548 -0.4208 -0.7993
  156SAPE   H3R17382   7.002   5.975   8.939  0.9055 -1.0507 -0.0018
  156SAPE   H3S17383   6.842   5.915   8.971  0.8810  1.9170 -0.4988
  156SAPE   C2417384   6.921   5.835   8.790 -0.5927  0.1541 -0.1893
  156SAPE   H4R17385   6.845   5.754   8.786 -1.0775  0.5803  0.2585
  156SAPE   H4S17386   7.022   5.799   8.761 -0.6528 -2.5046  2.4246
  156SAPE   C2517387   6.868   5.945   8.706 -0.5949 -0.0266 -0.0576
  156SAPE   H5R17388   6.766   5.984   8.722 -0.0832  1.4949 -0.2781
  156SAPE   C2617389   6.918   5.990   8.591 -1.1983 -0.0467 -0.4705
  156SAPE   H6R17390   6.866   6.077   8.548 -0.5553  0.8798  0.5757
  156SAPE   C2717391   7.050   5.943   8.528 -0.4433 -0.3656 -0.6498
  156SAPE   H7R17392   7.066   5.833   8.540 -0.6142 -0.5943 -2.3273
  156SAPE   H7S17393   7.123   5.985   8.601 -2.9434  2.4154  0.4218
  156SAPE   C2817394   7.077   5.987   8.389  1.2357  0.3507  0.4445
  156SAPE   H8R17395   7.070   6.095   8.370  2.9083  0.1200 -2.1105
  156SAPE   C2917396   7.123   5.916   8.278  0.7019  0.1456 -0.3115
  156SAPE   H9R17397   7.134   5.953   8.175 -0.3014 -1.7938 -1.1665
  156SAPE  C21017398   7.149   5.766   8.291 -0.0164  0.1175  1.0390
  156SAPE  H10R17399   7.062   5.725   8.347 -0.8747  1.4497  0.7295
  156SAPE  H10S17400   7.233   5.745   8.362  1.5977  0.0226 -0.8262
  156SAPE  C21117401   7.157   5.693   8.158 -0.7347  0.3974  0.1663
  156SAPE  H11R17402   7.144   5.756   8.069  0.0821 -0.1332 -0.3304
  156SAPE  C21217403   7.192   5.562   8.151 -0.3331  0.2819  0.2055
  156SAPE  H12R17404   7.203   5.502   8.059  0.4223  1.6081 -0.5990
  156SAPE  C21317405   7.214   5.469   8.272 -0.7270 -0.0263 -0.1906
  156SAPE  H13R17406   7.118   5.445   8.322 -0.0715 -1.5496  0.4044
  156SAPE  H13S17407   7.283   5.513   8.347  1.4435  0.3318 -2.2514
  156SAPE  C21417408   7.269   5.331   8.246  0.0882 -0.7213  0.9133
  156SAPE  H14R17409   7.346   5.294   8.316 -1.2577 -1.6342  1.9533
  156SAPE  C21517410   7.204   5.242   8.168  0.0157 -0.2621 -0.4014
  156SAPE  H15R17411   7.245   5.140   8.166  0.4380 -0.1047  0.1408
  156SAPE  C21617412   7.071   5.263   8.093  0.6161 -0.1831 -0.4494
  156SAPE  H16R17413   7.011   5.355   8.107  1.1588  0.4489 -1.9772
  156SAPE  H16S17414   7.010   5.174   8.117  0.1986  0.1756 -0.1687
  156SAPE  C21717415   7.093   5.269   7.936  0.1056  0.2045 -0.8128
  156SAPE  H17R17416   7.183   5.207   7.913 -1.3321 -2.4214  0.1823
  156SAPE  H17S17417   7.110   5.378   7.921  0.4977  0.8687  3.2883
  156SAPE  C21817418   6.982   5.202   7.854  0.0818  0.2433  0.4486
  156SAPE  H18R17419   6.888   5.255   7.882 -1.4246 -0.4528 -2.8439
  156SAPE  H18S17420   6.989   5.096   7.888  1.6614  0.6311  1.4328
  156SAPE  C21917421   7.014   5.208   7.707 -0.6124 -0.2256  0.2139
  156SAPE  H19R17422   7.112   5.159   7.689 -0.1035  0.8374 -0.0267
  156SAPE  H19S17423   7.017   5.317   7.685 -0.3568 -0.3340 -0.3051
  156SAPE  C22017424   6.910   5.138   7.626 -0.2654  0.8165 -0.0870
  156SAPE  H20R17425   6.805   5.174   7.634 -0.8463 -0.2665 -2.0827
  156SAPE  H20S17426   6.902   5.030   7.651 -2.0349  0.8535 -0.3514
  156SAPE  H20T17427   6.943   5.140   7.520 -0.8555 -0.5391 -0.3143
  156SAPE   C3317428   7.540   5.537   8.991  0.4319  1.2292  0.6161
  156SAPE   H3X17429   7.579   5.443   9.036 -2.5767 -1.3822 -1.7468
  156SAPE   H3Y17430   7.631   5.563   8.933  1.7558 -2.2724  0.9043
  156SAPE   C3417431   7.426   5.513   8.892  0.0713 -0.4973 -0.2520
  156SAPE   H4X17432   7.331   5.486   8.944 -1.4232  2.8260 -0.9657
  156SAPE   H4Y17433   7.455   5.433   8.821  0.1767 -0.7936  0.1277
  156SAPE   C3517434   7.402   5.635   8.800  0.6975 -0.4454  0.2614
  156SAPE   H5X17435   7.501   5.654   8.752  0.5113 -1.1104 -0.4046
  156SAPE   H5Y17436   7.375   5.712   8.875  0.7525 -0.6256  0.4675
  156SAPE   C3617437   7.285   5.612   8.698  0.2139 -0.6440  0.8128
  156SAPE   H6X17438   7.334   5.552   8.619  1.6116  3.5013 -1.8273
  156SAPE   H6Y17439   7.263   5.707   8.644 -2.3479 -2.2684 -1.2259
  156SAPE   C3717440   7.163   5.547   8.744  1.0368  0.1405  1.0093
  156SAPE   H7X17441   7.108   5.608   8.819  1.2723  1.8441 -0.1477
  156SAPE   H7Y17442   7.175   5.443   8.782  0.3975 -0.4024 -0.1876
  156SAPE   C3817443   7.054   5.533   8.632 -0.8392  0.0880  0.2391
  156SAPE   H8X17444   7.099   5.477   8.548 -2.7159  0.0872 -0.8140
  156SAPE   H8Y17445   7.017   5.635   8.609  1.4450  1.1360  0.8949
  156SAPE   C3917446   6.931   5.450   8.681  0.2992 -0.4745  0.0989
  156SAPE   H9X17447   6.894   5.515   8.764 -0.3778 -1.2633  0.4263
  156SAPE   H9Y17448   6.950   5.344   8.708  0.0630 -0.4686  0.2891
  156SAPE  C31017449   6.811   5.444   8.584 -0.2060  1.0630  0.4238
  156SAPE  H10X17450   6.788   5.545   8.544  0.0516  0.8419 -0.2902
  156SAPE  H10Y17451   6.721   5.404   8.635  0.9719 -0.2131  1.5882
  156SAPE  C31117452   6.830   5.354   8.454 -0.0354 -0.2519 -0.2612
  156SAPE  H11X17453   6.853   5.249   8.483  0.5871  0.2435  1.1232
  156SAPE  H11Y17454   6.913   5.394   8.390  1.0544 -0.2297  1.1270
  156SAPE  C31217455   6.694   5.351   8.366  0.0503  0.2738  0.2333
  156SAPE  H12X17456   6.611   5.308   8.425 -0.1348  0.4775  0.1232
  156SAPE  H12Y17457   6.720   5.292   8.275 -0.1075  1.0562 -0.3285
  156SAPE  C31317458   6.662   5.489   8.323 -0.4109 -0.7094  0.2193
  156SAPE  H13X17459   6.648   5.561   8.405 -1.4160 -0.2262 -0.3582
  156SAPE  H13Y17460   6.562   5.492   8.273 -0.0510 -0.2186 -0.4931
  156SAPE  C31417461   6.758   5.546   8.218  0.3050 -0.3216  0.0489
  156SAPE  H14X17462   6.778   5.475   8.135 -0.3234 -1.4203  0.8065
  156SAPE  H14Y17463   6.856   5.576   8.259 -0.7586  4.6302 -0.3809
  156SAPE  C31517464   6.713   5.668   8.143  0.0734 -0.8719  0.1450
  156SAPE  H15X17465   6.718   5.754   8.213  2.7576 -0.8296  0.0127
  156SAPE  H15Y17466   6.606   5.658   8.115  0.3865  0.5504 -1.7828
  156SAPE  C31617467   6.789   5.703   8.016  0.0695  0.0653  0.2637
  156SAPE  H16X17468   6.894   5.726   8.047  1.0605  0.2183 -2.8584
  156SAPE  H16Y17469   6.738   5.789   7.968  0.1840 -0.5698 -1.0421
  156SAPE  C31717470   6.789   5.603   7.907  0.1981 -0.0699  0.4314
  156SAPE  H17X17471   6.686   5.582   7.871  0.5050  0.6913 -0.9796
  156SAPE  H17Y17472   6.824   5.501   7.932  0.1344 -1.4155 -4.0572
  156SAPE  C31817473   6.871   5.650   7.789  0.3738 -0.1954 -0.3242
  156SAPE  H18X17474   6.839   5.755   7.774  1.2654  0.1066 -0.1609
  156SAPE  H18Y17475   6.847   5.604   7.691  0.4743  2.3838 -1.6471
  156SAPE  H18Z17476   6.981   5.643   7.802  0.3214 -1.1638 -0.3277
  157SAPE     N17477   6.190   5.992   9.569 -0.6799  0.1088 -0.3027
  157SAPE   HN117478   6.098   5.944   9.569 -0.7583  0.2439  0.3925
  157SAPE   HN217479   6.266   5.930   9.535 -1.5911  0.1930 -2.6601
  157SAPE   HN317480   6.222   6.030   9.660  0.6297  1.2424 -1.1909
  157SAPE   C1217481   6.184   6.112   9.484 -0.0144 -0.5754  0.3089
  157SAPE  H12A17482   6.097   6.168   9.524 -1.1138 -0.2760 -2.2777
  157SAPE  H12B17483   6.170   6.086   9.377  3.6892  0.0709 -0.4659
  157SAPE   C1117484   6.307   6.193   9.491 -0.1400  0.1448 -0.4773
  157SAPE  H11A17485   6.287   6.289   9.438  0.8620  1.2190  1.0183
  157SAPE  H11B17486   6.394   6.146   9.440  0.6141 -0.4951  1.3362
  157SAPE     P17487   6.428   6.350   9.674  0.0807 -0.1063  0.5233
  157SAPE   O1317488   6.374   6.477   9.625 -0.2977  0.2837 -0.4530
  157SAPE   O1417489   6.454   6.337   9.819 -0.4711 -0.4123 -0.0298
  157SAPE   O1217490   6.341   6.225   9.627  0.4401 -0.0374  0.3764
  157SAPE   O1117491   6.567   6.331   9.608  0.3780  0.5042  0.0567
  157SAPE    C117492   6.648   6.439   9.555  0.2437 -0.2003 -0.0431
  157SAPE    HA17493   6.624   6.534   9.608 -0.6787 -1.2041  1.3935
  157SAPE    HB17494   6.750   6.400   9.570 -0.3038 -1.6092  0.1272
  157SAPE    C217495   6.625   6.457   9.403  0.3061 -0.6432 -0.4467
  157SAPE    HS17496   6.515   6.455   9.387  0.0248  1.3712  0.8601
  157SAPE   O2117497   6.673   6.345   9.331  0.9431 -0.2035 -0.0794
  157SAPE   C2117498   6.592   6.289   9.244  0.3130  0.3962  0.0815
  157SAPE   O2217499   6.471   6.309   9.230 -0.0996  0.5616  0.0669
  157SAPE   C2217500   6.671   6.177   9.184 -0.1329  0.0412  0.5579
  157SAPE   H2R17501   6.744   6.212   9.109  0.5714  1.1217  1.7194
  157SAPE   H2S17502   6.729   6.123   9.262  0.1889 -2.1284 -1.0715
  157SAPE    C317503   6.686   6.589   9.357  0.0245 -0.8238  0.1144
  157SAPE    HX17504   6.796   6.590   9.349  0.0762  0.9728  0.6082
  157SAPE    HY17505   6.668   6.678   9.421 -1.4533  0.0221 -1.3817
  157SAPE   O3117506   6.631   6.627   9.227  0.4121  0.1874  0.5447
  157SAPE   C3117507   6.690   6.571   9.129  0.2203  0.4968  0.1240
  157SAPE   O3217508   6.799   6.513   9.127 -0.0013 -0.3175 -0.7404
  157SAPE   C3217509   6.625   6.603   8.990  1.0345  0.2673  0.2930
  157SAPE   H2X17510   6.626   6.714   8.980  2.4776  0.0511 -4.3649
  157SAPE   H2Y17511   6.517   6.585   9.006  0.4775 -0.2121 -3.2385
  157SAPE   C2317512   6.584   6.082   9.102  0.0185 -0.8127  0.9899
  157SAPE   H3R17513   6.484   6.067   9.148 -0.9840  2.4932  0.1353
  157SAPE   H3S17514   6.641   5.987   9.090 -1.0987 -1.3508 -0.3464
  157SAPE   C2417515   6.549   6.139   8.965 -0.7544  0.3788  0.3782
  157SAPE   H4R17516   6.646   6.173   8.922 -0.2051  1.7818  2.5557
  157SAPE   H4S17517   6.492   6.233   8.974 -0.7350  0.2235  3.0019
  157SAPE   C2517518   6.476   6.038   8.880 -0.4923 -1.0493 -0.5640
  157SAPE   H5R17519   6.454   5.941   8.928  1.8618 -1.2856  0.1674
  157SAPE   C2617520   6.437   6.060   8.755  0.3058  0.0291 -0.0604
  157SAPE   H6R17521   6.386   5.981   8.697 -0.3058 -0.0033  0.5147
  157SAPE   C2717522   6.456   6.191   8.677 -1.1401 -0.0068 -0.5276
  157SAPE   H7R17523   6.502   6.164   8.580 -3.4668  1.1230 -2.0293
  157SAPE   H7S17524   6.518   6.259   8.738 -2.3523  0.4933  0.1985
  157SAPE   C2817525   6.326   6.252   8.662 -0.6205  0.2026 -0.6482
  157SAPE   H8R17526   6.279   6.278   8.758  0.3798  1.1203 -0.3859
  157SAPE   C2917527   6.253   6.244   8.550  0.4232 -0.0402 -0.4458
  157SAPE   H9R17528   6.163   6.306   8.540  0.5249  0.5251  1.6284
  157SAPE  C21017529   6.302   6.180   8.417  1.0181 -0.2957 -0.8170
  157SAPE  H10R17530   6.207   6.180   8.361 -0.7626 -0.1244  2.0033
  157SAPE  H10S17531   6.336   6.075   8.425  0.4395 -0.4038  0.5763
  157SAPE  C21117532   6.397   6.273   8.342 -0.7986  0.2199 -0.0725
  157SAPE  H11R17533   6.374   6.380   8.335 -2.9713 -0.2855 -2.2646
  157SAPE  C21217534   6.509   6.232   8.276  0.5351  0.1998 -0.4052
  157SAPE  H12R17535   6.588   6.299   8.238 -0.4146  1.7841  0.2925
  157SAPE  C21317536   6.563   6.094   8.264  0.2583  0.6818 -0.3243
  157SAPE  H13R17537   6.501   6.015   8.310  1.0574 -0.7006 -1.5306
  157SAPE  H13S17538   6.663   6.082   8.310 -0.0119 -3.1259 -0.4156
  157SAPE  C21417539   6.566   6.051   8.121 -0.0672  0.1599  0.1661
  157SAPE  H14R17540   6.480   5.988   8.093 -1.0410  1.7205 -0.4820
  157SAPE  C21517541   6.663   6.078   8.033  0.1433  0.3287  0.1668
  157SAPE  H15R17542   6.669   6.034   7.933  0.9875  0.0033  0.3474
  157SAPE  C21617543   6.786   6.162   8.050 -0.1856  0.2424  0.2193
  157SAPE  H16R17544   6.818   6.164   8.156 -2.6584 -1.8228  1.1043
  157SAPE  H16S17545   6.768   6.263   8.007 -1.0865 -0.5392 -1.3262
  157SAPE  C21717546   6.911   6.117   7.979 -0.3207 -0.1821  0.5280
  157SAPE  H17R17547   6.919   6.006   7.980 -0.8270 -0.4948 -4.7933
  157SAPE  H17S17548   6.998   6.164   8.029 -0.1927 -0.9214  1.0143
  157SAPE  C21817549   6.916   6.150   7.828 -0.3179  0.2795  0.0855
  157SAPE  H18R17550   6.905   6.258   7.805  1.4898  0.3014 -0.8470
  157SAPE  H18S17551   6.841   6.079   7.785  1.4174 -1.3617 -0.3627
  157SAPE  C21917552   7.051   6.123   7.763  0.1113 -0.0543  0.2448
  157SAPE  H19R17553   7.113   6.204   7.807  1.9704 -0.3708 -1.6519
  157SAPE  H19S17554   7.051   6.133   7.652 -0.3462  0.7532  0.3082
  157SAPE  C22017555   7.112   5.991   7.789  0.1541  0.3118  0.6474
  157SAPE  H20R17556   7.215   5.989   7.747 -0.0365 -0.4894  0.2064
  157SAPE  H20S17557   7.058   5.900   7.756  0.6993  0.7312 -1.6187
  157SAPE  H20T17558   7.127   5.985   7.899  0.5544  2.9047  0.8109
  157SAPE   C3317559   6.686   6.553   8.855 -0.1533 -0.2319 -0.5807
  157SAPE   H3X17560   6.692   6.444   8.837  2.0220 -0.1840 -0.4475
  157SAPE   H3Y17561   6.783   6.600   8.828 -0.8947  0.2351 -2.5950
  157SAPE   C3417562   6.593   6.594   8.737  0.5819 -0.2110 -0.1639
  157SAPE   H4X17563   6.594   6.705   8.733  0.3388 -0.1511  1.0585
  157SAPE   H4Y17564   6.492   6.554   8.764  0.1465  2.0151  1.8848
  157SAPE   C3517565   6.649   6.540   8.601  0.0949  0.2340  0.3727
  157SAPE   H5X17566   6.642   6.429   8.596 -3.1450  0.3539 -3.9053
  157SAPE   H5Y17567   6.752   6.579   8.590  0.8543 -1.9666 -1.1058
  157SAPE   C3617568   6.571   6.585   8.476 -0.1695  0.3877 -0.9407
  157SAPE   H6X17569   6.521   6.682   8.496 -3.5864 -1.3050 -0.4179
  157SAPE   H6Y17570   6.490   6.508   8.481  0.5671 -0.3195  1.6889
  157SAPE   C3717571   6.642   6.565   8.343  0.0696  0.2368  0.2571
  157SAPE   H7X17572   6.701   6.472   8.331  0.1769  0.3313  0.0365
  157SAPE   H7Y17573   6.727   6.635   8.355  1.6566 -1.5409 -0.2828
  157SAPE   C3817574   6.552   6.608   8.224  0.0633  0.6433 -0.0775
  157SAPE   H8X17575   6.506   6.703   8.259 -0.6277 -0.1260  1.1675
  157SAPE   H8Y17576   6.477   6.529   8.203  0.9098 -0.5150  1.1679
  157SAPE   C3917577   6.622   6.644   8.089 -0.0766 -0.0381 -0.3803
  157SAPE   H9X17578   6.544   6.679   8.018  0.2439  0.3864 -0.5272
  157SAPE   H9Y17579   6.662   6.548   8.050  0.2626 -0.2466  0.4738
  157SAPE  C31017580   6.736   6.744   8.095  0.2301  0.2893 -0.4105
  157SAPE  H10X17581   6.824   6.703   8.150 -0.5129  1.4711  1.8119
  157SAPE  H10Y17582   6.710   6.836   8.152 -0.4121 -0.1442  0.0129
  157SAPE  C31117583   6.799   6.775   7.958 -0.7232  0.1063  0.0237
  157SAPE  H11X17584   6.883   6.843   7.985 -1.5399  0.8548  0.7400
  157SAPE  H11Y17585   6.733   6.821   7.881 -1.0242 -0.2766  0.0506
  157SAPE  C31217586   6.858   6.642   7.899  0.4726  0.1706 -0.2944
  157SAPE  H12X17587   6.777   6.583   7.851  1.0633 -0.2072 -0.8420
  157SAPE  H12Y17588   6.915   6.589   7.978 -0.6870 -0.2996  0.2557
  157SAPE  C31317589   6.946   6.666   7.777  0.0609  0.4287  0.2226
  157SAPE  H13X17590   6.888   6.734   7.711  0.7782  1.0569  0.2140
  157SAPE  H13Y17591   6.969   6.570   7.727 -2.2994 -1.4375  2.4713
  157SAPE  C31417592   7.070   6.744   7.810 -0.8656 -0.4449  0.3301
  157SAPE  H14X17593   7.118   6.676   7.884 -0.4584 -0.7114 -0.1774
  157SAPE  H14Y17594   7.050   6.849   7.841  0.1585 -0.2567  0.3778
  157SAPE  C31517595   7.154   6.750   7.681 -0.3587  0.8401  0.1143
  157SAPE  H15X17596   7.249   6.802   7.707 -0.5432  0.5085  1.5946
  157SAPE  H15Y17597   7.097   6.802   7.602 -0.5010 -1.1996 -1.2132
  157SAPE  C31617598   7.195   6.609   7.621 -0.7301 -0.1713  0.1951
  157SAPE  H16X17599   7.108   6.583   7.557  1.3633 -0.3434 -2.8453
  157SAPE  H16Y17600   7.217   6.533   7.699  0.1662  2.9540  3.2316
  157SAPE  C31717601   7.319   6.626   7.521  0.1896 -0.0047 -0.0856
  157SAPE  H17X17602   7.405   6.677   7.570 -0.0098  0.1433  0.1113
  157SAPE  H17Y17603   7.288   6.680   7.429 -0.8456 -0.2057  0.1387
  157SAPE  C31817604   7.370   6.484   7.485 -0.3430 -0.6048  0.1950
  157SAPE  H18X17605   7.390   6.419   7.573  0.7638  0.2561  0.5959
  157SAPE  H18Y17606   7.456   6.491   7.416 -1.4834  0.3134 -1.2095
  157SAPE  H18Z17607   7.290   6.438   7.422  0.3084 -0.5525 -0.6811
  158SAPE     N17608   7.012   6.156   9.387  0.3372 -0.2097 -0.0296
  158SAPE   HN117609   6.917   6.193   9.405 -0.0116 -0.8107 -0.6101
  158SAPE   HN217610   7.064   6.224   9.329 -0.9481  0.4257 -0.4676
  158SAPE   HN317611   6.998   6.070   9.330  0.2117 -1.0228  1.1905
  158SAPE   C1217612   7.086   6.127   9.519  0.4006  1.0767  0.0526
  158SAPE  H12A17613   7.161   6.050   9.493 -0.8680  0.6587 -2.6307
  158SAPE  H12B17614   7.010   6.073   9.581 -0.6587  0.1738 -1.9450
  158SAPE   C1117615   7.133   6.251   9.592 -0.1698  0.0221  0.4185
  158SAPE  H11A17616   7.185   6.314   9.516 -0.0983  0.0334  0.4775
  158SAPE  H11B17617   7.198   6.221   9.677 -1.5729  0.1060  1.5489
  158SAPE     P17618   7.038   6.450   9.718 -0.1146  0.2755  0.6126
  158SAPE   O1317619   6.910   6.510   9.757  0.5550  0.5833  0.5804
  158SAPE   O1417620   7.141   6.422   9.820 -0.2160  0.5049  0.0099
  158SAPE   O1217621   7.013   6.324   9.636 -0.0954  0.0479  0.3897
  158SAPE   O1117622   7.099   6.554   9.616  0.0513 -0.2135  0.0427
  158SAPE    C117623   7.025   6.589   9.497  0.0793 -0.6334 -0.4237
  158SAPE    HA17624   7.005   6.510   9.422 -1.2976  1.4224 -2.3465
  158SAPE    HB17625   6.933   6.640   9.535  2.4211  2.0632  2.1376
  158SAPE    C217626   7.104   6.703   9.424 -0.3790 -0.1023 -0.3529
  158SAPE    HS17627   7.144   6.763   9.508 -1.3247 -1.3593  1.0280
  158SAPE   O2117628   7.015   6.781   9.349  0.3180  0.0778  0.3005
  158SAPE   C2117629   7.066   6.891   9.296  0.5880 -0.0371 -0.1719
  158SAPE   O2217630   7.166   6.949   9.337  0.0771 -0.0768  0.2440
  158SAPE   C2217631   6.984   6.925   9.172  0.1723 -0.7805  0.8078
  158SAPE   H2R17632   6.924   6.839   9.134 -1.2190  0.3914  0.2708
  158SAPE   H2S17633   6.905   6.990   9.213 -1.1515 -1.0958 -1.1199
  158SAPE    C317634   7.218   6.625   9.346  0.2811 -0.4405  0.2440
  158SAPE    HX17635   7.246   6.543   9.417 -1.1049  0.5569  2.0503
  158SAPE    HY17636   7.292   6.707   9.332  1.4261 -0.7894  3.4074
  158SAPE   O3117637   7.168   6.584   9.218 -0.4914 -0.0675 -0.0203
  158SAPE   C3117638   7.143   6.461   9.196  0.3381 -0.0184 -0.1261
  158SAPE   O3217639   7.142   6.368   9.275  0.3809 -0.1839 -0.3348
  158SAPE   C3217640   7.113   6.441   9.044 -0.3519 -0.6651  0.2860
  158SAPE   H2X17641   7.084   6.542   9.008  2.1923  0.4088  1.0344
  158SAPE   H2Y17642   7.023   6.377   9.027 -0.4478  0.0419 -2.4957
  158SAPE   C2317643   7.057   7.002   9.059  0.2854 -0.4652  0.3347
  158SAPE   H3R17644   7.112   7.086   9.106 -1.1834  0.6615  0.1010
  158SAPE   H3S17645   6.983   7.041   8.987  1.8911 -2.9772 -2.9498
  158SAPE   C2417646   7.149   6.909   8.980  0.2324  0.2239 -0.1051
  158SAPE   H4R17647   7.203   6.842   9.051 -2.0039 -0.8777  0.6879
  158SAPE   H4S17648   7.222   6.972   8.925  1.6142 -4.0278 -3.7211
  158SAPE   C2517649   7.077   6.808   8.892 -0.0822 -0.4119  0.2715
  158SAPE   H5R17650   7.008   6.742   8.946 -0.5192  0.3639  0.6869
  158SAPE   C2617651   7.083   6.806   8.754 -0.5749  0.1955 -0.2097
  158SAPE   H6R17652   7.014   6.740   8.699 -0.4156 -0.0527 -0.1088
  158SAPE   C2717653   7.180   6.887   8.671 -0.2343 -0.2571 -0.5505
  158SAPE   H7R17654   7.182   6.988   8.717  1.1737 -1.0834  1.3397
  158SAPE   H7S17655   7.124   6.894   8.575 -0.0004 -3.7388 -1.0508
  158SAPE   C2817656   7.320   6.834   8.670 -0.4415  0.6469  0.3303
  158SAPE   H8R17657   7.336   6.759   8.749  1.5036  1.5708  0.8761
  158SAPE   C2917658   7.422   6.871   8.591  0.5126  0.3916 -0.0106
  158SAPE   H9R17659   7.515   6.814   8.577  0.0845 -0.1982 -0.5105
  158SAPE  C21017660   7.393   6.982   8.494  0.3329 -0.1031 -0.3047
  158SAPE  H10R17661   7.474   7.058   8.490 -0.5421  0.8185 -1.1045
  158SAPE  H10S17662   7.314   7.054   8.522  1.0380  1.1914 -1.5438
  158SAPE  C21117663   7.358   6.920   8.361 -0.7335  0.7756  0.4921
  158SAPE  H11R17664   7.249   6.911   8.346 -0.7854  1.9071  0.1650
  158SAPE  C21217665   7.439   6.875   8.263  0.2942  0.6133 -0.4340
  158SAPE  H12R17666   7.393   6.835   8.171  1.8430  2.1944 -1.9763
  158SAPE  C21317667   7.589   6.878   8.278 -0.5922 -0.5731  0.9282
  158SAPE  H13R17668   7.629   6.777   8.252  1.5185  0.5873 -0.6725
  158SAPE  H13S17669   7.626   6.893   8.381  0.0525 -0.0930  0.6414
  158SAPE  C21417670   7.641   6.983   8.180 -0.1888  0.1056  0.4491
  158SAPE  H14R17671   7.566   7.041   8.125  1.1630  1.6644  0.1855
  158SAPE  C21517672   7.767   7.008   8.143 -0.2261  0.3356 -0.0227
  158SAPE  H15R17673   7.791   7.078   8.062  0.1334 -2.2421 -2.3095
  158SAPE  C21617674   7.891   6.931   8.191  0.2366 -0.3679 -0.4880
  158SAPE  H16R17675   7.928   6.873   8.104 -0.1857 -1.7061  0.1942
  158SAPE  H16S17676   7.866   6.856   8.269 -1.5888  1.5691  0.9241
  158SAPE  C21717677   8.000   7.031   8.246 -0.2855  0.0861 -0.0115
  158SAPE  H17R17678   8.098   6.980   8.251 -0.3201 -0.0509 -0.5842
  158SAPE  H17S17679   7.976   7.064   8.349 -1.5150  0.9140 -0.5373
  158SAPE  C21817680   8.038   7.155   8.164 -0.3305 -0.2534 -0.3368
  158SAPE  H18R17681   7.947   7.219   8.166 -0.1510  0.0487 -1.1800
  158SAPE  H18S17682   8.062   7.148   8.055  0.7227  1.0011 -0.2211
  158SAPE  C21917683   8.153   7.226   8.226  1.1294  0.1084  1.1957
  158SAPE  H19R17684   8.152   7.216   8.336 -0.1317 -1.0091  1.1067
  158SAPE  H19S17685   8.129   7.332   8.203  1.6107  0.5569  2.6511
  158SAPE  C22017686   8.292   7.186   8.168 -0.5423  0.2487 -0.4124
  158SAPE  H20R17687   8.309   7.081   8.200 -3.6071 -0.1766  0.1351
  158SAPE  H20S17688   8.363   7.260   8.212  1.3104 -1.1613 -0.8971
  158SAPE  H20T17689   8.298   7.205   8.059 -1.8586  2.1543 -0.2099
  158SAPE   C3317690   7.226   6.364   8.972 -0.1684 -0.4150  0.2161
  158SAPE   H3X17691   7.224   6.257   9.002  0.1197 -0.8893 -1.3715
  158SAPE   H3Y17692   7.327   6.391   9.008  0.0285 -0.2516 -0.4330
  158SAPE   C3417693   7.205   6.374   8.822  0.1863  0.0487 -0.3955
  158SAPE   H4X17694   7.292   6.321   8.777 -0.2316 -1.7998  0.8979
  158SAPE   H4Y17695   7.231   6.481   8.807  1.2447  0.1612  1.8673
  158SAPE   C3517696   7.071   6.330   8.768  0.0690  0.0130 -0.2187
  158SAPE   H5X17697   6.982   6.384   8.805  0.3577  1.5995 -1.7028
  158SAPE   H5Y17698   7.056   6.223   8.794 -1.4035  1.0094  3.6421
  158SAPE   C3617699   7.070   6.340   8.615  0.2463  0.3945  0.1954
  158SAPE   H6X17700   6.978   6.294   8.574 -1.8646  2.4226  2.3439
  158SAPE   H6Y17701   7.155   6.287   8.566 -0.9326 -1.4656  0.0953
  158SAPE   C3717702   7.069   6.486   8.566  0.2932  0.3869 -1.2473
  158SAPE   H7X17703   7.161   6.540   8.597  0.1098 -0.9368  2.0889
  158SAPE   H7Y17704   6.984   6.530   8.621 -0.0934 -1.4065 -0.3054
  158SAPE   C3817705   7.054   6.504   8.415 -0.3365 -0.0607 -0.0851
  158SAPE   H8X17706   7.032   6.608   8.385  1.3248  0.3784  0.1299
  158SAPE   H8Y17707   6.969   6.448   8.370 -0.2497 -0.8380  0.6818
  158SAPE   C3917708   7.177   6.446   8.339 -0.4056 -0.6363 -0.2907
  158SAPE   H9X17709   7.173   6.335   8.342 -2.0355 -0.6258 -1.0753
  158SAPE   H9Y17710   7.274   6.485   8.378 -0.5066  0.4435 -1.0820
  158SAPE  C31017711   7.184   6.483   8.187 -0.5466 -0.3984  0.3736
  158SAPE  H10X17712   7.218   6.588   8.171  1.8214 -1.5424 -3.5414
  158SAPE  H10Y17713   7.081   6.471   8.148 -0.0015  0.2456 -1.3243
  158SAPE  C31117714   7.285   6.386   8.116  0.0132  0.1608 -0.6376
  158SAPE  H11X17715   7.252   6.280   8.123  1.6516 -0.2800  1.5573
  158SAPE  H11Y17716   7.386   6.384   8.162 -1.0803  0.6501  1.9500
  158SAPE  C31217717   7.314   6.396   7.968 -0.8449  0.4182  0.4197
  158SAPE  H12X17718   7.225   6.386   7.902 -0.5551 -1.1150  0.2248
  158SAPE  H12Y17719   7.381   6.312   7.939 -1.4481 -0.0333  0.3150
  158SAPE  C31317720   7.398   6.530   7.931 -0.1727  0.2728  0.5167
  158SAPE  H13X17721   7.332   6.618   7.949 -0.5645  0.0685  0.0930
  158SAPE  H13Y17722   7.424   6.524   7.823  0.7170 -2.9705  0.8266
  158SAPE  C31417723   7.517   6.556   8.020  0.3454  0.2449 -0.4717
  158SAPE  H14X17724   7.562   6.456   8.037  0.3316  0.2099 -0.6455
  158SAPE  H14Y17725   7.484   6.584   8.123  1.9070 -2.0667  0.7534
  158SAPE  C31517726   7.620   6.643   7.959  0.2264  0.1887  0.8772
  158SAPE  H15X17727   7.656   6.582   7.873  1.2321 -0.5711  1.8121
  158SAPE  H15Y17728   7.708   6.650   8.025  1.1306 -5.2634  0.7021
  158SAPE  C31617729   7.575   6.779   7.904  0.0737 -0.4054 -0.0451
  158SAPE  H16X17730   7.532   6.841   7.985  1.6141  0.2485  0.3173
  158SAPE  H16Y17731   7.492   6.757   7.834 -0.5144  0.0471  0.4967
  158SAPE  C31717732   7.678   6.850   7.821  0.1483  0.1936  0.2835
  158SAPE  H17X17733   7.692   6.781   7.735  0.5025  0.6288 -0.0188
  158SAPE  H17Y17734   7.771   6.842   7.881  1.4757 -3.3878 -1.9220
  158SAPE  C31817735   7.617   6.983   7.780  0.4672  0.3735 -0.2748
  158SAPE  H18X17736   7.675   7.031   7.698 -0.4027 -0.6410 -1.5214
  158SAPE  H18Y17737   7.612   7.055   7.864 -1.1901  0.3991 -0.3697
  158SAPE  H18Z17738   7.518   6.969   7.732 -0.0417  0.9443  0.5969
  159SAPE     N17739   3.545   2.424   5.470  0.2724 -0.0108  0.2560
  159SAPE   HN117740   3.601   2.392   5.552  0.6036  0.6443  0.2918
  159SAPE   HN217741   3.465   2.471   5.517 -0.3085 -1.4941  0.8296
  159SAPE   HN317742   3.502   2.340   5.426  0.7652  0.3872 -1.0367
  159SAPE   C1217743   3.633   2.508   5.389  0.4622 -1.1856 -0.5552
  159SAPE  H12A17744   3.568   2.571   5.325 -0.5657 -3.7372 -2.2145
  159SAPE  H12B17745   3.687   2.445   5.315  0.7778  0.3175 -1.6565
  159SAPE   C1117746   3.715   2.594   5.488  0.4392  0.0330 -0.4440
  159SAPE  H11A17747   3.797   2.637   5.427  0.6889 -1.4147 -1.1702
  159SAPE  H11B17748   3.759   2.533   5.570  1.4852  1.4811  0.1107
  159SAPE     P17749   3.629   2.841   5.495 -0.4583  0.1682 -0.0907
  159SAPE   O1317750   3.653   2.824   5.353  0.1365 -0.1784 -0.0391
  159SAPE   O1417751   3.497   2.900   5.530 -0.6358 -0.0324 -0.3135
  159SAPE   O1217752   3.646   2.698   5.553 -0.4433 -0.3267  0.0006
  159SAPE   O1117753   3.746   2.915   5.564 -0.0574 -0.4942  0.4487
  159SAPE    C117754   3.869   2.877   5.625 -0.1369 -0.6327 -0.1781
  159SAPE    HA17755   3.882   2.768   5.609 -0.4184 -0.7057  0.0944
  159SAPE    HB17756   3.959   2.926   5.581  1.0928 -1.9912  0.7515
  159SAPE    C217757   3.867   2.918   5.780 -0.0482 -0.1639 -0.2854
  159SAPE    HS17758   3.963   2.885   5.825  0.7830  1.1146 -1.0544
  159SAPE   O2117759   3.755   2.866   5.849  0.1791 -0.1579  0.5104
  159SAPE   C2117760   3.756   2.730   5.861 -0.2808  0.4117 -0.3757
  159SAPE   O2217761   3.851   2.658   5.846  0.2374 -0.2630 -0.8238
  159SAPE   C2217762   3.618   2.688   5.904  0.0834 -0.2874 -0.0190
  159SAPE   H2R17763   3.561   2.769   5.955 -1.1800 -1.8020  1.0960
  159SAPE   H2S17764   3.568   2.658   5.810 -0.9204  0.5827  0.2256
  159SAPE    C317765   3.869   3.073   5.785 -0.2260 -0.2732 -0.1533
  159SAPE    HX17766   3.804   3.120   5.709 -2.3792 -0.7599  1.2878
  159SAPE    HY17767   3.975   3.096   5.759  0.2616 -2.3174 -0.1747
  159SAPE   O3117768   3.849   3.126   5.918  0.4109 -0.0883  0.6085
  159SAPE   C3117769   3.720   3.161   5.951 -0.1900  0.0044  0.0679
  159SAPE   O3217770   3.637   3.195   5.872 -0.2556  0.2306 -0.1298
  159SAPE   C3217771   3.704   3.133   6.100 -0.0453  0.5761  0.0321
  159SAPE   H2X17772   3.771   3.047   6.126  1.2606  1.4951 -0.2007
  159SAPE   H2Y17773   3.599   3.098   6.112  0.4706 -0.8651  0.5768
  159SAPE   C2317774   3.621   2.577   6.012 -0.5615 -0.1495  0.1683
  159SAPE   H3R17775   3.667   2.486   5.967 -0.6421 -1.6273  2.8578
  159SAPE   H3S17776   3.522   2.529   6.025 -0.8245 -0.3215 -2.0771
  159SAPE   C2417777   3.674   2.615   6.154 -0.4145 -0.2985 -0.3549
  159SAPE   H4R17778   3.784   2.626   6.152 -0.2647 -1.5268 -0.1189
  159SAPE   H4S17779   3.656   2.524   6.216 -0.7560 -1.3484 -1.9339
  159SAPE   C2517780   3.624   2.732   6.228  0.4164  0.3941  0.1900
  159SAPE   H5R17781   3.613   2.823   6.167 -2.6412 -0.6209 -0.9706
  159SAPE   C2617782   3.586   2.739   6.357 -0.2480  0.3690 -0.6803
  159SAPE   H6R17783   3.546   2.834   6.396  1.8712  0.8525  0.4749
  159SAPE   C2717784   3.601   2.627   6.470  0.0665 -0.6073  0.5925
  159SAPE   H7R17785   3.685   2.668   6.529  1.7557 -3.0233 -0.0010
  159SAPE   H7S17786   3.637   2.533   6.424  0.7694  0.0818 -0.3193
  159SAPE   C2817787   3.479   2.611   6.549 -0.1061  0.5497 -0.3159
  159SAPE   H8R17788   3.383   2.600   6.496 -0.2687  1.0222 -0.1209
  159SAPE   C2917789   3.491   2.594   6.680  0.5385 -0.0431 -0.2010
  159SAPE   H9R17790   3.394   2.598   6.732  0.9783  1.8825  0.5778
  159SAPE  C21017791   3.615   2.602   6.768  0.1710  0.2351 -0.0110
  159SAPE  H10R17792   3.650   2.706   6.785 -1.7794  0.5171  3.2142
  159SAPE  H10S17793   3.701   2.551   6.720 -0.0230 -1.2779  1.1546
  159SAPE  C21117794   3.590   2.541   6.906 -0.3338  0.0431  0.3321
  159SAPE  H11R17795   3.555   2.437   6.904  0.3480 -0.2635  2.1623
  159SAPE  C21217796   3.609   2.591   7.028 -0.2410 -0.5332 -0.4784
  159SAPE  H12R17797   3.592   2.526   7.115  1.6075 -1.4460 -0.7477
  159SAPE  C21317798   3.651   2.727   7.064  1.0961  0.9677 -1.1202
  159SAPE  H13R17799   3.647   2.804   6.984  0.4290  1.1336 -0.9252
  159SAPE  H13S17800   3.754   2.730   7.106  0.8273 -1.0576 -0.1703
  159SAPE  C21417801   3.567   2.792   7.176  0.1080  0.0775  0.5715
  159SAPE  H14R17802   3.518   2.881   7.134  1.1004  1.0737  1.4473
  159SAPE  C21517803   3.546   2.757   7.302  0.1212  0.1973 -0.1549
  159SAPE  H15R17804   3.478   2.817   7.364  1.3006  0.1701  1.2318
  159SAPE  C21617805   3.616   2.636   7.369  0.4138 -0.7653 -0.0211
  159SAPE  H16R17806   3.674   2.579   7.294  0.3103  0.6891 -1.2636
  159SAPE  H16S17807   3.545   2.567   7.419  0.8370  0.2716  2.1237
  159SAPE  C21717808   3.708   2.677   7.484 -0.7032  0.0115  0.1071
  159SAPE  H17R17809   3.649   2.710   7.572 -1.8601  1.2211 -1.0588
  159SAPE  H17S17810   3.775   2.760   7.453 -2.4752  1.7429  0.7115
  159SAPE  C21817811   3.797   2.559   7.540 -0.3805  0.1800  0.1783
  159SAPE  H18R17812   3.860   2.527   7.454 -1.5847 -1.8150 -0.0128
  159SAPE  H18S17813   3.723   2.482   7.568  1.2938 -2.0730 -1.2653
  159SAPE  C21917814   3.886   2.610   7.664  0.4355 -0.5280  0.1511
  159SAPE  H19R17815   3.909   2.521   7.726 -2.7555 -0.7009  1.3177
  159SAPE  H19S17816   3.819   2.667   7.733  0.2821 -0.4778 -0.0362
  159SAPE  C22017817   4.009   2.694   7.619 -0.6190 -0.5173 -0.2765
  159SAPE  H20R17818   4.069   2.736   7.703 -0.3275 -0.4974 -0.4944
  159SAPE  H20S17819   3.965   2.774   7.555  2.7803  0.2371 -1.8539
  159SAPE  H20T17820   4.078   2.634   7.557  0.3440  0.3379 -0.0592
  159SAPE   C3317821   3.721   3.248   6.196 -0.1527  1.1867  0.1139
  159SAPE   H3X17822   3.627   3.308   6.196 -0.6228  0.5235 -1.6998
  159SAPE   H3Y17823   3.799   3.321   6.166  1.8485 -1.3804 -1.3483
  159SAPE   C3417824   3.747   3.206   6.339 -0.0851 -0.5737 -0.3608
  159SAPE   H4X17825   3.764   3.295   6.402  1.4822 -0.9372 -0.2435
  159SAPE   H4Y17826   3.840   3.147   6.353  1.0841  1.4147  0.6255
  159SAPE   C3517827   3.628   3.138   6.411 -0.4103  0.1247 -0.1185
  159SAPE   H5X17828   3.565   3.079   6.341 -2.5210  3.4922 -1.3711
  159SAPE   H5Y17829   3.550   3.210   6.446 -1.4766 -1.8411  1.7855
  159SAPE   C3617830   3.662   3.062   6.538 -0.4425  0.0614  0.4579
  159SAPE   H6X17831   3.734   2.981   6.516 -1.8711 -1.1784  0.2337
  159SAPE   H6Y17832   3.571   3.021   6.587 -1.1555  0.5838 -0.3887
  159SAPE   C3717833   3.712   3.164   6.647 -0.0792  0.0650  0.8811
  159SAPE   H7X17834   3.635   3.243   6.647  0.4578  0.6148  2.0551
  159SAPE   H7Y17835   3.808   3.209   6.614 -0.7775 -0.5420 -2.3620
  159SAPE   C3817836   3.724   3.106   6.785  0.4393  0.4264 -0.2267
  159SAPE   H8X17837   3.829   3.074   6.800  0.2931  0.4906  0.9813
  159SAPE   H8Y17838   3.658   3.017   6.794  1.1174 -0.2962 -1.9250
  159SAPE   C3917839   3.691   3.191   6.911 -0.1065 -0.6585  0.3144
  159SAPE   H9X17840   3.592   3.241   6.909  0.4075  0.4721 -2.5616
  159SAPE   H9Y17841   3.767   3.271   6.923  0.4818 -1.2550  0.6249
  159SAPE  C31017842   3.708   3.110   7.043 -0.7330 -0.1357 -1.3796
  159SAPE  H10X17843   3.704   3.002   7.021 -1.1178 -0.4127 -0.0680
  159SAPE  H10Y17844   3.611   3.132   7.095 -0.1747  0.3961 -0.5285
  159SAPE  C31117845   3.812   3.154   7.149 -0.0502 -0.3589  0.0391
  159SAPE  H11X17846   3.793   3.257   7.186  1.5423 -1.0250  3.0639
  159SAPE  H11Y17847   3.909   3.153   7.094 -0.1351 -0.5511 -0.1078
  159SAPE  C31217848   3.826   3.065   7.272  0.3578  0.2527  0.0648
  159SAPE  H12X17849   3.845   2.959   7.244  1.7388 -0.3554  2.9536
  159SAPE  H12Y17850   3.731   3.048   7.325  0.6708  1.0187  0.9076
  159SAPE  C31317851   3.925   3.125   7.366  0.3977  0.1264 -0.5434
  159SAPE  H13X17852   3.912   3.234   7.374  0.9523  0.1323  0.3416
  159SAPE  H13Y17853   4.023   3.110   7.315  0.1929  1.9140 -1.5427
  159SAPE  C31417854   3.933   3.076   7.509  0.2269  0.0072  0.3325
  159SAPE  H14X17855   3.931   2.965   7.502  0.6105  0.0209 -0.0482
  159SAPE  H14Y17856   3.839   3.103   7.563 -0.5668  1.3056 -1.5744
  159SAPE  C31517857   4.058   3.137   7.580  0.0677  0.0301 -0.3494
  159SAPE  H15X17858   4.148   3.099   7.528  1.2793  0.5468  1.2742
  159SAPE  H15Y17859   4.050   3.106   7.686  0.3078 -0.5316 -0.4951
  159SAPE  C31617860   4.050   3.290   7.588 -1.2444 -0.1309  0.0241
  159SAPE  H16X17861   3.963   3.320   7.650  0.6249  1.2094  2.1593
  159SAPE  H16Y17862   4.040   3.341   7.490  0.3740 -1.5414 -0.9321
  159SAPE  C31717863   4.177   3.352   7.657  0.0562 -0.4909  0.5259
  159SAPE  H17X17864   4.265   3.347   7.589 -0.1543  0.4057  0.1742
  159SAPE  H17Y17865   4.204   3.293   7.747  0.6964  0.5219  1.0129
  159SAPE  C31817866   4.154   3.496   7.701  0.8249 -0.4333  0.0867
  159SAPE  H18X17867   4.060   3.490   7.760 -0.1151 -2.3428 -1.4903
  159SAPE  H18Y17868   4.145   3.566   7.615 -0.8383 -1.3523 -0.5392
  159SAPE  H18Z17869   4.242   3.536   7.756  0.7806  0.0075 -0.1598
  160SAPE     N17870   2.750   3.971   5.392 -0.2809 -0.6739 -0.4462
  160SAPE   HN117871   2.758   4.074   5.401  0.7201 -0.5242 -2.5134
  160SAPE   HN217872   2.746   3.928   5.487  1.1510  0.5589  0.2251
  160SAPE   HN317873   2.844   3.948   5.354 -0.3791 -2.8298  0.4771
  160SAPE   C1217874   2.638   3.934   5.299  0.1559  0.0697  0.1949
  160SAPE  H12A17875   2.667   3.844   5.242 -0.8822 -0.0527 -0.1547
  160SAPE  H12B17876   2.614   4.021   5.234 -1.5191 -0.2164  0.3986
  160SAPE   C1117877   2.508   3.915   5.375  0.6256  0.1827 -0.0488
  160SAPE  H11A17878   2.428   3.885   5.304 -0.3628  0.1063  1.0607
  160SAPE  H11B17879   2.466   4.009   5.418  0.1959  0.7133 -1.5677
  160SAPE     P17880   2.507   3.660   5.476  0.1824 -0.4090  0.1352
  160SAPE   O1317881   2.425   3.628   5.358 -0.1229 -0.1611  0.6650
  160SAPE   O1417882   2.639   3.603   5.478  0.5765 -0.0373 -0.1502
  160SAPE   O1217883   2.531   3.823   5.479  0.1081  0.3850 -0.0128
  160SAPE   O1117884   2.442   3.631   5.617 -0.2624 -0.4628  0.1637
  160SAPE    C117885   2.467   3.515   5.696  0.4003  0.2460 -0.5486
  160SAPE    HA17886   2.369   3.463   5.704  0.6524 -0.1219  0.1783
  160SAPE    HB17887   2.537   3.440   5.654 -1.4289 -1.2790 -1.0420
  160SAPE    C217888   2.525   3.548   5.840  0.5215  0.1418  0.6141
  160SAPE    HS17889   2.558   3.452   5.886 -0.6891 -0.8955 -0.6110
  160SAPE   O2117890   2.430   3.627   5.915  0.8693  0.4932 -0.0307
  160SAPE   C2117891   2.355   3.554   5.994 -0.4932 -0.1419 -0.2418
  160SAPE   O2217892   2.373   3.437   6.030 -0.5336 -0.2157 -0.1140
  160SAPE   C2217893   2.239   3.642   6.041 -0.0674  0.1896 -0.4828
  160SAPE   H2R17894   2.248   3.746   6.001  1.5779  0.2919  0.0872
  160SAPE   H2S17895   2.143   3.597   6.009 -0.9957  2.0693 -0.5097
  160SAPE    C317896   2.657   3.628   5.829  0.1574 -0.1234 -0.3944
  160SAPE    HX17897   2.633   3.722   5.776 -0.3017 -0.6695 -1.1915
  160SAPE    HY17898   2.719   3.567   5.759 -1.0463 -1.9215  0.0229
  160SAPE   O3117899   2.713   3.654   5.962  0.0372  0.2499 -0.0254
  160SAPE   C3117900   2.841   3.639   5.977  0.0075 -0.0472  0.9316
  160SAPE   O3217901   2.921   3.633   5.886 -0.0862 -0.0149  0.3109
  160SAPE   C3217902   2.884   3.654   6.122 -0.4722  0.3351  0.2691
  160SAPE   H2X17903   2.994   3.672   6.122 -0.2881 -0.6983 -0.4061
  160SAPE   H2Y17904   2.868   3.563   6.183 -1.2408 -0.0799 -0.5410
  160SAPE   C2317905   2.245   3.650   6.204 -0.4327 -0.0330  0.6609
  160SAPE   H3R17906   2.253   3.548   6.249 -3.1602 -2.3165 -3.3638
  160SAPE   H3S17907   2.148   3.682   6.249  0.3884  0.7747  1.8909
  160SAPE   C2417908   2.345   3.742   6.253 -0.1460  0.0333  0.4940
  160SAPE   H4R17909   2.440   3.719   6.199  0.6368  1.5997  1.1356
  160SAPE   H4S17910   2.359   3.711   6.359  2.4130  1.5260  0.6805
  160SAPE   C2517911   2.309   3.889   6.242 -0.3760 -0.6834  0.5230
  160SAPE   H5R17912   2.262   3.915   6.146 -2.5349  0.6128  1.8570
  160SAPE   C2617913   2.322   3.994   6.326  0.2487  0.1694  0.6262
  160SAPE   H6R17914   2.273   4.088   6.295  1.2998  0.2030 -1.1089
  160SAPE   C2717915   2.389   3.987   6.458 -0.0506  0.3506 -0.4945
  160SAPE   H7R17916   2.408   4.090   6.493 -1.4606  0.3628  0.3110
  160SAPE   H7S17917   2.481   3.926   6.473 -1.8480 -2.4857 -0.1498
  160SAPE   C2817918   2.294   3.918   6.558  0.2570 -0.1467  0.2246
  160SAPE   H8R17919   2.188   3.919   6.531  0.4734 -2.4779 -0.9221
  160SAPE   C2917920   2.335   3.885   6.682  0.3451  0.5481 -0.3114
  160SAPE   H9R17921   2.256   3.850   6.749 -0.4984 -0.4103 -1.7617
  160SAPE  C21017922   2.474   3.902   6.734  0.2824  0.1016 -0.5685
  160SAPE  H10R17923   2.555   3.869   6.665  0.0027  1.0138 -1.3468
  160SAPE  H10S17924   2.493   3.821   6.808 -1.6164 -0.6946 -0.8981
  160SAPE  C21117925   2.509   4.038   6.794  0.2682 -0.1778 -0.3811
  160SAPE  H11R17926   2.579   4.087   6.725  1.5939 -0.7708  0.4758
  160SAPE  C21217927   2.477   4.094   6.914 -0.1886 -0.7091 -0.1999
  160SAPE  H12R17928   2.518   4.195   6.929 -0.9056 -0.5067  0.5133
  160SAPE  C21317929   2.391   4.032   7.026  0.3787 -0.0026  0.6440
  160SAPE  H13R17930   2.451   3.974   7.099  0.3378 -0.1931  0.5271
  160SAPE  H13S17931   2.322   3.962   6.974 -1.4036  0.3453  2.4489
  160SAPE  C21417932   2.305   4.125   7.107 -0.0791 -0.7308  0.2121
  160SAPE  H14R17933   2.271   4.213   7.051 -3.0105 -2.0908 -0.3397
  160SAPE  C21517934   2.276   4.130   7.238  1.2644  0.5532  0.1958
  160SAPE  H15R17935   2.192   4.192   7.274  2.2505  1.4737  0.9565
  160SAPE  C21617936   2.332   4.040   7.347  0.4124  0.7272  0.0084
  160SAPE  H16R17937   2.396   4.092   7.422  0.9873 -2.6170  2.0395
  160SAPE  H16S17938   2.414   3.976   7.308  1.6511  2.5371 -0.5320
  160SAPE  C21717939   2.225   3.957   7.425 -1.0238  0.0824 -0.2003
  160SAPE  H17R17940   2.274   3.881   7.489  0.0383  0.2748 -0.7578
  160SAPE  H17S17941   2.161   3.908   7.349 -0.3131  1.2243 -1.5852
  160SAPE  C21817942   2.134   4.043   7.515 -0.2384  0.3864  0.2587
  160SAPE  H18R17943   2.058   4.085   7.446 -1.4009 -0.5042  0.9555
  160SAPE  H18S17944   2.186   4.130   7.562  0.3449  0.4282 -0.4600
  160SAPE  C21917945   2.058   3.958   7.615 -0.1775  0.1909  0.2281
  160SAPE  H19R17946   2.129   3.906   7.682  2.8522 -0.7655 -3.4363
  160SAPE  H19S17947   2.017   3.879   7.548 -1.3365 -0.2724  1.4332
  160SAPE  C22017948   1.945   4.041   7.681 -0.5155 -0.5479 -0.5552
  160SAPE  H20R17949   1.990   4.119   7.747  0.1934 -0.1684 -1.4597
  160SAPE  H20S17950   1.883   3.968   7.737  0.2063 -1.2513 -0.6591
  160SAPE  H20T17951   1.881   4.096   7.609 -0.5618 -2.1782 -1.8186
  160SAPE   C3317952   2.816   3.774   6.196  0.2640 -0.0964 -0.1600
  160SAPE   H3X17953   2.706   3.767   6.183  0.0401  1.8031  0.4020
  160SAPE   H3Y17954   2.869   3.868   6.169  0.8338 -0.4937 -0.4550
  160SAPE   C3417955   2.833   3.765   6.346 -0.0204  0.0818 -0.6690
  160SAPE   H4X17956   2.770   3.678   6.375 -0.1240  0.0605 -0.9477
  160SAPE   H4Y17957   2.794   3.853   6.402  0.5101 -0.1634  0.0994
  160SAPE   C3517958   2.980   3.763   6.395  0.0137 -0.0544  0.1105
  160SAPE   H5X17959   3.033   3.849   6.349  1.6284 -0.6883  0.7257
  160SAPE   H5Y17960   3.036   3.668   6.382  1.3169  0.8625 -1.2854
  160SAPE   C3617961   2.974   3.780   6.548  0.1419 -0.4081 -0.3492
  160SAPE   H6X17962   2.913   3.698   6.592  0.8734 -0.6545  0.2224
  160SAPE   H6Y17963   2.929   3.876   6.581  0.9694  0.2679 -1.1283
  160SAPE   C3717964   3.114   3.759   6.617  0.2814 -0.0724  0.0292
  160SAPE   H7X17965   3.191   3.797   6.546 -1.2421 -1.0516 -2.2657
  160SAPE   H7Y17966   3.130   3.649   6.622 -2.7592 -0.6113 -0.3741
  160SAPE   C3817967   3.122   3.815   6.760 -0.4284  0.4021 -0.5215
  160SAPE   H8X17968   3.041   3.780   6.827 -1.2390  1.6568 -0.8033
  160SAPE   H8Y17969   3.125   3.926   6.756 -2.1574  0.4914 -0.0465
  160SAPE   C3917970   3.260   3.771   6.817  0.0538  0.3620  0.2915
  160SAPE   H9X17971   3.336   3.790   6.738 -0.6817  1.0321 -0.2724
  160SAPE   H9Y17972   3.256   3.660   6.822 -1.7737  0.3058 -1.1275
  160SAPE  C31017973   3.300   3.845   6.942 -0.0466 -0.9217 -0.0829
  160SAPE  H10X17974   3.327   3.949   6.917 -1.7905 -0.3700  0.1985
  160SAPE  H10Y17975   3.387   3.795   6.990 -0.4298 -0.5033  1.0962
  160SAPE  C31117976   3.179   3.838   7.042  0.0632  0.2808  0.4461
  160SAPE  H11X17977   3.159   3.732   7.067  2.3809 -0.5140 -0.7731
  160SAPE  H11Y17978   3.086   3.891   7.011  1.2529  0.6969 -2.8355
  160SAPE  C31217979   3.226   3.909   7.175  0.3115  0.5325  0.0918
  160SAPE  H12X17980   3.243   4.016   7.150  0.2476  0.4596 -0.2580
  160SAPE  H12Y17981   3.331   3.878   7.197  0.3976  0.4417 -0.4267
  160SAPE  C31317982   3.130   3.887   7.300 -0.9364  0.0439  0.7130
  160SAPE  H13X17983   3.171   3.963   7.371 -4.0017  1.4867  1.0771
  160SAPE  H13Y17984   3.145   3.791   7.353  2.3508  0.1608  0.2426
  160SAPE  C31417985   2.983   3.926   7.287  0.6393 -0.3476  0.0569
  160SAPE  H14X17986   2.927   3.843   7.239  0.9275  1.1195 -3.0991
  160SAPE  H14Y17987   2.986   4.007   7.211 -0.4869 -0.1932  0.1516
  160SAPE  C31517988   2.929   3.976   7.419 -0.2612  0.0241  0.9581
  160SAPE  H15X17989   2.819   3.988   7.406 -0.4594 -2.1172  0.1086
  160SAPE  H15Y17990   2.975   4.074   7.443  2.1142 -1.0648  1.0865
  160SAPE  C31617991   2.936   3.883   7.542  0.7476  0.1789  0.2129
  160SAPE  H16X17992   2.920   3.778   7.511  0.4826  0.1390  0.4855
  160SAPE  H16Y17993   2.848   3.902   7.608  2.1291  2.9793  1.4097
  160SAPE  C31717994   3.065   3.895   7.621  0.6379 -0.0459 -0.0716
  160SAPE  H17X17995   3.095   4.002   7.619  2.2812 -0.4114  1.6118
  160SAPE  H17Y17996   3.152   3.852   7.567  0.1451  2.8513 -3.4822
  160SAPE  C31817997   3.050   3.842   7.762 -0.5939  0.3083 -0.3270
  160SAPE  H18X17998   3.021   3.735   7.768  0.3833  0.0982  1.2490
  160SAPE  H18Y17999   2.971   3.907   7.806  1.1590  2.5347 -0.2617
  160SAPE  H18Z18000   3.147   3.862   7.813 -0.6729 -0.0981 -0.0059
  161SAPE     N18001   3.350   1.836   5.445  0.8928 -0.2188  0.2159
  161SAPE   HN118002   3.282   1.889   5.387 -0.6560 -1.3569  0.9200
  161SAPE   HN218003   3.437   1.825   5.389  0.0438 -1.2994 -0.9304
  161SAPE   HN318004   3.316   1.738   5.453 -1.4872  0.3300 -1.9181
  161SAPE   C1218005   3.347   1.890   5.587 -0.1651 -0.7847 -0.3576
  161SAPE  H12A18006   3.251   1.854   5.628 -0.0470 -0.2281  0.4167
  161SAPE  H12B18007   3.353   2.001   5.581 -0.8527 -0.6303  1.3789
  161SAPE   C1118008   3.458   1.823   5.665  0.4585  1.0344 -1.5163
  161SAPE  H11A18009   3.430   1.720   5.692  0.8109  1.0344 -1.1314
  161SAPE  H11B18010   3.473   1.871   5.765  0.3657  0.2624 -1.1254
  161SAPE     P18011   3.670   1.956   5.564 -0.1908  0.0288  0.1512
  161SAPE   O1318012   3.799   1.914   5.510  0.2366  0.2461  1.0736
  161SAPE   O1418013   3.580   2.054   5.500  0.0332 -0.3000  0.4169
  161SAPE   O1218014   3.589   1.819   5.601 -0.6701 -0.4113  0.6596
  161SAPE   O1118015   3.693   2.001   5.712 -0.3017 -0.4061  0.6782
  161SAPE    C118016   3.795   1.924   5.784  0.1995 -0.6108  0.0055
  161SAPE    HA18017   3.780   1.814   5.777  1.2255 -0.7847  0.4270
  161SAPE    HB18018   3.898   1.952   5.755 -0.7191  1.1333 -1.8326
  161SAPE    C218019   3.797   1.965   5.935 -0.0687 -0.9659  0.8747
  161SAPE    HS18020   3.868   1.911   6.001 -0.1024  0.0963  1.8173
  161SAPE   O2118021   3.661   1.956   5.991 -0.2258  0.1793  0.2715
  161SAPE   C2118022   3.621   1.834   6.031 -0.0179  0.3216  0.0302
  161SAPE   O2218023   3.694   1.734   6.023 -0.4378 -0.1811 -0.1050
  161SAPE   C2218024   3.484   1.836   6.087  0.1809  0.7563 -0.0617
  161SAPE   H2R18025   3.432   1.924   6.043  0.2881  0.1473 -1.4743
  161SAPE   H2S18026   3.418   1.756   6.046 -0.7876  1.7623 -0.5050
  161SAPE    C318027   3.843   2.121   5.948  0.6504  0.2819 -0.6424
  161SAPE    HX18028   3.776   2.180   5.881 -1.1528  1.0077  1.6807
  161SAPE    HY18029   3.947   2.127   5.911  1.1636  2.5446  1.0070
  161SAPE   O3118030   3.832   2.177   6.080  0.1276 -0.1082 -0.0169
  161SAPE   C3118031   3.933   2.183   6.158  0.5141 -0.1583 -0.1236
  161SAPE   O3218032   4.028   2.106   6.163 -0.2787  0.5951 -0.1554
  161SAPE   C3218033   3.892   2.299   6.253 -0.4921  0.2187 -0.1516
  161SAPE   H2X18034   3.809   2.262   6.317  0.7658 -1.1052  0.7900
  161SAPE   H2Y18035   3.842   2.385   6.203  0.6810  1.2236  0.3372
  161SAPE   C2318036   3.492   1.852   6.240 -0.5195  0.7340 -0.6027
  161SAPE   H3R18037   3.512   1.752   6.282  1.0865  0.0858 -2.7104
  161SAPE   H3S18038   3.389   1.868   6.278 -0.4586 -2.6812  1.4241
  161SAPE   C2418039   3.596   1.953   6.300  0.2454 -0.0566  0.2795
  161SAPE   H4R18040   3.700   1.925   6.272  0.0284  0.6964 -1.4016
  161SAPE   H4S18041   3.597   1.950   6.411  0.3794  0.8551  0.3126
  161SAPE   C2518042   3.561   2.093   6.245 -0.1869 -0.4835 -0.0886
  161SAPE   H5R18043   3.576   2.103   6.136  1.5793  0.4188  0.1995
  161SAPE   C2618044   3.521   2.195   6.327 -0.3238  0.2350 -0.3587
  161SAPE   H6R18045   3.480   2.289   6.288 -0.9593  0.2801  0.3774
  161SAPE   C2718046   3.504   2.192   6.478  0.0376 -0.4613  0.6999
  161SAPE   H7R18047   3.534   2.292   6.514  1.4705  0.4124 -2.5827
  161SAPE   H7S18048   3.574   2.121   6.527  0.5758 -0.9364 -0.6991
  161SAPE   C2818049   3.366   2.156   6.523 -0.5490 -0.0718  0.2190
  161SAPE   H8R18050   3.289   2.146   6.446 -2.4326  1.8028  1.7408
  161SAPE   C2918051   3.322   2.148   6.646 -0.5486  0.7870 -0.4515
  161SAPE   H9R18052   3.213   2.149   6.656 -0.5503 -0.2249 -0.2890
  161SAPE  C21018053   3.391   2.168   6.774  0.3287 -0.1021 -0.1025
  161SAPE  H10R18054   3.393   2.269   6.820  2.6439  0.5091 -1.4157
  161SAPE  H10S18055   3.498   2.143   6.764  0.2249 -0.5147 -0.1729
  161SAPE  C21118056   3.332   2.077   6.877 -0.1236  0.6291  0.0492
  161SAPE  H11R18057   3.293   1.985   6.830  0.4222  1.2473 -1.7063
  161SAPE  C21218058   3.314   2.099   7.008 -0.4940 -0.2107  0.0334
  161SAPE  H12R18059   3.245   2.040   7.071 -0.5474  0.1837  0.3466
  161SAPE  C21318060   3.339   2.233   7.074 -0.5539 -0.5885 -0.3441
  161SAPE  H13R18061   3.419   2.299   7.036 -0.8111  1.9531  3.0768
  161SAPE  H13S18062   3.358   2.230   7.183  0.9487 -1.0395 -0.6032
  161SAPE  C21418063   3.226   2.330   7.053  0.5897 -0.2417  0.8354
  161SAPE  H14R18064   3.167   2.306   6.964  0.1713  0.3186  0.9510
  161SAPE  C21518065   3.195   2.445   7.117 -1.1223 -0.0799 -0.2724
  161SAPE  H15R18066   3.119   2.517   7.083 -2.3930 -0.9993  0.5074
  161SAPE  C21618067   3.272   2.497   7.237  0.5975 -0.0047  0.2352
  161SAPE  H16R18068   3.248   2.605   7.225  2.3116  0.1820 -2.2064
  161SAPE  H16S18069   3.379   2.465   7.242  0.1558 -1.8160 -0.9377
  161SAPE  C21718070   3.200   2.463   7.374  0.3053  0.1450 -0.3257
  161SAPE  H17R18071   3.279   2.485   7.449 -0.3887 -0.4419  0.6023
  161SAPE  H17S18072   3.192   2.352   7.377  0.5258  0.1332 -0.1112
  161SAPE  C21818073   3.069   2.532   7.409 -0.7361  0.1623  0.2245
  161SAPE  H18R18074   2.995   2.472   7.466  1.4980 -1.6454  1.3937
  161SAPE  H18S18075   3.023   2.558   7.311  2.2280  3.6377 -0.4811
  161SAPE  C21918076   3.093   2.663   7.477 -0.2742 -0.0842 -0.3064
  161SAPE  H19R18077   2.997   2.717   7.463 -1.0033 -1.8658 -2.9531
  161SAPE  H19S18078   3.182   2.714   7.434  0.3245 -0.9044 -0.0607
  161SAPE  C22018079   3.114   2.626   7.626  0.0659 -0.3487 -0.4062
  161SAPE  H20R18080   3.133   2.706   7.700 -1.6753 -1.3650  1.2319
  161SAPE  H20S18081   3.204   2.562   7.640  0.8595  0.8410 -0.0167
  161SAPE  H20T18082   3.020   2.576   7.661  1.4914 -2.5366  0.5615
  161SAPE   C3318083   4.003   2.338   6.345  0.3959  0.9615 -0.5998
  161SAPE   H3X18084   3.990   2.445   6.371 -0.9728  0.5579  0.5256
  161SAPE   H3Y18085   4.094   2.316   6.285  0.1645 -1.5238 -0.1589
  161SAPE   C3418086   4.007   2.244   6.470 -0.4210  0.5713 -0.3477
  161SAPE   H4X18087   4.112   2.230   6.505 -0.3746  1.3463 -0.1553
  161SAPE   H4Y18088   3.974   2.145   6.433 -0.9458  0.3600  0.6630
  161SAPE   C3518089   3.926   2.302   6.584  0.1459  0.0729 -0.0821
  161SAPE   H5X18090   3.823   2.319   6.545 -0.3909  0.2894  1.3444
  161SAPE   H5Y18091   3.953   2.408   6.604 -0.7586  0.1421  0.8892
  161SAPE   C3618092   3.926   2.210   6.706  0.6656 -0.3452  0.2571
  161SAPE   H6X18093   4.020   2.190   6.762  0.1509 -2.1761  0.5269
  161SAPE   H6Y18094   3.911   2.112   6.655  0.8032 -0.3338  0.1946
  161SAPE   C3718095   3.810   2.239   6.803 -0.0357 -0.3975  0.2697
  161SAPE   H7X18096   3.711   2.229   6.754  0.5509  1.1661 -1.3511
  161SAPE   H7Y18097   3.821   2.349   6.817  0.5945 -0.5314  0.8682
  161SAPE   C3818098   3.822   2.167   6.937 -0.3994 -0.8646  0.0589
  161SAPE   H8X18099   3.919   2.194   6.984 -0.5134 -0.7480  0.2265
  161SAPE   H8Y18100   3.811   2.058   6.920  0.5603 -1.0109  0.2665
  161SAPE   C3918101   3.719   2.210   7.042 -0.1902  0.2086  0.1448
  161SAPE   H9X18102   3.626   2.154   7.020 -0.5569  0.5488  0.7750
  161SAPE   H9Y18103   3.708   2.321   7.034 -0.9804  0.1158 -0.1544
  161SAPE  C31018104   3.759   2.158   7.181 -0.4820 -0.4731 -0.2277
  161SAPE  H10X18105   3.862   2.188   7.207 -1.0889  1.2088  0.4276
  161SAPE  H10Y18106   3.752   2.047   7.176 -3.3295 -0.3672 -0.2675
  161SAPE  C31118107   3.662   2.206   7.290 -0.1278 -0.4803 -0.0425
  161SAPE  H11X18108   3.561   2.184   7.251 -0.4385  1.1941 -0.2590
  161SAPE  H11Y18109   3.670   2.315   7.309 -0.4745 -0.2753 -1.0264
  161SAPE  C31218110   3.670   2.131   7.417  0.7242 -0.5574 -0.2675
  161SAPE  H12X18111   3.619   2.195   7.493 -1.3828 -2.5759  0.1235
  161SAPE  H12Y18112   3.776   2.104   7.436  1.2629  2.0318  0.8471
  161SAPE  C31318113   3.598   1.996   7.421 -0.5618 -0.0740 -0.7151
  161SAPE  H13X18114   3.608   1.940   7.325  0.1580 -0.1986 -0.5751
  161SAPE  H13Y18115   3.488   2.009   7.432 -0.5851 -0.6581 -0.1555
  161SAPE  C31418116   3.650   1.891   7.523  0.2673  0.0785 -0.7295
  161SAPE  H14X18117   3.580   1.805   7.527  1.4403 -0.8749  0.1418
  161SAPE  H14Y18118   3.648   1.928   7.627 -3.5428 -0.1554 -0.5814
  161SAPE  C31518119   3.790   1.836   7.503  0.5269 -0.1695  0.2894
  161SAPE  H15X18120   3.862   1.914   7.535  1.0729 -1.1206  1.4283
  161SAPE  H15Y18121   3.804   1.798   7.399 -1.7510 -0.3166 -0.0152
  161SAPE  C31618122   3.812   1.716   7.598  0.1707  0.2819  0.4523
  161SAPE  H16X18123   3.909   1.669   7.573 -1.7506 -4.9124  1.4199
  161SAPE  H16Y18124   3.733   1.644   7.566 -0.6392  0.6562  1.5400
  161SAPE  C31718125   3.808   1.742   7.749  0.5078  0.5898 -0.2042
  161SAPE  H17X18126   3.821   1.650   7.811 -1.1996  1.2504  1.2237
  161SAPE  H17Y18127   3.718   1.794   7.790  1.1117  2.1907 -0.8562
  161SAPE  C31818128   3.936   1.809   7.805  0.3211 -0.5733 -0.5620
  161SAPE  H18X18129   4.033   1.765   7.775  0.0505 -3.1238  1.8611
  161SAPE  H18Y18130   3.949   1.777   7.911  1.3971 -1.9352 -1.0768
  161SAPE  H18Z18131   3.923   1.919   7.803  1.5705 -0.4254 -1.4375
  162SAPE     N18132   3.130   5.779   5.730  0.5234 -0.7315 -0.3891
  162SAPE   HN118133   3.220   5.822   5.699 -0.1618  1.3414  0.3667
  162SAPE   HN218134   3.094   5.728   5.647 -0.5971  1.5317 -1.3675
  162SAPE   HN318135   3.060   5.850   5.758  0.6617 -1.1046  0.9759
  162SAPE   C1218136   3.152   5.678   5.841 -0.3465 -0.2824  0.2033
  162SAPE  H12A18137   3.074   5.703   5.916 -1.0300  2.6247 -1.3196
  162SAPE  H12B18138   3.254   5.700   5.878 -0.7611  0.7389  0.7676
  162SAPE   C1118139   3.138   5.534   5.787 -0.0018  0.3748 -0.4649
  162SAPE  H11A18140   3.029   5.513   5.775  0.2579 -1.4202 -0.0049
  162SAPE  H11B18141   3.159   5.452   5.859 -1.5852  1.1002  0.9007
  162SAPE     P18142   3.348   5.505   5.653  0.0294 -0.2461  0.1031
  162SAPE   O1318143   3.373   5.454   5.514 -0.3949 -0.3801 -0.2374
  162SAPE   O1418144   3.415   5.631   5.693 -0.1314  0.2532 -0.0137
  162SAPE   O1218145   3.193   5.531   5.659 -0.1265  0.3593 -0.4094
  162SAPE   O1118146   3.389   5.389   5.759 -0.4274 -0.4087 -0.6548
  162SAPE    C118147   3.321   5.262   5.760  0.2981 -0.3029  0.0218
  162SAPE    HA18148   3.302   5.219   5.861  2.0197 -0.6637  0.2115
  162SAPE    HB18149   3.220   5.280   5.717  0.1293  0.5106  0.7330
  162SAPE    C218150   3.381   5.158   5.670 -0.4708  0.1186  0.5410
  162SAPE    HS18151   3.342   5.172   5.567 -0.3985 -0.8398  0.3823
  162SAPE   O2118152   3.348   5.017   5.715 -0.2616 -0.1022  0.1787
  162SAPE   C2118153   3.222   4.982   5.684  0.6233  0.0994  0.2844
  162SAPE   O2218154   3.145   5.041   5.609  0.2242  0.0349 -0.3761
  162SAPE   C2218155   3.181   4.856   5.767 -0.3184 -0.5283  1.1831
  162SAPE   H2R18156   3.161   4.776   5.692  1.2550 -1.5565  1.7965
  162SAPE   H2S18157   3.264   4.809   5.825  1.4793  2.4874  1.2803
  162SAPE    C318158   3.528   5.160   5.664 -0.4294 -0.2531  0.4902
  162SAPE    HX18159   3.563   5.242   5.598  3.4735 -0.6154  1.8451
  162SAPE    HY18160   3.557   5.068   5.610 -1.5884 -0.0772 -0.4769
  162SAPE   O3118161   3.589   5.154   5.799  0.6940 -0.5165 -0.5554
  162SAPE   C3118162   3.668   5.253   5.834 -1.0963  0.3811  0.2029
  162SAPE   O3218163   3.696   5.349   5.768 -0.0104 -0.0964  0.2613
  162SAPE   C3218164   3.724   5.213   5.976 -0.1748  0.7789  0.7761
  162SAPE   H2X18165   3.762   5.109   5.959 -1.5795  0.6054 -1.8377
  162SAPE   H2Y18166   3.633   5.211   6.039  1.2145  0.7857  2.8868
  162SAPE   C2318167   3.054   4.897   5.856 -0.6555  0.3539 -0.3649
  162SAPE   H3R18168   3.005   4.803   5.888  0.6597 -0.0873  0.4174
  162SAPE   H3S18169   2.974   4.945   5.796  0.8482  1.1887 -1.7633
  162SAPE   C2418170   3.105   4.978   5.975  0.2059 -0.0568  0.0904
  162SAPE   H4R18171   3.015   5.009   6.032 -0.1125 -2.8450  1.2766
  162SAPE   H4S18172   3.167   5.064   5.943  2.7430 -0.7598  2.6649
  162SAPE   C2518173   3.179   4.888   6.069 -0.1586 -0.4590 -0.1517
  162SAPE   H5R18174   3.219   4.795   6.026 -0.6975 -1.3056  1.1129
  162SAPE   C2618175   3.197   4.914   6.203 -0.3844 -0.2377  0.5369
  162SAPE   H6R18176   3.267   4.848   6.257 -1.5144 -1.8880  0.0642
  162SAPE   C2718177   3.155   5.045   6.273 -0.4687  0.2489  0.0004
  162SAPE   H7R18178   3.154   5.033   6.383  0.0203 -0.4909 -0.0685
  162SAPE   H7S18179   3.048   5.057   6.244 -0.6182 -1.7820 -0.4813
  162SAPE   C2818180   3.250   5.152   6.228  0.2830  0.0331 -0.0819
  162SAPE   H8R18181   3.251   5.170   6.120  0.4930  1.1703  0.0976
  162SAPE   C2918182   3.318   5.235   6.305 -0.0858  0.0631 -0.1733
  162SAPE   H9R18183   3.379   5.311   6.253 -0.0422  0.5501  0.5762
  162SAPE  C21018184   3.321   5.256   6.460  0.3771 -0.3458 -0.1993
  162SAPE  H10R18185   3.418   5.296   6.498 -2.0051  2.6459  3.4141
  162SAPE  H10S18186   3.317   5.162   6.519 -0.0388 -1.4051 -1.8394
  162SAPE  C21118187   3.202   5.338   6.517 -0.2482  0.1778  0.4270
  162SAPE  H11R18188   3.105   5.314   6.473 -0.2145  0.8084 -0.0078
  162SAPE  C21218189   3.200   5.424   6.627 -0.8250  0.1605  0.2379
  162SAPE  H12R18190   3.117   5.496   6.640 -0.5009  1.6574 -4.2763
  162SAPE  C21318191   3.327   5.465   6.712  0.0885 -0.2598  0.2508
  162SAPE  H13R18192   3.339   5.382   6.785  1.1455 -0.2330  0.1164
  162SAPE  H13S18193   3.305   5.553   6.776  0.0799  1.2390 -1.7176
  162SAPE  C21418194   3.459   5.507   6.645  0.4367 -0.4399  0.0526
  162SAPE  H14R18195   3.457   5.558   6.547 -3.1732  0.6736  0.5812
  162SAPE  C21518196   3.584   5.464   6.686  0.9331 -0.4009 -0.2283
  162SAPE  H15R18197   3.675   5.503   6.638 -0.8424  1.0324 -2.6691
  162SAPE  C21618198   3.597   5.376   6.808 -0.0689  0.7774  0.2575
  162SAPE  H16R18199   3.694   5.327   6.788  0.6125  2.0967  0.2445
  162SAPE  H16S18200   3.520   5.296   6.819  0.2607  0.2771 -0.9509
  162SAPE  C21718201   3.590   5.452   6.936 -0.2415 -0.5938 -0.7623
  162SAPE  H17R18202   3.487   5.483   6.964  0.1389  0.3903 -0.3744
  162SAPE  H17S18203   3.655   5.542   6.947  0.3637 -1.1822  0.7578
  162SAPE  C21818204   3.641   5.357   7.047 -0.1884 -0.1106  0.0982
  162SAPE  H18R18205   3.749   5.340   7.028 -0.4526 -1.3527 -0.4130
  162SAPE  H18S18206   3.607   5.254   7.023  0.9836 -0.8949  1.6323
  162SAPE  C21918207   3.614   5.394   7.197 -0.6468  0.1952 -0.5670
  162SAPE  H19R18208   3.680   5.481   7.217 -0.4191  0.0878 -0.8406
  162SAPE  H19S18209   3.648   5.306   7.257  0.3578 -0.5659 -2.1927
  162SAPE  C22018210   3.467   5.426   7.214  0.3247  0.2081  0.4413
  162SAPE  H20R18211   3.401   5.369   7.145 -0.4909  0.8087  0.7047
  162SAPE  H20S18212   3.447   5.532   7.188 -0.9560 -0.1281  0.0069
  162SAPE  H20T18213   3.434   5.410   7.319  0.0620 -0.6001  0.2405
  162SAPE   C3318214   3.819   5.316   6.034  0.0914  0.1683  0.0892
  162SAPE   H3X18215   3.761   5.411   6.035 -2.0437 -1.0606 -0.1227
  162SAPE   H3Y18216   3.910   5.330   5.972 -0.1078 -2.7109 -1.0070
  162SAPE   C3418217   3.844   5.279   6.184  0.0700 -0.1692  0.2340
  162SAPE   H4X18218   3.912   5.357   6.224  0.4867 -0.2940 -0.2126
  162SAPE   H4Y18219   3.887   5.176   6.190  1.9627  0.6346  1.3209
  162SAPE   C3518220   3.716   5.290   6.274  0.1961 -0.3757  0.5386
  162SAPE   H5X18221   3.631   5.230   6.235 -2.1205  2.3691  0.9581
  162SAPE   H5Y18222   3.670   5.391   6.267  0.5574 -0.2051  0.5986
  162SAPE   C3618223   3.730   5.240   6.416 -0.6999 -0.2709 -0.3719
  162SAPE   H6X18224   3.650   5.272   6.486  0.9250  1.0789  0.9580
  162SAPE   H6Y18225   3.818   5.287   6.465 -2.2175  0.1676  2.1211
  162SAPE   C3718226   3.752   5.091   6.424 -0.6569 -0.4398  0.0425
  162SAPE   H7X18227   3.851   5.064   6.380  0.6276  1.9152  1.2825
  162SAPE   H7Y18228   3.670   5.038   6.372 -0.1937 -0.1844 -0.9640
  162SAPE   C3818229   3.767   5.040   6.568  0.3861 -0.0735 -0.4668
  162SAPE   H8X18230   3.819   5.120   6.625  0.7737  0.1187 -1.0865
  162SAPE   H8Y18231   3.816   4.942   6.581 -1.8090 -1.0192  1.5103
  162SAPE   C3918232   3.626   5.019   6.630  0.9085 -0.1946  0.2696
  162SAPE   H9X18233   3.571   4.936   6.580 -0.5813  0.8984  0.0223
  162SAPE   H9Y18234   3.566   5.112   6.616  1.6348  0.1733 -0.4957
  162SAPE  C31018235   3.622   4.984   6.781 -0.6805 -0.2246 -0.2124
  162SAPE  H10X18236   3.668   5.067   6.838 -0.6172 -0.4209  0.0246
  162SAPE  H10Y18237   3.695   4.903   6.803 -2.4584 -1.9116 -0.2667
  162SAPE  C31118238   3.481   4.941   6.839 -0.0942  0.2310  0.1350
  162SAPE  H11X18239   3.515   4.914   6.941 -1.4560  0.1899  0.6022
  162SAPE  H11Y18240   3.441   4.858   6.777  0.5310  0.0205  0.0099
  162SAPE  C31218241   3.372   5.054   6.844  0.2043  0.0393 -0.5892
  162SAPE  H12X18242   3.385   5.118   6.754  0.0129  0.1850 -0.5138
  162SAPE  H12Y18243   3.409   5.110   6.933  1.9026  0.2885 -1.4116
  162SAPE  C31318244   3.223   5.018   6.856 -0.1903  0.2646  0.4704
  162SAPE  H13X18245   3.214   4.944   6.939  1.1610  1.7336  2.0274
  162SAPE  H13Y18246   3.207   4.957   6.765 -1.0415  0.3822  0.5386
  162SAPE  C31418247   3.134   5.141   6.872  0.0729 -0.1100 -0.2067
  162SAPE  H14X18248   3.028   5.110   6.887 -0.8225  2.6773 -0.3021
  162SAPE  H14Y18249   3.147   5.203   6.781  0.3944  0.1250 -0.0024
  162SAPE  C31518250   3.170   5.228   6.991  0.2158  0.4869  0.2189
  162SAPE  H15X18251   3.278   5.251   6.979 -0.0918  1.7172 -0.3759
  162SAPE  H15Y18252   3.149   5.178   7.088 -3.1729 -0.3613 -0.8389
  162SAPE  C31618253   3.077   5.354   6.980 -0.3356 -0.1260  0.7934
  162SAPE  H16X18254   2.973   5.315   6.985 -0.4355 -0.0245 -0.2607
  162SAPE  H16Y18255   3.099   5.398   6.880 -1.1732 -0.5853  0.4005
  162SAPE  C31718256   3.095   5.455   7.091 -0.3288  0.0551 -0.5958
  162SAPE  H17X18257   3.019   5.535   7.078 -1.3653 -0.6594  0.7988
  162SAPE  H17Y18258   3.193   5.505   7.075 -0.4124  0.6031  0.4626
  162SAPE  C31818259   3.091   5.395   7.232  0.2419  0.0106  0.0586
  162SAPE  H18X18260   2.986   5.360   7.242 -0.5437  1.5071 -2.1808
  162SAPE  H18Y18261   3.132   5.462   7.310 -0.1327  1.4992 -0.9786
  162SAPE  H18Z18262   3.150   5.301   7.237  1.1653  0.6259  1.0992
  163SAPE     N18263   2.190   4.655   5.651  0.7546 -0.5436  0.1944
  163SAPE   HN118264   2.257   4.734   5.639  0.7846 -0.7171 -0.8099
  163SAPE   HN218265   2.103   4.692   5.696 -1.9433 -3.8919 -1.8348
  163SAPE   HN318266   2.232   4.579   5.708  1.0742 -1.9367 -1.7884
  163SAPE   C1218267   2.152   4.601   5.520  0.6040 -0.0348  0.0483
  163SAPE  H12A18268   2.217   4.515   5.493  0.8501 -0.3015  1.4124
  163SAPE  H12B18269   2.160   4.686   5.448 -1.2230 -0.5521 -0.8218
  163SAPE   C1118270   2.002   4.566   5.527  0.1156 -0.1894 -0.5322
  163SAPE  H11A18271   1.979   4.516   5.430 -0.2358 -2.8767  0.8259
  163SAPE  H11B18272   1.946   4.662   5.523 -0.0546 -0.2749 -0.2125
  163SAPE     P18273   1.979   4.331   5.638  0.2205 -0.6810 -0.4101
  163SAPE   O1318274   1.998   4.290   5.496  0.2528 -0.1736  0.0821
  163SAPE   O1418275   2.082   4.269   5.732  0.7067 -0.6936  0.2373
  163SAPE   O1218276   1.971   4.490   5.648 -0.4379  0.0803 -0.2343
  163SAPE   O1118277   1.829   4.301   5.686 -0.3249  0.3153  0.1076
  163SAPE    C118278   1.782   4.341   5.813  0.2679  0.5150  0.1515
  163SAPE    HA18279   1.785   4.451   5.829  1.0864  0.6741 -0.9531
  163SAPE    HB18280   1.673   4.319   5.811 -0.0136  1.8705 -0.9116
  163SAPE    C218281   1.844   4.281   5.939 -0.2521 -0.5139 -0.7144
  163SAPE    HS18282   1.947   4.321   5.950 -0.1868 -1.1284  1.3457
  163SAPE   O2118283   1.853   4.141   5.920  0.3089  0.2398 -0.0351
  163SAPE   C2118284   1.934   4.067   5.991 -0.4538 -0.1364  0.8113
  163SAPE   O2218285   2.001   4.106   6.086 -0.5775  0.2189  0.0944
  163SAPE   C2218286   1.914   3.920   5.954  0.0232  0.1707  0.2072
  163SAPE   H2R18287   1.872   3.929   5.851  1.5109  0.1151 -0.4412
  163SAPE   H2S18288   2.007   3.860   5.947 -1.2661 -2.3904  2.9813
  163SAPE    C318289   1.773   4.326   6.074  0.6112  0.4640  0.0976
  163SAPE    HX18290   1.762   4.436   6.064  0.8221  0.4145 -0.7281
  163SAPE    HY18291   1.840   4.310   6.162  1.6888  3.1932 -0.1506
  163SAPE   O3118292   1.639   4.252   6.096 -1.3957  0.2038 -0.1848
  163SAPE   C3118293   1.593   4.278   6.218  0.7547  0.5778 -0.0573
  163SAPE   O3218294   1.643   4.355   6.294 -0.2166  0.3553 -0.3144
  163SAPE   C3218295   1.462   4.203   6.233 -0.0062  0.2417  0.3342
  163SAPE   H2X18296   1.482   4.095   6.254 -1.9828  0.1242  1.8910
  163SAPE   H2Y18297   1.409   4.220   6.137  1.3245  1.2144 -0.2561
  163SAPE   C2318298   1.812   3.856   6.054  0.1085 -0.4779 -0.6258
  163SAPE   H3R18299   1.754   3.787   5.990 -0.2689  1.2001 -2.1842
  163SAPE   H3S18300   1.736   3.926   6.093  0.3823 -1.1527  1.2193
  163SAPE   C2418301   1.889   3.776   6.160 -0.8736 -0.0273 -0.8190
  163SAPE   H4R18302   1.971   3.843   6.193  0.2944 -0.5883 -2.4981
  163SAPE   H4S18303   1.939   3.688   6.116 -0.3190 -0.1258 -0.0246
  163SAPE   C2518304   1.795   3.736   6.276 -0.1185  0.6286  0.0062
  163SAPE   H5R18305   1.725   3.657   6.243  1.0299  0.1738 -1.4332
  163SAPE   C2618306   1.802   3.776   6.404 -0.7681  0.4221  0.0412
  163SAPE   H6R18307   1.714   3.760   6.468 -2.2001 -1.9464 -2.3582
  163SAPE   C2718308   1.902   3.866   6.471  0.3608 -0.1466 -0.2536
  163SAPE   H7R18309   2.005   3.854   6.432  0.4988  0.2389 -0.0176
  163SAPE   H7S18310   1.904   3.826   6.575  0.0991 -1.3258 -0.6993
  163SAPE   C2818311   1.858   4.019   6.476  0.3353  0.5319  0.4913
  163SAPE   H8R18312   1.843   4.055   6.374 -1.3830 -1.1499  0.0938
  163SAPE   C2918313   1.830   4.098   6.582  0.1687 -0.5475 -1.0326
  163SAPE   H9R18314   1.804   4.204   6.569  0.1905 -0.5456 -1.0610
  163SAPE  C21018315   1.819   4.052   6.727  0.5144 -0.2639 -0.1016
  163SAPE  H10R18316   1.769   3.954   6.743  0.8762 -0.4163  0.0906
  163SAPE  H10S18317   1.771   4.124   6.797  0.7990 -0.0146 -0.1613
  163SAPE  C21118318   1.954   4.037   6.789 -0.1469  0.3082 -0.6703
  163SAPE  H11R18319   2.043   4.062   6.730  1.5867  2.1003  2.4174
  163SAPE  C21218320   1.976   3.994   6.910  0.1110  0.0125 -0.2377
  163SAPE  H12R18321   2.081   4.000   6.943  1.4642 -0.2122 -4.0598
  163SAPE  C21318322   1.871   3.946   7.004 -0.1756 -0.3254 -0.4022
  163SAPE  H13R18323   1.907   3.842   7.020 -1.8783 -0.9732 -0.6008
  163SAPE  H13S18324   1.764   3.945   6.974 -0.2482  1.5522 -0.3344
  163SAPE  C21418325   1.880   4.025   7.132 -0.5120 -0.2267  0.6986
  163SAPE  H14R18326   1.902   4.133   7.125  2.6932 -0.7319  1.4974
  163SAPE  C21518327   1.850   3.973   7.259 -0.2750 -0.2254 -0.4674
  163SAPE  H15R18328   1.853   4.046   7.340 -1.8005  0.2735 -0.8280
  163SAPE  C21618329   1.799   3.829   7.294  0.6495 -0.3565  0.4750
  163SAPE  H16R18330   1.880   3.774   7.347  1.9358 -0.6666 -1.6832
  163SAPE  H16S18331   1.775   3.767   7.206  2.2497  0.6459 -0.7363
  163SAPE  C21718332   1.675   3.834   7.395 -0.3463  0.0056 -0.2104
  163SAPE  H17R18333   1.704   3.903   7.477  0.1403 -1.6783  1.1052
  163SAPE  H17S18334   1.662   3.732   7.438 -0.9177  0.7421  1.4484
  163SAPE  C21818335   1.542   3.877   7.340  0.5025  0.8336 -0.9794
  163SAPE  H18R18336   1.511   3.806   7.260 -0.6883 -1.9783  1.7663
  163SAPE  H18S18337   1.550   3.984   7.310 -0.1473  1.2821  0.3842
  163SAPE  C21918338   1.431   3.877   7.446  0.4458  0.1374 -0.1941
  163SAPE  H19R18339   1.425   3.778   7.496 -0.7526  0.6816  0.7867
  163SAPE  H19S18340   1.329   3.895   7.407 -0.1787 -1.3777  0.6784
  163SAPE  C22018341   1.459   3.965   7.572 -0.0909 -0.1637 -0.0408
  163SAPE  H20R18342   1.477   4.073   7.555  3.6532 -0.6263  0.2622
  163SAPE  H20S18343   1.543   3.941   7.641  0.5844  0.7275 -0.5302
  163SAPE  H20T18344   1.361   3.956   7.625  0.7226  1.0430  1.7675
  163SAPE   C3318345   1.367   4.261   6.339  0.4576  0.3804  0.2165
  163SAPE   H3X18346   1.263   4.225   6.320 -0.4454  2.4657  0.9251
  163SAPE   H3Y18347   1.368   4.372   6.338  3.0754  0.4097 -0.6523
  163SAPE   C3418348   1.390   4.217   6.490 -0.2061  0.1766  0.3605
  163SAPE   H4X18349   1.438   4.117   6.483 -0.4441 -0.0356  1.6582
  163SAPE   H4Y18350   1.285   4.215   6.527 -0.4144  2.8409  0.1333
  163SAPE   C3518351   1.487   4.306   6.570 -0.5757  0.1530  0.1130
  163SAPE   H5X18352   1.465   4.410   6.536  1.2464  1.0829  1.5746
  163SAPE   H5Y18353   1.587   4.295   6.523 -0.8486  1.4945 -0.8550
  163SAPE   C3618354   1.488   4.279   6.722  0.6866 -0.3210  1.0955
  163SAPE   H6X18355   1.540   4.182   6.738  1.0557 -0.0627  1.4744
  163SAPE   H6Y18356   1.384   4.268   6.759 -0.1616  4.6623  0.9771
  163SAPE   C3718357   1.550   4.380   6.817  0.6332  0.4698  0.4767
  163SAPE   H7X18358   1.661   4.379   6.812  0.6388  1.8163 -0.2478
  163SAPE   H7Y18359   1.518   4.349   6.919  0.7486  1.6433  0.8911
  163SAPE   C3818360   1.491   4.522   6.799  0.1811  1.2919 -0.0120
  163SAPE   H8X18361   1.381   4.512   6.789 -0.0128  2.3100  0.8789
  163SAPE   H8Y18362   1.531   4.565   6.705 -0.6851  1.6342 -0.2298
  163SAPE   C3918363   1.527   4.606   6.915  0.1141  0.1317 -0.5320
  163SAPE   H9X18364   1.516   4.710   6.878  2.4167  0.8237  0.5261
  163SAPE   H9Y18365   1.635   4.591   6.938  0.2023  1.0202 -0.3095
  163SAPE  C31018366   1.434   4.592   7.040  0.7332  0.0720  0.4522
  163SAPE  H10X18367   1.433   4.489   7.080 -0.7081 -0.4768 -0.8853
  163SAPE  H10Y18368   1.332   4.626   7.013  2.0854  2.4683 -2.2445
  163SAPE  C31118369   1.490   4.683   7.146  0.8947  0.6866 -0.1120
  163SAPE  H11X18370   1.489   4.787   7.106 -0.1348  0.4641 -0.7214
  163SAPE  H11Y18371   1.590   4.657   7.184  0.5101  0.7908  0.9934
  163SAPE  C31218372   1.396   4.671   7.269 -0.7307 -0.2695 -0.0105
  163SAPE  H12X18373   1.419   4.579   7.327 -1.8394 -0.8447 -0.4605
  163SAPE  H12Y18374   1.291   4.675   7.233 -0.8165 -0.4629  0.2199
  163SAPE  C31318375   1.415   4.789   7.372 -0.6618 -0.2910  0.4974
  163SAPE  H13X18376   1.355   4.779   7.465 -1.5185 -1.3485 -0.1434
  163SAPE  H13Y18377   1.376   4.885   7.331 -0.9708 -0.1896  1.0204
  163SAPE  C31418378   1.562   4.794   7.411  0.1196 -0.2855 -0.4224
  163SAPE  H14X18379   1.621   4.848   7.333  1.5693 -2.0143 -0.6007
  163SAPE  H14Y18380   1.613   4.695   7.412  1.3649  0.3195 -0.9545
  163SAPE  C31518381   1.598   4.851   7.551  0.2623  0.6086 -0.4287
  163SAPE  H15X18382   1.534   4.797   7.624 -0.9182 -0.0384 -1.8999
  163SAPE  H15Y18383   1.558   4.953   7.569 -1.4384 -0.4309  2.3256
  163SAPE  C31618384   1.746   4.855   7.589  0.0042 -0.0416 -0.1971
  163SAPE  H16X18385   1.800   4.879   7.495  2.9451 -0.9101  1.1600
  163SAPE  H16Y18386   1.787   4.755   7.615  2.8678  0.9101 -0.6499
  163SAPE  C31718387   1.781   4.951   7.703  0.5099  0.2119 -0.1833
  163SAPE  H17X18388   1.700   4.931   7.776 -1.6566 -0.2677 -2.5818
  163SAPE  H17Y18389   1.773   5.059   7.679 -1.2462  0.6114  1.8797
  163SAPE  C31818390   1.911   4.919   7.765 -0.0869 -0.5756 -0.6480
  163SAPE  H18X18391   1.914   4.975   7.861  1.4000  0.1068 -1.0645
  163SAPE  H18Y18392   1.988   4.966   7.701  0.2359  1.7382  1.3229
  163SAPE  H18Z18393   1.931   4.812   7.787  0.4727 -0.3757 -0.1858
  164SAPE     N18394   5.433   0.996   5.606  0.2392 -0.2534 -0.0773
  164SAPE   HN118395   5.398   0.899   5.618  1.1208 -0.8384 -1.8597
  164SAPE   HN218396   5.530   1.000   5.644  0.0880  4.3161  0.4237
  164SAPE   HN318397   5.376   1.065   5.659  0.9158  0.7138 -0.5618
  164SAPE   C1218398   5.436   1.025   5.455 -0.6185  0.5110 -0.8326
  164SAPE  H12A18399   5.332   1.003   5.420 -1.2658 -1.0821  1.7908
  164SAPE  H12B18400   5.506   0.949   5.414 -0.7336  0.0698 -0.2275
  164SAPE   C1118401   5.483   1.168   5.432  0.1878  0.1920 -0.3290
  164SAPE  H11A18402   5.404   1.240   5.462  0.8807  1.4717 -1.4731
  164SAPE  H11B18403   5.487   1.199   5.325 -1.6999  2.4969  0.1622
  164SAPE     P18404   5.694   1.326   5.469  0.0950  0.1727  0.1764
  164SAPE   O1318405   5.779   1.289   5.355 -0.2178  0.6962  0.0179
  164SAPE   O1418406   5.608   1.444   5.446 -0.4368  0.5478  0.0725
  164SAPE   O1218407   5.603   1.201   5.504 -0.1563 -0.2314 -0.3399
  164SAPE   O1118408   5.789   1.361   5.586  0.4948 -0.1502  0.0195
  164SAPE    C118409   5.782   1.280   5.706 -0.6502  0.4263  0.4178
  164SAPE    HA18410   5.793   1.172   5.681  2.1174  1.3269 -3.0833
  164SAPE    HB18411   5.878   1.304   5.755 -1.1956 -0.1631  1.8032
  164SAPE    C218412   5.662   1.303   5.792  0.8226  0.8024 -0.1928
  164SAPE    HS18413   5.573   1.255   5.747  1.2124  0.7944 -0.9801
  164SAPE   O2118414   5.645   1.445   5.812  0.3017 -0.0380  0.4220
  164SAPE   C2118415   5.526   1.493   5.819 -0.4392 -0.0716 -0.0553
  164SAPE   O2218416   5.422   1.431   5.792 -0.0204 -0.3750 -0.1018
  164SAPE   C2218417   5.534   1.646   5.854  0.0060 -0.6994 -0.7127
  164SAPE   H2R18418   5.633   1.690   5.829 -0.1746  0.9213  1.2022
  164SAPE   H2S18419   5.458   1.692   5.787  1.2067 -0.0488 -1.6774
  164SAPE    C318420   5.671   1.232   5.936 -0.0982  0.0848  0.2702
  164SAPE    HX18421   5.746   1.300   5.982  0.8508  1.0161 -2.4353
  164SAPE    HY18422   5.716   1.131   5.924 -1.9099 -0.8311  0.8359
  164SAPE   O3118423   5.556   1.230   6.011  0.1348 -0.0921  0.1371
  164SAPE   C3118424   5.479   1.116   5.979  0.8648  0.3721  0.8911
  164SAPE   O3218425   5.496   1.039   5.891 -0.1465 -0.2110  0.6299
  164SAPE   C3218426   5.354   1.113   6.073 -0.5477 -1.3680  0.9744
  164SAPE   H2X18427   5.269   1.167   6.026  0.6906 -1.1407 -1.1763
  164SAPE   H2Y18428   5.390   1.156   6.169  4.0070  1.0523 -1.4390
  164SAPE   C2318429   5.480   1.662   5.997  0.3595 -0.2495  0.3757
  164SAPE   H3R18430   5.386   1.613   6.031 -1.7100  1.7945 -1.9233
  164SAPE   H3S18431   5.460   1.772   5.997  2.1448  0.1128 -0.4432
  164SAPE   C2418432   5.575   1.630   6.111  0.0446  0.4873 -0.5068
  164SAPE   H4R18433   5.678   1.670   6.104 -0.2102  1.8054  2.1460
  164SAPE   H4S18434   5.598   1.522   6.095 -0.3044  0.1247  1.2986
  164SAPE   C2518435   5.528   1.660   6.247  0.8831  0.6687 -0.1623
  164SAPE   H5R18436   5.579   1.745   6.294  0.6115  1.1492 -0.7377
  164SAPE   C2618437   5.463   1.582   6.334  0.0523 -0.6723 -0.0477
  164SAPE   H6R18438   5.456   1.603   6.441  3.3986 -0.0907  0.1516
  164SAPE   C2718439   5.413   1.440   6.307  0.1836  0.5677  0.2643
  164SAPE   H7R18440   5.435   1.382   6.399  1.5439  0.0039 -0.3946
  164SAPE   H7S18441   5.480   1.395   6.231  2.3570 -2.8703  3.8426
  164SAPE   C2818442   5.271   1.436   6.269 -0.3988  0.7175  0.2298
  164SAPE   H8R18443   5.243   1.493   6.179 -3.3499  0.3738  0.8332
  164SAPE   C2918444   5.178   1.378   6.346  0.2667  0.3250  0.3652
  164SAPE   H9R18445   5.072   1.370   6.318  0.6284 -0.6028 -0.8533
  164SAPE  C21018446   5.199   1.304   6.477 -0.0001 -0.1118 -0.5255
  164SAPE  H10R18447   5.286   1.236   6.468 -0.4614 -0.6203 -1.3267
  164SAPE  H10S18448   5.117   1.231   6.491  0.5028 -0.5261  0.3231
  164SAPE  C21118449   5.207   1.397   6.594  0.0120  0.3461 -0.2957
  164SAPE  H11R18450   5.297   1.461   6.599 -0.7785  1.4707 -0.2757
  164SAPE  C21218451   5.121   1.401   6.698 -0.1780  0.4524 -0.1748
  164SAPE  H12R18452   5.126   1.487   6.766 -1.1084  0.2266  0.1998
  164SAPE  C21318453   4.990   1.322   6.699  0.0513 -0.6877 -0.3545
  164SAPE  H13R18454   4.991   1.224   6.750 -0.9229 -0.5516 -0.0543
  164SAPE  H13S18455   4.957   1.289   6.598 -1.0587  1.8124 -0.8974
  164SAPE  C21418456   4.873   1.400   6.756  0.2453 -0.8785  0.1095
  164SAPE  H14R18457   4.791   1.423   6.686 -0.6964 -1.8174  0.8818
  164SAPE  C21518458   4.847   1.435   6.878  0.5309 -0.0206 -0.2361
  164SAPE  H15R18459   4.751   1.482   6.902  1.1850  1.2843 -0.0821
  164SAPE  C21618460   4.921   1.393   7.000 -0.3919  0.0783 -0.4220
  164SAPE  H16R18461   4.931   1.474   7.075 -0.3609  0.2142 -0.5710
  164SAPE  H16S18462   5.024   1.376   6.964 -0.0635 -1.7182  1.2477
  164SAPE  C21718463   4.881   1.260   7.056 -0.3386  0.5927 -0.0883
  164SAPE  H17R18464   4.968   1.216   7.109  0.0102  0.6833 -0.5820
  164SAPE  H17S18465   4.848   1.191   6.975  0.2698 -2.9861  2.4682
  164SAPE  C21818466   4.762   1.277   7.143  0.2100 -0.1651 -0.5437
  164SAPE  H18R18467   4.675   1.316   7.086 -1.7266 -0.4548  2.0491
  164SAPE  H18S18468   4.795   1.348   7.223  1.4514 -1.9913  0.6367
  164SAPE  C21918469   4.703   1.154   7.213 -0.5072 -0.4328  0.5345
  164SAPE  H19R18470   4.784   1.108   7.273  0.3631 -0.5076 -0.6693
  164SAPE  H19S18471   4.660   1.077   7.146 -1.8314 -0.1574  1.0207
  164SAPE  C22018472   4.604   1.189   7.321  0.7229 -0.2180  0.3343
  164SAPE  H20R18473   4.588   1.102   7.388 -0.9688  0.8181  1.3663
  164SAPE  H20S18474   4.502   1.217   7.286  0.8716 -0.0190  0.0635
  164SAPE  H20T18475   4.641   1.266   7.392  0.3055 -0.2922  0.6416
  164SAPE   C3318476   5.311   0.965   6.093 -0.5552 -0.5572  0.3534
  164SAPE   H3X18477   5.382   0.909   6.158  0.3841  2.4869  2.1576
  164SAPE   H3Y18478   5.323   0.914   5.995 -1.2248 -0.1664  0.0614
  164SAPE   C3418479   5.174   0.952   6.153  0.1349 -0.5769  0.1687
  164SAPE   H4X18480   5.123   0.859   6.118 -1.1430  0.1686 -0.0167
  164SAPE   H4Y18481   5.117   1.037   6.109  0.7048 -0.4518 -0.3343
  164SAPE   C3518482   5.175   0.981   6.304  0.6568 -1.2117  0.2306
  164SAPE   H5X18483   5.197   1.086   6.333  0.8859 -1.3603  0.5875
  164SAPE   H5Y18484   5.257   0.929   6.358  1.0264  2.8005  4.0197
  164SAPE   C3618485   5.040   0.946   6.385  0.6119  0.4090 -0.2185
  164SAPE   H6X18486   5.006   0.845   6.354 -1.1463  1.0238 -0.3488
  164SAPE   H6Y18487   4.963   1.019   6.355  0.4670 -0.4434 -2.0440
  164SAPE   C3718488   5.063   0.940   6.538  0.4549 -0.6249  0.1263
  164SAPE   H7X18489   5.076   1.044   6.577 -0.7704 -0.2667 -0.3444
  164SAPE   H7Y18490   5.160   0.895   6.566  0.7343  0.0254  0.2254
  164SAPE   C3818491   4.939   0.872   6.603 -0.1716 -0.4331 -0.2968
  164SAPE   H8X18492   4.937   0.767   6.567  1.2896 -0.5723 -0.0331
  164SAPE   H8Y18493   4.839   0.915   6.580 -1.3471 -3.2099 -0.7115
  164SAPE   C3918494   4.956   0.888   6.754  0.9163 -0.1937 -0.4985
  164SAPE   H9X18495   4.929   0.989   6.790  0.7278 -0.0678 -0.9899
  164SAPE   H9Y18496   5.061   0.870   6.788  1.0728  0.9848 -0.3108
  164SAPE  C31018497   4.878   0.783   6.832 -0.5442 -0.2538  0.0235
  164SAPE  H10X18498   4.917   0.680   6.818 -0.7105 -0.2264 -0.6964
  164SAPE  H10Y18499   4.775   0.788   6.789 -0.8944  0.1130  0.8734
  164SAPE  C31118500   4.870   0.813   6.990  0.2514 -0.0830  0.3868
  164SAPE  H11X18501   4.789   0.887   7.007  0.2776  0.3011 -1.0216
  164SAPE  H11Y18502   4.964   0.861   7.023 -0.3887 -0.5377  3.1061
  164SAPE  C31218503   4.832   0.684   7.066  0.7338 -0.0008 -0.0224
  164SAPE  H12X18504   4.893   0.599   7.030 -0.6417 -1.2083  0.4248
  164SAPE  H12Y18505   4.726   0.660   7.043  0.8077 -0.0477 -0.3273
  164SAPE  C31318506   4.855   0.708   7.217  0.2214  0.2487 -0.2991
  164SAPE  H13X18507   4.781   0.786   7.245 -0.2618 -0.7172  1.2543
  164SAPE  H13Y18508   4.959   0.743   7.232 -0.8127  2.6555  2.0831
  164SAPE  C31418509   4.824   0.592   7.316  0.0568  0.0544  0.5895
  164SAPE  H14X18510   4.875   0.507   7.265  1.4337  2.2307 -1.9608
  164SAPE  H14Y18511   4.718   0.575   7.341  0.1641  0.2573  1.1909
  164SAPE  C31518512   4.893   0.614   7.450 -0.0507  0.4948  0.0074
  164SAPE  H15X18513   4.858   0.702   7.507 -1.8488  0.3525 -0.8194
  164SAPE  H15Y18514   5.001   0.619   7.428 -0.3032 -2.8793 -2.9282
  164SAPE  C31618515   4.873   0.487   7.535  0.8069  0.1663 -0.6977
  164SAPE  H16X18516   4.875   0.397   7.470  1.2546 -0.2445 -0.1194
  164SAPE  H16Y18517   4.769   0.487   7.575  1.5392 -1.0795  1.3294
  164SAPE  C31718518   4.974   0.456   7.653  0.0872 -0.0010  0.6248
  164SAPE  H17X18519   5.055   0.389   7.617 -0.3089 -0.3792  0.4303
  164SAPE  H17Y18520   4.921   0.412   7.740  1.2101  1.5799  2.2104
  164SAPE  C31818521   5.040   0.575   7.731 -0.9178 -0.4928 -0.1817
  164SAPE  H18X18522   4.971   0.660   7.748 -0.2666  0.0929 -0.3983
  164SAPE  H18Y18523   5.124   0.616   7.669  0.6377  0.0216  2.1360
  164SAPE  H18Z18524   5.089   0.541   7.824  0.9460  3.6249  0.5977
  165SAPE     N18525   6.784   3.424   5.669  0.7908  0.3266  0.0627
  165SAPE   HN118526   6.783   3.380   5.575  0.5170 -0.5356  0.4636
  165SAPE   HN218527   6.792   3.528   5.658  2.6489  0.1136 -1.0046
  165SAPE   HN318528   6.871   3.390   5.713 -0.1374 -0.8505  1.0587
  165SAPE   C1218529   6.666   3.375   5.741 -0.6173  0.0479 -0.6351
  165SAPE  H12A18530   6.679   3.409   5.846 -1.4620  0.2476 -0.5835
  165SAPE  H12B18531   6.666   3.264   5.740  0.0473  0.0040  1.0513
  165SAPE   C1118532   6.541   3.426   5.679 -0.8443 -0.1729 -0.4058
  165SAPE  H11A18533   6.550   3.537   5.674 -1.3515 -0.1996 -2.7823
  165SAPE  H11B18534   6.467   3.410   5.761  0.2475  3.0381  1.3758
  165SAPE     P18535   6.506   3.450   5.422  0.3635  0.1293  0.2300
  165SAPE   O1318536   6.644   3.509   5.412  0.4891 -0.4127 -0.1953
  165SAPE   O1418537   6.450   3.371   5.308 -0.5800 -0.5699  0.0521
  165SAPE   O1218538   6.501   3.369   5.556 -0.0631  0.2345 -0.1625
  165SAPE   O1118539   6.403   3.560   5.457  0.0548 -0.2592  0.0759
  165SAPE    C118540   6.271   3.530   5.502  0.0414  0.0899  0.1891
  165SAPE    HA18541   6.203   3.538   5.414  0.2924  1.3115  0.0854
  165SAPE    HB18542   6.263   3.428   5.545  1.8782  0.6392  1.9639
  165SAPE    C218543   6.238   3.639   5.609 -0.2795 -0.5229  0.2571
  165SAPE    HS18544   6.268   3.737   5.566  1.4737 -0.6788  1.0311
  165SAPE   O2118545   6.311   3.615   5.727  0.3931 -0.2826  0.1567
  165SAPE   C2118546   6.323   3.719   5.808 -0.5378 -0.2954 -0.5232
  165SAPE   O2218547   6.305   3.837   5.779  0.3401 -0.5350  0.0564
  165SAPE   C2218548   6.370   3.683   5.947  0.1662  0.8738  0.3611
  165SAPE   H2R18549   6.327   3.759   6.016  1.2835  0.4827  1.5398
  165SAPE   H2S18550   6.340   3.577   5.960 -2.3332  1.2879 -1.3910
  165SAPE    C318551   6.088   3.650   5.636  0.4036 -0.5097 -0.1153
  165SAPE    HX18552   6.046   3.686   5.539  0.5112 -0.6507 -0.2153
  165SAPE    HY18553   6.067   3.727   5.713  3.9034  1.8169 -1.2653
  165SAPE   O3118554   6.026   3.524   5.666  0.5387  0.0286 -0.0944
  165SAPE   C3118555   6.015   3.502   5.799  0.2127  0.0660 -0.4470
  165SAPE   O3218556   6.062   3.581   5.880  0.6240  0.0105 -0.0532
  165SAPE   C3218557   5.948   3.368   5.822 -0.1242  0.0266 -0.3216
  165SAPE   H2X18558   5.987   3.291   5.752 -1.2233 -1.5170  0.6817
  165SAPE   H2Y18559   5.838   3.371   5.809 -1.6001 -0.8865  7.1135
  165SAPE   C2318560   6.517   3.704   5.981 -0.7994  0.5270  0.0249
  165SAPE   H3R18561   6.558   3.796   5.935 -0.4232  0.0887 -0.5329
  165SAPE   H3S18562   6.579   3.623   5.936  0.6127  2.3255 -1.4006
  165SAPE   C2418563   6.553   3.687   6.135 -0.3066  0.0413  0.4867
  165SAPE   H4R18564   6.496   3.763   6.192 -2.0350 -1.0117  0.2187
  165SAPE   H4S18565   6.661   3.714   6.137 -0.3573  0.2300  0.7856
  165SAPE   C2518566   6.528   3.555   6.191  0.4948 -0.2877 -0.2309
  165SAPE   H5R18567   6.597   3.478   6.154  0.6903 -0.3541  0.2687
  165SAPE   C2618568   6.435   3.514   6.279 -0.7121  0.2398  0.3697
  165SAPE   H6R18569   6.423   3.405   6.288  2.6030 -0.1517  1.6344
  165SAPE   C2718570   6.339   3.608   6.347  0.0218 -0.1867 -0.4545
  165SAPE   H7R18571   6.300   3.688   6.282 -1.2913 -1.7609 -1.7148
  165SAPE   H7S18572   6.398   3.673   6.416  1.0368  0.0012 -1.4773
  165SAPE   C2818573   6.232   3.524   6.415 -0.0885 -0.3537  0.1973
  165SAPE   H8R18574   6.150   3.490   6.348  0.6956  2.6243 -2.5171
  165SAPE   C2918575   6.221   3.498   6.546  0.8954 -0.3048  0.3815
  165SAPE   H9R18576   6.143   3.426   6.573  0.0582 -0.1753 -1.5205
  165SAPE  C21018577   6.316   3.545   6.653 -0.1868  0.8901 -0.2155
  165SAPE  H10R18578   6.304   3.655   6.670  0.8813  0.8370  0.9555
  165SAPE  H10S18579   6.418   3.540   6.610  0.4522  2.6531  1.0048
  165SAPE  C21118580   6.311   3.462   6.783 -0.2204  0.6620  0.5885
  165SAPE  H11R18581   6.292   3.354   6.770 -1.4443  0.6878  1.9817
  165SAPE  C21218582   6.355   3.502   6.899  0.1627  0.2995 -0.0079
  165SAPE  H12R18583   6.339   3.427   6.977  0.4731  1.1633  0.9123
  165SAPE  C21318584   6.408   3.635   6.959 -0.7531  0.0659 -0.2732
  165SAPE  H13R18585   6.369   3.643   7.063  2.0794  0.5038  0.8469
  165SAPE  H13S18586   6.376   3.726   6.904 -1.4023  0.5970  0.9456
  165SAPE  C21418587   6.563   3.624   6.958  0.0088 -0.0255  0.3409
  165SAPE  H14R18588   6.604   3.656   6.861 -0.5443 -1.4700 -0.3890
  165SAPE  C21518589   6.643   3.588   7.062  0.5013 -0.5202  0.8369
  165SAPE  H15R18590   6.749   3.585   7.035  0.6883  0.5057  1.3995
  165SAPE  C21618591   6.595   3.555   7.200  0.3018 -0.9395 -0.0740
  165SAPE  H16R18592   6.486   3.543   7.220  0.6684 -0.7528  2.3079
  165SAPE  H16S18593   6.630   3.638   7.265 -0.8340  0.6198 -1.3589
  165SAPE  C21718594   6.653   3.423   7.250  0.1637 -0.0910  0.3114
  165SAPE  H17R18595   6.611   3.339   7.192 -1.7434  1.5437 -0.8071
  165SAPE  H17S18596   6.625   3.416   7.357 -0.0124  2.0511  0.4613
  165SAPE  C21818597   6.802   3.413   7.230  0.6126 -1.1802 -0.2760
  165SAPE  H18R18598   6.831   3.424   7.123 -0.8613  1.6966 -0.4664
  165SAPE  H18S18599   6.835   3.318   7.277  0.7372  0.0260  2.2599
  165SAPE  C21918600   6.875   3.525   7.306 -0.1178 -0.9010  0.3479
  165SAPE  H19R18601   6.853   3.622   7.258 -1.9970 -2.6751 -2.6555
  165SAPE  H19S18602   6.984   3.509   7.286 -0.4402  0.7418 -3.6127
  165SAPE  C22018603   6.866   3.523   7.453 -0.2520 -0.0649 -0.2480
  165SAPE  H20R18604   6.932   3.600   7.497  0.6959  0.5298 -2.5687
  165SAPE  H20S18605   6.904   3.425   7.490  1.2137 -0.3024 -2.1888
  165SAPE  H20T18606   6.764   3.549   7.488  0.9936  2.2693  1.9641
  165SAPE   C3318607   5.968   3.306   5.967  0.1083  0.5990 -0.2877
  165SAPE   H3X18608   5.882   3.247   6.004 -0.3926  2.5445  1.9150
  165SAPE   H3Y18609   5.976   3.390   6.040 -0.6154 -1.6204  2.5371
  165SAPE   C3418610   6.099   3.230   5.959  0.1977  0.0892 -0.0137
  165SAPE   H4X18611   6.178   3.303   5.931  0.1293  1.0783  2.1574
  165SAPE   H4Y18612   6.086   3.152   5.881 -0.8208 -1.4231  1.5937
  165SAPE   C3518613   6.148   3.164   6.095 -0.0032 -0.8749  0.0819
  165SAPE   H5X18614   6.136   3.242   6.173 -1.7307 -0.4574 -0.5665
  165SAPE   H5Y18615   6.251   3.121   6.095  0.5195  0.3125  1.2919
  165SAPE   C3618616   6.063   3.046   6.121 -0.3699  0.4896  0.0708
  165SAPE   H6X18617   6.081   2.967   6.045 -3.1352 -0.3204  0.1478
  165SAPE   H6Y18618   5.955   3.070   6.124 -0.9812 -1.9274 -0.4364
  165SAPE   C3718619   6.099   2.985   6.266  0.1890 -0.6566 -0.1536
  165SAPE   H7X18620   6.206   2.957   6.257  0.5700  0.5479  0.4197
  165SAPE   H7Y18621   6.062   2.881   6.280  0.2594 -0.9273 -1.7880
  165SAPE   C3818622   6.084   3.076   6.388  0.4608  0.1164 -0.7399
  165SAPE   H8X18623   5.980   3.056   6.420 -0.0521  0.3947 -2.1550
  165SAPE   H8Y18624   6.090   3.185   6.366 -1.4300  1.0153  2.5476
  165SAPE   C3918625   6.178   3.033   6.504 -0.3901  0.1322 -0.3915
  165SAPE   H9X18626   6.224   2.933   6.488 -0.8369 -0.2950  0.8927
  165SAPE   H9Y18627   6.118   3.024   6.596  0.7227  3.5330  0.8094
  165SAPE  C31018628   6.298   3.123   6.534 -0.1241 -0.0561 -0.2768
  165SAPE  H10X18629   6.352   3.105   6.630  0.4964  0.2501 -0.5627
  165SAPE  H10Y18630   6.255   3.226   6.543 -1.2798 -0.5699  0.3528
  165SAPE  C31118631   6.403   3.114   6.415  0.0970 -0.0046 -0.6420
  165SAPE  H11X18632   6.374   3.189   6.339 -0.9059  0.8728  0.5605
  165SAPE  H11Y18633   6.382   3.014   6.370  0.4811 -0.2515 -0.2748
  165SAPE  C31218634   6.547   3.131   6.455 -0.4729 -0.0552 -0.1915
  165SAPE  H12X18635   6.619   3.130   6.370 -0.5169 -3.0401 -0.3095
  165SAPE  H12Y18636   6.582   3.043   6.514  2.8459  1.2100 -0.0783
  165SAPE  C31318637   6.564   3.264   6.538 -0.7028 -0.4365  0.9867
  165SAPE  H13X18638   6.549   3.236   6.644 -1.3432  0.7093  1.2181
  165SAPE  H13Y18639   6.488   3.331   6.493 -0.2823 -0.6768 -0.1227
  165SAPE  C31418640   6.707   3.332   6.530  0.1015  0.8178  0.2950
  165SAPE  H14X18641   6.740   3.325   6.424 -0.1552  0.1725  0.2535
  165SAPE  H14Y18642   6.784   3.278   6.589  1.2001  0.2874 -1.5488
  165SAPE  C31518643   6.688   3.476   6.566 -0.0546 -0.6940  0.0371
  165SAPE  H15X18644   6.623   3.482   6.656  0.2115 -0.8735  0.2434
  165SAPE  H15Y18645   6.616   3.522   6.495 -0.9102 -1.7318  0.2134
  165SAPE  C31618646   6.820   3.555   6.603  0.8935  0.4692 -0.5210
  165SAPE  H16X18647   6.852   3.517   6.702  0.6622 -0.3348 -0.7455
  165SAPE  H16Y18648   6.787   3.660   6.616 -2.3134  0.0131 -3.4899
  165SAPE  C31718649   6.936   3.541   6.503  0.2519  0.2731 -0.4925
  165SAPE  H17X18650   6.940   3.432   6.478 -0.2531  0.4573 -1.4390
  165SAPE  H17Y18651   7.033   3.580   6.540  0.9731  0.1320 -2.1506
  165SAPE  C31818652   6.900   3.623   6.378  0.0750  0.9021  0.0799
  165SAPE  H18X18653   6.803   3.586   6.339  0.2884 -2.4276  2.2272
  165SAPE  H18Y18654   6.971   3.615   6.293 -0.4257 -1.3444 -0.2032
  165SAPE  H18Z18655   6.897   3.729   6.410  0.8587  1.2954 -1.1086
  166SAPE     N18656   4.079   0.339   5.264 -0.0149  0.0761  0.5204
  166SAPE   HN118657   4.026   0.413   5.315 -1.8978 -0.7072 -0.2192
  166SAPE   HN218658   4.123   0.393   5.187  2.0582 -2.0135  0.1219
  166SAPE   HN318659   4.009   0.267   5.237  0.7957 -0.3736 -0.4551
  166SAPE   C1218660   4.187   0.275   5.345  0.0065 -0.6616  0.2740
  166SAPE  H12A18661   4.263   0.357   5.344  0.6032 -1.0437 -3.8438
  166SAPE  H12B18662   4.227   0.189   5.287  1.5725  0.1570  0.0683
  166SAPE   C1118663   4.144   0.245   5.487 -0.0586 -0.0576  1.0554
  166SAPE  H11A18664   4.218   0.181   5.540  1.5383  1.2780  0.5330
  166SAPE  H11B18665   4.050   0.187   5.491 -0.5773  0.6138 -0.5858
  166SAPE     P18666   4.005   0.457   5.570 -0.2485  0.1453 -0.0892
  166SAPE   O1318667   4.048   0.585   5.625  0.1702  0.4693  0.3002
  166SAPE   O1418668   3.936   0.465   5.440  0.5304  0.3389  0.1464
  166SAPE   O1218669   4.135   0.372   5.556 -0.0615  0.5629  0.6895
  166SAPE   O1118670   3.926   0.362   5.672 -0.6131 -0.3581  0.1366
  166SAPE    C118671   3.783   0.365   5.673 -0.6707 -0.0711 -0.3234
  166SAPE    HA18672   3.725   0.380   5.579 -3.8700  2.0277  1.7722
  166SAPE    HB18673   3.745   0.275   5.727  1.4735 -1.6235 -1.2651
  166SAPE    C218674   3.725   0.478   5.767 -0.3292 -0.2091 -0.1138
  166SAPE    HS18675   3.723   0.559   5.691  0.8853  0.9584  1.0559
  166SAPE   O2118676   3.820   0.503   5.872 -0.3474 -0.4646  0.0174
  166SAPE   C2118677   3.830   0.630   5.921  0.5310  0.1562  0.3178
  166SAPE   O2218678   3.751   0.718   5.891 -0.1984 -0.0519 -0.3645
  166SAPE   C2218679   3.959   0.643   6.005  0.2732  0.9355 -0.3104
  166SAPE   H2R18680   3.954   0.559   6.077 -1.3905 -0.0858 -1.5328
  166SAPE   H2S18681   4.035   0.620   5.928 -0.1410  1.0825 -0.7687
  166SAPE    C318682   3.587   0.449   5.825 -0.3569 -0.1108  0.3463
  166SAPE    HX18683   3.524   0.427   5.736 -0.3317  1.2535 -0.0292
  166SAPE    HY18684   3.528   0.527   5.877 -1.1521 -0.1936 -0.4037
  166SAPE   O3118685   3.595   0.328   5.905  0.1084  0.0157  0.3628
  166SAPE   C3118686   3.607   0.336   6.036 -0.2753  0.0067 -0.5780
  166SAPE   O3218687   3.602   0.435   6.103 -0.1327 -0.7504  0.0982
  166SAPE   C3218688   3.654   0.197   6.081  0.6337 -0.5506  0.4976
  166SAPE   H2X18689   3.757   0.189   6.040  1.4542  1.4007  1.9929
  166SAPE   H2Y18690   3.589   0.122   6.032  0.0287 -0.3475  0.9775
  166SAPE   C2318691   3.989   0.785   6.058  0.4081  0.4944 -0.5194
  166SAPE   H3R18692   3.936   0.861   5.996 -1.0140 -0.2815 -0.3057
  166SAPE   H3S18693   4.096   0.815   6.054  1.2314 -2.2383 -1.6276
  166SAPE   C2418694   3.935   0.786   6.205 -0.0830 -0.0713  0.3715
  166SAPE   H4R18695   3.936   0.893   6.236  2.1450  1.3658 -3.7833
  166SAPE   H4S18696   4.004   0.731   6.273  1.5895  2.1995  0.6487
  166SAPE   C2518697   3.795   0.729   6.217 -0.8184 -0.2400 -0.6546
  166SAPE   H5R18698   3.714   0.795   6.184 -0.5892 -0.5095 -1.7751
  166SAPE   C2618699   3.760   0.617   6.286  0.0189  0.6705  0.2098
  166SAPE   H6R18700   3.651   0.600   6.295 -0.3127  2.1227 -0.8151
  166SAPE   C2718701   3.840   0.512   6.358 -0.3774 -0.5191  0.0159
  166SAPE   H7R18702   3.942   0.552   6.377 -1.4667  2.9926 -0.8476
  166SAPE   H7S18703   3.862   0.433   6.282  1.3382  1.8378 -2.0929
  166SAPE   C2818704   3.772   0.459   6.488  0.2666  0.0739  0.9190
  166SAPE   H8R18705   3.671   0.426   6.463  0.1962  1.0859 -0.1978
  166SAPE   C2918706   3.806   0.450   6.614  0.2687  0.5443  0.1479
  166SAPE   H9R18707   3.732   0.417   6.689 -1.2000  1.6230 -0.7644
  166SAPE  C21018708   3.940   0.483   6.670 -0.0971  0.0171 -0.7425
  166SAPE  H10R18709   3.933   0.566   6.744  2.2285 -1.4717  1.3063
  166SAPE  H10S18710   4.013   0.513   6.591  1.7182  1.0767  1.2087
  166SAPE  C21118711   4.001   0.363   6.743  0.0707  0.0897 -0.0748
  166SAPE  H11R18712   4.032   0.278   6.681  1.3250  0.5642 -0.1132
  166SAPE  C21218713   4.014   0.349   6.874 -0.2725 -1.0089  0.1777
  166SAPE  H12R18714   4.051   0.251   6.906  0.8062 -1.1890 -1.4925
  166SAPE  C21318715   3.964   0.451   6.973 -0.2795  0.7450 -0.1306
  166SAPE  H13R18716   3.870   0.500   6.941 -1.9252 -1.5400  0.9390
  166SAPE  H13S18717   4.040   0.532   6.985  1.6254 -1.2945  3.5574
  166SAPE  C21418718   3.932   0.391   7.109  0.4224  0.2723 -0.3894
  166SAPE  H14R18719   3.932   0.283   7.130 -0.4838  0.5971  1.4422
  166SAPE  C21518720   3.875   0.456   7.209  0.1343 -0.3332  0.0928
  166SAPE  H15R18721   3.840   0.392   7.291  0.2021  0.6757  0.9270
  166SAPE  C21618722   3.835   0.603   7.225  0.1189  0.2838 -0.1594
  166SAPE  H16R18723   3.749   0.606   7.296  0.5756 -1.0480  0.4765
  166SAPE  H16S18724   3.795   0.650   7.133  1.1881 -1.4699 -1.5819
  166SAPE  C21718725   3.944   0.667   7.295  0.3111 -0.7039 -0.0259
  166SAPE  H17R18726   4.036   0.665   7.232  0.3530  0.6492 -0.0414
  166SAPE  H17S18727   3.955   0.611   7.390 -0.9602  0.4637  0.8471
  166SAPE  C21818728   3.922   0.809   7.344 -0.0607 -0.3141 -0.8725
  166SAPE  H18R18729   3.834   0.799   7.413  0.2379  0.1677 -0.4120
  166SAPE  H18S18730   3.898   0.885   7.267 -4.0036  0.8947  1.2641
  166SAPE  C21918731   4.036   0.861   7.423 -0.6157 -0.4191 -0.0562
  166SAPE  H19R18732   4.131   0.847   7.367 -0.6101  0.6834 -0.3393
  166SAPE  H19S18733   4.050   0.797   7.513 -2.4190  1.2664  1.5153
  166SAPE  C22018734   4.023   1.001   7.476  0.3239 -0.2962 -0.4995
  166SAPE  H20R18735   4.121   1.025   7.523  0.5545 -0.6238 -0.8118
  166SAPE  H20S18736   3.945   1.005   7.556 -0.3501 -2.4190 -0.9741
  166SAPE  H20T18737   3.999   1.082   7.405 -0.5638 -0.2109 -0.1256
  166SAPE   C3318738   3.656   0.171   6.237  0.1801 -0.8296  0.1354
  166SAPE   H3X18739   3.553   0.165   6.279 -0.2745 -0.0053 -0.7898
  166SAPE   H3Y18740   3.713   0.253   6.284 -0.6458 -0.3939  0.4114
  166SAPE   C3418741   3.743   0.050   6.279  0.0138  0.1368 -0.0962
  166SAPE   H4X18742   3.844   0.054   6.235 -0.7457 -0.2006 -1.9430
  166SAPE   H4Y18743   3.705  -0.044   6.234  0.4590  0.3201 -0.8673
  166SAPE   C3518744   3.756   0.044   6.433  0.1506  0.2319  0.7390
  166SAPE   H5X18745   3.786   0.140   6.481 -3.2038  0.8676  1.8385
  166SAPE   H5Y18746   3.841  -0.022   6.459  0.4025  1.1547  2.3405
  166SAPE   C3618747   3.633  -0.015   6.488  0.5537  0.6473  0.0652
  166SAPE   H6X18748   3.590  -0.091   6.420 -1.2570  1.2613  0.4469
  166SAPE   H6Y18749   3.554   0.064   6.495  0.6962  1.0718 -2.2724
  166SAPE   C3718750   3.641  -0.074   6.627 -0.4179 -0.2344  0.6119
  166SAPE   H7X18751   3.718  -0.021   6.688 -0.5566 -1.3764  1.8306
  166SAPE   H7Y18752   3.678  -0.178   6.613  0.4125  0.0658  0.5221
  166SAPE   C3818753   3.507  -0.073   6.702 -0.0228  0.1278  0.4349
  166SAPE   H8X18754   3.434  -0.144   6.659  2.2504 -2.0871  0.0133
  166SAPE   H8Y18755   3.467   0.030   6.713  1.2633  0.3946  3.6811
  166SAPE   C3918756   3.531  -0.125   6.845 -0.6475 -0.1462  0.0460
  166SAPE   H9X18757   3.593  -0.052   6.901 -2.8082  1.2847  0.6732
  166SAPE   H9Y18758   3.580  -0.225   6.845 -0.6992 -0.2182  2.0667
  166SAPE  C31018759   3.398  -0.141   6.917  0.0292  0.9299 -0.4173
  166SAPE  H10X18760   3.356  -0.242   6.898  0.6666  0.9268 -1.9801
  166SAPE  H10Y18761   3.335  -0.054   6.889  1.0206  1.5569 -0.7739
  166SAPE  C31118762   3.411  -0.141   7.066 -0.2779  0.0480  0.1148
  166SAPE  H11X18763   3.497  -0.207   7.090 -0.3594 -0.3563 -0.6851
  166SAPE  H11Y18764   3.317  -0.185   7.106 -1.4132 -0.3877 -2.8036
  166SAPE  C31218765   3.431  -0.013   7.135 -0.5031  0.3865  0.3168
  166SAPE  H12X18766   3.352   0.056   7.099 -1.3018  0.5199  2.1921
  166SAPE  H12Y18767   3.526   0.032   7.100 -0.1902  0.1547  0.8586
  166SAPE  C31318768   3.421  -0.039   7.290  0.5861  0.0441 -0.3776
  166SAPE  H13X18769   3.476   0.037   7.349  0.6978  0.2446 -0.7341
  166SAPE  H13Y18770   3.466  -0.138   7.313 -2.4274 -1.6046 -1.0405
  166SAPE  C31418771   3.271  -0.019   7.330 -0.3118  0.0228 -0.0376
  166SAPE  H14X18772   3.207  -0.086   7.269 -2.3947  2.0073 -0.1563
  166SAPE  H14Y18773   3.249   0.079   7.283 -0.2556  0.2980  0.4989
  166SAPE  C31518774   3.224  -0.031   7.473 -0.8445  0.2035 -0.4010
  166SAPE  H15X18775   3.280   0.040   7.538 -0.3712 -0.4220 -0.1139
  166SAPE  H15Y18776   3.245  -0.135   7.506 -0.1876  0.8439  1.3619
  166SAPE  C31618777   3.075  -0.025   7.484 -0.2784 -0.0840  0.1962
  166SAPE  H16X18778   3.042  -0.045   7.589  1.7800  1.1550  1.1441
  166SAPE  H16Y18779   3.032  -0.102   7.417  0.7831  0.4098 -1.0927
  166SAPE  C31718780   3.016   0.112   7.441 -0.0090  0.6378  0.1945
  166SAPE  H17X18781   2.912   0.082   7.416  0.1962 -0.5283  0.6854
  166SAPE  H17Y18782   3.060   0.149   7.346 -0.6874 -2.4185 -1.4532
  166SAPE  C31818783   3.003   0.219   7.554  0.1607 -1.2168 -0.2234
  166SAPE  H18X18784   2.960   0.318   7.526 -1.6384 -1.4811  1.3909
  166SAPE  H18Y18785   3.104   0.238   7.595 -0.7956  3.3445  0.5628
  166SAPE  H18Z18786   2.945   0.199   7.646 -0.2732  1.5866  0.2213
  167SAPE     N18787   5.962   6.561   5.426  0.4930  0.0041  0.7187
  167SAPE   HN118788   5.982   6.642   5.365  1.3759 -1.5444 -1.1442
  167SAPE   HN218789   5.946   6.468   5.383  0.0504 -0.7331  2.3877
  167SAPE   HN318790   5.884   6.591   5.489  0.8214 -1.2826  1.7803
  167SAPE   C1218791   6.068   6.538   5.530 -0.3835 -0.8090  0.0987
  167SAPE  H12A18792   6.149   6.604   5.493 -0.3966  0.9454  2.8591
  167SAPE  H12B18793   6.089   6.431   5.550 -1.0459 -0.7863  0.9797
  167SAPE   C1118794   6.032   6.591   5.668 -1.3640  0.0889  0.0583
  167SAPE  H11A18795   6.112   6.569   5.742 -2.0412  2.1491  1.5004
  167SAPE  H11B18796   5.941   6.538   5.701 -1.8621 -0.1104 -1.5502
  167SAPE     P18797   5.866   6.792   5.650 -0.1097 -0.3514  0.3238
  167SAPE   O1318798   5.871   6.924   5.583 -0.2463 -0.3723  0.1409
  167SAPE   O1418799   5.795   6.691   5.567  0.2513 -0.2793  0.1220
  167SAPE   O1218800   6.012   6.734   5.665 -0.1706  0.2064 -0.3361
  167SAPE   O1118801   5.793   6.801   5.790  0.6528 -0.2934  0.2577
  167SAPE    C118802   5.862   6.771   5.912  0.5213 -0.1685  0.3595
  167SAPE    HA18803   5.911   6.671   5.916  1.4624  0.1535 -1.8027
  167SAPE    HB18804   5.955   6.829   5.926  1.0827 -0.8200 -0.5542
  167SAPE    C218805   5.778   6.804   6.043 -0.5701 -0.2938  0.0677
  167SAPE    HS18806   5.835   6.752   6.124 -0.8321  2.7308  2.3824
  167SAPE   O2118807   5.644   6.758   6.030 -0.0882 -0.0202  0.5897
  167SAPE   C2118808   5.609   6.634   6.048 -0.0157 -0.2392  0.2724
  167SAPE   O2218809   5.686   6.537   6.039 -0.2013 -0.3987 -0.3081
  167SAPE   C2218810   5.459   6.638   6.080  0.6777  0.4738 -0.5662
  167SAPE   H2R18811   5.452   6.690   6.178 -1.4061  0.4401 -0.6483
  167SAPE   H2S18812   5.409   6.706   6.007 -2.1079  1.0774  1.7188
  167SAPE    C318813   5.784   6.955   6.079  0.3000  0.4938 -0.3835
  167SAPE    HX18814   5.710   7.010   6.017  0.5658 -1.7866 -2.8902
  167SAPE    HY18815   5.887   6.987   6.053  1.3949 -1.3764  1.2949
  167SAPE   O3118816   5.766   6.972   6.217  0.0694 -0.0043 -0.1205
  167SAPE   C3118817   5.666   7.025   6.268 -0.5102  0.3653 -0.0951
  167SAPE   O3218818   5.567   7.074   6.213  0.0784 -0.1239  0.6495
  167SAPE   C3218819   5.704   7.043   6.419  0.1815  0.5467 -0.6241
  167SAPE   H2X18820   5.624   7.097   6.474  1.5556  0.6760  1.3460
  167SAPE   H2Y18821   5.795   7.107   6.420 -0.0621  0.9724 -2.2550
  167SAPE   C2318822   5.392   6.500   6.092 -0.0664  0.4902 -0.0396
  167SAPE   H3R18823   5.469   6.424   6.120  2.6653  1.6908 -3.6161
  167SAPE   H3S18824   5.364   6.468   5.989 -0.6996  0.3894  0.1584
  167SAPE   C2418825   5.268   6.502   6.184  0.1127  0.3488  0.3672
  167SAPE   H4R18826   5.187   6.559   6.135  0.1459  0.4403  0.4178
  167SAPE   H4S18827   5.287   6.569   6.271  1.6663 -0.1766  0.4785
  167SAPE   C2518828   5.228   6.360   6.227  0.6092  0.2882  0.1274
  167SAPE   H5R18829   5.177   6.297   6.152  1.7128 -0.2310 -0.1982
  167SAPE   C2618830   5.250   6.315   6.353 -0.0773  0.0959 -0.1448
  167SAPE   H6R18831   5.219   6.210   6.362 -0.7009  0.1553 -1.4148
  167SAPE   C2718832   5.314   6.387   6.472  0.0559 -0.7418 -0.6741
  167SAPE   H7R18833   5.413   6.426   6.439 -0.0490 -0.0175 -0.1540
  167SAPE   H7S18834   5.330   6.311   6.551 -1.4082 -1.0387 -0.6466
  167SAPE   C2818835   5.244   6.512   6.523  0.0666  0.0754  0.2046
  167SAPE   H8R18836   5.225   6.577   6.437 -1.1004 -3.5839 -2.5680
  167SAPE   C2918837   5.214   6.542   6.653 -0.0547 -0.0560 -0.4555
  167SAPE   H9R18838   5.184   6.646   6.674  0.6032 -0.2208  1.4614
  167SAPE  C21018839   5.232   6.444   6.771 -0.0671 -0.2147 -1.1809
  167SAPE  H10R18840   5.330   6.394   6.760 -0.6514 -1.3851 -1.2198
  167SAPE  H10S18841   5.157   6.363   6.760  0.8772 -1.1135 -1.0678
  167SAPE  C21118842   5.213   6.487   6.915  0.1444  0.1034 -0.4508
  167SAPE  H11R18843   5.128   6.556   6.924  1.9844  2.5860 -1.0632
  167SAPE  C21218844   5.303   6.463   7.015  0.0643  0.5979 -0.3976
  167SAPE  H12R18845   5.294   6.503   7.117  1.3677  0.3484 -0.1575
  167SAPE  C21318846   5.432   6.391   7.003 -0.4502  0.6095  0.1673
  167SAPE  H13R18847   5.414   6.298   6.944  1.0568 -1.3667  2.6327
  167SAPE  H13S18848   5.467   6.369   7.106 -1.2692  2.2599  0.8309
  167SAPE  C21418849   5.550   6.463   6.940 -0.2145  0.0105  0.0197
  167SAPE  H14R18850   5.531   6.571   6.928 -0.2203 -0.1458 -1.5262
  167SAPE  C21518851   5.667   6.407   6.922 -0.0593  0.3619 -0.1603
  167SAPE  H15R18852   5.738   6.465   6.863 -1.5479  1.6463 -0.7567
  167SAPE  C21618853   5.705   6.262   6.951  0.0225  0.6356  0.3557
  167SAPE  H16R18854   5.706   6.198   6.860 -0.8643  1.6248 -0.3810
  167SAPE  H16S18855   5.625   6.214   7.011 -0.6919 -1.2063 -1.9126
  167SAPE  C21718856   5.835   6.243   7.030  0.8180  0.8014  0.0207
  167SAPE  H17R18857   5.918   6.282   6.967  0.9104  0.3609 -0.1346
  167SAPE  H17S18858   5.839   6.133   7.046 -0.6444  1.1765  4.1116
  167SAPE  C21818859   5.855   6.308   7.164 -0.5632 -0.0299 -0.0018
  167SAPE  H18R18860   5.765   6.368   7.192  1.8222  3.8313  0.0922
  167SAPE  H18S18861   5.950   6.364   7.170 -1.6229  1.8266  0.2036
  167SAPE  C21918862   5.869   6.194   7.272  0.4605  0.3682 -0.8727
  167SAPE  H19R18863   5.777   6.136   7.256 -1.1858  2.6468 -0.2416
  167SAPE  H19S18864   5.874   6.242   7.372  1.6864  0.4721 -0.9588
  167SAPE  C22018865   5.989   6.105   7.258 -0.1208 -0.2332 -0.4707
  167SAPE  H20R18866   6.007   6.054   7.160  2.4206  0.9306 -0.6952
  167SAPE  H20S18867   5.983   6.025   7.335  1.9446 -0.8562 -0.8856
  167SAPE  H20T18868   6.083   6.162   7.271 -0.7686  1.5026 -2.7617
  167SAPE   C3318869   5.728   6.905   6.485  0.6352 -0.2223  0.0865
  167SAPE   H3X18870   5.783   6.931   6.578 -1.4798  0.4546  1.2111
  167SAPE   H3Y18871   5.786   6.838   6.418  1.9880  2.1012 -1.2091
  167SAPE   C3418872   5.597   6.829   6.516 -0.1603  0.3700 -0.5855
  167SAPE   H4X18873   5.521   6.822   6.435 -0.7602 -1.7937  0.0938
  167SAPE   H4Y18874   5.542   6.899   6.583 -2.0673  1.8566 -3.4930
  167SAPE   C3518875   5.635   6.699   6.583  0.0405 -0.5538 -0.1241
  167SAPE   H5X18876   5.541   6.674   6.637  0.5173 -1.8513  0.1432
  167SAPE   H5Y18877   5.716   6.707   6.658 -0.5653 -1.3677  0.6340
  167SAPE   C3618878   5.667   6.589   6.482  0.7083  0.8704  0.1595
  167SAPE   H6X18879   5.748   6.622   6.413  2.4335  1.3690  2.3069
  167SAPE   H6Y18880   5.573   6.571   6.426 -0.4421 -0.1151  2.3213
  167SAPE   C3718881   5.705   6.463   6.557  0.4468  0.0998  0.0186
  167SAPE   H7X18882   5.636   6.445   6.642 -0.6399  4.3756  0.3000
  167SAPE   H7Y18883   5.802   6.471   6.609  0.6356 -0.1514 -0.2919
  167SAPE   C3818884   5.703   6.338   6.463 -0.1831  0.0151  0.4572
  167SAPE   H8X18885   5.698   6.380   6.360 -3.9778 -0.9757  0.0992
  167SAPE   H8Y18886   5.607   6.285   6.478 -2.6386  3.2548 -2.3007
  167SAPE   C3918887   5.819   6.235   6.471 -0.1464  0.0029  0.3429
  167SAPE   H9X18888   5.912   6.287   6.439  0.5653 -1.6245 -0.3519
  167SAPE   H9Y18889   5.789   6.164   6.390  0.9136  1.5859 -1.5388
  167SAPE  C31018890   5.824   6.162   6.602  0.6540  0.0664 -0.2537
  167SAPE  H10X18891   5.730   6.104   6.613  1.8511 -2.4528 -2.1855
  167SAPE  H10Y18892   5.833   6.237   6.684 -0.5956  2.4157 -2.1203
  167SAPE  C31118893   5.938   6.063   6.599  0.0234 -0.5569  0.4626
  167SAPE  H11X18894   6.032   6.105   6.558  0.6342 -2.1644  0.1684
  167SAPE  H11Y18895   5.902   5.995   6.519 -0.5664  0.1656  0.0883
  167SAPE  C31218896   5.951   5.987   6.731 -0.0201  0.8608 -0.4977
  167SAPE  H12X18897   5.851   5.939   6.741  0.3027  0.1460 -0.6322
  167SAPE  H12Y18898   5.971   6.062   6.809  1.0230  1.3851 -1.2551
  167SAPE  C31318899   6.048   5.867   6.719 -0.0225  0.2471 -0.3932
  167SAPE  H13X18900   6.151   5.909   6.707 -0.8389  2.1511 -1.0446
  167SAPE  H13Y18901   6.033   5.806   6.627  0.2631  0.6276 -0.6962
  167SAPE  C31418902   6.047   5.774   6.835  0.0028 -0.2228  0.6080
  167SAPE  H14X18903   6.113   5.685   6.826  0.2671  0.1490 -1.8299
  167SAPE  H14Y18904   5.944   5.733   6.847 -0.2917 -0.1657 -1.2996
  167SAPE  C31518905   6.085   5.846   6.964 -0.1180  0.1436 -0.3975
  167SAPE  H15X18906   6.028   5.940   6.975 -0.8341 -0.1908 -1.2046
  167SAPE  H15Y18907   6.193   5.873   6.959 -0.1891  0.2370 -1.4761
  167SAPE  C31618908   6.054   5.763   7.094  0.0599  0.2904  0.3755
  167SAPE  H16X18909   5.975   5.689   7.069  0.4632 -0.3298  0.9043
  167SAPE  H16Y18910   6.007   5.821   7.176 -1.4789 -1.0632  0.5120
  167SAPE  C31718911   6.171   5.687   7.152  0.0200  0.3536  0.1317
  167SAPE  H17X18912   6.248   5.759   7.189 -0.0889 -0.2750  1.6662
  167SAPE  H17Y18913   6.221   5.639   7.065 -0.3352 -1.3171  0.8181
  167SAPE  C31818914   6.123   5.590   7.254 -0.1478 -0.2986  0.0658
  167SAPE  H18X18915   6.059   5.513   7.206  0.8263 -0.8019 -0.4760
  167SAPE  H18Y18916   6.066   5.635   7.338 -0.1546 -1.0047  0.4426
  167SAPE  H18Z18917   6.204   5.537   7.308 -1.1656 -1.0115  0.9291
  168SAPE     N18918   6.187   1.395   5.594 -0.2467 -0.4779  0.0869
  168SAPE   HN118919   6.291   1.393   5.602 -0.1267 -1.6481 -1.3110
  168SAPE   HN218920   6.165   1.476   5.532 -2.7871 -0.4365  0.9184
  168SAPE   HN318921   6.151   1.426   5.687 -1.3924  1.5490 -0.9617
  168SAPE   C1218922   6.129   1.266   5.545 -0.4969 -0.3596 -0.8195
  168SAPE  H12A18923   6.179   1.223   5.456 -0.0661  0.2533 -0.8837
  168SAPE  H12B18924   6.020   1.275   5.524 -0.6748  1.3679  0.6030
  168SAPE   C1118925   6.133   1.150   5.655 -0.4962 -0.0313 -0.1641
  168SAPE  H11A18926   6.064   1.070   5.622 -0.3781 -0.7018  1.1736
  168SAPE  H11B18927   6.088   1.191   5.748 -0.1549  0.2667 -0.1270
  168SAPE     P18928   6.309   0.967   5.612  0.2292 -0.6586 -0.2111
  168SAPE   O1318929   6.250   0.950   5.474 -0.4630  0.0155 -0.1468
  168SAPE   O1418930   6.458   0.954   5.634 -0.3328 -0.3126 -0.1882
  168SAPE   O1218931   6.268   1.106   5.681  0.0670  0.3618 -0.3458
  168SAPE   O1118932   6.236   0.872   5.710 -0.0635 -0.1653  0.3995
  168SAPE    C118933   6.307   0.751   5.731  0.7401  0.0014 -0.0606
  168SAPE    HA18934   6.332   0.707   5.632  1.3334  2.9722 -1.3658
  168SAPE    HB18935   6.397   0.774   5.791 -0.4709  1.3224  1.3517
  168SAPE    C218936   6.217   0.642   5.811 -0.5174  0.5245  0.1227
  168SAPE    HS18937   6.108   0.661   5.797 -0.6961 -0.8733 -0.5165
  168SAPE   O2118938   6.251   0.655   5.950 -0.2776  0.4392  0.3556
  168SAPE   C2118939   6.177   0.584   6.027  0.3714 -0.9045  0.3332
  168SAPE   O2218940   6.068   0.536   5.993  0.0736  0.2945  0.2873
  168SAPE   C2218941   6.240   0.573   6.171  0.3733  0.1181  0.4699
  168SAPE   H2R18942   6.337   0.520   6.165  1.0616  1.0779  2.4332
  168SAPE   H2S18943   6.247   0.680   6.202 -0.0972  0.5471 -0.8039
  168SAPE    C318944   6.246   0.501   5.757  0.4958  0.0509  0.3657
  168SAPE    HX18945   6.228   0.500   5.647  1.3213  2.6214  0.1476
  168SAPE    HY18946   6.181   0.431   5.814 -0.2839  0.9114  0.5603
  168SAPE   O3118947   6.384   0.471   5.769 -0.0305  0.3055 -0.5915
  168SAPE   C3118948   6.434   0.411   5.871  0.4496 -0.1779 -0.2040
  168SAPE   O3218949   6.383   0.346   5.960  0.1683 -0.7482  0.2849
  168SAPE   C3218950   6.586   0.435   5.865 -0.1264  0.9166 -0.3032
  168SAPE   H2X18951   6.626   0.371   5.783  0.4282  0.0174  0.6564
  168SAPE   H2Y18952   6.637   0.396   5.955  2.0535  1.0618 -1.3979
  168SAPE   C2318953   6.141   0.500   6.268  0.5461 -0.2489  0.3664
  168SAPE   H3R18954   6.159   0.393   6.246  0.5461 -0.5098  1.5633
  168SAPE   H3S18955   6.034   0.521   6.250  0.7892 -0.0663 -0.9204
  168SAPE   C2418956   6.178   0.519   6.416  0.2981 -0.3307  0.6091
  168SAPE   H4R18957   6.139   0.615   6.454 -0.1413  0.2124 -1.1180
  168SAPE   H4S18958   6.289   0.514   6.424  0.2449 -0.6147  1.1983
  168SAPE   C2518959   6.104   0.413   6.497 -0.4032  0.5610 -0.1784
  168SAPE   H5R18960   6.062   0.330   6.438  0.5165 -0.3938  0.4597
  168SAPE   C2618961   6.108   0.402   6.630  0.4716  0.9604  0.5632
  168SAPE   H6R18962   6.057   0.324   6.689  0.9361  1.1838  1.2703
  168SAPE   C2718963   6.167   0.507   6.714 -0.5856 -0.6483  0.1842
  168SAPE   H7R18964   6.231   0.577   6.655 -1.6530 -1.2830 -1.8019
  168SAPE   H7S18965   6.235   0.460   6.788 -1.9470 -0.1828  1.7808
  168SAPE   C2818966   6.078   0.605   6.791  0.4726  0.4523  0.0229
  168SAPE   H8R18967   6.026   0.680   6.730  0.3039  1.0259  0.8542
  168SAPE   C2918968   6.045   0.623   6.919  0.2258 -0.3840 -0.1423
  168SAPE   H9R18969   5.969   0.697   6.947  2.4963  1.9067  0.3229
  168SAPE  C21018970   6.108   0.552   7.037  0.3742  0.0449 -0.2609
  168SAPE  H10R18971   6.122   0.630   7.115 -1.8354 -0.0453  0.3041
  168SAPE  H10S18972   6.205   0.507   7.008 -0.7700 -2.0714 -1.0325
  168SAPE  C21118973   6.014   0.440   7.100 -0.1488 -0.5852  0.1380
  168SAPE  H11R18974   6.006   0.342   7.051  0.5574 -0.5080 -0.1444
  168SAPE  C21218975   5.920   0.471   7.194  0.0611  0.4001 -0.0956
  168SAPE  H12R18976   5.871   0.383   7.239  0.7754 -0.4627 -0.9509
  168SAPE  C21318977   5.894   0.601   7.270 -0.2005 -0.5560  1.0826
  168SAPE  H13R18978   5.977   0.675   7.266 -1.5951  1.1039  1.1813
  168SAPE  H13S18979   5.884   0.564   7.374  0.6054  0.4586  1.5365
  168SAPE  C21418980   5.773   0.682   7.226 -0.1539  0.2190  0.3960
  168SAPE  H14R18981   5.774   0.711   7.120  0.7328  1.3748  0.7032
  168SAPE  C21518982   5.675   0.729   7.303  0.1564 -0.2776  0.2511
  168SAPE  H15R18983   5.599   0.799   7.263  0.9846 -0.5715 -1.9551
  168SAPE  C21618984   5.661   0.708   7.450 -0.0246 -0.1968 -0.4886
  168SAPE  H16R18985   5.641   0.798   7.512 -1.0217 -0.6785 -0.0877
  168SAPE  H16S18986   5.752   0.676   7.505 -0.4243  0.5893  0.6453
  168SAPE  C21718987   5.557   0.609   7.500  0.6027 -0.1073 -0.4305
  168SAPE  H17R18988   5.579   0.507   7.462 -0.7458 -0.5715 -0.0201
  168SAPE  H17S18989   5.461   0.654   7.467  0.5885 -0.1982 -0.5135
  168SAPE  C21818990   5.540   0.612   7.653 -0.2587 -0.8945 -0.0120
  168SAPE  H18R18991   5.515   0.719   7.668  1.6555 -0.5514  1.1719
  168SAPE  H18S18992   5.636   0.600   7.708  0.1937 -2.8170 -1.1476
  168SAPE  C21918993   5.439   0.521   7.715 -0.2784 -0.0378 -0.3421
  168SAPE  H19R18994   5.462   0.413   7.710  3.1623  0.5580 -6.3700
  168SAPE  H19S18995   5.346   0.532   7.655  0.0737 -1.3891 -1.1604
  168SAPE  C22018996   5.405   0.562   7.860  0.0630 -0.7197 -0.3737
  168SAPE  H20R18997   5.486   0.536   7.932  0.2065 -2.1726 -1.0235
  168SAPE  H20S18998   5.312   0.515   7.898  0.3929 -0.4818  0.7883
  168SAPE  H20T18999   5.382   0.670   7.866 -1.3970 -1.0655  0.7343
  168SAPE   C3319000   6.632   0.581   5.854  0.0067 -0.3710  0.6043
  168SAPE   H3X19001   6.582   0.623   5.764 -2.6743 -1.8811  1.3015
  168SAPE   H3Y19002   6.743   0.591   5.845  0.0818  1.9316  2.9567
  168SAPE   C3419003   6.586   0.660   5.977  0.1424 -0.3107 -0.3654
  168SAPE   H4X19004   6.613   0.605   6.070 -3.4598 -2.2080 -0.2693
  168SAPE   H4Y19005   6.476   0.651   5.989  0.3420 -1.6241  0.7284
  168SAPE   C3519006   6.645   0.804   5.972  0.4683 -0.2829  0.7655
  168SAPE   H5X19007   6.617   0.844   5.872  2.2251 -1.5648 -0.2996
  168SAPE   H5Y19008   6.755   0.788   5.967  0.5254  0.2262  0.2602
  168SAPE   C3619009   6.608   0.887   6.094  0.3090 -0.0128  0.3132
  168SAPE   H6X19010   6.608   0.994   6.064 -2.1134 -0.0620 -0.0657
  168SAPE   H6Y19011   6.664   0.860   6.186 -1.7607  0.4511  1.7912
  168SAPE   C3719012   6.462   0.857   6.148  1.1727 -0.3307 -0.4289
  168SAPE   H7X19013   6.453   0.762   6.204  2.6612  0.2932  0.9589
  168SAPE   H7Y19014   6.386   0.858   6.067  1.7741  0.2496 -1.0033
  168SAPE   C3819015   6.422   0.954   6.272  0.2133  0.9116 -0.2241
  168SAPE   H8X19016   6.423   1.055   6.227 -1.9314 -0.0905 -2.7474
  168SAPE   H8Y19017   6.502   0.947   6.350 -0.3919 -0.7804  0.2886
  168SAPE   C3919018   6.281   0.927   6.331  0.6637 -0.4452 -0.2040
  168SAPE   H9X19019   6.256   0.819   6.324 -0.3416 -0.2180 -0.2320
  168SAPE   H9Y19020   6.212   0.971   6.255  0.5512  0.9988  0.6999
  168SAPE  C31019021   6.254   0.981   6.477 -0.0508 -0.6188  0.4056
  168SAPE  H10X19022   6.266   1.090   6.463  1.4236 -0.7465  0.4583
  168SAPE  H10Y19023   6.339   0.953   6.543  0.9531 -0.5203 -0.8072
  168SAPE  C31119024   6.123   0.942   6.552 -0.0504 -0.5971  0.5301
  168SAPE  H11X19025   6.124   0.832   6.567  1.9450 -1.0823 -2.4164
  168SAPE  H11Y19026   6.049   0.963   6.472  1.8960 -1.0686 -1.4734
  168SAPE  C31219027   6.117   1.016   6.682 -0.1030  0.5315  0.5789
  168SAPE  H12X19028   6.137   1.123   6.663  2.9972  0.2919  1.9035
  168SAPE  H12Y19029   6.194   0.988   6.757  1.0405 -1.0076 -1.0865
  168SAPE  C31319030   5.986   1.012   6.767  0.2194 -0.7700  0.2331
  168SAPE  H13X19031   5.971   0.905   6.795 -2.2130 -0.3614  0.6640
  168SAPE  H13Y19032   5.901   1.037   6.700  0.0188  0.8423  1.0495
  168SAPE  C31419033   6.009   1.099   6.886 -0.1399  0.4113  0.1818
  168SAPE  H14X19034   5.998   1.207   6.860  1.6719  0.5185 -0.2551
  168SAPE  H14Y19035   6.115   1.090   6.917 -0.2147 -0.8236  0.1234
  168SAPE  C31519036   5.929   1.048   7.007 -0.3181 -0.3057 -0.4147
  168SAPE  H15X19037   5.960   0.947   7.039 -1.3857  0.0956  2.1838
  168SAPE  H15Y19038   5.819   1.049   6.991 -0.5442 -2.9899  0.5388
  168SAPE  C31619039   5.949   1.139   7.132  0.1033  0.2636  0.3713
  168SAPE  H16X19040   5.969   1.242   7.097 -1.4025  0.1021 -1.0835
  168SAPE  H16Y19041   6.049   1.122   7.177  0.4111  2.5525  0.6728
  168SAPE  C31719042   5.832   1.139   7.234 -0.2555  0.3035 -0.6288
  168SAPE  H17X19043   5.870   1.188   7.327 -2.6541 -0.5398  0.8954
  168SAPE  H17Y19044   5.822   1.032   7.262  0.8105  0.4517  0.4034
  168SAPE  C31819045   5.708   1.216   7.192  0.5877 -0.0495  0.2351
  168SAPE  H18X19046   5.671   1.183   7.093 -2.2677  1.3732  0.7322
  168SAPE  H18Y19047   5.735   1.323   7.175  2.6587 -0.6375 -0.5684
  168SAPE  H18Z19048   5.624   1.207   7.263 -0.4292 -0.3519 -0.9719
  169SAPE     N19049   0.193   3.255   5.553  0.8559 -0.2514  0.3904
  169SAPE   HN119050   0.184   3.296   5.459 -1.0492 -0.4517  0.4464
  169SAPE   HN219051   0.161   3.326   5.622 -2.6250 -0.1014 -1.1394
  169SAPE   HN319052   0.293   3.235   5.574  0.7520  1.3778  2.9050
  169SAPE   C1219053   0.106   3.134   5.553  0.8376  0.2933 -0.3527
  169SAPE  H12A19054   0.164   3.050   5.511  0.7271 -0.2982  0.6519
  169SAPE  H12B19055   0.017   3.155   5.489 -0.3665 -1.7153  0.5703
  169SAPE   C1119056   0.056   3.089   5.688  0.8858 -0.6700 -0.0540
  169SAPE  H11A19057   0.131   3.102   5.769 -0.1928  0.2218  0.8314
  169SAPE  H11B19058   0.030   2.981   5.677 -1.2835 -0.2536  0.5175
  169SAPE     P19059  -0.065   3.306   5.802  0.0819 -0.0344  0.1525
  169SAPE   O1319060   0.052   3.387   5.763  0.2010  0.1177 -0.6115
  169SAPE   O1419061  -0.198   3.369   5.796 -0.2316 -0.0811  0.6417
  169SAPE   O1219062  -0.064   3.163   5.724  0.3431 -0.0047 -0.5045
  169SAPE   O1119063  -0.038   3.251   5.949 -0.2305  0.8538  0.6481
  169SAPE    C119064  -0.144   3.173   6.008 -0.7644  0.1400 -0.1718
  169SAPE    HA19065  -0.240   3.188   5.955 -0.9241  0.5350  0.2246
  169SAPE    HB19066  -0.116   3.066   6.017  0.4530  0.5556  1.4872
  169SAPE    C219067  -0.156   3.216   6.155  0.3344  0.1641 -0.1185
  169SAPE    HS19068  -0.108   3.316   6.158  0.8003  0.1399 -3.3169
  169SAPE   O2119069  -0.062   3.138   6.233 -0.0078  0.0164  0.2028
  169SAPE   C2119070  -0.009   3.199   6.339 -0.5561  0.3822  0.1357
  169SAPE   O2219071  -0.049   3.308   6.377  0.4884 -0.0507 -0.4584
  169SAPE   C2219072   0.098   3.110   6.405 -0.2810  0.2680 -0.4765
  169SAPE   H2R19073   0.153   3.167   6.483  2.3350  0.6552 -2.4354
  169SAPE   H2S19074   0.043   3.030   6.458 -0.0630  0.3880 -0.0618
  169SAPE    C319075  -0.305   3.217   6.209  0.1683  0.1795 -0.2129
  169SAPE    HX19076  -0.368   3.299   6.168 -0.6357 -0.1413  0.3658
  169SAPE    HY19077  -0.308   3.231   6.319  0.9498  2.0231 -0.3992
  169SAPE   O3119078  -0.370   3.086   6.186 -0.3238  0.7276 -0.6993
  169SAPE   C3119079  -0.472   3.087   6.102 -0.0450  0.2543 -0.4078
  169SAPE   O3219080  -0.535   3.185   6.064  0.1574  0.1972 -0.1397
  169SAPE   C3219081  -0.481   2.948   6.041 -0.2782  0.2706 -0.1112
  169SAPE   H2X19082  -0.376   2.930   6.009 -0.2600  0.9313 -0.4321
  169SAPE   H2Y19083  -0.552   2.960   5.957  0.9012  0.8325 -1.0513
  169SAPE   C2319084   0.203   3.055   6.312 -0.1518  0.4589  0.0224
  169SAPE   H3R19085   0.263   3.137   6.267  0.2840  0.5718  0.7906
  169SAPE   H3S19086   0.161   3.004   6.223  3.1034 -1.7478 -0.4016
  169SAPE   C2419087   0.295   2.957   6.380 -0.3044 -0.2591 -0.0911
  169SAPE   H4R19088   0.374   3.018   6.429 -0.1233  0.3985 -1.1520
  169SAPE   H4S19089   0.354   2.897   6.307 -0.2141 -2.3062  1.5848
  169SAPE   C2519090   0.234   2.868   6.485  0.5397  0.5635  0.2988
  169SAPE   H5R19091   0.170   2.790   6.442 -1.1309  0.9389  1.9654
  169SAPE   C2619092   0.235   2.870   6.622  0.0418 -0.5394  0.5617
  169SAPE   H6R19093   0.182   2.794   6.680 -1.2966 -0.6504 -0.7701
  169SAPE   C2719094   0.310   2.966   6.710  0.1628 -0.7008 -0.4550
  169SAPE   H7R19095   0.346   3.056   6.654  0.3495  1.2671  2.5854
  169SAPE   H7S19096   0.403   2.910   6.734  1.4746  0.8541 -1.6099
  169SAPE   C2819097   0.235   3.009   6.835 -0.2662 -0.3023  0.0719
  169SAPE   H8R19098   0.206   3.115   6.844  0.3859 -0.0564 -0.6384
  169SAPE   C2919099   0.211   2.945   6.950 -0.2454  0.1143  0.2690
  169SAPE   H9R19100   0.152   2.997   7.026 -1.3697 -0.5921 -0.0916
  169SAPE  C21019101   0.223   2.799   6.983 -1.0181  0.4165  0.1163
  169SAPE  H10R19102   0.305   2.792   7.058 -2.8022 -1.8316  1.9744
  169SAPE  H10S19103   0.269   2.745   6.897 -0.4382 -0.5852  1.0315
  169SAPE  C21119104   0.096   2.724   7.029  0.0534  0.1972 -0.1682
  169SAPE  H11R19105   0.014   2.725   6.956 -0.2481  1.7031  0.1507
  169SAPE  C21219106   0.073   2.666   7.144  0.1036 -1.2097  0.0754
  169SAPE  H12R19107  -0.026   2.621   7.161 -0.4767 -1.4182 -3.2080
  169SAPE  C21319108   0.171   2.653   7.250 -1.0057 -0.5616 -0.3584
  169SAPE  H13R19109   0.148   2.725   7.331 -1.7314 -1.5026  0.2964
  169SAPE  H13S19110   0.275   2.678   7.221 -1.4225  2.8405  0.5687
  169SAPE  C21419111   0.164   2.506   7.289 -0.9577 -0.1227 -0.3612
  169SAPE  H14R19112   0.206   2.437   7.215  1.0447 -2.4262  2.6864
  169SAPE  C21519113   0.089   2.456   7.388  0.2842 -0.1510  0.2617
  169SAPE  H15R19114   0.077   2.347   7.395 -1.5197  0.0444  1.0652
  169SAPE  C21619115   0.001   2.527   7.487  0.3839 -0.2423 -0.6012
  169SAPE  H16R19116   0.032   2.632   7.503 -2.0777  0.3163  1.0123
  169SAPE  H16S19117   0.009   2.469   7.582 -1.5024  1.7756  0.8875
  169SAPE  C21719118  -0.151   2.536   7.446  0.6088  0.0087  0.3630
  169SAPE  H17R19119  -0.184   2.431   7.431 -3.2021  1.0569  0.3085
  169SAPE  H17S19120  -0.154   2.599   7.354  0.3086  0.6343  0.7942
  169SAPE  C21819121  -0.234   2.603   7.551 -0.2644  0.2109  0.0593
  169SAPE  H18R19122  -0.193   2.702   7.582 -1.3498  0.2729  1.4469
  169SAPE  H18S19123  -0.232   2.550   7.649 -1.7648 -0.7858 -0.4159
  169SAPE  C21919124  -0.383   2.601   7.509 -0.0275  0.2754 -0.6833
  169SAPE  H19R19125  -0.448   2.667   7.571 -1.3959 -0.9126 -0.7901
  169SAPE  H19S19126  -0.423   2.498   7.522  1.2490 -0.1694 -0.1824
  169SAPE  C22019127  -0.424   2.655   7.370  0.8829 -0.1495 -0.1711
  169SAPE  H20R19128  -0.529   2.691   7.368  1.2472  1.2532  2.2827
  169SAPE  H20S19129  -0.405   2.573   7.297 -0.9299 -0.3802 -0.4244
  169SAPE  H20T19130  -0.360   2.743   7.345  0.8698 -0.0377  0.1886
  169SAPE   C3319131  -0.529   2.839   6.141  0.1977 -0.1732 -0.7559
  169SAPE   H3X19132  -0.479   2.841   6.240  1.1243  0.9694 -1.2199
  169SAPE   H3Y19133  -0.502   2.740   6.100  0.4592 -0.7998  0.8453
  169SAPE   C3419134  -0.679   2.839   6.168 -0.1689  0.4232  0.5770
  169SAPE   H4X19135  -0.730   2.836   6.069 -1.7618 -1.8267  1.3502
  169SAPE   H4Y19136  -0.699   2.935   6.219  0.4488 -0.8719  3.4932
  169SAPE   C3519137  -0.727   2.715   6.253 -0.2189 -0.4616  0.7950
  169SAPE   H5X19138  -0.701   2.622   6.198 -1.3996  0.4388 -1.4077
  169SAPE   H5Y19139  -0.837   2.729   6.269 -0.7959 -1.3532 -1.8457
  169SAPE   C3619140  -0.658   2.719   6.395  0.4227 -0.0372  0.3803
  169SAPE   H6X19141  -0.664   2.825   6.428  0.4742  0.8413 -2.1871
  169SAPE   H6Y19142  -0.552   2.686   6.389  0.6620  0.4740  1.5315
  169SAPE   C3719143  -0.726   2.631   6.505 -0.0987 -0.4728 -0.6998
  169SAPE   H7X19144  -0.706   2.526   6.475 -1.9823 -0.7061 -1.2058
  169SAPE   H7Y19145  -0.834   2.648   6.525  0.0569  0.1109 -0.3026
  169SAPE   C3819146  -0.657   2.654   6.644  0.0860  0.8419 -0.5796
  169SAPE   H8X19147  -0.550   2.623   6.641 -0.4648 -1.5183  1.5576
  169SAPE   H8Y19148  -0.715   2.595   6.717  3.0672 -0.4812  0.8642
  169SAPE   C3919149  -0.671   2.793   6.706  0.4198 -0.1634  0.7291
  169SAPE   H9X19150  -0.628   2.864   6.632  0.3269 -1.7782 -0.9610
  169SAPE   H9Y19151  -0.612   2.799   6.799  0.9003 -0.0909  0.4222
  169SAPE  C31019152  -0.818   2.824   6.736 -0.3654 -0.2604  0.1241
  169SAPE  H10X19153  -0.863   2.725   6.758  1.6354 -1.2988 -0.2431
  169SAPE  H10Y19154  -0.863   2.860   6.641 -0.3080  0.4376  0.3538
  169SAPE  C31119155  -0.844   2.919   6.862 -0.4360 -0.1696 -0.7965
  169SAPE  H11X19156  -0.947   2.961   6.860 -0.7479 -0.8638  0.1439
  169SAPE  H11Y19157  -0.793   3.015   6.836 -1.6034  0.6924 -0.0082
  169SAPE  C31219158  -0.807   2.855   6.984 -0.3636  0.0565 -0.1534
  169SAPE  H12X19159  -0.696   2.852   6.983 -0.3604  0.0450  0.1518
  169SAPE  H12Y19160  -0.853   2.755   6.997 -1.7939  0.7969  0.7934
  169SAPE  C31319161  -0.836   2.932   7.123  0.0262  0.2270 -0.7340
  169SAPE  H13X19162  -0.945   2.946   7.142  0.1460 -1.9354  2.0180
  169SAPE  H13Y19163  -0.798   3.036   7.113  2.8216 -0.4122  1.8694
  169SAPE  C31419164  -0.775   2.861   7.247 -0.1172  0.2583  0.6797
  169SAPE  H14X19165  -0.667   2.857   7.222 -0.7721  0.9432 -2.7862
  169SAPE  H14Y19166  -0.821   2.760   7.256 -0.5367  0.3969  0.1511
  169SAPE  C31519167  -0.801   2.932   7.380  0.2056 -0.2522  0.0449
  169SAPE  H15X19168  -0.912   2.934   7.385  0.1658 -0.1917 -0.6759
  169SAPE  H15Y19169  -0.757   3.035   7.381  1.4043 -0.7049  2.6609
  169SAPE  C31619170  -0.758   2.843   7.505 -0.1117 -0.0916  0.5198
  169SAPE  H16X19171  -0.648   2.827   7.498 -0.0759  0.4478 -0.2855
  169SAPE  H16Y19172  -0.819   2.751   7.494 -0.5665  0.3752 -1.1409
  169SAPE  C31719173  -0.775   2.909   7.640  0.4557 -0.5142  0.2567
  169SAPE  H17X19174  -0.879   2.930   7.672  0.7263  1.6549 -0.1431
  169SAPE  H17Y19175  -0.729   3.010   7.646  1.9001 -1.2096  2.4653
  169SAPE  C31819176  -0.706   2.828   7.758 -0.2185  0.2556  0.2669
  169SAPE  H18X19177  -0.738   2.722   7.749 -2.8129  1.1247 -2.5025
  169SAPE  H18Y19178  -0.737   2.873   7.855  0.1069  0.5020  0.2580
  169SAPE  H18Z19179  -0.597   2.847   7.751 -0.6143  3.3238  0.8300
  170SAPE     N19180   6.279   0.107   5.446  0.1575  0.2507 -0.0813
  170SAPE   HN119181   6.197   0.109   5.510  0.6993  2.1989  0.6411
  170SAPE   HN219182   6.254   0.108   5.345  1.0068  2.0840 -0.3253
  170SAPE   HN319183   6.335   0.022   5.465  0.5834  0.2613 -1.2409
  170SAPE   C1219184   6.379   0.215   5.474  0.0495  0.2125  0.5045
  170SAPE  H12A19185   6.339   0.318   5.485  2.5499  1.1534  1.4383
  170SAPE  H12B19186   6.446   0.201   5.386 -1.1928 -3.5536 -0.0396
  170SAPE   C1119187   6.462   0.177   5.600  0.1393  0.7427  0.5041
  170SAPE  H11A19188   6.392   0.179   5.686  0.1188 -1.5711  0.6193
  170SAPE  H11B19189   6.547   0.247   5.612  0.7884 -0.1016  0.9891
  170SAPE     P19190   6.651   0.015   5.532  0.1452 -0.2123 -0.0172
  170SAPE   O1319191   6.664  -0.129   5.505 -0.0146 -0.5088  0.2042
  170SAPE   O1419192   6.670   0.102   5.413 -0.2331  0.2188  0.0161
  170SAPE   O1219193   6.511   0.043   5.592 -0.1919 -0.1876  0.1540
  170SAPE   O1119194   6.742   0.048   5.655 -0.1125 -0.5585 -0.6757
  170SAPE    C119195   6.707   0.018   5.792  0.6031  0.3139 -0.2907
  170SAPE    HA19196   6.773   0.076   5.860  1.9657 -0.5317 -0.8512
  170SAPE    HB19197   6.602   0.032   5.825  1.0732 -1.3275  2.1719
  170SAPE    C219198   6.750  -0.125   5.832 -0.0331  0.0604  0.4660
  170SAPE    HS19199   6.712  -0.197   5.756  3.4535 -0.9582 -0.5549
  170SAPE   O2119200   6.704  -0.142   5.967 -0.0318  0.2318  0.4911
  170SAPE   C2119201   6.669  -0.260   6.013 -0.7584  0.7333  0.2265
  170SAPE   O2219202   6.687  -0.364   5.952 -0.0582  0.4786 -0.1626
  170SAPE   C2219203   6.602  -0.252   6.151  0.2460  0.1495  0.2868
  170SAPE   H2R19204   6.563  -0.148   6.156 -0.4528 -0.0760 -0.3995
  170SAPE   H2S19205   6.517  -0.324   6.152  0.6329 -0.3308  2.0197
  170SAPE    C319206   6.907  -0.139   5.824 -0.0794 -0.3345 -0.1453
  170SAPE    HX19207   6.938  -0.101   5.725  1.5117 -0.4563  0.2711
  170SAPE    HY19208   6.925  -0.249   5.820  0.5963 -0.3398  1.8167
  170SAPE   O3119209   6.976  -0.076   5.932 -0.0596 -0.3781  0.2251
  170SAPE   C3119210   7.050   0.028   5.903  0.4162 -0.5206 -0.3502
  170SAPE   O3219211   7.067   0.081   5.794  0.2393  0.0808  0.0384
  170SAPE   C3219212   7.111   0.070   6.039 -0.2925 -0.3729  0.5353
  170SAPE   H2X19213   7.136   0.178   6.033  0.1451 -0.5536 -1.7687
  170SAPE   H2Y19214   7.203   0.008   6.046 -0.6673 -1.1677 -1.0321
  170SAPE   C2319215   6.693  -0.296   6.261 -0.5489 -0.0738 -0.5297
  170SAPE   H3R19216   6.780  -0.229   6.276 -1.1384  0.3746  1.1560
  170SAPE   H3S19217   6.730  -0.400   6.247 -0.4376 -0.7371  3.6110
  170SAPE   C2419218   6.642  -0.296   6.411 -0.3446 -0.3071 -0.3361
  170SAPE   H4R19219   6.722  -0.344   6.472 -0.4453  1.3906  1.2428
  170SAPE   H4S19220   6.554  -0.363   6.417 -2.8829  2.9167  1.7206
  170SAPE   C2519221   6.606  -0.165   6.477  0.1262  0.2185 -0.2482
  170SAPE   H5R19222   6.521  -0.117   6.425 -0.9234 -0.0796  1.1447
  170SAPE   C2619223   6.673  -0.105   6.572  0.2753 -0.2369  0.0583
  170SAPE   H6R19224   6.629  -0.015   6.616 -2.6431 -1.1351 -0.8097
  170SAPE   C2719225   6.801  -0.161   6.638  0.7544  0.2415  0.2296
  170SAPE   H7R19226   6.786  -0.265   6.676  0.1005  0.6641  1.1561
  170SAPE   H7S19227   6.812  -0.112   6.736  1.9320 -0.6553  0.5669
  170SAPE   C2819228   6.937  -0.150   6.567  0.4137  0.0645  0.2753
  170SAPE   H8R19229   6.936  -0.088   6.476 -2.8389 -2.3556 -1.5204
  170SAPE   C2919230   7.046  -0.214   6.602 -0.0268 -0.0400  0.2700
  170SAPE   H9R19231   7.136  -0.189   6.544 -1.4129  0.6249 -1.6842
  170SAPE  C21019232   7.066  -0.316   6.719 -0.4262  0.3315  0.3282
  170SAPE  H10R19233   7.153  -0.385   6.709  0.1218  1.2358 -1.7452
  170SAPE  H10S19234   6.984  -0.391   6.714  0.5190 -0.7192  0.2857
  170SAPE  C21119235   7.081  -0.245   6.856  0.5330 -0.5935 -0.0193
  170SAPE  H11R19236   7.019  -0.154   6.857  1.3355 -0.0337 -0.3484
  170SAPE  C21219237   7.172  -0.277   6.953 -0.0291 -0.1180  0.5091
  170SAPE  H12R19238   7.177  -0.218   7.046 -0.5453  0.5389  0.1280
  170SAPE  C21319239   7.276  -0.387   6.940  0.6871  0.5103 -0.1195
  170SAPE  H13R19240   7.323  -0.371   6.841  0.7086  0.7625 -0.0703
  170SAPE  H13S19241   7.228  -0.486   6.928  1.0072  0.5187 -1.6641
  170SAPE  C21419242   7.382  -0.391   7.048 -0.4615 -0.1703  0.3295
  170SAPE  H14R19243   7.435  -0.295   7.060 -1.3571  0.8366 -2.7829
  170SAPE  C21519244   7.437  -0.500   7.102 -0.2378 -0.1131 -0.1735
  170SAPE  H15R19245   7.519  -0.475   7.171 -2.5707  1.9099  2.0427
  170SAPE  C21619246   7.408  -0.650   7.076  0.7999 -0.1110 -0.1723
  170SAPE  H16R19247   7.371  -0.675   6.974  0.6077 -0.4095 -0.0306
  170SAPE  H16S19248   7.321  -0.661   7.144  1.0629 -1.7456 -0.0507
  170SAPE  C21719249   7.518  -0.758   7.090  0.1706  0.1869 -0.6023
  170SAPE  H17R19250   7.475  -0.860   7.093  0.7850 -0.0598  0.0595
  170SAPE  H17S19251   7.573  -0.747   7.186  1.8182  0.7271 -1.5665
  170SAPE  C21819252   7.625  -0.744   6.976 -0.5030  0.1495 -0.5890
  170SAPE  H18R19253   7.677  -0.647   6.990 -0.4773  0.2195 -1.1458
  170SAPE  H18S19254   7.566  -0.748   6.882  2.7808  0.2232 -2.8149
  170SAPE  C21919255   7.723  -0.860   6.975  0.4090 -0.3474  0.1640
  170SAPE  H19R19256   7.783  -0.871   6.882 -0.0968 -0.7990 -0.1120
  170SAPE  H19S19257   7.663  -0.952   6.990  0.4597 -0.2871  0.7655
  170SAPE  C22019258   7.830  -0.853   7.085 -0.4886 -0.4286  0.2535
  170SAPE  H20R19259   7.788  -0.878   7.185  0.2916 -0.0709  0.6860
  170SAPE  H20S19260   7.877  -0.753   7.094  1.2159 -1.2387  0.8300
  170SAPE  H20T19261   7.901  -0.933   7.054  0.8039  0.3568  1.0566
  170SAPE   C3319262   7.013   0.056   6.161  0.1841 -0.6137  0.8842
  170SAPE   H3X19263   7.074   0.059   6.253 -0.1465  1.5145  1.0810
  170SAPE   H3Y19264   6.970  -0.046   6.171 -1.6141  0.3548  4.5049
  170SAPE   C3419265   6.905   0.164   6.174  0.2723 -0.4000  0.0019
  170SAPE   H4X19266   6.865   0.180   6.071  0.9750 -2.7227 -0.6892
  170SAPE   H4Y19267   6.941   0.263   6.209 -2.1753  0.2611  0.8590
  170SAPE   C3519268   6.774   0.133   6.257 -0.6699  0.1011  0.5251
  170SAPE   H5X19269   6.793   0.113   6.365 -0.2694  0.5909  0.5487
  170SAPE   H5Y19270   6.725   0.044   6.212  2.4981 -1.9642  0.8322
  170SAPE   C3619271   6.668   0.245   6.274  0.6190 -0.1822 -0.0760
  170SAPE   H6X19272   6.643   0.302   6.182  0.8995  0.4383  0.2239
  170SAPE   H6Y19273   6.719   0.317   6.342 -0.6613  0.8087 -0.1268
  170SAPE   C3719274   6.538   0.202   6.347 -0.3274  0.5043  0.4926
  170SAPE   H7X19275   6.574   0.144   6.434 -1.0329 -1.7268 -0.6310
  170SAPE   H7Y19276   6.479   0.138   6.278 -0.6216  0.5037  0.7455
  170SAPE   C3819277   6.462   0.318   6.415  0.6689  0.8087 -0.2263
  170SAPE   H8X19278   6.358   0.288   6.441  0.7819  0.3649 -0.2922
  170SAPE   H8Y19279   6.457   0.399   6.338 -0.1797 -1.2771 -2.4922
  170SAPE   C3919280   6.527   0.364   6.541 -0.3306  0.3998  0.3230
  170SAPE   H9X19281   6.488   0.466   6.564 -0.4889  0.5709 -0.6538
  170SAPE   H9Y19282   6.637   0.362   6.533 -0.4564  0.1085 -1.9536
  170SAPE  C31019283   6.483   0.286   6.660  0.0320 -0.1700 -0.3597
  170SAPE  H10X19284   6.509   0.179   6.644 -2.5721 -1.2551  1.8907
  170SAPE  H10Y19285   6.373   0.294   6.671 -0.1883 -1.9250 -0.9347
  170SAPE  C31119286   6.550   0.336   6.791  0.0566  0.1814 -0.0055
  170SAPE  H11X19287   6.510   0.438   6.812 -0.1354 -0.3241  2.4127
  170SAPE  H11Y19288   6.660   0.327   6.778 -0.1929  0.0872 -2.5226
  170SAPE  C31219289   6.518   0.243   6.912 -0.4075 -0.6409  0.5176
  170SAPE  H12X19290   6.407   0.241   6.921 -0.5553  0.5231 -0.7214
  170SAPE  H12Y19291   6.573   0.281   7.000  0.0930 -0.6335  0.2088
  170SAPE  C31319292   6.560   0.102   6.879  0.1424 -0.0703 -0.7674
  170SAPE  H13X19293   6.668   0.094   6.855  0.5674 -0.0273  0.9795
  170SAPE  H13Y19294   6.498   0.063   6.796  0.4382 -0.0059 -1.0190
  170SAPE  C31419295   6.536   0.004   6.996  0.1710  0.5254 -0.9079
  170SAPE  H14X19296   6.455   0.036   7.065  2.0432  1.4833  0.9344
  170SAPE  H14Y19297   6.626   0.016   7.060 -1.1580  1.0178  0.9529
  170SAPE  C31519298   6.516  -0.136   6.950  0.1353 -0.3967  0.1492
  170SAPE  H15X19299   6.594  -0.168   6.878  0.0231 -1.5626  0.5193
  170SAPE  H15Y19300   6.419  -0.153   6.899  0.3974 -0.9503 -0.1763
  170SAPE  C31619301   6.522  -0.231   7.079 -0.2080 -0.5241  0.1482
  170SAPE  H16X19302   6.475  -0.173   7.161 -0.8485 -1.3109  0.3575
  170SAPE  H16Y19303   6.631  -0.236   7.095  0.1357  1.8963 -1.0163
  170SAPE  C31719304   6.454  -0.363   7.034  0.2682  0.7515 -0.7913
  170SAPE  H17X19305   6.500  -0.393   6.937 -0.6846 -0.0043 -1.0301
  170SAPE  H17Y19306   6.344  -0.344   7.028 -0.2408 -1.5537  0.2405
  170SAPE  C31819307   6.456  -0.482   7.127  0.0127 -0.3492  0.0190
  170SAPE  H18X19308   6.429  -0.583   7.090  1.8937 -0.8814 -0.0131
  170SAPE  H18Y19309   6.386  -0.467   7.212 -0.9374 -0.2029 -0.7726
  170SAPE  H18Z19310   6.551  -0.499   7.182  1.3591  2.8403 -1.1370
  171SAPE     N19311   0.234   0.930   5.493  0.0557 -0.2704  0.1980
  171SAPE   HN119312   0.172   0.847   5.497  0.8425 -0.8986 -0.4137
  171SAPE   HN219313   0.248   0.958   5.592  0.0278 -0.6323  0.3045
  171SAPE   HN319314   0.180   1.011   5.456  0.5258 -0.3366 -0.6437
  171SAPE   C1219315   0.365   0.909   5.416  0.4075 -0.0389  0.6728
  171SAPE  H12A19316   0.403   1.008   5.385  1.5347 -0.2931  1.2037
  171SAPE  H12B19317   0.333   0.845   5.331 -0.9641 -0.3516  1.3938
  171SAPE   C1119318   0.453   0.823   5.504  0.3225 -0.6808  0.6940
  171SAPE  H11A19319   0.534   0.783   5.440 -0.7007 -1.5353 -0.1041
  171SAPE  H11B19320   0.396   0.736   5.544 -0.3854 -0.9991 -0.9489
  171SAPE     P19321   0.647   0.953   5.621 -0.2561 -0.0702 -0.2256
  171SAPE   O1319322   0.728   0.902   5.510  0.3914  0.6585 -0.2552
  171SAPE   O1419323   0.642   1.103   5.634  0.1249 -0.4697 -0.1188
  171SAPE   O1219324   0.497   0.900   5.619 -0.2943 -0.3534  0.5143
  171SAPE   O1119325   0.693   0.894   5.757  0.1594  0.5189 -1.4173
  171SAPE    C119326   0.605   0.828   5.856  0.2568  0.2193  0.3456
  171SAPE    HA19327   0.551   0.740   5.815  3.3301 -2.1835  1.0167
  171SAPE    HB19328   0.668   0.783   5.936 -1.1760  1.6269  2.3521
  171SAPE    C219329   0.513   0.935   5.924  0.3526  0.2432  0.5915
  171SAPE    HS19330   0.439   0.961   5.845  1.6013  0.6691 -0.4789
  171SAPE   O2119331   0.597   1.046   5.952 -0.3181  0.2454  0.2170
  171SAPE   C2119332   0.557   1.167   5.927  0.2083 -0.6822  0.7681
  171SAPE   O2219333   0.448   1.196   5.872  0.1232 -0.1684 -0.3120
  171SAPE   C2219334   0.659   1.269   5.965  0.2625 -0.3654 -0.2130
  171SAPE   H2R19335   0.758   1.221   5.946 -1.5912 -4.8618  0.3501
  171SAPE   H2S19336   0.641   1.347   5.887 -0.0445  1.2745  1.4317
  171SAPE    C319337   0.444   0.882   6.053 -0.5232  0.2496 -1.0851
  171SAPE    HX19338   0.355   0.825   6.019 -0.6067 -0.8201  0.7610
  171SAPE    HY19339   0.408   0.973   6.105 -1.6321 -0.7400 -0.0781
  171SAPE   O3119340   0.535   0.813   6.139 -0.5853 -0.0898 -0.6070
  171SAPE   C3119341   0.532   0.845   6.275  0.3573 -0.4579  0.3887
  171SAPE   O3219342   0.453   0.920   6.329 -0.7471 -0.6761 -0.0410
  171SAPE   C3219343   0.640   0.768   6.341  0.5652 -0.9534  0.3427
  171SAPE   H2X19344   0.732   0.830   6.338 -0.1321  0.2430 -3.9712
  171SAPE   H2Y19345   0.653   0.671   6.287  0.4268  0.6678 -2.8489
  171SAPE   C2319346   0.651   1.319   6.111  0.2343 -0.0745 -0.5086
  171SAPE   H3R19347   0.547   1.352   6.130  0.4388  0.4761 -0.3511
  171SAPE   H3S19348   0.710   1.410   6.132  1.4217 -0.0026 -3.5881
  171SAPE   C2419349   0.696   1.216   6.207  0.9874 -0.2035  0.2514
  171SAPE   H4R19350   0.647   1.118   6.187  0.3861  0.2736 -0.6962
  171SAPE   H4S19351   0.672   1.253   6.309 -1.3110 -0.8583  0.0088
  171SAPE   C2519352   0.845   1.194   6.194 -0.2362 -0.2380 -0.1326
  171SAPE   H5R19353   0.881   1.199   6.090  0.2695  0.9408  0.0859
  171SAPE   C2619354   0.936   1.196   6.297  0.5502 -0.6594 -0.3081
  171SAPE   H6R19355   1.044   1.181   6.287  1.1143  1.6214  1.6729
  171SAPE   C2719356   0.900   1.227   6.442  0.3326  0.1063  0.2173
  171SAPE   H7R19357   0.824   1.306   6.461 -0.5441 -0.6710 -0.0259
  171SAPE   H7S19358   0.993   1.267   6.488  1.3275 -0.2473 -1.4067
  171SAPE   C2819359   0.872   1.094   6.515 -0.1408 -0.4805 -0.5298
  171SAPE   H8R19360   0.932   1.008   6.483  0.5363  0.2887 -1.3952
  171SAPE   C2919361   0.771   1.063   6.598  0.6820  0.5590 -0.2028
  171SAPE   H9R19362   0.763   0.960   6.636  0.9115  0.0597 -1.4544
  171SAPE  C21019363   0.664   1.158   6.645 -0.1908 -0.0768 -0.7075
  171SAPE  H10R19364   0.674   1.257   6.595  0.2954  1.3239  1.9957
  171SAPE  H10S19365   0.689   1.183   6.751  1.1152 -0.0982 -0.9883
  171SAPE  C21119366   0.520   1.107   6.634  0.5036 -0.6789  0.7438
  171SAPE  H11R19367   0.474   1.116   6.535 -0.5745  0.9758  1.3298
  171SAPE  C21219368   0.432   1.062   6.726 -0.2843  0.7851  0.7693
  171SAPE  H12R19369   0.343   1.015   6.681 -2.0297  3.5160  1.1343
  171SAPE  C21319370   0.449   1.032   6.871  0.7399 -0.0426  0.4454
  171SAPE  H13R19371   0.543   1.074   6.912  1.0855  0.0043 -0.3700
  171SAPE  H13S19372   0.432   0.925   6.898  2.3232 -0.2750  0.6310
  171SAPE  C21419373   0.338   1.117   6.939 -0.8846 -0.0268  0.2478
  171SAPE  H14R19374   0.367   1.217   6.976  1.2613  0.1938 -1.7998
  171SAPE  C21519375   0.211   1.081   6.966 -0.0284 -0.0196 -0.4015
  171SAPE  H15R19376   0.151   1.155   7.020 -0.0366 -0.1876 -0.1820
  171SAPE  C21619377   0.149   0.948   6.922  0.5932 -0.0580  0.6144
  171SAPE  H16R19378   0.212   0.894   6.848 -0.1829  1.2522 -1.0594
  171SAPE  H16S19379   0.059   0.972   6.862 -0.3463  3.2641  3.0968
  171SAPE  C21719380   0.104   0.849   7.034 -0.8647 -0.1898 -0.5283
  171SAPE  H17R19381   0.088   0.752   6.983 -3.3428  0.2327 -0.6594
  171SAPE  H17S19382   0.008   0.892   7.070  0.6580  2.9017  0.1439
  171SAPE  C21819383   0.202   0.833   7.153 -0.3246 -0.3792 -0.3093
  171SAPE  H18R19384   0.215   0.934   7.196 -1.1691 -0.6574  0.6642
  171SAPE  H18S19385   0.295   0.786   7.113 -1.3964 -1.2741 -1.8917
  171SAPE  C21919386   0.155   0.743   7.269  0.2632  0.9174  0.9580
  171SAPE  H19R19387   0.231   0.706   7.341  0.8257 -1.7959 -0.8619
  171SAPE  H19S19388   0.118   0.644   7.233 -1.0939  1.8003 -0.1721
  171SAPE  C22019389   0.034   0.791   7.353 -0.5358  0.2894 -0.0544
  171SAPE  H20R19390  -0.010   0.710   7.416  1.9943 -0.3653  1.0098
  171SAPE  H20S19391  -0.041   0.840   7.288  0.6792 -0.2282 -1.9386
  171SAPE  H20T19392   0.070   0.872   7.420 -0.8668  0.3530  0.0473
  171SAPE   C3319393   0.604   0.746   6.490 -0.6021  0.5913 -0.4374
  171SAPE   H3X19394   0.576   0.840   6.541 -1.6397 -0.0392  0.2007
  171SAPE   H3Y19395   0.695   0.718   6.548 -1.9482 -0.8349  1.0916
  171SAPE   C3419396   0.492   0.645   6.511 -0.0027 -0.2268 -0.3626
  171SAPE   H4X19397   0.527   0.569   6.438  2.8221 -0.0335  0.6688
  171SAPE   H4Y19398   0.392   0.691   6.491  0.6021  1.4207  0.2246
  171SAPE   C3519399   0.487   0.566   6.643 -0.7034  0.7440 -0.0680
  171SAPE   H5X19400   0.587   0.527   6.673 -0.5708 -1.4842 -2.9751
  171SAPE   H5Y19401   0.424   0.476   6.628 -1.5618  1.5060 -1.2990
  171SAPE   C3619402   0.430   0.658   6.751 -0.1465 -0.7890 -0.0355
  171SAPE   H6X19403   0.342   0.711   6.709 -1.1878 -1.0052  1.7713
  171SAPE   H6Y19404   0.509   0.730   6.780 -0.0882 -0.2121 -1.5576
  171SAPE   C3719405   0.362   0.599   6.872 -0.3846  0.3036  0.0790
  171SAPE   H7X19406   0.285   0.528   6.835 -1.4898  1.6718 -0.2970
  171SAPE   H7Y19407   0.321   0.687   6.924 -0.7529 -0.7237  1.5735
  171SAPE   C3819408   0.460   0.539   6.975 -0.1584  0.0913  0.9059
  171SAPE   H8X19409   0.512   0.627   7.017  2.0021  0.1282 -1.6290
  171SAPE   H8Y19410   0.536   0.473   6.927  0.5232  0.2573  1.7545
  171SAPE   C3919411   0.382   0.452   7.080  0.2333 -0.2924 -0.1233
  171SAPE   H9X19412   0.362   0.356   7.027 -0.0379  0.1153 -0.7726
  171SAPE   H9Y19413   0.285   0.499   7.106 -0.5424 -0.5187 -2.3886
  171SAPE  C31019414   0.464   0.424   7.209  0.6268 -0.0821  0.3976
  171SAPE  H10X19415   0.490   0.520   7.258 -1.3505  1.3815 -1.2405
  171SAPE  H10Y19416   0.556   0.377   7.168  1.1797  1.1522  0.2056
  171SAPE  C31119417   0.380   0.340   7.307 -0.1617  0.3604 -1.1508
  171SAPE  H11X19418   0.317   0.261   7.262  0.6043 -1.5734  1.0048
  171SAPE  H11Y19419   0.312   0.410   7.361 -1.0619 -0.8327 -0.6971
  171SAPE  C31219420   0.463   0.266   7.416 -1.0781 -0.9490  0.0541
  171SAPE  H12X19421   0.545   0.208   7.369 -0.9438  0.4277 -1.5082
  171SAPE  H12Y19422   0.391   0.188   7.450 -1.8384  0.3780  1.6769
  171SAPE  C31319423   0.523   0.350   7.529  1.0271 -0.0822  1.1071
  171SAPE  H13X19424   0.449   0.429   7.556  0.2639  0.0065 -1.1128
  171SAPE  H13Y19425   0.614   0.406   7.497  0.7557 -1.4056 -2.3428
  171SAPE  C31419426   0.553   0.263   7.648 -0.0436  0.6001 -0.4473
  171SAPE  H14X19427   0.647   0.210   7.623  0.8714  2.0969 -0.3018
  171SAPE  H14Y19428   0.468   0.196   7.674  0.9305  0.1818  1.8823
  171SAPE  C31519429   0.578   0.321   7.780 -0.4602  0.4050 -0.2466
  171SAPE  H15X19430   0.479   0.366   7.801 -0.9688 -1.1381  0.8187
  171SAPE  H15Y19431   0.655   0.398   7.757 -1.7657  1.7164 -0.4165
  171SAPE  C31619432   0.631   0.229   7.893 -0.4219 -0.1180  0.3771
  171SAPE  H16X19433   0.683   0.141   7.849 -1.2826 -0.8749  0.8301
  171SAPE  H16Y19434   0.547   0.194   7.957 -0.2909  0.6483  0.9784
  171SAPE  C31719435   0.730   0.291   7.993  0.3454  0.0401 -0.7499
  171SAPE  H17X19436   0.743   0.231   8.086 -0.6063 -0.2551 -0.7867
  171SAPE  H17Y19437   0.675   0.382   8.025 -1.8022 -2.5422  3.9820
  171SAPE  C31819438   0.869   0.325   7.939 -1.0196 -0.1523 -0.1359
  171SAPE  H18X19439   0.916   0.236   7.891 -1.4788  0.3729 -1.6412
  171SAPE  H18Y19440   0.929   0.362   8.024  0.2067 -0.4998 -0.8234
  171SAPE  H18Z19441   0.866   0.407   7.864 -1.5209  1.9136  2.0222
  172SAPE     N19442   6.768   6.529   5.594 -0.6927  0.2468 -0.1528
  172SAPE   HN119443   6.700   6.572   5.659  1.4717 -0.8206  3.0372
  172SAPE   HN219444   6.717   6.460   5.534 -2.1956  1.4731 -0.3485
  172SAPE   HN319445   6.842   6.485   5.652 -0.4574 -0.0173 -0.6398
  172SAPE   C1219446   6.839   6.627   5.511  0.6515 -0.1017  0.7560
  172SAPE  H12A19447   6.777   6.670   5.430  0.9362 -2.8331 -1.0149
  172SAPE  H12B19448   6.928   6.583   5.462  1.6387  2.5159  0.0302
  172SAPE   C1119449   6.886   6.738   5.604 -0.1454 -0.3829 -0.0564
  172SAPE  H11A19450   6.804   6.811   5.619  0.2393  0.2451 -0.8627
  172SAPE  H11B19451   6.965   6.791   5.545 -1.4127  0.1509 -1.3332
  172SAPE     P19452   7.086   6.612   5.716 -0.0264 -0.1498  0.0369
  172SAPE   O1319453   7.056   6.489   5.647 -0.0195  0.4329  0.0429
  172SAPE   O1419454   7.179   6.708   5.650 -0.1059 -0.1315 -0.3796
  172SAPE   O1219455   6.941   6.690   5.726 -0.3787  0.3007 -0.0293
  172SAPE   O1119456   7.119   6.576   5.866  0.1846 -0.2346 -0.0950
  172SAPE    C119457   7.063   6.657   5.974 -0.1460 -0.4497 -0.4676
  172SAPE    HA19458   6.957   6.683   5.953 -0.0927  1.3480  1.1811
  172SAPE    HB19459   7.052   6.603   6.071  0.6002  1.8479  0.9692
  172SAPE    C219460   7.143   6.781   6.018 -0.7801  0.0152  0.3616
  172SAPE    HS19461   7.169   6.833   5.923  0.6969 -0.7465  0.3243
  172SAPE   O2119462   7.257   6.736   6.090 -0.3125 -0.4466  0.5131
  172SAPE   C2119463   7.346   6.834   6.087  0.3220  0.0532  0.4121
  172SAPE   O2219464   7.336   6.944   6.037 -0.3528  0.0679  0.4152
  172SAPE   C2219465   7.477   6.777   6.147 -0.4130  0.2989 -0.6362
  172SAPE   H2R19466   7.464   6.734   6.249  2.8425 -1.7090 -0.8993
  172SAPE   H2S19467   7.516   6.689   6.090  2.3466 -0.4607  2.1563
  172SAPE    C319468   7.053   6.873   6.102  0.3693  0.3214 -0.1673
  172SAPE    HX19469   6.969   6.901   6.034  0.2172 -1.0694 -0.5921
  172SAPE    HY19470   7.095   6.971   6.132  2.3680 -0.5529  0.0200
  172SAPE   O3119471   7.000   6.790   6.204  0.6521 -0.2342  0.0680
  172SAPE   C3119472   7.064   6.781   6.322 -0.2466  0.1924  0.8852
  172SAPE   O3219473   7.167   6.840   6.348  0.3130  0.9137 -0.2101
  172SAPE   C3219474   7.010   6.658   6.396  0.4209  0.1368  0.1315
  172SAPE   H2X19475   6.964   6.586   6.326  0.6085  1.5782 -1.5302
  172SAPE   H2Y19476   6.933   6.702   6.463 -1.1961  0.1935 -1.6758
  172SAPE   C2319477   7.590   6.878   6.154 -0.3961  0.4192  0.1994
  172SAPE   H3R19478   7.583   6.945   6.067 -2.4372 -0.6571 -0.5280
  172SAPE   H3S19479   7.686   6.823   6.145 -0.0911  0.7649  1.1753
  172SAPE   C2419480   7.615   6.954   6.286  0.8525 -0.2215  0.0655
  172SAPE   H4R19481   7.713   7.007   6.278  2.7887 -3.2078  1.9526
  172SAPE   H4S19482   7.636   6.881   6.367  0.7254  0.8027  1.0548
  172SAPE   C2519483   7.486   7.033   6.307 -0.0820  0.4708 -0.0555
  172SAPE   H5R19484   7.451   7.085   6.216  0.2586  0.7179 -0.0467
  172SAPE   C2619485   7.416   7.047   6.418 -0.0039 -0.5004 -1.0633
  172SAPE   H6R19486   7.335   7.120   6.427 -2.0797 -2.8131  0.1209
  172SAPE   C2719487   7.462   6.981   6.553 -0.4121 -0.3294 -0.4138
  172SAPE   H7R19488   7.443   7.052   6.636 -0.0079 -0.0679 -0.5392
  172SAPE   H7S19489   7.573   6.981   6.561 -0.2191  1.1892 -2.1995
  172SAPE   C2819490   7.402   6.846   6.577 -0.5416  0.3357  0.5656
  172SAPE   H8R19491   7.297   6.840   6.543 -0.0542  1.0867 -1.2107
  172SAPE   C2919492   7.475   6.735   6.609  0.0454  0.5054  0.6865
  172SAPE   H9R19493   7.422   6.639   6.617  1.0305 -0.1275 -0.1829
  172SAPE  C21019494   7.624   6.738   6.623  0.5449 -1.0142 -0.7727
  172SAPE  H10R19495   7.645   6.811   6.704 -1.8143 -1.2980  0.1794
  172SAPE  H10S19496   7.670   6.794   6.538  3.3687  0.0148  1.2580
  172SAPE  C21119497   7.684   6.609   6.648 -0.2650 -0.8514  0.2378
  172SAPE  H11R19498   7.728   6.596   6.748 -1.9982  3.2437  1.7623
  172SAPE  C21219499   7.725   6.523   6.552  0.3975  0.1280  0.0737
  172SAPE  H12R19500   7.773   6.429   6.582  2.9734  1.6218  0.9097
  172SAPE  C21319501   7.690   6.529   6.401  0.3478 -0.0769  0.0105
  172SAPE  H13R19502   7.773   6.474   6.351  2.8009  1.2892  2.3598
  172SAPE  H13S19503   7.699   6.629   6.354 -0.7174  0.2417  0.4725
  172SAPE  C21419504   7.552   6.479   6.359  0.8875  0.3436 -0.4582
  172SAPE  H14R19505   7.463   6.536   6.390  0.6719 -0.2958  0.1333
  172SAPE  C21519506   7.540   6.373   6.280  0.2845  0.1744 -0.6407
  172SAPE  H15R19507   7.437   6.338   6.268  0.6334 -1.7278  1.1448
  172SAPE  C21619508   7.639   6.277   6.224 -1.0037  0.2833  0.5518
  172SAPE  H16R19509   7.746   6.309   6.229 -0.4764 -1.4310  0.7130
  172SAPE  H16S19510   7.632   6.273   6.113 -1.5010 -1.0961  0.6191
  172SAPE  C21719511   7.621   6.129   6.265  0.3497 -0.1362 -0.6050
  172SAPE  H17R19512   7.523   6.096   6.225  0.4468  0.1346 -1.0792
  172SAPE  H17S19513   7.611   6.130   6.375 -0.9227  0.4837 -0.7072
  172SAPE  C21819514   7.735   6.034   6.235 -0.7145 -0.0800 -0.5123
  172SAPE  H18R19515   7.803   6.047   6.322 -1.3961  0.6279 -0.0828
  172SAPE  H18S19516   7.796   6.071   6.149  1.2243 -0.8864  0.4443
  172SAPE  C21919517   7.695   5.887   6.212 -0.0324  0.4826  0.7465
  172SAPE  H19R19518   7.595   5.891   6.260  0.0098  0.1320  0.8683
  172SAPE  H19S19519   7.759   5.815   6.268 -1.4349  1.3604  3.6494
  172SAPE  C22019520   7.696   5.835   6.067 -0.4013  0.4972 -0.2812
  172SAPE  H20R19521   7.626   5.890   5.999 -1.4991  1.3485  1.4514
  172SAPE  H20S19522   7.685   5.725   6.060  0.1641  0.4285 -0.0703
  172SAPE  H20T19523   7.797   5.842   6.022  0.9618  1.6135  2.7199
  172SAPE   C3319524   7.123   6.584   6.466 -0.0548  0.7517 -0.1010
  172SAPE   H3X19525   7.167   6.644   6.547  3.3353 -0.9613 -0.4989
  172SAPE   H3Y19526   7.204   6.566   6.392 -1.5601 -0.2099 -1.6033
  172SAPE   C3419527   7.088   6.439   6.507  0.2229  0.3349  0.4787
  172SAPE   H4X19528   7.181   6.385   6.536  1.6090  2.0136 -0.6021
  172SAPE   H4Y19529   7.047   6.391   6.416 -2.1568 -0.4297  1.8575
  172SAPE   C3519530   6.980   6.417   6.610 -0.0812 -0.1623 -0.0975
  172SAPE   H5X19531   6.940   6.314   6.621 -0.3219  0.2028  3.9853
  172SAPE   H5Y19532   6.888   6.471   6.580 -0.4894 -0.7871  0.0218
  172SAPE   C3619533   7.026   6.476   6.746 -0.2670 -0.0585  0.5520
  172SAPE   H6X19534   7.040   6.585   6.731 -2.8715  0.3074  0.1856
  172SAPE   H6Y19535   7.112   6.421   6.790 -1.7799 -1.6418  1.7177
  172SAPE   C3719536   6.913   6.453   6.855 -0.1011 -0.1925  0.3640
  172SAPE   H7X19537   6.900   6.348   6.886  0.9605  0.0104  1.6000
  172SAPE   H7Y19538   6.825   6.491   6.801 -0.7796 -0.2767  1.3759
  172SAPE   C3819539   6.930   6.524   6.989  0.5063  0.1009  0.0275
  172SAPE   H8X19540   6.954   6.632   6.983  0.4751  0.0617 -0.8679
  172SAPE   H8Y19541   7.021   6.483   7.040 -0.1841  0.0964  1.2967
  172SAPE   C3919542   6.805   6.507   7.078 -0.3740  0.1776  0.2769
  172SAPE   H9X19543   6.783   6.398   7.083  2.4732 -0.5736 -1.4804
  172SAPE   H9Y19544   6.726   6.570   7.032  0.3106  0.0383 -1.1169
  172SAPE  C31019545   6.815   6.555   7.228 -0.3822 -0.3531  1.1514
  172SAPE  H10X19546   6.901   6.502   7.273  1.9164  1.3283 -0.9863
  172SAPE  H10Y19547   6.722   6.519   7.276 -0.8040 -2.2481 -0.9081
  172SAPE  C31119548   6.834   6.711   7.250 -0.2588 -0.2246 -0.7013
  172SAPE  H11X19549   6.762   6.766   7.187  0.5490  1.9891  0.2151
  172SAPE  H11Y19550   6.939   6.738   7.225 -0.0225 -0.7955 -0.3596
  172SAPE  C31219551   6.804   6.744   7.401 -0.2920 -0.2318 -0.3488
  172SAPE  H12X19552   6.855   6.670   7.466 -1.5060 -0.3422  0.5150
  172SAPE  H12Y19553   6.698   6.725   7.428 -0.2807  1.4365  1.0548
  172SAPE  C31319554   6.850   6.884   7.442 -0.7202  0.1361 -0.2382
  172SAPE  H13X19555   6.958   6.907   7.428  0.1915 -1.1376  3.6168
  172SAPE  H13Y19556   6.833   6.889   7.551  0.3834 -2.8537  0.1517
  172SAPE  C31419557   6.769   6.991   7.360  0.1129  0.2111 -1.1738
  172SAPE  H14X19558   6.667   6.947   7.356  0.2506 -0.3571  0.5450
  172SAPE  H14Y19559   6.803   7.004   7.255  1.2531  0.1276 -0.8287
  172SAPE  C31519560   6.770   7.125   7.437 -0.2319  0.0096 -0.1855
  172SAPE  H15X19561   6.874   7.160   7.455  0.6392 -1.9509 -1.1196
  172SAPE  H15Y19562   6.735   7.101   7.540  1.3697 -1.3987  0.0769
  172SAPE  C31619563   6.684   7.236   7.372  0.2623  0.2494  0.3610
  172SAPE  H16X19564   6.640   7.295   7.455 -2.2386 -0.1444 -0.5875
  172SAPE  H16Y19565   6.598   7.184   7.323  0.6351 -0.7964  0.7997
  172SAPE  C31719566   6.763   7.324   7.274  0.1987 -1.0171  0.8902
  172SAPE  H17X19567   6.691   7.403   7.244  0.6747 -0.2660  1.6478
  172SAPE  H17Y19568   6.801   7.277   7.181  1.3561 -0.4285  1.0364
  172SAPE  C31819569   6.875   7.413   7.341 -0.0838 -0.2563 -0.1773
  172SAPE  H18X19570   6.974   7.365   7.354 -0.8590 -1.6763  0.6602
  172SAPE  H18Y19571   6.846   7.439   7.445 -0.4852 -0.3061 -0.2736
  172SAPE  H18Z19572   6.884   7.513   7.293 -2.0800 -0.0563 -0.2540
  173SOPE     N19573   3.679   4.933   9.840 -0.4620 -0.4543  0.1255
  173SOPE   HN119574   3.719   4.860   9.902 -0.8134  0.1734  1.1139
  173SOPE   HN219575   3.754   5.004   9.830  0.6357 -1.2019  2.4150
  173SOPE   HN319576   3.588   4.959   9.883 -1.6780 -0.3998 -2.3218
  173SOPE   C1219577   3.646   4.847   9.726 -0.4556 -0.4538  0.0696
  173SOPE  H12A19578   3.574   4.767   9.754  0.7355 -1.8650 -0.8109
  173SOPE  H12B19579   3.743   4.808   9.690  0.1052  0.8112  0.1554
  173SOPE   C1119580   3.581   4.936   9.608  0.9401  0.5866 -0.5908
  173SOPE  H11A19581   3.523   4.875   9.535  0.3194  2.4783 -1.7509
  173SOPE  H11B19582   3.665   4.978   9.549  0.5930  0.5192 -1.1498
  173SOPE     P19583   3.348   5.066   9.598  0.2297 -0.1165 -0.4456
  173SOPE   O1319584   3.291   5.177   9.677  0.1535 -0.7474 -0.1346
  173SOPE   O1419585   3.277   4.936   9.605  0.2881  0.3361 -0.7049
  173SOPE   O1219586   3.495   5.038   9.664  0.2821  0.1171 -0.5577
  173SOPE   O1119587   3.376   5.111   9.454  0.1322 -0.3033  0.0832
  173SOPE    C119588   3.445   5.235   9.438 -0.1529 -0.2081  0.5289
  173SOPE    HA19589   3.518   5.254   9.519  1.0629  2.9775 -1.1403
  173SOPE    HB19590   3.370   5.316   9.432 -0.7067 -0.7709 -0.3241
  173SOPE    C219591   3.530   5.236   9.302 -0.4987  0.2463 -0.3633
  173SOPE    HS19592   3.567   5.341   9.293  1.1208  0.0728  2.7474
  173SOPE   O2119593   3.446   5.212   9.191  0.5901 -0.0951  0.6326
  173SOPE   C2119594   3.380   5.312   9.144 -0.3248 -0.2371  0.2409
  173SOPE   O2219595   3.408   5.431   9.155 -0.4330 -0.1764 -0.2812
  173SOPE   C2219596   3.268   5.257   9.062  0.7678 -0.5190 -0.3456
  173SOPE   H2R19597   3.181   5.326   9.059  1.4347  0.5042  1.9238
  173SOPE   H2S19598   3.229   5.167   9.112  2.6065 -0.8172  0.6558
  173SOPE    C319599   3.650   5.137   9.286  0.4384  0.8040 -0.2814
  173SOPE    HX19600   3.596   5.040   9.295 -0.0230  1.0930  0.1078
  173SOPE    HY19601   3.714   5.155   9.375 -2.1177 -1.6756  2.2707
  173SOPE   O3119602   3.721   5.155   9.159  0.0203  0.1266  0.3783
  173SOPE   C3119603   3.799   5.259   9.151 -0.0767  0.2003  0.5669
  173SOPE   O3219604   3.816   5.340   9.242 -0.2892  0.2234  0.4702
  173SOPE   C3219605   3.876   5.265   9.015  0.6229 -0.3613 -0.8001
  173SOPE   H2X19606   3.954   5.187   9.017  0.3034 -0.7235  2.0145
  173SOPE   H2Y19607   3.916   5.367   9.002 -2.0016  1.1986  1.9565
  173SOPE   C2319608   3.319   5.240   8.912  0.1893 -0.0616 -0.3546
  173SOPE   H3R19609   3.399   5.163   8.918  0.3849  0.2137  0.9428
  173SOPE   H3S19610   3.360   5.335   8.871 -0.4898 -0.5037 -2.1200
  173SOPE   C2419611   3.200   5.194   8.827  0.1842 -0.6125 -0.5103
  173SOPE   H4R19612   3.179   5.092   8.867 -2.0384  0.6061  1.6660
  173SOPE   H4S19613   3.111   5.255   8.852  1.4060  0.8097  0.5209
  173SOPE   C2519614   3.218   5.196   8.678 -0.7530  0.2186  0.5056
  173SOPE   H5R19615   3.198   5.296   8.634  0.4164  0.0930 -0.3758
  173SOPE   H5S19616   3.318   5.154   8.653 -1.5745 -2.4798  1.3417
  173SOPE   C2619617   3.119   5.096   8.609  0.5728 -0.1577 -0.0410
  173SOPE   H6R19618   3.145   5.094   8.501  1.4397 -0.0878  0.1652
  173SOPE   H6S19619   3.145   4.996   8.652 -0.1354 -0.5701 -0.5451
  173SOPE   C2719620   2.964   5.112   8.630  0.2721 -0.0389 -0.1911
  173SOPE   H7R19621   2.908   5.022   8.598 -0.9172  0.9098 -0.9012
  173SOPE   H7S19622   2.931   5.121   8.735  1.1743  3.0823 -0.0517
  173SOPE   C2819623   2.914   5.234   8.552  0.4162  0.2619  0.1499
  173SOPE   H8R19624   2.945   5.335   8.585  1.5396  0.3482 -1.1130
  173SOPE   H8S19625   2.965   5.227   8.454 -0.4702  2.1334 -0.4963
  173SOPE   C2919626   2.764   5.225   8.525 -0.1673 -0.1734  0.1714
  173SOPE   H9119627   2.717   5.194   8.620  0.6579  1.4625  1.1523
  173SOPE  C21019628   2.694   5.222   8.410  0.4388 -0.0500  0.0710
  173SOPE  H10119629   2.585   5.213   8.420  0.5158  0.3367  1.4742
  173SOPE  C21119630   2.748   5.225   8.271 -0.0859  0.0910 -0.2507
  173SOPE  H11R19631   2.844   5.169   8.268 -1.3871 -2.2544 -1.4406
  173SOPE  H11S19632   2.764   5.330   8.240 -2.6871  0.3912 -0.8141
  173SOPE  C21219633   2.667   5.172   8.151  0.1417  0.7597  0.4313
  173SOPE  H12R19634   2.560   5.188   8.174 -0.3317 -0.5705 -0.7462
  173SOPE  H12S19635   2.681   5.062   8.159 -3.7272  0.1792  0.8833
  173SOPE  C21319636   2.706   5.226   8.017  0.0841 -0.1835  0.1669
  173SOPE  H13R19637   2.704   5.337   8.026 -1.1139 -0.2052  0.2833
  173SOPE  H13S19638   2.639   5.203   7.931 -0.3273  0.5168  0.2898
  173SOPE  C21419639   2.845   5.178   7.981  0.0172 -0.4825 -0.5028
  173SOPE  H14R19640   2.880   5.083   8.029 -0.8179 -0.7915 -0.4920
  173SOPE  H14S19641   2.912   5.257   8.020 -0.2308 -0.1711 -0.7088
  173SOPE  C21519642   2.900   5.173   7.834  0.0961 -0.1211  0.1502
  173SOPE  H15R19643   2.870   5.267   7.781  0.2869 -0.8353 -1.2612
  173SOPE  H15S19644   2.852   5.089   7.780 -1.1913  0.3265  0.5487
  173SOPE  C21619645   3.047   5.152   7.813  0.0861  0.7154  0.2376
  173SOPE  H16R19646   3.083   5.061   7.867  2.0698  0.2204 -1.7923
  173SOPE  H16S19647   3.106   5.242   7.843  1.9105 -0.0808 -0.7763
  173SOPE  C21719648   3.090   5.132   7.666  0.5344  0.8745 -0.3070
  173SOPE  H17R19649   3.024   5.059   7.616  0.7302  0.7333 -0.3592
  173SOPE  H17S19650   3.194   5.092   7.667  0.4376  0.4478 -2.6857
  173SOPE  C21819651   3.072   5.258   7.581 -0.2179 -0.5412 -1.1137
  173SOPE  H18R19652   3.085   5.228   7.474 -0.5834 -1.4786 -0.9028
  173SOPE  H18S19653   3.133   5.348   7.605 -0.8318 -0.0993 -1.1883
  173SOPE  H18T19654   2.966   5.290   7.586 -0.7278 -2.2266 -0.5516
  173SOPE   C3319655   3.770   5.241   8.908  0.0848 -0.1171 -0.0596
  173SOPE   H3X19656   3.673   5.293   8.924  0.0285 -0.1903 -0.1641
  173SOPE   H3Y19657   3.754   5.132   8.921 -0.8737  0.2038  1.8871
  173SOPE   C3419658   3.820   5.261   8.764 -0.0093 -0.0631  0.9007
  173SOPE   H4X19659   3.923   5.220   8.756 -1.0132 -2.4110 -2.0265
  173SOPE   H4Y19660   3.813   5.370   8.745  1.2069  0.0439  1.0212
  173SOPE   C3519661   3.738   5.185   8.660  0.4084 -0.5017  0.3137
  173SOPE   H5X19662   3.800   5.178   8.569  0.5070  0.2374  0.3178
  173SOPE   H5Y19663   3.650   5.246   8.630  0.3447  0.8474  2.9606
  173SOPE   C3619664   3.697   5.038   8.691  0.1693 -0.3236 -0.4393
  173SOPE   H6X19665   3.624   5.033   8.775 -0.6209 -1.1008 -1.1592
  173SOPE   H6Y19666   3.792   4.991   8.724  0.0703  0.8097  1.5958
  173SOPE   C3719667   3.663   4.967   8.563 -0.8255 -0.1727 -0.0723
  173SOPE   H7X19668   3.751   4.926   8.508 -1.6284 -2.2626  0.1058
  173SOPE   H7Y19669   3.623   5.050   8.501 -1.3504  0.8871  1.6145
  173SOPE   C3819670   3.560   4.850   8.576 -0.3029 -0.1472  0.5314
  173SOPE   H8X19671   3.475   4.883   8.639 -0.8381 -0.3945 -0.0511
  173SOPE   H8Y19672   3.604   4.756   8.616  0.9000 -1.7739 -4.0089
  173SOPE   C3919673   3.503   4.817   8.439  0.8775  0.4679  0.4799
  173SOPE   H9X19674   3.577   4.787   8.363 -0.4080 -0.5936 -0.3912
  173SOPE   H9Y19675   3.456   4.913   8.407  0.9864  0.7344  1.0859
  173SOPE  C31019676   3.393   4.711   8.453 -0.1315 -0.2008 -0.0441
  173SOPE  H10X19677   3.329   4.724   8.543 -2.0566  0.3981 -1.4296
  173SOPE  H10Y19678   3.451   4.620   8.478  0.8937  0.9760  2.1562
  173SOPE  C31119679   3.304   4.680   8.325 -0.0945 -0.5902 -0.4881
  173SOPE  H11X19680   3.365   4.662   8.234 -0.6607 -2.6045 -0.5322
  173SOPE  H11Y19681   3.243   4.770   8.302 -0.6273 -0.8505 -0.1123
  173SOPE  C31219682   3.201   4.564   8.330 -0.1695  0.2933  0.4336
  173SOPE  H12X19683   3.253   4.466   8.326  2.2986  1.5585 -1.4781
  173SOPE  H12Y19684   3.142   4.567   8.236  1.4102 -0.8949 -0.6512
  173SOPE  C31319685   3.115   4.565   8.451  0.1347 -0.1760 -1.5883
  173SOPE  H13X19686   3.066   4.662   8.470 -0.4710 -0.6701 -0.5528
  173SOPE  H13Y19687   3.179   4.537   8.537 -0.4201 -0.4312 -1.2542
  173SOPE  C31419688   3.012   4.452   8.440  0.1173  0.0874  0.2905
  173SOPE  H14X19689   3.064   4.354   8.439 -0.8721 -0.4529 -0.2657
  173SOPE  H14Y19690   2.968   4.461   8.338  3.1912  0.6050 -1.1107
  173SOPE  C31519691   2.923   4.445   8.563  0.4069  0.4065 -0.7419
  173SOPE  H15X19692   2.877   4.546   8.566  1.9416  1.1157 -0.1264
  173SOPE  H15Y19693   2.982   4.415   8.652 -2.5968 -2.1207  0.5925
  173SOPE  C31619694   2.811   4.338   8.557  0.2364 -0.9525  0.0201
  173SOPE  H16X19695   2.849   4.235   8.566  0.9489 -0.7537 -0.6140
  173SOPE  H16Y19696   2.778   4.343   8.451  0.0549 -0.8200  0.0815
  173SOPE  C31719697   2.690   4.369   8.645 -0.3852 -0.2439  0.2494
  173SOPE  H17X19698   2.628   4.277   8.640  2.6359 -2.5859  2.1503
  173SOPE  H17Y19699   2.631   4.451   8.600 -2.1524 -2.3269 -1.4510
  173SOPE  C31819700   2.735   4.388   8.787 -0.3564  0.5813 -0.6020
  173SOPE  H18X19701   2.822   4.454   8.805  0.8117 -1.0789  0.0935
  173SOPE  H18Y19702   2.752   4.294   8.843 -0.7952  0.1313 -1.2176
  173SOPE  H18Z19703   2.651   4.439   8.841 -1.2618 -0.5332 -0.9237
  174SOPE     N19704   4.624   4.094  10.007 -0.2042  0.2029  0.2726
  174SOPE   HN119705   4.615   4.139   9.913  3.1404 -0.6251 -0.5532
  174SOPE   HN219706   4.537   4.043  10.032  0.5271 -1.2776 -0.1324
  174SOPE   HN319707   4.662   4.155  10.082  1.9038 -0.4752 -0.1950
  174SOPE   C1219708   4.729   3.989   9.986  0.1049  0.0668 -0.3742
  174SOPE  H12A19709   4.758   3.952  10.086 -1.4783  1.2319  0.5703
  174SOPE  H12B19710   4.815   4.044   9.941  0.2672 -1.3654 -1.9173
  174SOPE   C1119711   4.683   3.886   9.873  0.1098 -0.2675 -0.0314
  174SOPE  H11A19712   4.612   3.809   9.910 -0.4707 -0.5539 -1.6721
  174SOPE  H11B19713   4.779   3.834   9.849  0.1103  0.5759 -1.9766
  174SOPE     P19714   4.617   3.877   9.627 -0.3494  0.3013 -0.3832
  174SOPE   O1319715   4.486   3.816   9.650 -0.6156 -0.0709  0.7641
  174SOPE   O1419716   4.723   3.781   9.613 -0.2720  0.1425  0.1055
  174SOPE   O1219717   4.635   3.955   9.761 -0.2114  0.3890 -0.5849
  174SOPE   O1119718   4.608   3.983   9.510 -0.7278 -0.3433  0.0868
  174SOPE    C119719   4.733   4.055   9.487 -0.7960 -0.0993  0.2937
  174SOPE    HA19720   4.815   3.980   9.476 -1.6454 -0.8795 -0.9434
  174SOPE    HB19721   4.750   4.132   9.565 -0.0500 -0.3403  0.3829
  174SOPE    C219722   4.735   4.130   9.345 -0.1475 -0.0281 -0.3275
  174SOPE    HS19723   4.649   4.201   9.336  1.7112  2.5239  0.8278
  174SOPE   O2119724   4.728   4.035   9.239  0.1719  0.3559 -0.2120
  174SOPE   C2119725   4.614   4.000   9.194 -0.0069  0.4462  0.8856
  174SOPE   O2219726   4.512   4.064   9.225  0.1127 -0.4015  0.0774
  174SOPE   C2219727   4.623   3.876   9.113 -0.2899  0.7468  0.4200
  174SOPE   H2R19728   4.582   3.781   9.154  2.0759 -1.4736 -1.9034
  174SOPE   H2S19729   4.730   3.851   9.095 -0.4682  0.5306 -0.3972
  174SOPE    C319730   4.864   4.214   9.330 -0.4653  0.1067  0.6753
  174SOPE    HX19731   4.950   4.160   9.375  0.8576  2.3935  1.0470
  174SOPE    HY19732   4.845   4.307   9.387 -0.0775  2.0881 -2.2241
  174SOPE   O3119733   4.897   4.238   9.190  0.5153 -0.5586  0.5033
  174SOPE   C3119734   4.883   4.371   9.158 -0.1671 -0.1555 -0.4730
  174SOPE   O3219735   4.853   4.463   9.232 -0.2501 -0.0326 -0.0325
  174SOPE   C3219736   4.917   4.385   9.007  0.7901 -0.1240  0.1094
  174SOPE   H2X19737   4.837   4.329   8.955  1.2401 -1.3851  0.7373
  174SOPE   H2Y19738   5.015   4.336   8.992  2.1197  2.0140  1.3134
  174SOPE   C2319739   4.562   3.900   8.974  0.3189 -0.2840  0.4443
  174SOPE   H3R19740   4.467   3.958   8.968  0.0900 -0.4794  1.9396
  174SOPE   H3S19741   4.549   3.795   8.939  0.8791 -0.3943  0.5605
  174SOPE   C2419742   4.652   3.973   8.873  0.1462  0.7304  0.5614
  174SOPE   H4R19743   4.684   4.075   8.903 -0.5940  0.9971  0.4582
  174SOPE   H4S19744   4.749   3.920   8.862  0.0751  0.2098  2.1271
  174SOPE   C2519745   4.587   3.987   8.735  0.1809  0.7820  0.1697
  174SOPE   H5R19746   4.572   3.885   8.692  0.9253  1.7159 -2.4695
  174SOPE   H5S19747   4.493   4.043   8.754  1.0033  2.6734 -1.1137
  174SOPE   C2619748   4.668   4.080   8.644 -0.7395  0.0325 -0.0743
  174SOPE   H6R19749   4.682   4.173   8.702 -1.9051 -1.0972  2.1757
  174SOPE   H6S19750   4.768   4.040   8.615 -0.5499  1.2093 -1.1304
  174SOPE   C2719751   4.598   4.112   8.514  0.6145  0.5271 -0.4363
  174SOPE   H7R19752   4.578   4.012   8.469 -2.3535  0.6755  0.3079
  174SOPE   H7S19753   4.495   4.147   8.537  0.6598 -0.5691  1.7357
  174SOPE   C2819754   4.678   4.205   8.431 -0.1288  0.0275  0.4895
  174SOPE   H8R19755   4.712   4.288   8.497 -1.3142 -1.6556  3.4203
  174SOPE   H8S19756   4.766   4.149   8.392  0.3911  1.3337 -0.2618
  174SOPE   C2919757   4.582   4.257   8.327 -0.5766  0.2066 -0.7289
  174SOPE   H9119758   4.496   4.318   8.359  0.0536  1.5083 -1.4025
  174SOPE  C21019759   4.580   4.222   8.200 -0.1931  0.1765  0.0761
  174SOPE  H10119760   4.506   4.283   8.145 -2.1329 -2.3083 -0.2125
  174SOPE  C21119761   4.661   4.122   8.123 -0.0964 -0.0711  0.4247
  174SOPE  H11R19762   4.762   4.112   8.168  0.0586  0.7823  0.2762
  174SOPE  H11S19763   4.671   4.161   8.020  0.5039  0.7249  0.7725
  174SOPE  C21219764   4.599   3.979   8.122  0.1384 -0.3316 -0.8206
  174SOPE  H12R19765   4.609   3.932   8.222 -5.1060  3.0309  1.7478
  174SOPE  H12S19766   4.666   3.923   8.054  3.5757  1.5557  0.7797
  174SOPE  C21319767   4.449   3.958   8.073  0.2376 -0.0336 -0.6649
  174SOPE  H13R19768   4.372   3.999   8.142 -1.1060 -1.0470 -1.4946
  174SOPE  H13S19769   4.423   3.851   8.058 -1.1517  0.1094  0.5070
  174SOPE  C21419770   4.397   4.024   7.941  0.7215  0.7353  0.0670
  174SOPE  H14R19771   4.419   4.132   7.954 -0.9820  1.1065  0.0848
  174SOPE  H14S19772   4.286   4.017   7.935  0.8768 -2.1772 -1.4482
  174SOPE  C21519773   4.464   3.957   7.815 -0.1398 -0.1015  1.3493
  174SOPE  H15R19774   4.442   3.848   7.805  1.5080 -0.3403 -0.1577
  174SOPE  H15S19775   4.574   3.966   7.829 -0.0195 -0.7469  0.8672
  174SOPE  C21619776   4.409   4.022   7.685  0.0888 -1.2070  0.2132
  174SOPE  H16R19777   4.323   4.090   7.705  1.3218  0.7248 -0.7132
  174SOPE  H16S19778   4.360   3.954   7.612 -0.8296 -0.1246 -0.2118
  174SOPE  C21719779   4.527   4.099   7.622  0.7205  0.2483  0.2640
  174SOPE  H17R19780   4.601   4.017   7.610  1.1968  0.6749  0.2397
  174SOPE  H17S19781   4.568   4.171   7.697  0.1228  1.6217 -0.6703
  174SOPE  C21819782   4.481   4.157   7.491  0.5255 -0.6096  0.0047
  174SOPE  H18R19783   4.442   4.082   7.419 -1.1762 -0.3364  0.5804
  174SOPE  H18S19784   4.570   4.197   7.439 -1.3865 -0.1269 -3.1261
  174SOPE  H18T19785   4.393   4.224   7.498 -0.1054 -0.8767 -3.5803
  174SOPE   C3319786   4.931   4.528   8.952 -0.6134  0.5759 -0.3782
  174SOPE   H3X19787   5.013   4.584   9.001  0.8282 -0.3328 -1.6732
  174SOPE   H3Y19788   4.843   4.591   8.978  0.3650  1.5071  0.7747
  174SOPE   C3419789   4.959   4.541   8.803  0.3589 -0.5777  1.0684
  174SOPE   H4X19790   4.864   4.525   8.748  0.4345  1.0209  0.4104
  174SOPE   H4Y19791   5.039   4.470   8.773  0.0982 -1.1628  1.7127
  174SOPE   C3519792   5.000   4.682   8.765 -0.1887  0.1563 -0.1291
  174SOPE   H5X19793   5.097   4.709   8.812  0.6921 -0.8030 -1.3320
  174SOPE   H5Y19794   4.921   4.756   8.790 -0.4015  0.3530 -1.2845
  174SOPE   C3619795   5.023   4.678   8.611  0.1680  0.2054  0.3966
  174SOPE   H6X19796   4.933   4.642   8.557 -0.0330  1.1075  0.1110
  174SOPE   H6Y19797   5.111   4.610   8.597 -0.5745 -0.4045 -1.6734
  174SOPE   C3719798   5.049   4.818   8.546 -0.3662  0.1347  0.2040
  174SOPE   H7X19799   4.968   4.885   8.582 -0.0000  0.2486  0.8448
  174SOPE   H7Y19800   5.060   4.813   8.436  1.6927  0.0576  0.3651
  174SOPE   C3819801   5.179   4.875   8.611 -0.2931  0.5482  0.1066
  174SOPE   H8X19802   5.262   4.801   8.612  0.5310  1.4220 -0.7117
  174SOPE   H8Y19803   5.160   4.891   8.719 -0.0630  0.9845  0.0878
  174SOPE   C3919804   5.237   4.995   8.541  0.7634  0.2224 -0.3291
  174SOPE   H9X19805   5.320   5.039   8.601  0.1783 -0.8612  1.3721
  174SOPE   H9Y19806   5.152   5.064   8.523 -0.4643 -1.2606 -0.4333
  174SOPE  C31019807   5.297   4.956   8.410 -0.1196  0.1943  0.8004
  174SOPE  H10X19808   5.237   4.880   8.356  1.2002 -0.4931  0.2357
  174SOPE  H10Y19809   5.387   4.896   8.437 -0.9664 -0.5379  2.0769
  174SOPE  C31119810   5.336   5.065   8.322  0.1215 -0.5272  0.0564
  174SOPE  H11X19811   5.400   5.128   8.388  0.1008  0.5542 -0.9130
  174SOPE  H11Y19812   5.242   5.116   8.291  0.2457  0.5781  1.3938
  174SOPE  C31219813   5.410   5.030   8.194  0.9646  0.9222 -0.1015
  174SOPE  H12X19814   5.350   4.970   8.121  2.2118  1.7389 -1.8691
  174SOPE  H12Y19815   5.491   4.961   8.227 -1.9838 -1.2665  3.4191
  174SOPE  C31319816   5.465   5.160   8.133 -0.3125 -0.1504 -0.1191
  174SOPE  H13X19817   5.544   5.201   8.200  1.0152  1.4313 -2.5019
  174SOPE  H13Y19818   5.381   5.232   8.131 -1.1990 -1.1613 -0.0464
  174SOPE  C31419819   5.524   5.138   7.990 -0.1725  0.2493 -0.4676
  174SOPE  H14X19820   5.453   5.087   7.922 -0.7497 -0.5160  0.6817
  174SOPE  H14Y19821   5.618   5.078   7.994 -1.5072 -1.9392 -0.0423
  174SOPE  C31519822   5.559   5.268   7.916  0.5532  0.0090 -0.2577
  174SOPE  H15X19823   5.613   5.249   7.821 -0.1280 -0.0055 -0.6501
  174SOPE  H15Y19824   5.627   5.330   7.979  4.4206 -0.2503 -3.7075
  174SOPE  C31619825   5.438   5.347   7.872  1.2909 -0.4432  0.3595
  174SOPE  H16X19826   5.468   5.439   7.816 -0.1918 -2.0361 -3.4093
  174SOPE  H16Y19827   5.372   5.376   7.957 -3.3805  0.0179 -3.0113
  174SOPE  C31719828   5.339   5.280   7.774  0.1395 -0.4845  0.1016
  174SOPE  H17X19829   5.283   5.195   7.819  2.7285 -1.5287  1.6124
  174SOPE  H17Y19830   5.415   5.236   7.706  0.3091 -0.8544  0.5198
  174SOPE  C31819831   5.239   5.374   7.704 -0.0657  0.1333 -0.7851
  174SOPE  H18X19832   5.286   5.465   7.662 -0.5817  0.7102 -0.1310
  174SOPE  H18Y19833   5.147   5.396   7.761  0.1279 -2.4359  0.6761
  174SOPE  H18Z19834   5.198   5.311   7.622 -0.3350 -0.0027 -0.5482
  175SOPE     N19835   4.641   5.491   9.188 -0.0040 -0.0234  0.1442
  175SOPE   HN119836   4.677   5.589   9.183  1.5413 -0.6091 -0.6814
  175SOPE   HN219837   4.559   5.472   9.128  0.4560  1.6984 -1.1007
  175SOPE   HN319838   4.606   5.491   9.286 -2.3665 -0.3891 -0.6538
  175SOPE   C1219839   4.752   5.392   9.163  0.1846  0.0229 -0.7111
  175SOPE  H12A19840   4.807   5.421   9.071 -0.1690  0.2154 -0.8680
  175SOPE  H12B19841   4.700   5.295   9.141  0.6695 -0.0129 -1.7559
  175SOPE   C1119842   4.836   5.382   9.292 -0.0994 -0.0987 -0.3901
  175SOPE  H11A19843   4.878   5.477   9.333 -0.0306 -0.2444 -0.1149
  175SOPE  H11B19844   4.922   5.323   9.254  2.6243  1.2679  2.9893
  175SOPE     P19845   4.816   5.271   9.525  0.3525 -0.0145  0.3658
  175SOPE   O1319846   4.736   5.153   9.576  0.0174  0.3871 -0.1356
  175SOPE   O1419847   4.824   5.386   9.617  0.2044  0.2468 -0.1879
  175SOPE   O1219848   4.752   5.317   9.390 -0.5372 -0.0695  0.7168
  175SOPE   O1119849   4.963   5.218   9.485  0.4183 -0.9335 -0.3515
  175SOPE    C119850   5.002   5.083   9.487 -0.0473 -0.4647 -0.7080
  175SOPE    HA19851   4.912   5.019   9.470  0.2684 -0.5038 -2.3938
  175SOPE    HB19852   5.040   5.059   9.588  0.0445 -3.7157 -1.4142
  175SOPE    C219853   5.104   5.043   9.383 -0.0719  0.2586 -0.1815
  175SOPE    HS19854   5.197   5.089   9.423 -1.3755  1.4106  1.6959
  175SOPE   O2119855   5.057   5.094   9.255 -0.6465 -0.9817  0.2376
  175SOPE   C2119856   5.158   5.133   9.176  0.3549 -0.5894 -0.1536
  175SOPE   O2219857   5.272   5.100   9.196  0.5863 -0.0267  0.2404
  175SOPE   C2219858   5.099   5.206   9.053  0.3866 -0.1528  0.0402
  175SOPE   H2R19859   5.039   5.296   9.078  0.3950  0.1397 -0.9435
  175SOPE   H2S19860   5.027   5.135   9.006  0.6440 -0.2530 -0.2048
  175SOPE    C319861   5.122   4.891   9.376 -0.6146 -0.2453 -0.4410
  175SOPE    HX19862   5.176   4.862   9.468  1.0018  3.3842 -0.0815
  175SOPE    HY19863   5.189   4.861   9.293  0.2030 -2.0146  0.8053
  175SOPE   O3119864   4.988   4.828   9.370  0.3949  0.0359 -0.2989
  175SOPE   C3119865   4.946   4.792   9.251  0.2851 -0.2658  0.0721
  175SOPE   O3219866   5.024   4.791   9.157  0.0728 -0.2748 -0.3173
  175SOPE   C3219867   4.794   4.791   9.239 -0.4903 -0.0654  0.1285
  175SOPE   H2X19868   4.745   4.787   9.339  0.5910  1.3881  0.7549
  175SOPE   H2Y19869   4.776   4.702   9.175 -1.0294  0.8934 -1.0871
  175SOPE   C2319870   5.220   5.251   8.967  0.0016  0.4203 -0.7794
  175SOPE   H3R19871   5.297   5.172   8.958  2.1763  2.1459  1.3024
  175SOPE   H3S19872   5.274   5.328   9.026 -0.1714 -1.0882  1.4425
  175SOPE   C2419873   5.189   5.304   8.830 -0.4132 -1.5131  0.4497
  175SOPE   H4R19874   5.167   5.225   8.755 -1.6293  0.9356 -1.9336
  175SOPE   H4S19875   5.099   5.368   8.837 -0.1636 -0.8760 -1.5182
  175SOPE   C2519876   5.296   5.396   8.759  0.3062  0.9398 -0.8925
  175SOPE   H5R19877   5.340   5.464   8.834 -0.3986 -0.9834  1.3986
  175SOPE   H5S19878   5.381   5.326   8.740 -0.2562 -0.3121  0.9183
  175SOPE   C2619879   5.262   5.486   8.641  0.0886 -0.0174  0.4265
  175SOPE   H6R19880   5.174   5.546   8.668 -0.6622 -0.8634 -0.0748
  175SOPE   H6S19881   5.354   5.547   8.627  0.7293 -1.2639 -1.1440
  175SOPE   C2719882   5.250   5.410   8.506 -0.3061  0.0003 -0.6112
  175SOPE   H7R19883   5.343   5.352   8.487 -0.9214 -0.8820 -0.9741
  175SOPE   H7S19884   5.165   5.340   8.495  1.7454 -2.3775 -2.7522
  175SOPE   C2819885   5.239   5.510   8.395  0.4928 -0.4361  1.1945
  175SOPE   H8R19886   5.142   5.565   8.406 -0.1810 -0.4842 -2.9250
  175SOPE   H8S19887   5.314   5.591   8.406  1.4168 -1.4040  2.2845
  175SOPE   C2919888   5.242   5.448   8.261  0.0593  0.0534  0.2425
  175SOPE   H9119889   5.332   5.471   8.203 -1.1321  2.3168 -0.8505
  175SOPE  C21019890   5.140   5.382   8.204  0.0162 -0.4661  0.1948
  175SOPE  H10119891   5.167   5.327   8.112 -0.6372 -1.2360  0.4480
  175SOPE  C21119892   4.998   5.350   8.245  0.5459  0.2826 -0.5065
  175SOPE  H11R19893   4.922   5.371   8.166  1.5710  2.0413 -1.0846
  175SOPE  H11S19894   4.976   5.415   8.332 -1.3756 -1.2800  0.2450
  175SOPE  C21219895   4.980   5.207   8.306  0.0082  0.3288  0.5375
  175SOPE  H12R19896   5.044   5.185   8.394  1.0455  1.9069  0.2307
  175SOPE  H12S19897   5.015   5.139   8.226  1.2491  1.3755  0.1442
  175SOPE  C21319898   4.831   5.177   8.349  0.5053 -0.1276 -0.3829
  175SOPE  H13R19899   4.763   5.200   8.265 -1.2154  1.1220  1.2744
  175SOPE  H13S19900   4.817   5.249   8.432 -1.0913 -0.6790 -0.1329
  175SOPE  C21419901   4.795   5.039   8.404 -0.7939  0.8425  0.1629
  175SOPE  H14R19902   4.696   5.049   8.454 -0.9359 -1.2111  0.3729
  175SOPE  H14S19903   4.879   5.014   8.472 -1.4297  1.1828  1.0799
  175SOPE  C21519904   4.800   4.925   8.296  0.6594 -0.7535 -0.0283
  175SOPE  H15R19905   4.908   4.906   8.279  0.7679  1.1042 -1.8202
  175SOPE  H15S19906   4.746   4.955   8.203  1.1929  1.0827  0.2066
  175SOPE  C21619907   4.718   4.811   8.353 -0.4747  0.0971 -0.4359
  175SOPE  H16R19908   4.616   4.847   8.379 -0.1887  1.2795 -0.9040
  175SOPE  H16S19909   4.771   4.771   8.442  0.6305  0.8942 -0.7287
  175SOPE  C21719910   4.713   4.696   8.251  0.5117  0.3747 -1.1146
  175SOPE  H17R19911   4.814   4.670   8.213  0.9614  1.0699 -0.4344
  175SOPE  H17S19912   4.650   4.728   8.166 -0.9170  2.4338  0.6221
  175SOPE  C21819913   4.643   4.571   8.308 -0.2043 -0.4479  0.0991
  175SOPE  H18R19914   4.652   4.493   8.230 -0.3944 -1.1824  0.7973
  175SOPE  H18S19915   4.534   4.594   8.317 -0.0035  0.6480 -0.1293
  175SOPE  H18T19916   4.692   4.535   8.401  1.0996  0.2885 -0.2886
  175SOPE   C3319917   4.740   4.910   9.167 -0.5100  0.9466  0.1648
  175SOPE   H3X19918   4.785   4.999   9.215  0.8560  0.5064 -0.2406
  175SOPE   H3Y19919   4.629   4.918   9.165 -0.5422  1.3100 -3.4714
  175SOPE   C3419920   4.775   4.914   9.011  0.1985 -0.2456  0.0579
  175SOPE   H4X19921   4.716   4.831   8.968  1.7745 -1.2947 -0.1439
  175SOPE   H4Y19922   4.885   4.919   8.994 -0.1674 -0.1777 -2.7680
  175SOPE   C3519923   4.717   5.043   8.950 -0.9331 -0.6752 -0.7266
  175SOPE   H5X19924   4.773   5.127   8.995 -3.6152  0.9207 -0.1624
  175SOPE   H5Y19925   4.609   5.051   8.975 -0.2906  2.0598  1.6241
  175SOPE   C3619926   4.730   5.042   8.799 -0.1895 -0.3111  0.1525
  175SOPE   H6X19927   4.641   4.985   8.767 -1.3833  1.6724 -0.2101
  175SOPE   H6Y19928   4.828   4.998   8.771 -0.0725  1.3031 -2.2365
  175SOPE   C3719929   4.726   5.185   8.736  0.1184 -0.4809  0.3235
  175SOPE   H7X19930   4.722   5.175   8.626 -1.5910  1.8558  0.0913
  175SOPE   H7Y19931   4.827   5.227   8.756  0.3349  0.0361 -1.6294
  175SOPE   C3819932   4.612   5.279   8.781 -0.6471 -0.1694  0.1139
  175SOPE   H8X19933   4.609   5.274   8.892 -1.4284 -2.2574  0.0510
  175SOPE   H8Y19934   4.522   5.242   8.728  0.7601  0.7198 -3.1254
  175SOPE   C3919935   4.633   5.425   8.733  0.9053 -0.2987 -0.2204
  175SOPE   H9X19936   4.690   5.488   8.805 -0.5268  3.1468 -1.8810
  175SOPE   H9Y19937   4.538   5.483   8.732  2.0247  1.6218  0.0455
  175SOPE  C31019938   4.702   5.448   8.592  0.2030 -0.1790  0.0160
  175SOPE  H10X19939   4.659   5.367   8.529 -1.5775  0.6941  0.0425
  175SOPE  H10Y19940   4.812   5.435   8.589  0.2387  0.0688 -2.6954
  175SOPE  C31119941   4.681   5.591   8.527 -0.3125 -0.2467 -0.3922
  175SOPE  H11X19942   4.722   5.672   8.590 -1.2142  0.9066 -1.2633
  175SOPE  H11Y19943   4.574   5.619   8.521 -0.6915 -1.1025  1.4726
  175SOPE  C31219944   4.746   5.624   8.391 -0.2415  0.3836 -0.2318
  175SOPE  H12X19945   4.856   5.612   8.401 -0.5820 -1.3294  2.2799
  175SOPE  H12Y19946   4.712   5.728   8.370  0.2690 -0.1772 -5.1667
  175SOPE  C31319947   4.697   5.539   8.274  0.2308 -0.3304  0.3371
  175SOPE  H13X19948   4.590   5.569   8.266  0.5491  0.5572 -0.9048
  175SOPE  H13Y19949   4.718   5.430   8.284  1.2357 -0.0321  1.7392
  175SOPE  C31419950   4.758   5.596   8.142  0.9704 -0.3809 -0.6617
  175SOPE  H14X19951   4.869   5.597   8.142  1.0430 -1.9812 -2.3087
  175SOPE  H14Y19952   4.723   5.699   8.120  0.6724 -0.1782  0.6844
  175SOPE  C31519953   4.700   5.527   8.014  0.3830  0.3507  0.4544
  175SOPE  H15X19954   4.718   5.417   8.022 -0.2305  0.1774 -0.4112
  175SOPE  H15Y19955   4.753   5.570   7.927 -2.3219  0.6074 -1.1804
  175SOPE  C31619956   4.550   5.537   7.997  0.2643  0.4399  0.2547
  175SOPE  H16X19957   4.519   5.638   7.964 -0.2983  0.1317 -0.1690
  175SOPE  H16Y19958   4.488   5.514   8.086  0.3866  0.4799  0.3502
  175SOPE  C31719959   4.505   5.447   7.886  0.6493 -0.2158  0.4399
  175SOPE  H17X19960   4.507   5.344   7.926 -0.6586  0.2968  1.9574
  175SOPE  H17Y19961   4.570   5.458   7.797 -0.4367  0.2630 -0.3127
  175SOPE  C31819962   4.365   5.493   7.845  0.7969 -1.1794  0.5319
  175SOPE  H18X19963   4.296   5.515   7.929 -2.9005 -1.1599 -2.2644
  175SOPE  H18Y19964   4.304   5.422   7.785 -0.7643  0.7191 -0.2182
  175SOPE  H18Z19965   4.362   5.590   7.790 -0.4980 -0.7014  1.3937
  176SOPE     N19966   5.707   4.799   9.541  0.1612 -0.0180  0.1830
  176SOPE   HN119967   5.635   4.874   9.538 -1.7584 -1.8014 -0.3470
  176SOPE   HN219968   5.725   4.755   9.633  1.3931  0.5342  0.2323
  176SOPE   HN319969   5.793   4.855   9.523 -0.6219  1.8467  1.8228
  176SOPE   C1219970   5.704   4.696   9.428 -0.7309  0.8544 -0.2342
  176SOPE  H12A19971   5.793   4.630   9.437 -1.5546 -0.0326  2.0052
  176SOPE  H12B19972   5.727   4.752   9.334 -1.1295  1.4775  0.0332
  176SOPE   C1119973   5.573   4.615   9.440  0.3827  0.5641  0.4433
  176SOPE  H11A19974   5.571   4.547   9.352  1.3474  1.8779 -0.6356
  176SOPE  H11B19975   5.490   4.688   9.432  0.8002  0.8416 -2.1875
  176SOPE     P19976   5.425   4.480   9.608 -0.1148  0.0260  0.1606
  176SOPE   O1319977   5.314   4.579   9.600 -0.3302 -0.2920 -0.0285
  176SOPE   O1419978   5.445   4.412   9.735 -0.3927  0.6157 -0.5405
  176SOPE   O1219979   5.565   4.543   9.561 -0.0874 -0.3508  0.0418
  176SOPE   O1119980   5.405   4.378   9.481 -0.3783  0.5137  0.3820
  176SOPE    C119981   5.488   4.266   9.472  0.5546 -0.3997  0.1811
  176SOPE    HA19982   5.459   4.216   9.567 -2.1578 -0.5734 -0.6528
  176SOPE    HB19983   5.594   4.298   9.464  0.4120  0.1127  0.2633
  176SOPE    C219984   5.456   4.169   9.352 -0.2224 -0.1531 -0.3572
  176SOPE    HS19985   5.512   4.076   9.375  0.8478  1.0702  2.5821
  176SOPE   O2119986   5.478   4.239   9.229 -0.0682 -0.1277  0.5458
  176SOPE   C2119987   5.599   4.257   9.196  0.0242  0.3089  1.1575
  176SOPE   O2219988   5.701   4.211   9.253  0.6850 -0.0082  0.3152
  176SOPE   C2219989   5.602   4.324   9.058  0.3383  0.0833  0.7551
  176SOPE   H2R19990   5.706   4.335   9.021 -0.0109 -0.2497 -0.3424
  176SOPE   H2S19991   5.569   4.429   9.074  0.7008  0.5368 -1.2184
  176SOPE    C319992   5.306   4.131   9.362 -0.2930 -0.5774 -0.7945
  176SOPE    HX19993   5.245   4.224   9.369 -2.5188 -2.0402  0.3257
  176SOPE    HY19994   5.283   4.088   9.462 -1.0348 -3.3728 -2.0743
  176SOPE   O3119995   5.254   4.051   9.257  0.0009  0.3032 -0.3858
  176SOPE   C3119996   5.180   4.109   9.159  0.5404 -0.3541 -0.6988
  176SOPE   O3219997   5.158   4.227   9.150  0.3116  0.3046 -0.0154
  176SOPE   C3219998   5.126   4.006   9.066  0.0627 -0.4061  0.3005
  176SOPE   H2X19999   5.059   3.941   9.125  0.1257 -0.8639 -0.1277
  176SOPE   H2Y20000   5.215   3.945   9.038  0.2792 -0.6184  1.4103
  176SOPE   C2320001   5.512   4.249   8.964 -0.0763 -0.7524  0.1059
  176SOPE   H3R20002   5.406   4.247   8.998 -0.2477  1.0584 -0.2454
  176SOPE   H3S20003   5.545   4.145   8.941  0.8842 -0.4157 -0.0790
  176SOPE   C2420004   5.494   4.317   8.830 -0.2672  0.5178  0.2080
  176SOPE   H4R20005   5.588   4.313   8.771 -1.4686 -0.5079 -1.7716
  176SOPE   H4S20006   5.425   4.247   8.778  1.4782 -1.0437 -0.1230
  176SOPE   C2520007   5.440   4.460   8.828  0.5274 -0.4584  0.4692
  176SOPE   H5R20008   5.335   4.465   8.864  1.0637 -0.0938  2.0803
  176SOPE   H5S20009   5.504   4.531   8.885 -0.7732  1.0649  0.1112
  176SOPE   C2620010   5.433   4.506   8.682  0.7823  0.4001  0.0300
  176SOPE   H6R20011   5.366   4.433   8.633  0.8618  0.7274 -0.5718
  176SOPE   H6S20012   5.393   4.610   8.684  1.0495  0.5472 -1.4824
  176SOPE   C2720013   5.571   4.519   8.613 -0.4685  0.8358  0.5278
  176SOPE   H7R20014   5.644   4.579   8.670  1.9194 -0.9856 -0.4496
  176SOPE   H7S20015   5.618   4.420   8.597 -1.2895  0.5619 -0.3204
  176SOPE   C2820016   5.563   4.583   8.476  0.1429 -0.0657 -0.4626
  176SOPE   H8R20017   5.497   4.518   8.414 -1.2480 -0.3852  1.2664
  176SOPE   H8S20018   5.505   4.678   8.486  0.3607  0.3394 -2.5482
  176SOPE   C2920019   5.698   4.613   8.408  0.4916 -0.7161 -0.5079
  176SOPE   H9120020   5.744   4.698   8.459  1.3996 -1.4059 -0.1491
  176SOPE  C21020021   5.749   4.564   8.296  0.1618  0.4597 -0.1530
  176SOPE  H10120022   5.851   4.598   8.272 -0.1707  1.9197  0.3698
  176SOPE  C21120023   5.685   4.459   8.202 -0.8257  0.9598 -0.7248
  176SOPE  H11R20024   5.649   4.369   8.257 -0.1712  1.4281  0.5064
  176SOPE  H11S20025   5.755   4.423   8.124  1.1230 -1.4192  1.9159
  176SOPE  C21220026   5.562   4.517   8.124  0.3832  0.0977  0.1020
  176SOPE  H12R20027   5.481   4.551   8.192  1.3298  0.4413  1.0871
  176SOPE  H12S20028   5.527   4.438   8.053 -0.2887 -0.4438  1.0053
  176SOPE  C21320029   5.599   4.636   8.033  0.5176 -0.0618  0.6189
  176SOPE  H13R20030   5.707   4.627   8.008  0.2652 -0.1428 -0.4531
  176SOPE  H13S20031   5.581   4.731   8.088  1.3391  1.1263 -1.0627
  176SOPE  C21420032   5.523   4.632   7.902  0.3960 -0.0934 -0.4093
  176SOPE  H14R20033   5.418   4.608   7.928  0.2594  2.0176  1.2971
  176SOPE  H14S20034   5.569   4.551   7.842  1.1724  1.3993 -1.9047
  176SOPE  C21520035   5.530   4.759   7.819 -0.4064  0.1225  0.1252
  176SOPE  H15R20036   5.495   4.836   7.890 -0.4221 -1.4629  1.9152
  176SOPE  H15S20037   5.462   4.739   7.733 -3.6090  0.4145  2.4098
  176SOPE  C21620038   5.667   4.801   7.772 -0.3425 -0.4162  0.4235
  176SOPE  H16R20039   5.693   4.738   7.685  1.7797  0.9577 -0.0261
  176SOPE  H16S20040   5.736   4.803   7.860 -2.5398  2.4162  2.2965
  176SOPE  C21720041   5.669   4.942   7.714  1.1042 -0.0608 -0.1663
  176SOPE  H17R20042   5.764   4.954   7.658  0.5983  1.1605 -0.7818
  176SOPE  H17S20043   5.668   5.012   7.800 -1.1857 -2.6638  2.1161
  176SOPE  C21820044   5.564   4.965   7.601  0.5025 -1.0354  0.1718
  176SOPE  H18R20045   5.458   4.952   7.631 -0.2493 -2.7811 -2.8049
  176SOPE  H18S20046   5.579   4.899   7.513 -2.0273  0.1077 -1.2200
  176SOPE  H18T20047   5.565   5.070   7.567 -0.5771 -1.2213 -0.4817
  176SOPE   C3320048   5.041   4.049   8.941 -0.6556  0.3931 -0.6642
  176SOPE   H3X20049   4.948   4.103   8.968 -0.3620 -0.1407  1.6765
  176SOPE   H3Y20050   4.999   3.954   8.903 -1.5248  0.1671  0.7755
  176SOPE   C3420051   5.118   4.127   8.828 -0.0247  0.3695  0.3797
  176SOPE   H4X20052   5.195   4.055   8.792 -2.0794 -1.3467 -0.8282
  176SOPE   H4Y20053   5.168   4.217   8.870 -0.9053  0.4862  1.2247
  176SOPE   C3520054   5.039   4.167   8.706  0.6615  0.4079 -0.7163
  176SOPE   H5X20055   4.953   4.233   8.731  1.7548  2.2803 -1.6875
  176SOPE   H5Y20056   4.991   4.081   8.655 -2.0836  1.1120  0.5027
  176SOPE   C3620057   5.121   4.244   8.607 -0.1475  0.1248 -0.7689
  176SOPE   H6X20058   5.203   4.174   8.581 -1.1866 -2.0621  1.3813
  176SOPE   H6Y20059   5.172   4.331   8.653  0.0672 -0.3096 -0.1690
  176SOPE   C3720060   5.051   4.282   8.469  0.8729 -0.1577  0.0389
  176SOPE   H7X20061   4.968   4.351   8.495 -0.8338 -1.6995 -1.0670
  176SOPE   H7Y20062   5.014   4.188   8.424  1.4766 -1.4703  2.1925
  176SOPE   C3820063   5.154   4.341   8.379 -0.1524  0.3983 -0.5292
  176SOPE   H8X20064   5.249   4.284   8.367 -1.5778 -2.1416 -0.4110
  176SOPE   H8Y20065   5.191   4.436   8.425  1.4543 -1.2200  1.7318
  176SOPE   C3920066   5.088   4.386   8.253 -0.2972  0.9080  0.4561
  176SOPE   H9X20067   5.134   4.480   8.218  1.5001  0.4455  1.4724
  176SOPE   H9Y20068   4.982   4.417   8.267 -1.0018 -1.1452  0.0521
  176SOPE  C31020069   5.074   4.281   8.142 -0.4556 -0.1287 -0.1248
  176SOPE  H10X20070   4.972   4.295   8.099 -0.0239  1.5801 -0.6478
  176SOPE  H10Y20071   5.071   4.184   8.196  2.3792 -0.8233 -1.0527
  176SOPE  C31120072   5.200   4.293   8.054 -0.2734 -0.1465 -0.2942
  176SOPE  H11X20073   5.210   4.197   8.000 -1.3407 -0.8115  0.6458
  176SOPE  H11Y20074   5.285   4.301   8.125 -0.9201  0.5879  0.4133
  176SOPE  C31220075   5.208   4.420   7.961 -1.1905  0.2188  0.5980
  176SOPE  H12X20076   5.305   4.408   7.908 -1.6367  0.3926 -0.2905
  176SOPE  H12Y20077   5.206   4.508   8.027 -0.3287  0.1801  0.6900
  176SOPE  C31320078   5.090   4.433   7.867  1.1764  0.3466 -0.3109
  176SOPE  H13X20079   5.000   4.471   7.919 -1.1633 -0.3242 -3.5382
  176SOPE  H13Y20080   5.067   4.331   7.829 -0.3477  0.1558  1.0448
  176SOPE  C31420081   5.122   4.517   7.743 -1.1251  0.2277 -0.3391
  176SOPE  H14X20082   5.043   4.509   7.665  0.3124  1.5893 -2.0049
  176SOPE  H14Y20083   5.210   4.461   7.705 -1.4218  0.4140 -1.3206
  176SOPE  C31520084   5.161   4.663   7.763  0.6651  0.0273 -0.6033
  176SOPE  H15X20085   5.189   4.696   7.661  2.5617 -0.9596 -0.4453
  176SOPE  H15Y20086   5.248   4.666   7.831  1.1640 -1.3866 -1.1440
  176SOPE  C31620087   5.049   4.750   7.818 -0.2226  0.1670  0.2992
  176SOPE  H16X20088   5.023   4.720   7.921  1.5188 -1.0448  0.4378
  176SOPE  H16Y20089   4.959   4.740   7.755  0.2597  1.5854 -0.6959
  176SOPE  C31720090   5.102   4.899   7.809 -0.2339  0.7509 -0.3574
  176SOPE  H17X20091   5.087   4.944   7.708 -1.0988 -0.9341 -1.0181
  176SOPE  H17Y20092   5.210   4.907   7.836 -0.3354 -1.1892  0.8569
  176SOPE  C31820093   5.030   4.990   7.910 -0.1490 -0.8103  0.1933
  176SOPE  H18X20094   5.042   5.095   7.875 -0.1731 -1.4819 -2.0160
  176SOPE  H18Y20095   5.073   4.979   8.012 -1.3701 -1.1703  0.6796
  176SOPE  H18Z20096   4.920   4.976   7.918 -0.7116  1.5392 -2.0310
  177SOPE     N20097   5.387   2.049   9.785  0.0617  0.0416  0.4255
  177SOPE   HN120098   5.402   1.952   9.749 -4.3853 -0.9110  0.6116
  177SOPE   HN220099   5.446   2.057   9.871  1.9060  0.2004 -0.7804
  177SOPE   HN320100   5.285   2.050   9.801  0.1396 -1.5575  1.2571
  177SOPE   C1220101   5.443   2.154   9.690 -0.5552 -0.6007 -0.0968
  177SOPE  H12A20102   5.459   2.110   9.589  2.2567  0.8469 -0.3647
  177SOPE  H12B20103   5.546   2.182   9.719 -0.1142 -1.1564 -1.0830
  177SOPE   C1120104   5.344   2.269   9.670  0.5136 -0.1697  0.3554
  177SOPE  H11A20105   5.391   2.337   9.596 -1.8825 -0.0229 -1.1437
  177SOPE  H11B20106   5.305   2.321   9.760 -2.6240 -2.2025  0.3707
  177SOPE     P20107   5.095   2.297   9.593 -0.2238  0.2773  0.0940
  177SOPE   O1320108   5.106   2.430   9.521 -0.1038  0.2879 -0.4701
  177SOPE   O1420109   5.058   2.291   9.738 -0.4643  0.2459  0.2729
  177SOPE   O1220110   5.235   2.221   9.592 -0.1194 -0.3366  0.3800
  177SOPE   O1120111   5.007   2.193   9.516 -0.7324 -0.1359 -0.0269
  177SOPE    C120112   5.007   2.055   9.549 -0.5754 -0.0129  0.2042
  177SOPE    HA20113   4.938   2.030   9.632 -0.3806  2.3885  1.1474
  177SOPE    HB20114   5.105   2.021   9.589 -1.2951 -1.2320  1.0002
  177SOPE    C220115   4.961   1.975   9.428  0.2587  0.6596 -0.7687
  177SOPE    HS20116   4.949   1.869   9.458 -0.7952  0.5501 -1.5429
  177SOPE   O2120117   5.060   1.981   9.314  0.3902 -0.0910 -0.2447
  177SOPE   C2120118   5.171   1.907   9.349  0.6140  0.2388  0.3545
  177SOPE   O2220119   5.188   1.852   9.456  0.9051 -0.4675 -0.1334
  177SOPE   C2220120   5.273   1.899   9.236 -0.0016  0.1356 -0.1656
  177SOPE   H2R20121   5.257   1.987   9.170  0.7315 -0.2409 -0.8721
  177SOPE   H2S20122   5.263   1.809   9.172  0.7786 -0.0105 -0.0900
  177SOPE    C320123   4.828   2.031   9.365 -0.1876 -0.5337 -0.1161
  177SOPE    HX20124   4.852   2.134   9.329 -1.2488 -0.4999 -0.7862
  177SOPE    HY20125   4.751   2.036   9.446  1.5607  0.2377  1.5799
  177SOPE   O3120126   4.787   1.956   9.252 -0.2558 -0.0018  0.3174
  177SOPE   C3120127   4.714   2.030   9.160 -0.5249 -0.3658  0.4907
  177SOPE   O3220128   4.665   2.138   9.185  0.1682  0.5509  0.6451
  177SOPE   C3220129   4.703   1.967   9.023 -0.4639  0.2716  0.5048
  177SOPE   H2X20130   4.682   1.859   9.032  1.3277 -0.0469  1.4337
  177SOPE   H2Y20131   4.804   1.984   8.981 -1.5402  0.9359 -1.9752
  177SOPE   C2320132   5.416   1.900   9.295  0.1536  0.2297 -0.7392
  177SOPE   H3R20133   5.430   1.824   9.374 -0.8933  0.0261 -0.7325
  177SOPE   H3S20134   5.434   2.000   9.340  1.3698  0.6345 -2.0364
  177SOPE   C2420135   5.532   1.883   9.195  0.0971 -0.6080 -0.3005
  177SOPE   H4R20136   5.631   1.882   9.245  0.7810 -2.9003 -1.5346
  177SOPE   H4S20137   5.528   1.776   9.165 -3.0326 -1.4297  2.3467
  177SOPE   C2520138   5.538   1.989   9.080  0.7917 -0.0365 -0.2357
  177SOPE   H5R20139   5.435   1.984   9.039  1.1841 -0.0171 -1.2558
  177SOPE   H5S20140   5.552   2.091   9.121 -0.1146  0.7706 -1.8162
  177SOPE   C2620141   5.632   1.971   8.955 -0.3336 -0.0262  0.1829
  177SOPE   H6R20142   5.607   2.051   8.882 -1.1355 -0.5445 -0.1146
  177SOPE   H6S20143   5.730   1.991   9.003 -0.0226  0.5950 -0.6836
  177SOPE   C2720144   5.614   1.845   8.879  0.0077  0.7296 -0.0280
  177SOPE   H7R20145   5.628   1.758   8.947  0.9662  0.7486 -0.1835
  177SOPE   H7S20146   5.506   1.847   8.853 -0.7965  2.0048  2.9418
  177SOPE   C2820147   5.714   1.829   8.762  0.3302  0.5278 -0.1198
  177SOPE   H8R20148   5.811   1.856   8.809  1.4514  0.2191 -2.1781
  177SOPE   H8S20149   5.746   1.730   8.725  0.7007  0.7226 -0.3229
  177SOPE   C2920150   5.691   1.939   8.659  0.5145  0.0581 -0.2789
  177SOPE   H9120151   5.701   2.042   8.697  1.4848 -0.4654  0.9757
  177SOPE  C21020152   5.648   1.921   8.535 -0.3948  0.5896 -0.9683
  177SOPE  H10120153   5.638   2.008   8.467  0.8298  0.6723 -1.0736
  177SOPE  C21120154   5.612   1.798   8.466  0.2346 -0.2163 -0.0251
  177SOPE  H11R20155   5.667   1.709   8.504  0.2084  0.9167  2.9021
  177SOPE  H11S20156   5.631   1.808   8.357 -0.8939 -2.9506 -0.5680
  177SOPE  C21220157   5.467   1.764   8.474 -0.7043 -0.0980  0.0596
  177SOPE  H12R20158   5.432   1.702   8.389 -3.1895  1.1601  0.0591
  177SOPE  H12S20159   5.399   1.852   8.483 -2.3606 -1.1002 -1.7298
  177SOPE  C21320160   5.435   1.665   8.584 -0.3635  0.2736 -0.1510
  177SOPE  H13R20161   5.448   1.721   8.680 -0.7631 -1.4709  0.9732
  177SOPE  H13S20162   5.516   1.590   8.575  0.0956  0.5823  1.1943
  177SOPE  C21420163   5.299   1.601   8.589  0.5205 -0.2174 -0.5982
  177SOPE  H14R20164   5.275   1.551   8.493  0.0273 -0.2767 -0.4473
  177SOPE  H14S20165   5.229   1.686   8.603 -0.0762 -0.2880 -2.7867
  177SOPE  C21520166   5.273   1.493   8.696  0.4212  0.3899  0.0264
  177SOPE  H15R20167   5.342   1.410   8.673  0.8829  1.1897 -1.6243
  177SOPE  H15S20168   5.172   1.452   8.674  1.2466 -0.5480 -2.2566
  177SOPE  C21620169   5.286   1.543   8.841  0.0853 -0.0020  0.1055
  177SOPE  H16R20170   5.193   1.597   8.871  0.2427 -0.5668  1.6836
  177SOPE  H16S20171   5.383   1.597   8.848 -0.4027  1.0730 -1.0064
  177SOPE  C21720172   5.290   1.425   8.943  0.0654  0.0588  0.2934
  177SOPE  H17R20173   5.372   1.360   8.907 -1.6062 -2.3050  0.5626
  177SOPE  H17S20174   5.195   1.367   8.940  0.3554 -0.4836  1.3305
  177SOPE  C21820175   5.303   1.466   9.087  0.0593  0.2232 -1.1738
  177SOPE  H18R20176   5.341   1.384   9.153 -2.3149  0.5775  0.7758
  177SOPE  H18S20177   5.213   1.508   9.137  0.0348 -1.9750  0.8473
  177SOPE  H18T20178   5.372   1.553   9.081 -0.9787  1.0417 -1.4860
  177SOPE   C3320179   4.600   2.041   8.933 -0.4781  0.4549  0.6141
  177SOPE   H3X20180   4.643   2.143   8.927  1.4447 -0.3927 -1.0063
  177SOPE   H3Y20181   4.492   2.041   8.962 -1.4227 -1.0796 -2.4398
  177SOPE   C3420182   4.599   1.982   8.791  0.3769 -0.6940  0.4734
  177SOPE   H4X20183   4.551   1.881   8.795 -2.5401  0.6122  2.1070
  177SOPE   H4Y20184   4.701   1.983   8.748  0.0054  0.2357 -0.4428
  177SOPE   C3520185   4.517   2.071   8.699 -0.2878  0.7567  0.3780
  177SOPE   H5X20186   4.563   2.172   8.695  0.3576  0.4277 -1.1124
  177SOPE   H5Y20187   4.410   2.062   8.728 -0.4884 -0.6476 -0.7004
  177SOPE   C3620188   4.529   2.023   8.550  0.0894  0.3555 -0.1976
  177SOPE   H6X20189   4.469   1.931   8.531  0.7351 -0.2836  0.7440
  177SOPE   H6Y20190   4.633   1.996   8.522 -1.0933 -4.0628 -1.0648
  177SOPE   C3720191   4.480   2.134   8.464  0.1643  0.4051 -0.4164
  177SOPE   H7X20192   4.549   2.221   8.467  1.5104 -0.5388 -2.1988
  177SOPE   H7Y20193   4.381   2.170   8.500  0.3860  0.7415 -0.1346
  177SOPE   C3820194   4.452   2.089   8.317 -0.8029  0.0538 -0.1108
  177SOPE   H8X20195   4.379   2.155   8.265  0.7951  0.9732 -1.3054
  177SOPE   H8Y20196   4.403   1.990   8.325  0.2172 -0.3110  3.7085
  177SOPE   C3920197   4.589   2.050   8.258 -0.4365  0.6141 -0.5199
  177SOPE   H9X20198   4.627   1.960   8.310 -1.4286  0.6905  0.3701
  177SOPE   H9Y20199   4.660   2.135   8.274 -1.5836  1.4085  0.4911
  177SOPE  C31020200   4.579   2.026   8.105 -0.1665 -0.3978 -0.3990
  177SOPE  H10X20201   4.682   2.025   8.063  0.0583  0.5664  0.1152
  177SOPE  H10Y20202   4.526   2.107   8.051 -0.5132 -0.5562 -0.3050
  177SOPE  C31120203   4.509   1.899   8.063  0.0639  0.9048 -0.5914
  177SOPE  H11X20204   4.404   1.907   8.096 -0.4139  1.0693 -2.0788
  177SOPE  H11Y20205   4.560   1.819   8.120  0.4708  1.3934 -0.2575
  177SOPE  C31220206   4.490   1.876   7.916  0.3705 -0.1997  0.5432
  177SOPE  H12X20207   4.449   1.774   7.903 -1.1358  0.4721 -0.2784
  177SOPE  H12Y20208   4.585   1.869   7.859 -0.0823 -2.2553 -0.0309
  177SOPE  C31320209   4.383   1.969   7.847 -0.4107  0.1324 -0.4798
  177SOPE  H13X20210   4.393   2.075   7.877  1.1350 -0.1833  0.2423
  177SOPE  H13Y20211   4.285   1.938   7.889  0.4467  2.0882  3.4141
  177SOPE  C31420212   4.364   1.952   7.696  0.3445  0.3373  0.2486
  177SOPE  H14X20213   4.333   1.846   7.694 -3.0382  1.2222 -0.2531
  177SOPE  H14Y20214   4.464   1.971   7.651  1.1189  2.1471  2.5138
  177SOPE  C31520215   4.253   2.042   7.622 -0.1672 -0.0485 -0.1626
  177SOPE  H15X20216   4.157   2.024   7.675 -0.2274  2.2014  0.6151
  177SOPE  H15Y20217   4.254   2.010   7.516  1.6229  0.3167 -0.2815
  177SOPE  C31620218   4.289   2.192   7.625 -0.2913 -0.2828 -0.6771
  177SOPE  H16X20219   4.395   2.209   7.596 -0.2334  0.1261 -0.2539
  177SOPE  H16Y20220   4.267   2.227   7.728  0.7286  1.2438 -0.9438
  177SOPE  C31720221   4.199   2.268   7.521  0.2744  0.0141  0.2759
  177SOPE  H17X20222   4.248   2.258   7.421 -0.8595 -1.7842 -0.1500
  177SOPE  H17Y20223   4.215   2.374   7.547  0.2635  0.8129 -2.5884
  177SOPE  C31820224   4.048   2.233   7.523 -0.3893 -0.0588  0.3362
  177SOPE  H18X20225   4.006   2.260   7.424 -0.7892 -0.7940  0.2943
  177SOPE  H18Y20226   3.997   2.283   7.608  0.6204 -0.2347  1.0604
  177SOPE  H18Z20227   4.028   2.124   7.531 -1.6424  0.1223 -0.1690
  178SOPE     N20228   2.381   7.109   9.610  0.0755 -0.1326  0.3284
  178SOPE   HN120229   2.278   7.105   9.621 -0.0296  2.9362  1.3419
  178SOPE   HN220230   2.417   7.037   9.676  0.5478  2.5447  3.2093
  178SOPE   HN320231   2.421   7.194   9.654 -1.7485 -0.2019  2.2881
  178SOPE   C1220232   2.430   7.080   9.469 -0.2608  0.0075  0.3811
  178SOPE  H12A20233   2.540   7.065   9.468 -0.2854 -0.2920  1.1946
  178SOPE  H12B20234   2.417   7.173   9.409  0.0311 -1.5603 -2.2537
  178SOPE   C1120235   2.359   6.950   9.420  0.3751 -0.3228 -0.3327
  178SOPE  H11A20236   2.388   6.944   9.313 -1.8037 -0.4801 -0.9696
  178SOPE  H11B20237   2.248   6.952   9.424  0.2218 -0.9255 -2.9099
  178SOPE     P20238   2.335   6.691   9.454  0.1651 -0.5921  0.4726
  178SOPE   O1320239   2.255   6.656   9.574  0.1569  0.3873  0.6267
  178SOPE   O1420240   2.432   6.594   9.413 -0.1300  0.2554  0.3313
  178SOPE   O1220241   2.408   6.831   9.480 -0.0199  0.1915  0.6425
  178SOPE   O1120242   2.234   6.730   9.332 -0.3164 -0.2835 -0.5381
  178SOPE    C120243   2.224   6.644   9.219 -0.0974  0.1802  0.4107
  178SOPE    HA20244   2.117   6.616   9.206  0.3190 -1.7866  0.7971
  178SOPE    HB20245   2.277   6.546   9.212 -2.4298 -1.2072  0.9939
  178SOPE    C220246   2.262   6.736   9.094  0.4500  0.6263 -0.4413
  178SOPE    HS20247   2.240   6.680   9.001 -0.0832  0.2620 -0.0990
  178SOPE   O2120248   2.389   6.801   9.096  1.2341  0.3682  0.1541
  178SOPE   C2120249   2.492   6.722   9.088 -0.1492 -0.2451  0.0325
  178SOPE   O2220250   2.490   6.607   9.058 -0.2650  0.0422 -0.2570
  178SOPE   C2220251   2.622   6.807   9.078  0.1524  0.8878 -0.0684
  178SOPE   H2R20252   2.600   6.915   9.089 -0.1976  0.8227 -0.1147
  178SOPE   H2S20253   2.667   6.798   8.977 -0.3449  0.8158 -0.2883
  178SOPE    C320254   2.158   6.854   9.093 -0.9454 -0.6502  0.4774
  178SOPE    HX20255   2.184   6.927   9.173  1.2061 -1.5915  0.7138
  178SOPE    HY20256   2.057   6.813   9.113 -0.7407 -0.7604  1.3533
  178SOPE   O3120257   2.162   6.922   8.964 -0.8654 -0.1150  0.0096
  178SOPE   C3120258   2.055   6.990   8.934  0.2521  0.0481 -0.3382
  178SOPE   O3220259   1.964   7.006   9.016  0.4218  0.3689 -0.2443
  178SOPE   C3220260   2.061   7.033   8.787  0.0369 -0.0170  0.0867
  178SOPE   H2X20261   1.955   7.058   8.762 -0.4717  1.1674  3.0213
  178SOPE   H2Y20262   2.111   6.955   8.727  2.2460  1.7687 -0.5335
  178SOPE   C2320263   2.731   6.762   9.180  0.3670 -0.0703 -0.0339
  178SOPE   H3R20264   2.782   6.680   9.124 -1.1039 -0.0024 -1.5732
  178SOPE   H3S20265   2.681   6.714   9.267 -2.0320 -2.8650 -2.6691
  178SOPE   C2420266   2.839   6.865   9.220  0.1986 -0.3870  0.1173
  178SOPE   H4R20267   2.781   6.941   9.277  1.2243 -0.7929  1.7668
  178SOPE   H4S20268   2.910   6.810   9.285  0.5923 -1.7394 -1.3991
  178SOPE   C2520269   2.908   6.931   9.102  0.3922 -0.6836 -0.3736
  178SOPE   H5R20270   2.961   6.857   9.038 -0.0812  0.3083 -1.9684
  178SOPE   H5S20271   2.829   6.987   9.047 -1.5808 -1.8033  1.1773
  178SOPE   C2620272   3.020   7.033   9.138 -0.1234  0.2680 -0.0258
  178SOPE   H6R20273   2.969   7.112   9.197  0.0431 -0.3272  0.9451
  178SOPE   H6S20274   3.094   6.985   9.206 -2.2504 -1.1333  1.4408
  178SOPE   C2720275   3.080   7.104   9.023  0.0250 -0.4137 -0.1771
  178SOPE   H7R20276   3.174   7.148   9.063  0.5204 -0.5912 -1.1424
  178SOPE   H7S20277   3.099   7.035   8.939 -1.9239  0.4022 -1.3611
  178SOPE   C2820278   2.991   7.213   8.957 -0.5911  0.7749  0.6914
  178SOPE   H8R20279   2.910   7.165   8.896  1.6042  0.1592 -1.9275
  178SOPE   H8S20280   2.945   7.272   9.039 -1.6091  2.3801 -0.9649
  178SOPE   C2920281   3.057   7.304   8.864 -0.3613  0.0080  0.0160
  178SOPE   H9120282   3.083   7.403   8.906  2.5690 -0.4547 -0.4500
  178SOPE  C21020283   3.089   7.272   8.742  0.9839  0.8471 -0.3477
  178SOPE  H10120284   3.156   7.341   8.689  2.0477  2.5901  2.9509
  178SOPE  C21120285   3.046   7.147   8.675 -0.1017 -0.1058  0.1648
  178SOPE  H11R20286   2.982   7.083   8.739 -2.0704  1.8326  0.2655
  178SOPE  H11S20287   3.136   7.096   8.636 -0.9066 -0.4402 -1.3140
  178SOPE  C21220288   2.966   7.164   8.542 -0.1032  0.2726  0.3717
  178SOPE  H12R20289   3.008   7.238   8.471 -2.4606 -0.6013 -2.1245
  178SOPE  H12S20290   2.867   7.209   8.566 -0.3263  0.2552 -0.4911
  178SOPE  C21320291   2.940   7.034   8.463  0.1463 -0.3703  0.0437
  178SOPE  H13R20292   2.894   6.956   8.527  1.4171 -2.2612 -1.2579
  178SOPE  H13S20293   3.028   6.988   8.412 -0.0030  0.0917 -0.6464
  178SOPE  C21420294   2.833   7.060   8.354  0.0236 -0.5798 -0.1945
  178SOPE  H14R20295   2.882   7.129   8.282  1.6457  0.4399  1.7821
  178SOPE  H14S20296   2.746   7.108   8.404 -0.8625 -3.0213  0.7520
  178SOPE  C21520297   2.790   6.937   8.272 -0.1423 -0.9103 -0.3832
  178SOPE  H15R20298   2.750   6.866   8.347  0.3326 -0.7097  0.0664
  178SOPE  H15S20299   2.885   6.904   8.225  1.4740  0.8949  1.4569
  178SOPE  C21620300   2.679   6.960   8.166 -0.5286 -0.2055 -0.5877
  178SOPE  H16R20301   2.689   6.875   8.096  0.5873 -1.0718  0.5624
  178SOPE  H16S20302   2.690   7.054   8.108 -2.4899  0.0124 -0.6891
  178SOPE  C21720303   2.541   6.959   8.232  0.3734 -0.0729 -0.6078
  178SOPE  H17R20304   2.563   7.028   8.316  1.0626 -1.1011  0.0854
  178SOPE  H17S20305   2.508   6.860   8.270 -0.4843  0.6307  0.5497
  178SOPE  C21820306   2.428   7.029   8.158  0.0690 -0.6717  0.3145
  178SOPE  H18R20307   2.425   6.983   8.057  2.7633  0.3730 -0.3280
  178SOPE  H18S20308   2.439   7.139   8.145 -1.2189 -0.4926  0.6186
  178SOPE  H18T20309   2.334   7.007   8.213 -1.0561 -0.7192 -1.5460
  178SOPE   C3320310   2.144   7.164   8.775 -0.0757  0.2796  0.0013
  178SOPE   H3X20311   2.247   7.140   8.810 -1.1340 -2.5809  1.4993
  178SOPE   H3Y20312   2.096   7.248   8.829 -2.0696 -0.3886 -0.6281
  178SOPE   C3420313   2.167   7.196   8.627  0.5371 -0.4850 -0.0392
  178SOPE   H4X20314   2.067   7.207   8.579 -0.7398 -1.4406  2.2456
  178SOPE   H4Y20315   2.201   7.106   8.572  0.9300  0.3776 -1.2627
  178SOPE   C3520316   2.249   7.329   8.604  0.4183  0.0162 -0.5426
  178SOPE   H5X20317   2.349   7.319   8.650  1.3560  1.0258 -2.2562
  178SOPE   H5Y20318   2.187   7.412   8.645 -1.5047 -2.1209  1.1202
  178SOPE   C3620319   2.266   7.363   8.452 -0.3972 -0.1215 -0.1539
  178SOPE   H6X20320   2.175   7.406   8.404 -0.9833  1.9361  2.5354
  178SOPE   H6Y20321   2.273   7.268   8.395 -0.5945 -0.7106  0.7761
  178SOPE   C3720322   2.390   7.452   8.426 -0.1154  0.9938 -0.0053
  178SOPE   H7X20323   2.471   7.387   8.464 -1.3330 -2.0103 -2.1335
  178SOPE   H7Y20324   2.396   7.547   8.483  0.6715  0.7786  0.2871
  178SOPE   C3820325   2.415   7.471   8.272 -0.4555  0.1328  0.2317
  178SOPE   H8X20326   2.402   7.376   8.216 -3.6757  2.0192 -2.6141
  178SOPE   H8Y20327   2.522   7.499   8.263  0.0621 -1.3371  1.3266
  178SOPE   C3920328   2.318   7.566   8.202  0.2450 -0.2008 -0.5639
  178SOPE   H9X20329   2.336   7.672   8.233 -0.7753  0.2337 -1.3998
  178SOPE   H9Y20330   2.217   7.540   8.239  1.0392 -0.9869  1.1963
  178SOPE  C31020331   2.333   7.561   8.052 -0.1839  0.7237 -0.1166
  178SOPE  H10X20332   2.351   7.457   8.019 -0.7753  1.1319 -1.8456
  178SOPE  H10Y20333   2.426   7.611   8.019  0.5497 -0.0031  0.7972
  178SOPE  C31120334   2.225   7.645   7.979 -0.1465 -0.8028  0.4345
  178SOPE  H11X20335   2.256   7.752   7.984  0.5016 -1.0439  3.5558
  178SOPE  H11Y20336   2.124   7.628   8.023 -1.0554  0.0011 -1.2195
  178SOPE  C31220337   2.211   7.632   7.829 -0.3512 -0.0635  0.1128
  178SOPE  H12X20338   2.171   7.531   7.806 -0.5514  0.1609 -0.5509
  178SOPE  H12Y20339   2.314   7.639   7.787  1.0007  1.5184  3.3900
  178SOPE  C31320340   2.121   7.732   7.765  1.0209  0.5963  0.0428
  178SOPE  H13X20341   2.172   7.831   7.768 -1.3214  1.9410 -0.9378
  178SOPE  H13Y20342   2.021   7.754   7.809 -0.0750 -0.3820 -1.8586
  178SOPE  C31420343   2.101   7.714   7.613  0.3418  0.1338 -0.2171
  178SOPE  H14X20344   2.196   7.680   7.567 -0.4177 -0.2675 -1.5395
  178SOPE  H14Y20345   2.080   7.816   7.575  0.3041  0.9716  1.9183
  178SOPE  C31520346   1.986   7.611   7.578 -0.0981  0.7804 -0.1144
  178SOPE  H15X20347   1.888   7.652   7.610 -0.9879  2.3920 -4.3007
  178SOPE  H15Y20348   2.011   7.513   7.625  2.9329  0.9689 -1.0776
  178SOPE  C31620349   1.976   7.590   7.431  0.9410 -0.0950 -0.6672
  178SOPE  H16X20350   1.913   7.499   7.416 -0.3994  0.9998 -2.0494
  178SOPE  H16Y20351   2.077   7.567   7.391  1.0529 -1.6776  0.4281
  178SOPE  C31720352   1.913   7.712   7.364 -0.4382  0.4774 -0.1803
  178SOPE  H17X20353   1.980   7.798   7.379 -0.7984  0.8003 -0.4055
  178SOPE  H17Y20354   1.819   7.717   7.423  0.9231  0.3622  2.1423
  178SOPE  C31820355   1.881   7.685   7.216 -0.0357 -1.0151  0.5769
  178SOPE  H18X20356   1.820   7.592   7.208  0.6020 -1.2589 -3.1174
  178SOPE  H18Y20357   1.980   7.673   7.167 -0.3172  3.0531 -1.3843
  178SOPE  H18Z20358   1.841   7.780   7.175  1.5403  0.2612  1.8472
  179SOPE     N20359   3.752   4.109   5.631  0.3216 -0.0214  0.1479
  179SOPE   HN120360   3.648   4.121   5.626  0.1597 -0.9059  1.1455
  179SOPE   HN220361   3.800   4.186   5.682 -1.1898  0.6661  0.5947
  179SOPE   HN320362   3.787   4.106   5.533  1.1064 -0.4286  0.4354
  179SOPE   C1220363   3.789   3.988   5.709 -0.2591  0.0204  0.4746
  179SOPE  H12A20364   3.705   3.916   5.707 -0.9058  0.7802 -0.2418
  179SOPE  H12B20365   3.812   4.027   5.810  0.6647  1.9363 -0.4347
  179SOPE   C1120366   3.923   3.914   5.656 -1.7490  0.3342  0.1651
  179SOPE  H11A20367   3.948   3.821   5.709  0.4286 -0.0857 -1.4642
  179SOPE  H11B20368   4.008   3.986   5.657 -2.2619  0.9934 -0.9177
  179SOPE     P20369   4.004   3.818   5.417  0.2506 -0.1472 -0.2167
  179SOPE   O1320370   4.124   3.900   5.398 -0.2814  0.3271 -0.1591
  179SOPE   O1420371   3.927   3.782   5.298  0.5510  0.0858  0.3320
  179SOPE   O1220372   3.909   3.895   5.514  0.0905  0.2247  0.6232
  179SOPE   O1120373   4.049   3.682   5.494  0.1305 -0.1267  0.2296
  179SOPE    C120374   3.944   3.588   5.537  0.7171 -1.1341  0.1729
  179SOPE    HA20375   3.888   3.546   5.450  1.6525  0.1671 -1.1218
  179SOPE    HB20376   3.866   3.626   5.606  1.1273 -1.7767  1.0006
  179SOPE    C220377   4.020   3.471   5.606  0.1398  0.5479  0.1052
  179SOPE    HS20378   3.960   3.378   5.595  3.5660 -1.9638  0.8128
  179SOPE   O2120379   4.043   3.505   5.744 -0.1725  0.2376 -0.2494
  179SOPE   C2120380   3.947   3.482   5.828  0.0155 -0.4270  0.3186
  179SOPE   O2220381   3.842   3.429   5.807 -0.0913  0.1495  0.0454
  179SOPE   C2220382   3.995   3.544   5.961 -0.3054 -0.2275  0.5475
  179SOPE   H2R20383   3.905   3.571   6.020 -0.0542 -0.2448  0.9376
  179SOPE   H2S20384   4.052   3.636   5.938 -2.9726  0.8371 -2.7131
  179SOPE    C320385   4.159   3.425   5.541  0.2419 -0.4188 -0.8812
  179SOPE    HX20386   4.230   3.507   5.561  0.4874 -0.7240 -0.4991
  179SOPE    HY20387   4.142   3.440   5.432 -0.8475 -0.9489 -0.7981
  179SOPE   O3120388   4.195   3.286   5.571  0.3010 -0.5731 -0.1831
  179SOPE   C3120389   4.327   3.279   5.591 -0.4369 -0.1982 -0.0282
  179SOPE   O3220390   4.407   3.372   5.588  0.5932  0.0929 -0.2944
  179SOPE   C3220391   4.377   3.136   5.605  0.0660  0.6455  0.1572
  179SOPE   H2X20392   4.454   3.117   5.527  1.1137  3.0023  0.5250
  179SOPE   H2Y20393   4.288   3.074   5.580  0.6759  0.3004 -1.2750
  179SOPE   C2320394   4.085   3.439   6.046  0.2657 -0.4000 -0.1128
  179SOPE   H3R20395   4.194   3.445   6.024  0.1517  0.2500 -0.5244
  179SOPE   H3S20396   4.044   3.339   6.022  1.1507 -0.5901 -0.8875
  179SOPE   C2420397   4.064   3.460   6.191  0.7073 -0.3530  0.2071
  179SOPE   H4R20398   4.119   3.547   6.232  0.6697 -0.4794  0.5331
  179SOPE   H4S20399   3.954   3.476   6.196  0.8055  0.0866  1.4143
  179SOPE   C2520400   4.096   3.333   6.278  0.2163 -0.1484  0.3308
  179SOPE   H5R20401   4.013   3.263   6.257 -0.3555  0.7708 -0.5581
  179SOPE   H5S20402   4.188   3.283   6.241  0.4685  1.0657 -0.7434
  179SOPE   C2620403   4.097   3.356   6.429  0.7602  0.5330  0.3903
  179SOPE   H6R20404   4.181   3.423   6.458 -0.9278  2.2368  1.5744
  179SOPE   H6S20405   4.009   3.419   6.456  1.3162  1.1621  0.7723
  179SOPE   C2720406   4.100   3.236   6.522  0.4984 -0.7189 -0.1902
  179SOPE   H7R20407   4.007   3.178   6.506  0.1622 -0.6938  1.5121
  179SOPE   H7S20408   4.185   3.169   6.497  1.5772  0.4797  0.1136
  179SOPE   C2820409   4.139   3.282   6.656 -0.6396  0.4562 -0.4356
  179SOPE   H8R20410   4.157   3.193   6.720  0.4489  0.8211 -0.2112
  179SOPE   H8S20411   4.234   3.339   6.650  0.1353 -0.6480  0.7686
  179SOPE   C2920412   4.033   3.370   6.718  0.6030 -0.6616  0.4075
  179SOPE   H9120413   3.929   3.346   6.688  0.2607 -1.1489  1.9043
  179SOPE  C21020414   4.044   3.468   6.813 -0.2578  0.7372 -0.2387
  179SOPE  H10120415   3.959   3.528   6.848  0.1620  1.1922  0.0291
  179SOPE  C21120416   4.173   3.498   6.894 -0.2789  0.5289 -0.1322
  179SOPE  H11R20417   4.157   3.595   6.946  0.2175  0.1205  0.7947
  179SOPE  H11S20418   4.267   3.506   6.835  1.0208 -0.1210  1.7723
  179SOPE  C21220419   4.199   3.395   7.003 -0.1554  0.4929 -0.0910
  179SOPE  H12R20420   4.224   3.294   6.965 -0.7059  0.0918  0.5996
  179SOPE  H12S20421   4.100   3.376   7.049 -0.5011 -2.1675 -1.7460
  179SOPE  C21320422   4.307   3.433   7.105 -0.0643  0.2420  0.1007
  179SOPE  H13R20423   4.397   3.461   7.046  0.2335 -0.3635  0.2628
  179SOPE  H13S20424   4.337   3.340   7.158 -0.7288 -1.0684 -1.6665
  179SOPE  C21420425   4.293   3.547   7.200  0.1258  0.1284  0.4542
  179SOPE  H14R20426   4.198   3.535   7.257  0.1127 -1.2270  0.1697
  179SOPE  H14S20427   4.290   3.641   7.142  3.4916 -1.0540 -1.9350
  179SOPE  C21520428   4.394   3.554   7.318 -0.1460 -1.2540  1.2058
  179SOPE  H15R20429   4.492   3.533   7.271  0.8524 -0.5821  2.9247
  179SOPE  H15S20430   4.380   3.474   7.394  0.6692 -0.3023  2.4047
  179SOPE  C21620431   4.409   3.695   7.384 -0.1699  0.4973 -0.1123
  179SOPE  H16R20432   4.315   3.721   7.437  0.1168  3.7912 -1.0127
  179SOPE  H16S20433   4.413   3.776   7.307 -0.9001 -1.1112 -1.9346
  179SOPE  C21720434   4.526   3.691   7.477 -0.7430 -0.0618  0.5521
  179SOPE  H17R20435   4.525   3.611   7.554 -1.5187  0.5840  1.2449
  179SOPE  H17S20436   4.517   3.781   7.542 -1.8768  0.0772  0.2281
  179SOPE  C21820437   4.667   3.689   7.419 -0.6254  0.0651  0.4067
  179SOPE  H18R20438   4.665   3.760   7.333  0.3181 -0.0585  0.2609
  179SOPE  H18S20439   4.705   3.588   7.392 -1.0471  0.5916 -2.5259
  179SOPE  H18T20440   4.744   3.727   7.489 -1.0942 -0.5611  1.2705
  179SOPE   C3320441   4.445   3.102   5.746  0.3571  0.3714  0.4156
  179SOPE   H3X20442   4.540   3.158   5.756 -0.0093  0.7157  2.4492
  179SOPE   H3Y20443   4.471   2.995   5.747  4.6751  1.2201 -1.4970
  179SOPE   C3420444   4.357   3.130   5.862 -0.5457  0.3991 -0.6245
  179SOPE   H4X20445   4.266   3.066   5.856  0.2991 -1.1991  1.9588
  179SOPE   H4Y20446   4.325   3.236   5.858  2.9095  1.5008 -3.4438
  179SOPE   C3520447   4.417   3.094   6.000 -0.0911  0.1245  0.8351
  179SOPE   H5X20448   4.469   2.996   5.989  0.0549  0.2144  0.7146
  179SOPE   H5Y20449   4.332   3.081   6.069 -0.4715  0.9612  0.5425
  179SOPE   C3620450   4.515   3.197   6.061 -0.2463  0.7540  0.2071
  179SOPE   H6X20451   4.462   3.293   6.079 -1.1517  0.5832 -1.2995
  179SOPE   H6Y20452   4.589   3.211   5.980  0.7648  0.6310  1.0899
  179SOPE   C3720453   4.586   3.153   6.190  0.9836 -0.2555  0.2888
  179SOPE   H7X20454   4.681   3.211   6.186  0.7059  0.1704 -3.3025
  179SOPE   H7Y20455   4.622   3.051   6.166 -1.5168 -1.4736  1.3617
  179SOPE   C3820456   4.502   3.159   6.311  0.3832  0.0427  0.0204
  179SOPE   H8X20457   4.415   3.091   6.318 -1.1078  1.6602 -1.7023
  179SOPE   H8Y20458   4.469   3.264   6.327  2.0980  0.4082  1.5913
  179SOPE   C3920459   4.583   3.143   6.441 -0.2918 -0.4746  0.5410
  179SOPE   H9X20460   4.666   3.216   6.430 -2.7218  2.3801  0.2478
  179SOPE   H9Y20461   4.629   3.042   6.453  1.3394  0.2954  1.0188
  179SOPE  C31020462   4.514   3.174   6.572 -0.4416  0.6229  0.1622
  179SOPE  H10X20463   4.452   3.086   6.597  1.1759 -0.8171 -0.6699
  179SOPE  H10Y20464   4.449   3.264   6.562  1.2053  1.7441 -1.1340
  179SOPE  C31120465   4.618   3.201   6.676  0.0240  0.4225 -0.3622
  179SOPE  H11X20466   4.679   3.288   6.645 -0.9401  1.0163 -0.6283
  179SOPE  H11Y20467   4.682   3.111   6.685 -0.8740 -0.0819  1.7151
  179SOPE  C31220468   4.552   3.225   6.816 -0.0177 -0.0172  1.0480
  179SOPE  H12X20469   4.507   3.127   6.846 -1.8423  0.7649  0.9811
  179SOPE  H12Y20470   4.468   3.297   6.814 -0.2723 -0.3212 -0.1390
  179SOPE  C31320471   4.656   3.267   6.921  0.1649 -0.4381 -0.7469
  179SOPE  H13X20472   4.733   3.190   6.944  1.2436  1.1490  1.2969
  179SOPE  H13Y20473   4.595   3.281   7.013 -0.5955 -2.7443 -0.8282
  179SOPE  C31420474   4.718   3.398   6.889  0.7197 -0.8462 -0.4607
  179SOPE  H14X20475   4.638   3.466   6.854  1.2402  0.4713  0.8059
  179SOPE  H14Y20476   4.785   3.374   6.804 -0.5017 -2.5961 -0.9774
  179SOPE  C31520477   4.796   3.463   7.004  0.0239  0.7955  0.5688
  179SOPE  H15X20478   4.890   3.404   7.008 -0.4934 -0.1843 -0.9413
  179SOPE  H15Y20479   4.745   3.444   7.101 -1.3307 -3.0057 -0.7066
  179SOPE  C31620480   4.837   3.610   6.987  0.1253  0.7574 -0.3014
  179SOPE  H16X20481   4.747   3.668   7.017 -1.1450 -1.3533  0.1806
  179SOPE  H16Y20482   4.872   3.628   6.883 -0.3723  1.2871 -0.3858
  179SOPE  C31720483   4.963   3.648   7.061  0.3576 -0.0519  0.4314
  179SOPE  H17X20484   4.987   3.756   7.055  1.2530 -0.2151  0.8718
  179SOPE  H17Y20485   5.047   3.603   7.004  0.6478  0.0334  0.7835
  179SOPE  C31820486   4.978   3.603   7.209 -0.4511 -0.4053 -0.8420
  179SOPE  H18X20487   4.938   3.676   7.283 -0.1740  0.2423 -1.3239
  179SOPE  H18Y20488   5.087   3.597   7.231 -0.2029  1.5164 -1.3732
  179SOPE  H18Z20489   4.926   3.509   7.239 -1.1677  0.4454  0.7332
  180SOPE     N20490   4.231   1.159   5.198  0.1062  0.1897 -0.2466
  180SOPE   HN120491   4.332   1.168   5.221 -0.1391  1.1419  0.5079
  180SOPE   HN220492   4.216   1.116   5.104  0.5038  1.0213 -0.7034
  180SOPE   HN320493   4.183   1.251   5.202 -1.7720 -0.7608  0.4281
  180SOPE   C1220494   4.175   1.067   5.304  0.0631 -0.2829  0.2961
  180SOPE  H12A20495   4.205   0.963   5.280 -0.1876 -0.2930  0.0231
  180SOPE  H12B20496   4.066   1.064   5.282 -0.5065 -0.2201  2.8478
  180SOPE   C1120497   4.215   1.115   5.441 -0.4909  0.5111  0.0953
  180SOPE  H11A20498   4.167   1.051   5.517 -1.1540  1.2326  0.2883
  180SOPE  H11B20499   4.189   1.222   5.455  2.6789  1.2882  0.9176
  180SOPE     P20500   4.423   0.984   5.514 -0.2132  0.1028  0.0862
  180SOPE   O1320501   4.558   0.960   5.465 -0.0216  0.8950  0.5694
  180SOPE   O1420502   4.329   0.868   5.506 -0.5401 -0.2379 -0.5108
  180SOPE   O1220503   4.360   1.116   5.446 -0.5072 -0.0538 -0.3765
  180SOPE   O1120504   4.438   1.022   5.664  0.5942  0.2605  0.7195
  180SOPE    C120505   4.550   1.102   5.702  0.6510  0.4377  0.1130
  180SOPE    HA20506   4.570   1.187   5.634 -0.8146  0.2336 -0.6109
  180SOPE    HB20507   4.641   1.040   5.717  0.4504 -0.5771 -2.4120
  180SOPE    C220508   4.523   1.172   5.840  0.0265 -0.6717 -0.1466
  180SOPE    HS20509   4.614   1.231   5.864  1.3067 -2.3883 -0.6036
  180SOPE   O2120510   4.488   1.081   5.945 -0.0249  0.0216  0.0392
  180SOPE   C2120511   4.590   1.016   5.989 -0.5749 -0.3455 -0.0637
  180SOPE   O2220512   4.706   1.031   5.957  0.0954 -0.3553 -0.1957
  180SOPE   C2220513   4.540   0.936   6.108 -0.3165  0.1965  0.3563
  180SOPE   H2R20514   4.451   0.877   6.078 -0.8899  0.9137  0.6237
  180SOPE   H2S20515   4.510   1.005   6.189  1.6471 -0.4141  1.6713
  180SOPE    C320516   4.408   1.274   5.836 -0.3871  0.2576  0.6037
  180SOPE    HX20517   4.317   1.250   5.777 -0.0756 -0.1058  0.2679
  180SOPE    HY20518   4.449   1.366   5.791  2.0091 -1.0248 -0.0285
  180SOPE   O3120519   4.357   1.305   5.965 -0.1039  0.2985 -0.3527
  180SOPE   C3120520   4.419   1.389   6.043  0.0023  0.5008 -0.3734
  180SOPE   O3220521   4.521   1.451   6.014 -0.6855  0.2959  0.2009
  180SOPE   C3220522   4.357   1.393   6.179 -0.0371  0.2290 -0.2519
  180SOPE   H2X20523   4.294   1.485   6.185  1.5618  1.2837  1.6812
  180SOPE   H2Y20524   4.443   1.410   6.248  0.8751  1.2456 -1.5923
  180SOPE   C2320525   4.643   0.831   6.152  0.2936 -0.1590  0.1536
  180SOPE   H3R20526   4.730   0.883   6.198  1.3520 -0.8386 -1.0289
  180SOPE   H3S20527   4.675   0.767   6.068 -0.1665  0.5302 -0.5591
  180SOPE   C2420528   4.581   0.741   6.258  0.6880  0.4506 -0.0122
  180SOPE   H4R20529   4.538   0.805   6.337 -0.8088  0.2349 -0.6190
  180SOPE   H4S20530   4.496   0.690   6.208 -0.4105  1.2003  1.0418
  180SOPE   C2520531   4.676   0.632   6.318  0.0155 -0.8350  0.0131
  180SOPE   H5R20532   4.741   0.606   6.232  2.3477  1.5545  0.9393
  180SOPE   H5S20533   4.757   0.675   6.379  0.6668 -2.1845  0.1380
  180SOPE   C2620534   4.623   0.499   6.378 -0.3911  0.6314  0.0003
  180SOPE   H6R20535   4.570   0.452   6.293  0.2717  0.8708 -0.5552
  180SOPE   H6S20536   4.711   0.437   6.405 -0.7985 -0.5374 -1.2258
  180SOPE   C2720537   4.529   0.529   6.496  0.0302  0.2053 -0.1280
  180SOPE   H7R20538   4.594   0.588   6.565  0.7501  1.2722 -1.6439
  180SOPE   H7S20539   4.445   0.594   6.464  0.4854  0.6134 -0.5219
  180SOPE   C2820540   4.477   0.402   6.574 -0.2268  0.4723  0.0002
  180SOPE   H8R20541   4.404   0.436   6.651  0.1277 -1.6890  1.3865
  180SOPE   H8S20542   4.431   0.339   6.495 -0.9880 -0.4634  1.1495
  180SOPE   C2920543   4.584   0.328   6.651  0.0413  0.2461 -0.6396
  180SOPE   H9120544   4.678   0.320   6.595  0.7690  2.0492  0.2240
  180SOPE  C21020545   4.592   0.282   6.776  0.7851 -0.3707  0.6949
  180SOPE  H10120546   4.672   0.218   6.816  2.2754  0.4688 -0.8269
  180SOPE  C21120547   4.473   0.289   6.873 -0.8424  0.1916  0.1498
  180SOPE  H11R20548   4.427   0.187   6.871 -1.3360  0.4133 -1.5721
  180SOPE  H11S20549   4.404   0.365   6.831  0.3035 -0.1513 -2.5733
  180SOPE  C21220550   4.508   0.328   7.015 -0.4677  0.6048  0.1079
  180SOPE  H12R20551   4.578   0.414   6.999 -0.0330  0.1775 -0.3541
  180SOPE  H12S20552   4.564   0.241   7.056 -0.8600 -0.0308 -0.6946
  180SOPE  C21320553   4.382   0.365   7.087  0.8355  0.0363 -0.2848
  180SOPE  H13R20554   4.298   0.305   7.046  1.5973  0.6627 -2.9859
  180SOPE  H13S20555   4.348   0.470   7.069 -0.7740 -0.7498 -2.2275
  180SOPE  C21420556   4.393   0.324   7.241 -0.1564  0.2310  0.3524
  180SOPE  H14R20557   4.469   0.380   7.298 -2.0880  1.6824  1.6229
  180SOPE  H14S20558   4.417   0.215   7.243 -0.5305  0.0550 -2.0349
  180SOPE  C21520559   4.257   0.353   7.310  0.0833  0.3903  0.8304
  180SOPE  H15R20560   4.182   0.350   7.228 -0.7145  0.7083  1.5397
  180SOPE  H15S20561   4.246   0.458   7.347  0.3539  0.1734  1.5406
  180SOPE  C21620562   4.231   0.256   7.424  0.4768 -0.5188 -0.0245
  180SOPE  H16R20563   4.298   0.298   7.503  0.7462  1.5476 -1.2718
  180SOPE  H16S20564   4.257   0.151   7.397  0.5966 -0.0539 -1.8380
  180SOPE  C21720565   4.083   0.263   7.459 -0.6073 -0.1096  0.1941
  180SOPE  H17R20566   4.015   0.219   7.382 -0.5779  1.4955 -0.8016
  180SOPE  H17S20567   4.060   0.370   7.478  3.0977  0.7907  0.4256
  180SOPE  C21820568   4.059   0.185   7.589  0.2900  0.6868 -0.1953
  180SOPE  H18R20569   3.957   0.193   7.630 -0.7489 -0.0831 -2.4442
  180SOPE  H18S20570   4.135   0.228   7.657  1.4815 -0.0439 -1.0205
  180SOPE  H18T20571   4.085   0.077   7.579  0.0010  0.3261  2.3593
  180SOPE   C3320572   4.282   1.265   6.229 -0.1944 -0.2150 -0.3417
  180SOPE   H3X20573   4.344   1.174   6.212  0.0601  0.2128 -1.7866
  180SOPE   H3Y20574   4.184   1.248   6.181 -0.5250  1.6747 -0.4127
  180SOPE   C3420575   4.260   1.265   6.382 -0.5212 -0.5366 -0.0065
  180SOPE   H4X20576   4.219   1.361   6.421  2.2307  2.6330 -4.0843
  180SOPE   H4Y20577   4.367   1.255   6.412 -0.2001 -0.8404 -1.1885
  180SOPE   C3520578   4.170   1.150   6.438  0.3015  0.0937  0.5605
  180SOPE   H5X20579   4.210   1.050   6.410  1.1312  0.1516  1.4587
  180SOPE   H5Y20580   4.070   1.164   6.394  0.6343  2.5620  0.4433
  180SOPE   C3620581   4.159   1.140   6.595 -0.0178  0.5176 -0.1991
  180SOPE   H6X20582   4.101   1.227   6.633  1.1637  2.2212 -2.1024
  180SOPE   H6Y20583   4.259   1.135   6.642 -0.0789 -1.4153 -0.1932
  180SOPE   C3720584   4.078   1.017   6.631  0.3584  0.3340 -0.4353
  180SOPE   H7X20585   4.146   0.930   6.613  1.7235  1.5187 -1.1930
  180SOPE   H7Y20586   3.985   1.009   6.570  0.9899 -0.0658 -1.3719
  180SOPE   C3820587   4.029   1.015   6.776  0.3538  0.2314 -0.2748
  180SOPE   H8X20588   3.934   1.072   6.787  0.6624  0.5893  0.6434
  180SOPE   H8Y20589   4.094   1.070   6.848 -0.7546  1.6616 -0.3203
  180SOPE   C3920590   4.025   0.872   6.831 -0.0414 -0.0605 -0.2400
  180SOPE   H9X20591   4.107   0.865   6.906 -0.4919  0.3304  0.2975
  180SOPE   H9Y20592   4.036   0.801   6.746  0.8087 -0.7410  0.4230
  180SOPE  C31020593   3.890   0.839   6.896 -0.4614 -0.0919  0.0907
  180SOPE  H10X20594   3.875   0.909   6.981 -0.2502  0.1894 -0.1040
  180SOPE  H10Y20595   3.900   0.736   6.938 -0.8517 -0.5427 -0.9061
  180SOPE  C31120596   3.766   0.851   6.800 -0.8073  0.0818  0.1912
  180SOPE  H11X20597   3.773   0.785   6.711 -2.6385  0.4174 -0.2399
  180SOPE  H11Y20598   3.762   0.957   6.768  1.1342  0.4980  1.1764
  180SOPE  C31220599   3.630   0.807   6.857  1.1321  0.7258  0.2589
  180SOPE  H12X20600   3.559   0.836   6.777  0.3193  0.5672  0.9107
  180SOPE  H12Y20601   3.604   0.863   6.950 -1.6536 -0.2517  0.1618
  180SOPE  C31320602   3.618   0.656   6.898  0.0065  0.3348 -0.0273
  180SOPE  H13X20603   3.713   0.614   6.935 -0.7084 -0.8140  0.5404
  180SOPE  H13Y20604   3.592   0.603   6.804 -0.6566  0.2428  0.2016
  180SOPE  C31420605   3.505   0.622   7.001 -0.6109 -0.7225  0.2641
  180SOPE  H14X20606   3.422   0.695   6.987  0.7233  0.5905 -1.2420
  180SOPE  H14Y20607   3.542   0.648   7.102  0.3800 -1.1822  0.0409
  180SOPE  C31520608   3.460   0.477   6.985  0.6388 -0.8017  0.4386
  180SOPE  H15X20609   3.543   0.403   6.983 -0.2556 -1.8265 -2.3288
  180SOPE  H15Y20610   3.402   0.470   6.891 -0.5518 -1.3566  1.1881
  180SOPE  C31620611   3.363   0.425   7.101  0.0880 -0.0187  0.5153
  180SOPE  H16X20612   3.316   0.331   7.065 -2.0901  1.6740 -1.4443
  180SOPE  H16Y20613   3.289   0.508   7.103  0.3423  0.2013  1.8485
  180SOPE  C31720614   3.439   0.410   7.233  0.2257 -0.1519  0.4338
  180SOPE  H17X20615   3.512   0.492   7.247  0.1466 -0.2975  1.8124
  180SOPE  H17Y20616   3.501   0.318   7.218 -0.6436 -1.1002  2.2944
  180SOPE  C31820617   3.335   0.381   7.342 -0.0348  0.9447  0.6348
  180SOPE  H18X20618   3.237   0.360   7.293  0.1097  0.5959  0.4872
  180SOPE  H18Y20619   3.314   0.462   7.415 -0.5742  0.4609  1.0304
  180SOPE  H18Z20620   3.362   0.288   7.397 -0.1528  0.4504 -0.1342
  181SOPE     N20621   2.681   0.629   5.359  1.0806  0.7280 -0.5456
  181SOPE   HN120622   2.775   0.644   5.317  0.7905  0.8429 -1.1622
  181SOPE   HN220623   2.617   0.690   5.304  1.4451 -0.5682 -2.5334
  181SOPE   HN320624   2.687   0.665   5.456 -1.7989  2.7191 -0.9930
  181SOPE   C1220625   2.634   0.493   5.366  0.3993 -0.2174  0.1222
  181SOPE  H12A20626   2.655   0.444   5.268 -1.5551 -1.8932  0.4840
  181SOPE  H12B20627   2.525   0.484   5.379  0.4913  0.7532  1.7700
  181SOPE   C1120628   2.704   0.423   5.476  0.2822 -0.5009  0.3330
  181SOPE  H11A20629   2.685   0.315   5.457 -1.3809 -0.3339  0.8854
  181SOPE  H11B20630   2.670   0.448   5.578  0.2515 -1.4863  0.5730
  181SOPE     P20631   2.950   0.337   5.509 -0.2243 -0.3413 -0.0105
  181SOPE   O1320632   3.084   0.391   5.466  0.7636 -0.0237  1.0572
  181SOPE   O1420633   2.911   0.202   5.474  0.3746  0.3744 -0.5233
  181SOPE   O1220634   2.845   0.439   5.465  0.8915 -0.0158 -0.3262
  181SOPE   O1120635   2.938   0.355   5.662 -0.1797 -0.5431 -0.0513
  181SOPE    C120636   2.952   0.481   5.729 -0.3363  0.8540  0.0787
  181SOPE    HA20637   2.853   0.486   5.779  0.5362  0.5636  1.9282
  181SOPE    HB20638   2.937   0.573   5.670  0.4431  1.3311  0.6098
  181SOPE    C220639   3.060   0.491   5.832 -0.1109  0.3889  0.0722
  181SOPE    HS20640   3.160   0.504   5.785  0.5440  1.5720  1.7037
  181SOPE   O2120641   3.049   0.376   5.918 -0.1112  0.3167 -0.3855
  181SOPE   C2120642   3.165   0.323   5.957 -0.2086 -0.2030 -0.3358
  181SOPE   O2220643   3.278   0.359   5.935  0.2648  0.4900  0.0405
  181SOPE   C2220644   3.128   0.201   6.044 -0.0927  0.5953 -0.3179
  181SOPE   H2R20645   3.164   0.108   5.996  1.2896  0.4606  0.9275
  181SOPE   H2S20646   3.018   0.197   6.064  0.1196 -0.0789  0.7670
  181SOPE    C320647   3.048   0.620   5.914  0.0073 -0.1140  0.4633
  181SOPE    HX20648   2.945   0.608   5.954 -0.6832  0.4097 -1.0569
  181SOPE    HY20649   3.042   0.709   5.847 -3.4488  0.2928  1.0906
  181SOPE   O3120650   3.138   0.634   6.023  0.2789 -0.2220 -0.0332
  181SOPE   C3120651   3.238   0.727   6.029 -1.1767  0.2698 -0.4940
  181SOPE   O3220652   3.262   0.806   5.941 -0.2020 -0.0068  0.5067
  181SOPE   C3220653   3.337   0.702   6.144  0.3493  0.5239 -0.5412
  181SOPE   H2X20654   3.399   0.613   6.118  0.7250  0.3276  0.8894
  181SOPE   H2Y20655   3.271   0.677   6.230  0.1617 -0.5325 -0.9743
  181SOPE   C2320656   3.206   0.214   6.175  0.0036 -0.4827  0.1831
  181SOPE   H3R20657   3.310   0.245   6.153  0.1286 -2.5918 -2.7351
  181SOPE   H3S20658   3.213   0.108   6.207 -1.8249 -0.7600 -0.1960
  181SOPE   C2420659   3.134   0.312   6.272 -0.1953  0.2097  0.3136
  181SOPE   H4R20660   3.141   0.406   6.212 -0.8646 -1.1941 -2.1175
  181SOPE   H4S20661   3.028   0.296   6.298 -0.4192  1.4756  0.2685
  181SOPE   C2520662   3.229   0.342   6.396  0.0283 -0.3898  0.6758
  181SOPE   H5R20663   3.328   0.372   6.354 -0.8587  0.7155 -0.7225
  181SOPE   H5S20664   3.184   0.431   6.446  0.0553  2.3566 -3.6516
  181SOPE   C2620665   3.242   0.225   6.493  0.0098  0.4246  0.1802
  181SOPE   H6R20666   3.266   0.133   6.435  0.2382  0.9530 -0.5774
  181SOPE   H6S20667   3.336   0.238   6.551  1.0429 -0.2047 -1.2707
  181SOPE   C2720668   3.116   0.199   6.588 -0.7299 -0.2442 -0.2721
  181SOPE   H7R20669   3.100   0.283   6.659 -0.5962 -0.1312 -0.3756
  181SOPE   H7S20670   3.022   0.198   6.528 -1.1275  2.7648  0.1227
  181SOPE   C2820671   3.139   0.073   6.679 -0.3265 -0.6205  1.1366
  181SOPE   H8R20672   3.238   0.084   6.726 -1.2289  0.1705  2.9418
  181SOPE   H8S20673   3.065   0.089   6.761 -1.2930  1.2588 -0.0288
  181SOPE   C2920674   3.133  -0.065   6.619  0.1069  0.7667  0.1394
  181SOPE   H9120675   3.224  -0.099   6.569 -0.7793 -2.5521  0.5540
  181SOPE  C21020676   3.027  -0.156   6.626 -0.1033 -0.0113  0.5089
  181SOPE  H10120677   3.041  -0.258   6.589  1.1328  0.2766  0.1191
  181SOPE  C21120678   2.890  -0.126   6.687  1.0906 -0.0522 -0.2879
  181SOPE  H11R20679   2.801  -0.145   6.623  0.8732  1.5018 -0.4778
  181SOPE  H11S20680   2.872  -0.025   6.730  0.7371 -0.4441  0.5165
  181SOPE  C21220681   2.863  -0.224   6.807 -0.2500 -0.1565  0.2736
  181SOPE  H12R20682   2.762  -0.204   6.849 -0.5368 -0.2702 -0.3377
  181SOPE  H12S20683   2.928  -0.202   6.894  1.3215 -1.9587 -0.3630
  181SOPE  C21320684   2.856  -0.376   6.766  0.8631 -0.3705  0.3235
  181SOPE  H13R20685   2.951  -0.406   6.715  0.5793 -0.9798  0.1319
  181SOPE  H13S20686   2.772  -0.392   6.694  1.4970  0.6483 -0.6752
  181SOPE  C21420687   2.838  -0.470   6.884 -0.3975  0.4785  0.4199
  181SOPE  H14R20688   2.855  -0.574   6.849  0.2110 -0.1715  2.5127
  181SOPE  H14S20689   2.734  -0.473   6.923 -0.3428  1.7821  0.7118
  181SOPE  C21520690   2.934  -0.445   7.011  0.6085  0.7961  0.8291
  181SOPE  H15R20691   2.890  -0.363   7.072 -1.1484 -0.5359  1.4333
  181SOPE  H15S20692   3.037  -0.416   6.979  0.8786 -0.7119  0.2463
  181SOPE  C21620693   2.941  -0.575   7.101  0.2452  0.2837  0.7410
  181SOPE  H16R20694   2.969  -0.658   7.032 -0.0007  0.6476  0.1947
  181SOPE  H16S20695   2.841  -0.604   7.141  0.3053 -1.6494 -0.4182
  181SOPE  C21720696   3.054  -0.562   7.203  0.3218 -0.4431  1.1768
  181SOPE  H17R20697   3.151  -0.523   7.165  0.1887 -0.1183  1.1717
  181SOPE  H17S20698   3.083  -0.668   7.221 -1.2378 -1.6068 -2.1837
  181SOPE  C21820699   3.019  -0.482   7.331  0.7864 -0.6062  0.7318
  181SOPE  H18R20700   3.001  -0.375   7.311  1.3689 -0.1827  2.3051
  181SOPE  H18S20701   3.098  -0.479   7.410  0.2007  0.7765  1.2946
  181SOPE  H18T20702   2.931  -0.534   7.375  1.3972 -2.7362 -0.4413
  181SOPE   C3320703   3.438   0.817   6.170  0.4408 -0.2033  0.3751
  181SOPE   H3X20704   3.400   0.913   6.130 -1.1652 -0.7883  0.4006
  181SOPE   H3Y20705   3.536   0.797   6.121  0.4855 -0.9134  0.7484
  181SOPE   C3420706   3.453   0.826   6.324 -0.6011  0.0755 -0.0254
  181SOPE   H4X20707   3.553   0.863   6.356 -1.2357  1.6489  0.2239
  181SOPE   H4Y20708   3.458   0.727   6.375  3.6754 -1.1675 -2.3160
  181SOPE   C3520709   3.346   0.921   6.383 -0.2779 -0.4354  0.0024
  181SOPE   H5X20710   3.249   0.868   6.369 -0.4983  0.5587 -2.6762
  181SOPE   H5Y20711   3.339   1.020   6.334  1.8164  0.2977  1.0768
  181SOPE   C3620712   3.370   0.964   6.529  0.9484 -0.0379  0.7199
  181SOPE   H6X20713   3.472   1.009   6.522  0.8958 -0.0797 -0.6622
  181SOPE   H6Y20714   3.387   0.876   6.594 -0.8856 -1.0201 -0.0588
  181SOPE   C3720715   3.263   1.075   6.560 -0.1780 -0.2972  0.1286
  181SOPE   H7X20716   3.162   1.034   6.536  0.3946 -1.3017 -0.6188
  181SOPE   H7Y20717   3.273   1.162   6.492 -1.2840  0.5486  0.9906
  181SOPE   C3820718   3.261   1.134   6.703 -0.3022 -0.2117  0.1839
  181SOPE   H8X20719   3.170   1.187   6.739  0.3661  0.4174  0.9982
  181SOPE   H8Y20720   3.346   1.203   6.718 -0.7981  0.1251  1.6567
  181SOPE   C3920721   3.279   1.019   6.809 -0.4005 -0.8834 -0.2210
  181SOPE   H9X20722   3.384   0.982   6.809 -0.2546 -0.6276  1.9547
  181SOPE   H9Y20723   3.219   0.934   6.772 -1.4020  0.5921 -2.1183
  181SOPE  C31020724   3.240   1.067   6.948  0.2330  0.6865 -0.2683
  181SOPE  H10X20725   3.132   1.090   6.940 -0.0640 -0.7637 -0.6837
  181SOPE  H10Y20726   3.289   1.165   6.965 -2.6465  2.0936  0.5894
  181SOPE  C31120727   3.278   0.964   7.056 -0.0240  0.3655  0.0057
  181SOPE  H11X20728   3.373   0.922   7.018 -1.0860 -1.0766 -1.2207
  181SOPE  H11Y20729   3.206   0.879   7.060  0.6545 -0.1600  1.9666
  181SOPE  C31220730   3.281   1.012   7.203 -0.9742 -0.1224 -0.4116
  181SOPE  H12X20731   3.183   1.058   7.227  1.3514  4.5197  1.4690
  181SOPE  H12Y20732   3.361   1.087   7.219  0.1436 -1.2238 -0.6809
  181SOPE  C31320733   3.302   0.895   7.296  0.2338 -0.6233 -0.5222
  181SOPE  H13X20734   3.248   0.804   7.260 -1.3150  0.0782 -0.0535
  181SOPE  H13Y20735   3.250   0.926   7.389  1.2853  0.9585 -0.4209
  181SOPE  C31420736   3.453   0.857   7.316  0.3006  0.1369 -0.8055
  181SOPE  H14X20737   3.521   0.945   7.314  1.3762 -0.6654 -0.2908
  181SOPE  H14Y20738   3.468   0.786   7.232 -0.4352 -0.7979 -0.1650
  181SOPE  C31520739   3.475   0.775   7.448  0.6206 -0.2220 -0.5874
  181SOPE  H15X20740   3.577   0.732   7.458 -0.4432 -2.3812  2.2892
  181SOPE  H15Y20741   3.408   0.687   7.437 -2.4562  2.1276 -2.3007
  181SOPE  C31620742   3.427   0.830   7.585 -0.3248 -0.2982 -0.0159
  181SOPE  H16X20743   3.451   0.758   7.666  0.8509  1.9883  1.7836
  181SOPE  H16Y20744   3.319   0.855   7.577  0.0263  1.5456  0.4590
  181SOPE  C31720745   3.491   0.969   7.611 -0.2214  0.1391 -0.0103
  181SOPE  H17X20746   3.447   0.996   7.709  1.3003  0.1664  0.6936
  181SOPE  H17Y20747   3.452   1.044   7.539  0.8460 -0.7390 -1.5627
  181SOPE  C31820748   3.643   0.973   7.616 -0.1919  0.5224 -0.3100
  181SOPE  H18X20749   3.690   0.913   7.536 -2.0385 -1.7507  0.1906
  181SOPE  H18Y20750   3.678   0.948   7.719 -0.4547 -2.0236 -0.7859
  181SOPE  H18Z20751   3.685   1.075   7.604 -1.7039  1.1931 -0.1194
  182SOPE     N20752   4.719   0.713   5.575  0.0277 -0.8316 -0.4418
  182SOPE   HN120753   4.736   0.611   5.579  0.4986 -0.7851  4.3558
  182SOPE   HN220754   4.637   0.750   5.628  1.1926 -1.0338  1.5712
  182SOPE   HN320755   4.712   0.745   5.476 -2.6737 -1.2169 -0.4524
  182SOPE   C1220756   4.826   0.782   5.654  0.2655  0.1672  0.6848
  182SOPE  H12A20757   4.783   0.865   5.715 -1.3220 -0.1852  0.0986
  182SOPE  H12B20758   4.898   0.814   5.577 -0.4440  0.9783  0.3446
  182SOPE   C1120759   4.888   0.677   5.742  1.0353 -0.2118  0.2390
  182SOPE  H11A20760   4.803   0.633   5.798  1.4205 -0.5599  0.5522
  182SOPE  H11B20761   4.942   0.730   5.823 -0.3606  2.0586 -0.1863
  182SOPE     P20762   4.937   0.453   5.613  0.1712 -0.1263 -0.0395
  182SOPE   O1320763   5.046   0.415   5.519 -0.6121  0.3554 -0.4724
  182SOPE   O1420764   4.795   0.462   5.563 -0.5187 -0.1923  0.2648
  182SOPE   O1220765   4.975   0.588   5.681 -0.2296 -0.1254  0.3930
  182SOPE   O1120766   4.946   0.352   5.735 -0.7969 -0.3776  0.3019
  182SOPE    C120767   5.041   0.365   5.844 -0.0019  0.3917 -0.3532
  182SOPE    HA20768   5.019   0.458   5.902 -0.4428  2.2132 -3.2631
  182SOPE    HB20769   5.144   0.350   5.805 -0.3315 -3.1982 -0.1332
  182SOPE    C220770   5.011   0.248   5.946 -0.2593 -0.0424 -0.8360
  182SOPE    HS20771   5.048   0.153   5.901  0.7360  0.1414 -0.4396
  182SOPE   O2120772   4.874   0.243   5.983 -0.3508 -0.0339  0.2438
  182SOPE   C2120773   4.827   0.124   6.012  0.1542  0.2925 -0.3042
  182SOPE   O2220774   4.897   0.021   6.035  0.0546 -0.7139 -0.2117
  182SOPE   C2220775   4.677   0.141   6.035  0.2998 -0.0260  0.1079
  182SOPE   H2R20776   4.614   0.146   5.943 -1.6319  1.0845  1.4147
  182SOPE   H2S20777   4.654   0.238   6.085 -2.6519 -0.3838 -0.3247
  182SOPE    C320778   5.114   0.261   6.064 -0.4326  0.3097  0.4444
  182SOPE    HX20779   5.213   0.237   6.021  0.1397  1.1154  1.2733
  182SOPE    HY20780   5.088   0.179   6.134 -0.9351 -0.5190 -0.6847
  182SOPE   O3120781   5.109   0.384   6.135 -0.4057 -0.5505  0.1238
  182SOPE   C3120782   5.226   0.423   6.187  0.1587 -0.2492 -0.4185
  182SOPE   O3220783   5.327   0.355   6.191 -0.4691 -0.0770  0.0969
  182SOPE   C3220784   5.210   0.560   6.263  0.0038  0.6387 -0.2172
  182SOPE   H2X20785   5.185   0.632   6.181 -1.6868 -0.5231 -0.7701
  182SOPE   H2Y20786   5.311   0.583   6.302  0.3274  0.3838 -0.8819
  182SOPE   C2320787   4.620   0.026   6.112 -0.7607 -0.4308  0.1985
  182SOPE   H3R20788   4.646  -0.067   6.057  3.4892  0.4987  0.2636
  182SOPE   H3S20789   4.510   0.033   6.109 -0.8293 -1.3147  0.1880
  182SOPE   C2420790   4.661   0.023   6.262  0.4845 -0.3241  0.4285
  182SOPE   H4R20791   4.767  -0.012   6.263  1.1984  1.5279 -1.8589
  182SOPE   H4S20792   4.647   0.122   6.311  1.6164  0.8193 -1.4495
  182SOPE   C2520793   4.584  -0.084   6.340  0.2332  0.7681  0.7052
  182SOPE   H5R20794   4.479  -0.049   6.341  0.4093  1.2964  1.2308
  182SOPE   H5S20795   4.599  -0.180   6.286 -0.2854  1.4236 -0.6527
  182SOPE   C2620796   4.638  -0.083   6.482  0.2088  0.1372 -0.5771
  182SOPE   H6R20797   4.749  -0.089   6.482  0.2704  0.5780  1.6556
  182SOPE   H6S20798   4.626   0.015   6.533  0.0614 -0.3066  0.2651
  182SOPE   C2720799   4.586  -0.190   6.579  0.1659 -0.2601 -0.5820
  182SOPE   H7R20800   4.478  -0.200   6.556  0.8654 -1.1649 -3.9094
  182SOPE   H7S20801   4.638  -0.283   6.548  0.6660  0.6679 -2.6467
  182SOPE   C2820802   4.608  -0.152   6.722  0.0304 -0.4848  0.2936
  182SOPE   H8R20803   4.719  -0.152   6.733  0.0272 -1.0309  0.3477
  182SOPE   H8S20804   4.571  -0.050   6.745  1.7274 -0.0570  1.2833
  182SOPE   C2920805   4.541  -0.264   6.798  0.5918 -0.3635 -0.0375
  182SOPE   H9120806   4.574  -0.364   6.768 -1.0126 -0.7173 -0.7271
  182SOPE  C21020807   4.451  -0.250   6.896 -0.0669  0.5492 -0.0900
  182SOPE  H10120808   4.411  -0.345   6.934  0.5154  0.0013 -0.7992
  182SOPE  C21120809   4.406  -0.120   6.965 -0.0489 -0.3747 -0.1006
  182SOPE  H11R20810   4.298  -0.116   6.991  0.3314  2.3268  1.5020
  182SOPE  H11S20811   4.402  -0.039   6.889  0.2241  0.5561  0.8541
  182SOPE  C21220812   4.483  -0.080   7.090 -0.1173 -0.5255  0.4279
  182SOPE  H12R20813   4.467   0.023   7.127  0.3818  0.2360 -1.3641
  182SOPE  H12S20814   4.590  -0.057   7.068 -0.4943 -0.2680 -1.3242
  182SOPE  C21320815   4.473  -0.171   7.210 -0.3512 -0.5800 -0.5604
  182SOPE  H13R20816   4.552  -0.134   7.277 -0.7861 -0.1055 -0.3022
  182SOPE  H13S20817   4.505  -0.274   7.183 -0.9063 -1.7027  2.6638
  182SOPE  C21420818   4.337  -0.165   7.272  0.3640  0.4293  0.2297
  182SOPE  H14R20819   4.255  -0.218   7.218 -0.4770  0.8464  1.0732
  182SOPE  H14S20820   4.312  -0.057   7.275 -1.4920  0.0271  0.6217
  182SOPE  C21520821   4.343  -0.222   7.414  0.0891  0.4666 -0.0735
  182SOPE  H15R20822   4.399  -0.146   7.474 -1.4632  0.9791  0.7887
  182SOPE  H15S20823   4.389  -0.322   7.422  0.7905  0.8402  0.6840
  182SOPE  C21620824   4.200  -0.211   7.474  0.1681 -0.1640  0.1139
  182SOPE  H16R20825   4.139  -0.287   7.420  0.9429 -1.2865  0.7548
  182SOPE  H16S20826   4.164  -0.111   7.445 -1.1317 -0.5104  0.4819
  182SOPE  C21720827   4.175  -0.232   7.626  0.8377 -0.8065  0.7456
  182SOPE  H17R20828   4.233  -0.160   7.687  1.8999 -1.0777  0.0797
  182SOPE  H17S20829   4.208  -0.331   7.665 -3.0978 -1.5321  2.6863
  182SOPE  C21820830   4.027  -0.224   7.665  0.2296 -0.0054 -0.0571
  182SOPE  H18R20831   4.000  -0.222   7.773 -1.4614  0.4152 -0.4687
  182SOPE  H18S20832   3.975  -0.312   7.623 -3.4193  1.8810  0.1648
  182SOPE  H18T20833   3.989  -0.127   7.625  2.5552  1.0159  0.0294
  182SOPE   C3320834   5.097   0.564   6.368  0.3627 -0.0842  0.6952
  182SOPE   H3X20835   4.998   0.538   6.326 -0.5080 -1.3461  3.3066
  182SOPE   H3Y20836   5.093   0.663   6.420 -1.5542 -0.3233  1.0526
  182SOPE   C3420837   5.122   0.449   6.469  0.1647  0.1773 -0.2530
  182SOPE   H4X20838   5.231   0.436   6.484 -0.0425 -0.7327  0.5552
  182SOPE   H4Y20839   5.078   0.357   6.426  0.1365  0.2981 -0.4851
  182SOPE   C3520840   5.071   0.479   6.609 -0.3069 -0.2901  0.0726
  182SOPE   H5X20841   4.964   0.511   6.614  0.1220  1.3502 -0.6980
  182SOPE   H5Y20842   5.126   0.561   6.659 -0.3506  0.4341 -1.0428
  182SOPE   C3620843   5.093   0.358   6.708  0.3608 -0.0752 -0.3067
  182SOPE   H6X20844   5.192   0.310   6.697  0.4502  0.0181  0.0800
  182SOPE   H6Y20845   5.018   0.277   6.693  1.0052 -0.7255 -0.0791
  182SOPE   C3720846   5.072   0.401   6.855 -0.0765  0.2547  0.4796
  182SOPE   H7X20847   4.991   0.477   6.853 -0.8444 -0.5074  1.5643
  182SOPE   H7Y20848   5.164   0.457   6.884  0.1143 -0.6073  1.5864
  182SOPE   C3820849   5.043   0.287   6.954 -0.1656 -0.0682 -0.1441
  182SOPE   H8X20850   4.939   0.249   6.956  0.0798 -0.7414 -0.0686
  182SOPE   H8Y20851   5.074   0.320   7.055 -1.0116 -0.8992  0.4000
  182SOPE   C3920852   5.121   0.157   6.915 -0.9875 -0.0722 -0.3022
  182SOPE   H9X20853   5.224   0.182   6.881 -1.8691 -0.0327 -3.1818
  182SOPE   H9Y20854   5.069   0.118   6.825 -0.1155  1.0463 -1.3365
  182SOPE  C31020855   5.130   0.043   7.018  0.1049  0.6751 -0.5517
  182SOPE  H10X20856   5.190   0.070   7.108  0.8606  0.1486 -0.8810
  182SOPE  H10Y20857   5.196  -0.029   6.965 -0.1791  1.5818 -2.2094
  182SOPE  C31120858   4.993  -0.003   7.075  0.2007 -0.4276 -0.0958
  182SOPE  H11X20859   4.911  -0.021   7.002 -0.4879  2.4618 -0.1482
  182SOPE  H11Y20860   4.938   0.082   7.120 -0.6764  0.1277 -2.1072
  182SOPE  C31220861   5.013  -0.112   7.186  1.2096 -0.4451 -0.1427
  182SOPE  H12X20862   5.082  -0.076   7.266  0.1305  0.6553  0.3409
  182SOPE  H12Y20863   5.043  -0.209   7.143  2.1093 -0.5307  0.6210
  182SOPE  C31320864   4.883  -0.124   7.282  0.4856 -0.4556 -0.2030
  182SOPE  H13X20865   4.883  -0.227   7.324  0.3320 -0.3337  0.0941
  182SOPE  H13Y20866   4.787  -0.117   7.226 -1.4022  0.2762  2.8798
  182SOPE  C31420867   4.870  -0.028   7.400 -0.4790 -0.1807 -0.0751
  182SOPE  H14X20868   4.908   0.070   7.365  0.1141 -1.2019 -2.4627
  182SOPE  H14Y20869   4.941  -0.053   7.482  2.2979  3.4384 -1.1168
  182SOPE  C31520870   4.725  -0.016   7.453 -0.3906 -0.6643 -0.4558
  182SOPE  H15X20871   4.690  -0.109   7.503  3.8835 -1.8472  0.7492
  182SOPE  H15Y20872   4.655   0.009   7.370 -1.1483  0.2315  0.4412
  182SOPE  C31620873   4.711   0.104   7.550  0.9106 -0.1857  0.1706
  182SOPE  H16X20874   4.749   0.196   7.502  2.8967  1.6283  4.6287
  182SOPE  H16Y20875   4.767   0.089   7.646 -0.6761 -0.1023  1.1411
  182SOPE  C31720876   4.560   0.116   7.580  0.3341  0.8079  1.0383
  182SOPE  H17X20877   4.509   0.036   7.638  1.5648 -0.5903  0.2681
  182SOPE  H17Y20878   4.509   0.136   7.483 -2.8688  1.5375  2.7255
  182SOPE  C31820879   4.536   0.245   7.669 -0.0610 -0.5449 -0.5308
  182SOPE  H18X20880   4.610   0.239   7.752 -0.8995 -1.7590  0.1652
  182SOPE  H18Y20881   4.431   0.253   7.704 -0.1281 -1.0687 -0.6037
  182SOPE  H18Z20882   4.552   0.339   7.613  0.7019 -0.4748 -0.2065
  183SOPE     N20883   7.000   6.109   5.413 -0.0221 -0.2920 -0.2687
  183SOPE   HN120884   7.089   6.088   5.463  0.0382 -0.7302 -0.5535
  183SOPE   HN220885   6.999   6.053   5.325  0.9413 -1.5457  0.4670
  183SOPE   HN320886   7.007   6.208   5.384 -0.0276 -0.3518 -0.4761
  183SOPE   C1220887   6.883   6.086   5.505  0.1378 -0.0462 -0.1485
  183SOPE  H12A20888   6.791   6.076   5.443 -1.3536 -0.3254  1.9861
  183SOPE  H12B20889   6.873   6.178   5.565 -0.6792  0.0375 -0.3902
  183SOPE   C1120890   6.900   5.975   5.609 -0.7389  0.1484  0.2335
  183SOPE  H11A20891   6.822   5.978   5.687 -0.7973 -0.1837  0.1873
  183SOPE  H11B20892   7.001   5.987   5.653 -0.4269 -1.1823 -0.0717
  183SOPE     P20893   6.789   5.751   5.527 -0.2856  0.2121  0.3628
  183SOPE   O1320894   6.837   5.619   5.469  0.0675  0.5647 -0.0747
  183SOPE   O1420895   6.681   5.818   5.458  0.3737  0.2053  0.4961
  183SOPE   O1220896   6.908   5.854   5.539  0.1832 -0.1222  0.2506
  183SOPE   O1120897   6.755   5.726   5.686 -0.1760  0.3764 -0.1740
  183SOPE    C120898   6.860   5.664   5.767  0.0364 -0.2799  0.2993
  183SOPE    HA20899   6.954   5.724   5.766 -0.0070 -0.2164 -0.3081
  183SOPE    HB20900   6.889   5.571   5.714 -0.7090  1.0391 -2.6297
  183SOPE    C220901   6.830   5.628   5.917  0.1698 -0.0432  1.4040
  183SOPE    HS20902   6.927   5.603   5.965  0.3819 -1.3881  0.3185
  183SOPE   O2120903   6.744   5.511   5.928  0.1345 -0.1466 -0.4303
  183SOPE   C2120904   6.759   5.448   6.040  0.1762  0.2641 -0.1219
  183SOPE   O2220905   6.843   5.470   6.126 -0.1589  0.0937  0.0820
  183SOPE   C2220906   6.653   5.343   6.052  0.4369 -0.3547  0.4617
  183SOPE   H2R20907   6.679   5.283   5.963 -0.4848 -0.5833  0.3322
  183SOPE   H2S20908   6.553   5.391   6.042  0.0067 -1.5229 -1.3345
  183SOPE    C320909   6.770   5.759   5.993  0.0380  0.1832  0.1964
  183SOPE    HX20910   6.689   5.809   5.935  1.0156 -0.0181 -1.4310
  183SOPE    HY20911   6.848   5.838   5.985 -1.6509  1.8599 -0.5634
  183SOPE   O3120912   6.725   5.750   6.124 -0.0199 -0.1422  0.1933
  183SOPE   C3120913   6.833   5.757   6.208  0.1122 -0.0746 -0.1676
  183SOPE   O3220914   6.948   5.785   6.184  0.0725  0.2394  0.7916
  183SOPE   C3220915   6.780   5.733   6.349 -0.2669  0.1809  0.2954
  183SOPE   H2X20916   6.799   5.630   6.388  0.4237  0.2486  0.1566
  183SOPE   H2Y20917   6.669   5.740   6.344 -0.1567  1.2889 -0.7345
  183SOPE   C2320918   6.668   5.261   6.174 -0.3820 -0.6439 -0.1589
  183SOPE   H3R20919   6.771   5.221   6.188  0.0769  0.6986  0.4554
  183SOPE   H3S20920   6.604   5.170   6.161  0.2207 -0.9884 -0.7604
  183SOPE   C2420921   6.623   5.339   6.304  0.1309 -0.0143  0.2954
  183SOPE   H4R20922   6.684   5.429   6.324 -2.6095  1.7687  1.2642
  183SOPE   H4S20923   6.516   5.369   6.304 -0.7116 -2.6500 -0.9865
  183SOPE   C2520924   6.641   5.243   6.419 -0.2343 -0.5033 -0.2181
  183SOPE   H5R20925   6.553   5.177   6.427 -1.3242  1.0368  1.3789
  183SOPE   H5S20926   6.734   5.185   6.401 -0.0694 -0.3460  0.1091
  183SOPE   C2620927   6.664   5.317   6.554 -0.6200 -0.0266  0.0423
  183SOPE   H6R20928   6.755   5.381   6.548 -1.3868  1.1244  0.4549
  183SOPE   H6S20929   6.581   5.386   6.580  0.8017  1.4556  0.8084
  183SOPE   C2720930   6.702   5.218   6.667 -0.2498  0.1088 -0.2336
  183SOPE   H7R20931   6.619   5.149   6.694 -0.4937 -0.2536 -1.8466
  183SOPE   H7S20932   6.790   5.159   6.635 -0.3473  0.0345 -0.3649
  183SOPE   C2820933   6.730   5.299   6.801 -0.8140  0.0192  0.1033
  183SOPE   H8R20934   6.784   5.391   6.773 -1.5250 -0.1699 -2.0591
  183SOPE   H8S20935   6.630   5.326   6.840 -0.2478  1.8092  0.3770
  183SOPE   C2920936   6.797   5.207   6.897  0.3549  0.8165 -0.3608
  183SOPE   H9120937   6.838   5.110   6.865  1.2641  0.3072  2.0910
  183SOPE  C21020938   6.805   5.234   7.028  0.0978  0.2989  0.2422
  183SOPE  H10120939   6.842   5.158   7.098 -0.8244 -1.3741 -1.0187
  183SOPE  C21120940   6.771   5.362   7.106 -0.4140  1.0933 -0.4046
  183SOPE  H11R20941   6.690   5.415   7.051  0.4150  1.7189 -1.0462
  183SOPE  H11S20942   6.859   5.430   7.099 -0.9820  1.9959  0.9282
  183SOPE  C21220943   6.730   5.331   7.251 -0.1829 -0.2290 -0.5433
  183SOPE  H12R20944   6.808   5.277   7.309  0.1031  0.4782 -0.2484
  183SOPE  H12S20945   6.643   5.263   7.251  1.7820 -2.9549  1.1886
  183SOPE  C21320946   6.704   5.458   7.335  0.9518  0.6425 -0.5578
  183SOPE  H13R20947   6.609   5.503   7.299 -0.0825 -1.8844 -1.2340
  183SOPE  H13S20948   6.798   5.516   7.327  1.6192 -0.2682  0.3583
  183SOPE  C21420949   6.700   5.425   7.482 -0.5022  0.1037 -0.6629
  183SOPE  H14R20950   6.694   5.521   7.538 -2.7180 -0.3555 -0.0331
  183SOPE  H14S20951   6.793   5.374   7.516 -0.3695  1.1410  0.5860
  183SOPE  C21520952   6.577   5.340   7.532 -0.6034 -0.6725  0.3901
  183SOPE  H15R20953   6.600   5.328   7.640  1.2000 -1.0921  0.0011
  183SOPE  H15S20954   6.576   5.241   7.482 -0.2317 -0.6259  0.2823
  183SOPE  C21620955   6.443   5.410   7.510  0.4824  0.3031  0.7578
  183SOPE  H16R20956   6.405   5.406   7.405  1.1147  0.3465  0.5221
  183SOPE  H16S20957   6.454   5.519   7.529  2.9768  0.1957  0.2567
  183SOPE  C21720958   6.347   5.362   7.612 -0.0489 -0.4218  0.1723
  183SOPE  H17R20959   6.295   5.448   7.660 -0.6675 -1.0539  0.6665
  183SOPE  H17S20960   6.395   5.310   7.698  1.2806 -1.2255 -1.0183
  183SOPE  C21820961   6.238   5.284   7.547  0.6106  0.3759 -0.7425
  183SOPE  H18R20962   6.268   5.198   7.484 -1.3583 -0.4982 -0.5702
  183SOPE  H18S20963   6.173   5.360   7.500  1.0116  1.0848 -0.1690
  183SOPE  H18T20964   6.186   5.235   7.633  2.8074 -0.1524  0.3774
  183SOPE   C3320965   6.827   5.838   6.447  0.5420  0.4332 -0.1867
  183SOPE   H3X20966   6.777   5.936   6.431 -1.7184 -0.8610 -1.5981
  183SOPE   H3Y20967   6.936   5.850   6.430  0.3772 -0.2118 -1.9748
  183SOPE   C3420968   6.789   5.808   6.595  0.6372 -0.6816  0.5199
  183SOPE   H4X20969   6.710   5.731   6.587  0.2625 -0.2629  0.1546
  183SOPE   H4Y20970   6.745   5.902   6.637 -0.3503 -0.1365 -1.6097
  183SOPE   C3520971   6.896   5.742   6.681 -0.5749  0.3043 -0.8688
  183SOPE   H5X20972   6.960   5.663   6.637 -0.7937 -1.7233  2.1651
  183SOPE   H5Y20973   6.844   5.687   6.761 -0.2631  2.1772  0.7009
  183SOPE   C3620974   6.992   5.843   6.763 -0.2671  0.2306  0.3810
  183SOPE   H6X20975   7.036   5.920   6.696  0.6179 -1.2166 -0.7659
  183SOPE   H6Y20976   7.075   5.787   6.811 -0.7472 -0.9638 -0.1397
  183SOPE   C3720977   6.915   5.904   6.877  0.5038 -0.7449  0.0008
  183SOPE   H7X20978   6.886   5.828   6.953 -0.0975 -1.8084 -1.2654
  183SOPE   H7Y20979   6.823   5.952   6.839 -0.1254 -0.8962  1.2714
  183SOPE   C3820980   6.997   6.023   6.948  0.0824 -0.1182  0.1895
  183SOPE   H8X20981   7.023   6.090   6.864 -3.5807 -0.5187 -1.4650
  183SOPE   H8Y20982   7.097   5.991   6.983  1.4115  2.2240 -1.2596
  183SOPE   C3920983   6.921   6.089   7.066  1.2714 -0.4628  0.4170
  183SOPE   H9X20984   6.814   6.108   7.041  1.5993 -1.4332 -1.9304
  183SOPE   H9Y20985   6.954   6.194   7.085 -0.7178  0.2247  0.3631
  183SOPE  C31020986   6.930   5.994   7.188 -1.3551 -0.6545  0.8405
  183SOPE  H10X20987   7.038   6.002   7.213 -1.2091 -1.3575  0.4615
  183SOPE  H10Y20988   6.906   5.889   7.160 -0.4029 -0.0773 -2.6382
  183SOPE  C31120989   6.850   6.037   7.310 -0.1632  0.8244  0.0034
  183SOPE  H11X20990   6.745   6.042   7.274  0.2259 -0.4299 -1.4056
  183SOPE  H11Y20991   6.865   6.144   7.333 -2.5200  1.0991  0.5881
  183SOPE  C31220992   6.879   5.957   7.438 -0.0846 -0.2661 -0.4804
  183SOPE  H12X20993   6.844   6.022   7.521  1.5244 -1.6281  1.3462
  183SOPE  H12Y20994   6.988   5.941   7.445  0.2433  2.0404  0.6721
  183SOPE  C31320995   6.804   5.825   7.454  0.3514  0.0574 -0.0577
  183SOPE  H13X20996   6.829   5.779   7.552  0.0033  2.9092  1.4990
  183SOPE  H13Y20997   6.815   5.748   7.375  1.5249  0.5900 -0.4488
  183SOPE  C31420998   6.648   5.850   7.465  0.0795 -0.1063 -0.2577
  183SOPE  H14X20999   6.594   5.753   7.466 -0.4423  0.1671 -0.9394
  183SOPE  H14Y21000   6.615   5.900   7.371  0.1076  0.4615  0.0297
  183SOPE  C31521001   6.595   5.931   7.592  1.0489 -0.3259 -0.0906
  183SOPE  H15X21002   6.629   6.035   7.576 -0.7421  0.1480 -1.0746
  183SOPE  H15Y21003   6.650   5.895   7.682 -1.4565  2.3209  2.7823
  183SOPE  C31621004   6.439   5.939   7.605 -0.1551  0.2416 -0.4330
  183SOPE  H16X21005   6.385   5.929   7.508  0.6620 -1.8127 -0.7249
  183SOPE  H16Y21006   6.427   6.028   7.671  0.3733 -0.2959  0.4094
  183SOPE  C31721007   6.375   5.812   7.668 -0.6957 -0.0610  0.6262
  183SOPE  H17X21008   6.380   5.731   7.592  0.6811  0.9486 -0.4332
  183SOPE  H17Y21009   6.267   5.836   7.679 -1.3558 -0.9394 -2.7804
  183SOPE  C31821010   6.441   5.771   7.801  0.6734 -0.7996 -0.0875
  183SOPE  H18X21011   6.550   5.754   7.789  1.4042  3.5880 -1.6262
  183SOPE  H18Y21012   6.397   5.675   7.834 -2.0101  0.1416 -0.6368
  183SOPE  H18Z21013   6.420   5.844   7.882  1.2334  0.2348 -0.8504
  184SOPE     N21014   5.211   0.032   5.493  0.0497 -1.0595 -0.0379
  184SOPE   HN121015   5.255  -0.058   5.519  0.4207 -0.9219 -0.1889
  184SOPE   HN221016   5.168   0.002   5.404 -0.8760 -0.7748  0.3034
  184SOPE   HN321017   5.294   0.091   5.470  1.6652 -2.7737  1.0816
  184SOPE   C1221018   5.118   0.100   5.588 -0.1076  0.4576  0.2531
  184SOPE  H12A21019   5.080   0.190   5.535  0.4663  1.3977  1.3850
  184SOPE  H12B21020   5.185   0.144   5.665  0.1114 -0.7379  0.7746
  184SOPE   C1121021   5.005   0.007   5.640  0.2775  0.0106  0.4695
  184SOPE  H11A21022   4.932   0.065   5.700  0.4882  1.4188 -0.5947
  184SOPE  H11B21023   5.063  -0.076   5.686 -0.3613 -2.3530 -2.6317
  184SOPE     P21024   4.789  -0.077   5.518  0.2204  0.0412  0.0154
  184SOPE   O1321025   4.757  -0.190   5.422 -0.1733 -0.3098  0.3111
  184SOPE   O1421026   4.730   0.054   5.486 -0.1091  0.3003  0.5861
  184SOPE   O1221027   4.943  -0.058   5.527  0.5628 -0.6132 -0.0781
  184SOPE   O1121028   4.748  -0.134   5.660  0.8552 -0.0036  0.4014
  184SOPE    C121029   4.656  -0.076   5.754  0.3812  0.8574  0.1134
  184SOPE    HA21030   4.650   0.035   5.760 -1.5287  0.7243  2.4388
  184SOPE    HB21031   4.685  -0.120   5.851  1.3707  1.5105  0.1269
  184SOPE    C221032   4.504  -0.122   5.728 -0.4891 -0.8533  0.2942
  184SOPE    HS21033   4.484  -0.076   5.629 -1.3824  0.7987  1.1909
  184SOPE   O2121034   4.420  -0.057   5.827  0.1023  0.2738 -0.1362
  184SOPE   C2121035   4.306  -0.014   5.781  0.0954 -0.0875 -0.4799
  184SOPE   O2221036   4.266  -0.036   5.668  0.2280 -0.2186 -0.2884
  184SOPE   C2221037   4.231   0.071   5.895  0.5788  0.4611  0.7441
  184SOPE   H2R21038   4.260   0.024   5.991 -0.7993 -1.3846  0.3349
  184SOPE   H2S21039   4.123   0.051   5.878  0.4012  2.7638 -1.5466
  184SOPE    C321040   4.491  -0.272   5.726  0.5524  0.2135 -0.3697
  184SOPE    HX21041   4.563  -0.311   5.651  0.7635  1.8821 -1.0772
  184SOPE    HY21042   4.387  -0.300   5.700  1.0369 -3.3587  0.9675
  184SOPE   O3121043   4.530  -0.327   5.863  0.4139  0.1131  0.1140
  184SOPE   C3121044   4.428  -0.372   5.941  0.4442  0.5639 -0.6996
  184SOPE   O3221045   4.310  -0.385   5.900  0.2601  0.2727 -0.1201
  184SOPE   C3221046   4.475  -0.401   6.084  0.3248  0.0902 -1.0708
  184SOPE   H2X21047   4.541  -0.318   6.119  0.1752  0.2548 -1.1748
  184SOPE   H2Y21048   4.524  -0.500   6.093 -0.7802 -0.5135 -1.6107
  184SOPE   C2321049   4.271   0.223   5.882 -0.0526  0.0911 -0.3508
  184SOPE   H3R21050   4.240   0.264   5.783 -0.8415 -0.2034 -0.2262
  184SOPE   H3S21051   4.382   0.229   5.883 -0.1132  1.6417  0.5760
  184SOPE   C2421052   4.211   0.310   5.993 -0.0749 -0.6246 -0.2511
  184SOPE   H4R21053   4.195   0.406   5.940 -0.9804 -0.3713  0.4563
  184SOPE   H4S21054   4.109   0.279   6.025 -0.6076  0.4909 -0.8225
  184SOPE   C2521055   4.306   0.349   6.111  0.2178  0.7295 -0.1550
  184SOPE   H5R21056   4.408   0.342   6.067 -0.2857 -1.1563 -1.1147
  184SOPE   H5S21057   4.286   0.448   6.158 -3.2071 -0.6403  1.6435
  184SOPE   C2621058   4.309   0.248   6.227 -0.2788  0.3153 -0.3801
  184SOPE   H6R21059   4.311   0.147   6.182  2.2528 -1.2099  2.7410
  184SOPE   H6S21060   4.396   0.248   6.296 -1.0421 -1.8869  0.6877
  184SOPE   C2721061   4.177   0.256   6.306  0.3701 -0.5885  0.1399
  184SOPE   H7R21062   4.179   0.364   6.330  2.4465 -0.4247 -0.5725
  184SOPE   H7S21063   4.093   0.246   6.233  1.1418 -1.5729 -0.6397
  184SOPE   C2821064   4.154   0.177   6.435  0.7254  0.1085 -0.6640
  184SOPE   H8R21065   4.241   0.179   6.505 -0.6451  0.3840  1.1180
  184SOPE   H8S21066   4.074   0.214   6.503 -0.0476 -0.5202 -1.2129
  184SOPE   C2921067   4.107   0.038   6.403  0.3355  0.6162 -0.4459
  184SOPE   H9121068   4.079   0.026   6.298  0.4422  0.8220 -0.4977
  184SOPE  C21021069   4.112  -0.066   6.500  0.0055 -0.1727  0.0513
  184SOPE  H10121070   4.087  -0.170   6.474  0.7470 -0.3967  0.2094
  184SOPE  C21121071   4.152  -0.052   6.641 -0.3641  0.0913  0.3492
  184SOPE  H11R21072   4.213   0.041   6.646  1.4749 -0.9833 -0.9798
  184SOPE  H11S21073   4.225  -0.125   6.681 -0.9590 -0.1599  0.9910
  184SOPE  C21221074   4.031  -0.035   6.728 -0.1706  0.0283  0.4100
  184SOPE  H12R21075   3.969  -0.127   6.723  1.5238 -1.3337  2.6714
  184SOPE  H12S21076   3.980   0.058   6.695  2.0369  1.3825  0.5609
  184SOPE  C21321077   4.066  -0.026   6.876  0.0756  0.8245  0.2624
  184SOPE  H13R21078   4.144   0.052   6.892  0.6650 -0.1001  2.1974
  184SOPE  H13S21079   4.108  -0.125   6.903 -0.2505  0.0931 -1.7450
  184SOPE  C21421080   3.945  -0.012   6.967  0.1559 -0.6235  0.2657
  184SOPE  H14R21081   3.868  -0.090   6.951 -0.0526 -0.0885 -1.6493
  184SOPE  H14S21082   3.890   0.084   6.955  0.7968 -0.0561  1.6202
  184SOPE  C21521083   3.979  -0.030   7.114 -0.3640  0.4959  0.7495
  184SOPE  H15R21084   4.046   0.046   7.160 -0.4641  0.2963  1.2433
  184SOPE  H15S21085   4.052  -0.114   7.120 -0.3421  0.3073 -1.4587
  184SOPE  C21621086   3.858  -0.040   7.203 -0.5438 -0.0234  0.4203
  184SOPE  H16R21087   3.789  -0.113   7.156  2.0009 -1.0139 -2.1128
  184SOPE  H16S21088   3.808   0.058   7.198  0.6718  0.5710 -0.7525
  184SOPE  C21721089   3.877  -0.084   7.352  0.3593  0.2126  0.5710
  184SOPE  H17R21090   3.954  -0.020   7.400 -1.8022  1.8817  2.0016
  184SOPE  H17S21091   3.914  -0.189   7.348  0.1517  0.1527 -2.7422
  184SOPE  C21821092   3.753  -0.066   7.445  0.0176 -0.4910 -0.7873
  184SOPE  H18R21093   3.676  -0.141   7.418  0.3345 -0.7096 -1.0971
  184SOPE  H18S21094   3.719   0.039   7.442  0.5111 -0.1678  2.0969
  184SOPE  H18T21095   3.793  -0.090   7.547 -3.0066  1.7410  1.0754
  184SOPE   C3321096   4.357  -0.405   6.183  0.0490 -0.0288  0.8388
  184SOPE   H3X21097   4.284  -0.487   6.165  0.0713  0.4916 -2.1712
  184SOPE   H3Y21098   4.309  -0.305   6.176  2.4810  1.1829  0.2122
  184SOPE   C3421099   4.411  -0.449   6.319  0.3795 -0.2804 -0.2732
  184SOPE   H4X21100   4.489  -0.374   6.344  1.4613 -1.4003 -0.1792
  184SOPE   H4Y21101   4.459  -0.549   6.319  0.8071 -0.0824 -1.5165
  184SOPE   C3521102   4.299  -0.452   6.421 -0.8060 -0.2264  0.4690
  184SOPE   H5X21103   4.214  -0.509   6.379 -1.0009  0.0296  0.5119
  184SOPE   H5Y21104   4.262  -0.348   6.437 -0.9668  0.0028 -1.1315
  184SOPE   C3621105   4.352  -0.504   6.557 -0.7597 -0.4161  0.5485
  184SOPE   H6X21106   4.434  -0.437   6.590 -0.4234  1.3152 -3.2899
  184SOPE   H6Y21107   4.394  -0.607   6.555 -0.1668 -0.1685 -0.1653
  184SOPE   C3721108   4.248  -0.501   6.664  0.1234 -0.0866 -0.1270
  184SOPE   H7X21109   4.153  -0.552   6.637  0.1139  1.0295 -2.4455
  184SOPE   H7Y21110   4.230  -0.393   6.678  2.2258  0.0758  2.0666
  184SOPE   C3821111   4.302  -0.558   6.794 -0.9143 -0.1277 -0.1497
  184SOPE   H8X21112   4.400  -0.508   6.813 -0.7822 -1.0690  1.9454
  184SOPE   H8Y21113   4.324  -0.665   6.774 -1.9223 -0.4881  0.6121
  184SOPE   C3921114   4.213  -0.541   6.914  0.2820 -0.1029 -0.5696
  184SOPE   H9X21115   4.124  -0.603   6.891  0.0327  0.0864 -0.1150
  184SOPE   H9Y21116   4.182  -0.434   6.921 -0.0224 -0.2936  1.8364
  184SOPE  C31021117   4.265  -0.579   7.051  0.6110  0.4980 -0.5678
  184SOPE  H10X21118   4.349  -0.516   7.089 -0.5628  0.8753  1.5678
  184SOPE  H10Y21119   4.312  -0.678   7.037 -0.1125  0.4437 -3.2363
  184SOPE  C31121120   4.151  -0.589   7.152  0.4996 -0.0701  0.5953
  184SOPE  H11X21121   4.079  -0.661   7.108  0.3330  0.0271  0.7115
  184SOPE  H11Y21122   4.096  -0.494   7.166 -0.1356 -0.2275 -0.7371
  184SOPE  C31221123   4.173  -0.648   7.293 -0.7799  0.6846 -0.0863
  184SOPE  H12X21124   4.248  -0.587   7.348  0.7131 -1.5814  0.5309
  184SOPE  H12Y21125   4.220  -0.746   7.267  1.0021  0.7649  2.4040
  184SOPE  C31321126   4.053  -0.674   7.382 -0.1964 -0.3756  0.6619
  184SOPE  H13X21127   4.064  -0.765   7.445 -0.8870 -0.4591  0.6768
  184SOPE  H13Y21128   3.956  -0.684   7.328 -1.3827 -1.9416  2.9140
  184SOPE  C31421129   4.019  -0.560   7.477 -0.2277 -0.8059 -0.3758
  184SOPE  H14X21130   3.993  -0.475   7.410 -2.1451 -0.7326  0.3935
  184SOPE  H14Y21131   4.102  -0.533   7.546 -2.3844  1.2080  1.6517
  184SOPE  C31521132   3.885  -0.578   7.554  0.2150 -0.2180 -0.4641
  184SOPE  H15X21133   3.809  -0.626   7.487 -0.5173 -1.7280  1.3542
  184SOPE  H15Y21134   3.829  -0.485   7.576 -1.3030 -0.5362 -2.6267
  184SOPE  C31621135   3.902  -0.650   7.690  0.6004  0.0865  0.3192
  184SOPE  H16X21136   3.956  -0.578   7.756 -0.1936  1.9415 -0.9619
  184SOPE  H16Y21137   3.960  -0.744   7.681 -0.1839 -0.3164 -0.7606
  184SOPE  C31721138   3.764  -0.674   7.748  0.5695 -0.2136  0.0417
  184SOPE  H17X21139   3.716  -0.755   7.688 -0.4196 -0.3683  1.0061
  184SOPE  H17Y21140   3.710  -0.579   7.732  1.4520  0.7144  2.1429
  184SOPE  C31821141   3.757  -0.707   7.900  0.2259 -0.3406  0.2817
  184SOPE  H18X21142   3.806  -0.623   7.953 -1.2414 -0.7622  2.4161
  184SOPE  H18Y21143   3.815  -0.796   7.934 -0.4519 -0.4237  1.2627
  184SOPE  H18Z21144   3.653  -0.717   7.938 -0.7078 -1.1878 -2.2917
  185SAPI   C1221145   5.761   1.962   9.621 -0.7515 -0.3311 -0.4507
  185SAPI    H221146   5.696   2.035   9.568  0.3488  0.0504 -1.3284
  185SAPI    O221147   5.697   1.939   9.751  0.3287  0.2277  0.5707
  185SAPI   HO221148   5.718   2.010   9.812 -1.4316  1.4605 -0.1943
  185SAPI   C1321149   5.767   1.837   9.536 -0.0638 -0.4711  0.1597
  185SAPI    H321150   5.801   1.868   9.435 -0.7736  3.6764  1.0367
  185SAPI    O321151   5.629   1.778   9.529 -0.3164  0.1677  0.3254
  185SAPI   HO321152   5.595   1.795   9.617  2.7497  1.8594  1.3491
  185SAPI   C1421153   5.875   1.749   9.599 -0.6485 -0.3798  0.5020
  185SAPI    H421154   5.837   1.726   9.700 -2.3836 -0.1357 -0.0620
  185SAPI    O421155   5.882   1.625   9.516 -0.2616 -0.2525 -0.1745
  185SAPI   HO421156   5.834   1.557   9.563 -1.1797  1.1466  0.9865
  185SAPI   C1521157   6.010   1.818   9.613 -0.4018 -0.1008 -0.5464
  185SAPI    H521158   6.046   1.843   9.512 -0.3986  0.3583 -0.4360
  185SAPI    O521159   6.105   1.737   9.680  0.4969 -0.0068 -0.0742
  185SAPI   HO521160   6.165   1.706   9.611 -0.8332  2.7652 -2.7213
  185SAPI   C1621161   5.998   1.952   9.697 -0.7492  0.5572 -0.4201
  185SAPI    H621162   5.974   1.919   9.800 -0.5088 -0.8973 -0.8009
  185SAPI    O621163   6.115   2.032   9.699  0.2048  0.0094 -0.3574
  185SAPI   HO621164   6.090   2.124   9.690  1.6000  0.3514 -1.1167
  185SAPI   C1121165   5.893   2.039   9.636 -0.4244 -0.2487 -0.5894
  185SAPI    H121166   5.922   2.074   9.535  0.2325  0.5314 -0.1470
  185SAPI     P21167   5.901   2.304   9.672 -0.3616  0.2554  0.6238
  185SAPI   O1321168   6.038   2.305   9.611 -0.0017  0.0846 -0.5790
  185SAPI   O1421169   5.876   2.401   9.782 -0.5502 -0.3784 -0.1274
  185SAPI   O1221170   5.868   2.155   9.726  0.4762 -0.4021  0.1701
  185SAPI   O1121171   5.792   2.323   9.551 -0.3012 -0.2073  0.0917
  185SAPI    C121172   5.825   2.424   9.458 -0.0073  0.1093 -0.2675
  185SAPI    HA21173   5.922   2.476   9.473  1.0587 -2.5406  3.6787
  185SAPI    HB21174   5.839   2.379   9.358 -1.6897  2.4931 -1.6940
  185SAPI    C221175   5.715   2.537   9.450 -0.7477  0.1936 -0.5625
  185SAPI    HS21176   5.703   2.580   9.551 -0.1681 -0.8540 -0.0258
  185SAPI   O2121177   5.588   2.474   9.412 -0.6787 -0.4172 -0.0380
  185SAPI   C2121178   5.487   2.549   9.402  0.3787  0.8007  0.2366
  185SAPI   O2221179   5.474   2.661   9.454 -0.0839  0.0036  0.2747
  185SAPI   C2221180   5.386   2.476   9.319 -0.4865 -0.1211  0.5299
  185SAPI   H2R21181   5.423   2.383   9.272 -0.0451  1.1363 -1.7719
  185SAPI   H2S21182   5.293   2.462   9.379 -1.9328  1.1506 -1.2736
  185SAPI    C321183   5.771   2.651   9.354  1.0724  0.5043  0.0344
  185SAPI    HX21184   5.851   2.693   9.419  2.8392 -2.4449 -0.0318
  185SAPI    HY21185   5.687   2.723   9.350  1.6242  1.2538  1.4136
  185SAPI   O3121186   5.807   2.599   9.225  0.2315  0.2014 -0.6824
  185SAPI   C3121187   5.917   2.650   9.172 -0.2066  0.4844 -1.0634
  185SAPI   O3221188   5.992   2.727   9.225  0.4639  0.2382 -0.0933
  185SAPI   C3221189   5.937   2.599   9.030  0.2805 -0.1520 -0.4559
  185SAPI   H2X21190   5.853   2.534   8.999  0.1214  0.5030 -1.4288
  185SAPI   H2Y21191   6.028   2.537   9.029  1.2434  1.0087  2.5470
  185SAPI   C2321192   5.340   2.563   9.196  0.0125  0.3637  1.4499
  185SAPI   H3R21193   5.281   2.649   9.233 -0.2958  1.3396 -1.0886
  185SAPI   H3S21194   5.269   2.501   9.138  2.6450 -1.3595 -0.1358
  185SAPI   C2421195   5.449   2.606   9.092 -0.0286 -0.5556  0.0974
  185SAPI   H4R21196   5.505   2.688   9.142 -3.1475  1.5297  0.4471
  185SAPI   H4S21197   5.399   2.644   9.001 -0.6819 -0.1523  0.6170
  185SAPI   C2521198   5.543   2.492   9.058  0.2575 -0.1860 -1.2057
  185SAPI   H5R21199   5.630   2.481   9.126  0.7264 -0.9589 -1.9164
  185SAPI   C2621200   5.543   2.415   8.959  0.3737 -0.0148 -0.7171
  185SAPI   H6R21201   5.618   2.334   8.960 -1.3802 -1.8135  2.7270
  185SAPI   C2721202   5.447   2.407   8.844  1.3175  0.0130  0.2931
  185SAPI   H7R21203   5.481   2.467   8.757 -2.8003  1.4266 -0.5445
  185SAPI   H7S21204   5.349   2.453   8.869  1.5478  0.6999 -0.0655
  185SAPI   C2821205   5.414   2.263   8.808  0.3685 -0.3585 -0.0145
  185SAPI   H8R21206   5.393   2.197   8.893 -1.6585 -0.1485 -0.2838
  185SAPI   C2921207   5.411   2.205   8.683  0.0960  0.5308 -0.4293
  185SAPI   H9R21208   5.374   2.101   8.680  0.0954  0.4457  1.4971
  185SAPI  C21021209   5.435   2.284   8.548  0.4484  0.6939 -1.0023
  185SAPI  H10R21210   5.498   2.374   8.561 -0.0504  0.9047  0.0818
  185SAPI  H10S21211   5.341   2.333   8.513  0.0776  1.0759  0.4449
  185SAPI  C21121212   5.469   2.188   8.433 -0.3801 -0.1760  0.2526
  185SAPI  H11R21213   5.436   2.084   8.442 -1.6816  0.2385  0.4869
  185SAPI  C21221214   5.544   2.221   8.321 -0.4519 -0.6350  0.1839
  185SAPI  H12R21215   5.565   2.137   8.253  0.0030 -1.2816  1.0889
  185SAPI  C21321216   5.603   2.359   8.303  0.4858 -0.1016  0.3065
  185SAPI  H13R21217   5.608   2.410   8.401 -1.3821  0.9751 -0.1095
  185SAPI  H13S21218   5.524   2.415   8.247  1.6366  0.2552 -1.0314
  185SAPI  C21421219   5.731   2.370   8.220  0.3612 -0.6325 -0.1115
  185SAPI  H14R21220   5.790   2.277   8.219 -0.1107 -1.0069  1.9646
  185SAPI  C21521221   5.783   2.487   8.174  0.3505 -0.3766  0.2672
  185SAPI  H15R21222   5.887   2.501   8.141 -0.1761  1.0002 -0.8789
  185SAPI  C21621223   5.728   2.618   8.197 -1.4815  0.0868 -0.2728
  185SAPI  H16R21224   5.806   2.694   8.177  0.3915 -0.9045  2.5986
  185SAPI  H16S21225   5.707   2.631   8.306 -1.6795  0.7216 -0.3808
  185SAPI  C21721226   5.607   2.659   8.114  0.0281  0.0648 -0.6670
  185SAPI  H17R21227   5.590   2.768   8.121 -0.3480  0.3688 -4.2960
  185SAPI  H17S21228   5.509   2.616   8.142  0.6979 -0.6004  0.8207
  185SAPI  C21821229   5.642   2.646   7.961  0.0510 -0.1827  0.2404
  185SAPI  H18R21230   5.679   2.543   7.943  1.1836  0.5217 -1.7290
  185SAPI  H18S21231   5.727   2.713   7.936 -0.8159  0.3267 -1.4533
  185SAPI  C21921232   5.519   2.675   7.878 -1.1647 -0.6935 -0.0268
  185SAPI  H19R21233   5.460   2.582   7.872 -1.0272 -0.7516 -0.5188
  185SAPI  H19S21234   5.549   2.701   7.774  0.8056  0.2090  0.7199
  185SAPI  C22021235   5.432   2.795   7.918  1.0313 -0.1330  0.0124
  185SAPI  H20R21236   5.477   2.897   7.919  0.2502  0.2257  0.7858
  185SAPI  H20S21237   5.392   2.774   8.020 -1.4855 -0.9683 -1.0680
  185SAPI  H20T21238   5.343   2.805   7.852  1.1654  0.1352 -0.1297
  185SAPI   C3321239   5.939   2.717   8.923 -0.0198  0.2749  0.7886
  185SAPI   H3X21240   6.040   2.762   8.913  0.4931 -1.1843 -1.6165
  185SAPI   H3Y21241   5.874   2.803   8.948 -0.5399  0.6558 -1.6220
  185SAPI   C3421242   5.890   2.662   8.790  0.0204  0.4568 -0.3601
  185SAPI   H4X21243   5.781   2.649   8.775  0.2053 -1.6138 -0.3121
  185SAPI   H4Y21244   5.940   2.564   8.773 -2.1451 -0.6978 -0.4736
  185SAPI   C3521245   5.943   2.756   8.675  0.0731  0.4979 -0.4218
  185SAPI   H5X21246   6.053   2.764   8.688  0.2887 -1.0666 -1.0193
  185SAPI   H5Y21247   5.894   2.855   8.674  1.3751  1.1733 -1.8822
  185SAPI   C3621248   5.905   2.695   8.538 -0.3779  0.7601 -0.2372
  185SAPI   H6X21249   5.800   2.661   8.526 -0.0687  0.5219 -2.8754
  185SAPI   H6Y21250   5.965   2.605   8.513  1.2563  2.4118 -2.7302
  185SAPI   C3721251   5.929   2.806   8.431  0.5136  0.3414 -0.1481
  185SAPI   H7X21252   5.960   2.763   8.334 -1.8147  1.0011 -1.2564
  185SAPI   H7Y21253   6.023   2.863   8.451  2.1610 -0.9121 -3.5381
  185SAPI   C3821254   5.810   2.895   8.400 -0.2876 -0.3885  0.3623
  185SAPI   H8X21255   5.776   2.965   8.478 -0.7145 -0.7772  0.5256
  185SAPI   H8Y21256   5.723   2.829   8.381  0.8141 -1.8495  0.2190
  185SAPI   C3921257   5.842   2.971   8.269 -0.3033 -0.0847  0.8645
  185SAPI   H9X21258   5.881   2.896   8.197  2.5162  0.9940  1.1493
  185SAPI   H9Y21259   5.926   3.044   8.279 -0.3061  0.2016 -0.8336
  185SAPI  C31021260   5.724   3.040   8.207 -0.2782 -0.2670 -0.0245
  185SAPI  H10X21261   5.718   3.144   8.245 -1.1867  0.0274 -0.9258
  185SAPI  H10Y21262   5.627   2.988   8.219 -1.9150  1.4173 -3.9613
  185SAPI  C31121263   5.739   3.047   8.059  0.4258  0.0542  0.5050
  185SAPI  H11X21264   5.729   2.945   8.016  0.6184 -0.6057  1.9381
  185SAPI  H11Y21265   5.838   3.095   8.043  0.4396  0.2594  1.1776
  185SAPI  C31221266   5.634   3.144   7.998 -0.2440 -0.7194 -0.5203
  185SAPI  H12X21267   5.638   3.244   8.046  0.4191 -0.8810 -0.2213
  185SAPI  H12Y21268   5.537   3.095   8.020  0.1686 -1.5190 -0.4454
  185SAPI  C31321269   5.661   3.157   7.849 -0.0496 -0.4543  0.2368
  185SAPI  H13X21270   5.651   3.056   7.803 -0.2075 -0.0394 -0.6566
  185SAPI  H13Y21271   5.764   3.193   7.832  0.2617 -1.6291 -0.4591
  185SAPI  C31421272   5.561   3.250   7.772  0.3146 -0.1239 -0.0717
  185SAPI  H14X21273   5.466   3.197   7.796  1.8425 -1.5027  3.6877
  185SAPI  H14Y21274   5.576   3.237   7.663  1.2695  1.4372 -0.1609
  185SAPI  C31521275   5.561   3.401   7.793 -0.2131 -0.4434 -1.1166
  185SAPI  H15X21276   5.656   3.451   7.764  0.1986  1.8870  3.4218
  185SAPI  H15Y21277   5.545   3.427   7.900 -0.9842 -0.7316 -1.1530
  185SAPI  C31621278   5.448   3.475   7.724  0.6238 -0.0718  0.0517
  185SAPI  H16X21279   5.430   3.416   7.631  1.6694 -1.3489  0.6301
  185SAPI  H16Y21280   5.476   3.582   7.711 -2.8180  1.3771  2.8436
  185SAPI  C31721281   5.319   3.471   7.803  0.3943 -0.0374 -0.5379
  185SAPI  H17X21282   5.335   3.500   7.909 -0.8959 -0.5459 -0.1806
  185SAPI  H17Y21283   5.276   3.369   7.808  0.0021  0.1147 -0.6813
  185SAPI  C31821284   5.209   3.569   7.758  0.3219  0.0817  0.2616
  185SAPI  H18X21285   5.242   3.675   7.767  1.4859 -0.2174 -0.2663
  185SAPI  H18Y21286   5.112   3.541   7.805 -0.1558  0.6448 -0.3583
  185SAPI  H18Z21287   5.195   3.547   7.650  3.0646 -1.9094  0.2075
  186SAPI   C1221288   5.038   0.787   9.885  0.2731 -0.0004 -0.1821
  186SAPI    H221289   5.048   0.871   9.813  1.8764 -2.4107 -2.9920
  186SAPI    O221290   5.104   0.837   9.999 -0.1486 -0.1136  0.0499
  186SAPI   HO221291   5.189   0.795  10.011 -1.0277 -1.6914  1.2362
  186SAPI   C1321292   4.893   0.756   9.902 -0.0032  0.1996  0.0643
  186SAPI    H321293   4.864   0.720   9.801  2.7296 -2.3622  0.0600
  186SAPI    O321294   4.814   0.872   9.928 -0.0130  0.3110  0.1914
  186SAPI   HO321295   4.735   0.865   9.874  0.9427  2.2757 -1.6152
  186SAPI   C1421296   4.868   0.642   9.998  0.0119 -0.2626 -1.7031
  186SAPI    H421297   4.901   0.676  10.099  2.2453 -1.8771 -1.8210
  186SAPI    O421298   4.725   0.605  10.011 -0.4951 -0.3293 -0.1974
  186SAPI   HO421299   4.724   0.562  10.096  2.6572 -0.1724  0.0244
  186SAPI   C1521300   4.952   0.520   9.967 -0.2373 -0.3272  0.2212
  186SAPI    H521301   4.907   0.474   9.876  0.7185 -2.8209  0.9171
  186SAPI    O521302   4.946   0.416  10.068  0.0922  0.6711  0.4102
  186SAPI   HO521303   4.877   0.355  10.041  1.5578 -2.9733  3.9454
  186SAPI   C1621304   5.097   0.554   9.931  0.0833  0.0849  0.0260
  186SAPI    H621305   5.145   0.582  10.027 -2.6670  1.5567  1.1039
  186SAPI    O621306   5.173   0.442   9.883  1.0350  0.4875  0.1921
  186SAPI   HO621307   5.246   0.416   9.940  0.2488 -1.5864  0.3481
  186SAPI   C1121308   5.117   0.664   9.831  0.8996  0.2332 -0.3150
  186SAPI    H121309   5.066   0.642   9.735 -1.7031  0.9211  0.8292
  186SAPI     P21310   5.305   0.776   9.679 -0.2093  0.2016  0.2261
  186SAPI   O1321311   5.450   0.825   9.685 -0.3233 -0.3041  0.0066
  186SAPI   O1421312   5.216   0.883   9.642  1.0664  0.2790  0.6828
  186SAPI   O1221313   5.257   0.702   9.822 -0.2858 -0.5337 -0.6217
  186SAPI   O1121314   5.293   0.658   9.577 -0.1108 -0.2770  0.1750
  186SAPI    C121315   5.395   0.552   9.592  0.7207  0.0263 -0.3613
  186SAPI    HA21316   5.497   0.591   9.575  1.3960 -1.6605 -0.3965
  186SAPI    HB21317   5.397   0.510   9.695 -1.7526 -1.8612 -0.9566
  186SAPI    C221318   5.361   0.427   9.501  0.4798 -0.3056  0.5055
  186SAPI    HS21319   5.446   0.357   9.511 -0.4233 -1.2792  1.6162
  186SAPI   O2121320   5.351   0.478   9.360 -0.0462  0.0445 -0.0387
  186SAPI   C2121321   5.379   0.387   9.270  0.2974 -0.5488 -0.3032
  186SAPI   O2221322   5.417   0.275   9.288  0.3862  0.5049 -0.2776
  186SAPI   C2221323   5.359   0.460   9.134 -0.7229  0.4978 -0.3923
  186SAPI   H2R21324   5.253   0.449   9.105 -0.8709 -0.6723  0.5174
  186SAPI   H2S21325   5.386   0.568   9.146  2.8017 -0.2373 -0.5733
  186SAPI    C321326   5.227   0.362   9.542 -0.3685  0.2237  0.1172
  186SAPI    HX21327   5.152   0.443   9.526 -1.1295 -0.4235  0.3506
  186SAPI    HY21328   5.233   0.335   9.650 -0.1768 -1.5770 -0.3219
  186SAPI   O3121329   5.195   0.244   9.464 -0.2291 -0.5561  0.1243
  186SAPI   C3121330   5.082   0.242   9.389  0.0843  0.2489  0.4551
  186SAPI   O3221331   4.990   0.320   9.385 -0.0175 -0.1372  0.3713
  186SAPI   C3221332   5.097   0.120   9.298  0.0472 -0.3152 -0.0005
  186SAPI   H2X21333   5.102   0.031   9.364  1.1556 -0.9780 -0.9329
  186SAPI   H2Y21334   5.195   0.133   9.246 -1.5789  1.1814 -2.9832
  186SAPI   C2321335   5.445   0.387   9.019 -0.0258  1.1573 -0.4251
  186SAPI   H3R21336   5.403   0.286   8.998  2.9978 -0.3766  0.3009
  186SAPI   H3S21337   5.550   0.381   9.054 -0.4518  3.0527  1.3880
  186SAPI   C2421338   5.426   0.463   8.893 -1.2714  0.2760  0.2598
  186SAPI   H4R21339   5.452   0.567   8.924 -0.3195 -0.2111  1.1375
  186SAPI   H4S21340   5.319   0.463   8.863 -1.2832 -1.2238  0.2329
  186SAPI   C2521341   5.505   0.403   8.775  0.1630 -0.2910 -0.2974
  186SAPI   H5R21342   5.605   0.363   8.798  0.5046  1.2740  1.1762
  186SAPI   C2621343   5.466   0.398   8.643  0.1736 -1.2465 -0.1280
  186SAPI   H6R21344   5.537   0.364   8.566 -1.8593 -2.4915 -1.5166
  186SAPI   C2721345   5.345   0.461   8.582 -0.8452 -0.8342 -0.2602
  186SAPI   H7R21346   5.291   0.531   8.648 -1.5137 -0.5353 -1.1096
  186SAPI   H7S21347   5.266   0.387   8.557 -1.9553  0.0558  0.4961
  186SAPI   C2821348   5.389   0.554   8.471 -0.0648 -0.2448  0.3390
  186SAPI   H8R21349   5.461   0.630   8.502 -1.3711  0.3194  2.1707
  186SAPI   C2921350   5.336   0.558   8.344  0.3402 -0.2055 -0.4879
  186SAPI   H9R21351   5.367   0.650   8.292  0.7081  0.1053  0.2682
  186SAPI  C21021352   5.217   0.468   8.304 -0.4250  0.3589 -0.4515
  186SAPI  H10R21353   5.134   0.475   8.378  0.0090  3.0680 -0.1382
  186SAPI  H10S21354   5.246   0.361   8.290 -1.1400  0.0156  0.5475
  186SAPI  C21121355   5.174   0.507   8.166  0.1769 -0.3021 -0.3286
  186SAPI  H11R21356   5.263   0.505   8.101  1.4820 -2.5722  1.3308
  186SAPI  C21221357   5.055   0.542   8.124  0.1103  0.5561 -0.2141
  186SAPI  H12R21358   5.049   0.571   8.019  0.9296  0.6269 -0.2489
  186SAPI  C21321359   4.935   0.537   8.211  0.3243  0.0012  0.8299
  186SAPI  H13R21360   4.946   0.574   8.315  0.6491  0.9458  0.4747
  186SAPI  H13S21361   4.895   0.434   8.221  1.0990 -0.2489  1.3345
  186SAPI  C21421362   4.818   0.608   8.159 -0.2977 -1.2958 -0.1512
  186SAPI  H14R21363   4.808   0.714   8.188  0.1931 -1.7288  1.6950
  186SAPI  C21521364   4.743   0.567   8.061  0.0246 -0.1412  0.1291
  186SAPI  H15R21365   4.650   0.621   8.035  0.0769 -0.9794 -1.9864
  186SAPI  C21621366   4.751   0.437   7.995 -0.2155  0.4949 -0.3928
  186SAPI  H16R21367   4.848   0.386   8.014 -0.9012 -0.4834  0.5952
  186SAPI  H16S21368   4.733   0.467   7.890  0.3681  1.7555 -0.1476
  186SAPI  C21721369   4.644   0.351   8.045  1.0947  0.6515 -0.3540
  186SAPI  H17R21370   4.668   0.334   8.152 -0.0836 -1.4719 -0.3678
  186SAPI  H17S21371   4.657   0.250   7.999 -0.9665 -1.0537  2.4859
  186SAPI  C21821372   4.500   0.399   8.054 -0.4278 -0.4658 -0.6037
  186SAPI  H18R21373   4.472   0.430   7.951  2.9618 -0.9876 -1.8167
  186SAPI  H18S21374   4.499   0.495   8.110  2.1651  0.2689 -1.6499
  186SAPI  C21921375   4.400   0.305   8.126 -0.5464  0.2051  0.6996
  186SAPI  H19R21376   4.306   0.359   8.151 -1.1796 -0.4247 -0.2708
  186SAPI  H19S21377   4.439   0.281   8.227  0.6764  0.1293  0.2353
  186SAPI  C22021378   4.366   0.174   8.053 -0.2273 -0.1399  0.6562
  186SAPI  H20R21379   4.370   0.205   7.946 -0.1452  5.1195  1.9002
  186SAPI  H20S21380   4.273   0.134   8.099  0.1945 -1.4216  0.4461
  186SAPI  H20T21381   4.458   0.115   8.075  0.4174  1.4862  2.6270
  186SAPI   C3321382   4.982   0.100   9.196 -0.2823  0.0632 -0.4120
  186SAPI   H3X21383   4.951   0.201   9.161 -2.6416  0.1353  1.5608
  186SAPI   H3Y21384   4.899   0.041   9.242  0.8504 -0.4859  0.9907
  186SAPI   C3421385   5.027   0.024   9.074  0.0242  0.2689  0.2848
  186SAPI   H4X21386   4.939  -0.023   9.026  1.9038 -2.1529 -1.0319
  186SAPI   H4Y21387   5.082  -0.071   9.095 -3.1683 -2.3230 -1.9741
  186SAPI   C3521388   5.113   0.110   8.979 -0.2568 -0.0139 -0.2322
  186SAPI   H5X21389   5.202   0.146   9.034 -0.3085 -1.2439  0.6731
  186SAPI   H5Y21390   5.052   0.201   8.958 -1.2293 -0.3862  0.8514
  186SAPI   C3621391   5.145   0.049   8.846 -0.2597  0.0155  0.8420
  186SAPI   H6X21392   5.053   0.005   8.801  0.2036  0.5171 -0.6631
  186SAPI   H6Y21393   5.223  -0.028   8.857  1.0561  1.5851  3.3493
  186SAPI   C3721394   5.205   0.148   8.742  0.7347 -0.1782 -0.2878
  186SAPI   H7X21395   5.300   0.180   8.789  0.5539 -0.8952  0.6119
  186SAPI   H7Y21396   5.151   0.244   8.733 -1.0288 -1.1312 -0.3628
  186SAPI   C3821397   5.212   0.081   8.600  0.2175  0.1592  0.1887
  186SAPI   H8X21398   5.222   0.171   8.536  0.4873  0.0516  0.0782
  186SAPI   H8Y21399   5.123   0.020   8.573  0.5215 -1.2711  2.1860
  186SAPI   C3921400   5.341   0.004   8.580  0.0195 -0.2169 -0.2428
  186SAPI   H9X21401   5.325  -0.094   8.630 -1.8482  0.3885  0.4269
  186SAPI   H9Y21402   5.422   0.056   8.636  0.4578 -2.1608  1.0422
  186SAPI  C31021403   5.378  -0.020   8.436 -0.0079  0.5100  0.9750
  186SAPI  H10X21404   5.303  -0.084   8.385  0.9184 -0.4388  0.7649
  186SAPI  H10Y21405   5.466  -0.089   8.437  2.0804  3.0144  2.1360
  186SAPI  C31121406   5.421   0.101   8.353 -0.2199  0.0856  0.0450
  186SAPI  H11X21407   5.500   0.155   8.411  0.7073 -0.8631 -0.3141
  186SAPI  H11Y21408   5.333   0.168   8.343  0.5770  1.2308  0.3914
  186SAPI  C31221409   5.471   0.055   8.217 -0.3189 -0.4376 -0.1572
  186SAPI  H12X21410   5.384   0.023   8.155 -2.0588 -0.3826  2.1217
  186SAPI  H12Y21411   5.542  -0.029   8.227  0.9459  0.8724  3.2906
  186SAPI  C31321412   5.567   0.158   8.147 -0.1307  0.2563 -0.6552
  186SAPI  H13X21413   5.671   0.162   8.184  0.0100  1.6783 -1.1390
  186SAPI  H13Y21414   5.524   0.255   8.181 -2.0854 -1.3891  1.9528
  186SAPI  C31421415   5.589   0.133   7.993  0.4058 -0.6856 -0.8107
  186SAPI  H14X21416   5.495   0.143   7.933  1.1403 -0.5996 -1.9872
  186SAPI  H14Y21417   5.612   0.025   7.981 -0.2506 -0.7457 -1.6566
  186SAPI  C31521418   5.699   0.222   7.925  0.3901  0.8349  0.4019
  186SAPI  H15X21419   5.791   0.214   7.987  0.3544 -0.0177  0.3594
  186SAPI  H15Y21420   5.664   0.327   7.932 -0.8327  0.5056 -0.4817
  186SAPI  C31621421   5.732   0.188   7.778  0.1783  0.0002  0.2864
  186SAPI  H16X21422   5.632   0.180   7.730 -0.5339 -0.2540  1.7303
  186SAPI  H16Y21423   5.777   0.087   7.772 -0.5364 -0.2150 -3.3640
  186SAPI  C31721424   5.814   0.288   7.694  0.9004 -0.4832  0.5674
  186SAPI  H17X21425   5.908   0.303   7.751  0.7368 -1.3473  1.0889
  186SAPI  H17Y21426   5.753   0.381   7.688  1.1936 -0.4071 -3.8949
  186SAPI  C31821427   5.836   0.242   7.555  0.2151 -0.0576  0.1405
  186SAPI  H18X21428   5.744   0.242   7.492  0.5831 -1.5321 -0.4254
  186SAPI  H18Y21429   5.881   0.141   7.561  1.0009  0.3581  1.8673
  186SAPI  H18Z21430   5.908   0.307   7.501 -0.7525  0.4969 -0.5126
  187SAPI   C1221431   0.769   2.293   5.254 -0.0752  0.1280  0.1335
  187SAPI    H221432   0.683   2.346   5.209 -2.4195 -4.2814 -1.1262
  187SAPI    O221433   0.711   2.171   5.304 -0.1041 -0.0356 -0.1693
  187SAPI   HO221434   0.617   2.171   5.284  0.2428  2.1571 -2.2051
  187SAPI   C1321435   0.869   2.263   5.150  0.1024  0.0313 -0.2428
  187SAPI    H321436   0.919   2.356   5.116 -0.4135  1.0426  1.6336
  187SAPI    O321437   0.798   2.208   5.033  0.1034 -0.0044 -0.3886
  187SAPI   HO321438   0.730   2.143   5.054 -0.7621  1.2180  0.8104
  187SAPI   C1421439   0.986   2.167   5.190  0.2456  0.0220 -0.9373
  187SAPI    H421440   0.947   2.074   5.237 -0.6274  0.7347 -0.2118
  187SAPI    O421441   1.064   2.127   5.075  0.2127  0.8938 -0.4261
  187SAPI   HO421442   1.119   2.051   5.099  0.1774  0.8329 -0.5347
  187SAPI   C1521443   1.062   2.244   5.294 -0.2980 -0.4985  0.5150
  187SAPI    H521444   1.086   2.345   5.255  1.4610 -0.9204  0.4316
  187SAPI    O521445   1.180   2.176   5.333  0.0546 -0.4878 -0.7611
  187SAPI   HO521446   1.160   2.101   5.389  3.6383  0.3883  2.0765
  187SAPI   C1621447   0.966   2.275   5.409 -1.0623 -0.2680 -0.3391
  187SAPI    H621448   0.922   2.181   5.448  1.0987 -0.3717  2.1311
  187SAPI    O621449   1.039   2.334   5.516  0.4988  0.3921 -0.2731
  187SAPI   HO621450   1.007   2.298   5.599  1.5718 -1.2405 -0.5283
  187SAPI   C1121451   0.844   2.369   5.361  0.0094  0.6828 -0.0085
  187SAPI    H121452   0.892   2.460   5.319 -0.3708  0.1610 -1.6576
  187SAPI     P21453   0.638   2.496   5.498  0.0827 -0.0376 -0.1637
  187SAPI   O1321454   0.529   2.405   5.502 -0.1974  0.1603 -0.0570
  187SAPI   O1421455   0.648   2.600   5.389  0.0756  0.4610 -0.0104
  187SAPI   O1221456   0.767   2.403   5.478 -0.4005  0.3175 -0.5031
  187SAPI   O1121457   0.659   2.562   5.634  0.1380 -0.5304 -0.4802
  187SAPI    C121458   0.777   2.569   5.722  0.0633 -0.3511  0.0712
  187SAPI    HA21459   0.872   2.557   5.665  0.8493  1.2320  0.9919
  187SAPI    HB21460   0.780   2.660   5.785  0.4468 -0.8117  0.7315
  187SAPI    C221461   0.776   2.452   5.825  0.2849  0.7650 -0.3668
  187SAPI    HS21462   0.821   2.361   5.780 -1.2727  1.5871 -3.9442
  187SAPI   O2121463   0.645   2.433   5.889 -0.2527 -0.2495 -0.1965
  187SAPI   C2121464   0.603   2.307   5.904  0.2273  0.6344 -1.2660
  187SAPI   O2221465   0.653   2.203   5.869 -0.6811 -0.2016 -0.0138
  187SAPI   C2221466   0.471   2.300   5.984  0.0623  0.6767 -0.3506
  187SAPI   H2R21467   0.435   2.402   5.960 -0.6157  1.2987  2.8114
  187SAPI   H2S21468   0.398   2.224   5.947 -1.4708  1.3119  1.2108
  187SAPI    C321469   0.872   2.489   5.940 -0.5747 -0.2512  0.1128
  187SAPI    HX21470   0.823   2.582   5.973  0.5987  1.1222 -1.7860
  187SAPI    HY21471   0.973   2.529   5.916 -0.3182  0.0735  1.6351
  187SAPI   O3121472   0.867   2.393   6.051 -0.4872  0.3339  0.2373
  187SAPI   C3121473   0.944   2.292   6.030 -0.0416 -0.1189 -0.1903
  187SAPI   O3221474   1.014   2.267   5.933 -0.1978 -0.2967 -0.1245
  187SAPI   C3221475   0.920   2.188   6.141  0.5425 -0.4523 -0.0528
  187SAPI   H2X21476   1.016   2.133   6.152  1.4110  1.2691  1.3233
  187SAPI   H2Y21477   0.834   2.123   6.114 -1.8100  0.9181  3.4964
  187SAPI   C2321478   0.488   2.295   6.140  0.5867 -0.7205 -0.6992
  187SAPI   H3R21479   0.550   2.384   6.161 -1.4091  0.9567 -1.5300
  187SAPI   H3S21480   0.544   2.201   6.157 -0.5187 -1.3194 -0.2366
  187SAPI   C2421481   0.361   2.306   6.218  0.3105  0.3513  0.1421
  187SAPI   H4R21482   0.287   2.228   6.190  1.0590 -0.4960  0.4814
  187SAPI   H4S21483   0.325   2.407   6.186  0.6602 -0.3546 -2.6556
  187SAPI   C2521484   0.390   2.293   6.367  0.0020 -0.1324  0.0569
  187SAPI   H5R21485   0.407   2.194   6.411  2.0577  1.2925  2.7292
  187SAPI   C2621486   0.413   2.390   6.452 -0.0323  0.2946 -0.0597
  187SAPI   H6R21487   0.460   2.364   6.548  3.2875 -0.5374 -1.7636
  187SAPI   C2721488   0.405   2.539   6.421 -0.4485 -0.6037  0.3214
  187SAPI   H7R21489   0.395   2.597   6.515 -1.9452  2.6509 -1.6444
  187SAPI   H7S21490   0.315   2.565   6.361  0.1620  1.7390  0.3247
  187SAPI   C2821491   0.514   2.605   6.336 -0.3171 -0.8349 -0.2505
  187SAPI   H8R21492   0.512   2.581   6.228 -0.6478  0.7913 -0.6350
  187SAPI   C2921493   0.587   2.703   6.381 -0.1187  0.2021 -1.0812
  187SAPI   H9R21494   0.660   2.745   6.311  1.2868 -1.0426 -0.4415
  187SAPI  C21021495   0.587   2.780   6.513 -0.0371 -0.3585 -0.6183
  187SAPI  H10R21496   0.496   2.748   6.569 -0.8031 -0.0734 -1.6606
  187SAPI  H10S21497   0.576   2.890   6.501  2.6513 -0.0621 -1.0411
  187SAPI  C21121498   0.715   2.773   6.597  0.3075 -0.2390 -0.2101
  187SAPI  H11R21499   0.786   2.854   6.573 -0.1177 -0.1441 -1.2021
  187SAPI  C21221500   0.758   2.664   6.666  0.5187  0.1337 -0.4522
  187SAPI  H12R21501   0.854   2.669   6.718  1.3882  0.2705 -2.0180
  187SAPI  C21321502   0.672   2.548   6.696  0.5000 -0.3754 -0.3113
  187SAPI  H13R21503   0.711   2.462   6.637  0.0371 -1.2074  0.5501
  187SAPI  H13S21504   0.571   2.570   6.657  0.2020 -2.9709 -1.2078
  187SAPI  C21421505   0.672   2.512   6.845  0.0594  0.4434  0.3150
  187SAPI  H14R21506   0.771   2.534   6.888 -0.6085  1.0426  1.6004
  187SAPI  C21521507   0.566   2.459   6.920 -0.0198 -0.0037 -0.5990
  187SAPI  H15R21508   0.592   2.431   7.023 -1.3460  2.5662  0.5027
  187SAPI  C21621509   0.433   2.415   6.849 -0.3471 -0.7350  0.0224
  187SAPI  H16R21510   0.420   2.458   6.748 -2.0540 -1.5144 -0.1379
  187SAPI  H16S21511   0.347   2.462   6.902 -0.2741  2.5133 -2.4561
  187SAPI  C21721512   0.419   2.264   6.859  0.4501  0.0270 -0.3082
  187SAPI  H17R21513   0.487   2.221   6.782 -0.5210 -0.7181 -0.7754
  187SAPI  H17S21514   0.319   2.235   6.821  0.1793 -1.2832  1.2855
  187SAPI  C21821515   0.448   2.197   6.995  0.5469 -0.1680 -0.2440
  187SAPI  H18R21516   0.558   2.204   7.011  0.8590 -1.3190 -1.6997
  187SAPI  H18S21517   0.444   2.088   6.979 -2.6507 -0.2450  0.4896
  187SAPI  C21921518   0.355   2.224   7.110 -0.1130 -0.8002  0.7371
  187SAPI  H19R21519   0.365   2.330   7.142  0.1530 -0.6229  0.0857
  187SAPI  H19S21520   0.390   2.169   7.200  0.7352  0.0614  0.9488
  187SAPI  C22021521   0.210   2.193   7.077  0.1527  0.1412  0.0002
  187SAPI  H20R21522   0.173   2.262   6.998  1.7069  0.4612 -0.4850
  187SAPI  H20S21523   0.137   2.210   7.159 -0.2174 -0.3692 -0.2248
  187SAPI  H20T21524   0.206   2.087   7.047  0.6447 -0.0635  0.6362
  187SAPI   C3321525   0.879   2.246   6.284 -0.3640 -0.6309  0.1661
  187SAPI   H3X21526   0.800   2.323   6.269  0.2248 -0.2315 -1.0261
  187SAPI   H3Y21527   0.964   2.301   6.330 -1.2432  2.4894 -1.6512
  187SAPI   C3421528   0.838   2.136   6.371  0.0382 -0.3497  0.3432
  187SAPI   H4X21529   0.918   2.060   6.359  0.0076 -0.3950  0.4261
  187SAPI   H4Y21530   0.735   2.104   6.343 -0.1672  1.5895 -1.3763
  187SAPI   C3521531   0.834   2.169   6.526 -0.1983 -0.2243  0.4762
  187SAPI   H5X21532   0.798   2.273   6.539 -1.4260 -0.7723  1.7008
  187SAPI   H5Y21533   0.935   2.157   6.570  0.1143 -1.7567 -0.5690
  187SAPI   C3621534   0.733   2.077   6.601  0.2216  0.1314 -0.4707
  187SAPI   H6X21535   0.761   1.972   6.580 -2.7079 -1.0137  0.8483
  187SAPI   H6Y21536   0.626   2.091   6.573 -0.2601 -3.0258 -0.5116
  187SAPI   C3721537   0.744   2.082   6.756  0.4041  0.1849 -0.7268
  187SAPI   H7X21538   0.658   2.031   6.806  1.2331  1.9483  2.7973
  187SAPI   H7Y21539   0.752   2.188   6.790 -1.2584 -0.2778  1.3317
  187SAPI   C3821540   0.875   2.005   6.804 -0.6325 -0.3767 -0.5427
  187SAPI   H8X21541   0.959   2.043   6.742 -1.0468  0.2801 -0.7038
  187SAPI   H8Y21542   0.859   1.897   6.784 -1.4943 -0.4142  0.2602
  187SAPI   C3921543   0.913   2.038   6.949  0.6469 -0.7155 -0.2707
  187SAPI   H9X21544   0.934   2.147   6.956  0.2553 -0.5512 -1.3970
  187SAPI   H9Y21545   1.003   1.985   6.987  0.5757 -0.5110  0.1847
  187SAPI  C31021546   0.795   2.002   7.045 -0.1788  0.4973  0.2984
  187SAPI  H10X21547   0.757   1.901   7.017 -0.2951  0.1039  1.8026
  187SAPI  H10Y21548   0.705   2.059   7.016 -0.4016 -0.4165 -0.9042
  187SAPI  C31121549   0.817   2.018   7.197 -0.5791 -0.4217 -0.4817
  187SAPI  H11X21550   0.840   2.125   7.215  0.6837 -0.6544 -0.6620
  187SAPI  H11Y21551   0.910   1.962   7.220 -0.5852  0.1948  1.1571
  187SAPI  C31221552   0.694   1.969   7.269 -0.6366 -0.3589  0.3179
  187SAPI  H12X21553   0.668   1.866   7.239 -0.8288  0.1256 -1.2716
  187SAPI  H12Y21554   0.614   2.039   7.236  1.3428  2.7130  1.4947
  187SAPI  C31321555   0.718   1.985   7.420 -0.0218 -0.4540  0.0038
  187SAPI  H13X21556   0.761   2.084   7.447  4.7893 -1.5455 -2.6099
  187SAPI  H13Y21557   0.790   1.917   7.471  0.5363  1.2333  1.5837
  187SAPI  C31421558   0.584   1.986   7.502 -0.0775  0.1756 -0.6317
  187SAPI  H14X21559   0.528   1.890   7.499 -0.1269  0.1847 -0.0998
  187SAPI  H14Y21560   0.513   2.070   7.484 -0.2305  0.7792  2.2150
  187SAPI  C31521561   0.619   2.005   7.654 -0.7856  0.0172 -0.2948
  187SAPI  H15X21562   0.712   2.065   7.665  0.9563 -2.8486  1.6474
  187SAPI  H15Y21563   0.640   1.904   7.695 -4.1669 -0.4534  0.5952
  187SAPI  C31621564   0.508   2.068   7.736  0.1558 -0.5233 -0.3436
  187SAPI  H16X21565   0.417   2.005   7.747 -0.6491  0.9065  1.8834
  187SAPI  H16Y21566   0.478   2.160   7.681 -0.5789  0.6790  1.9209
  187SAPI  C31721567   0.558   2.110   7.876 -0.3569 -0.3634  0.2486
  187SAPI  H17X21568   0.466   2.152   7.924 -0.0034  0.8763 -0.1278
  187SAPI  H17Y21569   0.635   2.189   7.872 -1.0506  0.4022  1.2599
  187SAPI  C31821570   0.606   1.993   7.963 -0.6015  0.6972 -0.3006
  187SAPI  H18X21571   0.541   1.905   7.941 -0.2511  0.4022 -0.1640
  187SAPI  H18Y21572   0.604   2.023   8.070  2.1122  0.5140 -0.1397
  187SAPI  H18Z21573   0.710   1.973   7.929 -1.2943 -1.6631 -1.2507
  188SAPI   C1221574   0.742   5.279   5.577  0.2603  0.0511 -0.2663
  188SAPI    H221575   0.824   5.267   5.651  0.9626 -0.7437 -1.1374
  188SAPI    O221576   0.755   5.193   5.471 -0.0844 -0.2407  0.0169
  188SAPI   HO221577   0.811   5.226   5.401 -0.5344 -0.0738 -0.2699
  188SAPI   C1321578   0.608   5.253   5.656 -1.0684 -0.4748 -0.1808
  188SAPI    H321579   0.609   5.313   5.750  2.4981 -0.0151 -0.3841
  188SAPI    O321580   0.597   5.118   5.693  0.5082  0.4267  0.0020
  188SAPI   HO321581   0.579   5.057   5.621  2.1243  0.0692 -0.1321
  188SAPI   C1421582   0.491   5.285   5.565 -0.0821 -0.3587  0.4047
  188SAPI    H421583   0.488   5.214   5.480 -2.5022  0.2037 -0.0570
  188SAPI    O421584   0.364   5.273   5.631 -0.7512 -0.0238  0.0596
  188SAPI   HO421585   0.296   5.250   5.567 -0.8183  1.6617 -0.5395
  188SAPI   C1521586   0.505   5.425   5.510  0.1209 -0.2748  0.3109
  188SAPI    H521587   0.505   5.497   5.594  1.0221 -0.8996  0.8721
  188SAPI    O521588   0.387   5.459   5.428  0.2270 -0.0698 -0.0628
  188SAPI   HO521589   0.396   5.554   5.421  3.1832 -0.1001  1.7270
  188SAPI   C1621590   0.634   5.448   5.436  0.0073  0.1395  0.0703
  188SAPI    H621591   0.643   5.374   5.354 -2.3631 -1.5298  1.1943
  188SAPI    O621592   0.646   5.578   5.379  0.5109  0.5615 -0.4730
  188SAPI   HO621593   0.643   5.640   5.452  0.6149  1.1668 -0.9800
  188SAPI   C1121594   0.743   5.421   5.535  0.5303  0.3248  0.7790
  188SAPI    H121595   0.744   5.477   5.631  3.6737  0.6664  0.6614
  188SAPI     P21596   0.983   5.520   5.552 -0.1226 -0.0039  0.1473
  188SAPI   O1321597   0.932   5.637   5.625  0.0265  0.1817 -0.5111
  188SAPI   O1421598   1.100   5.545   5.464  0.3880  0.0599  0.2440
  188SAPI   O1221599   0.864   5.441   5.469 -0.2224 -0.0666 -0.2096
  188SAPI   O1121600   1.031   5.416   5.657 -0.0872  0.3300  0.0790
  188SAPI    C121601   1.064   5.444   5.792 -0.4167  0.7815  0.0499
  188SAPI    HA21602   1.137   5.368   5.826 -2.0343 -0.2493  1.4003
  188SAPI    HB21603   1.130   5.533   5.792  2.6830 -1.3664  0.6198
  188SAPI    C221604   0.949   5.482   5.888  0.7704 -0.7711  0.1176
  188SAPI    HS21605   0.864   5.520   5.827  0.8005  0.0828  0.6001
  188SAPI   O2121606   0.995   5.588   5.975  0.3156  0.3184 -0.6435
  188SAPI   C2121607   0.909   5.617   6.065  0.1850 -0.4160 -0.6369
  188SAPI   O2221608   0.793   5.580   6.068 -0.3514  0.5181  0.0692
  188SAPI   C2221609   0.966   5.717   6.171  0.1656  0.2431 -0.4462
  188SAPI   H2R21610   1.074   5.742   6.162  0.6660 -1.0430  1.3973
  188SAPI   H2S21611   0.909   5.811   6.151 -0.3114 -0.0584 -0.5099
  188SAPI    C321612   0.912   5.349   5.962  0.3127  0.4984  0.8914
  188SAPI    HX21613   0.917   5.264   5.890 -1.4331  1.6525 -0.6979
  188SAPI    HY21614   0.804   5.357   5.987 -0.2075  0.1491 -1.0468
  188SAPI   O3121615   0.995   5.326   6.074  0.5260 -0.1555 -0.3060
  188SAPI   C3121616   0.966   5.214   6.144 -0.4722 -0.2827  0.4125
  188SAPI   O3221617   0.867   5.149   6.136 -0.1972  0.5708 -0.2618
  188SAPI   C3221618   1.081   5.185   6.240 -0.2644  0.4317  0.1336
  188SAPI   H2X21619   1.131   5.281   6.265 -1.1292  1.0542 -0.4435
  188SAPI   H2Y21620   1.151   5.122   6.181  0.2775 -0.3819  1.6134
  188SAPI   C2321621   0.940   5.655   6.311 -0.6434  0.5963  0.1713
  188SAPI   H3R21622   1.018   5.688   6.383  0.7746 -2.1082  0.0241
  188SAPI   H3S21623   0.950   5.544   6.311  1.1503  0.7152  0.7790
  188SAPI   C2421624   0.802   5.704   6.360 -0.8718  0.0782  0.3067
  188SAPI   H4R21625   0.717   5.670   6.297 -0.0695  2.7738 -2.4456
  188SAPI   H4S21626   0.796   5.815   6.370 -0.2205  0.0674  0.8710
  188SAPI   C2521627   0.795   5.646   6.502 -0.2657  0.2240  0.0090
  188SAPI   H5R21628   0.875   5.676   6.572  0.7606 -1.8119 -0.1947
  188SAPI   C2621629   0.693   5.570   6.546 -0.3921  0.4805  0.1255
  188SAPI   H6R21630   0.703   5.525   6.646 -1.5279 -1.5431 -0.6210
  188SAPI   C2721631   0.572   5.526   6.474  0.2392 -0.1081  0.3254
  188SAPI   H7R21632   0.530   5.603   6.405 -1.3148 -0.9025  0.3401
  188SAPI   H7S21633   0.492   5.513   6.550  1.3954 -0.5938  1.4999
  188SAPI   C2821634   0.582   5.390   6.406 -0.0606  0.2371  0.9644
  188SAPI   H8R21635   0.655   5.382   6.324  1.4177 -0.8901  2.3243
  188SAPI   C2921636   0.512   5.278   6.424 -0.4092  0.2702  0.2936
  188SAPI   H9R21637   0.535   5.187   6.367  0.6629 -0.9670  2.5753
  188SAPI  C21021638   0.400   5.257   6.528 -0.5473 -0.1030 -0.3453
  188SAPI  H10R21639   0.312   5.227   6.466  0.5383 -1.5973 -1.2205
  188SAPI  H10S21640   0.377   5.354   6.577  0.0143  0.7960 -1.7924
  188SAPI  C21121641   0.429   5.158   6.638  0.3514  0.3666 -1.3583
  188SAPI  H11R21642   0.535   5.159   6.670  0.2659 -0.5138 -1.0284
  188SAPI  C21221643   0.343   5.066   6.695 -0.0091  0.6516 -0.5580
  188SAPI  H12R21644   0.376   4.999   6.776  0.9045  0.8316 -0.7790
  188SAPI  C21321645   0.201   5.065   6.658 -0.4411  0.8969 -0.6629
  188SAPI  H13R21646   0.195   5.053   6.547  1.5389 -1.2625 -0.6030
  188SAPI  H13S21647   0.152   5.164   6.676 -0.5083  0.9330 -1.0367
  188SAPI  C21421648   0.125   4.950   6.722 -0.7270  0.1586  0.2572
  188SAPI  H14R21649   0.134   4.855   6.667  1.3789 -0.3061  1.2786
  188SAPI  C21521650   0.034   4.947   6.822 -0.1413  0.6824  0.0847
  188SAPI  H15R21651  -0.017   4.852   6.843  1.0463  0.1799  0.7751
  188SAPI  C21621652  -0.007   5.069   6.905 -0.5514  0.6475  0.3616
  188SAPI  H16R21653  -0.117   5.077   6.898 -1.0070 -2.3537  2.4333
  188SAPI  H16S21654   0.034   5.162   6.858  3.1102 -0.9968 -0.0896
  188SAPI  C21721655   0.031   5.052   7.054 -0.1540  0.4141 -0.3778
  188SAPI  H17R21656   0.031   5.156   7.093  0.6802  1.3273 -2.6138
  188SAPI  H17S21657   0.130   5.008   7.082 -0.8913 -0.3190  1.1702
  188SAPI  C21821658  -0.074   4.959   7.123 -0.7222 -0.2735 -0.6851
  188SAPI  H18R21659  -0.046   4.860   7.080 -0.2557 -0.6606  0.4589
  188SAPI  H18S21660  -0.172   4.990   7.082 -0.7737  1.0737  0.3855
  188SAPI  C21921661  -0.083   4.947   7.275  0.2514  0.7760  0.4384
  188SAPI  H19R21662  -0.118   5.044   7.314  0.8048  1.7394 -1.3392
  188SAPI  H19S21663   0.020   4.942   7.316  0.4379 -2.3277 -0.1175
  188SAPI  C22021664  -0.161   4.822   7.331  0.1415 -0.1345 -0.3524
  188SAPI  H20R21665  -0.129   4.810   7.437  0.8349 -0.6301 -0.6089
  188SAPI  H20S21666  -0.131   4.732   7.274  2.2809  0.7573 -0.7187
  188SAPI  H20T21667  -0.269   4.845   7.326 -0.2598 -2.0395 -1.6902
  188SAPI   C3321668   1.037   5.113   6.372  0.0938 -0.3088  0.0168
  188SAPI   H3X21669   1.133   5.096   6.425 -0.7146 -1.1621  1.2587
  188SAPI   H3Y21670   0.975   5.021   6.362  0.6055 -0.6529  0.0272
  188SAPI   C3421671   0.948   5.213   6.453  0.3322 -0.3809  0.1786
  188SAPI   H4X21672   0.840   5.201   6.430  0.2556  0.3798  0.0989
  188SAPI   H4Y21673   0.969   5.320   6.433 -1.9731  0.1149  0.0858
  188SAPI   C3521674   0.973   5.202   6.602  0.5575  0.4436 -0.5597
  188SAPI   H5X21675   1.074   5.244   6.623  1.1043 -0.4420 -1.3672
  188SAPI   H5Y21676   0.987   5.094   6.625 -1.6482  0.1199 -0.5878
  188SAPI   C3621677   0.877   5.286   6.693  0.3031  0.3624  0.9832
  188SAPI   H6X21678   0.786   5.223   6.688  1.0188 -0.6039 -0.6457
  188SAPI   H6Y21679   0.855   5.377   6.634  1.0117 -0.6175 -0.8780
  188SAPI   C3721680   0.908   5.308   6.845  0.2462  0.0857  0.2970
  188SAPI   H7X21681   0.941   5.216   6.897  0.0065 -0.5103 -0.5872
  188SAPI   H7Y21682   0.805   5.320   6.885 -0.4272 -0.9583 -1.0368
  188SAPI   C3821683   1.000   5.425   6.887  0.0544  0.4712  0.3980
  188SAPI   H8X21684   0.946   5.522   6.881  0.4567  0.7471  1.0847
  188SAPI   H8Y21685   1.082   5.437   6.813  1.0171  0.3951  1.4272
  188SAPI   C3921686   1.063   5.411   7.019 -0.2805 -0.1626 -0.3627
  188SAPI   H9X21687   1.117   5.507   7.028 -1.6958  0.8093 -1.7815
  188SAPI   H9Y21688   1.132   5.324   7.026  0.3991  0.0857 -2.9065
  188SAPI  C31021689   0.958   5.399   7.132 -0.4629 -0.2452  0.1313
  188SAPI  H10X21690   0.925   5.293   7.135  0.2540 -0.4587  2.2509
  188SAPI  H10Y21691   0.873   5.467   7.112  1.5409  2.2271 -0.5069
  188SAPI  C31121692   1.011   5.429   7.271  0.2771  0.4340  0.0020
  188SAPI  H11X21693   1.083   5.514   7.273 -1.4863  1.9794  0.6933
  188SAPI  H11Y21694   1.065   5.338   7.306 -0.1323  1.2559  3.1432
  188SAPI  C31221695   0.899   5.467   7.372 -0.0316 -0.9581 -0.5554
  188SAPI  H12X21696   0.837   5.376   7.386 -0.6024 -0.4652  0.1801
  188SAPI  H12Y21697   0.837   5.549   7.331  0.0062 -1.1133 -0.9273
  188SAPI  C31321698   0.952   5.505   7.512  0.3956  0.4859  0.2634
  188SAPI  H13X21699   1.050   5.457   7.531  0.7585  1.9819  2.5355
  188SAPI  H13Y21700   0.879   5.464   7.584 -0.3153  2.7491  0.8995
  188SAPI  C31421701   0.956   5.654   7.539  0.4585 -0.4954 -0.0347
  188SAPI  H14X21702   0.856   5.690   7.571  0.7705 -1.0403  1.6726
  188SAPI  H14Y21703   1.000   5.714   7.456  0.5645 -2.0065 -1.0976
  188SAPI  C31521704   1.044   5.694   7.660  0.5474  0.9810  0.4081
  188SAPI  H15X21705   1.146   5.660   7.632 -0.9291 -1.2470 -2.7650
  188SAPI  H15Y21706   1.001   5.637   7.745  1.3192  1.7546  1.3547
  188SAPI  C31621707   1.059   5.843   7.682  0.2681 -0.6504  0.6867
  188SAPI  H16X21708   0.957   5.885   7.685 -0.0042 -1.1775 -0.4913
  188SAPI  H16Y21709   1.118   5.887   7.598  0.1058 -1.7159 -0.0175
  188SAPI  C31721710   1.135   5.881   7.807 -0.3505 -0.0958  0.4673
  188SAPI  H17X21711   1.090   5.846   7.903 -2.1349 -3.0162 -1.2677
  188SAPI  H17Y21712   1.135   5.992   7.808 -0.5438 -0.0606 -1.1097
  188SAPI  C31821713   1.284   5.820   7.808 -0.4969  0.1370  0.0187
  188SAPI  H18X21714   1.277   5.711   7.829 -1.1713  0.0855 -0.4692
  188SAPI  H18Y21715   1.336   5.873   7.890 -1.0727 -1.7562  1.6871
  188SAPI  H18Z21716   1.339   5.845   7.714 -0.0165  1.7597  0.6984
  189POPC     N21717   4.168   6.500   9.836 -0.3236  0.1279 -0.5725
  189POPC   C1221718   4.137   6.369   9.780  0.0524 -0.3144  0.5198
  189POPC  H12A21719   4.088   6.302   9.848  0.2472 -3.1580 -1.9468
  189POPC  H12B21720   4.225   6.313   9.751 -0.0133  0.7547 -2.0043
  189POPC   C1321721   4.206   6.603   9.734  0.2982  0.3123  0.4961
  189POPC  H13A21722   4.217   6.701   9.777  0.3501  0.4642  0.1380
  189POPC  H13B21723   4.292   6.583   9.672 -0.3483  1.9642 -0.9877
  189POPC  H13C21724   4.124   6.615   9.666  0.9231 -1.0964 -0.5681
  189POPC   C1421725   4.047   6.545   9.914 -0.4099  0.2159  0.1114
  189POPC  H14A21726   3.967   6.546   9.842 -0.0785 -1.6367 -0.3119
  189POPC  H14B21727   4.032   6.480   9.999  0.9485  0.1314  0.3065
  189POPC  H14C21728   4.052   6.648   9.948 -3.2161  0.6961 -0.6439
  189POPC   C1521729   4.286   6.487   9.927  0.1877  0.3074 -0.6573
  189POPC  H15A21730   4.380   6.451   9.889  1.0335  0.3253  1.3031
  189POPC  H15B21731   4.253   6.407   9.992 -2.6968  1.7610 -0.1745
  189POPC  H15C21732   4.302   6.576   9.987  0.0200 -0.6090  0.7944
  189POPC   C1121733   4.053   6.375   9.649 -0.6176 -0.5007  0.3995
  189POPC  H11A21734   4.051   6.271   9.610  1.2617 -0.5090  0.2528
  189POPC  H11B21735   4.108   6.429   9.569 -0.4171  1.2904  1.6786
  189POPC     P21736   3.865   6.537   9.564 -0.3154 -0.3139 -0.1343
  189POPC   O1321737   3.953   6.654   9.581 -0.3284  0.1151 -0.1137
  189POPC   O1421738   3.723   6.562   9.602 -0.3005  0.7357 -0.2791
  189POPC   O1221739   3.919   6.422   9.663 -0.3971  0.3267  0.4942
  189POPC   O1121740   3.871   6.482   9.418  0.3271 -0.3333  0.3855
  189POPC    C121741   3.871   6.349   9.366 -0.0775  0.5975 -0.4071
  189POPC    HA21742   3.849   6.273   9.443  2.4008  0.1554 -0.0647
  189POPC    HB21743   3.977   6.327   9.341 -0.1584 -0.6034  0.2574
  189POPC    C221744   3.779   6.317   9.244  0.3448  0.3081 -0.3824
  189POPC    HS21745   3.816   6.221   9.201  0.0881  0.1733 -0.3069
  189POPC   O2121746   3.797   6.431   9.157  0.3946 -0.1807  0.1987
  189POPC   C2121747   3.787   6.405   9.032 -0.3068  0.5110  0.3332
  189POPC   O2221748   3.770   6.296   8.984 -0.1823  0.2972 -0.4224
  189POPC   C2221749   3.809   6.532   8.949  0.3048 -0.5139 -0.3071
  189POPC   H2R21750   3.905   6.585   8.969 -0.2148  0.4010 -0.1944
  189POPC   H2S21751   3.738   6.608   8.988  1.3517  0.4556 -0.2449
  189POPC    C321752   3.632   6.307   9.272  0.4968 -0.0426 -0.1413
  189POPC    HX21753   3.599   6.409   9.303 -0.3669 -0.6125  0.8858
  189POPC    HY21754   3.617   6.245   9.363 -1.4109  0.7683  0.1625
  189POPC   O3121755   3.564   6.257   9.152  0.2463 -0.5671 -0.0380
  189POPC   C3121756   3.567   6.128   9.129 -0.2550  0.4209 -0.2429
  189POPC   O3221757   3.638   6.044   9.187  0.2528 -0.2366 -0.5087
  189POPC   C3221758   3.476   6.087   9.015 -0.5171  0.1167  0.8900
  189POPC   H2X21759   3.404   6.171   9.012 -0.5578  0.0644  0.1123
  189POPC   H2Y21760   3.449   5.984   9.049 -0.6143 -0.2162 -0.1647
  189POPC   C2321761   3.806   6.499   8.801  0.3488 -0.3417  0.1380
  189POPC   H3R21762   3.723   6.429   8.779 -0.8491  0.6487  1.2934
  189POPC   H3S21763   3.891   6.435   8.770 -0.3775 -0.7327 -1.1132
  189POPC   C2421764   3.803   6.626   8.715 -0.2575 -0.5269  0.0871
  189POPC   H4R21765   3.900   6.667   8.751  2.2022 -2.2893 -3.7947
  189POPC   H4S21766   3.720   6.690   8.753 -2.7045 -3.4931  0.1460
  189POPC   C2521767   3.784   6.600   8.567  0.4798 -0.5107  0.4487
  189POPC   H5R21768   3.696   6.533   8.567  1.0895 -1.3341  0.6148
  189POPC   H5S21769   3.865   6.535   8.526 -0.8070 -2.4563  0.8431
  189POPC   C2621770   3.771   6.727   8.485 -0.1559  0.0061 -0.6461
  189POPC   H6R21771   3.856   6.796   8.501 -0.3420 -0.2840  2.2015
  189POPC   H6S21772   3.673   6.773   8.512  0.3761  0.7060  0.1391
  189POPC   C2721773   3.772   6.682   8.338 -0.0500 -0.1564 -0.4230
  189POPC   H7R21774   3.673   6.631   8.327 -0.9479  0.5251  3.1283
  189POPC   H7S21775   3.865   6.624   8.320  0.8642  1.0002  0.4285
  189POPC   C2821776   3.779   6.808   8.242 -0.3136 -0.4722 -0.0044
  189POPC   H8R21777   3.825   6.781   8.145 -1.2847  1.7619 -1.1661
  189POPC   H8S21778   3.841   6.888   8.287  2.4071 -2.0630 -0.7428
  189POPC   C2921779   3.643   6.864   8.207  0.2596  0.0917  0.3685
  189POPC   H9121780   3.573   6.884   8.290  0.8033 -0.1686  0.9036
  189POPC  C21021781   3.592   6.903   8.089 -0.1513 -0.1400  0.9531
  189POPC  H10121782   3.497   6.958   8.082 -0.3384 -0.6388 -1.4681
  189POPC  C21121783   3.681   6.903   7.957 -0.4532  0.5870  0.0407
  189POPC  H11R21784   3.624   6.842   7.885  0.1791  1.4721 -1.2567
  189POPC  H11S21785   3.779   6.851   7.963 -0.4570  0.2729 -2.0608
  189POPC  C21221786   3.699   7.043   7.886  0.1814  0.0131 -0.1756
  189POPC  H12R21787   3.773   7.029   7.804  1.4673 -1.3667  1.1529
  189POPC  H12S21788   3.745   7.121   7.950 -1.6137  1.1887 -0.2578
  189POPC  C21321789   3.569   7.111   7.830 -0.0723 -0.3968  0.0738
  189POPC  H13R21790   3.487   7.090   7.901  2.0007  1.1792  3.1403
  189POPC  H13S21791   3.529   7.057   7.741  0.2687 -1.2152  0.4069
  189POPC  C21421792   3.592   7.259   7.799 -0.6857  0.4674  0.0052
  189POPC  H14R21793   3.687   7.267   7.742 -2.0568 -0.0087 -2.4515
  189POPC  H14S21794   3.614   7.312   7.895 -1.6137 -1.6934  1.5103
  189POPC  C21521795   3.478   7.330   7.737  0.3686 -0.2517 -0.0556
  189POPC  H15R21796   3.383   7.291   7.780 -1.3976  4.6576  1.2189
  189POPC  H15S21797   3.473   7.302   7.630 -3.4324 -1.4521  0.3035
  189POPC  C21621798   3.488   7.485   7.739  0.4461 -0.1474 -0.2994
  189POPC  H16R21799   3.488   7.501   7.849  2.0175 -0.8257 -0.1637
  189POPC  H16S21800   3.393   7.532   7.708  1.6404  0.4487 -3.4059
  189POPC  C21721801   3.609   7.555   7.681  0.9171  0.2655 -0.2066
  189POPC  H17R21802   3.596   7.570   7.572 -0.0146  0.2290 -0.1126
  189POPC  H17S21803   3.704   7.503   7.707 -0.5333 -1.0132  3.2792
  189POPC  C21821804   3.622   7.694   7.741  0.0603  1.4526  0.8077
  189POPC  H18R21805   3.525   7.748   7.731 -0.5314  0.2556 -0.3585
  189POPC  H18S21806   3.694   7.747   7.675 -0.0320 -2.3427 -2.7277
  189POPC  H18T21807   3.653   7.702   7.847  0.5098 -0.9417  0.9228
  189POPC   C3321808   3.560   6.082   8.879 -0.0798 -0.5784  0.0961
  189POPC   H3X21809   3.663   6.049   8.905  0.7086  1.2928 -0.4856
  189POPC   H3Y21810   3.566   6.186   8.840  0.3183  0.1597  2.0402
  189POPC   C3421811   3.493   5.998   8.772  0.3301  0.2870  0.8706
  189POPC   H4X21812   3.386   6.022   8.752  0.3635 -0.8616 -0.9124
  189POPC   H4Y21813   3.499   5.893   8.809  1.2889 -0.2449 -0.7100
  189POPC   C3521814   3.579   5.991   8.644  0.5750 -0.2652 -0.1306
  189POPC   H5X21815   3.684   5.959   8.661  1.0289  0.1211 -2.0636
  189POPC   H5Y21816   3.582   6.096   8.608 -0.7003 -0.1491  0.0604
  189POPC   C3621817   3.516   5.908   8.531  0.3384  0.1746 -0.3937
  189POPC   H6X21818   3.405   5.918   8.526  0.1397 -1.8689 -1.0993
  189POPC   H6Y21819   3.542   5.802   8.551  0.0063 -0.3184 -2.3498
  189POPC   C3721820   3.562   5.955   8.394  0.1905 -0.3548  0.3047
  189POPC   H7X21821   3.670   5.961   8.421  0.0574  1.2794  0.5738
  189POPC   H7Y21822   3.525   6.059   8.384 -0.0343 -0.3275  1.2757
  189POPC   C3821823   3.529   5.867   8.288  0.2929  0.2856  0.6649
  189POPC   H8X21824   3.425   5.833   8.307 -0.3701  1.3388 -0.8376
  189POPC   H8Y21825   3.602   5.786   8.271 -1.6545 -1.0028 -2.5810
  189POPC   C3921826   3.516   5.939   8.156 -0.5201 -0.7515  0.3398
  189POPC   H9X21827   3.612   5.983   8.122  0.0925 -0.3072  2.4768
  189POPC   H9Y21828   3.451   6.029   8.170  1.3235  0.5541  0.8598
  189POPC  C31021829   3.450   5.853   8.044 -0.3432  0.3527  0.3550
  189POPC  H10X21830   3.439   5.920   7.957  1.5784  0.3977  0.0990
  189POPC  H10Y21831   3.354   5.804   8.070 -0.0424 -1.4476 -1.7103
  189POPC  C31121832   3.544   5.741   7.991  0.5492 -0.2624  0.4371
  189POPC  H11X21833   3.560   5.676   8.080  0.8176 -1.3737 -0.4074
  189POPC  H11Y21834   3.642   5.765   7.945 -0.0387 -0.7003 -1.0771
  189POPC  C31221835   3.481   5.650   7.891  0.4841  0.6055 -0.4952
  189POPC  H12X21836   3.455   5.697   7.793  0.4849 -0.0609 -0.8227
  189POPC  H12Y21837   3.394   5.600   7.937  1.6750 -0.3722  0.7600
  189POPC  C31321838   3.573   5.542   7.833  0.4059  0.3621  0.8096
  189POPC  H13X21839   3.614   5.485   7.920  0.2381  0.2116  0.7888
  189POPC  H13Y21840   3.650   5.599   7.777  0.1889  0.7698  0.9263
  189POPC  C31421841   3.502   5.454   7.730 -0.7733  0.6931  0.1381
  189POPC  H14X21842   3.461   5.503   7.639  2.5404 -1.1695 -2.6082
  189POPC  H14Y21843   3.421   5.397   7.781  0.4917 -0.1301  1.3241
  189POPC  C31521844   3.595   5.349   7.673  0.1364  0.1881  0.9999
  189POPC  H15X21845   3.652   5.287   7.746  0.1561  0.5247  1.2740
  189POPC  H15Y21846   3.663   5.407   7.607 -0.4135  0.9070  1.0545
  189POPC  C31621847   3.530   5.252   7.582  0.0665 -0.5108  0.3682
  189POPC  H16X21848   3.465   5.181   7.637  1.2939 -1.8774  0.1105
  189POPC  H16Y21849   3.611   5.196   7.530  0.5032  1.6180 -1.4055
  189POPC  H16Z21850   3.472   5.306   7.505  0.6825 -0.6396 -0.2005
  190POPC     N21851   6.479   2.298   9.691 -0.1772  0.0510  0.1843
  190POPC   C1221852   6.471   2.438   9.645  0.2033 -0.2373 -0.7585
  190POPC  H12A21853   6.562   2.467   9.593 -0.9859  2.2504 -1.6248
  190POPC  H12B21854   6.485   2.497   9.734  0.7090 -1.6847  0.1506
  190POPC   C1321855   6.340   2.243   9.725 -0.3134  0.0014  0.1831
  190POPC  H13A21856   6.305   2.293   9.815 -0.0886 -0.6262  0.6274
  190POPC  H13B21857   6.271   2.260   9.644  0.6583  1.1732 -0.4467
  190POPC  H13C21858   6.339   2.137   9.748 -0.3737 -0.4065 -1.5657
  190POPC   C1421859   6.528   2.209   9.583 -1.3792 -0.1091  0.1773
  190POPC  H14A21860   6.472   2.236   9.494  1.0938  0.9989 -1.1527
  190POPC  H14B21861   6.634   2.220   9.563 -1.3548 -1.8933 -0.9436
  190POPC  H14C21862   6.523   2.106   9.616  1.8911  0.3617  2.5918
  190POPC   C1521863   6.577   2.280   9.810  0.8797  0.0118 -0.1606
  190POPC  H15A21864   6.537   2.324   9.900  2.7590  0.0206  0.7103
  190POPC  H15B21865   6.674   2.327   9.802  1.5247 -0.9780  1.4294
  190POPC  H15C21866   6.599   2.175   9.814 -1.0903 -0.4315  0.0721
  190POPC   C1121867   6.354   2.482   9.556  0.6619 -0.7034  0.0153
  190POPC  H11A21868   6.258   2.480   9.612 -0.1252  0.8768 -1.1907
  190POPC  H11B21869   6.337   2.429   9.460  2.1740  0.9992 -1.2697
  190POPC     P21870   6.499   2.646   9.419 -0.2171  0.1829  0.1755
  190POPC   O1321871   6.631   2.612   9.475  0.2298  0.2253  0.1396
  190POPC   O1421872   6.485   2.789   9.381 -0.1615  0.1688 -0.5547
  190POPC   O1221873   6.398   2.615   9.532  0.1561  0.3209 -0.5854
  190POPC   O1121874   6.462   2.554   9.293  0.3254  0.2761 -0.2269
  190POPC    C121875   6.340   2.562   9.226 -0.2537  0.1454 -0.1154
  190POPC    HA21876   6.266   2.621   9.285 -2.1035 -0.7100 -1.4855
  190POPC    HB21877   6.312   2.455   9.219  2.2627 -0.6221  0.5461
  190POPC    C221878   6.363   2.628   9.084 -0.0755  0.8632 -0.3242
  190POPC    HS21879   6.267   2.649   9.032 -0.3450  0.6626  0.0949
  190POPC   O2121880   6.440   2.533   9.005  0.3201  0.3684 -0.0416
  190POPC   C2121881   6.366   2.437   8.949  0.2333 -0.5554 -0.2075
  190POPC   O2221882   6.249   2.406   8.972 -0.1599  0.5817 -0.3370
  190POPC   C2221883   6.455   2.364   8.848 -0.2250 -0.0831 -0.0087
  190POPC   H2R21884   6.408   2.265   8.836  0.3320 -0.3007 -0.4592
  190POPC   H2S21885   6.557   2.361   8.891 -0.3262 -1.0708  0.1763
  190POPC    C321886   6.435   2.770   9.080 -0.0028  0.0918  0.2389
  190POPC    HX21887   6.540   2.774   9.115  0.0723  0.1535  0.0025
  190POPC    HY21888   6.383   2.833   9.156 -0.3718  0.7799 -0.5784
  190POPC   O3121889   6.434   2.834   8.950  0.2120 -0.5812 -0.5178
  190POPC   C3121890   6.327   2.897   8.915 -0.1964  0.4854 -0.2156
  190POPC   O3221891   6.229   2.933   8.978 -0.6957 -0.7913 -0.1091
  190POPC   C3221892   6.341   2.920   8.770 -0.2521 -0.2941  0.5553
  190POPC   H2X21893   6.324   2.827   8.712  1.2160 -0.1828 -0.1128
  190POPC   H2Y21894   6.448   2.942   8.750 -0.0683 -2.7761 -1.8443
  190POPC   C2321895   6.454   2.419   8.709 -0.5552 -0.4923 -0.3314
  190POPC   H3R21896   6.350   2.420   8.670 -0.1627  1.9151 -1.5316
  190POPC   H3S21897   6.515   2.358   8.640  1.8313  0.6592  0.6226
  190POPC   C2421898   6.510   2.569   8.689 -0.1733  0.2545  0.4267
  190POPC   H4R21899   6.620   2.574   8.697 -0.0413 -2.7361  2.1120
  190POPC   H4S21900   6.467   2.633   8.770  2.3974  1.3168  1.0535
  190POPC   C2521901   6.478   2.611   8.544 -0.3959  0.6258  0.0703
  190POPC   H5R21902   6.516   2.714   8.526  2.6575 -0.5863 -1.0291
  190POPC   H5S21903   6.367   2.621   8.537 -0.6508 -0.4533  1.8217
  190POPC   C2621904   6.546   2.527   8.425  0.4255 -0.1809 -0.3241
  190POPC   H6R21905   6.514   2.566   8.327 -1.0871  1.0841  0.6248
  190POPC   H6S21906   6.513   2.421   8.433  1.3333 -0.5969 -1.8020
  190POPC   C2721907   6.702   2.527   8.433 -0.2395 -0.4630 -0.2920
  190POPC   H7R21908   6.732   2.472   8.525  1.3923  2.4612  1.0740
  190POPC   H7S21909   6.737   2.633   8.438 -0.0865 -0.5708  2.2405
  190POPC   C2821910   6.766   2.469   8.314  0.6967 -0.7265  0.3585
  190POPC   H8R21911   6.876   2.483   8.309  0.5306  0.3999 -0.6846
  190POPC   H8S21912   6.742   2.523   8.220  3.1196  0.5857  0.4194
  190POPC   C2921913   6.736   2.324   8.309  0.1054  0.3628 -0.6089
  190POPC   H9121914   6.758   2.265   8.398  2.2693 -0.5768 -1.6813
  190POPC  C21021915   6.678   2.265   8.203  0.3725 -0.4195  0.3108
  190POPC  H10121916   6.668   2.155   8.209 -0.9670 -0.2588  1.3900
  190POPC  C21121917   6.630   2.326   8.075  0.0051 -0.2415 -0.2509
  190POPC  H11R21918   6.578   2.422   8.096  0.1114 -0.2958  0.2754
  190POPC  H11S21919   6.544   2.266   8.039 -1.5502  2.4073 -1.2606
  190POPC  C21221920   6.729   2.323   7.961 -1.5286  0.4481  0.3432
  190POPC  H12R21921   6.795   2.235   7.977  1.5832  2.4889 -0.3793
  190POPC  H12S21922   6.791   2.415   7.959 -1.1078  0.1599 -0.2611
  190POPC  C21321923   6.666   2.305   7.817  0.7654 -0.0949 -0.6047
  190POPC  H13R21924   6.599   2.217   7.820  2.2540 -1.2432  1.2339
  190POPC  H13S21925   6.745   2.277   7.744  1.6929  1.1262 -0.1063
  190POPC  C21421926   6.594   2.434   7.766 -0.6220  0.5202  0.3966
  190POPC  H14R21927   6.661   2.522   7.783 -0.3659 -0.0672  2.7021
  190POPC  H14S21928   6.512   2.450   7.839 -0.3941  0.5855  0.6417
  190POPC  C21521929   6.538   2.428   7.622  0.2459  0.5596 -0.2218
  190POPC  H15R21930   6.619   2.434   7.546  1.2323  2.7938  0.9053
  190POPC  H15S21931   6.473   2.517   7.606  0.7488  0.9981  0.1550
  190POPC  C21621932   6.461   2.297   7.584  0.2908  0.1712  0.6618
  190POPC  H16R21933   6.376   2.289   7.654 -2.0248  0.7889 -1.9164
  190POPC  H16S21934   6.520   2.203   7.596  0.7060 -0.0957 -2.5198
  190POPC  C21721935   6.406   2.296   7.439 -0.5640  0.1144 -0.6043
  190POPC  H17R21936   6.370   2.196   7.406  0.4492 -0.0136 -1.3645
  190POPC  H17S21937   6.485   2.311   7.363 -1.8249 -0.5322 -2.0843
  190POPC  C21821938   6.291   2.393   7.419 -0.3729  0.2364  0.4116
  190POPC  H18R21939   6.327   2.490   7.461 -1.1913  1.0483 -0.7071
  190POPC  H18S21940   6.199   2.378   7.479 -2.2627  2.1552 -1.8153
  190POPC  H18T21941   6.264   2.412   7.313 -0.9138 -0.7602  0.3622
  190POPC   C3321942   6.254   3.032   8.714  0.3136  0.0334  0.5944
  190POPC   H3X21943   6.298   3.133   8.727 -0.4257  0.0603  3.5930
  190POPC   H3Y21944   6.155   3.039   8.764  0.2099  1.4213  0.2343
  190POPC   C3421945   6.228   3.020   8.561 -0.0972  0.5182  0.2144
  190POPC   H4X21946   6.140   3.082   8.535  0.0551  0.3437 -0.7427
  190POPC   H4Y21947   6.213   2.916   8.526 -0.3253  0.9890 -1.1309
  190POPC   C3521948   6.359   3.050   8.476  0.4388  0.5058  0.3348
  190POPC   H5X21949   6.428   2.972   8.513  0.0598  0.9124  1.9713
  190POPC   H5Y21950   6.401   3.150   8.499  1.7099  0.0876 -0.0694
  190POPC   C3621951   6.339   3.059   8.327  0.5319  0.3943 -0.1299
  190POPC   H6X21952   6.433   3.064   8.268  1.1936 -1.5631  0.6737
  190POPC   H6Y21953   6.276   3.150   8.318 -2.6610 -1.6003  0.2991
  190POPC   C3721954   6.248   2.947   8.265 -0.1162 -0.4257 -0.3760
  190POPC   H7X21955   6.231   2.985   8.162  0.7965  0.4511 -0.2277
  190POPC   H7Y21956   6.148   2.954   8.312 -0.5865  1.2119 -1.5153
  190POPC   C3821957   6.301   2.808   8.264 -0.2831  0.3263 -0.5121
  190POPC   H8X21958   6.308   2.779   8.371 -1.1879 -0.8126 -0.7367
  190POPC   H8Y21959   6.403   2.826   8.224 -0.9745  1.1308 -1.9919
  190POPC   C3921960   6.222   2.711   8.171  0.1610 -0.4472  0.6295
  190POPC   H9X21961   6.120   2.701   8.213  0.2805 -1.9885  0.6218
  190POPC   H9Y21962   6.277   2.615   8.186  1.2853  0.1121  0.2189
  190POPC  C31021963   6.231   2.742   8.021 -0.4148 -0.3836 -0.6253
  190POPC  H10X21964   6.272   2.648   7.978  0.0031 -1.2158  1.4697
  190POPC  H10Y21965   6.302   2.823   7.995 -0.5267 -0.3744 -0.8995
  190POPC  C31121966   6.090   2.800   7.971 -0.6013 -0.0556  0.0455
  190POPC  H11X21967   6.075   2.894   8.030  0.2542 -1.1059  2.0271
  190POPC  H11Y21968   6.009   2.725   7.986 -1.4639  0.4230 -1.8777
  190POPC  C31221969   6.088   2.829   7.823  0.1479  0.0316 -0.5930
  190POPC  H12X21970   6.106   2.734   7.769 -0.6836 -1.9285  2.3592
  190POPC  H12Y21971   6.165   2.903   7.789  0.8216 -1.1802 -1.8172
  190POPC  C31321972   5.950   2.880   7.777  0.1212 -0.0626  0.3051
  190POPC  H13X21973   5.928   2.976   7.829  1.8769  1.3138 -1.3512
  190POPC  H13Y21974   5.873   2.811   7.818  0.2230 -1.2736 -1.4214
  190POPC  C31421975   5.936   2.899   7.628  0.8574  0.5717 -0.1263
  190POPC  H14X21976   5.943   2.806   7.567  0.7503  0.5300 -0.0751
  190POPC  H14Y21977   6.020   2.961   7.591  1.0860  0.6310  0.4864
  190POPC  C31521978   5.812   2.982   7.596  0.0336 -0.1580  0.2243
  190POPC  H15X21979   5.810   3.075   7.657 -0.5556  1.2603 -1.8273
  190POPC  H15Y21980   5.719   2.923   7.607  0.5700 -1.3332 -1.1934
  190POPC  C31621981   5.823   3.019   7.446  0.3587  0.1664  0.2029
  190POPC  H16X21982   5.719   3.019   7.405  0.3953 -0.2135  0.1067
  190POPC  H16Y21983   5.883   2.945   7.388 -1.7597 -1.3564 -0.1871
  190POPC  H16Z21984   5.857   3.124   7.436 -1.3879  0.7350 -0.1613
  191POPC     N21985   4.102   4.664   5.552  0.1461  0.4465 -0.0952
  191POPC   C1221986   4.002   4.627   5.654 -0.3019 -0.4387 -0.3229
  191POPC  H12A21987   3.930   4.559   5.611  0.4330 -0.1161 -2.1211
  191POPC  H12B21988   3.941   4.714   5.675 -0.0249 -0.8464  2.5571
  191POPC   C1321989   4.161   4.536   5.501  0.7349 -0.7707 -0.5446
  191POPC  H13A21990   4.132   4.508   5.401  0.1475  0.0323 -0.6135
  191POPC  H13B21991   4.269   4.541   5.498  0.6591  1.0099 -1.9330
  191POPC  H13C21992   4.149   4.456   5.572  0.0807 -0.2532 -0.0571
  191POPC   C1421993   4.034   4.729   5.437  0.8608 -0.4369  0.3486
  191POPC  H14A21994   3.996   4.825   5.470  2.3677 -0.3215  1.8701
  191POPC  H14B21995   4.106   4.744   5.358 -1.6460  0.8631 -1.8739
  191POPC  H14C21996   3.959   4.665   5.392  1.0611 -1.0197  0.8250
  191POPC   C1521997   4.208   4.760   5.600  0.9056  0.2345  0.5139
  191POPC  H15A21998   4.259   4.714   5.683 -0.3564 -0.7536  0.7723
  191POPC  H15B21999   4.171   4.855   5.636  0.7654  0.5360 -0.4007
  191POPC  H15C22000   4.285   4.784   5.529  1.5941 -0.9140  0.8465
  191POPC   C1122001   4.042   4.568   5.796 -0.1134  0.7475  0.4289
  191POPC  H11A22002   3.959   4.573   5.870  1.2931 -0.4198  2.1799
  191POPC  H11B22003   4.117   4.641   5.833 -0.0806  0.6461  0.5611
  191POPC     P22004   4.039   4.307   5.747  0.3273 -0.0972  0.2140
  191POPC   O1322005   4.085   4.278   5.612  0.4325  0.4428 -0.1309
  191POPC   O1422006   3.885   4.307   5.765  0.2361  0.7288 -0.3403
  191POPC   O1222007   4.106   4.441   5.784  0.1211  0.5331 -0.0212
  191POPC   O1122008   4.104   4.195   5.841  0.5131 -0.8331  0.5497
  191POPC    C122009   4.240   4.217   5.880 -0.2795  0.1926  0.2191
  191POPC    HA22010   4.259   4.159   5.972 -1.4487  0.9023  0.9192
  191POPC    HB22011   4.263   4.323   5.902  1.7534 -0.2617  0.4857
  191POPC    C222012   4.340   4.148   5.777  0.3980  0.3479  0.1555
  191POPC    HS22013   4.334   4.177   5.670  1.9870 -0.5058 -0.2059
  191POPC   O2122014   4.314   4.000   5.775 -0.0519 -0.7915 -0.2731
  191POPC   C2122015   4.350   3.923   5.674 -0.7661 -0.4874  0.1287
  191POPC   O2222016   4.422   3.954   5.576 -0.1676 -1.1240 -0.6546
  191POPC   C2222017   4.303   3.785   5.693 -0.1831  0.1035 -0.3778
  191POPC   H2R22018   4.330   3.714   5.612 -0.5283  0.5475 -0.8892
  191POPC   H2S22019   4.192   3.797   5.694 -0.4017 -1.5712  0.9650
  191POPC    C322020   4.490   4.180   5.804 -0.3074  0.3477  0.0123
  191POPC    HX22021   4.500   4.286   5.774 -1.5175  0.8753  1.3234
  191POPC    HY22022   4.552   4.133   5.725 -1.7775 -2.0912  0.2067
  191POPC   O3122023   4.533   4.169   5.939  0.2785  0.4989 -0.1494
  191POPC   C3122024   4.619   4.067   5.953  0.0855  0.9853 -0.1132
  191POPC   O3222025   4.660   3.996   5.864  0.2424 -0.2040 -0.0940
  191POPC   C3222026   4.661   4.045   6.095 -1.1885 -0.4822 -0.0224
  191POPC   H2X22027   4.565   4.015   6.141 -0.9945 -0.8695  0.1323
  191POPC   H2Y22028   4.695   4.142   6.139  0.4539  0.0804 -2.3456
  191POPC   C2322029   4.343   3.724   5.832 -0.4996 -0.3789 -0.0073
  191POPC   H3R22030   4.281   3.637   5.859 -1.3341  0.7554  1.9752
  191POPC   H3S22031   4.333   3.799   5.914 -2.7363  0.1836 -0.7249
  191POPC   C2422032   4.488   3.674   5.836 -0.3918  0.6035 -0.1524
  191POPC   H4R22033   4.564   3.755   5.835 -0.9937  1.2272  1.7206
  191POPC   H4S22034   4.504   3.610   5.746  0.3009 -2.1359  1.7956
  191POPC   C2522035   4.514   3.587   5.961  0.0018  0.2891 -0.0395
  191POPC   H5R22036   4.623   3.563   5.959  0.0426  0.3875  0.6403
  191POPC   H5S22037   4.456   3.492   5.961 -2.5578  1.7327  1.4793
  191POPC   C2622038   4.477   3.653   6.096 -0.1634 -0.2363  0.0324
  191POPC   H6R22039   4.371   3.631   6.120 -0.5297  1.9531  0.6631
  191POPC   H6S22040   4.488   3.763   6.082  0.4744 -0.3284 -0.2508
  191POPC   C2722041   4.558   3.600   6.212 -0.0495 -0.1237  0.4016
  191POPC   H7R22042   4.664   3.603   6.179 -0.5723 -3.3801 -2.1596
  191POPC   H7S22043   4.535   3.491   6.215  1.7807 -0.5190  1.2470
  191POPC   C2822044   4.532   3.658   6.344  0.4490  0.6156 -0.0133
  191POPC   H8R22045   4.429   3.624   6.367  1.1008 -2.6753 -1.4481
  191POPC   H8S22046   4.536   3.769   6.337  0.3130  0.8137  2.2976
  191POPC   C2922047   4.642   3.622   6.446 -0.3172  0.2318 -0.4677
  191POPC   H9122048   4.748   3.624   6.419 -0.5748  0.0144 -1.5254
  191POPC  C21022049   4.615   3.589   6.569 -0.5284 -0.8405  0.5759
  191POPC  H10122050   4.701   3.571   6.634  0.1748  0.8815  0.1785
  191POPC  C21122051   4.477   3.581   6.636 -0.1106  0.1918 -0.1926
  191POPC  H11R22052   4.469   3.510   6.721  0.4009  3.0368  2.4066
  191POPC  H11S22053   4.411   3.541   6.556  1.5644 -1.0047 -1.0330
  191POPC  C21222054   4.412   3.715   6.675 -0.0710 -0.3924 -0.5566
  191POPC  H12R22055   4.313   3.685   6.715  0.0789  0.1968  0.3062
  191POPC  H12S22056   4.397   3.782   6.588 -0.4173 -0.9117 -0.8992
  191POPC  C21322057   4.486   3.784   6.785  0.7106  0.1070 -0.8164
  191POPC  H13R22058   4.571   3.847   6.751  0.8508 -0.2429 -1.1132
  191POPC  H13S22059   4.540   3.714   6.853 -2.1755  0.2528  1.8451
  191POPC  C21422060   4.393   3.872   6.874  0.0422  0.3933 -0.3262
  191POPC  H14R22061   4.315   3.803   6.913  0.0837  0.7483  0.4101
  191POPC  H14S22062   4.337   3.947   6.814 -3.6329 -1.4452  0.5310
  191POPC  C21522063   4.457   3.926   7.009 -0.4818  0.2989  0.3803
  191POPC  H15R22064   4.472   3.835   7.071 -0.5599  0.1896  0.2395
  191POPC  H15S22065   4.383   3.996   7.053 -2.2683  0.6491 -2.8294
  191POPC  C21622066   4.594   3.991   6.992  0.3567  0.3413  0.0875
  191POPC  H16R22067   4.591   4.057   6.903  0.3656  1.0584  0.6101
  191POPC  H16S22068   4.681   3.924   6.978  1.3899  1.1829  2.1151
  191POPC  C21722069   4.635   4.077   7.110  0.7236 -0.2700  0.0077
  191POPC  H17R22070   4.628   4.017   7.203  0.7902  0.7735  0.6979
  191POPC  H17S22071   4.563   4.161   7.116  1.5586  0.5493 -0.9643
  191POPC  C21822072   4.770   4.146   7.104  0.3901 -0.3784  0.0634
  191POPC  H18R22073   4.787   4.197   7.201 -0.4359 -1.4322  0.7826
  191POPC  H18S22074   4.786   4.211   7.015  1.2189 -1.8812 -0.9195
  191POPC  H18T22075   4.842   4.062   7.102  0.4951 -0.3232  1.0994
  191POPC   C3322076   4.776   3.942   6.124  0.1799  0.5454 -0.3416
  191POPC   H3X22077   4.869   3.971   6.071  1.3272 -0.8773  0.7716
  191POPC   H3Y22078   4.751   3.848   6.070 -0.5613  0.6376 -0.1702
  191POPC   C3422079   4.808   3.912   6.269  0.4356  0.6105  0.0095
  191POPC   H4X22080   4.880   3.827   6.276  1.8450  1.7899  0.4017
  191POPC   H4Y22081   4.720   3.883   6.329  0.2981 -0.6482 -0.7627
  191POPC   C3522082   4.880   4.030   6.325 -0.4834  0.6731  0.2858
  191POPC   H5X22083   4.805   4.112   6.328 -0.8467  0.3561 -0.0729
  191POPC   H5Y22084   4.961   4.050   6.251  0.5650 -0.8240  0.9854
  191POPC   C3622085   4.965   3.997   6.449 -0.7532 -0.3487 -0.4446
  191POPC   H6X22086   5.004   4.094   6.486 -0.3354 -1.3299  1.8079
  191POPC   H6Y22087   5.046   3.928   6.416  0.9553  2.1341 -1.8301
  191POPC   C3722088   4.879   3.928   6.562 -0.0672  0.3995  0.2076
  191POPC   H7X22089   4.844   3.826   6.537  1.1088 -0.3748  1.5422
  191POPC   H7Y22090   4.800   4.003   6.585 -1.7702 -0.9889 -0.8580
  191POPC   C3822091   4.959   3.898   6.688 -0.4946 -0.8475 -0.0209
  191POPC   H8X22092   5.051   3.840   6.669  0.9367  1.5801 -0.8958
  191POPC   H8Y22093   4.891   3.842   6.756 -1.3849 -0.6592 -0.7298
  191POPC   C3922094   5.002   4.023   6.772 -0.5351  0.3960  0.2425
  191POPC   H9X22095   4.908   4.077   6.795 -0.3681  1.2449 -0.9606
  191POPC   H9Y22096   5.059   4.081   6.696 -1.9704  0.6671 -0.6648
  191POPC  C31022097   5.090   3.993   6.895  0.0607 -0.1608  0.6991
  191POPC  H10X22098   5.171   3.927   6.856 -0.7140  1.4871 -4.3084
  191POPC  H10Y22099   5.029   3.938   6.970 -0.1996  1.3712  1.6670
  191POPC  C31122100   5.141   4.127   6.949  0.2330 -0.6033  0.6406
  191POPC  H11X22101   5.054   4.195   6.956  1.3113  0.6885  2.2532
  191POPC  H11Y22102   5.210   4.165   6.871  1.3393 -0.5518  1.6147
  191POPC  C31222103   5.204   4.119   7.090 -0.0493  0.3704 -0.6557
  191POPC  H12X22104   5.277   4.200   7.111  0.1965 -0.0672  0.1986
  191POPC  H12Y22105   5.264   4.026   7.094 -0.7966 -0.2302 -2.4261
  191POPC  C31322106   5.107   4.129   7.208  0.0325 -0.0853  0.0037
  191POPC  H13X22107   5.052   4.033   7.212  1.3660 -0.8085  2.2111
  191POPC  H13Y22108   5.031   4.211   7.199  0.5377  0.4784  0.7774
  191POPC  C31422109   5.183   4.156   7.345 -0.0202  0.2546 -0.1214
  191POPC  H14X22110   5.224   4.257   7.364 -1.0223  0.0791  3.9515
  191POPC  H14Y22111   5.263   4.079   7.347  0.0429  0.3277  0.1959
  191POPC  C31522112   5.094   4.125   7.467  0.5517  0.1195 -0.3747
  191POPC  H15X22113   5.139   4.170   7.558  0.6762 -0.4126 -0.1687
  191POPC  H15Y22114   5.059   4.022   7.492  0.7528  0.7215  2.7441
  191POPC  C31622115   4.963   4.209   7.454  0.2029  0.0784 -0.5284
  191POPC  H16X22116   4.883   4.151   7.404 -0.1035  0.6076 -0.6585
  191POPC  H16Y22117   4.990   4.300   7.397  0.7740 -1.4212 -2.8022
  191POPC  H16Z22118   4.930   4.234   7.557 -1.3937 -1.8053 -0.5224
  192POPC     N22119   3.009   6.736   5.479  0.1335  0.1397  0.5188
  192POPC   C1222120   3.129   6.711   5.571  0.1374 -0.1268  0.2617
  192POPC  H12A22121   3.182   6.803   5.589  3.8174 -2.4179  2.3298
  192POPC  H12B22122   3.202   6.648   5.522 -1.6190 -1.6946 -0.4672
  192POPC   C1322123   3.024   6.854   5.384 -0.6009 -0.5157  0.0252
  192POPC  H13A22124   2.933   6.862   5.325 -0.9243 -3.2708  0.0457
  192POPC  H13B22125   3.056   6.947   5.429  1.8967 -0.9621 -0.7170
  192POPC  H13C22126   3.102   6.830   5.314 -1.0143 -0.2381 -0.5373
  192POPC   C1422127   2.975   6.613   5.408  0.3669 -0.6019  0.1078
  192POPC  H14A22128   2.977   6.527   5.474 -1.5536 -2.0614 -1.6109
  192POPC  H14B22129   2.877   6.608   5.362  0.7302  2.6891 -1.3256
  192POPC  H14C22130   3.052   6.584   5.338 -0.7704  1.3401 -2.0945
  192POPC   C1522131   2.886   6.769   5.563 -0.0633  0.0322  0.1814
  192POPC  H15A22132   2.805   6.796   5.497  2.4671  2.8197 -2.0839
  192POPC  H15B22133   2.919   6.850   5.626  1.6921 -0.6927  0.2669
  192POPC  H15C22134   2.861   6.680   5.619 -1.7320 -0.2179 -0.8801
  192POPC   C1122135   3.098   6.647   5.712  0.3364  0.1680 -0.6768
  192POPC  H11A22136   3.042   6.703   5.790  1.3371 -2.2230  1.9424
  192POPC  H11B22137   3.199   6.651   5.758  0.1750  1.6502 -0.3938
  192POPC     P22138   2.944   6.437   5.750 -0.0748  0.2810  0.2937
  192POPC   O1322139   2.934   6.311   5.673  0.0463 -0.2605 -1.1226
  192POPC   O1422140   2.827   6.526   5.752 -0.0128 -0.1010  0.5508
  192POPC   O1222141   3.066   6.513   5.694  0.0160 -0.1437  0.4668
  192POPC   O1122142   2.982   6.397   5.897  0.2493  0.2540 -0.7964
  192POPC    C122143   3.105   6.320   5.920  0.1351 -0.1174  0.4748
  192POPC    HA22144   3.128   6.335   6.028 -1.2409 -2.7037  1.2245
  192POPC    HB22145   3.191   6.361   5.864  0.3165 -2.1276 -0.8120
  192POPC    C222146   3.088   6.170   5.899 -0.1765 -0.7459 -0.1828
  192POPC    HS22147   3.039   6.163   5.800  0.2662  1.2465 -0.5880
  192POPC   O2122148   3.008   6.115   6.005  0.7245  0.4943  0.5961
  192POPC   C2122149   2.956   5.995   5.983 -0.2783  0.1427  0.2962
  192POPC   O2222150   2.969   5.931   5.881  0.2861 -0.2701  0.0726
  192POPC   C2222151   2.879   5.944   6.109 -0.1974  0.9212 -0.3998
  192POPC   H2R22152   2.843   5.840   6.096 -1.5445  1.3757 -0.4645
  192POPC   H2S22153   2.794   6.015   6.121 -0.1785  0.7930  0.6000
  192POPC    C322154   3.227   6.107   5.892  0.1880  0.5414  0.1134
  192POPC    HX22155   3.274   6.141   5.797 -1.5970  0.5169 -0.8252
  192POPC    HY22156   3.214   5.998   5.874  2.9748 -0.1861  1.9501
  192POPC   O3122157   3.314   6.129   6.011  0.0460 -0.2453  0.0233
  192POPC   C3122158   3.319   6.034   6.100  0.0444  0.0538  0.5296
  192POPC   O3222159   3.269   5.922   6.083 -0.2263 -0.5736  0.0277
  192POPC   C3222160   3.372   6.078   6.229  0.0427 -0.0449  0.3265
  192POPC   H2X22161   3.321   6.171   6.260 -0.5198 -0.1882 -0.1443
  192POPC   H2Y22162   3.483   6.084   6.225  0.1632 -0.8292  1.8641
  192POPC   C2322163   2.952   5.941   6.240 -0.2685  0.2178  0.5196
  192POPC   H3R22164   2.960   6.043   6.285 -0.7623  1.1499 -1.3877
  192POPC   H3S22165   3.055   5.899   6.236 -0.7902 -1.6836  3.7085
  192POPC   C2422166   2.877   5.857   6.338  0.0779 -0.6805  0.2974
  192POPC   H4R22167   2.871   5.748   6.318  0.1443 -0.4463 -1.0503
  192POPC   H4S22168   2.773   5.897   6.333  0.1080 -0.5822  0.4302
  192POPC   C2522169   2.928   5.880   6.477 -0.7878  0.8424  0.0385
  192POPC   H5R22170   2.844   5.920   6.538  0.2822  0.5359  1.7938
  192POPC   H5S22171   3.014   5.949   6.491  1.5608 -1.4332 -2.0268
  192POPC   C2622172   2.977   5.752   6.550 -0.1503 -0.0899  0.1662
  192POPC   H6R22173   3.068   5.714   6.500  0.4248  2.1503 -0.6108
  192POPC   H6S22174   2.889   5.685   6.541 -1.4930  1.3561  1.7595
  192POPC   C2722175   3.025   5.767   6.701  0.4388 -0.1405 -0.0267
  192POPC   H7R22176   3.112   5.836   6.700 -0.4146  0.9752  0.3443
  192POPC   H7S22177   3.047   5.662   6.730 -1.6294 -0.0871  1.9852
  192POPC   C2822178   2.915   5.815   6.797 -0.5288  0.3743  0.1990
  192POPC   H8R22179   2.822   5.756   6.784  0.2888 -0.5620 -1.8227
  192POPC   H8S22180   2.895   5.915   6.754 -1.8299 -0.1589 -0.4881
  192POPC   C2922181   2.967   5.820   6.941 -0.5172 -0.7751  0.3231
  192POPC   H9122182   3.070   5.857   6.953 -0.4506 -1.4462  2.2821
  192POPC  C21022183   2.911   5.771   7.049  0.1109 -0.4687 -0.8651
  192POPC  H10122184   2.949   5.804   7.148 -1.7775 -1.7853  0.3633
  192POPC  C21122185   2.778   5.696   7.058 -0.5300 -0.0111  0.5115
  192POPC  H11R22186   2.794   5.608   7.124  0.3989 -0.5352 -0.3820
  192POPC  H11S22187   2.756   5.659   6.956 -1.3389  0.0166  0.6639
  192POPC  C21222188   2.675   5.780   7.121  0.2117 -0.0724  0.1517
  192POPC  H12R22189   2.585   5.715   7.125  0.4506 -0.4974 -1.0141
  192POPC  H12S22190   2.646   5.860   7.050 -3.2831 -1.3632 -0.0656
  192POPC  C21322191   2.712   5.845   7.256 -0.0602 -0.1917 -0.1281
  192POPC  H13R22192   2.644   5.932   7.272 -4.3120 -3.4497  1.3519
  192POPC  H13S22193   2.815   5.887   7.254  0.5695 -1.6582 -2.4424
  192POPC  C21422194   2.700   5.750   7.377 -0.6120  0.0604  0.4616
  192POPC  H14R22195   2.781   5.676   7.360 -0.9100 -0.4319  1.1348
  192POPC  H14S22196   2.602   5.699   7.387 -0.7397 -0.6771 -3.1855
  192POPC  C21522197   2.733   5.820   7.511  0.4683  0.1776  0.0002
  192POPC  H15R22198   2.669   5.912   7.514  1.3340  0.7733  1.0285
  192POPC  H15S22199   2.842   5.838   7.514  0.3678  0.7372  0.5412
  192POPC  C21622200   2.708   5.730   7.634  0.1959 -0.4012  0.1945
  192POPC  H16R22201   2.764   5.636   7.617 -0.7503 -1.3084  1.8109
  192POPC  H16S22202   2.602   5.698   7.634 -0.0071  0.2207 -0.8737
  192POPC  C21722203   2.751   5.792   7.767 -0.0333 -0.0277  0.1593
  192POPC  H17R22204   2.856   5.828   7.768 -0.2548  0.7188  2.4878
  192POPC  H17S22205   2.765   5.707   7.837 -0.3167 -0.2695 -0.0701
  192POPC  C21822206   2.670   5.902   7.821 -0.1278 -0.2237  0.4764
  192POPC  H18R22207   2.672   5.993   7.758 -0.9886 -0.1990  0.4720
  192POPC  H18S22208   2.701   5.935   7.923  0.2919 -0.6801  0.5006
  192POPC  H18T22209   2.565   5.867   7.827 -0.0092 -1.0220 -1.3536
  192POPC   C3322210   3.341   5.971   6.334 -0.1002 -0.3018 -0.5004
  192POPC   H3X22211   3.400   5.879   6.313 -1.5571 -1.2372 -0.6608
  192POPC   H3Y22212   3.232   5.953   6.323 -0.5792  3.0427 -2.2404
  192POPC   C3422213   3.391   6.023   6.467 -0.0088 -0.3735 -0.4398
  192POPC   H4X22214   3.348   6.119   6.501  0.7441 -0.3270  0.3853
  192POPC   H4Y22215   3.501   6.031   6.468 -0.0444  0.4491 -1.3386
  192POPC   C3522216   3.354   5.931   6.583  0.0399 -0.1493  0.4951
  192POPC   H5X22217   3.394   5.830   6.560  0.0831 -0.1922  0.7590
  192POPC   H5Y22218   3.243   5.943   6.581  0.2779  2.8728 -2.0545
  192POPC   C3622219   3.415   5.982   6.718  0.0292 -0.7992 -0.4912
  192POPC   H6X22220   3.355   6.072   6.743  1.6050  0.0095  0.5120
  192POPC   H6Y22221   3.514   6.015   6.680 -1.3883  1.2224 -2.8015
  192POPC   C3722222   3.414   5.886   6.840  1.1036  0.0273  0.1821
  192POPC   H7X22223   3.446   5.786   6.803 -0.1464  0.7524 -3.3102
  192POPC   H7Y22224   3.315   5.878   6.890  1.4019 -1.0902  0.6391
  192POPC   C3822225   3.514   5.931   6.955 -0.4169  0.0906 -0.3305
  192POPC   H8X22226   3.473   6.027   6.995  1.0460  0.0643  1.3588
  192POPC   H8Y22227   3.617   5.945   6.916 -0.3050  2.1036  0.5477
  192POPC   C3922228   3.512   5.821   7.074 -1.4811 -0.2664 -0.2300
  192POPC   H9X22229   3.561   5.726   7.045  0.2958  0.2122  1.0059
  192POPC   H9Y22230   3.408   5.802   7.106  0.0864 -1.8985  4.8314
  192POPC  C31022231   3.586   5.887   7.194 -0.4516 -0.9424  0.2176
  192POPC  H10X22232   3.531   5.975   7.234 -1.9728 -3.1698  3.4463
  192POPC  H10Y22233   3.685   5.926   7.162 -1.7515  1.6558 -0.9863
  192POPC  C31122234   3.624   5.784   7.306  0.2413  0.0964 -0.3466
  192POPC  H11X22235   3.697   5.716   7.257  1.3146  1.4352 -0.6708
  192POPC  H11Y22236   3.529   5.729   7.322  0.6175 -1.2595 -2.3448
  192POPC  C31222237   3.683   5.842   7.432 -0.1961 -0.5336 -0.3900
  192POPC  H12X22238   3.616   5.923   7.467 -0.8311 -0.4539 -1.7135
  192POPC  H12Y22239   3.778   5.897   7.409  0.2913 -2.0283 -2.2049
  192POPC  C31322240   3.716   5.746   7.546 -0.3938  0.4461 -0.1983
  192POPC  H13X22241   3.755   5.647   7.514 -1.9634 -0.3919  0.3884
  192POPC  H13Y22242   3.625   5.715   7.601 -0.2444 -0.8544 -0.6391
  192POPC  C31422243   3.815   5.812   7.648  0.4672  0.6408  0.3596
  192POPC  H14X22244   3.912   5.838   7.599  1.1221 -1.1253  0.6387
  192POPC  H14Y22245   3.830   5.735   7.727 -0.0976 -1.2294 -1.2881
  192POPC  C31522246   3.755   5.944   7.709  0.3296 -0.7012  0.6307
  192POPC  H15X22247   3.645   5.934   7.721  0.1534 -0.8471 -0.8774
  192POPC  H15Y22248   3.751   6.027   7.635 -3.7894  0.5312  1.9346
  192POPC  C31622249   3.820   5.999   7.837  0.3201 -0.7156  0.8871
  192POPC  H16X22250   3.827   5.931   7.924  2.7674 -0.0247  1.3108
  192POPC  H16Y22251   3.770   6.094   7.866  0.5236  1.6397 -5.0098
  192POPC  H16Z22252   3.924   6.031   7.816  0.7643 -1.6949  1.5430
  193SOD    SOD22253   4.556   2.586   4.844  0.6347  0.5098  0.1918
  194SOD    SOD22254   2.543   7.047  14.894 -0.3558  0.1014  0.0696
  195SOD    SOD22255   0.532   2.077  10.462  0.1299 -0.2251  0.1134
  196SOD    SOD22256   4.306   0.620   9.778  0.0928 -0.1464 -0.2772
  197SOD    SOD22257   3.621   3.014   4.105 -0.4024  0.1227 -0.7239
  198SOD    SOD22258   1.267   3.968   1.350 -0.6768 -0.1260  0.5273
  199SOD    SOD22259   2.234   0.791   1.390  0.6848  0.0290 -0.1687
  200SOD    SOD22260   3.348   3.048   5.131 -0.4881 -0.4418  0.0394
  201SOD    SOD22261   4.998   6.769   1.454  0.2836 -0.1993  0.1496
  202SOD    SOD22262   0.035   3.630  11.619  0.3262 -0.0005  0.6323
  203SOD    SOD22263   4.991   1.674   2.854  0.1741 -0.3601  0.0905
  204SOD    SOD22264   4.471   3.257   1.658  0.1449 -0.2810 -0.3325
  205SOD    SOD22265   6.120   0.412  12.901  0.6644 -0.2466  0.0427
  206SOD    SOD22266   1.680   5.633  14.298 -0.3019 -0.3977  0.0814
  207SOD    SOD22267   6.023   3.303   1.450  0.1512 -0.4225 -0.4772
  208SOD    SOD22268   0.544   5.877  10.411  0.0907 -0.1611 -0.1338
  209SOD    SOD22269   3.894   0.654   1.072 -0.2473 -0.4694  0.1902
  210SOD    SOD22270   4.756   2.527  13.626  0.1622  0.4423  0.2574
  211SOD    SOD22271   0.840   3.072  10.732 -0.0054 -0.1070 -0.2016
  212SOD    SOD22272   5.373   4.366   5.482 -0.0393  0.0229  0.6020
  213SOD    SOD22273   6.634   0.758   3.135 -0.3064  0.1812  0.2842
  214SOD    SOD22274   4.660   3.051   9.531 -0.2550  0.1722  0.0003
  215SOD    SOD22275   6.802   1.889  11.035 -0.3071  0.2942  0.0575
  216SOD    SOD22276   0.156   0.011   0.897 -0.0729 -0.5390 -0.1486
  217SOD    SOD22277   3.857   6.270  10.148  0.2393 -0.2671 -0.2549
  218SOD    SOD22278   1.344   5.828   9.971  0.3650  0.5155  0.3823
  219SOD    SOD22279   1.062   2.459  15.203  0.6710 -0.0873  0.4728
  220SOD    SOD22280   6.452   3.144   5.203  0.1864  0.0768 -0.2464
  221SOD    SOD22281   4.684   5.071   2.947 -0.4174  0.1483 -0.1534
  222SOD    SOD22282   2.330   1.317  13.220  0.3965 -0.2162  0.0714
  223SOD    SOD22283   4.438   1.303  12.247  0.0957 -0.4522  0.1459
  224SOD    SOD22284   2.441   6.916   1.363  0.3837 -0.4344  0.0179
  225SOD    SOD22285   5.680   2.941   9.990  0.3556 -0.1500 -0.9833
  226SOD    SOD22286   2.978   1.218  13.949 -0.2137  0.4497 -0.3305
  227SOD    SOD22287   6.588   7.086   9.610  0.1714 -0.0250 -0.2531
  228SOD    SOD22288   5.514   6.530  14.779 -0.1189  0.3821 -0.6309
  229SOD    SOD22289   0.698   3.879   4.024 -0.0469 -0.0228 -0.2947
  230SOD    SOD22290   0.247   6.296  13.634  0.1442 -0.2576  0.3137
  231SOD    SOD22291   6.666   4.283   4.512  0.0001  0.4591 -0.3288
  232SOD    SOD22292   2.599   6.876  11.168  0.6141 -0.0296 -0.0371
  233SOD    SOD22293   6.500   7.066  14.150 -0.1107 -0.5572 -0.0707
  234SOD    SOD22294   0.985   6.572   4.692 -0.2190  0.0868  0.4329
  235SOD    SOD22295   0.368   5.099   5.780 -0.3559  0.1446 -0.5818
  236SOD    SOD22296   3.864   1.685   3.202 -0.1372 -0.1993  0.1327
  237SOD    SOD22297   6.354   6.922   3.446  0.3352 -0.5745  0.1622
  238SOD    SOD22298   3.982   5.142  10.303 -0.2986  0.4311  0.1213
  239SOD    SOD22299   4.700   6.893  14.819 -0.1228  0.0014 -0.2633
  240SOD    SOD22300   3.249   4.896   0.064 -0.2261  0.8248  0.4986
  241SOD    SOD22301   0.088   3.611   5.744  0.2116  0.1198 -0.2003
  242SOD    SOD22302   3.166   2.759  13.662 -0.0559  0.0989 -0.0927
  243SOD    SOD22303   4.311   4.496   0.615  0.4443  0.1012  0.0321
  244SOD    SOD22304   1.326   1.094  14.644 -0.3418  0.2893 -0.1359
  245SOD    SOD22305   1.500   3.504   4.331 -0.4919  0.3261  0.1113
  246SOD    SOD22306   1.270   3.938  12.565 -0.5498 -0.2514  0.2406
  247SOD    SOD22307   6.218   2.905  11.027 -0.0220  0.2274  0.4251
  248SOD    SOD22308   5.972   4.595  14.699 -0.1106 -0.2160 -0.1346
  249SOD    SOD22309   6.174   3.834   2.132 -0.2620 -0.2311  0.0738
  250SOD    SOD22310   0.488   6.026  12.715  0.0399 -0.2211  0.5448
  251SOD    SOD22311   6.094   6.819  11.197 -0.3216 -0.0211  0.1468
  252SOD    SOD22312   6.276   5.055   1.912  0.2601  0.3088  0.6338
  253SOD    SOD22313   5.001   0.893  12.174  0.3990  0.4523  0.1755
  254SOD    SOD22314   2.631   3.552  10.320  0.1394 -1.0781  0.3598
  255SOD    SOD22315   4.497   0.014  12.937 -0.1567 -0.4160 -0.2508
  256SOD    SOD22316   4.632   5.559   4.685 -0.0273 -0.2730 -0.3478
  257SOD    SOD22317   0.713   0.325   5.171 -0.2996  0.0876 -0.1105
  258SOD    SOD22318   0.075   3.286  13.159 -0.2892 -0.0462  0.5707
  259SOD    SOD22319   3.540   6.113  12.281 -0.5109  0.3227  0.1070
  260SOD    SOD22320   5.361   4.474  13.547  0.3283 -0.3782  0.3474
  261SOD    SOD22321   6.909   1.516  10.269 -0.2258 -0.4521 -0.4048
  262SOD    SOD22322   3.119   1.896   3.321  0.0829  0.1365 -0.0449
  263SOD    SOD22323   3.978   1.565   1.211  0.0090  0.0715 -0.2937
  264SOD    SOD22324   2.417   4.010   2.538 -0.6038 -0.4320 -0.9287
  265SOD    SOD22325   5.827   3.386  10.174 -0.3407 -0.2659 -0.0302
  266SOD    SOD22326   3.241   2.696  11.841 -0.4585  0.0693 -0.1715
  267SOD    SOD22327   2.272   4.256   5.149  0.0311 -0.4626 -0.3735
  268SOD    SOD22328   2.151   3.478  12.143 -0.5350 -0.5106 -0.3602
  269SOD    SOD22329   1.266   1.763   1.876  0.3244 -0.1580  0.7809
  270CLA    CLA22330   1.202   6.737   0.703 -0.0883 -0.2401  0.3214
  271CLA    CLA22331   1.841   1.602  14.342 -0.3043  0.6229  0.1004
  272CLA    CLA22332   4.102   2.884  14.013 -0.3306  0.1734 -0.3373
  273CLA    CLA22333   5.993   7.087  11.960 -0.1013  0.2578 -0.1058
  274CLA    CLA22334   3.437   6.225   3.815  0.1695  0.1164  0.0415
  275CLA    CLA22335   5.968   0.703   0.773  0.2880  0.0396  0.0133
  276CLA    CLA22336   3.710   0.729   3.791 -0.3494 -0.2484  0.1704
  277CLA    CLA22337   2.916   0.130   1.986  0.1846 -0.0975  0.0492
  278CLA    CLA22338   5.503   4.046   1.175 -0.0868  0.3158  0.4384
  279CLA    CLA22339   6.301   4.226   1.445 -0.0476  0.1544  0.0949
  280CLA    CLA22340   6.017   1.029  13.315  0.2906  0.0546  0.0018
  281CLA    CLA22341   4.003   1.872  11.689  0.1414  0.3915 -0.2585
  282CLA    CLA22342   4.571   0.786  12.767  0.0807 -0.3430  0.0504
  283CLA    CLA22343   1.730   2.224  11.594  0.1060  0.6147  0.0149
  284CLA    CLA22344   1.647   3.478  12.312 -0.0513 -0.0211 -0.2219
  285CLA    CLA22345   0.257   4.326  11.968  0.4163  0.3230  0.1191
  286CLA    CLA22346   0.658   3.566   1.975  0.0855 -0.1012 -0.2571
  287CLA    CLA22347   0.599   2.431  14.358 -0.2388 -0.3267 -0.3477
  288CLA    CLA22348   4.506   1.625   1.154  0.3206 -0.1187  0.2191
  289CLA    CLA22349   6.723   3.154   3.349  0.2190  0.0362 -0.4389
  290CLA    CLA22350   5.564   6.772   3.031  0.1948 -0.2277 -0.2851
  291CLA    CLA22351   1.293   0.237   3.556  0.2969  0.3805  0.2370
  292CLA    CLA22352   2.159   6.049   0.153 -0.1017 -0.3200 -0.1706
  293CLA    CLA22353   6.970   2.760  11.617 -0.1105 -0.2885 -0.1155
  294CLA    CLA22354   4.739   6.528   0.932 -0.0798 -0.1391 -0.0720
  295CLA    CLA22355   0.895   0.760   1.570 -0.0182  0.2455 -0.2831
  296CLA    CLA22356   6.963   5.693  10.482 -0.1390 -0.7189 -0.0348
  297CLA    CLA22357   4.292   4.314  13.569 -0.0978  0.0873 -0.0818
  298CLA    CLA22358   2.692   2.978  13.328  0.2324 -0.2310 -0.5022
  299CLA    CLA22359   5.592   2.789   2.415 -0.0544 -0.2009  0.2366
  300CLA    CLA22360   4.408   2.844  10.686  0.1567  0.0458  0.2995
  301CLA    CLA22361   6.395   3.138  14.615 -0.3822  0.2395 -0.0764
  302CLA    CLA22362   5.852   4.233  13.391  0.1658  0.4946 -0.1688
  303CLA    CLA22363   1.647   5.317  13.957 -0.0134  0.1619  0.3857
  304CLA    CLA22364   4.618   2.511   2.712 -0.2810 -0.1893 -0.2236
  305CLA    CLA22365   6.889   0.893  14.296  0.0149 -0.2599 -0.1080
  306CLA    CLA22366   5.543   3.331   3.012  0.0339  0.0387 -0.5072
  307CLA    CLA22367   3.350   6.923  13.877 -0.0389 -0.0826  0.2085
  308CLA    CLA22368   4.601   6.260  14.608  0.1720  0.1192 -0.1123
  309CLA    CLA22369   2.521   1.943  13.138  0.0463  0.2974 -0.3228
  310CLA    CLA22370   0.122   0.861  12.267 -0.2012  0.0038 -0.2518
  311CLA    CLA22371   5.604   5.291   0.610 -0.6052  0.3084 -0.2293
  312CLA    CLA22372   0.270   6.638  14.175 -0.0462  0.1015  0.1248
  313CLA    CLA22373   6.696   1.241   1.021 -0.0941  0.1538 -0.1199
  314CLA    CLA22374   3.985   5.117   2.555  0.0512 -0.2080 -0.3693
  315CLA    CLA22375   3.692   4.265   3.482 -0.1271 -0.2281  0.0040
  316CLA    CLA22376   5.400   4.634  11.621  0.1911  0.3897  0.0653
  317CLA    CLA22377   6.768   3.662  10.787  0.2493 -0.1863 -0.6729
  318CLA    CLA22378   4.267   5.398  10.616 -0.2474  0.0921 -0.0848
  319CLA    CLA22379   6.750   2.284  11.386  0.4629  0.4725 -0.0873
  320CLA    CLA22380   3.245   5.209   1.053  0.3003 -0.1588 -0.0866
  321CLA    CLA22381   3.580   3.492  14.862  0.3259 -0.1809  0.4325
  322CLA    CLA22382   4.088   2.266  12.689  0.1787  0.4849  0.1746
  323TIP3   OH222383   0.924   0.802  14.246  0.7136 -0.0995  0.2391
  323TIP3    H122384   0.862   0.874  14.240  1.2761  0.3044 -1.4951
  323TIP3    H222385   0.935   0.787  14.340 -3.7196 -1.7463  0.7270
  324TIP3   OH222386   2.497   5.654  14.738 -0.0146 -0.2384  0.5528
  324TIP3    H122387   2.571   5.714  14.750 -0.5593  0.5472  0.0632
  324TIP3    H222388   2.536   5.567  14.739  0.7315  0.0887  1.7786
  325TIP3   OH222389   4.441   5.355  10.870  0.0093  0.5810 -0.6846
  325TIP3    H122390   4.383   5.332  10.942  1.8753 -2.7472 -0.0460
  325TIP3    H222391   4.382   5.378  10.798 -1.9448  1.3186  1.0365
  326TIP3   OH222392   3.747   6.876   9.839  0.5180 -0.3367  0.0417
  326TIP3    H122393   3.690   6.873   9.762  0.0276 -0.7578  0.4095
  326TIP3    H222394   3.720   6.955   9.886  1.3412  0.3419 -0.6015
  327TIP3   OH222395   4.400   1.477  10.579 -0.4085 -0.4013 -0.0297
  327TIP3    H122396   4.443   1.554  10.542  0.2840 -0.6874  0.1653
  327TIP3    H222397   4.321   1.511  10.621 -1.0348 -0.0253 -1.4400
  328TIP3   OH222398   6.553   3.497  13.241 -0.2797  0.5333  0.3255
  328TIP3    H122399   6.591   3.575  13.199  0.8534  0.6771  1.5689
  328TIP3    H222400   6.548   3.432  13.171  1.5457  0.7751 -0.0684
  329TIP3   OH222401   1.660   1.879  11.146 -0.1518 -0.0504 -0.0698
  329TIP3    H122402   1.738   1.909  11.193  0.6006 -0.9530 -0.7058
  329TIP3    H222403   1.594   1.866  11.214  0.4585  0.0781  0.5591
  330TIP3   OH222404   4.902   5.895  14.826 -0.4435 -0.1024  0.5246
  330TIP3    H122405   4.922   5.975  14.876 -0.7243  0.1984  0.1615
  330TIP3    H222406   4.854   5.927  14.749  1.3993 -0.3762 -0.7976
  331TIP3   OH222407   2.856   6.281  13.839 -0.7597 -0.1150  0.3863
  331TIP3    H122408   2.936   6.334  13.844 -0.3069 -0.8012  0.6337
  331TIP3    H222409   2.786   6.345  13.829 -0.4033  0.6499  2.2153
  332TIP3   OH222410   1.124   2.664  10.017 -0.4502  0.1535  0.0316
  332TIP3    H122411   1.136   2.692   9.927 -2.9719  0.1350 -0.3533
  332TIP3    H222412   1.176   2.584  10.024  1.4530  1.2396 -0.7386
  333TIP3   OH222413   0.145   5.573  15.028  0.2631 -0.0868  0.4968
  333TIP3    H122414   0.207   5.556  15.099  1.3112  0.1991 -0.3146
  333TIP3    H222415   0.156   5.498  14.969 -0.0993  0.0104  0.3057
  334TIP3   OH222416   3.977   6.091  10.072 -0.7540  0.0982  0.2980
  334TIP3    H122417   3.987   6.091   9.977  1.7896  1.8299  0.4673
  334TIP3    H222418   3.981   5.999  10.097  0.1220 -0.2967 -1.1617
  335TIP3   OH222419   2.722   7.073  11.563 -0.2096  0.0299  0.0666
  335TIP3    H122420   2.673   7.095  11.643  1.1841  0.2804  0.8897
  335TIP3    H222421   2.814   7.070  11.592  0.5501  1.9055 -1.8737
  336TIP3   OH222422   6.064   1.750  11.116  0.4945  0.3511 -0.3171
  336TIP3    H122423   6.116   1.733  11.037 -0.9916  2.4942 -1.8805
  336TIP3    H222424   6.063   1.845  11.124  0.6882  0.1967  2.4365
  337TIP3   OH222425   3.641   1.633  12.350 -0.3673 -0.6598  0.3761
  337TIP3    H122426   3.675   1.558  12.399 -0.3829 -0.7242  0.2888
  337TIP3    H222427   3.715   1.694  12.346 -0.5994 -0.3075  1.1690
  338TIP3   OH222428   4.901   0.258  12.475  0.1426  0.2122  0.2432
  338TIP3    H122429   4.957   0.197  12.523  0.1917  1.4933  1.9178
  338TIP3    H222430   4.829   0.277  12.535  0.8940  2.8868  0.4235
  339TIP3   OH222431   3.799   4.030  11.976 -0.2354 -0.4484 -0.2538
  339TIP3    H122432   3.731   4.036  12.043 -0.6753 -0.0514 -0.7124
  339TIP3    H222433   3.868   4.089  12.005 -0.8196  0.4153 -0.5760
  340TIP3   OH222434   5.843   6.656  12.251 -0.2536 -0.4247 -0.0444
  340TIP3    H122435   5.895   6.581  12.281 -0.4321  0.0774  1.6170
  340TIP3    H222436   5.880   6.731  12.297 -1.7203  0.1027  0.3324
  341TIP3   OH222437   1.455   5.028  13.109  0.0576  0.1475 -0.3069
  341TIP3    H122438   1.545   5.017  13.139 -0.9849 -3.7143  2.0653
  341TIP3    H222439   1.453   4.987  13.023  0.6831  0.9835 -0.7351
  342TIP3   OH222440   0.687   6.393  12.332  0.3984 -0.1932  0.3416
  342TIP3    H122441   0.774   6.377  12.368  0.1169 -2.4845  0.1782
  342TIP3    H222442   0.703   6.437  12.249  1.3815 -0.2030  0.5116
  343TIP3   OH222443   2.988   5.723  12.570  0.0867 -0.7126  0.2080
  343TIP3    H122444   3.059   5.710  12.507  0.1799  0.4779  0.0425
  343TIP3    H222445   2.908   5.721  12.517 -0.0343 -2.2287  0.4188
  344TIP3   OH222446   6.160   3.237  12.058 -0.5900 -0.4950 -0.0444
  344TIP3    H122447   6.184   3.217  12.149 -2.8257 -0.6638  0.5867
  344TIP3    H222448   6.202   3.168  12.007 -0.8405 -1.5623  1.1149
  345TIP3   OH222449   3.132   3.090  11.644 -0.2750 -0.1271 -0.0982
  345TIP3    H122450   3.184   3.024  11.691  1.8028  0.9889 -0.6831
  345TIP3    H222451   3.129   3.058  11.554  1.8560  1.0890 -0.6795
  346TIP3   OH222452   2.971   5.789  10.328 -0.1076 -0.0990  0.3325
  346TIP3    H122453   2.965   5.832  10.413  0.5693 -1.3095  1.0296
  346TIP3    H222454   2.882   5.760  10.309 -0.5070  1.2708  0.0070
  347TIP3   OH222455   5.425   1.084   2.008 -0.1120 -0.3223  0.4093
  347TIP3    H122456   5.520   1.076   2.007 -0.0461  0.4723 -0.1135
  347TIP3    H222457   5.402   1.114   1.920 -0.8572 -0.5875  0.5062
  348TIP3   OH222458   4.224   7.015   9.615  0.4865  0.2584  0.4773
  348TIP3    H122459   4.182   6.988   9.696  0.6859 -1.3612  0.0717
  348TIP3    H222460   4.210   6.942   9.554 -0.0961  1.6398 -1.1195
  349TIP3   OH222461   4.282   3.362  14.103 -0.2549 -0.4687 -0.2490
  349TIP3    H122462   4.332   3.357  14.184  0.8049  1.2083 -0.7364
  349TIP3    H222463   4.191   3.366  14.131  0.0932  0.0677  0.8587
  350TIP3   OH222464   6.820   6.396   9.990 -0.2604  0.4209  0.8687
  350TIP3    H122465   6.764   6.326   9.956  0.6203 -0.0212  0.2771
  350TIP3    H222466   6.841   6.449   9.914 -0.2864  0.8768  1.1764
  351TIP3   OH222467   0.425   0.991  10.416 -0.1417  0.4179  0.4332
  351TIP3    H122468   0.397   1.066  10.362 -0.4162  0.3673  0.5017
  351TIP3    H222469   0.491   0.947  10.362  0.5225  1.0924  0.6793
  352TIP3   OH222470   4.363   6.587  13.445 -1.0651  0.2356 -0.4101
  352TIP3    H122471   4.358   6.493  13.429 -0.8840  0.0916  0.3773
  352TIP3    H222472   4.413   6.621  13.370  0.0291 -0.4787 -0.0222
  353TIP3   OH222473   2.292   5.204   9.947  0.1243  0.5456 -0.0490
  353TIP3    H122474   2.384   5.192   9.971 -0.2287  0.6526  1.4269
  353TIP3    H222475   2.296   5.257   9.867  1.3431  0.9627  0.2522
  354TIP3   OH222476   4.542   1.550  11.399 -0.2616  0.1089 -0.5640
  354TIP3    H122477   4.617   1.608  11.412  0.1296 -0.1138 -1.7595
  354TIP3    H222478   4.472   1.590  11.450  0.0389  1.5509 -1.2518
  355TIP3   OH222479   1.287   0.497  13.680  0.5750 -0.2371 -0.7389
  355TIP3    H122480   1.276   0.512  13.774  1.1398 -0.0421 -0.6993
  355TIP3    H222481   1.198   0.501  13.644  0.3545 -0.3488 -0.2103
  356TIP3   OH222482   6.557   2.435  12.613  0.3775 -0.1520 -0.1541
  356TIP3    H122483   6.569   2.344  12.642 -1.0478  0.3982  2.3861
  356TIP3    H222484   6.464   2.442  12.593  0.4655  0.7736 -0.2596
  357TIP3   OH222485   4.302   0.183  12.948 -0.6221 -0.8790 -0.2567
  357TIP3    H122486   4.332   0.241  12.878  0.7253  0.2815  1.2091
  357TIP3    H222487   4.232   0.232  12.992 -0.7810 -1.1783 -0.1692
  358TIP3   OH222488   3.878   5.313  14.564  0.3653  0.3018  0.3407
  358TIP3    H122489   3.875   5.295  14.470 -1.3800 -1.1153  0.6231
  358TIP3    H222490   3.934   5.390  14.572  1.4461 -0.2064 -1.7501
  359TIP3   OH222491   3.915   2.228  12.956  0.4593 -0.0170  0.4430
  359TIP3    H122492   3.957   2.290  13.014 -0.0209  2.3084 -1.5241
  359TIP3    H222493   3.945   2.253  12.868 -2.4354 -0.2924 -0.7442
  360TIP3   OH222494   4.951   5.688   9.052  0.3963  0.2381  0.4602
  360TIP3    H122495   5.029   5.646   9.088  1.8588  1.5817 -0.9555
  360TIP3    H222496   4.928   5.755   9.116 -0.0226 -0.6269  1.2182
  361TIP3   OH222497   3.087   0.481  12.643  0.2426 -0.5784 -0.1054
  361TIP3    H122498   3.162   0.496  12.701 -0.0555  2.3452 -0.3331
  361TIP3    H222499   3.083   0.559  12.588 -2.5537 -0.9657 -0.5944
  362TIP3   OH222500   6.787   3.589  11.105  0.2785 -0.4398  0.1089
  362TIP3    H122501   6.742   3.672  11.120 -2.2430 -1.5456 -0.7929
  362TIP3    H222502   6.834   3.601  11.023  1.3929  0.6122  0.8649
  363TIP3   OH222503   5.992   7.129  10.867  0.8299  0.3564 -0.1479
  363TIP3    H122504   5.999   7.142  10.961  0.8779 -2.2375  0.2654
  363TIP3    H222505   5.922   7.189  10.840  1.7051  2.1067  1.2576
  364TIP3   OH222506   0.231   4.425  12.513  0.0228 -0.0014 -0.1536
  364TIP3    H122507   0.225   4.391  12.602 -0.4887  1.5877  0.4467
  364TIP3    H222508   0.167   4.496  12.510  1.0293  0.8953 -1.3573
  365TIP3   OH222509   6.640   5.445  14.777  0.1983  0.4924  0.7636
  365TIP3    H122510   6.564   5.389  14.760 -0.1034  0.8607  0.8762
  365TIP3    H222511   6.608   5.511  14.838  1.1820 -0.6175  2.5858
  366TIP3   OH222512   2.078   2.455  11.689 -0.2676  0.1106  0.9015
  366TIP3    H122513   2.016   2.499  11.747 -0.1515 -0.1418  1.2184
  366TIP3    H222514   2.139   2.411  11.748  0.0142  0.0808  0.5886
  367TIP3   OH222515   2.267   5.338  11.347 -0.5076 -0.1337  0.4425
  367TIP3    H122516   2.316   5.340  11.265  0.9662  0.3623  1.2882
  367TIP3    H222517   2.181   5.305  11.323 -0.3316  0.6101 -1.4099
  368TIP3   OH222518   6.787   0.470  12.186 -0.1078  0.0373 -0.1111
  368TIP3    H122519   6.738   0.542  12.145  1.0221  0.2003 -1.2079
  368TIP3    H222520   6.784   0.399  12.122  1.7284  0.3159 -0.5504
  369TIP3   OH222521   4.694   7.162  12.513  0.4552  0.1872 -0.0572
  369TIP3    H122522   4.708   7.074  12.480 -0.3360 -0.2894  0.8429
  369TIP3    H222523   4.623   7.197  12.459 -0.7372 -0.5402  0.9755
  370TIP3   OH222524   6.440   5.160  12.784  0.2374 -0.4397  0.5215
  370TIP3    H122525   6.506   5.219  12.747  0.9071 -2.2923 -1.4249
  370TIP3    H222526   6.363   5.215  12.794  0.8678  0.8470 -1.1060
  371TIP3   OH222527   2.538   6.229  10.349 -0.1599 -0.0825 -0.4747
  371TIP3    H122528   2.586   6.312  10.348 -0.5950  0.1736 -0.7316
  371TIP3    H222529   2.559   6.189  10.433 -0.7443  0.7683  0.0869
  372TIP3   OH222530   3.454   1.293  13.773  0.2154  0.2876  0.3141
  372TIP3    H122531   3.514   1.346  13.826 -0.6337 -0.1516  1.7558
  372TIP3    H222532   3.438   1.347  13.695  1.5530  0.9125  0.4436
  373TIP3   OH222533   1.619   0.575  11.375 -0.0855  0.2628 -0.1778
  373TIP3    H122534   1.712   0.589  11.393 -0.4493  2.3496  0.3185
  373TIP3    H222535   1.599   0.630  11.299 -0.6466 -1.2352 -1.1646
  374TIP3   OH222536   4.235   2.341  12.387 -0.2549 -0.5285 -0.3238
  374TIP3    H122537   4.210   2.376  12.473  1.8693 -0.4231  0.3184
  374TIP3    H222538   4.166   2.279  12.365 -1.0296 -0.3055  1.3200
  375TIP3   OH222539   6.071   0.790   9.599  0.3668  0.2900 -0.0483
  375TIP3    H122540   6.050   0.883   9.589 -2.4614 -0.2607  0.0584
  375TIP3    H222541   6.084   0.759   9.509  4.2255  1.2352 -0.0135
  376TIP3   OH222542   4.503   1.935   1.910 -0.3724  0.1755 -0.2761
  376TIP3    H122543   4.571   1.887   1.863  0.2628  2.9270 -2.4299
  376TIP3    H222544   4.421   1.907   1.869 -0.1348 -0.0346 -0.6112
  377TIP3   OH222545   6.184   4.226   5.413  0.9525  0.4996  0.0701
  377TIP3    H122546   6.188   4.310   5.460  0.1857  0.7325 -0.2608
  377TIP3    H222547   6.206   4.161   5.480  2.7320  1.0245  0.0632
  378TIP3   OH222548   0.315   5.079   3.888 -0.0572  0.4320  0.2625
  378TIP3    H122549   0.321   5.003   3.831 -0.9260 -0.5324  1.3939
  378TIP3    H222550   0.405   5.108   3.900  0.3481 -0.7527  0.2333
  379TIP3   OH222551   2.442   3.155   5.747  1.0150  0.1633  0.2575
  379TIP3    H122552   2.376   3.172   5.815  1.5314  2.1322  0.3522
  379TIP3    H222553   2.491   3.080   5.780 -0.8469 -1.0732  0.3973
  380TIP3   OH222554   4.158   6.970   3.920 -0.6510  0.3031  0.3820
  380TIP3    H122555   4.153   6.939   4.011 -0.9353  0.3311  0.3778
  380TIP3    H222556   4.219   6.911   3.877  0.2714  0.8959  0.8402
  381TIP3   OH222557   2.449   4.038  15.200 -0.6176 -0.5277  0.0677
  381TIP3    H122558   2.377   4.034  15.137 -1.8288 -1.7379  1.4495
  381TIP3    H222559   2.425   3.974  15.268  1.9730 -1.2597  0.3858
  382TIP3   OH222560   3.067   3.793  12.856  0.2403  0.2773  0.1554
  382TIP3    H122561   2.981   3.755  12.843  0.6533 -0.5868 -0.1245
  382TIP3    H222562   3.091   3.769  12.945  0.3279  0.2452  0.1235
  383TIP3   OH222563   2.968   3.523   1.765  0.1190 -0.3254 -0.0720
  383TIP3    H122564   2.907   3.450   1.774 -0.0090 -0.3683 -1.1951
  383TIP3    H222565   3.051   3.489   1.799 -0.7364  0.1592  2.7058
  384TIP3   OH222566   4.156   3.664   3.690  0.0877 -0.1233 -0.5748
  384TIP3    H122567   4.141   3.700   3.603  1.1737  0.4341 -0.5537
  384TIP3    H222568   4.200   3.581   3.674 -1.5822 -1.0378 -0.5965
  385TIP3   OH222569   4.928   4.993   5.434 -0.3148 -0.3374 -0.0505
  385TIP3    H122570   4.893   5.042   5.509 -0.5587 -0.7088  0.0848
  385TIP3    H222571   4.980   5.056   5.386 -1.9883  0.5007 -0.8211
  386TIP3   OH222572   2.961   0.874   2.757 -0.0474 -0.0498  0.1227
  386TIP3    H122573   2.925   0.846   2.673 -0.3729 -0.8476  0.5214
  386TIP3    H222574   2.970   0.793   2.807 -0.1342  0.4542  0.9616
  387TIP3   OH222575   1.599   7.169   4.631  0.1506 -0.0772 -0.1320
  387TIP3    H122576   1.584   7.194   4.540 -0.5685  0.0252  0.0077
  387TIP3    H222577   1.656   7.237   4.666  0.4431 -0.1256 -0.5018
  388TIP3   OH222578   7.033   2.306   4.244  0.1415 -0.3855  0.2088
  388TIP3    H122579   7.052   2.342   4.331  0.0068 -1.1247  0.5565
  388TIP3    H222580   7.099   2.345   4.187  0.5187 -0.2424  0.7332
  389TIP3   OH222581   4.565   6.028   3.548 -0.0210 -0.1341  0.2318
  389TIP3    H122582   4.572   6.095   3.480  0.1167 -0.4877 -0.1095
  389TIP3    H222583   4.620   5.956   3.516 -1.8846 -1.3164 -0.5035
  390TIP3   OH222584   2.770   5.126   4.986  0.1076 -0.5374 -0.4655
  390TIP3    H122585   2.797   5.068   4.915  1.9135 -3.0209  2.0185
  390TIP3    H222586   2.852   5.165   5.017 -0.6497  0.5576  0.1935
  391TIP3   OH222587   6.126   3.860   2.372 -0.2368  0.1794 -0.6681
  391TIP3    H122588   6.203   3.817   2.410  0.7162  1.9906 -0.4356
  391TIP3    H222589   6.078   3.893   2.448 -0.9723 -0.4621 -0.8436
  392TIP3   OH222590   2.527   6.195   5.250  0.3902  0.3582 -0.0388
  392TIP3    H122591   2.591   6.187   5.320  1.2009 -0.0430 -0.8045
  392TIP3    H222592   2.570   6.158   5.173 -0.1556  1.5156 -0.9549
  393TIP3   OH222593   0.799   5.428  14.433 -0.0989  0.0467  0.1503
  393TIP3    H122594   0.795   5.513  14.477 -0.8157  0.3761 -0.5362
  393TIP3    H222595   0.744   5.371  14.486 -0.9535  0.4384 -0.3074
  394TIP3   OH222596   6.269   5.759   1.049 -0.0689  0.0353  0.2793
  394TIP3    H122597   6.199   5.818   1.076  0.3000  0.9799 -0.7654
  394TIP3    H222598   6.308   5.800   0.972 -0.3590 -1.9992 -1.0475
  395TIP3   OH222599   6.858   2.927   0.048 -0.4495 -0.1899  0.1494
  395TIP3    H122600   6.937   2.873   0.055 -1.1235 -1.0193  1.5235
  395TIP3    H222601   6.820   2.903  -0.037 -0.2732 -1.2313  0.3571
  396TIP3   OH222602   6.319   0.563   5.377  0.6048  0.7990  0.5759
  396TIP3    H122603   6.336   0.560   5.283 -2.8992 -2.7961 -0.2238
  396TIP3    H222604   6.243   0.620   5.386 -0.3481 -0.4793  0.8659
  397TIP3   OH222605   1.584   1.255   5.180  0.6000 -1.1022  0.3561
  397TIP3    H122606   1.597   1.341   5.140  1.6097 -1.2195  0.4258
  397TIP3    H222607   1.492   1.234   5.161 -0.7634  1.4974  3.3038
  398TIP3   OH222608   5.645   4.934   4.537  0.0622 -0.3413 -0.4650
  398TIP3    H122609   5.641   5.013   4.484 -1.1191 -0.2583 -0.2913
  398TIP3    H222610   5.636   4.965   4.628 -0.8611 -0.6896 -0.4245
  399TIP3   OH222611   3.895   0.465   3.012 -0.5273  0.0865 -0.3787
  399TIP3    H122612   3.843   0.407   3.068  0.7808 -1.3177 -0.5507
  399TIP3    H222613   3.940   0.523   3.073  0.2907 -0.9303  0.0318
  400TIP3   OH222614   1.649   6.024   2.945  0.4288  0.0644 -0.1233
  400TIP3    H122615   1.593   5.955   2.909  0.6870 -1.6547  2.4363
  400TIP3    H222616   1.730   5.979   2.968  1.3369  1.6554 -0.0695
  401TIP3   OH222617   1.604   0.831   0.896 -0.3067 -0.5641 -0.1581
  401TIP3    H122618   1.676   0.862   0.840  1.6432  1.2235  3.0255
  401TIP3    H222619   1.531   0.888   0.875  0.8796  1.1505  0.1549
  402TIP3   OH222620   0.493   4.158  13.081 -0.2303  0.2341  0.4620
  402TIP3    H122621   0.439   4.228  13.045 -0.1508  0.4604  0.7783
  402TIP3    H222622   0.541   4.124  13.006 -0.2649  0.5229  0.3072
  403TIP3   OH222623   6.631   1.665   4.593 -1.0318 -0.2965 -0.3118
  403TIP3    H122624   6.637   1.591   4.533 -0.1833 -0.0398 -0.5546
  403TIP3    H222625   6.688   1.732   4.556  0.0672 -0.3888  1.1349
  404TIP3   OH222626   1.533   3.663   5.335 -0.1821 -0.2772  0.4437
  404TIP3    H122627   1.542   3.723   5.409  0.1698 -1.4736  1.3928
  404TIP3    H222628   1.476   3.593   5.367 -0.4283 -0.5545 -0.5781
  405TIP3   OH222629   0.241   5.815   3.998  0.7049 -0.0937 -0.0445
  405TIP3    H122630   0.215   5.766   4.077 -0.6141  1.8183  0.7742
  405TIP3    H222631   0.164   5.810   3.941  1.3413 -0.7317 -0.8741
  406TIP3   OH222632   3.235   4.752   4.523 -0.1169  0.0411  0.0866
  406TIP3    H122633   3.323   4.788   4.533  0.5968 -1.0611 -1.7421
  406TIP3    H222634   3.232   4.678   4.584 -0.7224  1.5438  2.0009
  407TIP3   OH222635   3.907   6.771   1.551  0.4613 -0.7713 -0.4899
  407TIP3    H122636   3.973   6.738   1.490  0.9895 -0.5139 -0.0652
  407TIP3    H222637   3.943   6.854   1.583 -1.0657  0.5300 -1.9211
  408TIP3   OH222638   2.161   1.416   3.072 -0.2292  0.0174  0.1467
  408TIP3    H122639   2.087   1.384   3.123  0.3463 -0.0941  0.9186
  408TIP3    H222640   2.228   1.437   3.136  1.0214 -1.4020 -0.6102
  409TIP3   OH222641   3.118   3.564   2.160  0.2912  0.7358 -0.1716
  409TIP3    H122642   3.151   3.565   2.070  0.8591 -0.0937  0.0198
  409TIP3    H222643   3.190   3.599   2.213 -0.5537  2.6360 -0.1690
  410TIP3   OH222644   6.749   6.073   2.773  0.3934 -0.6327 -0.0524
  410TIP3    H122645   6.680   6.133   2.802  0.7138  1.1638 -2.6755
  410TIP3    H222646   6.831   6.121   2.790  0.7825 -1.1985 -0.2915
  411TIP3   OH222647   0.329   6.271   3.526 -0.3151  0.1466 -0.2401
  411TIP3    H122648   0.307   6.180   3.508 -0.0372 -0.0344  0.2908
  411TIP3    H222649   0.425   6.272   3.528 -0.3293  0.3082  0.4464
  412TIP3   OH222650   4.097   5.064   4.530 -0.3800  0.8129 -0.1750
  412TIP3    H122651   4.005   5.083   4.511 -0.4757  0.5283 -0.0032
  412TIP3    H222652   4.094   5.005   4.606 -0.2018 -1.6443 -1.9389
  413TIP3   OH222653   2.210   1.085   3.831 -0.5901  0.2320 -0.4589
  413TIP3    H122654   2.220   1.177   3.856  2.7527 -0.1328  0.0115
  413TIP3    H222655   2.248   1.080   3.744  1.6721 -1.0465  0.5145
  414TIP3   OH222656   1.427   0.524   6.298  0.0537  0.1218 -0.0668
  414TIP3    H122657   1.369   0.482   6.362 -1.6477  1.0172 -0.9297
  414TIP3    H222658   1.368   0.552   6.228  1.2438  2.7171 -0.1662
  415TIP3   OH222659   6.377   3.172   5.663 -0.1277 -0.3051 -0.2407
  415TIP3    H122660   6.407   3.254   5.623  1.5951 -0.9558 -0.3399
  415TIP3    H222661   6.412   3.175   5.752  0.0634 -0.9950 -0.2892
  416TIP3   OH222662   2.264   2.868   0.679  0.5397  0.3210 -0.0039
  416TIP3    H122663   2.247   2.776   0.700 -0.7662  0.0415 -2.0349
  416TIP3    H222664   2.221   2.917   0.749  0.8855 -0.5812  0.8743
  417TIP3   OH222665   1.842   4.521   3.328 -0.7215  0.3041  0.3254
  417TIP3    H122666   1.891   4.561   3.256 -1.5680  1.7091  0.4916
  417TIP3    H222667   1.908   4.480   3.382  0.0556  0.3083 -0.5890
  418TIP3   OH222668   4.961   5.256   3.525 -0.0294  0.4130 -0.2795
  418TIP3    H122669   4.872   5.237   3.555 -0.1373  0.4127 -0.5973
  418TIP3    H222670   4.954   5.260   3.430  0.2203  0.8792 -0.2817
  419TIP3   OH222671   6.599   6.692   5.740 -0.6072  0.4321  0.7611
  419TIP3    H122672   6.588   6.768   5.683  1.1795  0.8382  0.8887
  419TIP3    H222673   6.642   6.727   5.818  2.1219 -0.9416 -0.0019
  420TIP3   OH222674   5.231   1.215   5.218  0.2168  0.1208 -0.4423
  420TIP3    H122675   5.279   1.142   5.179  1.3438  0.2970  0.5225
  420TIP3    H222676   5.143   1.181   5.232  0.3360 -0.5805 -1.2900
  421TIP3   OH222677   2.678   6.774   9.510  0.2498  0.2375  0.3388
  421TIP3    H122678   2.589   6.806   9.525  0.5520  0.8587  0.8527
  421TIP3    H222679   2.669   6.679   9.506 -0.7085  0.3575 -1.4349
  422TIP3   OH222680   0.491   4.008  12.618  0.1926 -0.6826 -0.0085
  422TIP3    H122681   0.462   4.084  12.568 -0.7860 -0.7957  0.3548
  422TIP3    H222682   0.412   3.978  12.663  0.8234 -1.2150  0.7694
  423TIP3   OH222683   4.825   2.969  11.999 -0.6046 -0.3972  0.2378
  423TIP3    H122684   4.806   3.038  11.936 -0.7354  0.1866  0.9041
  423TIP3    H222685   4.768   2.988  12.073  0.0030 -0.7030  0.7943
  424TIP3   OH222686   0.398   2.912  14.238 -0.2408 -0.1985 -0.2173
  424TIP3    H122687   0.402   2.971  14.163 -0.5946 -0.6455 -0.5956
  424TIP3    H222688   0.417   2.968  14.313 -1.5964  0.6265 -0.4520
  425TIP3   OH222689   4.784   5.145  12.622  0.1179  0.2160 -0.3421
  425TIP3    H122690   4.875   5.135  12.648 -0.1371 -0.5334  0.3303
  425TIP3    H222691   4.758   5.229  12.659  0.1064 -0.2890  0.8648
  426TIP3   OH222692   2.718   4.692  12.520  0.3174  0.1454  0.1251
  426TIP3    H122693   2.786   4.720  12.582  1.0556 -0.5957 -0.3149
  426TIP3    H222694   2.749   4.606  12.489 -1.9755 -1.3442  1.6622
  427TIP3   OH222695   2.613   7.038  13.054  1.0617  0.2331  0.1522
  427TIP3    H122696   2.673   6.965  13.037  1.5493  0.8145 -0.7405
  427TIP3    H222697   2.671   7.114  13.063  0.5795  0.4935  1.2970
  428TIP3   OH222698   5.719   3.970  13.860  0.6991  0.3263  0.2398
  428TIP3    H122699   5.669   3.966  13.941 -0.8310  0.7483 -0.6371
  428TIP3    H222700   5.724   3.879  13.831 -0.6162  0.3760 -0.2385
  429TIP3   OH222701   0.810   0.216  13.418 -0.1922 -0.7595  0.2985
  429TIP3    H122702   0.903   0.226  13.438 -0.0122 -0.7969 -0.4948
  429TIP3    H222703   0.791   0.124  13.434  0.8610 -1.7359 -3.2061
  430TIP3   OH222704   2.051   1.231   9.939  0.2279 -0.5127  0.2097
  430TIP3    H122705   1.964   1.202   9.967 -0.2972 -0.2293 -1.0699
  430TIP3    H222706   2.073   1.176   9.865 -0.2028  1.3689 -1.4010
  431TIP3   OH222707   4.024   4.831  12.156 -0.1373  0.2159  0.0572
  431TIP3    H122708   4.084   4.775  12.205 -0.9575 -0.4980  0.2587
  431TIP3    H222709   4.011   4.785  12.073 -1.0566 -0.0595  0.3471
  432TIP3   OH222710   1.479   2.393  14.020 -0.0902  0.2988  0.4237
  432TIP3    H122711   1.391   2.363  14.041  0.2928 -1.7152 -0.6219
  432TIP3    H222712   1.466   2.481  13.983 -1.5982  0.2337  0.7415
  433TIP3   OH222713   0.680   5.151  11.894 -0.6184 -0.2985  0.3471
  433TIP3    H122714   0.757   5.100  11.870 -0.3396  0.5424 -0.6053
  433TIP3    H222715   0.656   5.119  11.981  1.2756 -0.0252  1.0021
  434TIP3   OH222716   4.537   0.601   9.748 -0.1564 -0.2593  0.1727
  434TIP3    H122717   4.595   0.544   9.798 -0.8330 -1.7796 -0.6896
  434TIP3    H222718   4.570   0.596   9.658  0.1706  1.2725  0.1803
  435TIP3   OH222719   2.190   2.891  13.658  0.1368  0.4243  0.2793
  435TIP3    H122720   2.139   2.930  13.587 -0.3027 -0.8466 -0.1308
  435TIP3    H222721   2.281   2.912  13.636 -0.1167  1.8262  0.4743
  436TIP3   OH222722   5.452   0.771  11.056  0.0443 -0.0300 -0.5746
  436TIP3    H122723   5.457   0.742  11.147  0.8636  0.0780 -0.5845
  436TIP3    H222724   5.425   0.692  11.007  0.8247 -0.4049 -0.4064
  437TIP3   OH222725   4.348   5.552  13.341  0.8535  0.1919  0.3376
  437TIP3    H122726   4.365   5.458  13.333 -0.5600  0.0876 -2.0499
  437TIP3    H222727   4.286   5.559  13.414  0.5086 -0.7738  0.1450
  438TIP3   OH222728   4.786   1.228  10.812  0.2922 -0.2158 -0.1613
  438TIP3    H122729   4.755   1.277  10.736 -0.1203  0.0751  0.1892
  438TIP3    H222730   4.756   1.279  10.887  0.5434 -0.5943  0.2011
  439TIP3   OH222731   4.713   2.455  13.856 -0.0681  0.0629 -0.4685
  439TIP3    H122732   4.770   2.473  13.931 -0.6081  0.9967 -0.2674
  439TIP3    H222733   4.681   2.366  13.870 -2.4844  1.1717  2.0122
  440TIP3   OH222734   0.047   7.181  11.349 -0.5883 -0.0834 -0.0615
  440TIP3    H122735   0.040   7.101  11.297  0.4537 -1.7712  2.2384
  440TIP3    H222736   0.137   7.182  11.381 -1.6096 -0.1134  3.1148
  441TIP3   OH222737   2.298   4.595  11.344  0.1355 -0.1179 -0.0160
  441TIP3    H122738   2.362   4.525  11.353  1.1195  0.6130 -1.0274
  441TIP3    H222739   2.261   4.606  11.432  1.0382 -0.8924  0.4734
  442TIP3   OH222740   6.119   6.815   9.707  0.1874 -0.2065 -0.6403
  442TIP3    H122741   6.042   6.867   9.683  0.0091 -0.3480 -0.3761
  442TIP3    H222742   6.166   6.803   9.624  0.3899  0.6304 -0.6549
  443TIP3   OH222743   1.999   3.931  10.870  0.1825 -0.1893 -0.1798
  443TIP3    H122744   1.914   3.913  10.830 -0.8118 -1.7112  2.3713
  443TIP3    H222745   2.012   3.858  10.932  2.7936  0.6400  0.3760
  444TIP3   OH222746   4.077   6.746  14.380 -0.2615  0.1290 -0.2550
  444TIP3    H122747   4.016   6.681  14.413 -0.7999  0.3918 -0.7140
  444TIP3    H222748   4.105   6.711  14.295  0.9180 -0.4225  0.3369
  445TIP3   OH222749   6.126   0.539  13.094 -0.1301 -0.5354  0.1926
  445TIP3    H122750   6.076   0.621  13.099 -2.1698 -1.7901  2.1374
  445TIP3    H222751   6.213   0.562  13.126  0.0963  1.3378 -1.5441
  446TIP3   OH222752   1.378   1.572   1.981  0.4701  0.1259 -0.4700
  446TIP3    H122753   1.462   1.552   2.024  0.6504 -0.8574 -1.2413
  446TIP3    H222754   1.334   1.487   1.974 -1.1220  0.7895  0.9603
  447TIP3   OH222755   6.412   6.700   4.341  0.0526  0.9118 -0.4587
  447TIP3    H122756   6.323   6.727   4.363 -0.0653  0.2019 -0.0071
  447TIP3    H222757   6.404   6.608   4.316  1.0032 -0.0430  2.3331
  448TIP3   OH222758   5.526   2.196  11.994  0.0037 -0.2000  0.3682
  448TIP3    H122759   5.439   2.182  12.032 -0.6991  0.3432 -0.9710
  448TIP3    H222760   5.510   2.250  11.917  1.5495 -0.0499  0.1216
  449TIP3   OH222761   6.558   0.116  11.874  0.6270  0.2029 -0.1505
  449TIP3    H122762   6.502   0.130  11.798  2.3148  1.3771 -1.2281
  449TIP3    H222763   6.542   0.024  11.898 -1.5313  0.4088 -0.5316
  450TIP3   OH222764   3.441   2.342  11.922 -0.4348 -0.7155  0.1070
  450TIP3    H122765   3.379   2.314  11.989 -1.2865 -1.0310 -0.7986
  450TIP3    H222766   3.389   2.396  11.862  0.2886 -0.5387 -0.3723
  451TIP3   OH222767   0.078   3.747  11.828  0.2109  0.2163  0.7541
  451TIP3    H122768   0.000   3.746  11.884  0.0943  0.4716  0.5961
  451TIP3    H222769   0.138   3.807  11.872 -0.0659  0.7887  0.3555
  452TIP3   OH222770   6.006   2.214  12.274  0.2615  0.3601  0.2056
  452TIP3    H122771   5.990   2.277  12.204 -0.2850 -0.4270 -0.3959
  452TIP3    H222772   5.957   2.248  12.349 -1.1644 -0.0500 -0.5083
  453TIP3   OH222773   2.552   5.087   9.949  0.8281 -0.5448 -0.3699
  453TIP3    H122774   2.538   5.081  10.044 -2.2591  1.8111 -0.5115
  453TIP3    H222775   2.561   4.996   9.921 -1.3199 -1.5919  1.8961
  454TIP3   OH222776   6.700   6.876   9.658  0.1690  0.1174 -0.0975
  454TIP3    H122777   6.765   6.844   9.720  0.5060  1.1573  0.1078
  454TIP3    H222778   6.624   6.820   9.671  0.8725 -0.8495 -0.0436
  455TIP3   OH222779   2.073   1.376  12.946 -0.4715 -0.6627  0.2803
  455TIP3    H122780   2.122   1.458  12.936  0.5544 -1.4362 -1.6992
  455TIP3    H222781   1.991   1.402  12.987  0.4252  1.1180  1.0653
  456TIP3   OH222782   5.622   1.647  11.261 -0.3051 -0.2536  0.6227
  456TIP3    H122783   5.697   1.701  11.287 -0.4987 -0.2282  1.1361
  456TIP3    H222784   5.661   1.577  11.209 -0.1878  1.1318 -1.2750
  457TIP3   OH222785   1.249   1.269  14.483 -0.0052  0.4359 -0.4883
  457TIP3    H122786   1.213   1.355  14.506 -0.3255  0.8411 -2.3392
  457TIP3    H222787   1.286   1.282  14.396  2.0355 -0.7378  0.1651
  458TIP3   OH222788   5.125   2.297  14.349  0.1154  0.0495 -0.0873
  458TIP3    H122789   5.118   2.202  14.350  0.2600  0.0387 -0.0309
  458TIP3    H222790   5.211   2.315  14.309 -0.0516  0.1637 -0.3961
  459TIP3   OH222791   5.854   5.788  12.834 -0.2536  0.1058 -0.1738
  459TIP3    H122792   5.924   5.733  12.798 -0.1046  0.1194  0.0934
  459TIP3    H222793   5.848   5.763  12.926 -1.9593 -1.3086 -0.6223
  460TIP3   OH222794   2.469   1.515   0.091  1.6344 -0.3565  0.0581
  460TIP3    H122795   2.387   1.550   0.057  0.8021 -1.6222  0.7194
  460TIP3    H222796   2.479   1.556   0.177  2.3724  0.7782 -0.5439
  461TIP3   OH222797   4.161   3.451   2.031 -0.0843  0.3834 -0.2861
  461TIP3    H122798   4.194   3.362   2.037 -2.7597 -0.8008 -1.3447
  461TIP3    H222799   4.235   3.503   2.001  1.6148 -1.3953  0.6346
  462TIP3   OH222800   2.134   0.727   9.275 -0.7712  0.1514 -0.0324
  462TIP3    H122801   2.152   0.820   9.263 -0.8694  0.1849  0.0742
  462TIP3    H222802   2.078   0.724   9.352  0.6097 -0.1451  0.9798
  463TIP3   OH222803   5.735   2.438   3.382  0.4869 -0.3144  0.2442
  463TIP3    H122804   5.709   2.441   3.474 -1.4914 -0.7797 -0.2629
  463TIP3    H222805   5.786   2.357   3.374  0.4734 -0.3896  0.8805
  464TIP3   OH222806   6.672   1.161  11.916  0.1366  0.3064  0.0509
  464TIP3    H122807   6.695   1.239  11.866  1.1470  0.4549  0.7364
  464TIP3    H222808   6.753   1.132  11.957 -0.0320 -1.5603 -0.7878
  465TIP3   OH222809   3.434   4.662  11.017 -0.4328 -0.2523 -0.1864
  465TIP3    H122810   3.520   4.639  11.050 -0.3315 -1.7202 -1.3982
  465TIP3    H222811   3.452   4.714  10.939 -0.6546 -0.2394 -0.2293
  466TIP3   OH222812   4.451   0.921  11.148  0.6893 -0.1272 -0.0753
  466TIP3    H122813   4.521   0.987  11.145 -0.2232  0.8931  0.3199
  466TIP3    H222814   4.485   0.848  11.097  1.3803  0.9933 -1.2880
  467TIP3   OH222815   3.674   6.121  10.107  0.3536  0.6436  0.0605
  467TIP3    H122816   3.590   6.107  10.151 -0.5209  1.6124 -1.2196
  467TIP3    H222817   3.699   6.035  10.075 -1.1122  0.6258 -1.1395
  468TIP3   OH222818   3.147   6.857  12.430  0.4343 -0.1268 -0.4420
  468TIP3    H122819   3.163   6.783  12.488  0.8417 -0.8811 -1.4786
  468TIP3    H222820   3.062   6.891  12.456  1.7952  1.3814  2.4999
  469TIP3   OH222821   2.443   6.334  10.932 -0.7980  0.1229 -0.4977
  469TIP3    H122822   2.504   6.260  10.937 -1.6321 -0.5583 -0.1949
  469TIP3    H222823   2.499   6.411  10.931  0.0455 -0.4360  0.9347
  470TIP3   OH222824   4.179   3.442  11.385 -0.1567 -0.1008  0.3114
  470TIP3    H122825   4.265   3.422  11.347 -0.0990  0.3160  0.2172
  470TIP3    H222826   4.120   3.443  11.309 -0.4135 -1.2550  0.4742
  471TIP3   OH222827   5.162   0.481  13.859 -0.1751  0.5681 -0.2334
  471TIP3    H122828   5.146   0.542  13.930  0.3696  1.5817 -0.9498
  471TIP3    H222829   5.160   0.535  13.780 -1.7094 -0.6746 -1.1022
  472TIP3   OH222830   6.611   2.972  10.534 -0.1864 -0.6926  0.6888
  472TIP3    H122831   6.652   2.958  10.449 -0.7100 -0.3320  0.3700
  472TIP3    H222832   6.623   3.065  10.552 -2.0526 -0.2536 -0.0712
  473TIP3   OH222833   5.931   6.285  11.047  0.0192 -0.0412  0.4181
  473TIP3    H122834   5.897   6.205  11.085 -0.2602 -0.5358 -0.8187
  473TIP3    H222835   5.896   6.286  10.958  0.9485  0.8742  0.0414
  474TIP3   OH222836   7.117   1.392   9.366  0.0141 -0.2629 -0.2584
  474TIP3    H122837   7.084   1.311   9.328 -1.3828  0.5184 -0.7717
  474TIP3    H222838   7.085   1.461   9.308 -0.5644  0.8182  1.2776
  475TIP3   OH222839   0.727   5.457  13.600 -0.2399 -0.7817 -0.0672
  475TIP3    H122840   0.681   5.462  13.684  0.4476 -0.5029  0.2957
  475TIP3    H222841   0.820   5.458  13.623 -0.0432 -0.1949 -0.8606
  476TIP3   OH222842   3.910   3.841  14.116 -0.0044 -0.2046 -0.6724
  476TIP3    H122843   3.859   3.769  14.080 -1.6067  0.7041 -0.3140
  476TIP3    H222844   3.896   3.914  14.055  0.6354  0.1545 -0.4050
  477TIP3   OH222845   2.344   6.493  12.672  0.4305  0.3114  0.6106
  477TIP3    H122846   2.266   6.456  12.713  0.0957  1.3197  0.8989
  477TIP3    H222847   2.411   6.489  12.741  0.2232  0.8146  0.8420
  478TIP3   OH222848   2.661   0.854   9.553  0.3058  0.4104  0.4512
  478TIP3    H122849   2.681   0.760   9.542  1.0181  0.7555 -1.6437
  478TIP3    H222850   2.742   0.898   9.526  0.0869  1.6579  1.7284
  479TIP3   OH222851   2.595   0.201   0.648 -0.1194  0.4743  0.2422
  479TIP3    H122852   2.624   0.113   0.625 -1.0000  0.3998 -0.6247
  479TIP3    H222853   2.518   0.188   0.702 -0.5256  0.7097 -0.2721
  480TIP3   OH222854   4.086   4.941  11.289 -0.2648 -0.3421  0.0231
  480TIP3    H122855   4.003   4.896  11.299 -0.2476 -0.3833 -0.0231
  480TIP3    H222856   4.143   4.901  11.355  0.1778 -1.3814 -0.9532
  481TIP3   OH222857   7.053   4.736  11.271  0.0234  0.3786 -0.3254
  481TIP3    H122858   7.028   4.676  11.341 -0.5420  0.6002 -0.3285
  481TIP3    H222859   7.133   4.698  11.234  0.8005  0.6858  0.9660
  482TIP3   OH222860   6.544   6.432  10.784 -0.5066  0.0275  0.5321
  482TIP3    H122861   6.464   6.476  10.810 -0.4710 -0.0323  0.7489
  482TIP3    H222862   6.580   6.397  10.866 -0.7895 -0.8258  0.3040
  483TIP3   OH222863   0.022   2.628  15.184  0.5940  0.2933  0.2703
  483TIP3    H122864  -0.001   2.571  15.257  1.2433  0.0761  0.3087
  483TIP3    H222865   0.082   2.576  15.130 -0.2206  0.2955 -0.6544
  484TIP3   OH222866   4.799   1.267  10.055 -0.3683  0.4149 -0.5158
  484TIP3    H122867   4.749   1.323  10.114  0.3567  0.5484 -0.0160
  484TIP3    H222868   4.773   1.178  10.080  0.5445  0.4344  0.5883
  485TIP3   OH222869   1.835   6.675  11.655  0.2084 -0.2036 -0.0328
  485TIP3    H122870   1.758   6.625  11.628 -0.8637  1.1516  0.4280
  485TIP3    H222871   1.888   6.612  11.703  0.1342 -1.5570 -1.6223
  486TIP3   OH222872   3.157   2.527  10.308 -0.2607  0.1534 -0.3057
  486TIP3    H122873   3.164   2.622  10.297 -0.4595  0.2625  0.4434
  486TIP3    H222874   3.221   2.491  10.247  2.3654  0.9045  1.8219
  487TIP3   OH222875   0.220   6.483  11.046  0.3574 -0.7058  0.0531
  487TIP3    H122876   0.229   6.518  11.135 -0.3766 -0.7789  0.1633
  487TIP3    H222877   0.233   6.559  10.990 -2.0603 -0.0079  0.3135
  488TIP3   OH222878   0.930   4.109   2.683 -0.2313  0.4421  0.4317
  488TIP3    H122879   0.951   4.168   2.755  1.3087 -0.9377  1.1958
  488TIP3    H222880   1.000   4.044   2.684  0.2355  0.6975 -2.7330
  489TIP3   OH222881   4.921   2.781  12.767 -0.4697 -0.5324  0.4861
  489TIP3    H122882   4.997   2.724  12.755 -1.0772 -1.0613 -1.1612
  489TIP3    H222883   4.848   2.730  12.731 -1.3011  0.6645  0.4327
  490TIP3   OH222884   3.202   4.054  10.716  0.2589 -0.1191 -0.4895
  490TIP3    H122885   3.125   4.102  10.747  1.9556  1.0630  2.3021
  490TIP3    H222886   3.228   4.000  10.791  2.8658  0.5102 -0.8296
  491TIP3   OH222887   0.095   0.597  10.838 -0.0967  0.2695  0.2633
  491TIP3    H122888   0.139   0.682  10.842 -0.6355  0.5553  0.2085
  491TIP3    H222889   0.046   0.591  10.920  3.1325 -1.7919  2.2455
  492TIP3   OH222890   4.209   6.497  11.760  0.4010 -0.1336  0.1835
  492TIP3    H122891   4.234   6.560  11.828 -3.4320  0.3745  1.3771
  492TIP3    H222892   4.224   6.542  11.678  0.1102  1.3883  0.9330
  493TIP3   OH222893   0.310   5.526  14.235 -0.0363  0.1442  0.2765
  493TIP3    H122894   0.375   5.456  14.244 -0.3544 -0.4289 -1.4169
  493TIP3    H222895   0.361   5.607  14.238  0.7306 -0.2785 -0.6075
  494TIP3   OH222896   4.153   5.271   2.902 -0.0439 -0.1620 -0.3231
  494TIP3    H122897   4.195   5.230   2.827 -0.6584 -0.0410 -0.7427
  494TIP3    H222898   4.195   5.231   2.978  1.4878  0.6442 -0.7060
  495TIP3   OH222899   4.404   5.289  12.390 -0.3552  0.3974 -0.9619
  495TIP3    H122900   4.418   5.294  12.485 -2.1325  0.0020 -0.6384
  495TIP3    H222901   4.324   5.340  12.376 -0.5352 -0.1929 -2.1339
  496TIP3   OH222902   1.340   4.603   9.309  0.0300  0.3794 -0.2475
  496TIP3    H122903   1.425   4.577   9.345 -1.6717 -1.6797  2.6864
  496TIP3    H222904   1.291   4.638   9.384 -1.9704  0.8858 -1.6991
  497TIP3   OH222905   1.730   6.657  10.500 -0.0449  0.8470  0.5892
  497TIP3    H122906   1.741   6.630  10.409 -1.4613  3.2028 -0.3864
  497TIP3    H222907   1.819   6.665  10.534  0.6209  2.1282 -1.3416
  498TIP3   OH222908   1.423   0.664   9.975 -0.0954  0.0185  0.4975
  498TIP3    H122909   1.366   0.737   9.954 -1.3155 -1.0057  0.1422
  498TIP3    H222910   1.433   0.616   9.892  2.1740  0.7393  0.2724
  499TIP3   OH222911   5.197   5.787  11.864 -0.3671  0.0363  0.1174
  499TIP3    H122912   5.184   5.692  11.856 -0.0838 -0.0491  0.5898
  499TIP3    H222913   5.282   5.803  11.824 -0.0566 -0.0321  0.7343
  500TIP3   OH222914   4.521   1.718  10.091  0.0054 -0.5047  0.1477
  500TIP3    H122915   4.480   1.735  10.006 -0.5552 -4.4392 -0.5600
  500TIP3    H222916   4.470   1.771  10.153 -0.7455  1.0469 -1.6845
  501TIP3   OH222917   6.924   6.497  14.079  0.1731 -0.4673 -0.4159
  501TIP3    H122918   6.914   6.429  14.012 -0.4966 -0.3845 -0.4118
  501TIP3    H222919   6.930   6.579  14.029  2.0681 -0.6089 -0.4697
  502TIP3   OH222920   2.949   3.824   9.674  0.7524 -0.4546 -0.2777
  502TIP3    H122921   2.918   3.794   9.589  1.7982 -0.4422 -0.6744
  502TIP3    H222922   2.957   3.919   9.665  1.5833 -0.5289 -0.4201
  503TIP3   OH222923   0.836   2.582   0.858 -0.3156 -0.7611 -0.0045
  503TIP3    H122924   0.841   2.509   0.796 -0.9138 -0.2327 -0.6954
  503TIP3    H222925   0.926   2.614   0.865 -0.2228 -0.8880 -0.5462
  504TIP3   OH222926   1.938   5.325  13.483  0.4110 -0.3999  0.1925
  504TIP3    H122927   2.017   5.274  13.466  0.0621 -0.9079  0.0636
  504TIP3    H222928   1.933   5.330  13.578  0.1661 -1.0740  0.2249
  505TIP3   OH222929   0.442   2.029  10.865 -0.0678 -0.2830  0.0216
  505TIP3    H122930   0.434   2.054  10.958  1.5923 -2.4109  0.8133
  505TIP3    H222931   0.357   1.991  10.844  0.2078 -1.8079  1.3999
  506TIP3   OH222932   3.204   0.560  13.108 -0.4451  0.6138  0.9049
  506TIP3    H122933   3.249   0.550  13.024  1.1829 -0.9253  1.8920
  506TIP3    H222934   3.185   0.471  13.136 -3.1006  1.1741  1.1370
  507TIP3   OH222935   3.751   2.170  14.907 -0.2712 -0.0099  0.0733
  507TIP3    H122936   3.808   2.240  14.939 -1.6187  1.8000 -1.2415
  507TIP3    H222937   3.676   2.172  14.967 -1.3540  1.2814 -1.2442
  508TIP3   OH222938   4.638   3.212  10.882  0.1066 -0.2140 -0.6371
  508TIP3    H122939   4.689   3.151  10.935 -1.5600 -1.8750 -0.8772
  508TIP3    H222940   4.600   3.273  10.946 -0.3215 -1.0177 -0.1166
  509TIP3   OH222941   0.892   2.589  12.074  0.0644  0.3693 -0.4236
  509TIP3    H122942   0.877   2.581  12.168  0.4880 -0.0197 -0.3821
  509TIP3    H222943   0.805   2.594  12.036 -0.2069 -1.8412 -0.2055
  510TIP3   OH222944   2.884   1.175   9.551 -0.7033 -0.0057  0.0109
  510TIP3    H122945   2.809   1.173   9.610 -0.2136  0.4886  0.6743
  510TIP3    H222946   2.895   1.268   9.529  0.7837  0.1826  1.3581
  511TIP3   OH222947   3.432   5.775   0.783 -0.5438  0.0151 -0.5024
  511TIP3    H122948   3.372   5.849   0.794 -0.9317  0.0256 -2.3158
  511TIP3    H222949   3.398   5.727   0.707 -0.9876 -2.7495  1.3219
  512TIP3   OH222950   2.066   1.061   9.728  0.2741 -0.2987  0.1474
  512TIP3    H122951   2.095   1.118   9.658 -0.1952  2.1095  1.8029
  512TIP3    H222952   1.989   1.016   9.692  0.6286  0.1230 -1.1860
  513TIP3   OH222953   0.278   3.845  12.724 -0.1113 -0.0706  0.6294
  513TIP3    H122954   0.254   3.788  12.797  2.3496  0.3662  1.8741
  513TIP3    H222955   0.249   3.797  12.646 -1.3474 -1.3092  1.7981
  514TIP3   OH222956   2.523   1.047  12.053 -0.0623 -0.3222 -0.1176
  514TIP3    H122957   2.447   1.006  12.094 -0.0372  1.3106  1.6967
  514TIP3    H222958   2.506   1.141  12.057  1.9092  0.0798  0.0838
  515TIP3   OH222959   0.871   4.079  14.793 -0.0634 -0.2541 -0.3247
  515TIP3    H122960   0.900   4.009  14.851  0.2381 -0.3523 -0.5953
  515TIP3    H222961   0.782   4.054  14.768  0.4607 -1.1388 -1.3505
  516TIP3   OH222962   6.530   1.493  12.297  0.6926 -0.0851  0.4449
  516TIP3    H122963   6.587   1.416  12.302  0.2530 -0.5473 -1.1642
  516TIP3    H222964   6.589   1.568  12.304  1.3495 -0.5676  0.1339
  517TIP3   OH222965   5.499   2.536  10.892 -0.4341 -0.0985 -0.7090
  517TIP3    H122966   5.475   2.626  10.914  1.0289  0.3081 -0.6565
  517TIP3    H222967   5.429   2.506  10.834 -1.8289  0.4762  0.5910
  518TIP3   OH222968   2.304   1.913  11.268 -0.1234  0.5139 -0.4883
  518TIP3    H122969   2.221   1.959  11.281 -0.0324  0.2793  1.0877
  518TIP3    H222970   2.328   1.881  11.355  1.5447  0.4322 -0.9448
  519TIP3   OH222971   5.717   0.242   3.512  0.3496  0.1181 -0.5757
  519TIP3    H122972   5.775   0.291   3.569 -1.6960 -0.7796  2.4988
  519TIP3    H222973   5.629   0.263   3.542 -0.7761 -2.0368 -2.0435
  520TIP3   OH222974   0.026   1.423  11.090 -0.0726 -0.1466  0.1062
  520TIP3    H122975  -0.050   1.421  11.032 -0.0940  1.3186  0.0662
  520TIP3    H222976   0.086   1.358  11.053 -0.4445  0.1497 -1.0597
  521TIP3   OH222977   5.168   4.632  10.001 -0.2783 -0.1882 -0.4282
  521TIP3    H122978   5.187   4.691  10.074  2.1947 -0.2068 -0.9429
  521TIP3    H222979   5.255   4.605   9.970 -1.2921 -3.4631 -0.7558
  522TIP3   OH222980   4.827   0.972  12.726  0.6788  0.2565 -0.1549
  522TIP3    H122981   4.905   0.920  12.745 -0.3661 -0.5012  2.4414
  522TIP3    H222982   4.755   0.909  12.727 -0.1363  1.1101 -1.4406
  523TIP3   OH222983   6.063   0.523  13.483 -0.3370  0.7683 -0.3443
  523TIP3    H122984   6.150   0.551  13.513 -0.1701 -1.4651  1.5315
  523TIP3    H222985   6.002   0.570  13.541 -0.2538  0.4897 -0.0265
  524TIP3   OH222986   0.417   2.224  12.547  0.2806 -0.1499  0.1508
  524TIP3    H122987   0.512   2.225  12.559  0.1246  1.5148  1.6273
  524TIP3    H222988   0.388   2.144  12.592  1.0817 -1.6568 -1.8421
  525TIP3   OH222989   2.125   1.764  10.071  0.1565 -0.5996  0.0890
  525TIP3    H122990   2.177   1.842  10.089  0.8174 -1.1518  0.6658
  525TIP3    H222991   2.035   1.789  10.093  0.4005 -0.0702  0.5022
  526TIP3   OH222992   0.013   2.476  13.537  0.3623 -0.2813  0.3368
  526TIP3    H122993  -0.045   2.531  13.590 -1.1138 -2.2877  0.9257
  526TIP3    H222994   0.101   2.501  13.564 -0.2304  1.8632  0.4634
  527TIP3   OH222995   0.522   1.441   1.879  0.4010  0.2614  0.3218
  527TIP3    H122996   0.455   1.372   1.881  1.5839 -0.9091  1.3197
  527TIP3    H222997   0.537   1.457   1.786 -1.6888  1.0060  0.0636
  528TIP3   OH222998   5.563   0.053  11.655  0.0040 -0.4984  0.3637
  528TIP3    H122999   5.486  -0.004  11.646  0.6932 -1.5214  0.7790
  528TIP3    H223000   5.636  -0.001  11.626  0.3515  1.1951 -2.2554
  529TIP3   OH223001   2.235   0.705  10.725  0.8161 -0.0622 -0.0951
  529TIP3    H123002   2.280   0.714  10.641  1.0668  0.0284  0.0465
  529TIP3    H223003   2.299   0.660  10.781  1.0618  0.8254  0.3637
  530TIP3   OH223004   6.775   3.345  10.858  0.2173  0.1987 -0.5638
  530TIP3    H123005   6.829   3.421  10.836 -2.1533  1.7014 -1.5809
  530TIP3    H223006   6.765   3.349  10.953  1.5842  0.0636 -0.3931
  531TIP3   OH223007   4.718   5.809  10.990  0.8016 -0.4284  0.4593
  531TIP3    H123008   4.767   5.891  10.995 -1.0643  0.8147 -0.4183
  531TIP3    H223009   4.629   5.836  10.969  0.0479 -2.6807  0.5139
  532TIP3   OH223010   0.175   2.556   3.404 -0.1540 -0.1600 -0.4725
  532TIP3    H123011   0.091   2.601   3.417 -0.3852 -0.6950 -0.0708
  532TIP3    H223012   0.155   2.487   3.341  0.2898  0.5332 -1.3939
  533TIP3   OH223013   3.583   6.777  12.257  0.4261 -0.3612  0.6788
  533TIP3    H123014   3.562   6.698  12.307 -3.3214 -0.1289 -0.1976
  533TIP3    H223015   3.502   6.796  12.209  1.8911  2.8274 -0.7825
  534TIP3   OH223016   4.472   0.641  10.435 -0.0123  0.0666  0.0856
  534TIP3    H123017   4.406   0.589  10.481  2.2637 -3.6504 -0.4111
  534TIP3    H223018   4.519   0.687  10.505 -0.6409 -0.4242  0.8520
  535TIP3   OH223019   1.007   5.518   9.857 -0.1768 -0.5798  0.4022
  535TIP3    H123020   0.912   5.510   9.850 -0.2626  0.6974 -0.1666
  535TIP3    H223021   1.039   5.506   9.767  0.1538 -0.5727  0.5163
  536TIP3   OH223022   5.625   5.778  14.365  0.0847 -0.0289  0.0610
  536TIP3    H123023   5.633   5.773  14.270  0.2494  2.2751 -0.0995
  536TIP3    H223024   5.663   5.696  14.397  1.8392  0.0090 -1.7680
  537TIP3   OH223025   0.707   6.524  14.148  0.3940  0.1691 -0.4013
  537TIP3    H123026   0.674   6.591  14.088 -0.1068 -0.0957 -0.4235
  537TIP3    H223027   0.802   6.529  14.139  0.3586  0.8383 -0.4424
  538TIP3   OH223028   5.170   5.554   9.194  0.2242 -0.8407 -0.6658
  538TIP3    H123029   5.130   5.596   9.270 -0.6054 -1.2667 -0.8549
  538TIP3    H223030   5.235   5.494   9.230  1.3599  0.5058 -0.3865
  539TIP3   OH223031   2.895   6.590  10.460 -0.1151  1.1573 -0.0029
  539TIP3    H123032   2.958   6.649  10.501 -0.0428  1.6539 -0.8042
  539TIP3    H223033   2.948   6.525  10.414 -0.1957  0.4535  0.8913
  540TIP3   OH223034   0.756   5.591  10.834 -0.3381  0.1271 -0.0352
  540TIP3    H123035   0.821   5.660  10.846 -0.7578  0.9525 -2.0326
  540TIP3    H223036   0.678   5.624  10.880  0.7511 -1.1905  2.9846
  541TIP3   OH223037   0.625   4.269  10.431  0.1748 -0.2056 -0.1828
  541TIP3    H123038   0.652   4.253  10.521  0.0045 -0.4282 -0.1723
  541TIP3    H223039   0.543   4.318  10.438  0.0071 -0.4786 -0.2156
  542TIP3   OH223040   5.730   1.927  10.948  0.0641 -0.1601 -0.6854
  542TIP3    H123041   5.675   1.999  10.919  1.2988  0.6448 -1.1313
  542TIP3    H223042   5.674   1.850  10.944 -0.7091  0.4480 -2.1942
  543TIP3   OH223043   2.538   6.423   9.595  0.0537  0.0915 -0.2534
  543TIP3    H123044   2.526   6.427   9.500  0.3158  0.7544 -0.2617
  543TIP3    H223045   2.488   6.496   9.629  1.8943  1.3438 -0.0844
  544TIP3   OH223046   4.801   6.384  11.221  0.1042  0.2240  0.1485
  544TIP3    H123047   4.721   6.431  11.245  1.5317  3.2192 -0.4079
  544TIP3    H223048   4.772   6.319  11.157 -2.0624  0.1313  1.1330
  545TIP3   OH223049   3.377   0.740   9.492 -0.3684 -0.0236 -0.1398
  545TIP3    H123050   3.383   0.835   9.498  0.4719  0.1682 -2.7273
  545TIP3    H223051   3.291   0.723   9.453  0.4903 -0.0917 -2.1259
  546TIP3   OH223052   1.908   1.125  11.249 -0.2766  0.0997 -0.0486
  546TIP3    H123053   1.954   1.042  11.241  0.4429  0.6753 -2.6707
  546TIP3    H223054   1.969   1.181  11.298  0.1868 -0.2530 -0.2190
  547TIP3   OH223055   6.572   4.495  12.988 -0.0736  0.5127 -0.0046
  547TIP3    H123056   6.644   4.554  12.965  1.2997 -0.8265  0.6754
  547TIP3    H223057   6.600   4.410  12.956 -1.2546 -0.0765  0.4943
  548TIP3   OH223058   4.407   3.032  12.407  0.2586  0.0286 -0.3603
  548TIP3    H123059   4.424   2.954  12.355  0.8982 -0.1133  0.0634
  548TIP3    H223060   4.447   3.015  12.492 -2.3947 -0.5350  0.8744
  549TIP3   OH223061   5.486   6.742  10.885  0.2985  0.2880 -0.6760
  549TIP3    H123062   5.491   6.683  10.961  0.7291 -0.2655 -1.1233
  549TIP3    H223063   5.495   6.684  10.809  0.9583  0.9545 -1.1199
  550TIP3   OH223064   2.961   1.511  10.316 -0.1295 -0.3471 -0.0560
  550TIP3    H123065   2.883   1.460  10.294 -0.7471  0.6568 -0.2606
  550TIP3    H223066   2.991   1.475  10.400  0.4467 -2.1521 -0.9721
  551TIP3   OH223067   0.199   0.065  10.367  0.1772  0.0309 -0.2145
  551TIP3    H123068   0.128   0.065  10.432 -3.0113 -1.2345 -3.3547
  551TIP3    H223069   0.215  -0.028  10.349  1.4166  0.3452 -0.8127
  552TIP3   OH223070   0.581   2.669  13.658  0.0968  0.5986 -0.7164
  552TIP3    H123071   0.533   2.657  13.575 -0.2262 -1.2129 -0.3289
  552TIP3    H223072   0.638   2.592  13.663 -0.5020  0.2284  1.1169
  553TIP3   OH223073   1.672   0.993  11.786  0.0739  0.5515  0.2570
  553TIP3    H123074   1.580   0.968  11.778 -0.4260  2.5677 -1.2711
  553TIP3    H223075   1.712   0.965  11.704  1.1391 -1.2662  1.3378
  554TIP3   OH223076   6.336   0.132  12.304  0.7201  0.1031  0.4636
  554TIP3    H123077   6.294   0.127  12.218  2.2954 -1.5612 -0.2856
  554TIP3    H223078   6.279   0.080  12.361 -0.4418  1.3835  0.5057
  555TIP3   OH223079   2.334   4.974  13.417 -0.0665  0.3114  0.0731
  555TIP3    H123080   2.289   5.013  13.491 -1.9558  1.8884 -1.8117
  555TIP3    H223081   2.290   4.890  13.403 -1.0715  0.9067 -0.4507
  556TIP3   OH223082   2.591   5.878  11.297  0.2126 -0.0108  0.0059
  556TIP3    H123083   2.657   5.864  11.229 -1.3941  0.9713 -1.8666
  556TIP3    H223084   2.543   5.795  11.302 -1.8980  0.8617 -2.7360
  557TIP3   OH223085   5.574   5.058   2.587 -0.4970 -0.0139  0.6526
  557TIP3    H123086   5.506   5.078   2.652  0.2281  0.7610  1.1950
  557TIP3    H223087   5.629   5.137   2.585  1.4891 -1.3032  1.6183
  558TIP3   OH223088   4.493   5.679  12.145  0.8181 -0.3492 -0.4503
  558TIP3    H123089   4.487   5.697  12.239  0.9865 -1.7909 -0.1497
  558TIP3    H223090   4.464   5.589  12.136 -0.6135  0.2326 -1.9929
  559TIP3   OH223091   1.544   5.408  10.192  0.2529  0.4615 -0.1636
  559TIP3    H123092   1.480   5.458  10.243  0.7566 -0.7500  1.8084
  559TIP3    H223093   1.603   5.473  10.156 -0.9511  1.4654 -0.3784
  560TIP3   OH223094   2.263   2.346  11.344  0.0311 -0.8320  0.1926
  560TIP3    H123095   2.328   2.298  11.293  1.7768  1.3535  0.2030
  560TIP3    H223096   2.268   2.309  11.432  0.8198 -1.1048  0.0371
  561TIP3   OH223097   0.223   3.927  13.290  0.2009 -0.1510  0.2995
  561TIP3    H123098   0.267   3.929  13.205 -0.9901  0.5419 -0.3273
  561TIP3    H223099   0.294   3.912  13.353  0.8377 -3.1556 -0.9635
  562TIP3   OH223100   0.453   5.950   1.742 -0.0010  0.5170 -0.0005
  562TIP3    H123101   0.401   6.030   1.741  0.5849  0.9558  1.4207
  562TIP3    H223102   0.395   5.883   1.779  0.6092  1.2051  2.4178
  563TIP3   OH223103   3.467   6.585  10.043  0.0289  0.2361 -0.2058
  563TIP3    H123104   3.484   6.677  10.063  0.7070  0.0916 -0.0684
  563TIP3    H223105   3.530   6.564   9.974  0.4493 -0.3441  0.3430
  564TIP3   OH223106   7.034   6.883   1.048 -0.5192 -0.4037 -0.0938
  564TIP3    H123107   7.096   6.882   1.121  0.1229 -2.7528 -0.5862
  564TIP3    H223108   7.005   6.974   1.042  0.2931  0.0739  2.3206
  565TIP3   OH223109   0.336   4.305  12.809 -0.5069  0.6812  0.3139
  565TIP3    H123110   0.426   4.335  12.795 -0.7562  1.3480  0.0692
  565TIP3    H223111   0.289   4.385  12.836 -1.1761  0.4815 -0.2519
  566TIP3   OH223112   5.273   4.164  10.422 -0.3065  0.2736 -0.0694
  566TIP3    H123113   5.224   4.157  10.504 -0.3823 -0.6946 -0.1888
  566TIP3    H223114   5.296   4.257  10.416  0.1296  0.2769  1.2883
  567TIP3   OH223115   0.639   5.343  11.099 -0.6885  0.1337  0.0210
  567TIP3    H123116   0.572   5.387  11.046 -2.2704 -0.7146  1.2050
  567TIP3    H223117   0.592   5.317  11.178  0.3977 -2.7731 -0.1777
  568TIP3   OH223118   4.205   5.337  11.079 -0.0381 -0.0497 -0.0381
  568TIP3    H123119   4.143   5.377  11.140 -0.6112 -1.8056  0.6011
  568TIP3    H223120   4.165   5.350  10.993  0.0193  1.1063  0.0911
  569TIP3   OH223121   2.634   5.964  12.336 -0.1502  0.1222  0.3835
  569TIP3    H123122   2.690   5.988  12.262  0.8331  0.3548  1.1706
  569TIP3    H223123   2.554   6.015  12.324  0.0754  0.3020 -0.3994
  570TIP3   OH223124   4.108   4.373  12.963 -0.0764  0.4084  0.0453
  570TIP3    H123125   4.061   4.290  12.957 -0.7053  0.8463 -1.7592
  570TIP3    H223126   4.077   4.413  13.045 -1.8869  0.0917 -0.4531
  571TIP3   OH223127   1.315   1.878  10.941 -0.1972  0.5205 -0.3806
  571TIP3    H123128   1.251   1.816  10.976 -1.1019 -0.1598 -3.0099
  571TIP3    H223129   1.284   1.964  10.971  0.2473 -0.1040  2.0683
  572TIP3   OH223130   3.556   0.551   9.938 -0.0237  0.4035  0.1670
  572TIP3    H123131   3.486   0.597   9.892  0.6280  0.3758 -0.8810
  572TIP3    H223132   3.610   0.513   9.868 -0.2963 -1.6024  0.9698
  573TIP3   OH223133   4.722   3.561   9.947 -0.0495  0.2876  0.1497
  573TIP3    H123134   4.736   3.545   9.854 -0.1640 -0.5094  0.2666
  573TIP3    H223135   4.799   3.612   9.974 -0.5526  1.5027 -0.6119
  574TIP3   OH223136   2.947   1.764  11.382 -0.0060 -0.4382 -0.5024
  574TIP3    H123137   2.894   1.741  11.458  1.1614  0.0255  0.4732
  574TIP3    H223138   2.908   1.846  11.350  1.3353  1.0778  1.4969
  575TIP3   OH223139   5.217   2.901  11.681 -0.2767 -0.4463 -0.2865
  575TIP3    H123140   5.233   2.864  11.594 -0.0116 -2.9983  0.7472
  575TIP3    H223141   5.254   2.989  11.677  0.3488 -0.7488 -2.5257
  576TIP3   OH223142   0.884   3.343  10.095  0.3276  0.3328 -0.5460
  576TIP3    H123143   0.962   3.389  10.066 -1.4549  3.2681 -1.0774
  576TIP3    H223144   0.811   3.399  10.068 -2.0536 -2.5709 -0.7290
  577TIP3   OH223145   1.681   3.787  13.748  0.1896 -0.4645 -0.2510
  577TIP3    H123146   1.771   3.760  13.735  0.4232 -0.0003  0.3634
  577TIP3    H223147   1.630   3.729  13.691  0.8288 -1.0259 -0.2585
  578TIP3   OH223148   6.335   4.239  13.949  0.0689  0.1491 -0.7662
  578TIP3    H123149   6.293   4.263  13.867 -1.1825 -2.4075 -0.9820
  578TIP3    H223150   6.417   4.197  13.922 -0.6789 -1.3523 -0.8270
  579TIP3   OH223151   7.017   1.075  10.935 -0.1918 -0.6638 -0.6576
  579TIP3    H123152   6.982   0.993  10.971 -1.5320  0.1245 -0.1116
  579TIP3    H223153   7.068   1.048  10.859 -1.4912 -1.9246 -1.1197
  580TIP3   OH223154   0.425   1.621  12.628  0.1445 -0.2398 -0.0591
  580TIP3    H123155   0.477   1.556  12.582  0.8543 -0.4539  1.0048
  580TIP3    H223156   0.400   1.578  12.710 -2.0549 -0.2946 -0.6765
  581TIP3   OH223157   4.997   4.216   9.670 -0.4614  0.1891 -0.0840
  581TIP3    H123158   5.065   4.236   9.734  0.5889  1.5517 -1.5544
  581TIP3    H223159   4.961   4.302   9.645 -1.7647 -0.4083 -0.3667
  582TIP3   OH223160   2.393   3.871  10.944 -0.1348 -0.1872 -0.2786
  582TIP3    H123161   2.395   3.941  11.008 -1.5834  0.7718 -1.2225
  582TIP3    H223162   2.378   3.791  10.995 -1.3930  0.5728  0.5751
  583TIP3   OH223163   5.960   5.665  13.578  0.1406  0.4707 -0.0990
  583TIP3    H123164   5.972   5.728  13.650 -0.4069 -1.4612  1.7854
  583TIP3    H223165   6.048   5.653  13.543  0.6592  0.5068  1.1209
  584TIP3   OH223166   6.329   0.609  11.255  0.3994  0.4150  0.1942
  584TIP3    H123167   6.236   0.611  11.235  0.6918  1.5728 -1.2802
  584TIP3    H223168   6.371   0.637  11.174  1.8538  3.1850  1.7720
  585TIP3   OH223169   1.104   3.266  13.000  0.0016  0.5229  0.7676
  585TIP3    H123170   1.093   3.179  13.038  0.1566  0.3884  0.5024
  585TIP3    H223171   1.122   3.250  12.908  1.6088  0.7646  1.0170
  586TIP3   OH223172   1.555   3.349  10.097  0.1557 -0.5846 -0.4454
  586TIP3    H123173   1.641   3.352  10.054  0.5241  0.0347  0.3010
  586TIP3    H223174   1.568   3.289  10.170  1.3116  2.7861  2.3788
  587TIP3   OH223175   1.858   1.996  11.380 -0.5738 -0.1624 -0.3501
  587TIP3    H123176   1.820   2.050  11.449 -0.7801 -0.4531 -0.2374
  587TIP3    H223177   1.835   1.906  11.404 -0.9975 -0.2361 -1.0136
  588TIP3   OH223178   2.214   1.661  11.554 -0.2250 -0.0375 -0.0272
  588TIP3    H123179   2.283   1.608  11.594 -0.4920  0.4438  1.0912
  588TIP3    H223180   2.200   1.733  11.614 -0.9890  0.4439 -0.7549
  589TIP3   OH223181   3.819   1.594  10.249  0.4232  0.2339  0.0761
  589TIP3    H123182   3.895   1.585  10.191  0.9418  0.2621  0.7331
  589TIP3    H223183   3.795   1.504  10.271 -0.2280  0.1976 -0.7470
  590TIP3   OH223184   0.165   0.377   9.519 -0.1226 -0.3452 -0.2952
  590TIP3    H123185   0.164   0.471   9.536  1.0360 -0.7954  2.9175
  590TIP3    H223186   0.092   0.342   9.570  1.8661 -1.5183  1.9814
  591TIP3   OH223187   7.140   2.479  12.112 -0.3163  0.0381 -0.1123
  591TIP3    H123188   7.075   2.527  12.061 -0.6206  0.8365  0.9791
  591TIP3    H223189   7.224   2.519  12.088 -0.5244  0.8630  0.4828
  592TIP3   OH223190   3.025   1.094   9.875  0.2689  0.4219 -0.2275
  592TIP3    H123191   2.971   1.165   9.841 -0.6927  0.0364  0.4604
  592TIP3    H223192   3.045   1.040   9.799  1.5648  1.7490 -0.8872
  593TIP3   OH223193   6.969   1.642  14.311 -0.2606  0.4358  0.2120
  593TIP3    H123194   6.994   1.560  14.353  1.2438 -0.1066 -1.5679
  593TIP3    H223195   6.968   1.621  14.217 -3.1730  1.6271 -0.1288
  594TIP3   OH223196   5.496   5.871  12.231 -0.3777  0.2631  0.3232
  594TIP3    H123197   5.470   5.783  12.259 -2.2405  0.6843  0.0584
  594TIP3    H223198   5.585   5.861  12.199 -0.6349 -1.5874  0.0945
  595TIP3   OH223199   2.415   4.578   0.141  0.5077 -0.0189  0.1184
  595TIP3    H123200   2.473   4.654   0.144  0.7736 -0.2234  0.1629
  595TIP3    H223201   2.329   4.613   0.165  0.0448  0.8018 -2.3841
  596TIP3   OH223202   1.752   0.533   0.372  0.6484 -0.7317 -0.1198
  596TIP3    H123203   1.785   0.533   0.462 -1.8173 -1.5190  0.8546
  596TIP3    H223204   1.798   0.460   0.330  1.6968 -0.4619  0.5149
  597TIP3   OH223205   0.964   6.448  10.244 -0.2530  0.0233 -0.0534
  597TIP3    H123206   0.980   6.540  10.266 -1.7372  0.3577 -0.2466
  597TIP3    H223207   1.008   6.399  10.313 -0.4964  0.9185  0.7753
  598TIP3   OH223208   3.006   5.210  11.541  0.2303 -0.1513  0.1407
  598TIP3    H123209   2.998   5.123  11.501  0.2443 -0.3895  0.6464
  598TIP3    H223210   2.919   5.248  11.533 -0.6116 -1.3463  2.4651
  599TIP3   OH223211   4.481   1.273  11.349  0.0580  0.5235 -0.2124
  599TIP3    H123212   4.468   1.292  11.256  0.5953  1.5311 -0.0959
  599TIP3    H223213   4.526   1.350  11.383  0.3879 -0.0841  0.7644
  600TIP3   OH223214   2.940   1.654  14.825  0.0597  0.0955  0.2645
  600TIP3    H123215   2.905   1.565  14.817  0.2340  0.0401  0.1116
  600TIP3    H223216   2.863   1.710  14.831 -0.0565 -0.1464  1.2735
  601TIP3   OH223217   6.657   2.028  11.766  0.1000 -0.0513  0.2307
  601TIP3    H123218   6.654   1.936  11.792  0.7610 -0.0765  0.2297
  601TIP3    H223219   6.750   2.051  11.768 -0.0420  0.5644  0.0459
  602TIP3   OH223220   1.265   1.327  12.778 -0.5174  0.2370 -0.1969
  602TIP3    H123221   1.314   1.385  12.837  0.5718 -0.4862 -0.3695
  602TIP3    H223222   1.260   1.244  12.824 -0.3004 -0.1194 -0.8059
  603TIP3   OH223223   3.879   0.938  14.183  0.4668 -0.2495  0.0260
  603TIP3    H123224   3.787   0.962  14.190  0.5714 -0.0824  0.8854
  603TIP3    H223225   3.900   0.952  14.090  0.0160  1.1620  0.1016
  604TIP3   OH223226   5.469   1.277  11.707 -0.0262 -0.7195  0.5586
  604TIP3    H123227   5.414   1.275  11.630  0.7760  2.4695 -0.2495
  604TIP3    H223228   5.408   1.269  11.781 -1.4284  0.9510 -0.3437
  605TIP3   OH223229   5.356   0.690  11.650 -0.0137  0.0316  0.4236
  605TIP3    H123230   5.274   0.654  11.684  0.4232  0.1715  1.7141
  605TIP3    H223231   5.423   0.631  11.683  0.3624 -0.6066 -1.3867
  606TIP3   OH223232   4.754   4.032  12.355 -0.6512 -0.0331  0.0229
  606TIP3    H123233   4.808   4.100  12.314 -0.3553 -0.4373 -0.2676
  606TIP3    H223234   4.668   4.073  12.364 -0.6331  0.1895 -0.6865
  607TIP3   OH223235   7.041   1.081  11.360  0.1189 -0.0379 -0.0287
  607TIP3    H123236   7.040   1.049  11.450  0.9204 -1.0930 -0.3726
  607TIP3    H223237   7.126   1.054  11.325 -0.5238 -0.4465 -1.3720
  608TIP3   OH223238   5.219   6.594  11.449  0.0521 -1.0452 -0.3646
  608TIP3    H123239   5.166   6.519  11.424 -2.8910  0.4393  0.9013
  608TIP3    H223240   5.189   6.665  11.391  0.5987 -0.1354  0.4299
  609TIP3   OH223241   6.783   2.708  14.643  0.0822 -0.6125 -0.5620
  609TIP3    H123242   6.866   2.725  14.600 -0.6060 -1.6808 -2.4476
  609TIP3    H223243   6.741   2.793  14.651  1.3404 -0.0598  0.4558
  610TIP3   OH223244   2.700   2.779  12.665  0.1911 -0.1818  0.1379
  610TIP3    H123245   2.647   2.700  12.653 -0.6599  0.5294 -1.0873
  610TIP3    H223246   2.669   2.839  12.597  0.9302  1.1513  0.9270
  611TIP3   OH223247   4.919   5.715  10.572 -0.1252  0.5696  0.3032
  611TIP3    H123248   4.831   5.726  10.608  0.9143  1.7814  2.6732
  611TIP3    H223249   4.928   5.786  10.508 -0.1620  1.7791  1.6062
  612TIP3   OH223250   2.374   4.517  15.075  0.2144 -0.4310 -0.2363
  612TIP3    H123251   2.458   4.547  15.108  0.6060 -1.4295 -0.3094
  612TIP3    H223252   2.391   4.489  14.986 -0.3701  0.0940 -0.5269
  613TIP3   OH223253   2.855   3.375  11.420 -0.3340 -0.1530 -0.6621
  613TIP3    H123254   2.916   3.335  11.358  2.0025  0.9728  0.7769
  613TIP3    H223255   2.846   3.311  11.490 -0.3982 -0.1258 -0.6456
  614TIP3   OH223256   4.852   1.584  12.526 -0.4775 -0.3266 -0.0083
  614TIP3    H123257   4.901   1.665  12.539  0.6273 -0.6619 -1.7473
  614TIP3    H223258   4.813   1.565  12.611  0.4868  1.2243  0.8119
  615TIP3   OH223259   6.166   1.448  11.827  0.2288 -0.4813  0.1287
  615TIP3    H123260   6.246   1.459  11.878  0.9378 -1.9669 -0.6029
  615TIP3    H223261   6.178   1.365  11.781 -2.6468 -1.9046  1.6900
  616TIP3   OH223262   6.150   2.731  11.411 -0.5096 -0.0097 -0.3322
  616TIP3    H123263   6.061   2.728  11.376 -0.2018 -1.5678 -1.0449
  616TIP3    H223264   6.197   2.789  11.352 -1.2364  1.6115  0.5986
  617TIP3   OH223265   5.262   4.709  13.222 -0.0199  0.4265 -0.1867
  617TIP3    H123266   5.232   4.782  13.169  0.1212  0.5657 -0.0754
  617TIP3    H223267   5.304   4.650  13.159 -0.0955  0.4610 -0.2687
  618TIP3   OH223268   3.091   6.513  14.715 -0.3491  0.5478  0.0765
  618TIP3    H123269   3.155   6.500  14.645 -0.8719  1.8932 -0.6757
  618TIP3    H223270   3.083   6.608  14.723 -2.9336  0.4540 -0.5315
  619TIP3   OH223271   4.619   0.813  11.933  0.5958 -0.0085  0.1572
  619TIP3    H123272   4.528   0.816  11.903 -0.4236  0.4944  3.0219
  619TIP3    H223273   4.661   0.748  11.876 -1.6793 -0.6808 -0.8583
  620TIP3   OH223274   7.198   5.515  13.114  0.1515 -0.2557  0.1628
  620TIP3    H123275   7.288   5.543  13.093 -0.4988  2.1977  0.3430
  620TIP3    H223276   7.209   5.452  13.185  1.7425  0.1002  0.2861
  621TIP3   OH223277   6.923   3.133  12.940  0.4817 -0.2098  0.3884
  621TIP3    H123278   6.932   3.062  12.877  0.1321 -0.2040  0.3332
  621TIP3    H223279   6.848   3.108  12.994  1.0116 -0.4056  1.0507
  622TIP3   OH223280   3.714   6.992  13.772  0.1957  0.2374 -0.1163
  622TIP3    H123281   3.701   7.082  13.801 -0.1712 -0.3144  1.4983
  622TIP3    H223282   3.635   6.970  13.723 -0.5288  0.2285  1.0186
  623TIP3   OH223283   4.897   1.070   0.071 -0.4558  0.0547  0.1560
  623TIP3    H123284   4.846   1.048   0.148 -1.2402  1.3130  0.0256
  623TIP3    H223285   4.925   0.986   0.036 -3.7241 -0.8433 -0.6432
  624TIP3   OH223286   4.133   6.040  12.546 -0.7772 -0.2369 -0.1713
  624TIP3    H123287   4.181   5.993  12.614  0.3609  0.8970 -0.1680
  624TIP3    H223288   4.159   5.997  12.464 -0.2610 -0.0387 -0.1112
  625TIP3   OH223289   5.293   1.565  11.696  0.3450 -0.9124 -0.1012
  625TIP3    H123290   5.278   1.648  11.742 -1.1618 -1.5353  0.5719
  625TIP3    H223291   5.328   1.592  11.610  0.4764  0.3780  0.3316
  626TIP3   OH223292   4.725   0.137   0.887 -0.3139  0.1789  0.0069
  626TIP3    H123293   4.795   0.075   0.907  0.0857  0.8008  0.5586
  626TIP3    H223294   4.768   0.223   0.884 -1.1970  0.7055  1.3741
  627TIP3   OH223295   0.283   0.834  14.564 -0.6384 -0.7286 -0.1466
  627TIP3    H123296   0.311   0.917  14.603 -3.0200  0.6231 -1.1570
  627TIP3    H223297   0.365   0.787  14.548  0.6411 -0.2103  3.7464
  628TIP3   OH223298   4.008   3.579  10.284 -0.7066  0.4824  0.6953
  628TIP3    H123299   3.924   3.554  10.322 -1.0775  1.6467  0.6590
  628TIP3    H223300   4.072   3.559  10.352 -0.7971 -1.7814  0.2024
  629TIP3   OH223301   1.127   4.474  12.638 -0.1064  0.0849  0.0885
  629TIP3    H123302   1.086   4.464  12.552  0.5710 -0.9417 -0.1381
  629TIP3    H223303   1.124   4.386  12.676 -0.9081  0.6449  1.3671
  630TIP3   OH223304   6.605   6.721  11.279 -0.6492 -0.1976 -0.3668
  630TIP3    H123305   6.650   6.725  11.195 -1.7660 -2.1273 -1.1149
  630TIP3    H223306   6.674   6.739  11.343  0.3411  0.7656 -1.6511
  631TIP3   OH223307   5.505   5.256  13.687  0.8969 -0.3001  0.6435
  631TIP3    H123308   5.474   5.166  13.676  0.9918 -0.5630  2.2953
  631TIP3    H223309   5.572   5.266  13.619 -0.4675 -0.7998 -0.8275
  632TIP3   OH223310   2.121   0.324  10.765 -0.5027 -0.3498  0.2063
  632TIP3    H123311   2.096   0.400  10.712 -0.0595  0.8207  1.6251
  632TIP3    H223312   2.214   0.338  10.784 -0.7327 -0.5922  1.5328
  633TIP3   OH223313   3.440   3.253  10.229 -0.2360  0.5494 -0.4715
  633TIP3    H123314   3.462   3.346  10.227  5.0033 -0.3844 -1.0564
  633TIP3    H223315   3.479   3.221  10.310  1.3540 -1.6206 -1.9677
  634TIP3   OH223316   3.210   4.414  13.728 -0.4018 -0.9198  0.4408
  634TIP3    H123317   3.280   4.370  13.776  1.5517  0.1827 -1.2479
  634TIP3    H223318   3.182   4.350  13.662 -1.2674 -1.4910  1.3450
  635TIP3   OH223319   1.443   2.927  10.221  0.2591 -0.2225 -0.2121
  635TIP3    H123320   1.504   2.897  10.154  0.3404 -0.5133 -0.0121
  635TIP3    H223321   1.357   2.902  10.188  0.4668 -3.0574  1.0982
  636TIP3   OH223322   2.576   1.923  11.129 -0.3519  0.1520 -0.1273
  636TIP3    H123323   2.512   1.881  11.072 -2.0673  0.8449  1.1983
  636TIP3    H223324   2.582   1.865  11.205 -0.1291  0.5696  0.1782
  637TIP3   OH223325   5.072   3.073   9.442 -0.3287 -0.3031 -0.4020
  637TIP3    H123326   5.036   3.033   9.521 -0.1571  1.6222  0.7050
  637TIP3    H223327   5.165   3.048   9.443 -0.5378 -1.1227 -0.5691
  638TIP3   OH223328   5.246   5.867   9.131  0.2855 -0.1840 -0.5398
  638TIP3    H123329   5.239   5.957   9.100 -0.0353  0.5249  1.4417
  638TIP3    H223330   5.158   5.846   9.164  0.8526 -0.5289  0.7810
  639TIP3   OH223331   2.504   4.357  11.410 -0.0788 -0.2270  0.3900
  639TIP3    H123332   2.574   4.308  11.453 -0.6247 -2.4720 -1.0860
  639TIP3    H223333   2.501   4.321  11.321 -2.6374  0.2905  0.1982
  640TIP3   OH223334   2.883   7.026  13.310 -0.7447  0.5483 -0.1955
  640TIP3    H123335   2.965   7.046  13.355 -0.2310 -0.3502 -0.6962
  640TIP3    H223336   2.826   6.991  13.378  0.5917 -2.4196 -0.4424
  641TIP3   OH223337   2.684   5.761   9.981 -0.0611  0.6392 -0.3311
  641TIP3    H123338   2.617   5.716   9.929 -1.3199  0.9933  0.9236
  641TIP3    H223339   2.748   5.693  10.001 -1.0297 -0.1882  0.0539
  642TIP3   OH223340   5.205   5.735  15.242 -0.3682  0.2335  0.3692
  642TIP3    H123341   5.190   5.829  15.247 -2.3737 -0.0998  1.7439
  642TIP3    H223342   5.189   5.703  15.331 -1.6444 -1.6378 -0.4696
  643TIP3   OH223343   3.185   3.325  10.032 -0.3908  0.2120 -0.6245
  643TIP3    H123344   3.144   3.409  10.007  1.1798  0.6624 -1.8831
  643TIP3    H223345   3.278   3.345  10.037 -0.1777 -1.0365  1.0631
  644TIP3   OH223346   4.371   3.981  10.111 -0.3432  0.0322 -0.0721
  644TIP3    H123347   4.305   3.956  10.047  0.8276 -2.4230 -0.4163
  644TIP3    H223348   4.349   3.931  10.189  0.2772  0.3045  0.2807
  645TIP3   OH223349   2.641   5.868   0.141 -0.4416 -0.1849  0.1609
  645TIP3    H123350   2.709   5.827   0.088  0.8862  0.0698  1.5979
  645TIP3    H223351   2.576   5.898   0.077  1.1685  0.2743 -1.3425
  646TIP3   OH223352   0.450   2.687  11.206 -0.1864 -0.3112 -0.5599
  646TIP3    H123353   0.455   2.652  11.294 -1.5069 -0.4063 -0.4998
  646TIP3    H223354   0.445   2.610  11.149 -0.0557 -0.2488 -0.6555
  647TIP3   OH223355   6.916   5.931  10.721  0.4881 -0.3542  0.2751
  647TIP3    H123356   6.828   5.899  10.735 -0.4713  1.6987 -0.5705
  647TIP3    H223357   6.956   5.868  10.661 -1.0348 -0.4167 -0.7309
  648TIP3   OH223358   0.540   1.212   0.146  0.3347  0.3198 -0.2069
  648TIP3    H123359   0.541   1.280   0.214  1.3572  0.1930 -0.0870
  648TIP3    H223360   0.533   1.261   0.064  1.4578  0.6091 -0.1464
  649TIP3   OH223361   6.302   3.851   0.713  0.0057 -0.4250  0.5992
  649TIP3    H123362   6.208   3.854   0.693  0.3219  2.4483 -1.0029
  649TIP3    H223363   6.339   3.798   0.643 -0.1962  0.2478 -0.0267
  650TIP3   OH223364   6.329   6.732  13.009  0.2884 -0.2326  0.1661
  650TIP3    H123365   6.385   6.749  13.085 -0.4435  1.4399  0.3733
  650TIP3    H223366   6.246   6.774  13.030  0.2001  0.6591 -1.7192
  651TIP3   OH223367   4.096   1.368  11.291  0.0840 -0.2323 -0.5889
  651TIP3    H123368   4.032   1.406  11.231 -0.5692 -1.0625 -0.4261
  651TIP3    H223369   4.181   1.396  11.256 -0.3386  0.5286 -1.0417
  652TIP3   OH223370   3.928   0.013  12.037 -0.6307  0.3055 -0.1539
  652TIP3    H123371   3.857   0.031  12.099 -0.7765  1.6193 -0.6643
  652TIP3    H223372   3.959  -0.074  12.060 -1.1265  0.4982  1.3409
  653TIP3   OH223373   1.880   6.507   9.585 -1.1084 -0.8990  0.1200
  653TIP3    H123374   1.809   6.452   9.620 -2.0762  0.0457 -0.3089
  653TIP3    H223375   1.844   6.543   9.504  0.5611 -1.8732 -1.0945
  654TIP3   OH223376   5.172   1.158  14.104 -0.0133 -0.2901  0.0018
  654TIP3    H123377   5.216   1.215  14.167 -0.8054  0.4538 -0.0948
  654TIP3    H223378   5.208   1.183  14.019 -3.3512  3.2761 -0.6686
  655TIP3   OH223379   5.066   2.922   9.681  0.2728 -0.0811 -0.3760
  655TIP3    H123380   5.075   2.828   9.664  0.7157  0.0890 -1.1231
  655TIP3    H223381   5.149   2.947   9.722  0.4220  0.1063 -0.7841
  656TIP3   OH223382   3.554   4.390  11.243 -0.5128 -0.3045 -0.3849
  656TIP3    H123383   3.583   4.412  11.155  0.7147 -0.0891  0.0489
  656TIP3    H223384   3.543   4.475  11.286 -0.8581 -0.4150 -0.2544
  657TIP3   OH223385   2.439   0.084  12.216  0.2891  0.1481 -0.0980
  657TIP3    H123386   2.362   0.051  12.263  1.0065 -0.2962  0.7957
  657TIP3    H223387   2.427   0.180  12.215 -0.2113  0.0918  0.1202
  658TIP3   OH223388   4.046   4.195  10.178  0.0459 -0.1586  0.1673
  658TIP3    H123389   4.097   4.270  10.147  0.8613 -0.9902 -0.5645
  658TIP3    H223390   4.107   4.146  10.234 -0.4469 -0.3418  0.5547
  659TIP3   OH223391   2.596   4.453   3.066  0.5197 -0.0224 -0.4065
  659TIP3    H123392   2.518   4.483   3.021  0.3706 -1.9154 -1.5035
  659TIP3    H223393   2.572   4.368   3.102  1.6669 -0.0268  0.4135
  660TIP3   OH223394   2.728   3.573  10.557  0.9027  0.4901 -0.2029
  660TIP3    H123395   2.817   3.604  10.578  1.2580  0.6543 -1.7994
  660TIP3    H223396   2.682   3.574  10.641  2.3335  0.6438  0.6238
  661TIP3   OH223397   2.015   1.950  14.115  0.6028 -0.3236 -0.0231
  661TIP3    H123398   1.927   1.956  14.077  1.0456 -0.4321 -1.1241
  661TIP3    H223399   2.035   1.856  14.112  1.1947 -0.1787 -0.8510
  662TIP3   OH223400   3.870   3.235  15.182 -0.2015 -0.0623  0.6857
  662TIP3    H123401   3.880   3.306  15.244  1.6542 -0.6444  1.0992
  662TIP3    H223402   3.955   3.227  15.139 -0.6062 -1.4924  0.0723
  663TIP3   OH223403   1.398   5.894   0.717  0.5236 -0.6138  0.0265
  663TIP3    H123404   1.454   5.874   0.642  0.2307  0.8952 -0.6275
  663TIP3    H223405   1.457   5.929   0.783  0.6608 -1.1331  0.1804
  664TIP3   OH223406   2.641   7.046   0.793 -0.6612 -0.4323 -0.6060
  664TIP3    H123407   2.676   7.120   0.844 -0.9027 -0.3852 -0.5064
  664TIP3    H223408   2.560   7.022   0.839 -1.8892  0.8111 -2.0129
  665TIP3   OH223409   2.930   2.972  11.810  0.2714 -0.2870  0.7043
  665TIP3    H123410   3.000   2.982  11.745 -0.6602 -0.8256 -0.4090
  665TIP3    H223411   2.882   2.894  11.783 -1.3732  0.6274  0.8470
  666TIP3   OH223412   6.496   2.800  14.271 -0.1177 -0.3419  0.1055
  666TIP3    H123413   6.489   2.857  14.194  3.1031 -0.7512 -0.6538
  666TIP3    H223414   6.578   2.827  14.313 -0.6434 -1.6679  2.1260
  667TIP3   OH223415   1.518   0.731  13.907  0.0918 -0.1725  0.0619
  667TIP3    H123416   1.581   0.659  13.905  0.1016 -0.1530 -0.2955
  667TIP3    H223417   1.536   0.781  13.828  0.8583  0.8917  0.8887
  668TIP3   OH223418   5.703   5.079  14.137  0.0578 -0.2220  0.0523
  668TIP3    H123419   5.716   5.101  14.045 -0.4548  1.0390  0.2487
  668TIP3    H223420   5.780   5.113  14.181  0.3166 -0.8506  0.0911
  669TIP3   OH223421   3.298   2.645  12.083  0.0044 -0.1831 -0.0887
  669TIP3    H123422   3.280   2.722  12.138 -2.3047 -1.2411  0.8002
  669TIP3    H223423   3.393   2.639  12.080  0.2243  1.4755  1.6116
  670TIP3   OH223424   0.421   1.262  11.827 -0.6659  0.6724 -0.5667
  670TIP3    H123425   0.436   1.330  11.761 -0.0082  2.2069  1.1114
  670TIP3    H223426   0.392   1.309  11.905  0.6202 -0.8860  0.9119
  671TIP3   OH223427   3.918   1.675   1.029 -1.2983  0.1072  0.1062
  671TIP3    H123428   3.829   1.658   0.999 -1.0275 -0.7744 -0.2246
  671TIP3    H223429   3.964   1.709   0.953 -1.2100  0.0498  0.1333
  672TIP3   OH223430   3.848   5.572  10.405 -1.1693 -0.1387  0.2493
  672TIP3    H123431   3.936   5.605  10.426  0.0656 -2.0542 -1.4970
  672TIP3    H223432   3.806   5.646  10.361  0.7122 -0.0190 -1.5609
  673TIP3   OH223433   1.996   1.405  14.787  0.0906  0.6205 -0.2650
  673TIP3    H123434   1.997   1.408  14.691 -2.4584 -0.6215 -0.4139
  673TIP3    H223435   1.938   1.476  14.813 -1.8537 -1.0331  0.1143
  674TIP3   OH223436   0.278   5.051   0.020 -0.4385  0.5025 -0.2899
  674TIP3    H123437   0.253   5.082  -0.067 -2.1927  0.1652  0.0559
  674TIP3    H223438   0.327   4.970   0.003 -1.0151  0.2828 -0.9720
  675TIP3   OH223439   3.361   3.587   9.750  0.2176  0.4083 -0.2716
  675TIP3    H123440   3.432   3.619   9.695  2.9970  0.3580  2.9642
  675TIP3    H223441   3.370   3.491   9.746  2.1975  0.3983  2.1202
  676TIP3   OH223442   0.088   0.236  13.822 -0.7338 -0.4149 -0.2219
  676TIP3    H123443   0.080   0.149  13.783  2.2777 -1.0986  0.4847
  676TIP3    H223444   0.112   0.293  13.749  1.0558 -0.9583 -0.1051
  677TIP3   OH223445   1.044   2.613   2.169 -0.0543 -0.0722  0.3705
  677TIP3    H123446   1.018   2.615   2.077  1.2568 -1.1033 -0.0578
  677TIP3    H223447   1.089   2.696   2.184 -1.1260  0.5245  0.3722
  678TIP3   OH223448   6.795   2.194  12.042  0.4496  0.5245  0.4129
  678TIP3    H123449   6.876   2.238  12.015 -0.3693  1.4524 -0.6221
  678TIP3    H223450   6.790   2.210  12.137  2.5615 -1.4370  0.9395
  679TIP3   OH223451   0.221   4.387  10.704  0.5911 -0.3374 -0.4381
  679TIP3    H123452   0.292   4.323  10.715  0.2240 -0.6838 -0.0214
  679TIP3    H223453   0.187   4.371  10.616  1.5931  0.4176 -0.9779
  680TIP3   OH223454   5.067   0.110   9.874 -0.1260  0.2143  0.3893
  680TIP3    H123455   5.084   0.203   9.858  0.3344  0.2399  1.0061
  680TIP3    H223456   5.152   0.073   9.896 -0.1783 -0.5113 -0.5335
  681TIP3   OH223457   2.728   2.064  11.685 -0.4519  0.2590 -0.1684
  681TIP3    H123458   2.822   2.059  11.667 -0.3418 -0.6069  0.5679
  681TIP3    H223459   2.696   2.132  11.626  0.6883  0.7804 -0.2182
  682TIP3   OH223460   1.510   3.041  14.111  0.4471 -0.0491 -0.1503
  682TIP3    H123461   1.443   3.067  14.048  0.3444  3.3263  1.1949
  682TIP3    H223462   1.582   3.009  14.056 -0.7964 -0.1605 -1.8025
  683TIP3   OH223463   3.093   0.868  10.116 -0.2880 -0.6758  0.4618
  683TIP3    H123464   3.079   0.951  10.160 -0.3294  0.0400 -0.8459
  683TIP3    H223465   3.028   0.866  10.046 -0.3248 -1.8327  0.5083
  684TIP3   OH223466   1.093   4.998  12.627 -0.2837  0.4007  0.0818
  684TIP3    H123467   0.999   4.981  12.630 -0.2262 -0.0092 -0.3154
  684TIP3    H223468   1.103   5.086  12.663 -0.7087  0.0422  1.1311
  685TIP3   OH223469   6.067   1.335  11.055  0.0063  0.0450 -0.4070
  685TIP3    H123470   6.103   1.246  11.055  0.5784  0.2350 -2.1672
  685TIP3    H223471   6.139   1.390  11.086 -0.2898 -0.0838  0.5135
  686TIP3   OH223472   1.765   4.456  14.444 -0.2508 -0.3607  0.1574
  686TIP3    H123473   1.770   4.419  14.532 -0.9728 -0.2680  0.2489
  686TIP3    H223474   1.702   4.528  14.453  0.9921  0.7881 -0.0524
  687TIP3   OH223475   3.071   4.824  14.027 -0.2910  0.1057  0.2893
  687TIP3    H123476   2.999   4.775  13.986 -0.3869  0.0836  0.4853
  687TIP3    H223477   3.147   4.768  14.014 -0.1408  0.5073 -0.6582
  688TIP3   OH223478   1.570   0.693  10.518  0.0736  0.5200 -0.0378
  688TIP3    H123479   1.562   0.776  10.565  0.3340  0.2284  0.5295
  688TIP3    H223480   1.576   0.626  10.586  2.3435  0.2539 -0.4195
  689TIP3   OH223481   0.284   5.951  12.785 -0.1945 -0.6954  0.1976
  689TIP3    H123482   0.278   5.862  12.819  0.0078 -0.8199 -0.0915
  689TIP3    H223483   0.219   6.000  12.836 -1.0812 -1.2288 -0.3844
  690TIP3   OH223484   6.407   7.196  10.646  0.4505  0.0148  0.3048
  690TIP3    H123485   6.358   7.167  10.723 -0.0812  0.3973  0.1165
  690TIP3    H223486   6.447   7.117  10.612  0.6960 -0.1609  0.9754
  691TIP3   OH223487   6.952   1.110  14.652  0.0016 -0.2594  0.1655
  691TIP3    H123488   6.986   1.058  14.579  1.1435  0.8723 -0.1368
  691TIP3    H223489   6.895   1.049  14.700  0.8933 -1.6334 -0.4532
  692TIP3   OH223490   6.633   0.493   1.858  0.0308  0.6585 -0.0272
  692TIP3    H123491   6.565   0.508   1.791  1.3511  0.8143 -1.3913
  692TIP3    H223492   6.599   0.535   1.937 -1.6580  0.3324 -0.5412
  693TIP3   OH223493   6.964   4.283  12.940  0.0246 -0.9678 -0.8137
  693TIP3    H123494   6.977   4.345  13.012 -0.8985 -0.9041 -0.6861
  693TIP3    H223495   7.014   4.205  12.966 -0.0195 -0.8195 -0.2704
  694TIP3   OH223496   0.117   5.079  11.236 -0.0687  0.2204 -0.0015
  694TIP3    H123497   0.037   5.052  11.280 -0.5276  1.0580 -0.2822
  694TIP3    H223498   0.113   5.175  11.235 -0.1744  0.2424 -2.0063
  695TIP3   OH223499   5.237   3.564   0.361  0.0911  0.1124  0.6268
  695TIP3    H123500   5.249   3.619   0.439  1.2208  1.1186 -0.2166
  695TIP3    H223501   5.321   3.569   0.315  0.4413 -2.7825  0.7606
  696TIP3   OH223502   5.454   5.855  10.653  0.4509  0.5725  0.0973
  696TIP3    H123503   5.539   5.842  10.610 -0.6839 -0.4410 -1.9487
  696TIP3    H223504   5.396   5.885  10.584 -0.9887  0.8783  1.3838
  697TIP3   OH223505   3.632   2.697   1.337 -0.4313  0.4969  0.4937
  697TIP3    H123506   3.662   2.698   1.246 -1.5629  1.0125  0.1083
  697TIP3    H223507   3.654   2.610   1.368  1.0887  0.7208  0.1162
  698TIP3   OH223508   3.108   6.528  10.255  0.4273  0.1376  0.2502
  698TIP3    H123509   3.160   6.605  10.277 -0.7418  1.2100 -0.5459
  698TIP3    H223510   3.042   6.561  10.193 -2.9285 -0.4609  3.1496
  699TIP3   OH223511   6.385   5.545  13.332  0.0280 -0.2803 -0.2349
  699TIP3    H123512   6.329   5.552  13.410  0.3469  1.0916 -0.1129
  699TIP3    H223513   6.407   5.452  13.328  0.7859 -0.2584  1.8830
  700TIP3   OH223514   3.283   1.134   9.976  0.6646 -0.0283 -0.2062
  700TIP3    H123515   3.196   1.130   9.935  0.2001  0.0721  0.7518
  700TIP3    H223516   3.266   1.163  10.066  1.8455  1.7165 -0.4870
  701TIP3   OH223517   3.480   1.535  14.318  0.1725 -0.0892 -0.0261
  701TIP3    H123518   3.449   1.598  14.384  1.3640 -0.5252  0.9881
  701TIP3    H223519   3.501   1.456  14.368 -1.7250 -1.4878 -1.3469
  702TIP3   OH223520   1.079   1.412   9.570 -0.2256 -0.2517 -0.0868
  702TIP3    H123521   1.120   1.328   9.549 -1.3831 -0.8565 -0.0265
  702TIP3    H223522   1.148   1.463   9.612 -0.0571 -1.9786  1.8961
  703TIP3   OH223523   3.901   3.219  12.472 -0.1158 -0.3832 -0.6024
  703TIP3    H123524   3.957   3.246  12.399 -0.3479 -0.3727 -0.7771
  703TIP3    H223525   3.937   3.265  12.548 -1.0352  1.1304 -1.0342
  704TIP3   OH223526   1.438   4.950   0.055 -0.0615  0.4484 -0.1988
  704TIP3    H123527   1.482   4.875   0.094 -1.8001  0.3579  1.7477
  704TIP3    H223528   1.509   5.011   0.033  1.3211 -1.4507 -1.2504
  705TIP3   OH223529   1.930   6.748  10.896 -0.0597 -0.4297 -0.0277
  705TIP3    H123530   1.903   6.812  10.961  1.6002  0.0511  0.2432
  705TIP3    H223531   1.887   6.776  10.815  1.4459  1.7031 -0.1641
  706TIP3   OH223532   6.970   2.160   0.638  0.2596 -0.4380  0.3448
  706TIP3    H123533   7.022   2.236   0.610 -0.1347  0.2569  1.4025
  706TIP3    H223534   7.035   2.092   0.656  0.5757 -0.6069 -1.2739
  707TIP3   OH223535   6.098   4.676  10.124  0.5317  0.2379 -0.2132
  707TIP3    H123536   6.055   4.728  10.192  0.3921  1.2515 -1.0492
  707TIP3    H223537   6.115   4.591  10.166 -0.5212  0.4718  0.7387
  708TIP3   OH223538   6.553   1.905  10.456 -0.3920 -0.3210  0.2134
  708TIP3    H123539   6.600   1.879  10.377 -0.9176  0.8321 -0.5046
  708TIP3    H223540   6.494   1.975  10.427 -1.2821 -0.5330  1.4374
  709TIP3   OH223541   4.037   3.271  12.248  0.5743 -0.3321 -0.0729
  709TIP3    H123542   3.951   3.310  12.232 -0.2450 -0.9556  2.3102
  709TIP3    H223543   4.100   3.337  12.220 -0.6804  0.3676 -1.3404
  710TIP3   OH223544   1.133   4.009  10.846  0.1090  0.4022  0.0956
  710TIP3    H123545   1.187   4.075  10.801  2.6221 -1.1904  0.5586
  710TIP3    H223546   1.123   4.043  10.934 -0.0909  0.9685 -0.1413
  711TIP3   OH223547   3.638   3.750   0.045 -0.2101 -0.2425  0.5099
  711TIP3    H123548   3.636   3.794  -0.040  0.8903 -0.7752  0.1970
  711TIP3    H223549   3.600   3.663   0.028 -0.4068 -0.1879  0.6645
  712TIP3   OH223550   6.938   0.349  14.764 -0.0015  0.5247  0.2482
  712TIP3    H123551   6.885   0.289  14.712 -1.3246  1.3941  0.5393
  712TIP3    H223552   6.997   0.390  14.701  0.1642 -0.2779 -0.1295
  713TIP3   OH223553   1.476   2.489  15.094 -0.5526  0.4751  0.0030
  713TIP3    H123554   1.530   2.426  15.046 -1.0156 -0.5905  0.8475
  713TIP3    H223555   1.518   2.574  15.079  0.8841 -0.2236 -0.0116
  714TIP3   OH223556   1.383   0.083  12.615 -0.1679 -0.1914 -0.2586
  714TIP3    H123557   1.391  -0.011  12.634 -1.0560 -0.4160 -0.9350
  714TIP3    H223558   1.464   0.121  12.648  0.0686 -1.1519  0.3089
  715TIP3   OH223559   2.338   5.102  15.187  0.4432 -0.1917  0.0597
  715TIP3    H123560   2.374   5.104  15.276  1.4994 -0.2536 -0.3460
  715TIP3    H223561   2.330   5.194  15.162 -1.0872 -0.1372  0.6807
  716TIP3   OH223562   1.274   5.324  13.273 -0.5248 -0.0339 -0.4167
  716TIP3    H123563   1.231   5.297  13.353 -0.3104 -1.0995 -0.6441
  716TIP3    H223564   1.362   5.351  13.301 -0.3494 -0.6851 -0.3161
  717TIP3   OH223565   6.050   6.449  12.791 -0.0441 -0.0086 -0.1579
  717TIP3    H123566   5.997   6.450  12.712 -1.2505  0.0260  0.6332
  717TIP3    H223567   6.136   6.419  12.761 -0.5252 -0.1904 -1.4373
  718TIP3   OH223568   5.081   3.881  15.009  0.2666 -0.1546  0.3718
  718TIP3    H123569   5.109   3.843  14.926  1.3703 -0.3378  0.8221
  718TIP3    H223570   4.988   3.899  14.996 -0.1418 -2.2811 -0.1410
  719TIP3   OH223571   3.667   3.405  10.621 -0.1030 -0.1315  0.0776
  719TIP3    H123572   3.742   3.382  10.674 -0.9813  0.7163  1.7435
  719TIP3    H223573   3.632   3.485  10.659 -2.2545 -0.8522 -0.1809
  720TIP3   OH223574   1.357   4.591  11.137  0.0361 -0.2992 -0.0138
  720TIP3    H123575   1.360   4.553  11.049 -0.2240 -0.0957 -0.1119
  720TIP3    H223576   1.287   4.656  11.132  0.3186  0.0233  0.2186
  721TIP3   OH223577   2.826   3.570  11.628  0.2672  0.0395  0.4505
  721TIP3    H123578   2.772   3.528  11.694  0.4968 -0.2943  0.4277
  721TIP3    H223579   2.811   3.519  11.548  1.5528 -0.7998  0.7397
  722TIP3   OH223580   3.511   5.737  13.516 -0.0024  0.0287 -0.5732
  722TIP3    H123581   3.523   5.658  13.568  1.7538  0.3097 -0.5014
  722TIP3    H223582   3.427   5.724  13.472 -0.5134 -1.1403  0.6857
  723TIP3   OH223583   6.813   6.764  11.450 -0.4457 -0.4674 -0.5128
  723TIP3    H123584   6.858   6.795  11.528 -2.0048 -1.9027  1.0600
  723TIP3    H223585   6.837   6.672  11.443 -1.7623 -0.8291 -0.6095
  724TIP3   OH223586   3.067   3.563  10.255 -0.6277 -0.3274  0.0061
  724TIP3    H123587   3.028   3.520  10.179  1.5833 -2.2338 -0.1388
  724TIP3    H223588   3.145   3.606  10.220 -0.0877 -0.4347  1.0607
  725TIP3   OH223589   2.718   4.383  11.028  0.2831  0.1412 -0.0691
  725TIP3    H123590   2.813   4.387  11.035  0.4064 -1.4320 -0.3296
  725TIP3    H223591   2.695   4.298  11.066 -0.7433 -0.6944 -2.3784
  726TIP3   OH223592   3.161   6.480  10.619 -0.0537 -0.5469 -0.1712
  726TIP3    H123593   3.169   6.385  10.630 -0.5961 -0.4704  0.8986
  726TIP3    H223594   3.243   6.505  10.574  0.9797 -1.2541  1.2360
  727TIP3   OH223595   6.712   0.452   0.050  0.7075 -0.0985 -0.1272
  727TIP3    H123596   6.675   0.532   0.085  0.8455  0.2808 -0.8236
  727TIP3    H223597   6.793   0.479   0.007  1.2899 -0.7667  0.5043
  728TIP3   OH223598   3.265   3.697  10.115 -0.5109  0.0756 -0.3918
  728TIP3    H123599   3.310   3.780  10.126 -0.6295  0.2255 -0.9747
  728TIP3    H223600   3.213   3.709  10.035 -0.0668 -0.7597 -0.8161
  729TIP3   OH223601   6.397   1.260  10.959 -0.4440 -0.3216 -0.2025
  729TIP3    H123602   6.371   1.180  11.004 -0.4527 -0.1812  0.0463
  729TIP3    H223603   6.354   1.330  11.009 -1.1160 -0.2145 -0.9084
  730TIP3   OH223604   0.749   3.805   9.980  0.2481 -0.2952  0.4609
  730TIP3    H123605   0.752   3.823   9.886  1.5272  0.3677  0.6030
  730TIP3    H223606   0.811   3.867  10.018  0.2632 -1.0220  1.6709
  731TIP3   OH223607   3.946   0.344  13.525 -0.1210  0.5000 -0.1662
  731TIP3    H123608   4.020   0.298  13.486 -1.4003  0.2321 -2.3969
  731TIP3    H223609   3.879   0.345  13.457 -2.7287 -0.4788  2.1970
  732TIP3   OH223610   0.440   5.994  12.496 -0.6519  0.0278 -0.0657
  732TIP3    H123611   0.365   6.016  12.440 -0.1013 -1.2010 -1.3492
  732TIP3    H223612   0.517   6.007  12.440 -0.2071 -3.7427 -0.5869
  733TIP3   OH223613   5.646   6.944  10.776  0.1478  0.0286 -0.0003
  733TIP3    H123614   5.626   7.028  10.818  0.6096 -0.2222  0.7248
  733TIP3    H223615   5.600   6.879  10.829 -1.4410 -0.0758 -1.4019
  734TIP3   OH223616   5.087   1.602  10.110 -0.7534  0.8387 -0.0159
  734TIP3    H123617   5.036   1.572  10.034 -0.9926  0.0237  0.4515
  734TIP3    H223618   5.177   1.605  10.079 -0.7535 -0.1896 -0.1438
  735TIP3   OH223619   3.871   0.054  13.899  0.0095  0.2452 -0.4137
  735TIP3    H123620   3.927   0.051  13.977  0.5178 -0.7339 -0.7957
  735TIP3    H223621   3.798   0.110  13.924 -0.2676 -0.7118  1.0691
  736TIP3   OH223622   6.912   2.133  11.714 -0.3056  0.5826 -0.4972
  736TIP3    H123623   6.974   2.087  11.658  0.9748  2.2038 -0.5077
  736TIP3    H223624   6.856   2.181  11.653 -0.9106 -0.0559 -0.4551
  737TIP3   OH223625   3.035   1.176  14.181 -0.4909  0.3076 -0.2746
  737TIP3    H123626   3.023   1.084  14.201 -2.0178  0.3681 -0.8230
  737TIP3    H223627   3.035   1.220  14.266 -2.2946  0.0653 -0.1177
  738TIP3   OH223628   1.536   6.231  10.876 -0.0770 -0.0965 -0.3155
  738TIP3    H123629   1.529   6.249  10.782 -1.4923 -1.2037 -0.4673
  738TIP3    H223630   1.516   6.138  10.884  1.7228 -0.4292  0.9378
  739TIP3   OH223631   5.473   3.764   9.863  0.0643 -0.6772 -0.5632
  739TIP3    H123632   5.452   3.787   9.772  2.7942  0.8978 -0.8927
  739TIP3    H223633   5.557   3.718   9.858  1.8640  2.1012  1.2852
  740TIP3   OH223634   0.527   6.474  10.768  0.5133 -0.1461 -0.0890
  740TIP3    H123635   0.462   6.417  10.725  0.3505  0.5844 -0.8387
  740TIP3    H223636   0.475   6.536  10.818  0.4730  1.7510 -2.3114
  741TIP3   OH223637   1.185   5.436  12.124  0.1382  0.5803  0.1851
  741TIP3    H123638   1.251   5.414  12.058  2.1399 -1.3377  2.6114
  741TIP3    H223639   1.189   5.531  12.132  3.1714  0.5054  0.6698
  742TIP3   OH223640   5.852   5.224  14.314 -0.0294  0.4387  0.0155
  742TIP3    H123641   5.791   5.271  14.371 -1.4387 -0.8442 -0.3489
  742TIP3    H223642   5.867   5.283  14.240 -2.4634  0.0808 -0.8723
  743TIP3   OH223643   4.831   4.588  10.822 -0.5086  0.0989 -0.1244
  743TIP3    H123644   4.801   4.618  10.908 -0.3702  1.5085 -0.5402
  743TIP3    H223645   4.777   4.637  10.760 -1.0476 -1.3603 -0.8621
  744TIP3   OH223646   0.341   5.270  11.515  0.4568 -0.0753 -0.0012
  744TIP3    H123647   0.274   5.262  11.583 -1.7508  0.1720 -2.0113
  744TIP3    H223648   0.336   5.187  11.467  0.3337  0.6207 -1.2315
  745TIP3   OH223649   7.167   1.959  13.227 -0.5219  0.2690  0.2191
  745TIP3    H123650   7.207   1.872  13.226 -0.7386  0.1712 -0.4755
  745TIP3    H223651   7.202   2.000  13.306  0.3214 -0.1126  0.0610
  746TIP3   OH223652   4.897   3.889  13.842  1.0368  0.7207  0.0345
  746TIP3    H123653   4.910   3.797  13.817  1.3701  0.7768 -0.0023
  746TIP3    H223654   4.961   3.937  13.789  0.2561  1.0714 -0.6072
  747TIP3   OH223655   0.934   5.790  14.733  0.1073  0.4395  0.2509
  747TIP3    H123656   1.006   5.835  14.689  1.0128 -1.7001 -0.6360
  747TIP3    H223657   0.922   5.837  14.815  2.5675  0.8740  0.4386
  748TIP3   OH223658   2.213   5.721  11.105  0.6357 -0.0737  0.0586
  748TIP3    H123659   2.180   5.687  11.188  0.7873  0.4911  0.3535
  748TIP3    H223660   2.235   5.643  11.054 -2.1000 -0.5288 -0.5504
  749TIP3   OH223661   1.568   1.871  12.559 -0.2389 -0.5525 -0.0780
  749TIP3    H123662   1.487   1.895  12.514 -0.3398  0.1323  0.4439
  749TIP3    H223663   1.575   1.935  12.630  1.0272 -0.2715 -0.4362
  750TIP3   OH223664   2.292   4.889  13.062  0.5035 -0.0311  0.2896
  750TIP3    H123665   2.359   4.946  13.023  1.4842 -0.9338  0.5864
  750TIP3    H223666   2.305   4.899  13.157 -0.2455  0.3006  0.3618
  751TIP3   OH223667   1.684   3.235  11.272 -0.4703  0.2692 -0.3579
  751TIP3    H123668   1.607   3.285  11.247 -2.4148 -1.4181  1.8555
  751TIP3    H223669   1.700   3.259  11.363 -1.7427 -3.2321  0.9479
  752TIP3   OH223670   2.811   2.775  14.707  0.1483  0.1449  0.0983
  752TIP3    H123671   2.864   2.846  14.673 -0.2157 -0.0245 -0.8535
  752TIP3    H223672   2.755   2.749  14.634 -0.5611 -0.3249  0.7836
  753TIP3   OH223673   6.508   3.513  10.715 -0.2055  0.2959 -0.2926
  753TIP3    H123674   6.473   3.570  10.647  0.2460  0.9563  0.0098
  753TIP3    H223675   6.594   3.550  10.735 -0.1332 -0.1703  0.2976
  754TIP3   OH223676   1.068   5.263   0.061 -0.8489 -0.0898 -0.2345
  754TIP3    H123677   1.151   5.239   0.103  0.1633  1.6067 -1.1758
  754TIP3    H223678   1.092   5.329  -0.004 -2.5753 -1.4237 -2.3824
  755TIP3   OH223679   3.491   0.267   9.372 -0.0087 -0.7127 -0.5202
  755TIP3    H123680   3.503   0.208   9.298  3.8143 -2.1948  1.0125
  755TIP3    H223681   3.509   0.213   9.449  0.9685  1.8010  1.1523
  756TIP3   OH223682   4.498   4.434  10.674 -0.3665  0.3323 -0.4570
  756TIP3    H123683   4.532   4.523  10.672  1.2322 -0.2481 -2.5220
  756TIP3    H223684   4.566   4.381  10.633 -1.4304 -1.8063  0.3802
  757TIP3   OH223685   4.430   3.468  10.803  0.4572 -0.3627 -0.2072
  757TIP3    H123686   4.449   3.421  10.884 -0.4017  1.8766  1.3994
  757TIP3    H223687   4.366   3.412  10.758  3.0159 -3.0304 -0.8516
  758TIP3   OH223688   4.787   3.845  11.924 -0.1880  0.3324 -0.4668
  758TIP3    H123689   4.763   3.753  11.917  1.2685 -0.0601 -0.6243
  758TIP3    H223690   4.724   3.881  11.987 -1.9526 -0.3019 -1.7810
  759TIP3   OH223691   0.068   0.617   2.481 -0.1723  0.2579  0.2107
  759TIP3    H123692   0.145   0.660   2.518 -0.8893  0.8010  1.1107
  759TIP3    H223693   0.103   0.540   2.436  0.8053 -0.0611  1.4585
  760TIP3   OH223694   2.573   3.017   9.886 -0.0569 -0.0836  0.1843
  760TIP3    H123695   2.508   3.000   9.818  0.0836  1.0271 -0.2409
  760TIP3    H223696   2.652   3.043   9.838  0.5635 -0.9369  0.7156
  761TIP3   OH223697   0.304   2.169  11.367  0.3914 -0.5090  0.0205
  761TIP3    H123698   0.271   2.236  11.427  1.6738  1.5887 -1.4895
  761TIP3    H223699   0.390   2.146  11.402 -0.1098 -1.5179  0.6204
  762TIP3   OH223700   0.842   5.766  13.862  0.1224 -0.5196 -0.8378
  762TIP3    H123701   0.932   5.773  13.833  0.1515  0.0996 -0.6252
  762TIP3    H223702   0.834   5.677  13.895  0.4331 -0.8226 -1.5748
  763TIP3   OH223703   2.246   5.315   0.791 -0.0732  0.4074  0.2729
  763TIP3    H123704   2.306   5.324   0.718 -0.0538  2.4400  0.4879
  763TIP3    H223705   2.293   5.259   0.854  1.5225  1.7653  0.3435
  764TIP3   OH223706   2.285   2.220  11.939 -0.0110  0.0042 -0.4516
  764TIP3    H123707   2.222   2.172  11.885 -0.2346 -0.8403  0.5246
  764TIP3    H223708   2.230   2.264  12.005  0.4298 -1.2852  0.8287
  765TIP3   OH223709   1.013   3.066  11.685  0.0766  0.7978 -0.2648
  765TIP3    H123710   1.007   2.998  11.752  0.5102  1.3119  0.3033
  765TIP3    H223711   0.923   3.094  11.671 -0.0144  0.7271  0.1571
  766TIP3   OH223712   2.831   1.094  10.430 -0.1304 -0.1637 -0.1763
  766TIP3    H123713   2.751   1.136  10.398 -0.6909 -0.7365  0.4504
  766TIP3    H223714   2.815   1.079  10.523  0.3305 -1.1510 -0.2495
  767TIP3   OH223715   3.575   0.725   1.670  0.2023  0.1936 -0.5499
  767TIP3    H123716   3.533   0.810   1.687 -0.5930 -0.4320  0.6954
  767TIP3    H223717   3.625   0.740   1.590 -1.1996  1.4028 -1.2693
  768TIP3   OH223718   4.359   2.785   9.657  0.1426  0.2896  0.7479
  768TIP3    H123719   4.312   2.823   9.731 -1.7376 -1.0786  0.3124
  768TIP3    H223720   4.298   2.723   9.618  0.8303  1.3811 -2.3478
  769TIP3   OH223721   5.117   5.282  10.149 -0.5730  0.0120  0.6959
  769TIP3    H123722   5.077   5.203  10.186  0.0281  0.3348  2.1182
  769TIP3    H223723   5.104   5.349  10.217  1.8583  0.2673  1.0101
  770TIP3   OH223724   3.806   7.053   0.028  0.2390  0.2058  0.0220
  770TIP3    H123725   3.811   6.959   0.009  2.2129  0.4493 -0.9278
  770TIP3    H223726   3.786   7.093  -0.057  1.2788  0.7512  0.0192
  771TIP3   OH223727   5.173   5.489  13.237  0.4569  0.0915 -0.0651
  771TIP3    H123728   5.187   5.448  13.152  1.0240 -0.5702  0.3375
  771TIP3    H223729   5.261   5.502  13.272  0.2228  0.1442  0.5125
  772TIP3   OH223730   2.549   0.155  11.508 -0.5119 -0.0977 -0.0175
  772TIP3    H123731   2.597   0.138  11.589 -0.9669 -0.6157  0.1501
  772TIP3    H223732   2.596   0.228  11.467  0.4110 -0.5917  0.1419
  773TIP3   OH223733   0.390   0.075  10.021  0.0059  0.0535  0.1561
  773TIP3    H123734   0.340   0.001   9.985 -1.1302  0.6194  0.5441
  773TIP3    H223735   0.336   0.108  10.092  0.4776  1.2971 -0.0440
  774TIP3   OH223736   2.797   5.388  12.217 -0.1121  0.8355 -0.3132
  774TIP3    H123737   2.861   5.388  12.146  0.4694  1.0329  0.1996
  774TIP3    H223738   2.850   5.393  12.297 -0.8028  2.5798  0.0818
  775TIP3   OH223739   1.966   1.731   0.582  0.0297 -0.2275 -0.1701
  775TIP3    H123740   1.989   1.728   0.489 -0.3747 -2.2559 -0.2477
  775TIP3    H223741   1.893   1.670   0.591 -1.1476  1.2841  1.2050
  776TIP3   OH223742   2.321   3.741  12.969  0.4044  1.2249  0.0367
  776TIP3    H123743   2.298   3.769  12.880 -2.1124 -0.3915  0.0685
  776TIP3    H223744   2.333   3.822  13.017  0.1754  2.1482 -1.3940
  777TIP3   OH223745   5.841   4.088   9.448 -0.3140  1.0768  0.2402
  777TIP3    H123746   5.797   4.160   9.403  2.3166  2.7738  0.1756
  777TIP3    H223747   5.928   4.085   9.409  0.6621 -0.1416  2.3653
  778TIP3   OH223748   5.100   3.976  11.610 -1.1602 -0.1670  0.1827
  778TIP3    H123749   5.158   3.912  11.568  0.5991 -0.2717  2.5086
  778TIP3    H223750   5.029   3.923  11.646 -0.8700 -0.5348  0.2279
  779TIP3   OH223751   3.953   0.693  12.338  0.1343 -0.0625  0.0170
  779TIP3    H123752   4.027   0.691  12.398  0.6796  2.8974 -0.4113
  779TIP3    H223753   3.983   0.747  12.264 -1.5481 -1.0556 -1.4824
  780TIP3   OH223754   0.334   5.341  14.825 -0.3666  0.0612  0.6186
  780TIP3    H123755   0.392   5.339  14.901  0.0515 -0.2468  0.3026
  780TIP3    H223756   0.372   5.409  14.768 -1.5162  1.3275  1.3180
  781TIP3   OH223757   4.717   5.744  11.416  0.0668 -0.7454 -0.0830
  781TIP3    H123758   4.721   5.833  11.382  1.3324 -0.7194  0.0729
  781TIP3    H223759   4.639   5.742  11.471 -1.1753 -0.3492 -1.7330
  782TIP3   OH223760   0.601   2.126  12.273  0.3244 -0.3019  0.3990
  782TIP3    H123761   0.601   2.219  12.295  0.7408 -0.1028 -0.4331
  782TIP3    H223762   0.669   2.088  12.330  1.8748  0.3290 -0.9458
  783TIP3   OH223763   4.490   6.829  14.751  0.2468  0.3738 -0.6516
  783TIP3    H123764   4.396   6.842  14.734  0.2506  0.4922 -0.5849
  783TIP3    H223765   4.501   6.734  14.755 -0.0702  0.3734  0.4584
  784TIP3   OH223766   4.739   3.264   9.564  0.1794  0.0904 -0.3324
  784TIP3    H123767   4.718   3.348   9.605  2.2276 -0.4118  1.9639
  784TIP3    H223768   4.806   3.285   9.500  0.1464  0.3046 -0.2977
  785TIP3   OH223769   1.777   2.314  10.395 -0.2466  0.3722 -0.5060
  785TIP3    H123770   1.762   2.317  10.490 -0.5559  1.5452 -0.5862
  785TIP3    H223771   1.691   2.290  10.359 -0.4514  1.1641 -0.5632
  786TIP3   OH223772   1.253   2.728   1.281 -0.1892  0.2416 -0.1447
  786TIP3    H123773   1.236   2.806   1.335  1.5575  1.3104 -1.0537
  786TIP3    H223774   1.249   2.760   1.191  0.9767 -0.6185 -0.5253
  787TIP3   OH223775   5.299   3.057  12.013  0.6249 -0.2392 -0.0000
  787TIP3    H123776   5.232   3.037  11.948  1.2340  1.0863 -1.0878
  787TIP3    H223777   5.258   3.121  12.071  0.1875 -1.1915  0.7819
  788TIP3   OH223778   0.962   3.534  12.719  0.2364  1.1215  0.1910
  788TIP3    H123779   1.034   3.513  12.659  1.3599  1.0321  1.5116
  788TIP3    H223780   0.941   3.625  12.700  0.6718  1.1386 -0.2358
  789TIP3   OH223781   4.614   6.754  11.332  0.2758 -0.5875 -0.1111
  789TIP3    H123782   4.709   6.752  11.346  1.2315  2.2408 -4.3222
  789TIP3    H223783   4.595   6.846  11.312 -3.3086 -1.1860 -0.0850
  790TIP3   OH223784   4.844   1.995  10.707 -0.1108 -0.0174 -0.4743
  790TIP3    H123785   4.848   2.083  10.671 -1.0866 -0.5962 -2.0545
  790TIP3    H223786   4.936   1.966  10.710  0.2143  1.0062  0.0315
  791TIP3   OH223787   2.552   2.596  12.256  0.4287  0.1144  0.6216
  791TIP3    H123788   2.510   2.679  12.279  2.3914  1.3381  0.0404
  791TIP3    H223789   2.507   2.568  12.177  1.6228  2.2106 -0.9119
  792TIP3   OH223790   0.618   0.785  12.841 -0.3225  0.0756 -0.0407
  792TIP3    H123791   0.633   0.703  12.887  0.0118  0.3710  0.3765
  792TIP3    H223792   0.548   0.828  12.890  1.0677  1.0915  1.1272
  793TIP3   OH223793   4.505   0.011   2.159  0.5295  0.3239 -0.3901
  793TIP3    H123794   4.598   0.004   2.180  0.3375  0.2279  0.4527
  793TIP3    H223795   4.475   0.087   2.207 -0.0326 -0.2026  0.1025
  794TIP3   OH223796   1.377   0.598   2.552  0.0896  0.6143 -0.3136
  794TIP3    H123797   1.328   0.644   2.484 -0.3128  0.6106 -0.0289
  794TIP3    H223798   1.441   0.662   2.583  0.0513  0.7235 -0.4600
  795TIP3   OH223799   4.640   5.712  10.600 -0.8974  0.4634 -0.9072
  795TIP3    H123800   4.645   5.635  10.543 -1.9126 -0.0029 -0.4045
  795TIP3    H223801   4.552   5.708  10.638 -0.9890  1.9172 -0.9103
  796TIP3   OH223802   1.083   3.593  12.199  0.1813  0.0686 -0.3064
  796TIP3    H123803   1.172   3.558  12.193  0.6081  1.3844 -2.8235
  796TIP3    H223804   1.031   3.534  12.145 -0.0595  0.4807 -0.5261
  797TIP3   OH223805   2.732   2.986  10.104  0.2134  0.4130  0.1576
  797TIP3    H123806   2.682   2.986  10.022  2.2218 -0.6085 -1.1463
  797TIP3    H223807   2.781   3.068  10.103 -1.5496  1.5715  1.5943
  798TIP3   OH223808   3.950   3.966  11.164 -0.5554 -0.3872 -0.5353
  798TIP3    H123809   3.896   4.026  11.113 -0.7922 -0.4964 -0.4158
  798TIP3    H223810   3.942   3.998  11.254  1.3355  0.9320 -0.7759
  799TIP3   OH223811   4.310   5.741   9.974 -0.7167  0.3005 -0.0540
  799TIP3    H123812   4.269   5.735   9.888  1.9985  1.3287 -1.5505
  799TIP3    H223813   4.356   5.658   9.985 -1.1026  0.1490  0.4341
  800TIP3   OH223814   1.452   0.901  10.141  0.3647 -0.1555  0.0262
  800TIP3    H123815   1.374   0.940  10.179  1.5654 -0.3330  2.9881
  800TIP3    H223816   1.446   0.808  10.162  1.3405 -0.1690  0.3409
  801TIP3   OH223817   2.126   2.817  13.920 -0.4712 -0.4691  0.0679
  801TIP3    H123818   2.087   2.902  13.939 -0.0264 -0.1678 -0.3190
  801TIP3    H223819   2.181   2.833  13.843  1.8346 -0.4146  1.5978
  802TIP3   OH223820   3.358   0.238  10.060  0.0255 -0.2228  0.2573
  802TIP3    H123821   3.353   0.239  10.156  1.4742  0.0613  0.3447
  802TIP3    H223822   3.335   0.327  10.033 -1.4335 -0.5732  0.2526
  803TIP3   OH223823   6.913   3.484  13.142 -0.1445 -0.1250 -0.5368
  803TIP3    H123824   6.849   3.513  13.077  0.3343  1.7249 -0.2342
  803TIP3    H223825   6.903   3.546  13.214  1.5835 -0.1507 -0.2477
  804TIP3   OH223826   7.164   1.616  13.754  0.3925 -0.2696 -0.9393
  804TIP3    H123827   7.197   1.619  13.664  1.5037  0.2679 -0.5378
  804TIP3    H223828   7.243   1.627  13.808 -0.5133  1.5395  0.0690
  805TIP3   OH223829   7.006   6.234  12.890  0.4767  0.2585  0.1575
  805TIP3    H123830   7.074   6.297  12.914 -0.3368  1.1995  0.0570
  805TIP3    H223831   6.975   6.198  12.973  0.1848  0.8239  0.3026
  806TIP3   OH223832   3.211   0.354  11.854 -0.3215  0.4574  0.1221
  806TIP3    H123833   3.289   0.376  11.904 -0.3036  1.1119 -0.1833
  806TIP3    H223834   3.181   0.437  11.818  0.5758 -0.1827 -2.3055
  807TIP3   OH223835   3.588   2.748   2.713 -0.4874 -0.3466  0.0282
  807TIP3    H123836   3.645   2.821   2.738 -2.8707  1.2644  1.1109
  807TIP3    H223837   3.622   2.673   2.762 -0.0002  0.8469  1.6199
  808TIP3   OH223838   6.742   6.587  13.333 -0.2234  0.2725 -0.6173
  808TIP3    H123839   6.734   6.494  13.354 -1.3102  0.8926  2.2445
  808TIP3    H223840   6.788   6.625  13.408  2.1808  1.7788 -2.7185
  809TIP3   OH223841   0.727   0.831   0.371  0.4808 -0.3703 -0.1274
  809TIP3    H123842   0.807   0.780   0.362  1.2692  0.9703 -1.0232
  809TIP3    H223843   0.733   0.870   0.458  1.6050  0.9589 -0.7511
  810TIP3   OH223844   2.441   3.246  11.957  0.2626 -0.4144 -0.3319
  810TIP3    H123845   2.512   3.188  11.928 -0.3620 -0.5580 -1.6353
  810TIP3    H223846   2.476   3.288  12.036  2.4027  0.6872 -1.7611
  811TIP3   OH223847   5.658   3.625   9.581 -0.5258 -0.0585  0.3244
  811TIP3    H123848   5.693   3.536   9.588  1.2792  0.5334 -0.6280
  811TIP3    H223849   5.678   3.652   9.492  0.2671  1.8220  1.0214
  812TIP3   OH223850   3.595   6.350  10.978 -0.4447  0.2631 -0.2212
  812TIP3    H123851   3.666   6.335  10.915 -1.0686 -1.1715 -0.6228
  812TIP3    H223852   3.538   6.414  10.935  0.2619  0.9308 -0.1727
  813TIP3   OH223853   1.882   4.035  12.340  0.1462  1.1106 -0.3695
  813TIP3    H123854   1.938   4.078  12.275  0.0022 -1.0170 -2.0171
  813TIP3    H223855   1.797   4.030  12.298 -0.2746  0.7940  0.5065
  814TIP3   OH223856   3.437   6.730   3.140  0.0575  0.4501 -0.2471
  814TIP3    H123857   3.529   6.714   3.117 -0.2867  1.5351 -2.5753
  814TIP3    H223858   3.421   6.820   3.115 -1.6468  0.3050  0.1922
  815TIP3   OH223859   0.814   3.407   9.776  0.2546 -0.0580  0.3101
  815TIP3    H123860   0.731   3.450   9.799  0.1914  0.0767 -0.1666
  815TIP3    H223861   0.822   3.420   9.682  1.6189  1.3397  0.5755
  816TIP3   OH223862   3.340   6.553  11.339 -0.0441 -0.0787  0.2044
  816TIP3    H123863   3.310   6.496  11.410  0.4196 -0.2173  0.2929
  816TIP3    H223864   3.379   6.494  11.275  1.1779  0.1906  0.6677
  817TIP3   OH223865   3.329   2.316   9.792  0.4861  0.3896  0.0230
  817TIP3    H123866   3.244   2.284   9.760  1.4143 -2.1052 -0.1476
  817TIP3    H223867   3.362   2.372   9.721 -0.4457  0.3629 -0.4473
  818TIP3   OH223868   4.907   3.015  11.468 -0.2829 -0.5144  0.4264
  818TIP3    H123869   4.980   3.025  11.407  1.8663  0.5390  2.9841
  818TIP3    H223870   4.875   2.926  11.452  0.3534 -0.3903 -1.9710
  819TIP3   OH223871   1.268   0.390   9.383 -0.2275 -0.0528 -0.1369
  819TIP3    H123872   1.234   0.301   9.389  0.4375 -0.3105 -0.1956
  819TIP3    H223873   1.359   0.380   9.355 -0.3370  0.6736 -0.7957
  820TIP3   OH223874   6.894   0.782   0.864  0.1293  0.0118  0.2072
  820TIP3    H123875   6.881   0.768   0.957 -1.2112 -0.1712  0.0031
  820TIP3    H223876   6.818   0.832   0.836 -0.7701 -2.0316 -1.2548
  821TIP3   OH223877   0.725   0.411  14.886 -0.2108 -0.3372 -0.0191
  821TIP3    H123878   0.634   0.419  14.915 -0.6212 -2.7929 -0.4076
  821TIP3    H223879   0.776   0.449  14.957 -1.5079  1.2578  0.1296
  822TIP3   OH223880   6.496   4.238  14.703 -0.2251  0.8006  0.2672
  822TIP3    H123881   6.497   4.334  14.701  1.0447  0.7788 -1.3104
  822TIP3    H223882   6.587   4.213  14.712 -0.3361 -0.2686 -1.2443
  823TIP3   OH223883   5.539   2.683  11.501 -0.3174  0.0791  0.1518
  823TIP3    H123884   5.488   2.647  11.429  1.8120  0.7065 -1.7759
  823TIP3    H223885   5.553   2.774  11.478  2.9067 -0.4081 -0.2856
  824TIP3   OH223886   1.075   4.860  10.407  0.5919  0.0588 -0.0490
  824TIP3    H123887   1.126   4.846  10.488  1.1620  3.1352  0.2494
  824TIP3    H223888   1.137   4.903  10.348 -0.4188 -0.2779 -1.3733
  825TIP3   OH223889   4.142   3.731  14.873 -0.2184  0.0406  0.1983
  825TIP3    H123890   4.196   3.767  14.803 -0.8817 -2.1012 -1.5574
  825TIP3    H223891   4.188   3.754  14.954  0.0753  3.4747 -0.7848
  826TIP3   OH223892   1.817   1.638  10.073  0.3621 -0.0789 -0.0992
  826TIP3    H123893   1.818   1.715  10.129  0.8426  1.1243 -1.6924
  826TIP3    H223894   1.780   1.668   9.991  5.2830  0.0102 -2.6821
  827TIP3   OH223895   3.959   5.315  10.466 -0.2898  0.3556  1.0951
  827TIP3    H123896   4.046   5.353  10.481 -0.6641  1.6413  0.1289
  827TIP3    H223897   3.902   5.390  10.451 -0.8821 -0.5471 -1.8243
  828TIP3   OH223898   3.174   6.950   9.462 -0.6214 -0.4633  0.1146
  828TIP3    H123899   3.083   6.952   9.492 -0.4824 -1.8068  0.6931
  828TIP3    H223900   3.184   6.864   9.422  0.5509 -0.5787  0.6121
  829TIP3   OH223901   1.075   6.376  10.481 -0.5845 -0.1060  0.0509
  829TIP3    H123902   1.156   6.421  10.509 -0.9034  0.9130 -0.5978
  829TIP3    H223903   1.006   6.419  10.530 -0.8899  0.0446 -0.5083
  830TIP3   OH223904   0.010   2.588  10.178  0.4239 -0.1043  0.2795
  830TIP3    H123905   0.026   2.616  10.088  0.1790  0.6122  0.4545
  830TIP3    H223906  -0.073   2.540  10.175 -0.0576  0.7211  0.2826
  831TIP3   OH223907   5.219   2.262  13.570 -0.2247  0.4492  0.5476
  831TIP3    H123908   5.296   2.205  13.577  0.0062  0.9180  2.0270
  831TIP3    H223909   5.233   2.310  13.488 -0.2912 -1.3902 -0.6044
  832TIP3   OH223910   3.575   1.023  11.393 -0.5884 -0.1039 -0.2499
  832TIP3    H123911   3.522   1.102  11.381  1.0868  1.0020 -0.5983
  832TIP3    H223912   3.606   1.029  11.483  0.7878  0.4745 -0.7312
  833TIP3   OH223913   4.122   7.092  10.036 -0.4294  0.2070  0.4496
  833TIP3    H123914   4.165   7.160   9.984  0.9656 -0.2344  0.9898
  833TIP3    H223915   4.039   7.131  10.062 -0.1958  1.2408 -0.2888
  834TIP3   OH223916   3.533   6.404  12.550 -0.1397  0.3880 -0.2183
  834TIP3    H123917   3.594   6.334  12.530 -0.3796  0.0225  0.3176
  834TIP3    H223918   3.541   6.417  12.644 -1.3729 -0.1344 -0.0221
  835TIP3   OH223919   3.501   5.765  13.948 -0.4258 -0.1018 -0.1551
  835TIP3    H123920   3.568   5.697  13.948 -0.6630 -0.3567 -1.8400
  835TIP3    H223921   3.469   5.766  14.039  1.0957 -0.6952  0.4310
  836TIP3   OH223922   3.374   2.478   9.567 -0.2955 -0.0782  0.0983
  836TIP3    H123923   3.290   2.512   9.537 -0.4451 -1.5385 -1.2054
  836TIP3    H223924   3.433   2.492   9.493  0.5469  0.5682  0.8583
  837TIP3   OH223925   0.121   0.923  10.281  0.6534  0.4923 -0.4796
  837TIP3    H123926   0.131   0.895  10.190  1.7754 -1.7329  0.2457
  837TIP3    H223927   0.027   0.913  10.298  0.5368  0.2501 -1.2003
  838TIP3   OH223928   4.304   6.831  15.045 -0.7285  0.1747  0.3891
  838TIP3    H123929   4.263   6.754  15.004 -0.9455  1.0114 -1.0438
  838TIP3    H223930   4.398   6.818  15.030 -0.8666  1.0450 -1.5317
  839TIP3   OH223931   0.675   4.576  10.555 -0.0706  0.5845  0.4474
  839TIP3    H123932   0.666   4.635  10.480  1.2624 -0.0233 -0.2389
  839TIP3    H223933   0.626   4.618  10.625  1.2612  2.7690  0.1427
  840TIP3   OH223934   6.434   2.072  12.594  0.3687 -0.5934 -0.4441
  840TIP3    H123935   6.341   2.064  12.617  0.6140 -0.6685  0.5922
  840TIP3    H223936   6.434   2.104  12.504 -0.6752  0.2271 -0.1834
  841TIP3   OH223937   5.255   2.337  11.910 -0.0675  0.4768 -0.1583
  841TIP3    H123938   5.168   2.347  11.871  0.0389 -0.8870 -0.7826
  841TIP3    H223939   5.316   2.352  11.838  0.1580 -0.8469 -0.2531
  842TIP3   OH223940   2.668   6.488  10.342 -0.5612  0.0909  0.2205
  842TIP3    H123941   2.653   6.552  10.273 -0.3633 -1.1446 -1.0043
  842TIP3    H223942   2.725   6.533  10.404  2.2863  0.1273 -2.2070
  843TIP3   OH223943   0.999   1.442  11.630 -0.6303  0.1639  0.6039
  843TIP3    H123944   0.963   1.377  11.691 -0.5727  0.5755  1.0821
  843TIP3    H223945   1.056   1.391  11.572  0.2331 -0.0717  1.6209
  844TIP3   OH223946   4.215   3.808  14.128 -0.4850 -0.4655  0.2747
  844TIP3    H123947   4.261   3.759  14.060  0.3497 -1.8327  1.7453
  844TIP3    H223948   4.122   3.789  14.113 -0.4902  0.6834 -1.4962
  845TIP3   OH223949   5.950   2.432  14.712  0.3245 -0.4181  0.1517
  845TIP3    H123950   5.860   2.428  14.679  0.2650 -1.6107  0.4147
  845TIP3    H223951   5.962   2.524  14.737 -1.1582 -0.4181  1.0343
  846TIP3   OH223952   4.522   5.703  14.076  0.3788  0.6256  0.2131
  846TIP3    H123953   4.524   5.608  14.071  0.3999  0.6522 -0.5055
  846TIP3    H223954   4.584   5.732  14.009 -2.7350  1.1663 -2.7275
  847TIP3   OH223955   6.859   2.382  13.012 -0.4872 -0.5829  0.4596
  847TIP3    H123956   6.901   2.466  13.029 -1.5516  0.2283 -0.6664
  847TIP3    H223957   6.847   2.343  13.098 -0.4250  0.6576  1.0508
  848TIP3   OH223958   2.785   3.532  14.893  0.1190 -0.2138 -0.8045
  848TIP3    H123959   2.775   3.510  14.986  0.8092 -1.7203 -1.0577
  848TIP3    H223960   2.709   3.586  14.873 -0.4365 -0.4954  0.4550
  849TIP3   OH223961   1.441   6.536   0.762  0.1239 -0.1586  0.1218
  849TIP3    H123962   1.371   6.598   0.740 -2.3928 -2.6976  0.3235
  849TIP3    H223963   1.458   6.553   0.855 -1.5017 -0.5553  0.5391
  850TIP3   OH223964   4.818   2.167  12.784 -0.7735  0.7016 -0.0085
  850TIP3    H123965   4.795   2.164  12.692  2.5924  0.8874 -0.9926
  850TIP3    H223966   4.905   2.207  12.786 -0.2073 -0.3557  3.1374
  851TIP3   OH223967   0.320   0.038  11.388 -0.3178  0.2540 -0.2426
  851TIP3    H123968   0.334   0.121  11.434  1.2321 -0.2652  0.2855
  851TIP3    H223969   0.327   0.061  11.295 -1.4306  0.9564 -0.1702
  852TIP3   OH223970   2.646   1.477  11.853  0.5796 -0.6133  0.4518
  852TIP3    H123971   2.710   1.490  11.922  2.1070 -0.4415 -0.9488
  852TIP3    H223972   2.696   1.446  11.778 -1.1657 -1.7737 -0.3059
  853TIP3   OH223973   1.069   3.715  13.016 -0.3306 -0.5652  0.0211
  853TIP3    H123974   1.108   3.773  12.951 -0.0468 -0.8667 -0.0825
  853TIP3    H223975   1.107   3.629  12.997  0.3281 -0.5259  1.0287
  854TIP3   OH223976   6.645   5.301   9.496 -0.5540 -0.6434  0.0906
  854TIP3    H123977   6.609   5.388   9.482  0.6588 -0.1842 -0.2752
  854TIP3    H223978   6.605   5.247   9.429  0.2298  0.1042 -1.0119
  855TIP3   OH223979   2.732   6.576  11.809  0.2900 -0.0826 -0.3291
  855TIP3    H123980   2.722   6.583  11.714  1.2862 -1.2177 -0.5459
  855TIP3    H223981   2.771   6.660  11.836  0.6491 -0.0250 -1.0200
  856TIP3   OH223982   5.773   0.518  10.306  0.3041 -0.0222 -0.1047
  856TIP3    H123983   5.847   0.506  10.247  1.0734  1.1813  0.5810
  856TIP3    H223984   5.725   0.435  10.302  2.3061 -1.2439  0.3089
  857TIP3   OH223985   0.759   3.729  14.207 -0.3233  0.3024  0.3662
  857TIP3    H123986   0.781   3.671  14.134  0.1384  0.9746 -0.0443
  857TIP3    H223987   0.743   3.814  14.166 -1.5729  0.3456  0.8973
  858TIP3   OH223988   0.254   2.715  12.731 -0.0484 -0.2077  0.5451
  858TIP3    H123989   0.301   2.643  12.689 -0.7978  0.2619 -1.2359
  858TIP3    H223990   0.189   2.741  12.666 -0.8148  1.0694  1.7715
  859TIP3   OH223991   3.957   1.333  14.391  0.1470  0.1412 -0.5224
  859TIP3    H123992   4.039   1.348  14.344  0.1774 -0.1694 -0.5699
  859TIP3    H223993   3.981   1.280  14.467 -0.0736 -0.3379 -0.7807
  860TIP3   OH223994   0.062   4.560  11.865  0.0699 -0.6662 -0.2032
  860TIP3    H123995   0.121   4.485  11.866  0.5469 -0.2937 -0.4028
  860TIP3    H223996  -0.012   4.532  11.919 -0.6866 -2.0289 -1.8419
  861TIP3   OH223997   0.114   4.846  11.077 -0.3484 -0.8717  0.3478
  861TIP3    H123998   0.103   4.928  11.126  0.7162  0.3280 -1.3045
  861TIP3    H223999   0.207   4.846  11.052 -0.1356 -3.0055  0.9805
  862TIP3   OH224000   4.026   2.168  10.784  0.5017 -0.2929  0.0272
  862TIP3    H124001   4.097   2.221  10.747 -0.1945  0.7357  0.1177
  862TIP3    H224002   3.971   2.231  10.831 -0.5347 -1.0502 -0.1353
  863TIP3   OH224003   4.095   2.562  13.361  0.4791  0.3482  0.2603
  863TIP3    H124004   4.105   2.655  13.343 -0.1571  0.1852 -1.0297
  863TIP3    H224005   4.184   2.532  13.383  0.8451  1.0750 -0.2007
  864TIP3   OH224006   1.882   0.619  12.174  0.0112  0.3438  0.4223
  864TIP3    H124007   1.857   0.711  12.169 -1.9031 -0.1735 -0.5765
  864TIP3    H224008   1.805   0.575  12.210  0.9690 -0.8638  1.1019
  865TIP3   OH224009   1.177   6.087   2.883  0.6866 -0.2354 -0.3272
  865TIP3    H124010   1.104   6.149   2.882 -0.3298 -1.3269  1.2053
  865TIP3    H224011   1.208   6.086   2.973  2.8294  0.3869 -0.9932
  866TIP3   OH224012   2.453   0.872  12.742  0.0797 -0.0008  0.1535
  866TIP3    H124013   2.462   0.777  12.728  3.6194  0.0003  1.4065
  866TIP3    H224014   2.370   0.894  12.701 -0.6846 -3.5595 -0.5968
  867TIP3   OH224015   5.661   0.508  11.976  1.3648  0.3840  0.5252
  867TIP3    H124016   5.647   0.490  12.069 -0.1570  1.6417  0.5824
  867TIP3    H224017   5.680   0.602  11.973  1.0180  0.4343 -0.4594
  868TIP3   OH224018   7.099   3.809  11.554 -0.7573  0.0576 -0.5778
  868TIP3    H124019   7.066   3.805  11.464  0.3626  3.0586 -1.2401
  868TIP3    H224020   7.027   3.847  11.605 -0.0612  2.2176 -1.0994
  869TIP3   OH224021   0.875   6.822  12.814  0.2906 -0.1362  0.8559
  869TIP3    H124022   0.900   6.748  12.759  2.3810 -0.3340  1.9678
  869TIP3    H224023   0.861   6.784  12.900 -0.6660  0.4938  0.9893
  870TIP3   OH224024   1.744   1.703   9.365 -0.0363 -0.1416 -0.7870
  870TIP3    H124025   1.663   1.752   9.355  0.5944  0.7923 -1.5050
  870TIP3    H224026   1.808   1.768   9.395  0.5619 -0.7696 -0.6562
  871TIP3   OH224027   6.601   4.676  11.045  0.1308 -0.0089 -0.3279
  871TIP3    H124028   6.531   4.635  11.096  3.0942 -3.0727  1.8458
  871TIP3    H224029   6.601   4.629  10.962 -0.5269  0.1750 -0.4339
  872TIP3   OH224030   5.626   2.187   9.389  0.1766  0.4093  0.6021
  872TIP3    H124031   5.659   2.268   9.426  0.0413  0.9904 -0.5073
  872TIP3    H224032   5.704   2.142   9.356  0.2023  0.2965  0.8159
  873TIP3   OH224033   1.839   0.920  11.504 -0.1377 -0.1747  0.0447
  873TIP3    H124034   1.926   0.959  11.509 -0.7916  1.2433  1.0339
  873TIP3    H224035   1.799   0.959  11.426  0.2120 -1.1122 -0.6290
  874TIP3   OH224036   1.621   5.196  11.868  0.2797  0.2285 -0.2920
  874TIP3    H124037   1.675   5.120  11.848  0.5331  0.3240  0.0279
  874TIP3    H224038   1.679   5.256  11.914 -0.6774 -0.6619  2.2778
  875TIP3   OH224039   0.759   5.920  10.809  0.6788 -0.2102 -0.3305
  875TIP3    H124040   0.825   5.866  10.852  2.5932  1.6989 -0.7546
  875TIP3    H224041   0.808   5.974  10.747 -1.6483 -1.1548 -3.2997
  876TIP3   OH224042   5.259   6.606  13.361 -0.1599 -0.0756  0.0727
  876TIP3    H124043   5.202   6.602  13.439 -0.3439  0.2434 -0.0432
  876TIP3    H224044   5.287   6.516  13.347  1.9635  0.1891  2.0463
  877TIP3   OH224045   4.333   2.296  13.192  0.0074 -0.0171  0.3387
  877TIP3    H124046   4.275   2.222  13.205 -1.0611  1.1423  2.6579
  877TIP3    H224047   4.313   2.327  13.103 -0.2902 -1.7790 -0.2546
  878TIP3   OH224048   1.793   2.781  12.050 -0.0107 -0.1146 -0.2443
  878TIP3    H124049   1.699   2.767  12.040 -0.2898  0.8301  0.7696
  878TIP3    H224050   1.803   2.876  12.049  0.7646 -0.1539  0.8500
  879TIP3   OH224051   0.266   3.923  12.107  0.0780  0.0376 -0.4152
  879TIP3    H124052   0.210   3.870  12.163 -0.8556  0.8051 -0.5846
  879TIP3    H224053   0.205   3.966  12.046  0.8626  0.7961 -0.6884
  880TIP3   OH224054   6.221   5.040  13.906  0.1076  0.3485 -0.2633
  880TIP3    H124055   6.182   5.059  13.991 -1.3878  3.5317 -1.5184
  880TIP3    H224056   6.301   5.093  13.903  1.5853 -1.7157  0.0343
  881TIP3   OH224057   4.810   4.223  11.072  0.3624 -0.0333 -0.3563
  881TIP3    H124058   4.822   4.131  11.096  3.0878  0.0996 -0.8902
  881TIP3    H224059   4.874   4.271  11.124  0.5436  1.2791 -1.6873
  882TIP3   OH224060   4.075   5.524  13.054  0.0759  0.1500 -0.3198
  882TIP3    H124061   4.147   5.463  13.070 -0.4469  0.0596  1.9747
  882TIP3    H224062   3.999   5.468  13.037  0.0250  0.2077 -0.2829
  883TIP3   OH224063   7.193   7.168  10.502 -0.1383 -0.0366 -0.5914
  883TIP3    H124064   7.113   7.168  10.449 -1.7827  0.7224  1.7326
  883TIP3    H224065   7.165   7.143  10.590  2.2949 -0.2862  0.2126
  884TIP3   OH224066   1.390   7.011  11.641  0.5895  0.1357  0.1637
  884TIP3    H124067   1.320   7.068  11.674 -0.0061 -0.5086  0.0314
  884TIP3    H224068   1.389   7.023  11.547 -0.2063 -0.8209  0.0312
  885TIP3   OH224069   5.141   0.952  11.814  0.0655  0.1914  0.1570
  885TIP3    H124070   5.101   1.035  11.790  0.8396  0.5298  0.0009
  885TIP3    H224071   5.163   0.961  11.907 -0.6028 -0.1640  0.3632
  886TIP3   OH224072   1.792   2.198   0.467  0.2305 -0.6359  0.3858
  886TIP3    H124073   1.781   2.166   0.377 -2.9916 -1.1954  0.8718
  886TIP3    H224074   1.833   2.125   0.513  0.8065 -0.7936 -0.3504
  887TIP3   OH224075   0.745   1.355  12.549  0.2142  0.0722  0.1121
  887TIP3    H124076   0.739   1.293  12.622  0.0246 -0.1541 -0.0957
  887TIP3    H224077   0.665   1.341  12.499  1.2096 -1.1353 -1.2307
  888TIP3   OH224078   3.738   2.497  10.641 -0.6803  0.0616 -0.5600
  888TIP3    H124079   3.645   2.475  10.632 -0.7410  0.4944 -1.0166
  888TIP3    H224080   3.746   2.583  10.601 -0.1336  0.1529 -0.2572
  889TIP3   OH224081   3.932   3.237  10.248 -0.4901 -0.2948  0.7163
  889TIP3    H124082   4.024   3.254  10.265 -0.0152 -2.6797  0.8656
  889TIP3    H224083   3.893   3.324  10.234  2.1820  0.6526 -1.6626
  890TIP3   OH224084   2.774   1.316  10.188 -0.2545 -0.1555 -0.6700
  890TIP3    H124085   2.771   1.229  10.148  2.0579 -0.1858 -0.9042
  890TIP3    H224086   2.778   1.377  10.115 -1.6796  0.1639 -0.5035
  891TIP3   OH224087   3.894   1.490   9.761 -0.1258 -0.4845  0.1512
  891TIP3    H124088   3.962   1.432   9.795  1.8095  0.2233 -2.1881
  891TIP3    H224089   3.826   1.490   9.829  1.8008 -1.9126  2.2419
  892TIP3   OH224090   4.169   3.564   9.672  0.0974 -0.0893  0.5664
  892TIP3    H124091   4.190   3.478   9.637  0.9922  0.0493  0.7356
  892TIP3    H224092   4.096   3.595   9.618  1.4714  0.1415 -1.2531
  893TIP3   OH224093   1.006   2.912   9.386 -0.0307  0.1177 -0.1255
  893TIP3    H124094   1.068   2.894   9.315 -0.3214 -0.1736 -0.3029
  893TIP3    H224095   1.033   2.998   9.419 -0.2686  0.5251 -0.9812
  894TIP3   OH224096   3.254   2.151  12.631  0.3643 -0.0588  0.0728
  894TIP3    H124097   3.230   2.210  12.702  0.0862 -0.7139  0.5341
  894TIP3    H224098   3.179   2.092  12.622  1.0412 -0.9700  0.2978
  895TIP3   OH224099   0.406   5.393  10.338  0.2263 -0.0810 -0.1330
  895TIP3    H124100   0.409   5.334  10.413  1.7257  1.2835  0.9675
  895TIP3    H224101   0.496   5.394  10.305  0.0586  0.9838 -0.5979
  896TIP3   OH224102   2.945   5.584  10.593 -0.2072 -0.1774  0.4013
  896TIP3    H124103   2.856   5.619  10.590  0.1875  0.8593  0.5901
  896TIP3    H224104   2.951   5.540  10.678  0.7691  3.4370  2.4222
  897TIP3   OH224105   1.100   6.705  10.256  0.2208  0.3894  0.0230
  897TIP3    H124106   1.193   6.713  10.236  0.1532  0.6150 -0.2016
  897TIP3    H224107   1.057   6.758  10.190 -0.0899  0.0050 -0.0855
  898TIP3   OH224108   0.169   0.350  10.938  0.5637  0.2956 -0.0132
  898TIP3    H124109   0.180   0.428  10.883 -0.7275 -1.0684 -2.3625
  898TIP3    H224110   0.081   0.359  10.975  1.0877  0.7601  1.1960
  899TIP3   OH224111   0.645   4.121  10.218 -0.0529 -0.4041 -0.1124
  899TIP3    H124112   0.613   4.179  10.149 -0.7897 -1.9484 -1.1456
  899TIP3    H224113   0.645   4.174  10.297  0.1321  1.2256 -1.1612
  900TIP3   OH224114   2.279   0.447   9.317 -0.3021 -0.2140  0.4781
  900TIP3    H124115   2.372   0.445   9.298 -0.4733  0.4315 -0.5689
  900TIP3    H224116   2.252   0.536   9.293 -1.1483 -0.3294  0.9479
  901TIP3   OH224117   1.117   1.569   9.290 -0.0927 -0.4500  0.1724
  901TIP3    H124118   1.050   1.506   9.314 -0.2611 -0.6990 -0.8859
  901TIP3    H224119   1.199   1.532   9.322 -0.6249  0.9309  3.5665
  902TIP3   OH224120   2.685   0.145  10.218 -0.6351 -0.0610 -0.2079
  902TIP3    H124121   2.743   0.098  10.278  1.0572  0.6247 -1.2350
  902TIP3    H224122   2.726   0.231  10.207 -1.5937  0.2756 -1.3438
  903TIP3   OH224123   5.503   5.972   8.978 -0.0200  0.0907  0.1803
  903TIP3    H124124   5.436   6.008   9.036  0.6963 -0.1053  1.1605
  903TIP3    H224125   5.471   5.990   8.890 -0.8120  1.0130  0.6351
  904TIP3   OH224126   4.814   2.506  12.676  0.2612 -0.2407 -0.0162
  904TIP3    H124127   4.811   2.420  12.718  0.3934  1.0299  2.8009
  904TIP3    H224128   4.787   2.489  12.586 -0.3459 -3.1283  0.5992
  905TIP3   OH224129   1.878   6.950  11.090  0.1600  0.1630  0.2880
  905TIP3    H124130   1.861   6.975  11.180  2.5377 -1.2588  1.2368
  905TIP3    H224131   1.864   7.030  11.039 -0.9836  1.0548  1.9222
  906TIP3   OH224132   1.162   6.323  12.875  0.2928  0.0685  0.4456
  906TIP3    H124133   1.179   6.287  12.962  1.6309  0.7867  0.5053
  906TIP3    H224134   1.126   6.249  12.826  0.4214 -0.6108  1.3325
  907TIP3   OH224135   2.592   2.658  15.120  0.7096 -0.2233  0.0905
  907TIP3    H124136   2.616   2.576  15.076  0.6921 -1.8445  2.8858
  907TIP3    H224137   2.619   2.727  15.058  1.5421 -2.2685 -1.9860
  908TIP3   OH224138   2.434   7.006  11.066 -0.1934 -0.2242 -0.2228
  908TIP3    H124139   2.417   7.097  11.088 -2.3836 -0.7164  0.4015
  908TIP3    H224140   2.460   7.008  10.974  0.0611  1.0328 -0.1369
  909TIP3   OH224141   7.041   1.173  12.819  1.2339  0.6987  0.4775
  909TIP3    H124142   6.960   1.201  12.860  0.3168 -1.5423  0.3467
  909TIP3    H224143   7.086   1.254  12.796 -1.2452  2.0267 -0.0261
  910TIP3   OH224144   6.094   4.987  10.736  0.3000  0.0824 -0.0742
  910TIP3    H124145   6.142   5.062  10.699  0.1471  0.5889  0.7392
  910TIP3    H224146   6.133   4.974  10.822 -0.6160  0.1137  0.3536
  911TIP3   OH224147   3.451   3.135   2.061  0.2173  0.1513  0.5779
  911TIP3    H124148   3.418   3.045   2.068 -1.6637  0.8377  1.1320
  911TIP3    H224149   3.402   3.173   1.989 -0.8480  1.4475  1.9265
  912TIP3   OH224150   5.831   1.953  11.640 -0.6822  0.1376  0.0431
  912TIP3    H124151   5.769   1.880  11.629 -0.8058  0.1565  0.5800
  912TIP3    H224152   5.847   1.956  11.734 -1.0679  1.1308  0.0862
  913TIP3   OH224153   4.166   2.027  11.007  0.0350  0.1864  0.8440
  913TIP3    H124154   4.122   2.066  10.931  1.9407 -0.8893 -0.9104
  913TIP3    H224155   4.182   1.936  10.982  0.4605 -0.2840  2.6670
  914TIP3   OH224156   5.486   6.354  11.318  0.1692  0.0952  0.3259
  914TIP3    H124157   5.531   6.367  11.235  0.7944  0.2238  0.6784
  914TIP3    H224158   5.547   6.387  11.384 -0.1015 -0.4695  0.8758
  915TIP3   OH224159   3.251   2.100  13.019 -0.2427 -0.0320  0.2015
  915TIP3    H124160   3.218   2.012  13.039  0.3115  0.1383  2.0503
  915TIP3    H224161   3.176   2.145  12.980 -1.0065 -0.8449  0.6790
  916TIP3   OH224162   6.627   6.249   1.096 -0.1357 -0.6159 -0.0972
  916TIP3    H124163   6.560   6.182   1.115 -1.0764  0.0711 -0.8930
  916TIP3    H224164   6.611   6.318   1.160  0.6070 -0.9723  0.4912
  917TIP3   OH224165   3.738   0.045  12.241 -0.2698  0.1559  0.3458
  917TIP3    H124166   3.709  -0.037  12.280  0.2163 -0.0703  0.2470
  917TIP3    H224167   3.746   0.106  12.314 -0.6361  0.1184  0.4195
  918TIP3   OH224168   5.235   1.286   9.562  0.3877 -0.2216 -0.0787
  918TIP3    H124169   5.289   1.243   9.496  0.9286  0.4610 -0.1015
  918TIP3    H224170   5.232   1.224   9.635  2.0542  0.1213  0.3226
  919TIP3   OH224171   3.235   6.343   2.338  0.6652 -0.4736 -0.3281
  919TIP3    H124172   3.247   6.298   2.421 -0.3114 -1.2172 -0.5687
  919TIP3    H224173   3.144   6.327   2.315  0.9088 -0.2584 -1.5240
  920TIP3   OH224174   0.963   5.848  10.515 -0.3223  0.0462  0.4134
  920TIP3    H124175   1.022   5.779  10.545  0.9497  0.3804 -1.2077
  920TIP3    H224176   0.982   5.922  10.573  0.6014  0.0326  0.1470
  921TIP3   OH224177   3.768   2.262  10.533  0.7785 -0.1049  0.0223
  921TIP3    H124178   3.771   2.297  10.443 -1.0595 -2.1264 -0.9036
  921TIP3    H224179   3.773   2.340  10.588 -0.3462  1.4096 -1.8675
  922TIP3   OH224180   2.974   2.633  14.315 -0.1911 -0.7815 -0.0253
  922TIP3    H124181   2.906   2.589  14.367 -2.1996 -1.2339 -2.8340
  922TIP3    H224182   2.946   2.724  14.312  0.9843 -0.3404  1.1868
  923TIP3   OH224183   3.866   6.966  11.524 -0.6308 -0.3833 -0.6555
  923TIP3    H124184   3.808   6.904  11.480 -0.6774 -0.5041 -0.4237
  923TIP3    H224185   3.888   6.924  11.608 -0.1378 -0.3814 -0.7783
  924TIP3   OH224186   2.159   3.979  11.137  0.7543 -0.0103 -0.3812
  924TIP3    H124187   2.138   3.981  11.043 -0.2324  0.7626 -0.1535
  924TIP3    H224188   2.156   4.070  11.165 -0.3404 -0.3528  0.6922
  925TIP3   OH224189   3.753   1.092   0.964 -0.0381 -0.6416 -0.5876
  925TIP3    H124190   3.736   1.110   0.871  1.8758  0.2120 -0.8099
  925TIP3    H224191   3.674   1.121   1.009 -0.2320  0.7559 -1.7740
  926TIP3   OH224192   4.833   4.204   0.046  0.1682 -0.2726 -0.2462
  926TIP3    H124193   4.752   4.232   0.003 -0.7999  0.8916  2.1565
  926TIP3    H224194   4.895   4.192  -0.026 -1.6486  0.4212 -2.0377
  927TIP3   OH224195   3.299   5.270  10.937 -1.0346 -0.1770 -0.1846
  927TIP3    H124196   3.324   5.204  10.872  0.4159  0.1613  0.0069
  927TIP3    H224197   3.319   5.353  10.894 -2.5173  0.1673 -0.2849
  928TIP3   OH224198   1.117   0.021   9.986  0.0159  0.1524 -0.2650
  928TIP3    H124199   1.108  -0.003   9.894 -2.1078  0.0204 -0.0613
  928TIP3    H224200   1.106  -0.061  10.033 -0.8127  0.5056  0.1710
  929TIP3   OH224201   2.280   6.335   9.441 -0.3660  0.4132  0.1360
  929TIP3    H124202   2.345   6.265   9.450  0.2111  0.9697  0.3503
  929TIP3    H224203   2.310   6.387   9.366 -0.4317  0.8064  0.3782
  930TIP3   OH224204   0.074   7.077  13.007 -0.6779  0.5032 -0.2269
  930TIP3    H124205   0.112   7.145  12.951 -0.6001  0.0789 -0.7010
  930TIP3    H224206  -0.020   7.081  12.987 -0.5513 -0.2073 -1.0294
  931TIP3   OH224207   1.868   1.010  10.292 -0.0756 -0.9523 -0.0861
  931TIP3    H124208   1.936   0.965  10.242  0.8724  2.2244 -1.9048
  931TIP3    H224209   1.821   1.063  10.228 -2.8209 -1.2291  1.5046
  932TIP3   OH224210   4.499   6.160   9.799  0.1962  0.6523 -0.0575
  932TIP3    H124211   4.592   6.139   9.807 -0.0604 -0.2277  0.7821
  932TIP3    H224212   4.477   6.135   9.709  0.3992 -0.7320  0.2550
  933TIP3   OH224213   1.530   0.335  12.036 -0.1245  0.1518 -0.4042
  933TIP3    H124214   1.591   0.402  12.066  0.5815 -0.8377  0.4281
  933TIP3    H224215   1.444   0.371  12.056  0.2768  0.3542  1.0874
  934TIP3   OH224216   0.048   7.043   0.820  0.1386 -0.0981 -0.4228
  934TIP3    H124217  -0.029   7.018   0.871  0.2125  1.6100  0.5882
  934TIP3    H224218   0.070   6.964   0.770  0.2423 -1.9888  2.3842
  935TIP3   OH224219   0.886   2.424   9.803 -0.1125 -0.1838  0.0316
  935TIP3    H124220   0.935   2.486   9.749  0.4580 -2.1504 -1.8507
  935TIP3    H224221   0.949   2.356   9.825 -0.6668 -0.0721  2.2472
  936TIP3   OH224222   4.462   5.755  11.483  0.1284  0.0964  0.1927
  936TIP3    H124223   4.456   5.790  11.572  0.2219 -2.2413  1.1934
  936TIP3    H224224   4.373   5.761  11.448 -0.1190  0.1137  0.8247
  937TIP3   OH224225   3.531   1.098  11.845 -0.4217 -0.1876 -0.2537
  937TIP3    H124226   3.575   1.069  11.925  1.9541  0.2460 -1.2948
  937TIP3    H224227   3.494   1.183  11.867  0.2684 -0.0419  0.3907
  938TIP3   OH224228   2.908   6.946  12.551  1.0600  0.2733  0.1818
  938TIP3    H124229   2.862   7.020  12.510  0.0317  0.0297  0.8604
  938TIP3    H224230   2.840   6.880  12.564  1.6424 -0.1790  1.0188
  939TIP3   OH224231   5.538   6.366   9.990 -0.8194 -0.1794 -0.1862
  939TIP3    H124232   5.496   6.280   9.982 -1.1364 -0.0970  0.5459
  939TIP3    H224233   5.608   6.353  10.054  0.4873 -0.3827 -1.5896
  940TIP3   OH224234   0.913   5.587   9.434 -0.0685  0.4258  0.2274
  940TIP3    H124235   0.986   5.553   9.486  1.2306  0.3085 -1.5845
  940TIP3    H224236   0.892   5.516   9.374  0.2042  1.4252 -1.1109
  941TIP3   OH224237   0.847   1.326  11.342  0.2760  0.2479 -0.3401
  941TIP3    H124238   0.886   1.412  11.358  1.6399 -0.6235  1.3592
  941TIP3    H224239   0.922   1.268  11.331 -0.6226 -0.6181 -2.3881
  942TIP3   OH224240   6.216   6.043  12.829  0.0009  0.8741  0.1932
  942TIP3    H124241   6.238   6.076  12.742 -1.1185  3.2409  0.7224
  942TIP3    H224242   6.300   6.024  12.870  0.5912  1.0030 -0.9261
  943TIP3   OH224243   6.056   4.464  15.269 -0.0022  0.3850 -0.1119
  943TIP3    H124244   5.990   4.433  15.330  0.5136  0.8474  0.6984
  943TIP3    H224245   6.008   4.479  15.187 -0.7569  0.0511  0.2640
  944TIP3   OH224246   2.066   1.129  12.814  0.5396  0.3567 -0.3231
  944TIP3    H124247   1.973   1.113  12.832  0.9546 -0.9103  0.8370
  944TIP3    H224248   2.077   1.223  12.831 -0.6174  0.6275 -0.9689
  945TIP3   OH224249   5.699   1.213  11.436  0.1646  0.2870  0.3209
  945TIP3    H124250   5.614   1.226  11.395  0.8652  0.8872 -0.9838
  945TIP3    H224251   5.714   1.294  11.486  0.8307  1.0718 -1.0822
  946TIP3   OH224252   6.495   2.255  14.299 -0.0756 -0.0491 -0.1124
  946TIP3    H124253   6.522   2.334  14.347 -0.0449 -0.2564  0.2143
  946TIP3    H224254   6.486   2.188  14.366  4.6354 -1.7005 -0.7723
  947TIP3   OH224255   4.879   5.409   9.933  0.4557  0.4468 -0.0626
  947TIP3    H124256   4.880   5.497   9.896 -2.2396  1.0689  1.0459
  947TIP3    H224257   4.900   5.422  10.025 -2.5051  0.4403  0.7216
  948TIP3   OH224258   5.751   2.760  10.106  0.3982 -0.1186  0.5283
  948TIP3    H124259   5.690   2.730  10.173  1.7893  1.1449  2.4988
  948TIP3    H224260   5.812   2.687  10.096  0.5036 -0.1189  1.0923
  949TIP3   OH224261   0.459   2.948  11.065 -0.4465 -0.1532 -0.0846
  949TIP3    H124262   0.453   2.883  11.136  0.3159 -1.2421 -0.9819
  949TIP3    H224263   0.386   2.928  11.007 -1.3069  0.9929  0.5696
  950TIP3   OH224264   2.224   6.964  10.343 -0.0944  0.0173 -0.0452
  950TIP3    H124265   2.217   7.053  10.309 -4.3039 -0.6004 -1.3247
  950TIP3    H224266   2.203   6.972  10.436  1.8877  0.5231  0.4170
  951TIP3   OH224267   5.678   1.247  12.088 -0.1421  0.6821  0.1731
  951TIP3    H124268   5.688   1.213  11.999 -1.6286  0.6929 -0.0341
  951TIP3    H224269   5.702   1.339  12.082 -0.0830  0.6439 -0.1858
  952TIP3   OH224270   5.213   5.238  14.217  0.9344 -0.7230  0.1544
  952TIP3    H124271   5.237   5.319  14.171 -1.5546 -0.8673 -1.6403
  952TIP3    H224272   5.147   5.265  14.281  0.3543 -1.2504 -0.2064
  953TIP3   OH224273   0.807   2.278  11.369  0.3716 -0.5674 -0.2651
  953TIP3    H124274   0.893   2.243  11.392 -0.3440 -1.5574  1.1064
  953TIP3    H224275   0.814   2.372  11.383  0.9015 -0.7827  1.0299
  954TIP3   OH224276   6.910   6.848   0.586 -0.1544  0.7361 -0.5765
  954TIP3    H124277   6.819   6.876   0.576 -1.4902 -3.0979 -0.8478
  954TIP3    H224278   6.945   6.851   0.497 -1.1048 -0.7449 -1.0467
  955TIP3   OH224279   5.038   4.840   9.725 -0.3782  0.4435  0.1381
  955TIP3    H124280   5.001   4.875   9.807 -1.5112 -0.1804 -0.0792
  955TIP3    H224281   5.132   4.843   9.738 -0.4054  3.1495  0.2994
  956TIP3   OH224282   5.709   2.848  10.945 -0.1439  0.1446 -0.0660
  956TIP3    H124283   5.708   2.779  10.878 -1.3021 -1.1481  1.2005
  956TIP3    H224284   5.673   2.925  10.901  1.0792 -0.0479 -1.4927
  957TIP3   OH224285   3.887   0.009  11.739 -0.6641  0.4282 -0.3135
  957TIP3    H124286   3.807  -0.031  11.706 -0.6294 -1.2467  1.4872
  957TIP3    H224287   3.886  -0.008  11.833  0.5992  2.5710  0.1654
  958TIP3   OH224288   2.321   5.275  13.819 -0.0399 -0.2770  0.3757
  958TIP3    H124289   2.259   5.202  13.815 -0.1894 -0.1275 -3.7520
  958TIP3    H224290   2.400   5.241  13.776 -0.1400  1.9202 -1.7316
  959TIP3   OH224291   5.792   1.279  10.693  0.0362 -0.4061 -0.1090
  959TIP3    H124292   5.827   1.205  10.744 -0.3898  0.0352  0.8460
  959TIP3    H224293   5.787   1.351  10.756 -1.4774 -0.1376 -0.5161
  960TIP3   OH224294   2.930   0.826   9.887 -0.3800 -0.3680  0.4966
  960TIP3    H124295   2.886   0.905   9.855 -0.1003 -0.1974  0.5298
  960TIP3    H224296   3.003   0.812   9.827  0.1712 -0.0227  1.0697
  961TIP3   OH224297   3.891   4.483  13.907 -0.4441 -0.2692  0.2969
  961TIP3    H124298   3.830   4.542  13.952  0.0558  1.6743 -1.3776
  961TIP3    H224299   3.964   4.474  13.968  0.6353  3.0262 -0.2680
  962TIP3   OH224300   2.937   2.033  10.673  0.1451 -0.6353 -0.6137
  962TIP3    H124301   2.964   1.988  10.754 -2.6102  0.0886  0.8293
  962TIP3    H224302   3.001   2.104  10.663  1.5209 -1.7366 -0.0509
  963TIP3   OH224303   4.334   4.234  10.779  0.0368 -0.0029 -0.0937
  963TIP3    H124304   4.267   4.239  10.711 -0.1423 -0.0550  0.0768
  963TIP3    H224305   4.396   4.304  10.757 -1.2041  1.4821  0.9487
  964TIP3   OH224306   6.692   1.190  11.124 -0.1821 -0.5586 -0.1507
  964TIP3    H124307   6.705   1.279  11.090  3.1327 -0.8922 -0.0553
  964TIP3    H224308   6.664   1.203  11.214  2.1794  0.5163  0.5045
  965TIP3   OH224309   3.131   4.834  10.516  0.0896  0.1800 -0.5075
  965TIP3    H124310   3.082   4.774  10.460 -1.0462  0.5898  0.0143
  965TIP3    H224311   3.139   4.914  10.464 -1.5072  0.7764  0.0996
  966TIP3   OH224312   5.172   0.448  10.625 -0.1368  0.7082  0.2758
  966TIP3    H124313   5.206   0.434  10.536  0.9259 -1.7765  1.0144
  966TIP3    H224314   5.089   0.400  10.627  0.4367 -0.2745  0.9669
  967TIP3   OH224315   6.687   0.126  12.841 -0.5192  1.0848  0.1774
  967TIP3    H124316   6.663   0.195  12.780  1.0527  1.5301  0.0355
  967TIP3    H224317   6.655   0.156  12.926  0.2755  2.0676  0.1407
  968TIP3   OH224318   7.049   6.276  10.818 -0.0284 -0.4710 -0.2034
  968TIP3    H124319   7.059   6.228  10.736  0.0460  0.5483 -0.8043
  968TIP3    H224320   7.100   6.356  10.805 -0.7121  0.0905  0.5232
  969TIP3   OH224321   6.669   1.956  12.119  0.2071 -0.0439  0.6672
  969TIP3    H124322   6.600   2.010  12.157 -0.2518 -0.1767  0.0348
  969TIP3    H224323   6.735   2.019  12.089 -0.2907  0.1666  0.0041
  970TIP3   OH224324   2.396   1.601  10.661 -0.2613 -0.0198 -0.0296
  970TIP3    H124325   2.409   1.633  10.572  0.1358 -0.9291 -0.3199
  970TIP3    H224326   2.324   1.538  10.653  1.4706 -2.1012 -0.2665
  971TIP3   OH224327   6.668   6.572  13.945 -0.0983  0.3099 -0.4222
  971TIP3    H124328   6.575   6.582  13.929 -0.2722 -0.8051 -0.1703
  971TIP3    H224329   6.681   6.607  14.034 -0.1740  0.9620 -0.6645
  972TIP3   OH224330   5.381   1.529  12.172 -0.0639  0.0168 -0.4833
  972TIP3    H124331   5.382   1.550  12.079 -1.3219  0.4233 -0.4123
  972TIP3    H224332   5.292   1.547  12.201  0.3122 -0.0690  0.8134
  973TIP3   OH224333   2.999   3.258  13.905  0.4817 -0.4088  0.6882
  973TIP3    H124334   3.041   3.177  13.933 -0.8817 -0.8240  1.5956
  973TIP3    H224335   2.915   3.259  13.949 -0.1344  0.8204 -0.4204
  974TIP3   OH224336   0.319   3.325  13.085  0.2056 -0.1793 -0.3743
  974TIP3    H124337   0.399   3.352  13.130 -0.4084  0.1511  0.5768
  974TIP3    H224338   0.338   3.238  13.050  1.4584  0.4975 -1.4581
  975TIP3   OH224339   2.804   5.818  13.931  0.1535  0.4564 -0.0375
  975TIP3    H124340   2.718   5.836  13.893  0.0666 -0.2624 -0.1838
  975TIP3    H224341   2.787   5.807  14.024 -0.1445 -1.1729 -0.2678
  976TIP3   OH224342   3.874   3.248  13.720  0.7161  0.0265 -0.2452
  976TIP3    H124343   3.949   3.229  13.777  0.3605  0.2589  0.3120
  976TIP3    H224344   3.804   3.192  13.754  0.3088  0.6591 -0.0240
  977TIP3   OH224345   4.904   0.950  12.382  0.4881  0.4202  0.2862
  977TIP3    H124346   4.820   0.946  12.428 -0.6069  0.5285 -1.6241
  977TIP3    H224347   4.945   1.030  12.415  0.1022  0.0827  1.6316
  978TIP3   OH224348   5.590   5.649  11.947  0.3916  0.9141  0.0084
  978TIP3    H124349   5.677   5.614  11.926  0.1479 -0.4170  1.0850
  978TIP3    H224350   5.607   5.717  12.012  0.7146  1.5939 -0.7633
  979TIP3   OH224351   4.754   5.889  11.819  0.0725  0.3697  0.3803
  979TIP3    H124352   4.756   5.979  11.786  2.4685  0.3882  0.3799
  979TIP3    H224353   4.787   5.896  11.909 -0.6271 -0.4106  0.7098
  980TIP3   OH224354   4.282   0.953  11.682 -0.0608 -0.2206 -0.3902
  980TIP3    H124355   4.235   1.031  11.711 -0.0914 -0.2983 -0.2254
  980TIP3    H224356   4.367   0.986  11.653 -0.3297 -0.0440 -0.9794
  981TIP3   OH224357   5.041   1.252  10.637  0.4002 -0.0436  0.2895
  981TIP3    H124358   5.117   1.286  10.589  0.7320 -2.1604 -0.7776
  981TIP3    H224359   4.968   1.262  10.576  0.2024  0.1334  0.5515
  982TIP3   OH224360   2.245   2.076  13.047 -0.3169  0.1503 -0.1748
  982TIP3    H124361   2.270   2.161  13.010  0.3712 -0.6024 -1.5236
  982TIP3    H224362   2.328   2.028  13.054 -0.8249 -0.7848 -0.4456
  983TIP3   OH224363   4.356   2.608  10.519  0.4367  0.0955 -0.0788
  983TIP3    H124364   4.379   2.690  10.563 -2.2366  0.4851  0.7981
  983TIP3    H224365   4.334   2.548  10.590  0.3068 -0.6946 -0.7692
  984TIP3   OH224366   4.892   5.687   9.949  0.8547 -0.1182  0.3650
  984TIP3    H124367   4.929   5.665  10.034  0.9015  0.7875  0.5938
  984TIP3    H224368   4.911   5.780   9.938  1.7458 -0.4351 -1.0833
  985TIP3   OH224369   0.011   1.317  11.699  0.2190 -0.2952  0.3071
  985TIP3    H124370   0.060   1.395  11.727 -1.4548  0.5359  1.0223
  985TIP3    H224371   0.003   1.328  11.604 -0.5681  0.7749  0.4742
  986TIP3   OH224372   4.339   5.245  12.925 -0.7150  0.4378  0.4767
  986TIP3    H124373   4.273   5.261  12.993 -1.9474  2.2161 -1.0156
  986TIP3    H224374   4.379   5.161  12.948 -1.7725  0.5122  2.8074
  987TIP3   OH224375   2.450   6.862  12.351 -0.4673  0.2931 -0.1228
  987TIP3    H124376   2.362   6.823  12.361 -0.7005  1.0035  0.7735
  987TIP3    H224377   2.456   6.924  12.424  0.0937  1.5588 -1.2197
  988TIP3   OH224378   5.759   6.164  12.997 -0.2243 -0.1441  0.1581
  988TIP3    H124379   5.786   6.118  12.918 -2.3807  0.7385 -1.1851
  988TIP3    H224380   5.775   6.257  12.978 -0.4237  0.0464  0.8986
  989TIP3   OH224381   6.211   1.365  10.682 -0.0725  0.6097 -0.1393
  989TIP3    H124382   6.244   1.405  10.763 -0.0188  1.1336 -0.4107
  989TIP3    H224383   6.207   1.272  10.701 -1.0378  0.8330  0.8100
  990TIP3   OH224384   2.175   6.261   0.828 -0.3764 -0.0217  0.0628
  990TIP3    H124385   2.254   6.209   0.841  0.5246  1.2119 -0.2664
  990TIP3    H224386   2.104   6.197   0.827  0.3293 -0.9605  2.6121
  991TIP3   OH224387   2.112   3.415  11.414  0.0592  0.5224 -0.3976
  991TIP3    H124388   2.085   3.329  11.381  0.3464 -0.2023  1.1739
  991TIP3    H224389   2.031   3.466  11.416 -1.2988 -1.3748  3.5189
  992TIP3   OH224390   6.548   0.261   9.123 -0.3169 -0.1851 -0.0601
  992TIP3    H124391   6.465   0.229   9.088  0.5882 -1.2479 -1.3744
  992TIP3    H224392   6.531   0.353   9.145 -1.4053  0.1017 -1.8684
  993TIP3   OH224393   2.959   6.916   2.362 -0.4013  0.2414  0.9256
  993TIP3    H124394   3.050   6.945   2.369  0.1136 -0.9004 -0.3969
  993TIP3    H224395   2.919   6.976   2.298 -0.0532 -0.3354  0.1450
  994TIP3   OH224396   6.848   6.577  10.195 -0.2413  0.1143 -0.6068
  994TIP3    H124397   6.813   6.525  10.123 -1.2123  0.4835 -0.4210
  994TIP3    H224398   6.933   6.606  10.164 -0.4713 -0.0748 -1.4508
  995TIP3   OH224399   6.519   0.402  13.627 -0.2888 -0.6078  0.7741
  995TIP3    H124400   6.512   0.497  13.620  3.0735 -0.2115  1.1297
  995TIP3    H224401   6.474   0.381  13.709 -1.4165  0.5646  0.5036
  996TIP3   OH224402   4.129   4.992  12.618 -0.3608 -0.2378 -0.1493
  996TIP3    H124403   4.185   4.919  12.590 -0.5008  0.0520 -1.2355
  996TIP3    H224404   4.045   4.952  12.640 -0.0735 -0.5392  0.4266
  997TIP3   OH224405   3.130   4.099  13.344  0.0969  0.2504 -0.5202
  997TIP3    H124406   3.146   4.178  13.292  1.0436  0.3348 -0.1278
  997TIP3    H224407   3.123   4.029  13.280  2.3413  0.1765 -0.7682
  998TIP3   OH224408   5.672   6.092  14.171 -0.1948 -0.0061 -0.0791
  998TIP3    H124409   5.646   6.027  14.105 -1.2936  1.6785 -1.3833
  998TIP3    H224410   5.767   6.099  14.161 -0.3245  0.0972 -1.4201
  999TIP3   OH224411   4.914   2.152   9.895 -0.2343  0.0769  0.5746
  999TIP3    H124412   4.950   2.169   9.983  3.5701 -1.5586 -0.4596
  999TIP3    H224413   4.965   2.209   9.837 -1.2055 -0.3966 -0.7996
 1000TIP3   OH224414   2.134   4.245  14.841  0.3873  0.3140 -0.0421
 1000TIP3    H124415   2.075   4.295  14.784 -0.5813  1.0310  1.5250
 1000TIP3    H224416   2.100   4.260  14.929  2.8846  0.6780  0.9314
 1001TIP3   OH224417   5.333   2.006  10.879  0.4635 -0.0126 -0.5578
 1001TIP3    H124418   5.382   1.955  10.943  0.6319 -0.5024 -1.0743
 1001TIP3    H224419   5.301   2.082  10.929  2.5177  0.8161 -0.4271
 1002TIP3   OH224420   3.933   6.794  10.059 -0.3418  0.0023 -0.3144
 1002TIP3    H124421   3.882   6.836   9.990 -1.3182  0.1613  0.4793
 1002TIP3    H224422   3.957   6.865  10.118  1.8785  0.1340 -1.2808
 1003TIP3   OH224423   4.130   0.486   9.921  0.0344 -0.1191  0.7415
 1003TIP3    H124424   4.134   0.487  10.016  0.1321 -0.5211  0.7408
 1003TIP3    H224425   4.116   0.394   9.897 -1.1083  0.1183  0.4067
 1004TIP3   OH224426   5.310   2.962   9.841  0.5805 -0.0435 -0.3348
 1004TIP3    H124427   5.377   2.970   9.774  0.0749  2.6096 -0.6151
 1004TIP3    H224428   5.348   2.903   9.906  2.7420  0.5158 -1.0118
 1005TIP3   OH224429   2.694   1.772  11.923 -0.1279  0.4255 -0.2924
 1005TIP3    H124430   2.723   1.700  11.980 -1.9761 -1.0077 -1.0542
 1005TIP3    H224431   2.612   1.802  11.961  0.7828  2.4322  0.2012
 1006TIP3   OH224432   4.814   3.483   1.724  0.6004  0.0820  0.4173
 1006TIP3    H124433   4.884   3.537   1.687  0.2264 -1.8080 -3.6028
 1006TIP3    H224434   4.735   3.537   1.714  0.6346 -0.0858 -0.8928
 1007TIP3   OH224435   1.672   2.996  10.763 -0.4331  0.2368  0.0462
 1007TIP3    H124436   1.745   3.028  10.709 -0.9478  0.6175 -0.4460
 1007TIP3    H224437   1.593   3.029  10.718 -0.9031 -0.0954  0.6119
 1008TIP3   OH224438   4.654   0.883   1.185  0.0233  0.0248  0.3999
 1008TIP3    H124439   4.699   0.811   1.229  0.2005  0.8107  1.5283
 1008TIP3    H224440   4.725   0.942   1.159 -0.1968  0.2633  0.3411
 1009TIP3   OH224441   3.302   0.972  10.320 -0.3776  0.7682  0.0675
 1009TIP3    H124442   3.273   0.899  10.265  0.6636  1.3350 -1.3203
 1009TIP3    H224443   3.373   0.936  10.372 -1.0151  0.3585  0.6591
 1010TIP3   OH224444   4.213   2.612   9.481  0.2481 -0.1249  0.5579
 1010TIP3    H124445   4.240   2.521   9.497 -0.1858 -0.5906 -1.1144
 1010TIP3    H224446   4.118   2.611   9.490 -0.0505 -0.4702 -1.9431
 1011TIP3   OH224447   5.833   3.477   0.688  0.1044 -0.6979  0.3826
 1011TIP3    H124448   5.780   3.473   0.768 -0.3803  1.0076  0.1984
 1011TIP3    H224449   5.911   3.425   0.708 -0.7279 -1.6116  1.3812
 1012TIP3   OH224450   3.015   6.241  13.133 -0.0638 -0.4448 -0.0793
 1012TIP3    H124451   2.960   6.244  13.055 -1.4580 -0.2000  0.8674
 1012TIP3    H224452   2.961   6.280  13.202  1.6215  0.5868  0.7288
 1013TIP3   OH224453   4.807   1.325  13.707  0.0490  0.3888 -0.6080
 1013TIP3    H124454   4.899   1.319  13.679  0.9991  1.7277  1.8837
 1013TIP3    H224455   4.810   1.380  13.786 -2.7113 -0.8472  0.4752
 1014TIP3   OH224456   6.744   6.956   1.701  0.2768 -0.6295 -0.3647
 1014TIP3    H124457   6.771   7.024   1.763 -0.6106 -1.4564  0.9760
 1014TIP3    H224458   6.824   6.931   1.656  0.3662  2.5634 -2.2543
 1015TIP3   OH224459   3.227   2.746  11.627  0.4308 -0.4593 -0.3074
 1015TIP3    H124460   3.159   2.772  11.565  1.3213 -0.5121 -1.3178
 1015TIP3    H224461   3.310   2.764  11.583  1.0895 -0.7375  0.7609
 1016TIP3   OH224462   3.387   5.450  11.293 -0.3402 -0.0356  0.2107
 1016TIP3    H124463   3.398   5.455  11.388  0.8442  0.0224  0.0845
 1016TIP3    H224464   3.404   5.358  11.272 -0.7690 -0.0844  0.0699
 1017TIP3   OH224465   4.477   3.081   9.714  0.0489 -0.0837  0.3008
 1017TIP3    H124466   4.384   3.058   9.720 -0.1920  0.9457  0.8583
 1017TIP3    H224467   4.496   3.123   9.798  0.3011  2.1469 -0.7981
 1018TIP3   OH224468   4.773   0.061   9.708 -0.0068 -0.1596 -0.1891
 1018TIP3    H124469   4.751  -0.010   9.648  0.7567 -0.8947  0.3803
 1018TIP3    H224470   4.867   0.052   9.722 -0.0741  0.3648  0.6504
 1019TIP3   OH224471   0.239   3.372  11.399  0.0178 -0.0624 -0.0570
 1019TIP3    H124472   0.298   3.440  11.432 -0.0575  0.6076 -1.2589
 1019TIP3    H224473   0.290   3.326  11.333 -0.5501  0.0342 -0.5697
 1020TIP3   OH224474   6.404   1.998   1.129  0.2625  0.1789 -0.1704
 1020TIP3    H124475   6.457   2.049   1.067 -2.2497  1.1519 -1.7253
 1020TIP3    H224476   6.346   1.947   1.073 -0.9354 -0.2535  1.4065
 1021TIP3   OH224477   6.342   3.777  12.456  0.5553  0.2072  0.7246
 1021TIP3    H124478   6.271   3.803  12.397  0.5433  0.6310  0.9220
 1021TIP3    H224479   6.299   3.727  12.525  0.5008  0.1395  0.6422
 1022TIP3   OH224480   0.365   6.710  13.364  0.1365  0.5039  0.2226
 1022TIP3    H124481   0.382   6.786  13.309  0.4149 -1.9533 -3.4548
 1022TIP3    H224482   0.270   6.701  13.366  0.0937  1.0418  0.8634
 1023TIP3   OH224483   4.691   4.519   9.446 -0.6978  0.6946 -0.0048
 1023TIP3    H124484   4.744   4.537   9.524 -2.0871  1.7274  0.7576
 1023TIP3    H224485   4.752   4.526   9.373  0.7545 -0.7718  0.9850
 1024TIP3   OH224486   5.581   5.204   9.160  0.1032 -0.2169  0.3345
 1024TIP3    H124487   5.675   5.188   9.157  0.3581  1.2213 -1.7177
 1024TIP3    H224488   5.544   5.122   9.193  1.9978 -1.1514  0.2905
 1025TIP3   OH224489   1.506   4.939  11.575 -0.1945  0.1652  0.5478
 1025TIP3    H124490   1.428   4.927  11.522  0.4166 -2.3035  0.0900
 1025TIP3    H224491   1.572   4.974  11.515 -0.4560  0.6567  0.5415
 1026TIP3   OH224492   2.466   4.223   1.311 -0.5004 -0.8865 -0.3056
 1026TIP3    H124493   2.461   4.128   1.313  1.3401 -1.0671 -1.6656
 1026TIP3    H224494   2.518   4.246   1.388 -4.3481 -0.5568  2.4334
 1027TIP3   OH224495   4.339   6.220  10.974 -0.2194 -0.0993  0.3825
 1027TIP3    H124496   4.420   6.236  10.925  0.3546  1.4311  1.7534
 1027TIP3    H224497   4.298   6.306  10.980 -1.3669 -0.6551  0.7158
 1028TIP3   OH224498   5.537   3.608  10.768 -0.7502 -0.1511 -0.3925
 1028TIP3    H124499   5.533   3.695  10.728 -1.1861 -0.1274 -0.2951
 1028TIP3    H224500   5.627   3.579  10.753 -0.7706  0.0657 -0.9497
 1029TIP3   OH224501   3.415   0.419  11.466 -0.0910 -0.4055  0.0849
 1029TIP3    H124502   3.424   0.484  11.396  0.0824  0.2873  0.7495
 1029TIP3    H224503   3.503   0.381  11.474  0.0893  0.0926  0.4858
 1030TIP3   OH224504   5.021   1.109   9.976 -0.0971 -0.1173  0.0285
 1030TIP3    H124505   5.044   1.019   9.998  2.2009  0.5545  0.6743
 1030TIP3    H224506   4.945   1.129  10.031 -2.2374 -2.3493 -1.8737
 1031TIP3   OH224507   5.227   3.815  11.393  0.2395  0.3707  1.2441
 1031TIP3    H124508   5.233   3.778  11.305 -0.9606  0.2846  1.1766
 1031TIP3    H224509   5.301   3.778  11.440 -0.8086 -2.0839  1.1401
 1032TIP3   OH224510   4.336   3.845  11.742  0.2864  0.3366  0.6124
 1032TIP3    H124511   4.332   3.796  11.660  0.0368  0.4155  0.5769
 1032TIP3    H224512   4.273   3.801  11.799 -0.4700  1.0509  0.3435
 1033TIP3   OH224513   5.910   2.530   1.007 -0.4623  1.0029  0.1271
 1033TIP3    H124514   5.824   2.569   1.026 -0.3910  0.4454  1.7954
 1033TIP3    H224515   5.908   2.512   0.913 -2.6175  0.0065  0.2963
 1034TIP3   OH224516   4.546   4.356  11.093  0.5945 -0.2223 -0.0397
 1034TIP3    H124517   4.628   4.315  11.068  1.2409  0.3117  1.0994
 1034TIP3    H224518   4.515   4.304  11.167 -0.8500 -1.2838 -1.3309
 1035TIP3   OH224519   6.754   3.563  11.785  0.2004 -0.2814 -0.3839
 1035TIP3    H124520   6.774   3.470  11.774  0.6114 -0.3678  0.8810
 1035TIP3    H224521   6.671   3.575  11.741 -0.1783 -1.4017 -0.0184
 1036TIP3   OH224522   3.863   2.462  10.323 -0.3351  0.1017 -0.3441
 1036TIP3    H124523   3.886   2.545  10.365 -1.1718 -0.0104  0.3526
 1036TIP3    H224524   3.773   2.474  10.293  0.2849  0.2195 -2.2581
 1037TIP3   OH224525   2.411   4.591  12.298  0.0806 -0.3464  0.6314
 1037TIP3    H124526   2.443   4.501  12.301  0.0509 -0.3534  0.7319
 1037TIP3    H224527   2.316   4.583  12.294  0.1107 -0.4321 -2.9254
 1038TIP3   OH224528   4.629   4.024  10.921  0.7156  0.5189  0.6658
 1038TIP3    H124529   4.555   4.004  10.864  0.6766 -0.7265  1.1122
 1038TIP3    H224530   4.693   4.066  10.863  0.7603 -0.9006 -0.3640
 1039TIP3   OH224531   5.652   3.251   9.602 -0.2308  0.5569 -0.2232
 1039TIP3    H124532   5.722   3.310   9.576 -0.5405  0.8275 -0.4457
 1039TIP3    H224533   5.600   3.302   9.665  0.4085 -0.0243  0.8185
 1040TIP3   OH224534   0.166   5.687  14.759  0.5032 -0.2866  0.3979
 1040TIP3    H124535   0.160   5.747  14.834  1.9098  2.1372 -1.2995
 1040TIP3    H224536   0.244   5.633  14.777 -0.2580 -1.0601  1.5125
 1041TIP3   OH224537   5.085   4.500   9.457 -0.1802  0.0934 -0.3535
 1041TIP3    H124538   5.155   4.538   9.511  1.3597 -3.5146  0.4276
 1041TIP3    H224539   5.127   4.481   9.373 -0.6409 -0.7297 -0.4002
 1042TIP3   OH224540   3.758   5.213  11.442 -0.2195 -0.0992 -0.8234
 1042TIP3    H124541   3.744   5.287  11.501 -2.6693 -1.3393  0.2865
 1042TIP3    H224542   3.850   5.221  11.415  0.0631  2.3453  0.5720
 1043TIP3   OH224543   4.307   1.660  14.895  0.6100 -0.0178 -0.9729
 1043TIP3    H124544   4.294   1.566  14.905  1.1936 -0.1110 -1.0838
 1043TIP3    H224545   4.346   1.688  14.978  1.5183 -0.0766 -1.3675
 1044TIP3   OH224546   1.216   5.290  10.477 -0.6538  0.0603 -0.0931
 1044TIP3    H124547   1.229   5.314  10.385  1.7028 -0.2778  0.1123
 1044TIP3    H224548   1.129   5.248  10.478 -0.9578  0.5182 -2.0472
 1045TIP3   OH224549   2.934   5.889  10.621 -0.1751 -0.0842 -0.4907
 1045TIP3    H124550   2.936   5.828  10.695  1.1194  2.0045  1.3315
 1045TIP3    H224551   2.850   5.934  10.630 -0.8386 -1.0741 -1.4493
 1046TIP3   OH224552   2.698   2.440  10.532 -0.0865  0.1098  0.4435
 1046TIP3    H124553   2.728   2.349  10.535 -1.0028 -0.3597 -2.2169
 1046TIP3    H224554   2.764   2.486  10.480 -0.3965  0.6299  0.4999
 1047TIP3   OH224555   0.352   6.781  13.826  0.1937  0.3538 -0.0922
 1047TIP3    H124556   0.420   6.844  13.848  1.1124  0.1720 -2.1895
 1047TIP3    H224557   0.345   6.725  13.903  2.0816  0.6680  0.3459
 1048TIP3   OH224558   0.461   3.330  12.684  0.3438 -0.7266  0.1759
 1048TIP3    H124559   0.524   3.365  12.620 -1.5561 -0.7016 -1.8199
 1048TIP3    H224560   0.457   3.236  12.664  0.6850 -0.9633  1.1726
 1049TIP3   OH224561   6.914   7.123  10.447  0.3169 -0.3531 -0.5560
 1049TIP3    H124562   6.875   7.189  10.389 -1.8590 -0.9687  0.0936
 1049TIP3    H224563   6.849   7.053  10.451  0.7513 -0.7139  1.9364
 1050TIP3   OH224564   6.634   5.555  11.626 -0.0701  0.1429  0.0340
 1050TIP3    H124565   6.540   5.540  11.636 -0.1413 -0.1622 -0.9454
 1050TIP3    H224566   6.661   5.490  11.561  0.9338 -0.1453  0.7317
 1051TIP3   OH224567   4.080   4.892  10.892  0.2420  0.1694 -0.5148
 1051TIP3    H124568   4.057   4.946  10.816 -0.9017  0.1621 -0.1927
 1051TIP3    H224569   4.116   4.954  10.955 -0.2096  0.4109 -0.4933
 1052TIP3   OH224570   6.718   5.441   9.726  0.6811 -0.2625 -0.5199
 1052TIP3    H124571   6.696   5.394   9.645  0.1169  0.6023 -0.8928
 1052TIP3    H224572   6.752   5.525   9.695  0.3177  0.1335  0.1418
 1053TIP3   OH224573   0.355   4.251  11.379 -0.2480 -0.0103  0.3131
 1053TIP3    H124574   0.280   4.293  11.336  1.0497  0.5583 -1.4766
 1053TIP3    H224575   0.326   4.240  11.470 -3.2552 -1.6137 -0.6809
 1054TIP3   OH224576   5.000   3.443  11.555  0.2265  0.0355 -0.4711
 1054TIP3    H124577   5.014   3.402  11.469 -1.8789  0.4380 -1.0647
 1054TIP3    H224578   4.978   3.370  11.613 -0.0954 -0.0559 -0.7057
 1055TIP3   OH224579   6.237   5.579  14.506 -0.2659 -0.1794 -0.4659
 1055TIP3    H124580   6.195   5.604  14.588 -0.7485  0.2077 -0.8242
 1055TIP3    H224581   6.330   5.599  14.519 -0.6370  2.0221 -0.7924
 1056TIP3   OH224582   3.852   6.780  15.314  0.1842  0.4290 -0.6746
 1056TIP3    H124583   3.905   6.701  15.304  1.2671  0.9021  0.8700
 1056TIP3    H224584   3.819   6.798  15.227  0.3659 -1.4168 -1.1615
 1057TIP3   OH224585   2.263   2.112   9.914 -0.3917 -0.0506  0.3778
 1057TIP3    H124586   2.279   2.060   9.993  0.1646  1.2084  1.1160
 1057TIP3    H224587   2.168   2.115   9.907 -0.4656  0.3090  1.3404
 1058TIP3   OH224588   6.200   1.124   3.284 -0.1218 -0.2406 -0.4227
 1058TIP3    H124589   6.137   1.192   3.260 -0.6765 -0.9834 -1.1118
 1058TIP3    H224590   6.146   1.048   3.304  0.5675 -1.1818 -1.9676
 1059TIP3   OH224591   1.143   1.496  13.707 -0.1865  0.3479  0.0673
 1059TIP3    H124592   1.110   1.439  13.637 -0.4519 -0.1676  0.6076
 1059TIP3    H224593   1.109   1.583  13.685  1.5639  0.6798 -1.6792
 1060TIP3   OH224594   6.790   1.950  10.632 -0.2146 -0.5904  0.2782
 1060TIP3    H124595   6.802   2.012  10.559 -1.1943 -0.5195  0.1519
 1060TIP3    H224596   6.703   1.912  10.616 -0.0600 -1.2312  0.9292
 1061TIP3   OH224597   1.550   0.443  11.760  0.7381 -0.6536 -0.0266
 1061TIP3    H124598   1.510   0.423  11.675  1.1500 -1.9106  0.0492
 1061TIP3    H224599   1.635   0.480  11.739  0.8422 -0.9693 -0.1704
 1062TIP3   OH224600   4.416   3.588   9.805  0.1937  0.8381  0.6147
 1062TIP3    H124601   4.432   3.670   9.758 -0.2710  0.0413 -1.0185
 1062TIP3    H224602   4.327   3.563   9.781  0.2369 -0.0140  1.2920
 1063TIP3   OH224603   4.097   0.458  13.776  0.2069 -0.2407 -0.2719
 1063TIP3    H124604   4.094   0.389  13.843 -2.2384  0.0184 -0.0183
 1063TIP3    H224605   4.049   0.421  13.702  1.5605  0.0694 -1.3395
 1064TIP3   OH224606   1.699   5.499  12.437  0.2538  0.2214 -0.1346
 1064TIP3    H124607   1.655   5.443  12.500  1.3801 -0.6098 -0.0552
 1064TIP3    H224608   1.633   5.516  12.369 -0.1413 -1.1334 -0.1167
 1065TIP3   OH224609   3.774   0.396  12.700  0.2319 -0.6630 -0.1732
 1065TIP3    H124610   3.810   0.374  12.786 -0.7432 -1.2498  0.0964
 1065TIP3    H224611   3.818   0.477  12.676  0.1757 -0.2402  1.0901
 1066TIP3   OH224612   4.545   0.153  10.381 -0.2479  0.0352  0.0567
 1066TIP3    H124613   4.583   0.114  10.460  0.5891  0.3003 -0.2151
 1066TIP3    H224614   4.457   0.115  10.376 -0.2489 -0.1218  1.0169
 1067TIP3   OH224615   5.084   4.399  13.189  0.5186 -0.3418 -0.7278
 1067TIP3    H124616   5.170   4.417  13.227  0.5111  0.9827 -1.2712
 1067TIP3    H224617   5.071   4.469  13.125 -0.3921 -1.2887 -1.6248
 1068TIP3   OH224618   5.310   6.960  11.462  0.7808  0.0786 -0.2928
 1068TIP3    H124619   5.291   7.036  11.517 -0.5709  0.0934 -0.7398
 1068TIP3    H224620   5.358   6.900  11.519 -0.3405  0.2083  0.8275
 1069TIP3   OH224621   4.961   4.475  10.500 -0.3991 -0.1563  0.8459
 1069TIP3    H124622   4.938   4.489  10.408 -0.4128  0.4359  0.9383
 1069TIP3    H224623   5.000   4.557  10.528 -0.2947 -0.3705  1.3427
 1070TIP3   OH224624   7.122   5.581  12.033 -0.7335 -1.0060  0.0630
 1070TIP3    H124625   7.044   5.573  12.088 -0.2433 -2.0730  0.6289
 1070TIP3    H224626   7.107   5.520  11.961 -0.2323 -1.5683  0.4224
 1071TIP3   OH224627   3.972   0.902  12.140 -0.1637  0.2478 -0.0024
 1071TIP3    H124628   3.956   0.983  12.188 -1.5613  0.2432 -0.3922
 1071TIP3    H224629   4.067   0.894  12.136 -0.0030  1.8645  0.0305
 1072TIP3   OH224630   4.014   2.010  13.440 -0.2986  0.0152 -0.4367
 1072TIP3    H124631   4.031   1.957  13.362  0.1019 -0.1726 -0.2218
 1072TIP3    H224632   3.960   2.082  13.407  0.7195  0.5056 -1.0994
 1073TIP3   OH224633   4.265   4.537  11.233 -0.7539 -0.1586 -0.2803
 1073TIP3    H124634   4.337   4.473  11.235  0.5190  1.2365  0.0572
 1073TIP3    H224635   4.258   4.562  11.141 -0.3435  0.2132 -0.2104
 1074TIP3   OH224636   1.414   7.103  10.058  0.4960  0.3948 -0.0376
 1074TIP3    H124637   1.501   7.120  10.095  1.3156 -0.9872 -1.2636
 1074TIP3    H224638   1.430   7.048   9.981 -1.4973 -0.2379 -0.0592
 1075TIP3   OH224639   0.130   2.050  10.010 -0.2206 -0.2646 -0.4015
 1075TIP3    H124640   0.197   1.982   9.996  1.0990  0.8826  0.0583
 1075TIP3    H224641   0.177   2.132   9.995 -1.7829  0.5667 -0.9491
 1076TIP3   OH224642   1.442   0.889  11.673 -0.6967 -0.2501  0.2720
 1076TIP3    H124643   1.369   0.950  11.683  0.1659  1.2649 -1.8928
 1076TIP3    H224644   1.406   0.818  11.620 -0.3915  1.0517 -1.7854
 1077TIP3   OH224645   0.229   4.429  13.345  0.9795  0.2197  0.0064
 1077TIP3    H124646   0.255   4.402  13.257  0.4590 -1.1402  0.2468
 1077TIP3    H224647   0.209   4.522  13.336  0.8765  0.0927 -1.3314
 1078TIP3   OH224648   5.857   1.859  10.557  0.5070  0.0205 -0.2942
 1078TIP3    H124649   5.878   1.768  10.580  2.0964  0.1648 -0.9960
 1078TIP3    H224650   5.871   1.863  10.462 -0.7276  0.7185 -0.4684
 1079TIP3   OH224651   5.133   1.147  10.273  0.3022  0.0434 -0.2542
 1079TIP3    H124652   5.081   1.072  10.245  0.7069 -0.9802  1.6044
 1079TIP3    H224653   5.120   1.212  10.204 -4.3908  0.3284  0.5141
 1080TIP3   OH224654   3.832   1.448  13.366 -0.2184  0.2413  0.3114
 1080TIP3    H124655   3.884   1.523  13.394 -0.3477  0.9272 -1.2181
 1080TIP3    H224656   3.880   1.412  13.292 -0.7509 -0.5014  0.3233
 1081TIP3   OH224657   0.296   0.306  13.457  0.5904  0.0346  0.1113
 1081TIP3    H124658   0.257   0.372  13.400  2.3803 -0.4325 -1.7642
 1081TIP3    H224659   0.291   0.344  13.545 -2.3186  0.7489 -0.2714
 1082TIP3   OH224660   2.462   1.903  10.094  0.0481  0.0227  0.3970
 1082TIP3    H124661   2.378   1.893  10.139 -0.3457 -0.7733 -0.4544
 1082TIP3    H224662   2.453   1.848  10.016  1.1440  0.4081 -0.0194
 1083TIP3   OH224663   4.275   4.945   1.203 -0.4877 -0.2389 -0.4367
 1083TIP3    H124664   4.313   4.862   1.231 -0.4299 -0.0544  0.0433
 1083TIP3    H224665   4.230   4.925   1.121 -1.3315 -0.9748  0.1927
 1084TIP3   OH224666   4.424   5.320  12.657  0.2492  0.0044  0.3678
 1084TIP3    H124667   4.399   5.412  12.654  2.3606  0.5993 -1.0030
 1084TIP3    H224668   4.400   5.291  12.745  1.8286  2.5592  1.7655
 1085TIP3   OH224669   2.258   4.172   9.879 -0.2504  0.0072 -0.3832
 1085TIP3    H124670   2.185   4.216   9.834 -0.3291  0.4698  0.1898
 1085TIP3    H224671   2.334   4.225   9.857 -0.5495  1.2586  1.4083
 1086TIP3   OH224672   6.913   6.793   3.575 -0.7729 -0.0023 -0.0281
 1086TIP3    H124673   6.992   6.808   3.626 -1.2150  1.0116  0.3921
 1086TIP3    H224674   6.916   6.858   3.505 -1.7309  0.7790  0.6158
 1087TIP3   OH224675   3.514   3.378  15.133  0.1981  0.0637 -0.7079
 1087TIP3    H124676   3.543   3.442  15.069 -0.6978  1.8623  0.5923
 1087TIP3    H224677   3.572   3.303  15.120  1.3785  1.1686 -2.1963
 1088TIP3   OH224678   4.729   1.187  11.925 -0.2250  0.1509  0.5038
 1088TIP3    H124679   4.668   1.159  11.857  0.1777  1.6354 -0.5194
 1088TIP3    H224680   4.742   1.280  11.909  0.9929  0.2328  1.7571
 1089TIP3   OH224681   3.508   5.174   9.922 -0.0408 -0.1147  0.3228
 1089TIP3    H124682   3.532   5.157   9.831  0.5944  2.5573 -0.0966
 1089TIP3    H224683   3.493   5.269   9.926 -0.3000 -0.1848  2.9456
 1090TIP3   OH224684   4.582   3.571  14.567 -0.4373  0.5814 -0.2508
 1090TIP3    H124685   4.507   3.601  14.516 -0.8486  0.9992  0.5823
 1090TIP3    H224686   4.589   3.633  14.639  0.9878  0.7940 -0.5567
 1091TIP3   OH224687   3.696   6.998  13.271  0.1090  0.0090 -0.0478
 1091TIP3    H124688   3.626   7.060  13.253  0.0693  0.0177  0.1380
 1091TIP3    H224689   3.773   7.036  13.229 -0.2454 -0.5733 -1.2702
 1092TIP3   OH224690   6.600   3.240  10.609  0.2785 -0.5059  0.6318
 1092TIP3    H124691   6.600   3.310  10.675  0.0935  0.4742 -0.3859
 1092TIP3    H224692   6.622   3.283  10.527 -1.4130 -1.3423 -0.3217
 1093TIP3   OH224693   2.091   3.806  10.212  0.0054 -0.3253  0.1886
 1093TIP3    H124694   2.145   3.833  10.286 -0.0369 -1.2037  0.5439
 1093TIP3    H224695   2.154   3.774  10.147 -0.0334 -0.6307  0.3004
 1094TIP3   OH224696   2.902   5.402   0.586 -0.2634  0.2694 -0.2621
 1094TIP3    H124697   2.996   5.407   0.571 -0.2553  0.8640 -0.0338
 1094TIP3    H224698   2.868   5.486   0.557 -0.5891  0.4472  0.5998
 1095TIP3   OH224699   6.191   6.606  13.786 -0.1026 -0.0146  0.2197
 1095TIP3    H124700   6.154   6.694  13.788 -1.2473 -0.4388 -0.7466
 1095TIP3    H224701   6.132   6.557  13.729  1.8344 -0.8223 -1.2116
 1096TIP3   OH224702   6.999   4.260   9.624 -0.2402  0.7728 -0.2225
 1096TIP3    H124703   6.975   4.345   9.588 -3.1931  0.3476  0.5064
 1096TIP3    H224704   6.956   4.257   9.709  1.9171 -0.4885  0.9113
 1097TIP3   OH224705   3.442   4.883  12.724  0.1634 -0.0815  0.4877
 1097TIP3    H124706   3.450   4.789  12.736  0.7924  0.1659  2.1833
 1097TIP3    H224707   3.494   4.902  12.646  0.3075 -1.0677  0.3317
 1098TIP3   OH224708   4.287   1.249  10.428  0.0734 -0.2218 -1.2322
 1098TIP3    H124709   4.323   1.187  10.491 -3.7600 -0.4832  0.9833
 1098TIP3    H224710   4.336   1.330  10.444  1.1589 -1.0822 -0.0325
 1099TIP3   OH224711   6.288   5.611  10.894 -0.0745 -0.2401  0.5545
 1099TIP3    H124712   6.243   5.527  10.906 -1.2548  0.0698 -1.4251
 1099TIP3    H224713   6.306   5.616  10.801  1.4732  1.0031  0.8745
 1100TIP3   OH224714   4.758   3.590   5.531 -0.3329  0.2800  1.0391
 1100TIP3    H124715   4.773   3.682   5.553 -1.2326  1.3124 -2.1101
 1100TIP3    H224716   4.670   3.588   5.493  0.1628 -1.6321 -0.1594
 1101TIP3   OH224717   4.246   6.685  11.968  0.3404 -0.1134 -0.6467
 1101TIP3    H124718   4.281   6.663  12.054 -0.3623  0.3097 -0.2403
 1101TIP3    H224719   4.297   6.761  11.939  0.3046 -0.0014 -0.4180
 1102TIP3   OH224720   4.978   3.024  12.407  0.1495  0.0203 -0.0455
 1102TIP3    H124721   4.882   3.022  12.404  0.1059  1.2791  0.0246
 1102TIP3    H224722   4.998   3.098  12.464  1.1705  0.2253 -0.6556
 1103TIP3   OH224723   1.981   4.319  12.374 -0.2235 -0.0760  0.1243
 1103TIP3    H124724   2.008   4.296  12.285  2.1531  1.5839  0.3190
 1103TIP3    H224725   1.896   4.277  12.384 -0.6938 -0.1573 -2.9937
 1104TIP3   OH224726   0.665   4.443  12.237 -0.0431  0.0271 -0.1049
 1104TIP3    H124727   0.658   4.474  12.327 -1.0784  1.2976 -0.5903
 1104TIP3    H224728   0.635   4.517  12.183 -0.7552 -1.1528 -1.4161
 1105TIP3   OH224729   2.236   2.008  12.541 -0.3147 -0.2493  0.0660
 1105TIP3    H124730   2.236   1.949  12.466  1.9918 -1.5899  1.0475
 1105TIP3    H224731   2.326   2.037  12.549 -0.7113  0.6318  1.7573
 1106TIP3   OH224732   6.984   6.360  12.333 -0.5819 -0.3447  0.6632
 1106TIP3    H124733   6.944   6.399  12.256  1.5163  0.3079 -0.1593
 1106TIP3    H224734   6.962   6.420  12.405 -0.7144  0.2219  0.1553
 1107TIP3   OH224735   5.970   2.696  11.998 -0.0740  0.4988  0.3868
 1107TIP3    H124736   5.977   2.780  12.042  1.9556  0.9877 -0.7427
 1107TIP3    H224737   5.997   2.714  11.908 -1.8761 -0.9178 -0.5240
 1108TIP3   OH224738   6.617   5.115  10.198 -0.9081 -0.1584  0.2097
 1108TIP3    H124739   6.623   5.196  10.247 -0.1333  2.7871 -4.1958
 1108TIP3    H224740   6.706   5.080  10.198 -0.7334  0.2846  0.1950
 1109TIP3   OH224741   6.407   7.156  10.324 -0.2403 -1.0984  0.3623
 1109TIP3    H124742   6.440   7.208  10.397 -0.1052 -1.8186  0.8181
 1109TIP3    H224743   6.351   7.217  10.275 -1.6081 -1.0190  1.9416
 1110TIP3   OH224744   0.141   6.644  12.835  0.5935 -0.1066 -0.0759
 1110TIP3    H124745   0.051   6.659  12.807  0.6572  0.7994  0.1939
 1110TIP3    H224746   0.163   6.718  12.890  1.1105 -0.9257  0.8587
 1111TIP3   OH224747   2.135   2.100  11.714 -0.6040  0.5168  0.1308
 1111TIP3    H124748   2.160   2.009  11.732  1.1355  1.0037  0.3883
 1111TIP3    H224749   2.042   2.095  11.693 -0.8128 -1.1702  1.2130
 1112TIP3   OH224750   0.664   6.822  12.543  1.2365  0.0816 -0.0593
 1112TIP3    H124751   0.583   6.871  12.556  1.5712  1.0295 -1.3803
 1112TIP3    H224752   0.644   6.734  12.576  0.3394  0.8321  1.5228
 1113TIP3   OH224753   3.740   0.469   9.662 -0.0054 -0.4933  0.0322
 1113TIP3    H124754   3.669   0.500   9.606  0.3954 -0.4422 -0.4532
 1113TIP3    H224755   3.816   0.464   9.604  1.1233  2.1263  1.1106
 1114TIP3   OH224756   5.943   1.998  12.098  0.8520  0.3457 -0.2028
 1114TIP3    H124757   5.972   2.060  12.165  0.6010 -0.9020  1.0995
 1114TIP3    H224758   6.021   1.944  12.080  0.6631  0.0944 -0.2637
 1115TIP3   OH224759   0.664   1.264   0.568 -0.8377  0.1679  0.1678
 1115TIP3    H124760   0.569   1.262   0.560 -0.9411  1.6914  0.8005
 1115TIP3    H224761   0.683   1.341   0.622  0.5634 -1.9350  2.9254
 1116TIP3   OH224762   3.496   2.399  10.408 -0.4581  0.9953 -0.4509
 1116TIP3    H124763   3.533   2.385  10.321  0.0795 -0.9395  0.0511
 1116TIP3    H224764   3.427   2.333  10.417  0.7420 -0.1318  1.2430
 1117TIP3   OH224765   1.495   3.050  12.115 -0.3805  0.2752  0.1630
 1117TIP3    H124766   1.534   3.070  12.200  0.1519  0.2103 -0.0629
 1117TIP3    H224767   1.449   3.130  12.090 -1.4063 -0.0473  0.9808
 1118TIP3   OH224768   6.428   6.113  14.904  0.1239 -0.5619 -0.4146
 1118TIP3    H124769   6.370   6.092  14.830 -0.1267 -2.0356  0.1713
 1118TIP3    H224770   6.486   6.181  14.870 -0.9853 -0.1057 -1.4849
 1119TIP3   OH224771   6.679   4.264  12.903  0.1269  0.2068  0.4115
 1119TIP3    H124772   6.671   4.174  12.872  0.3163  0.0751  0.7414
 1119TIP3    H224773   6.768   4.271  12.937  0.3148  0.6951 -0.1550
 1120TIP3   OH224774   3.608   1.763  14.174 -1.2218  0.1538 -0.1477
 1120TIP3    H124775   3.660   1.762  14.094  0.0690 -1.1356  0.6629
 1120TIP3    H224776   3.580   1.672  14.185 -0.4833  0.0826  1.4004
 1121TIP3   OH224777   3.336   6.437  12.957  0.1638 -0.2727  0.1600
 1121TIP3    H124778   3.306   6.383  13.030  1.6859 -1.4120  0.0012
 1121TIP3    H224779   3.372   6.374  12.894  1.2591  0.8724 -0.3920
 1122TIP3   OH224780   5.294   4.438   9.260  0.4174  0.1355 -0.1042
 1122TIP3    H124781   5.276   4.361   9.206 -2.6063  1.2868 -0.9063
 1122TIP3    H224782   5.307   4.403   9.349 -0.8372 -1.3063 -0.4634
 1123TIP3   OH224783   6.069   3.772   9.263  0.1181 -0.1962  0.2273
 1123TIP3    H124784   5.978   3.795   9.279  0.3349  0.8656  0.0568
 1123TIP3    H224785   6.073   3.677   9.275 -1.0756 -0.3068 -0.1277
 1124TIP3   OH224786   3.766   3.728  12.846 -0.3645  0.1085 -0.9664
 1124TIP3    H124787   3.776   3.702  12.937 -2.2219  2.1937 -0.0799
 1124TIP3    H224788   3.853   3.756  12.819  0.0648  0.1441  0.3882
 1125TIP3   OH224789   3.550   3.403  12.135 -0.3454 -0.0045 -0.7816
 1125TIP3    H124790   3.533   3.339  12.204 -0.7915  0.1560 -0.7400
 1125TIP3    H224791   3.481   3.469  12.145 -0.1587  0.2470 -1.1071
 1126TIP3   OH224792   6.254   1.101  12.483  0.1964  0.2498  0.0968
 1126TIP3    H124793   6.194   1.125  12.412  0.6802  0.5678 -0.2136
 1126TIP3    H224794   6.260   1.006  12.478 -2.4292 -0.1194  1.8897
 1127TIP3   OH224795   4.641   1.519  10.821 -0.1124  0.6385 -0.7341
 1127TIP3    H124796   4.645   1.614  10.816  0.2163  0.5841 -1.9106
 1127TIP3    H224797   4.702   1.489  10.754  0.4522 -0.4099  0.2082
 1128TIP3   OH224798   5.813   1.301  13.365  0.9637 -0.1435  0.5907
 1128TIP3    H124799   5.864   1.220  13.367 -0.6745 -1.2303  2.0149
 1128TIP3    H224800   5.793   1.319  13.457  0.9543  1.6783  0.2581
 1129TIP3   OH224801   5.857   0.387  11.077 -0.1970 -0.6034 -0.3990
 1129TIP3    H124802   5.937   0.338  11.055 -0.9978 -1.5288 -1.3656
 1129TIP3    H224803   5.791   0.320  11.092 -1.0063  0.1682 -0.4444
 1130TIP3   OH224804   4.355   7.076  12.505  0.4543 -0.2123 -0.3624
 1130TIP3    H124805   4.365   7.168  12.480 -0.4432 -0.2206 -0.8060
 1130TIP3    H224806   4.262   7.067  12.525  0.6328 -0.9085  0.1748
 1131TIP3   OH224807   2.100   5.547  13.857  0.0419  0.4712 -0.0817
 1131TIP3    H124808   2.149   5.624  13.885 -1.4049  0.9728  1.1748
 1131TIP3    H224809   2.128   5.533  13.766  1.6723  1.3735  0.2465
 1132TIP3   OH224810   0.735   0.696  13.468 -0.0355  0.2401  0.3783
 1132TIP3    H124811   0.787   0.705  13.547 -0.2538 -0.4026  0.5957
 1132TIP3    H224812   0.658   0.645  13.494 -1.0484  1.5962  0.1926
 1133TIP3   OH224813   5.762   4.376  12.875 -0.2148 -0.0375 -0.2095
 1133TIP3    H124814   5.794   4.313  12.940 -0.3632  0.7143  0.6039
 1133TIP3    H224815   5.694   4.329  12.827 -0.2082 -0.5533  0.2776
 1134TIP3   OH224816   7.085   1.215   9.828  0.4695 -0.2655 -0.3735
 1134TIP3    H124817   7.073   1.127   9.862 -1.9900  0.3906  0.7241
 1134TIP3    H224818   7.142   1.258   9.892 -0.6342 -0.2827  0.6605
 1135TIP3   OH224819   5.653   0.264  12.556 -0.2818 -0.4628 -0.5674
 1135TIP3    H124820   5.583   0.228  12.609 -0.2308  0.9736  0.5588
 1135TIP3    H224821   5.645   0.221  12.471  0.0149 -3.3124  0.7409
 1136TIP3   OH224822   3.182   4.343  11.703 -0.2995 -0.0638  0.0943
 1136TIP3    H124823   3.145   4.423  11.664 -2.8207 -1.2301 -0.0929
 1136TIP3    H224824   3.246   4.313  11.639  0.0852  1.3421 -0.2199
 1137TIP3   OH224825   1.559   4.769  13.347 -0.0694 -0.7031 -0.3218
 1137TIP3    H124826   1.481   4.730  13.385 -0.1730 -1.3956 -1.2194
 1137TIP3    H224827   1.525   4.829  13.280  0.1551 -0.9263 -0.6399
 1138TIP3   OH224828   5.233   2.544   0.802  0.5527  0.4504  0.3676
 1138TIP3    H124829   5.326   2.524   0.799  0.9597  2.2021 -0.2552
 1138TIP3    H224830   5.200   2.517   0.716  0.5033 -0.0998  0.5597
 1139TIP3   OH224831   5.570   0.840  12.368 -0.1265  0.2622 -0.1926
 1139TIP3    H124832   5.505   0.905  12.394 -2.3703 -2.4754  1.7133
 1139TIP3    H224833   5.613   0.814  12.449  2.1929  0.7444 -1.1965
 1140TIP3   OH224834   6.746   0.267  12.012  0.1226 -0.2302 -0.4056
 1140TIP3    H124835   6.832   0.266  11.971  0.7386  0.0633  0.8345
 1140TIP3    H224836   6.689   0.223  11.949  1.0630  0.0152 -1.4677
 1141TIP3   OH224837   0.904   5.317   0.313 -0.6345  0.5667 -0.1650
 1141TIP3    H124838   0.947   5.322   0.227 -0.2904 -0.0215 -0.0248
 1141TIP3    H224839   0.920   5.228   0.343 -0.6816  0.8013  0.5577
 1142TIP3   OH224840   2.293   6.175  12.650  0.1035  0.1691 -0.2281
 1142TIP3    H124841   2.338   6.221  12.579 -0.0140  1.1868  0.3346
 1142TIP3    H224842   2.284   6.241  12.719 -1.4942 -0.2494 -0.0013
 1143TIP3   OH224843   2.492   2.661  14.295 -0.2222 -0.6593  0.0577
 1143TIP3    H124844   2.432   2.619  14.234 -0.6916  0.7811 -0.5082
 1143TIP3    H224845   2.578   2.625  14.273 -0.7715 -2.3277  0.5096
 1144TIP3   OH224846   1.419   2.580  10.766  0.3279 -0.4329  0.3540
 1144TIP3    H124847   1.441   2.653  10.708  0.6600 -1.3012 -0.6317
 1144TIP3    H224848   1.491   2.576  10.828  2.0109 -1.9145 -1.5571
 1145TIP3   OH224849   1.463   2.175  11.062 -0.5703 -0.4373  0.0198
 1145TIP3    H124850   1.514   2.150  11.139  1.7049  1.5829 -0.7259
 1145TIP3    H224851   1.506   2.128  10.990 -1.1335 -0.3718 -0.3609
 1146TIP3   OH224852   4.706   0.396  12.003 -0.0783  0.3499  0.4285
 1146TIP3    H124853   4.634   0.437  11.954 -0.2308 -0.6962 -0.2524
 1146TIP3    H224854   4.725   0.458  12.074 -0.2289  1.6348 -0.6128
 1147TIP3   OH224855   0.821   0.459  10.405  0.5373 -0.5317  0.1127
 1147TIP3    H124856   0.830   0.540  10.355 -0.5460 -0.9239 -0.7632
 1147TIP3    H224857   0.909   0.438  10.434  1.2854 -0.4860 -1.9814
 1148TIP3   OH224858   2.717   2.723   1.243  0.4325  0.2817  0.0384
 1148TIP3    H124859   2.701   2.630   1.260  2.6021 -0.3827 -1.3103
 1148TIP3    H224860   2.670   2.742   1.162  1.1707 -0.0158 -0.4615
 1149TIP3   OH224861   0.827   0.251   9.551  0.3606  0.2639 -0.0943
 1149TIP3    H124862   0.921   0.235   9.540  0.3005  0.8877 -1.8103
 1149TIP3    H224863   0.804   0.204   9.631  1.8714 -0.9599 -0.3309
 1150TIP3   OH224864   4.051   4.688  13.406  0.1663 -0.1710 -0.0403
 1150TIP3    H124865   4.085   4.750  13.342  1.0894  0.4170  0.9989
 1150TIP3    H224866   4.000   4.741  13.467 -0.5295 -0.6968 -0.1477
 1151TIP3   OH224867   1.398   2.736  12.525  0.4558 -0.0002  0.4029
 1151TIP3    H124868   1.463   2.781  12.471  0.7273  0.3630  1.0176
 1151TIP3    H224869   1.359   2.805  12.579 -0.9490 -0.0944 -0.4381
 1152TIP3   OH224870   6.517   1.628  15.017  0.3513  0.5335  0.1871
 1152TIP3    H124871   6.612   1.620  15.015  0.5822  2.7434  0.1982
 1152TIP3    H224872   6.489   1.567  15.086  1.5287 -1.5265 -1.0466
 1153TIP3   OH224873   2.462   4.930   0.688  0.8141  0.1017 -0.1250
 1153TIP3    H124874   2.394   4.876   0.728 -0.4094  1.4800 -0.2652
 1153TIP3    H224875   2.538   4.873   0.683 -0.2771 -1.4353  0.1932
 1154TIP3   OH224876   6.606   1.250  10.229  0.3235 -0.3491  0.4491
 1154TIP3    H124877   6.625   1.173  10.283 -0.4929 -1.0577 -0.2366
 1154TIP3    H224878   6.654   1.235  10.148  0.3493 -0.0232  0.4030
 1155TIP3   OH224879   6.860   5.308  10.919  0.8789 -0.1484  0.2050
 1155TIP3    H124880   6.781   5.307  10.973 -0.0187  0.0952 -1.0608
 1155TIP3    H224881   6.928   5.275  10.977 -0.4013 -1.6428  0.9415
 1156TIP3   OH224882   1.179   6.999  10.173 -0.4477 -0.5678 -0.5934
 1156TIP3    H124883   1.261   7.048  10.166 -0.4194 -0.7552 -1.8549
 1156TIP3    H224884   1.170   6.979  10.266  1.4490 -1.3928 -0.5514
 1157TIP3   OH224885   6.147   3.586  13.253  0.3631  0.6689 -1.0346
 1157TIP3    H124886   6.154   3.679  13.231 -0.1788  1.2380  1.0215
 1157TIP3    H224887   6.067   3.556  13.209  0.6433  1.1095 -1.8587
 1158TIP3   OH224888   5.778   6.788  11.857  0.4150 -0.4055 -0.2311
 1158TIP3    H124889   5.693   6.801  11.814  1.4451 -0.9139 -2.5405
 1158TIP3    H224890   5.809   6.877  11.876  0.0477 -0.1620 -0.7564
 1159TIP3   OH224891   1.370   3.459   9.904  0.0935  0.1479  0.5429
 1159TIP3    H124892   1.392   3.388   9.844 -0.3469  1.6236 -1.4659
 1159TIP3    H224893   1.428   3.445   9.980  1.6598 -1.0244 -0.7882
 1160TIP3   OH224894   4.003   3.599  13.287 -0.1758  0.3823  0.3407
 1160TIP3    H124895   3.980   3.647  13.367 -0.0656 -0.2062  0.7270
 1160TIP3    H224896   4.032   3.514  13.318  1.5057  0.7296 -0.2127
 1161TIP3   OH224897   0.877   5.684   4.747  0.2481 -0.0795  0.3185
 1161TIP3    H124898   0.799   5.636   4.718  0.4221 -2.1842  2.9393
 1161TIP3    H224899   0.851   5.726   4.829  1.9582 -1.2614  1.5348
 1162TIP3   OH224900   0.699   4.703  14.746  0.2073 -0.2517 -0.0871
 1162TIP3    H124901   0.692   4.689  14.652 -0.7895  1.2814 -0.2856
 1162TIP3    H224902   0.612   4.733  14.772  1.4107  2.9598  0.6401
 1163TIP3   OH224903   3.170   3.700  11.652  0.4713  0.1147  0.7387
 1163TIP3    H124904   3.163   3.661  11.739  1.9413  1.7839  1.6897
 1163TIP3    H224905   3.102   3.768  11.651  0.0650 -0.2923  0.3429
 1164TIP3   OH224906   6.940   4.524   9.937 -0.2099 -0.0434 -0.5165
 1164TIP3    H124907   6.979   4.590   9.879 -2.1895  0.5397 -1.2581
 1164TIP3    H224908   6.848   4.549   9.945 -0.5438 -1.5210  0.9279
 1165TIP3   OH224909   2.865   2.719  10.141 -0.1963 -0.1778  0.5331
 1165TIP3    H124910   2.955   2.717  10.110 -0.6043 -1.0168 -0.6365
 1165TIP3    H224911   2.830   2.801  10.107 -0.6727 -1.1402 -1.3955
 1166TIP3   OH224912   5.337   5.446  11.125  0.2768 -0.1886 -0.0484
 1166TIP3    H124913   5.411   5.507  11.133 -0.5274  0.7832  0.2890
 1166TIP3    H224914   5.376   5.359  11.134  1.3612  0.3062  0.2466
 1167TIP3   OH224915   2.821   3.669  12.763 -0.5788  0.0210  0.0615
 1167TIP3    H124916   2.774   3.620  12.831  0.5200  1.2047  1.7371
 1167TIP3    H224917   2.752   3.714  12.713 -1.4229 -1.1692  0.1141
 1168TIP3   OH224918   0.835   2.724   9.524 -0.3288  0.5222  0.1534
 1168TIP3    H124919   0.868   2.786   9.459 -0.6333 -0.2257 -0.7244
 1168TIP3    H224920   0.905   2.661   9.535  0.1421  1.2122  1.3479
 1169TIP3   OH224921   6.476   1.040  14.921  0.5096 -0.0713  0.3496
 1169TIP3    H124922   6.554   1.010  14.875  0.9678 -1.7155  2.0866
 1169TIP3    H224923   6.493   1.133  14.940  1.7143 -0.2215  0.0515
 1170TIP3   OH224924   7.186   4.032   9.828  0.3893  0.5899 -0.2047
 1170TIP3    H124925   7.124   3.975   9.782  0.0736  0.6402  0.1454
 1170TIP3    H224926   7.220   3.976   9.899 -0.4056  1.0216  0.5380
 1171TIP3   OH224927   4.921   4.659  14.160  0.0081 -0.2061  0.1861
 1171TIP3    H124928   4.870   4.594  14.110 -0.4872  1.0937 -1.0508
 1171TIP3    H224929   5.012   4.643  14.135 -0.0974 -0.5134 -0.0064
 1172TIP3   OH224930   2.577   2.782  14.552 -0.0598 -0.2956 -0.3060
 1172TIP3    H124931   2.584   2.871  14.516  1.5971 -0.6784 -1.0200
 1172TIP3    H224932   2.544   2.729  14.480 -1.0335 -0.3023  0.1171
 1173TIP3   OH224933   0.263   4.629   9.834  0.4862 -0.3725  0.0697
 1173TIP3    H124934   0.299   4.541   9.827 -2.1363 -1.5470  0.1575
 1173TIP3    H224935   0.211   4.628   9.915 -1.4302  0.4873 -1.0787
 1174TIP3   OH224936   4.846   5.221  11.351 -0.2197  0.2816 -0.4533
 1174TIP3    H124937   4.806   5.242  11.266  1.4495  0.1519 -1.3092
 1174TIP3    H224938   4.874   5.305  11.387 -0.0086  0.2377 -0.5132
 1175TIP3   OH224939   4.571   4.200   4.604  0.3415 -0.4830  0.1001
 1175TIP3    H124940   4.523   4.192   4.687 -1.0288 -1.2711 -0.7328
 1175TIP3    H224941   4.663   4.196   4.629 -0.0513 -1.1626  1.5375
 1176TIP3   OH224942   0.227   1.045  12.930  1.2274 -0.6204  0.1942
 1176TIP3    H124943   0.202   1.099  13.005  0.4691  1.7586 -1.6543
 1176TIP3    H224944   0.168   0.970  12.935  0.3101  0.1213  1.2911
 1177TIP3   OH224945   5.419   6.939  10.013 -0.3486 -0.2941 -0.5718
 1177TIP3    H124946   5.467   6.869   9.968 -0.9774 -0.5158 -0.9067
 1177TIP3    H224947   5.484   6.979  10.070  0.5876  0.2757 -1.9873
 1178TIP3   OH224948   4.450   0.051  13.414  0.5883  0.2274 -0.1662
 1178TIP3    H124949   4.520   0.116  13.416  1.0807 -0.2660 -0.7936
 1178TIP3    H224950   4.383   0.086  13.472  0.5891  1.5631 -0.9413
 1179TIP3   OH224951   1.128   5.789  11.113 -0.0451 -0.4826 -0.4410
 1179TIP3    H124952   1.100   5.701  11.141 -1.1653 -0.2589 -0.8235
 1179TIP3    H224953   1.157   5.831  11.194  1.3918 -1.4965 -0.3796
 1180TIP3   OH224954   5.790   5.147  11.889 -0.0247  0.3198 -0.5491
 1180TIP3    H124955   5.870   5.141  11.837  0.1764 -0.5075 -0.1598
 1180TIP3    H224956   5.811   5.210  11.958  1.1262 -1.5862  0.9528
 1181TIP3   OH224957   6.067   0.553  10.909 -0.3248  0.4110  0.1281
 1181TIP3    H124958   6.056   0.615  10.836  0.0312  0.4364  0.0939
 1181TIP3    H224959   5.983   0.508  10.915 -0.9785  1.6650  0.8620
 1182TIP3   OH224960   0.038   1.032   9.595  0.2380  0.2681  0.1119
 1182TIP3    H124961   0.057   1.125   9.579 -0.7388  0.3739 -0.5075
 1182TIP3    H224962   0.124   0.993   9.612  0.6018  1.4128  1.0914
 1183TIP3   OH224963   1.453   6.410   9.860  0.1457 -0.1184  0.0358
 1183TIP3    H124964   1.536   6.443   9.894  0.1049 -0.1019  0.1171
 1183TIP3    H224965   1.478   6.340   9.799  0.1226 -1.9437  2.0117
 1184TIP3   OH224966   2.268   5.835  13.612 -0.2584 -0.5335 -0.6815
 1184TIP3    H124967   2.209   5.864  13.682  0.7135 -1.1607  0.4266
 1184TIP3    H224968   2.224   5.760  13.574 -0.2888 -0.8725  0.0009
 1185TIP3   OH224969   6.778   3.565  14.228 -0.1762 -0.9458 -0.5341
 1185TIP3    H124970   6.832   3.573  14.150  1.7159 -1.4677  0.6625
 1185TIP3    H224971   6.817   3.493  14.278 -0.5534  0.1558  1.4641
 1186TIP3   OH224972   2.461   4.818  13.863 -0.2422  0.0502  0.0421
 1186TIP3    H124973   2.530   4.756  13.890  0.1397  0.2143 -0.5537
 1186TIP3    H224974   2.447   4.872  13.941  0.7030  0.3800  0.0046
 1187TIP3   OH224975   6.863   2.553   9.774  0.3745  0.1743  0.0707
 1187TIP3    H124976   6.858   2.468   9.818 -3.7217 -0.1261 -0.5847
 1187TIP3    H224977   6.878   2.532   9.682 -0.7389  0.0958 -0.1075
 1188TIP3   OH224978   5.604   3.415  11.270  0.0164 -0.0428 -0.4216
 1188TIP3    H124979   5.696   3.427  11.291 -0.4271  0.8893  1.1818
 1188TIP3    H224980   5.594   3.451  11.182  0.8956  1.3531  0.0258
 1189TIP3   OH224981   2.722   0.858  13.869  0.0399 -0.4485  0.4852
 1189TIP3    H124982   2.692   0.931  13.922  1.6399 -0.6570  1.7457
 1189TIP3    H224983   2.654   0.791  13.880 -0.8736  0.3983  0.2149
 1190TIP3   OH224984   5.975   0.665  10.400  0.5869 -0.2606  0.0275
 1190TIP3    H124985   6.011   0.714  10.326  2.0241 -3.3927 -1.5806
 1190TIP3    H224986   5.902   0.617  10.363 -0.6144  0.3857  1.4708
 1191TIP3   OH224987   1.855   6.488  12.503  1.0470 -0.3173  0.0561
 1191TIP3    H124988   1.901   6.409  12.477  0.8353 -0.3558 -0.2051
 1191TIP3    H224989   1.762   6.467  12.493  0.9801 -0.1406  0.2872
 1192TIP3   OH224990   2.037   4.824  11.719  0.6160  0.2966 -0.2357
 1192TIP3    H124991   2.014   4.860  11.634  0.2436 -2.1661 -1.2474
 1192TIP3    H224992   2.108   4.762  11.701  0.6790 -0.1255  1.2768
 1193TIP3   OH224993   1.661   1.902   9.949  0.2616  0.2491  0.0263
 1193TIP3    H124994   1.747   1.929   9.915 -0.6233  2.7063 -0.4302
 1193TIP3    H224995   1.600   1.919   9.878 -0.8254 -0.0369  0.8647
 1194TIP3   OH224996   4.168   3.980  13.502 -0.3198  0.6437  0.2711
 1194TIP3    H124997   4.219   4.059  13.519  0.6882 -0.0840  0.7349
 1194TIP3    H224998   4.096   3.984  13.565 -2.4391  2.9803 -2.0784
 1195TIP3   OH224999   5.629   2.966  10.521  0.0556  0.0997  0.2740
 1195TIP3    H125000   5.691   2.925  10.461 -0.9720 -0.9253 -0.1165
 1195TIP3    H225001   5.591   3.038  10.470 -1.6676 -1.4652 -0.8105
 1196TIP3   OH225002   4.787   2.952   9.700  0.3146 -0.0361  0.3353
 1196TIP3    H125003   4.767   2.914   9.786 -0.0308  0.6449  0.5701
 1196TIP3    H225004   4.881   2.973   9.705  0.2090  0.3726  0.7040
 1197TIP3   OH225005   4.837   2.537  10.657 -0.0529 -0.0878  0.0234
 1197TIP3    H125006   4.759   2.573  10.699 -0.5265  1.8030 -2.2826
 1197TIP3    H225007   4.911   2.581  10.700 -0.4925  1.3099 -0.6021
 1198TIP3   OH225008   3.782   0.667  13.891  0.3524 -0.4530 -0.0837
 1198TIP3    H125009   3.836   0.727  13.943  0.5616 -0.6073 -0.1241
 1198TIP3    H225010   3.698   0.711  13.884 -0.0055 -0.8661  1.2405
 1199TIP3   OH225011   5.851   0.354  10.597  0.5139  0.3741 -0.4450
 1199TIP3    H125012   5.931   0.386  10.554  0.2354  1.7375  0.0016
 1199TIP3    H225013   5.821   0.428  10.650 -0.9069 -0.2046 -0.3941
 1200TIP3   OH225014   5.486   3.456  13.400 -0.2957 -0.8801  0.4769
 1200TIP3    H125015   5.544   3.417  13.334 -0.0853 -2.6148  1.5918
 1200TIP3    H225016   5.459   3.539  13.363  2.1780 -0.4130 -0.5089
 1201TIP3   OH225017   0.194   0.916  10.542 -0.2694  0.0684 -0.3214
 1201TIP3    H125018   0.277   0.963  10.550 -0.3837  0.0817  1.1289
 1201TIP3    H225019   0.174   0.917  10.449  2.1511 -1.3078 -0.9244
 1202TIP3   OH225020   4.915   3.733   1.326 -0.5653 -0.3450 -0.2789
 1202TIP3    H125021   4.942   3.667   1.390  1.1918  1.4247  0.9311
 1202TIP3    H225022   4.854   3.789   1.373 -1.0768 -0.3684 -0.9032
 1203TIP3   OH225023   2.364   1.330   9.377 -0.2149 -0.2177  0.1799
 1203TIP3    H125024   2.275   1.296   9.370  0.1998 -1.3160  0.0594
 1203TIP3    H225025   2.418   1.253   9.390  0.8048  0.3819 -0.3995
 1204TIP3   OH225026   2.588   6.695   9.779 -0.0172  0.1570 -0.1004
 1204TIP3    H125027   2.656   6.748   9.822 -0.5742  2.3815 -1.7723
 1204TIP3    H225028   2.512   6.753   9.776 -0.2245 -0.1336 -3.3416
 1205TIP3   OH225029   6.853   2.009  11.243  0.2843  0.1274  0.0846
 1205TIP3    H125030   6.825   2.070  11.310  0.9749 -1.8919  2.3561
 1205TIP3    H225031   6.945   2.029  11.228  0.0451  0.7924 -0.5303
 1206TIP3   OH225032   7.002   0.844  15.246  0.1844  0.3561  0.9445
 1206TIP3    H125033   6.938   0.885  15.187  0.3334 -2.2498 -1.1950
 1206TIP3    H225034   7.087   0.863  15.207  0.3824 -0.2121  1.0897
 1207TIP3   OH225035   5.984   1.557   9.889  0.3227  0.0450 -0.1999
 1207TIP3    H125036   6.045   1.621   9.854 -1.0042  1.8827  0.6937
 1207TIP3    H225037   5.927   1.534   9.816 -0.0486  0.9560 -0.2058
 1208TIP3   OH225038   6.816   0.959  11.205  0.5261  0.2067  0.2202
 1208TIP3    H125039   6.880   0.989  11.270 -1.5540 -1.8457  3.5754
 1208TIP3    H225040   6.772   1.039  11.177  1.2797  1.1952  1.7003
 1209TIP3   OH225041   0.195   6.765  11.471  0.3146 -0.4344  0.4827
 1209TIP3    H125042   0.226   6.714  11.545 -0.7000  0.6788  1.7159
 1209TIP3    H225043   0.126   6.820  11.506 -0.7798 -0.4582 -1.4799
 1210TIP3   OH225044   1.576   1.559  12.072  0.6066 -0.2178 -0.2424
 1210TIP3    H125045   1.488   1.548  12.108 -0.1653  1.1660 -1.5525
 1210TIP3    H225046   1.626   1.599  12.142 -0.3698  0.7959 -0.0902
 1211TIP3   OH225047   2.940   1.958  13.565 -0.2531 -0.7325 -0.1569
 1211TIP3    H125048   2.984   2.031  13.523 -2.0491  1.9610  2.2528
 1211TIP3    H225049   2.880   1.924  13.498 -1.7094  2.1914 -0.4701
 1212TIP3   OH225050   1.300   2.256   1.702  0.2685  0.4620 -0.2227
 1212TIP3    H125051   1.314   2.266   1.797  0.7691  0.9667 -0.3440
 1212TIP3    H225052   1.386   2.276   1.664  0.2271 -0.3203 -0.7492
 1213TIP3   OH225053   5.415   3.758   2.417 -0.4104  0.1084 -0.4533
 1213TIP3    H125054   5.370   3.711   2.487  0.7751  0.5694  0.6706
 1213TIP3    H225055   5.507   3.734   2.428  0.3222  2.9435  0.4397
 1214TIP3   OH225056   3.376   4.902   9.921 -0.0625  0.8890 -0.5402
 1214TIP3    H125057   3.309   4.878   9.857  0.7263  1.0067 -1.4163
 1214TIP3    H225058   3.371   4.997   9.927 -1.1905  0.7902  0.7609
 1215TIP3   OH225059   0.343   3.275  10.527 -0.8444  0.1384 -0.1240
 1215TIP3    H125060   0.382   3.210  10.468 -1.0276 -1.4145  1.3636
 1215TIP3    H225061   0.261   3.300  10.484 -0.8693 -0.7886 -0.6609
 1216TIP3   OH225062   5.822   5.046  11.016 -0.0508 -0.2379  0.5686
 1216TIP3    H125063   5.831   4.974  10.953  1.9855 -0.0249  0.5553
 1216TIP3    H225064   5.756   5.103  10.978  0.6799 -0.4305 -1.1066
 1217TIP3   OH225065   2.254   2.802  10.245 -0.1507 -0.4565  0.7047
 1217TIP3    H125066   2.220   2.877  10.197  0.4161  0.0605  1.1069
 1217TIP3    H225067   2.327   2.836  10.296 -0.4966 -1.0656  1.6533
 1218TIP3   OH225068   0.926   5.123  14.800 -0.2172  0.8974  0.3004
 1218TIP3    H125069   0.834   5.103  14.819 -0.0671  0.6585  0.7747
 1218TIP3    H225070   0.941   5.208  14.842 -0.2230  0.9399  0.2169
 1219TIP3   OH225071   5.170   6.503  10.450  0.1609  0.3827 -0.0233
 1219TIP3    H125072   5.179   6.595  10.477 -0.6275  0.2956  0.5576
 1219TIP3    H225073   5.076   6.485  10.455  0.4718 -1.1234  2.1697
 1220TIP3   OH225074   4.976   5.892  10.178  0.0211 -0.0714  0.5758
 1220TIP3    H125075   5.030   5.970  10.184 -1.1198  0.7108  0.9275
 1220TIP3    H225076   4.936   5.897  10.091  0.9265 -0.9420  0.0886
 1221TIP3   OH225077   2.007   3.417  13.846 -0.0130  1.0538  0.6951
 1221TIP3    H125078   2.021   3.481  13.916  0.9296 -0.4266  1.9267
 1221TIP3    H225079   2.094   3.382  13.828 -0.2515  1.3532 -1.2172
 1222TIP3   OH225080   4.299   4.128  10.362  0.9274 -0.3729  0.0616
 1222TIP3    H125081   4.339   4.084  10.436 -1.4665 -2.6292  0.1500
 1222TIP3    H225082   4.338   4.086  10.285  1.5220  0.1574  0.0671
 1223TIP3   OH225083   3.803   2.107  13.773 -0.0418 -0.1455  0.0909
 1223TIP3    H125084   3.891   2.129  13.805 -0.2903  1.4726 -0.2839
 1223TIP3    H225085   3.818   2.031  13.716  1.3066  0.8575 -0.9530
 1224TIP3   OH225086   1.322   4.932  10.214  0.1446 -0.2587 -0.2240
 1224TIP3    H125087   1.370   4.906  10.292  0.7379 -1.1178 -0.8634
 1224TIP3    H225088   1.354   5.020  10.194 -0.0946  0.0132  0.5516
 1225TIP3   OH225089   2.220   6.474  10.838  0.0257 -0.8756 -0.6152
 1225TIP3    H125090   2.300   6.439  10.877  0.2966 -1.0935 -1.3500
 1225TIP3    H225091   2.211   6.428  10.754  0.0075  0.2932 -1.2846
 1226TIP3   OH225092   6.247   6.699   0.607  0.4506  0.2705 -0.3206
 1226TIP3    H125093   6.229   6.618   0.654  1.4341  0.2697  0.0834
 1226TIP3    H225094   6.273   6.671   0.520 -0.2571  0.2183 -0.5264
 1227TIP3   OH225095   6.510   5.546   2.054 -0.4688 -0.4679  0.6029
 1227TIP3    H125096   6.446   5.481   2.026 -0.2152 -0.2997 -0.4064
 1227TIP3    H225097   6.539   5.587   1.973 -1.5483  1.7968  1.2798
 1228TIP3   OH225098   0.408   6.076  12.060 -0.2761  0.1607  0.1850
 1228TIP3    H125099   0.418   6.000  12.003  1.0869 -0.1815  0.8334
 1228TIP3    H225100   0.380   6.147  12.002  1.3553 -0.1032 -0.9904
 1229TIP3   OH225101   0.793   2.914  14.014  0.4795 -0.1219  0.0331
 1229TIP3    H125102   0.862   2.980  14.023  0.4757 -0.3571  2.6236
 1229TIP3    H225103   0.725   2.958  13.963  2.7009 -0.1352 -3.2701
 1230TIP3   OH225104   1.738   0.099  10.686  0.2080 -0.1015 -0.3216
 1230TIP3    H125105   1.738   0.105  10.591  0.8040  5.2256 -0.2428
 1230TIP3    H225106   1.830   0.091  10.710  0.1607 -0.0854 -0.1328
 1231TIP3   OH225107   2.912   6.887   9.539  0.0479 -0.2587 -0.1754
 1231TIP3    H125108   2.899   6.894   9.444  1.5861 -1.6007 -0.5428
 1231TIP3    H225109   2.839   6.833   9.569  0.1619 -0.7658 -0.7893
 1232TIP3   OH225110   6.040   6.367  13.946 -0.0936 -0.5325  0.1032
 1232TIP3    H125111   6.029   6.392  13.854 -0.5193  0.2253  0.3477
 1232TIP3    H225112   6.021   6.274  13.948  3.0704 -1.3448 -1.1213
 1233TIP3   OH225113   6.293   2.058   9.470  0.2969  0.0045 -0.3141
 1233TIP3    H125114   6.242   2.054   9.551 -0.2784  1.6312 -0.5530
 1233TIP3    H225115   6.311   1.966   9.448 -1.0843 -0.5438  0.6924
 1234TIP3   OH225116   5.544   5.436  11.664  0.2690 -0.2558  0.3374
 1234TIP3    H125117   5.511   5.456  11.752  0.8291  0.1923  0.4498
 1234TIP3    H225118   5.515   5.346  11.648 -2.2755  0.5546 -0.1655
 1235TIP3   OH225119   6.785   6.180  10.755  0.4474  0.4660  0.1173
 1235TIP3    H125120   6.846   6.107  10.758 -0.1720 -0.1828 -1.6743
 1235TIP3    H225121   6.834   6.251  10.714  0.5927  0.6042  0.5201
 1236TIP3   OH225122   2.238   1.962  10.223 -0.3029  0.0501 -0.2065
 1236TIP3    H125123   2.229   2.049  10.260 -0.0094  0.2811 -0.6636
 1236TIP3    H225124   2.212   1.903  10.293 -1.1677  0.5286 -0.1104
 1237TIP3   OH225125   2.359   6.285  11.211 -0.0574  0.4989  0.9508
 1237TIP3    H125126   2.409   6.223  11.263  0.3662 -1.0774 -1.1761
 1237TIP3    H225127   2.406   6.290  11.128 -1.2812  2.0340  0.3015
 1238TIP3   OH225128   6.311   2.852  10.813 -0.2389  0.1673 -0.0184
 1238TIP3    H125129   6.396   2.807  10.814 -0.0627  0.5026  0.1672
 1238TIP3    H225130   6.314   2.908  10.735 -0.2142  0.3231  0.0938
 1239TIP3   OH225131   0.912   0.320  14.705  0.5924  0.2449  0.2845
 1239TIP3    H125132   0.883   0.335  14.795  2.7338 -0.7823  1.2187
 1239TIP3    H225133   0.957   0.401  14.680  0.3577  0.3783  0.2962
 1240TIP3   OH225134   4.576   1.748  12.118 -0.7099 -0.5117  0.4467
 1240TIP3    H125135   4.581   1.656  12.145  1.1904 -1.0598 -1.4964
 1240TIP3    H225136   4.660   1.785  12.144 -1.0436  0.4055  0.2445
 1241TIP3   OH225137   4.755   6.294  12.611 -0.7274 -0.4866  0.3755
 1241TIP3    H125138   4.724   6.220  12.560  1.4758 -1.2285  0.0233
 1241TIP3    H225139   4.827   6.330  12.561 -0.1092  0.3093  1.7644
 1242TIP3   OH225140   0.124   1.270  10.340 -0.0315 -0.5556  0.0260
 1242TIP3    H125141   0.075   1.190  10.356  0.7120 -1.0858 -0.2578
 1242TIP3    H225142   0.193   1.244  10.279  0.2310  0.2982 -0.0584
 1243TIP3   OH225143   1.476   3.724   9.617 -0.1841 -0.3855  0.1290
 1243TIP3    H125144   1.535   3.649   9.613  1.3368  0.7714 -0.0390
 1243TIP3    H225145   1.462   3.748   9.526 -0.8433 -0.5720  0.1731
 1244TIP3   OH225146   6.927   3.876  14.279  0.0540 -0.1147  0.0507
 1244TIP3    H125147   6.871   3.798  14.278  1.1701 -1.0299  2.1609
 1244TIP3    H225148   6.980   3.868  14.200 -2.4257  0.5998 -1.8283
 1245TIP3   OH225149   1.743   5.895   1.621 -0.0314  0.9775  0.0351
 1245TIP3    H125150   1.799   5.924   1.693  1.4293 -2.3875  0.4359
 1245TIP3    H225151   1.797   5.908   1.542  0.2328  0.3298  0.1045
 1246TIP3   OH225152   4.223   3.663  11.955 -0.2150 -0.1489  0.2146
 1246TIP3    H125153   4.237   3.620  12.039  0.0644 -0.2374  0.1244
 1246TIP3    H225154   4.129   3.659  11.941 -0.5802  1.9702  1.6411
 1247TIP3   OH225155   4.305   2.293  11.454 -0.7658 -0.1544  0.2188
 1247TIP3    H125156   4.400   2.303  11.460 -0.4374 -2.6214  0.0849
 1247TIP3    H225157   4.291   2.199  11.452 -3.2630  0.1454  0.6224
 1248TIP3   OH225158   0.007   6.947  14.302 -0.4417  0.1534 -0.4414
 1248TIP3    H125159  -0.065   7.010  14.305 -0.8399 -0.3254  1.3710
 1248TIP3    H225160  -0.037   6.862  14.294 -0.0493 -0.0954  0.0294
 1249TIP3   OH225161   1.079   6.818   9.543 -0.5007  0.4301  0.6201
 1249TIP3    H125162   1.059   6.726   9.563 -0.7955  0.0205 -1.3313
 1249TIP3    H225163   1.157   6.814   9.488  0.3626  1.4809  1.7439
 1250TIP3   OH225164   5.454   6.919  12.018 -0.0261 -0.7044  0.1332
 1250TIP3    H125165   5.516   6.992  12.013 -1.1270  0.2154 -1.3063
 1250TIP3    H225166   5.470   6.879  12.103 -0.6143  2.3879  1.8806
 1251TIP3   OH225167   2.880   6.211  12.270 -0.7356 -0.2759  0.1155
 1251TIP3    H125168   2.935   6.261  12.209  1.8816  0.5890  2.9363
 1251TIP3    H225169   2.850   6.276  12.334 -1.8593 -1.4452  0.8223
 1252TIP3   OH225170   6.620   0.958  12.292 -0.1912  0.1149  0.5399
 1252TIP3    H125171   6.696   0.939  12.348  0.1316  0.2709  0.1666
 1252TIP3    H225172   6.545   0.928  12.342  0.1103  0.0618  0.9696
 1253TIP3   OH225173   0.575   1.827  10.426 -0.4552  0.1497 -0.0444
 1253TIP3    H125174   0.507   1.771  10.462 -0.8395  0.8230  0.2865
 1253TIP3    H225175   0.654   1.806  10.477 -0.1360 -1.3548 -1.0836
 1254TIP3   OH225176   1.153   5.837   9.483 -0.3506  0.2407 -0.3221
 1254TIP3    H125177   1.071   5.792   9.503  0.2781 -0.8908 -0.2219
 1254TIP3    H225178   1.217   5.798   9.543  0.0936  1.7349  0.2270
 1255TIP3   OH225179   4.935   6.482   0.193 -0.0467 -0.5213  0.0979
 1255TIP3    H125180   4.895   6.485   0.280 -2.7114  0.6318 -1.0655
 1255TIP3    H225181   4.969   6.393   0.186 -0.9127 -1.0382  1.8364
 1256TIP3   OH225182   3.349   1.841  11.800  0.1302  0.3475  0.1680
 1256TIP3    H125183   3.407   1.783  11.851 -0.9986  0.9719  2.2934
 1256TIP3    H225184   3.402   1.918  11.782  0.4796  0.2370  0.6815
 1257TIP3   OH225185   5.558   6.332   9.048  0.5278  0.2474 -0.0845
 1257TIP3    H125186   5.645   6.319   9.086  0.5276  0.2351 -0.0877
 1257TIP3    H225187   5.515   6.393   9.108 -0.1995 -1.3010  1.0409
 1258TIP3   OH225188   2.562   0.409   0.444 -0.5768  0.0976  0.5392
 1258TIP3    H125189   2.649   0.446   0.457 -1.2815  1.4722  1.6983
 1258TIP3    H225190   2.577   0.318   0.420  1.2149  0.8022 -1.2689
 1259TIP3   OH225191   1.995   6.484  11.751 -0.4827 -0.3927 -0.5545
 1259TIP3    H125192   2.059   6.506  11.683 -1.4169 -2.1144 -2.0816
 1259TIP3    H225193   2.043   6.495  11.833  0.3028  3.0487 -1.3189
 1260TIP3   OH225194   2.631   3.570  10.090 -0.4210  0.3795 -0.2390
 1260TIP3    H125195   2.550   3.520  10.078  0.8366 -2.1642  1.0947
 1260TIP3    H225196   2.644   3.615  10.006 -1.7886 -1.3737 -1.4523
 1261TIP3   OH225197   1.859   3.590  11.416 -0.2482 -1.1796  0.5956
 1261TIP3    H125198   1.819   3.631  11.493 -0.6103 -1.2603  0.4502
 1261TIP3    H225199   1.785   3.556  11.366 -0.3372  1.4601 -1.3186
 1262TIP3   OH225200   2.962   0.213  11.760 -0.3786 -0.2927  0.4576
 1262TIP3    H125201   2.886   0.178  11.807 -0.8296  0.7467  0.5169
 1262TIP3    H225202   3.004   0.272  11.822  0.4125 -0.7565  0.3784
 1263TIP3   OH225203   1.832   3.456  11.735  0.1266  0.4047  0.0992
 1263TIP3    H125204   1.810   3.522  11.669 -0.0546 -0.9895 -1.2901
 1263TIP3    H225205   1.794   3.490  11.817  1.1957  2.6393 -0.2530
 1264TIP3   OH225206   5.127   3.077  10.421  0.9454  0.0448 -0.1406
 1264TIP3    H125207   5.063   3.025  10.470  0.6922  0.4299 -0.0542
 1264TIP3    H225208   5.075   3.147  10.381  1.1603 -0.2080 -0.8907
 1265TIP3   OH225209   3.837   0.284  11.690  0.1368  0.0600 -0.0827
 1265TIP3    H125210   3.842   0.301  11.783 -0.4002  0.7413 -0.1726
 1265TIP3    H225211   3.825   0.189  11.683 -0.4722  0.0877  0.5618
 1266TIP3   OH225212   1.379   1.363   9.391  0.3101  0.3016 -0.0346
 1266TIP3    H125213   1.452   1.391   9.335 -0.0771  0.3249 -0.5351
 1266TIP3    H225214   1.400   1.399   9.477  0.9185  0.2595 -0.1588
 1267TIP3   OH225215   1.509   6.610  10.690 -0.3360 -0.1274  0.5438
 1267TIP3    H125216   1.501   6.705  10.693 -0.7522 -0.1337 -0.1376
 1267TIP3    H225217   1.596   6.594  10.653  0.1357 -0.0249  1.5794
 1268TIP3   OH225218   6.268   1.095  10.732 -0.1750  0.9999  0.4370
 1268TIP3    H125219   6.257   1.001  10.746  1.0385  0.8844  0.7198
 1268TIP3    H225220   6.351   1.116  10.775  0.4768  1.8515 -1.1546
 1269TIP3   OH225221   3.894   4.065  13.950  0.3710 -0.0948 -0.3518
 1269TIP3    H125222   3.950   4.126  13.902 -1.3453  1.8893  0.0292
 1269TIP3    H225223   3.858   4.117  14.021 -0.4036 -1.8604  0.5903
 1270TIP3   OH225224   4.929   6.950  14.156  0.1963 -0.3817 -0.7577
 1270TIP3    H125225   4.970   6.864  14.159 -0.5541 -0.8116 -2.2160
 1270TIP3    H225226   4.842   6.935  14.120 -0.7391  0.7285  0.8870
 1271TIP3   OH225227   0.077   6.190  11.525  0.2046 -0.1341 -0.5737
 1271TIP3    H125228   0.148   6.141  11.568 -0.8281 -0.0405  1.3663
 1271TIP3    H225229   0.038   6.127  11.465  0.7289 -0.7781 -0.2586
 1272TIP3   OH225230   3.050   0.372  13.995  0.0077 -0.1831  0.0086
 1272TIP3    H125231   3.143   0.352  13.984  0.4081  0.3139  2.0328
 1272TIP3    H225232   3.012   0.359  13.908  2.3556  1.7506 -1.4277
 1273TIP3   OH225233   0.749   0.921   0.995 -0.1163  0.4665  0.2970
 1273TIP3    H125234   0.845   0.928   0.993 -0.0416  1.2022  2.5956
 1273TIP3    H225235   0.718   1.002   0.955  0.2500  0.5178  0.1168
 1274TIP3   OH225236   5.052   6.581  12.516 -0.4568  0.8660 -0.4403
 1274TIP3    H125237   5.141   6.565  12.487 -1.0715 -0.5951 -1.6684
 1274TIP3    H225238   5.054   6.565  12.611  0.8317  2.2218 -0.1960
 1275TIP3   OH225239   4.344   4.282   0.477 -0.4068 -0.2050  0.5857
 1275TIP3    H125240   4.319   4.317   0.391 -0.3995 -1.5072  0.0296
 1275TIP3    H225241   4.302   4.196   0.481 -0.8077  0.0231  2.0996
 1276TIP3   OH225242   6.548   0.226  10.700  0.5449 -0.2318  0.3982
 1276TIP3    H125243   6.609   0.199  10.768  2.7866 -0.2057 -1.4990
 1276TIP3    H225244   6.489   0.151  10.690  0.1704 -0.2396  2.2854
 1277TIP3   OH225245   1.946   0.416   2.512  0.4387  0.3128  0.2663
 1277TIP3    H125246   1.872   0.457   2.556  0.1920 -0.2629  0.3956
 1277TIP3    H225247   2.014   0.411   2.580  0.6761  1.0415  0.0868
 1278TIP3   OH225248   5.299   3.966  10.658 -0.1869  0.6863  0.6204
 1278TIP3    H125249   5.211   4.002  10.644 -0.5548  0.4279  2.1207
 1278TIP3    H225250   5.321   3.991  10.747  1.4794  1.1530  0.1044
 1279TIP3   OH225251   2.595   0.490  10.407 -0.1433 -0.7249 -0.3012
 1279TIP3    H125252   2.552   0.457  10.328 -2.9050 -0.8088  1.1137
 1279TIP3    H225253   2.654   0.558  10.376 -0.8097 -1.0651 -2.4786
 1280TIP3   OH225254   6.518   6.519  12.050 -0.2318  0.7491 -0.2343
 1280TIP3    H125255   6.562   6.447  12.005 -0.8056  0.4843 -0.3868
 1280TIP3    H225256   6.475   6.568  11.979  0.8000  1.7135 -0.2267
 1281TIP3   OH225257   4.759   1.914   9.857 -0.2873  0.2253  0.2560
 1281TIP3    H125258   4.811   1.994   9.866  0.9390 -0.5691  0.3898
 1281TIP3    H225259   4.671   1.946   9.836  0.1819  1.6078  0.2538
 1282TIP3   OH225260   3.227   3.760  13.857  0.2264 -0.1150  0.1379
 1282TIP3    H125261   3.189   3.689  13.804  0.5610 -0.4316  0.3151
 1282TIP3    H225262   3.308   3.783  13.812 -0.2943  0.7398 -0.3822
 1283TIP3   OH225263   4.672   6.898  12.719 -0.2873  0.3150  0.8758
 1283TIP3    H125264   4.640   6.862  12.636  0.7478  0.9445  0.1829
 1283TIP3    H225265   4.746   6.842  12.743  0.1778  0.8482  0.7313
 1284TIP3   OH225266   7.135   2.345  10.721 -0.0466  0.6285  0.0407
 1284TIP3    H125267   7.160   2.268  10.773  2.8044  0.2739 -1.6536
 1284TIP3    H225268   7.124   2.414  10.786  0.4867 -0.4717  1.3686
 1285TIP3   OH225269   5.733   3.542   3.162  0.5525  0.1065 -0.5216
 1285TIP3    H125270   5.818   3.560   3.121  0.4640  0.2956 -0.6223
 1285TIP3    H225271   5.715   3.451   3.139  1.8145 -0.6918  1.4321
 1286TIP3   OH225272   6.535   3.324  11.911  0.2778  0.0968 -0.0198
 1286TIP3    H125273   6.539   3.234  11.879  1.2911  0.1092  0.0499
 1286TIP3    H225274   6.450   3.356  11.881  0.4267 -0.4829 -1.1104
 1287TIP3   OH225275   1.966   3.533  12.016 -0.3664  0.3137  0.0641
 1287TIP3    H125276   1.952   3.628  12.012  1.8582  0.6814 -0.7990
 1287TIP3    H225277   1.879   3.496  12.029 -1.2125  2.5030  1.1289
 1288TIP3   OH225278   2.793   3.001   2.220  0.1169  0.4267 -0.3793
 1288TIP3    H125279   2.768   3.078   2.169 -2.2903  1.3719  1.9782
 1288TIP3    H225280   2.866   3.030   2.275  0.4072  0.4380 -0.7634
 1289TIP3   OH225281   3.605   3.329  11.037 -0.1231  0.1720 -0.1027
 1289TIP3    H125282   3.532   3.368  10.990 -0.4956  0.1061  0.4150
 1289TIP3    H225283   3.600   3.366  11.125  0.3345 -0.0002  0.0006
 1290TIP3   OH225284   3.488   4.706  11.333 -1.0938 -0.3772 -0.1048
 1290TIP3    H125285   3.422   4.667  11.275 -2.0162  2.2671 -1.0279
 1290TIP3    H225286   3.530   4.773  11.278  1.1162 -0.7568  1.0306
 1291TIP3   OH225287   3.338   0.352   2.851 -0.4985  0.0626  0.1393
 1291TIP3    H125288   3.385   0.435   2.854  0.9057 -0.5402 -2.3927
 1291TIP3    H225289   3.402   0.290   2.816 -1.5019 -2.1309  1.9555
 1292TIP3   OH225290   1.209   7.202   1.801  0.9316  0.2715  0.0229
 1292TIP3    H125291   1.170   7.288   1.811  1.4858  0.5842 -0.4720
 1292TIP3    H225292   1.303   7.218   1.800  1.0127 -0.1950 -1.3488
 1293TIP3   OH225293   7.102   3.717   9.896 -0.1987 -0.0435 -0.0527
 1293TIP3    H125294   7.159   3.679   9.963  0.0313 -1.8844 -1.2275
 1293TIP3    H225295   7.015   3.715   9.935  0.2553  1.3739  1.1638
 1294TIP3   OH225296   3.932   5.495  11.223  0.0082  0.1565  0.2413
 1294TIP3    H125297   3.883   5.570  11.189  2.9178  2.0723 -0.0814
 1294TIP3    H225298   3.919   5.427  11.157 -0.0170  1.5297 -1.2649
 1295TIP3   OH225299   6.995   6.221   1.031 -0.1774  0.3336  0.0221
 1295TIP3    H125300   6.906   6.240   1.004 -1.2487 -0.1906  2.7958
 1295TIP3    H225301   7.021   6.297   1.084  0.1408 -0.4483  1.0431
 1296TIP3   OH225302   5.426   0.266  10.546  0.1030  0.2104  0.2299
 1296TIP3    H125303   5.455   0.175  10.552  1.8735  0.6489 -0.7703
 1296TIP3    H225304   5.504   0.318  10.568 -1.5696  1.5729  3.7156
 1297TIP3   OH225305   5.348   0.034  11.323  0.0628 -0.3180 -0.2217
 1297TIP3    H125306   5.371   0.085  11.400 -2.7742 -0.7295  1.0485
 1297TIP3    H225307   5.321   0.099  11.258 -1.1696 -0.0407  0.5253
 1298TIP3   OH225308   3.919   5.075  13.217 -0.1182 -0.8601  0.2329
 1298TIP3    H125309   3.951   5.061  13.128 -0.5883 -0.6724  0.0333
 1298TIP3    H225310   3.828   5.046  13.215 -0.9116  1.4296 -0.0070
 1299TIP3   OH225311   1.111   5.551  11.222  0.1617  0.4765 -0.2431
 1299TIP3    H125312   1.059   5.483  11.266 -0.3000 -0.5838 -2.3358
 1299TIP3    H225313   1.202   5.530  11.243 -0.0775  0.6230  1.0303
 1300TIP3   OH225314   6.053   6.305   1.022  0.0212 -0.3314  0.3362
 1300TIP3    H125315   5.966   6.274   0.996  0.1401 -1.7133  1.4506
 1300TIP3    H225316   6.041   6.341   1.111  0.0140  2.4189 -0.6693
 1301TIP3   OH225317   3.769   1.723  10.790 -0.0935 -0.4004 -0.0047
 1301TIP3    H125318   3.753   1.653  10.726  0.9428 -1.4059  0.7747
 1301TIP3    H225319   3.835   1.779  10.747  2.3688 -2.3453  0.9553
 1302TIP3   OH225320   3.822   0.253  10.600  0.3716  0.0809 -0.2576
 1302TIP3    H125321   3.825   0.280  10.691  2.0254  0.7244 -0.4754
 1302TIP3    H225322   3.823   0.335  10.550 -2.1549 -0.1789 -0.8912
 1303TIP3   OH225323   2.099   5.544   1.086  0.3123 -0.2097 -0.1576
 1303TIP3    H125324   2.011   5.526   1.051  0.8563  0.3159 -1.9072
 1303TIP3    H225325   2.120   5.467   1.138 -2.0733  0.6056  2.2471
 1304TIP3   OH225326   4.306   4.199   2.975  0.0398 -0.1287 -0.6386
 1304TIP3    H125327   4.401   4.193   2.965 -0.0231 -1.6605 -0.5871
 1304TIP3    H225328   4.273   4.206   2.886  0.2576  2.3472 -0.5901
 1305TIP3   OH225329   5.389   6.870  10.316 -0.2332  0.4752  0.2774
 1305TIP3    H125330   5.325   6.940  10.301  0.6310  0.7379 -2.8780
 1305TIP3    H225331   5.472   6.916  10.328  0.5300  0.0948 -2.8778
 1306TIP3   OH225332   4.245   0.510  10.512 -0.3379  0.0786 -0.4156
 1306TIP3    H125333   4.223   0.474  10.598 -0.9956 -0.2915 -0.7376
 1306TIP3    H225334   4.166   0.556  10.484 -0.3702 -0.4170 -1.1462
 1307TIP3   OH225335   0.614   1.196  13.237  0.2775 -0.1627  0.1344
 1307TIP3    H125336   0.664   1.144  13.173  1.2093 -0.5979  1.1897
 1307TIP3    H225337   0.639   1.160  13.322 -0.3878  0.8871  0.7937
 1308TIP3   OH225338   4.690   1.905  12.873 -0.0839  0.6009  0.0072
 1308TIP3    H125339   4.783   1.885  12.877  0.0247  1.2341  1.0805
 1308TIP3    H225340   4.686   1.996  12.841 -0.2579  1.0123  1.1584
 1309TIP3   OH225341   4.627   2.607  12.009  0.4607 -0.3130 -0.5805
 1309TIP3    H125342   4.570   2.530  12.010 -0.9922  0.6559 -2.2318
 1309TIP3    H225343   4.567   2.681  11.997  1.7637  1.1738  1.4430
 1310TIP3   OH225344   6.164   1.168  10.040 -0.4245 -0.7235  0.3172
 1310TIP3    H125345   6.224   1.192   9.970  0.0716 -2.2761  0.1598
 1310TIP3    H225346   6.086   1.220  10.025  0.3736  0.3351 -0.2757
 1311TIP3   OH225347   1.745   6.033   9.901 -0.3407 -0.2342  0.1932
 1311TIP3    H125348   1.710   6.014   9.813  1.2909  0.0854 -0.5606
 1311TIP3    H225349   1.821   5.975   9.909  1.4546  1.9350  0.0577
 1312TIP3   OH225350   4.179   6.688  12.721  0.1088 -0.4823  0.4549
 1312TIP3    H125351   4.171   6.604  12.675  0.8037  0.8014 -2.1745
 1312TIP3    H225352   4.273   6.697  12.737  0.0484 -0.1171  0.6000
 1313TIP3   OH225353   2.727   1.008   9.779 -0.0153 -0.9837  0.2067
 1313TIP3    H125354   2.679   1.089   9.763 -0.3592 -1.6759 -2.8870
 1313TIP3    H225355   2.685   0.943   9.722  3.4820 -2.0330 -1.4802
 1314TIP3   OH225356   5.208   2.823  11.422  0.2060 -0.0497 -0.6999
 1314TIP3    H125357   5.146   2.845  11.353 -0.9237  1.2175  0.6576
 1314TIP3    H225358   5.236   2.734  11.401  0.5611  0.5892 -3.2207
 1315TIP3   OH225359   3.707   4.578  11.026  0.9683  0.2915 -0.1939
 1315TIP3    H125360   3.744   4.666  11.019  1.0992  0.3169  0.6647
 1315TIP3    H225361   3.780   4.524  11.056  1.0340 -0.2344 -1.2484
 1316TIP3   OH225362   5.437   2.293  10.326  0.0741 -0.2367  0.4651
 1316TIP3    H125363   5.395   2.378  10.339  0.2126  0.0674 -0.9275
 1316TIP3    H225364   5.366   2.230  10.337  0.3301 -0.1234  3.4260
 1317TIP3   OH225365   1.536   1.879  13.403  0.4741  0.3105  0.2365
 1317TIP3    H125366   1.603   1.947  13.397  0.8760 -0.1734 -1.2120
 1317TIP3    H225367   1.542   1.832  13.320  0.9679 -2.2118  1.5927
 1318TIP3   OH225368   1.302   3.585  12.916 -0.4758 -0.7950 -0.1304
 1318TIP3    H125369   1.319   3.491  12.913 -2.4409 -1.3529  2.4127
 1318TIP3    H225370   1.349   3.616  12.993 -1.4072 -0.1286  0.1978
 1319TIP3   OH225371   5.354   2.604  11.327  0.6555  0.4610  0.1467
 1319TIP3    H125372   5.380   2.512  11.329  0.6420  0.4650  1.1948
 1319TIP3    H225373   5.303   2.613  11.246  3.5268  0.3651 -1.8044
 1320TIP3   OH225374   2.813   3.067   4.861  0.1340  0.3229 -0.5571
 1320TIP3    H125375   2.740   3.117   4.897  0.5718  0.4226  0.2220
 1320TIP3    H225376   2.825   2.994   4.922  1.5325  1.0480  0.0909
 1321TIP3   OH225377   0.537   2.213  10.649  0.7123 -0.0129 -0.2927
 1321TIP3    H125378   0.479   2.197  10.723  2.1847 -0.9787  0.6913
 1321TIP3    H225379   0.540   2.309  10.642 -0.8000  0.0694 -0.2533
 1322TIP3   OH225380   0.093   4.946  12.775  0.4177  0.2992  0.0376
 1322TIP3    H125381   0.002   4.938  12.746  1.0400 -3.8094 -1.4690
 1322TIP3    H225382   0.140   4.977  12.698  0.8145 -1.9109 -0.6747
 1323TIP3   OH225383   0.571   4.438  13.843  0.0081 -0.4697 -0.0093
 1323TIP3    H125384   0.492   4.481  13.809  1.2334  0.5501 -1.7320
 1323TIP3    H225385   0.607   4.501  13.905 -0.2481 -0.7223  0.4021
 1324TIP3   OH225386   4.283   6.187  10.017 -0.1741  0.2324 -0.6943
 1324TIP3    H125387   4.282   6.120  10.086 -2.1851 -0.1926 -1.0771
 1324TIP3    H225388   4.365   6.170   9.969  0.8826  0.0519  1.0788
 1325TIP3   OH225389   2.944   2.979  10.388 -0.1056 -0.4722 -0.4026
 1325TIP3    H125390   2.996   2.992  10.309 -0.8730  0.2118 -0.7978
 1325TIP3    H225391   2.864   3.030  10.374 -0.0212  0.1066  1.0285
 1326TIP3   OH225392   2.717   0.074   0.924  0.2665 -0.0600 -0.0818
 1326TIP3    H125393   2.779   0.079   0.996  0.7432 -0.6023 -0.4471
 1326TIP3    H225394   2.749   0.139   0.861 -0.5234  0.8866  0.4631
 1327TIP3   OH225395   4.077   4.929  12.956  0.6319  0.4579 -0.2258
 1327TIP3    H125396   4.010   4.918  12.889  0.3326  0.2640  0.1010
 1327TIP3    H225397   4.155   4.955  12.908  0.7419 -0.8064 -0.7905
 1328TIP3   OH225398   1.632   2.042  12.796 -0.2429  0.1997 -0.0683
 1328TIP3    H125399   1.718   2.084  12.786 -0.7539  1.4030  0.4209
 1328TIP3    H225400   1.649   1.966  12.852  0.5270  0.3547 -0.0819
 1329TIP3   OH225401   0.861   6.176  12.289  0.0610 -0.0937 -0.4996
 1329TIP3    H125402   0.776   6.168  12.333  0.2957  1.9453  0.4648
 1329TIP3    H225403   0.841   6.171  12.196 -0.4787 -4.3827 -0.3453
 1330TIP3   OH225404   2.114   6.788   9.759 -0.6960 -0.2441  0.1319
 1330TIP3    H125405   2.141   6.729   9.688 -1.9038 -0.3258 -0.2821
 1330TIP3    H225406   2.068   6.731   9.820 -1.1448  0.1231  0.1369
 1331TIP3   OH225407   0.199   3.857  11.272 -0.1860 -0.0608  0.4889
 1331TIP3    H125408   0.208   3.780  11.215 -3.2619  1.9203 -3.0522
 1331TIP3    H225409   0.258   3.922  11.234 -2.7427  1.4981 -1.0693
 1332TIP3   OH225410   1.538   4.745  10.661 -0.1060  0.1669  0.1120
 1332TIP3    H125411   1.518   4.823  10.712  0.1930  0.6244 -0.4675
 1332TIP3    H225412   1.632   4.730  10.675 -0.6347 -1.6160  2.3232
 1333TIP3   OH225413   6.002   1.620  10.593  0.5151 -0.4594  0.4906
 1333TIP3    H125414   6.087   1.624  10.549  0.8681  1.1420  1.2406
 1333TIP3    H225415   6.023   1.626  10.686 -0.4281 -0.0352  0.6862
 1334TIP3   OH225416   3.316   1.350  11.142 -0.1084 -0.6590 -0.2496
 1334TIP3    H125417   3.257   1.422  11.121 -0.2421 -0.0207  1.9982
 1334TIP3    H225418   3.403   1.381  11.118  0.0705  1.0505  2.1922
 1335TIP3   OH225419   3.717   4.817  10.418  0.1694  0.7030 -0.3487
 1335TIP3    H125420   3.716   4.729  10.378  1.2618  0.4122  0.2291
 1335TIP3    H225421   3.801   4.854  10.391  0.0247  1.2945  0.0061
 1336TIP3   OH225422   6.669   4.566   9.986 -0.2151  0.4068  0.1401
 1336TIP3    H125423   6.624   4.582   9.904  0.4638 -0.1704 -0.3538
 1336TIP3    H225424   6.599   4.564  10.052 -0.5914  2.8134 -0.1077
 1337TIP3   OH225425   2.207   2.864  10.660  0.1502 -0.0345  0.0602
 1337TIP3    H125426   2.169   2.835  10.743 -0.0752 -0.0220 -0.0380
 1337TIP3    H225427   2.150   2.826  10.593 -0.1838  0.6714 -0.0719
 1338TIP3   OH225428   3.705   3.414  11.388 -0.4589  0.1621  0.1703
 1338TIP3    H125429   3.682   3.462  11.467  0.4303  0.5460  0.2098
 1338TIP3    H225430   3.756   3.339  11.418 -0.4266  0.1105 -0.0085
 1339TIP3   OH225431   3.427   2.763  14.530 -0.7014  0.7572  0.2998
 1339TIP3    H125432   3.424   2.670  14.549  0.2340  0.9272  1.3745
 1339TIP3    H225433   3.453   2.804  14.613  1.6336  1.7360 -0.8397
 1340TIP3   OH225434   6.375   4.337  10.212  0.5512  0.6209  0.3088
 1340TIP3    H125435   6.388   4.424  10.249 -1.0324  1.4474 -0.9843
 1340TIP3    H225436   6.463   4.311  10.183  1.0400  1.7887  0.6488
 1341TIP3   OH225437   6.280   3.290   9.927 -0.5351  0.0515 -0.0432
 1341TIP3    H125438   6.321   3.370   9.895 -0.5390 -0.0829 -0.3926
 1341TIP3    H225439   6.218   3.265   9.858  1.1500 -1.5431 -1.0665
 1342TIP3   OH225440   6.173   3.370  15.333 -0.1567 -0.0454 -0.4701
 1342TIP3    H125441   6.182   3.462  15.358  0.2654 -0.1445 -0.2384
 1342TIP3    H225442   6.145   3.371  15.242  0.2275  0.3136 -0.5870
 1343TIP3   OH225443   4.916   1.908  11.454  0.7859 -0.0291  0.4057
 1343TIP3    H125444   4.912   1.943  11.365  1.1918 -1.0874 -0.0567
 1343TIP3    H225445   4.948   1.980  11.507  1.6790  0.2706 -0.5144
 1344TIP3   OH225446   2.764   2.197  10.901  0.1414 -0.1516  0.5726
 1344TIP3    H125447   2.672   2.183  10.878 -0.1746 -2.5122  2.8312
 1344TIP3    H225448   2.803   2.110  10.901  2.4096  0.7636 -0.1777
 1345TIP3   OH225449   0.225   4.889  14.273  0.2286  0.2838 -0.3044
 1345TIP3    H125450   0.295   4.837  14.234  0.0713  0.0369 -0.2582
 1345TIP3    H225451   0.248   4.895  14.366  0.0232 -0.0640 -0.2307
 1346TIP3   OH225452   5.168   6.531  14.646  0.1037 -0.1419 -0.1506
 1346TIP3    H125453   5.206   6.444  14.660  0.0309 -0.2999 -0.9017
 1346TIP3    H225454   5.115   6.522  14.567 -0.4027  0.4313  0.1126
 1347TIP3   OH225455   1.761   0.519  13.282  0.3280  0.6107  0.3015
 1347TIP3    H125456   1.704   0.553  13.351 -1.4285  1.9130 -1.6401
 1347TIP3    H225457   1.702   0.472  13.223  1.9475 -1.5021  0.2529
 1348TIP3   OH225458   4.112   1.708  12.853 -0.0890 -0.3077 -0.1367
 1348TIP3    H125459   4.019   1.719  12.871  0.3799 -0.6634  3.0878
 1348TIP3    H225460   4.114   1.661  12.769 -2.6766  1.5850 -1.4034
 1349TIP3   OH225461   1.676   5.041  11.138 -0.0747  0.3430  0.4911
 1349TIP3    H125462   1.683   5.037  11.234 -0.5921 -0.3432  0.5033
 1349TIP3    H225463   1.663   4.951  11.111 -0.2516  0.5758 -0.2105
 1350TIP3   OH225464   0.326   1.083  10.830  0.4064 -0.6933 -0.3327
 1350TIP3    H125465   0.407   1.035  10.815  0.3697 -0.7267 -0.4236
 1350TIP3    H225466   0.333   1.160  10.773  1.0852  0.1411  0.8351
 1351TIP3   OH225467   0.009   4.050  10.206 -0.1370  0.9209  0.1610
 1351TIP3    H125468  -0.007   3.956  10.203 -0.4001  0.9783 -1.0718
 1351TIP3    H225469  -0.072   4.088  10.240 -0.0215  0.7098  0.6794
 1352TIP3   OH225470   3.897   6.480   2.376 -0.5931  0.5456 -0.2971
 1352TIP3    H125471   3.906   6.395   2.333  0.4303  0.4200  0.1250
 1352TIP3    H225472   3.963   6.479   2.445 -1.6857  1.0471  0.7855
 1353TIP3   OH225473   2.330   3.816  12.612 -0.0049  1.0424  0.3102
 1353TIP3    H125474   2.271   3.740  12.609  0.7563  0.4566 -0.7161
 1353TIP3    H225475   2.281   3.886  12.569  0.9020 -0.1421 -2.9725
 1354TIP3   OH225476   0.201   5.333   9.740  0.1618  0.3624 -0.2883
 1354TIP3    H125477   0.228   5.389   9.668 -0.4802  1.3408  0.2096
 1354TIP3    H225478   0.251   5.364   9.815  0.3025 -0.1805 -0.1496
 1355TIP3   OH225479   3.037   4.559   1.799 -0.8148  0.1467 -0.3321
 1355TIP3    H125480   3.059   4.507   1.722 -0.6384 -0.9344  0.4052
 1355TIP3    H225481   3.006   4.643   1.765  3.1241  1.3181 -1.5079
 1356TIP3   OH225482   1.134   6.475  13.933  0.2307  0.3468 -0.1353
 1356TIP3    H125483   1.217   6.461  13.979  0.0349 -1.1647 -0.1828
 1356TIP3    H225484   1.111   6.566  13.952  1.0355  0.2823  1.3105
 1357TIP3   OH225485   3.234   5.626  12.476 -0.1569 -0.2526  0.5643
 1357TIP3    H125486   3.328   5.609  12.479 -0.1564 -0.3207  0.2084
 1357TIP3    H225487   3.207   5.598  12.388 -0.2672  0.9941  0.1800
 1358TIP3   OH225488   3.181   5.837  11.464  0.5185  0.4192 -0.4157
 1358TIP3    H125489   3.229   5.855  11.383  2.2280 -1.6426  0.0527
 1358TIP3    H225490   3.239   5.780  11.514 -1.4471 -0.2034  1.2890
 1359TIP3   OH225491   2.075   1.806  10.397 -0.2599  0.0963 -0.0664
 1359TIP3    H125492   2.046   1.726  10.440 -0.8631 -0.2539 -1.1006
 1359TIP3    H225493   2.004   1.828  10.336  0.2652  0.9529 -0.3875
 1360TIP3   OH225494   5.476   6.782  13.069 -0.2786  0.4927  0.8316
 1360TIP3    H125495   5.529   6.704  13.051 -0.1361  0.6304  0.6494
 1360TIP3    H225496   5.521   6.825  13.142 -0.1660  0.5848  0.7073
 1361TIP3   OH225497   2.316   0.919  12.157  0.3471 -0.3793  0.3922
 1361TIP3    H125498   2.260   0.899  12.082  0.5947 -0.3948  0.2097
 1361TIP3    H225499   2.258   0.962  12.220  0.5093  1.2176 -0.4987
 1362TIP3   OH225500   2.297   5.539  12.090 -0.2694 -0.0320 -0.0466
 1362TIP3    H125501   2.298   5.454  12.135  0.8200 -1.3253 -2.2950
 1362TIP3    H225502   2.335   5.520  12.004 -1.4330  2.4548 -1.2032
 1363TIP3   OH225503   6.624   2.191  12.735  0.2183 -0.1151  0.0058
 1363TIP3    H125504   6.567   2.119  12.708  1.7184 -0.7517 -1.6443
 1363TIP3    H225505   6.711   2.152  12.742  0.7609  1.1772  0.8349
 1364TIP3   OH225506   3.209   1.028  11.373  0.2107  0.1101  0.4908
 1364TIP3    H125507   3.221   1.001  11.282 -0.6294 -1.4806  0.8132
 1364TIP3    H225508   3.132   1.084  11.372 -0.0680 -0.2735  0.2764
 1365TIP3   OH225509   5.335   3.803  11.072  1.1182 -0.3376 -0.3908
 1365TIP3    H125510   5.287   3.778  10.993  0.3934  0.8492 -0.3541
 1365TIP3    H225511   5.356   3.895  11.058  0.0738  0.1757  1.2315
 1366TIP3   OH225512   4.907   5.983  12.953 -0.0542 -0.5465 -0.4163
 1366TIP3    H125513   4.815   5.996  12.930 -0.5314 -1.7268  0.7626
 1366TIP3    H225514   4.937   5.915  12.894 -0.2359 -0.9154 -0.0852
 1367TIP3   OH225515   0.322   6.793  12.306  0.0054 -0.8023  0.0336
 1367TIP3    H125516   0.329   6.732  12.379  1.7842 -0.6393  0.0395
 1367TIP3    H225517   0.272   6.867  12.341  1.9706 -0.1035  1.5762
 1368TIP3   OH225518   5.448   1.927  10.319 -0.2953 -0.6719  0.3933
 1368TIP3    H125519   5.379   1.967  10.266  1.2850  1.4189 -0.2116
 1368TIP3    H225520   5.428   1.954  10.409 -0.4405 -0.3030  0.2537
 1369TIP3   OH225521   5.954   6.747  13.851 -0.4514 -0.0697 -0.4090
 1369TIP3    H125522   5.921   6.724  13.938 -0.2234  0.6978 -0.1145
 1369TIP3    H225523   5.875   6.755  13.797 -0.5686 -0.9993 -0.3971
 1370TIP3   OH225524   1.987   4.937  12.699 -0.1680  0.0344  0.4414
 1370TIP3    H125525   2.067   4.981  12.727 -0.5193  0.7730  0.2992
 1370TIP3    H225526   1.974   4.868  12.764  1.2512 -0.8993 -0.2145
 1371TIP3   OH225527   7.197   3.595  10.968 -0.1355 -0.1656 -0.1501
 1371TIP3    H125528   7.198   3.675  10.915  2.1017 -0.3695 -0.5135
 1371TIP3    H225529   7.287   3.586  11.000 -0.3663 -2.4130  0.0539
 1372TIP3   OH225530   0.401   4.820  11.038 -0.7106  0.3292  0.1987
 1372TIP3    H125531   0.443   4.854  10.959 -2.0282 -2.3470 -1.8304
 1372TIP3    H225532   0.471   4.777  11.086 -0.3695 -0.7111 -1.1623
 1373TIP3   OH225533   1.193   1.478  13.419 -0.1430  0.0165  0.2278
 1373TIP3    H125534   1.110   1.518  13.392 -1.9996 -3.0647  0.9697
 1373TIP3    H225535   1.217   1.525  13.499 -0.9041  1.2439 -0.2350
 1374TIP3   OH225536   2.464   3.950   9.597  0.6394  0.2500 -0.1819
 1374TIP3    H125537   2.444   3.999   9.517  0.9076  0.9443  0.1624
 1374TIP3    H225538   2.393   3.887   9.606 -0.7293  1.8064  0.3471
 1375TIP3   OH225539   0.179   3.278   0.975 -0.4718 -0.2708 -0.4489
 1375TIP3    H125540   0.146   3.260   1.063  0.6163 -0.5671 -0.0905
 1375TIP3    H225541   0.116   3.340   0.938  1.1353  3.0808  1.9628
 1376TIP3   OH225542   2.614   3.217  13.642 -0.1534 -0.0523 -0.4319
 1376TIP3    H125543   2.644   3.280  13.708 -0.8267  0.6451 -0.7835
 1376TIP3    H225544   2.676   3.228  13.569 -0.0201 -0.0954 -0.3254
 1377TIP3   OH225545   2.086   3.773   3.419 -0.1012 -0.2406  0.0672
 1377TIP3    H125546   2.040   3.817   3.348 -0.4829 -1.6397 -0.6068
 1377TIP3    H225547   2.056   3.682   3.414 -1.1103 -0.1643  2.8085
 1378TIP3   OH225548   2.463   3.073   4.860 -0.3421 -0.1467  0.0558
 1378TIP3    H125549   2.376   3.095   4.894 -0.1937 -0.3419  0.5763
 1378TIP3    H225550   2.521   3.133   4.907 -0.0195 -1.1021  0.9014
 1379TIP3   OH225551   4.489   6.653  12.126  0.4391  0.0996  0.1122
 1379TIP3    H125552   4.535   6.725  12.171  0.0068  0.4708 -0.0339
 1379TIP3    H225553   4.505   6.669  12.033  0.8862 -0.3677  0.1016
 1380TIP3   OH225554   4.846   0.536  10.436 -0.4525 -0.4036 -0.4801
 1380TIP3    H125555   4.763   0.521  10.391 -1.0894  0.5017  0.3498
 1380TIP3    H225556   4.857   0.458  10.491  0.2497 -1.4362 -2.0319
 1381TIP3   OH225557   1.092   0.928  11.348 -0.2502  0.0670 -0.7781
 1381TIP3    H125558   1.003   0.915  11.380 -0.2664 -0.0735 -0.8789
 1381TIP3    H225559   1.148   0.905  11.422 -0.3134  0.9819 -0.4310
 1382TIP3   OH225560   3.278   3.047  11.234 -0.5450  0.1080 -0.5424
 1382TIP3    H125561   3.363   3.004  11.223 -0.2513  0.3589  0.5981
 1382TIP3    H225562   3.261   3.088  11.150  0.1893 -0.4376 -0.9713
 1383TIP3   OH225563   3.365   5.306  12.019 -0.2946 -0.0544 -0.0633
 1383TIP3    H125564   3.439   5.316  11.960 -0.3931 -2.5520 -0.7190
 1383TIP3    H225565   3.288   5.322  11.965 -0.3216 -0.3991 -0.1289
 1384TIP3   OH225566   1.666   3.162  12.337 -0.0206 -0.3064 -0.1718
 1384TIP3    H125567   1.649   3.254  12.313 -0.4303  0.0395  1.3498
 1384TIP3    H225568   1.761   3.157  12.347 -0.0727  0.2346  0.7266
 1385TIP3   OH225569   1.884   4.588  11.189  0.3052  0.1679 -0.3538
 1385TIP3    H125570   1.883   4.544  11.273  1.0257 -0.5808 -0.7256
 1385TIP3    H225571   1.812   4.549  11.140  0.9614 -0.6395 -0.6932
 1386TIP3   OH225572   1.871   5.945  13.015 -0.2664  0.4016  0.6801
 1386TIP3    H125573   1.833   5.946  12.927 -0.0439  0.5228  0.5818
 1386TIP3    H225574   1.956   5.902  13.003 -1.3529 -2.0361  1.3167
 1387TIP3   OH225575   0.960   3.063  10.151  0.1098  0.8449  0.3649
 1387TIP3    H125576   0.938   3.023  10.067  1.9487  1.9296 -0.7184
 1387TIP3    H225577   0.937   3.155  10.140 -0.4282  0.8436  1.3826
 1388TIP3   OH225578   2.381   5.624   9.863 -0.4285  0.3794 -0.0476
 1388TIP3    H125579   2.444   5.650   9.796 -0.0248 -0.2544  0.0835
 1388TIP3    H225580   2.370   5.530   9.851  0.5589  0.0224  1.5241
 1389TIP3   OH225581   6.708   4.562   0.591 -0.2837  0.4792  0.5185
 1389TIP3    H125582   6.761   4.560   0.671 -0.1737  1.1219  0.4674
 1389TIP3    H225583   6.619   4.578   0.622 -0.5695 -1.1685  0.6503
 1390TIP3   OH225584   1.477   4.670  10.242 -0.0954 -0.0237 -0.0288
 1390TIP3    H125585   1.445   4.730  10.309 -3.5012 -0.7918 -0.7660
 1390TIP3    H225586   1.442   4.585  10.268 -0.3633 -0.5697 -2.0028
 1391TIP3   OH225587   4.147   4.859  13.222 -0.1244  0.0630 -0.0042
 1391TIP3    H125588   4.119   4.888  13.135 -0.6855  0.6837  0.3747
 1391TIP3    H225589   4.217   4.795  13.205  1.0537  1.5279 -0.8690
 1392TIP3   OH225590   5.426   0.106  12.095  0.2605  0.2782 -0.1992
 1392TIP3    H125591   5.370   0.178  12.067 -0.2410 -0.4922 -1.2552
 1392TIP3    H225592   5.491   0.097  12.025  0.0943 -0.5235 -0.2616
 1393TIP3   OH225593   0.873   6.948  10.457 -0.2302 -0.4515 -0.3019
 1393TIP3    H125594   0.817   6.910  10.389  1.2339 -0.6404 -1.4388
 1393TIP3    H225595   0.826   7.027  10.485 -0.4018  0.1831 -2.2540
 1394TIP3   OH225596   3.638   4.507  10.752 -0.2986  0.0336 -0.0793
 1394TIP3    H125597   3.669   4.533  10.839  0.2695 -0.7229 -0.0478
 1394TIP3    H225598   3.590   4.426  10.767 -0.0543 -0.1895 -0.4918
 1395TIP3   OH225599   5.739   5.337  11.492 -0.6586  0.3575  0.2095
 1395TIP3    H125600   5.721   5.243  11.501 -0.1381  0.2335 -0.0142
 1395TIP3    H225601   5.667   5.380  11.538 -0.1431 -0.1727  1.5500
 1396TIP3   OH225602   3.206   2.000   9.684 -0.4272 -0.4424  0.1791
 1396TIP3    H125603   3.246   2.007   9.597 -0.3007 -1.5297  0.1321
 1396TIP3    H225604   3.277   1.971   9.741 -1.1283 -2.5656  0.0594
 1397TIP3   OH225605   2.269   2.249  10.328  0.1942  0.6568 -0.8838
 1397TIP3    H125606   2.226   2.276  10.409  3.0339  0.6197  0.8067
 1397TIP3    H225607   2.271   2.328  10.274 -2.8429  0.3680 -1.5467
 1398TIP3   OH225608   2.176   1.872   4.211 -0.1975 -0.1001  0.1492
 1398TIP3    H125609   2.269   1.849   4.212  0.2009  1.3218 -1.0989
 1398TIP3    H225610   2.130   1.789   4.220  1.1873 -0.8384  0.6414
 1399TIP3   OH225611   3.803   5.123   9.692 -0.2119 -0.1945 -0.1377
 1399TIP3    H125612   3.794   5.194   9.627 -0.6672 -0.6955 -0.6324
 1399TIP3    H225613   3.896   5.102   9.692 -0.3952 -1.1482 -1.6805
 1400TIP3   OH225614   4.057   0.551  11.717  0.4267  0.7475 -0.1833
 1400TIP3    H125615   4.125   0.567  11.652  0.4264  1.4384 -0.0139
 1400TIP3    H225616   3.977   0.584  11.678  0.0452 -0.6897 -0.6668
 1401TIP3   OH225617   0.442   5.035  11.823 -0.6392 -0.0417 -0.5270
 1401TIP3    H125618   0.519   5.092  11.832  0.0490 -0.8936 -0.7931
 1401TIP3    H225619   0.444   5.006  11.732 -0.1156 -1.6169 -0.0563
 1402TIP3   OH225620   4.476   1.126  10.840  0.4381  0.0451  0.4058
 1402TIP3    H125621   4.467   1.200  10.778 -1.6794 -1.7470 -1.5956
 1402TIP3    H225622   4.549   1.075  10.804 -0.1797 -0.4895 -0.1287
 1403TIP3   OH225623   4.051   2.018  12.111 -0.2199 -0.3651  0.1602
 1403TIP3    H125624   4.110   1.960  12.062 -0.6591 -0.0898 -0.7268
 1403TIP3    H225625   3.992   2.053  12.044 -0.5985  0.3242  0.8421
 1404TIP3   OH225626   1.958   3.173   9.280  0.1678 -0.1132  0.0356
 1404TIP3    H125627   1.902   3.230   9.227  0.6127  0.2818 -0.0115
 1404TIP3    H225628   2.003   3.232   9.340  0.5057 -0.4350  0.1005
 1405TIP3   OH225629   4.371   0.421  14.675 -0.6983  0.7399  0.5908
 1405TIP3    H125630   4.349   0.472  14.597 -4.0529 -0.1772  0.7885
 1405TIP3    H225631   4.351   0.479  14.748  0.9600  1.0524  0.8375
 1406TIP3   OH225632   3.791   7.210  12.844  0.6389 -0.8062  0.4174
 1406TIP3    H125633   3.701   7.240  12.844  1.2190  1.1318 -0.9429
 1406TIP3    H225634   3.827   7.241  12.927  0.4720 -0.1687  0.2537
 1407TIP3   OH225635   3.101   6.868   9.770  0.4476 -0.6066 -0.1486
 1407TIP3    H125636   3.035   6.884   9.703 -1.4039 -0.5583  1.5803
 1407TIP3    H225637   3.165   6.811   9.728  0.7306  1.4217 -2.6902
 1408TIP3   OH225638   1.838   1.307  12.669 -0.0009 -0.5659  0.0857
 1408TIP3    H125639   1.746   1.317  12.644  0.0116  1.2802  0.6723
 1408TIP3    H225640   1.836   1.293  12.763  0.2392 -2.5460 -0.1677
 1409TIP3   OH225641   6.717   6.202   0.130 -0.7508  0.2408  0.4862
 1409TIP3    H125642   6.749   6.113   0.114 -0.5131  0.3761  0.2218
 1409TIP3    H225643   6.655   6.192   0.202  0.5053  0.0970  1.5878
 1410TIP3   OH225644   0.204   3.242  14.133  0.0670  0.2794 -0.3221
 1410TIP3    H125645   0.257   3.285  14.200 -1.0169  0.0079  0.7320
 1410TIP3    H225646   0.179   3.313  14.073 -0.7569  0.9218  0.7672
 1411TIP3   OH225647   5.131   5.824  12.352  0.2944  0.4332  0.0236
 1411TIP3    H125648   5.097   5.745  12.310 -0.1401  1.5863 -1.9258
 1411TIP3    H225649   5.091   5.896  12.303  2.7018  1.8694  0.0007
 1412TIP3   OH225650   4.925   0.392  11.174 -0.4005 -0.3186  0.2579
 1412TIP3    H125651   4.938   0.298  11.186 -0.6940 -0.1892  1.7294
 1412TIP3    H225652   5.007   0.431  11.204 -0.1697 -0.1062 -0.6213
 1413TIP3   OH225653   5.705   2.679  13.976 -0.0248 -0.1655  0.1138
 1413TIP3    H125654   5.742   2.684  14.064 -0.2164  0.1249  0.1779
 1413TIP3    H225655   5.761   2.616  13.930  0.7961  0.5628  0.0952
 1414TIP3   OH225656   6.753   2.286  12.336 -1.0039  0.4422  0.1446
 1414TIP3    H125657   6.813   2.360  12.335  2.0583 -1.7521  1.3596
 1414TIP3    H225658   6.736   2.270  12.429  1.0176 -2.1066  0.2107
 1415TIP3   OH225659   1.825   3.049  12.021  0.0616  0.2303 -0.1849
 1415TIP3    H125660   1.831   3.087  12.109 -1.5260  0.0524  0.0179
 1415TIP3    H225661   1.858   3.118  11.963  0.5898  0.5613  0.4904
 1416TIP3   OH225662   4.147   2.202  11.777  0.5093 -0.6763  0.1174
 1416TIP3    H125663   4.092   2.124  11.784 -3.4957  1.6462 -2.0894
 1416TIP3    H225664   4.181   2.200  11.688  1.7507 -0.6151  0.5632
 1417TIP3   OH225665   4.344   4.665  13.167 -0.1729  0.1949  0.5947
 1417TIP3    H125666   4.275   4.602  13.189 -1.0667  0.5923 -0.8583
 1417TIP3    H225667   4.408   4.658  13.238 -0.5813 -1.8384  0.8140
 1418TIP3   OH225668   1.533   3.793   9.310  0.4322  0.0128 -0.1476
 1418TIP3    H125669   1.606   3.779   9.249  1.1381  1.1611  0.3895
 1418TIP3    H225670   1.486   3.710   9.311 -0.2038  0.2071 -3.0238
 1419TIP3   OH225671   2.261   1.287  14.289 -0.3275 -0.8717 -0.1994
 1419TIP3    H125672   2.205   1.341  14.345  0.2567  0.1629 -0.5891
 1419TIP3    H225673   2.330   1.256  14.347 -0.0222 -0.2443 -0.2241
 1420TIP3   OH225674   0.495   4.308   9.521  0.2857  0.6850  0.8729
 1420TIP3    H125675   0.589   4.299   9.536  1.1743 -0.1224 -3.6088
 1420TIP3    H225676   0.479   4.402   9.528  1.4602  0.8542  1.5159
 1421TIP3   OH225677   5.296   6.135  11.451 -0.4356 -0.1205 -0.4185
 1421TIP3    H125678   5.337   6.173  11.529 -0.2387  1.3670 -1.2083
 1421TIP3    H225679   5.221   6.191  11.432 -0.0935 -0.0412 -1.6764
 1422TIP3   OH225680   4.197   1.111  13.826 -0.7544  0.3422 -0.5669
 1422TIP3    H125681   4.254   1.049  13.779  0.4755  0.5803  0.5688
 1422TIP3    H225682   4.168   1.172  13.758  1.2504  0.8786 -1.0176
 1423TIP3   OH225683   5.403   1.390  12.592  0.5417 -0.3198 -0.3085
 1423TIP3    H125684   5.410   1.296  12.609  0.7318 -0.2763 -0.1332
 1423TIP3    H225685   5.422   1.400  12.499  0.0506 -0.5064 -0.4304
 1424TIP3   OH225686   4.289   0.944   2.495 -0.2320 -0.6918  0.7058
 1424TIP3    H125687   4.194   0.954   2.500 -0.4386 -2.5632  1.3410
 1424TIP3    H225688   4.307   0.935   2.401 -0.7468 -0.9200  0.6271
 1425TIP3   OH225689   0.795   2.442  13.416 -0.2027  0.3637 -0.1594
 1425TIP3    H125690   0.703   2.425  13.438 -0.4086  0.6728 -0.7693
 1425TIP3    H225691   0.840   2.444  13.501 -0.6002 -0.6943  0.0886
 1426TIP3   OH225692   6.210   5.520  13.554  0.1862 -0.2572 -0.1010
 1426TIP3    H125693   6.157   5.440  13.556 -2.0193  1.1192  1.1309
 1426TIP3    H225694   6.287   5.499  13.606 -0.6153 -1.4155  0.6729
 1427TIP3   OH225695   4.726   2.605  13.410 -0.0781 -0.8283  0.2472
 1427TIP3    H125696   4.663   2.622  13.340 -0.3790  1.1048  0.9151
 1427TIP3    H225697   4.803   2.570  13.366 -1.0054 -1.6750 -0.7687
 1428TIP3   OH225698   0.224   6.713  11.209 -0.2431  0.0660 -0.2847
 1428TIP3    H125699   0.209   6.729  11.302  0.8987 -2.2858  0.3786
 1428TIP3    H225700   0.313   6.744  11.193  0.2916 -1.3248 -0.0883
 1429TIP3   OH225701   6.828   7.014  14.841 -0.1755  0.1559  0.9978
 1429TIP3    H125702   6.916   6.978  14.849 -0.7220 -1.1235  1.5124
 1429TIP3    H225703   6.841   7.104  14.813  1.3075  0.0991  1.4412
 1430TIP3   OH225704   4.293   5.112  13.798 -0.1800  0.5969 -0.2429
 1430TIP3    H125705   4.236   5.047  13.840  0.3657  0.4091  0.2222
 1430TIP3    H225706   4.359   5.132  13.864  0.6162  0.4132 -0.9617
 1431TIP3   OH225707   3.101   2.706  10.046 -0.1276  0.0743 -0.5189
 1431TIP3    H125708   3.148   2.672   9.970  1.2060 -0.0199  0.3368
 1431TIP3    H225709   3.155   2.779  10.078  0.7858 -1.5571  1.9355
 1432TIP3   OH225710   3.467   2.079  11.153 -0.2039  0.5407  0.1109
 1432TIP3    H125711   3.388   2.032  11.127  0.0897 -0.0979  0.3236
 1432TIP3    H225712   3.445   2.120  11.236  0.3839 -1.6407  1.4418
 1433TIP3   OH225713   2.128   1.005   9.317  0.7008 -0.3298 -0.8205
 1433TIP3    H125714   2.097   1.061   9.388  1.6733 -0.8694  0.0748
 1433TIP3    H225715   2.113   1.055   9.237 -0.2744  0.3626 -0.2227
 1434TIP3   OH225716   4.584   1.038  13.351  0.1622  0.5304 -0.3768
 1434TIP3    H125717   4.498   1.064  13.384  1.0471  2.0391  0.8750
 1434TIP3    H225718   4.626   0.996  13.426 -0.1419 -2.0686 -1.5365
 1435TIP3   OH225719   6.486   6.784   0.119  0.1544  0.5670 -0.6443
 1435TIP3    H125720   6.493   6.849   0.049  0.6342  1.2348  0.0151
 1435TIP3    H225721   6.484   6.835   0.200 -2.1920 -0.0863 -0.2100
 1436TIP3   OH225722   2.933   5.535  11.377  0.1533  1.3230 -0.1796
 1436TIP3    H125723   2.887   5.611  11.413  0.2305  0.7596  1.1867
 1436TIP3    H225724   2.879   5.460  11.402 -0.6321  0.9663 -2.6476
 1437TIP3   OH225725   1.494   1.522   9.586 -0.5938  0.2021  0.0802
 1437TIP3    H125726   1.462   1.497   9.672  0.4267 -0.5924  0.2447
 1437TIP3    H225727   1.506   1.617   9.591 -0.6670  0.1782  0.7733
 1438TIP3   OH225728   3.285   2.970  13.672  0.1556 -0.3994 -0.2489
 1438TIP3    H125729   3.210   3.029  13.676 -0.0595 -0.7161  0.5433
 1438TIP3    H225730   3.334   2.988  13.753  0.4360 -0.8425 -0.3159
 1439TIP3   OH225731   3.938   6.952   9.650 -0.0826 -0.1083  0.3846
 1439TIP3    H125732   3.961   6.860   9.639 -1.1097 -0.2902 -0.3135
 1439TIP3    H225733   3.897   6.957   9.736  0.3125 -0.2273  0.5819
 1440TIP3   OH225734   4.638   4.703  10.671  0.0013 -0.4496  0.0981
 1440TIP3    H125735   4.638   4.671  10.581 -1.6583 -1.3721  0.3884
 1440TIP3    H225736   4.581   4.780  10.669 -0.3019 -0.6618  0.4012
 1441TIP3   OH225737   5.609   3.126   9.876 -0.2358  0.3148  0.5956
 1441TIP3    H125738   5.524   3.123   9.919  0.0566  1.3594  1.2730
 1441TIP3    H225739   5.588   3.130   9.782 -0.9196  0.1867  0.7378
 1442TIP3   OH225740   1.725   3.777  12.220  0.2090  0.4105 -0.3393
 1442TIP3    H125741   1.685   3.713  12.278  1.3163  0.2114  0.2256
 1442TIP3    H225742   1.675   3.857  12.235  1.0165  0.6202  1.5915
 1443TIP3   OH225743   1.187   4.818  10.669  0.4670 -0.2826  0.2972
 1443TIP3    H125744   1.129   4.842  10.740  2.4292  2.3601  1.1487
 1443TIP3    H225745   1.253   4.762  10.710  0.2400 -0.7755 -0.0017
 1444TIP3   OH225746   6.424   5.848   9.342  0.6932 -0.5705 -0.0862
 1444TIP3    H125747   6.479   5.839   9.420  0.7041 -0.5685 -0.0935
 1444TIP3    H225748   6.380   5.763   9.334 -1.5374  0.3079  1.5935
 1445TIP3   OH225749   3.230   7.144  12.243  0.1098 -0.4831 -0.4255
 1445TIP3    H125750   3.219   7.095  12.325 -1.0545 -1.5686 -1.2003
 1445TIP3    H225751   3.301   7.206  12.262  1.6382 -2.4381  0.6058
 1446TIP3   OH225752   3.275   0.167  14.193 -0.0647 -0.3345 -0.2856
 1446TIP3    H125753   3.289   0.193  14.102 -2.9744 -0.6033 -0.9203
 1446TIP3    H225754   3.224   0.240  14.230 -3.1985 -2.2798 -0.3928
 1447TIP3   OH225755   6.432   3.157  10.111 -0.0260  0.1723  0.1949
 1447TIP3    H125756   6.404   3.168  10.202  0.7050  2.0366  0.2534
 1447TIP3    H225757   6.381   3.223  10.064 -0.3485 -0.7367 -0.7603
 1448TIP3   OH225758   2.731   4.333  12.751 -0.2811  0.1700  0.0041
 1448TIP3    H125759   2.639   4.311  12.737 -0.4238  0.5464  0.3465
 1448TIP3    H225760   2.732   4.382  12.832  0.1647  0.5663 -0.2382
 1449TIP3   OH225761   1.198   1.164  12.331  0.4827  0.3768 -0.4574
 1449TIP3    H125762   1.141   1.137  12.403  0.2478  1.8638 -0.0463
 1449TIP3    H225763   1.170   1.253  12.310  2.0984  0.8375 -0.7988
 1450TIP3   OH225764   2.042   3.781   0.513 -0.0566 -0.2236 -0.0895
 1450TIP3    H125765   2.013   3.813   0.427  0.2455 -0.1824 -0.1792
 1450TIP3    H225766   1.962   3.752   0.556 -0.1790 -0.5067 -0.4958
 1451TIP3   OH225767   3.292   5.014  14.048 -0.1983  0.5759 -0.5685
 1451TIP3    H125768   3.359   4.950  14.071 -0.7210 -0.1509 -1.0241
 1451TIP3    H225769   3.211   4.963  14.043 -0.6526  1.3029 -0.7761
 1452TIP3   OH225770   5.931   3.271  14.599  0.1479  0.3349  0.0118
 1452TIP3    H125771   5.953   3.194  14.546  1.6967  0.8333 -0.1255
 1452TIP3    H225772   5.879   3.236  14.672  0.4096 -0.7661 -0.3029
 1453TIP3   OH225773   2.871   4.090   9.791 -0.1825 -0.1078  0.5675
 1453TIP3    H125774   2.809   4.056   9.855  0.6710 -1.0018  0.9530
 1453TIP3    H225775   2.823   4.158   9.744 -0.4724  1.3788  2.8961
 1454TIP3   OH225776   6.366   0.217  10.446 -0.1316 -0.1968  0.5890
 1454TIP3    H125777   6.296   0.262  10.400  0.7026 -0.5127 -1.0660
 1454TIP3    H225778   6.404   0.284  10.503  0.6470  1.0702 -1.3259
 1455TIP3   OH225779   4.505   3.833  12.143 -0.5243  0.2853 -0.3473
 1455TIP3    H125780   4.451   3.791  12.076  0.1764 -0.2504 -0.5874
 1455TIP3    H225781   4.547   3.760  12.189  0.4205  0.7098 -0.5256
 1456TIP3   OH225782   6.168   5.168   2.928  0.3471  0.0005 -0.1316
 1456TIP3    H125783   6.161   5.161   2.833  0.4119  0.7170 -0.1945
 1456TIP3    H225784   6.083   5.140   2.961 -0.2246  1.2431 -0.4862
 1457TIP3   OH225785   1.191   4.299  12.954 -0.0413 -0.4324 -0.1935
 1457TIP3    H125786   1.276   4.316  12.995  0.3735  1.4010 -1.6701
 1457TIP3    H225787   1.141   4.380  12.969 -1.3863 -1.3155  0.2526
 1458TIP3   OH225788   2.396   1.993  13.544  0.4141 -0.3063  0.3466
 1458TIP3    H125789   2.397   2.088  13.553  2.7060 -0.3364  0.9083
 1458TIP3    H225790   2.386   1.961  13.634  1.5469 -0.5744  0.3923
 1459TIP3   OH225791   4.374   4.103  15.231 -0.6512  0.7807 -0.0833
 1459TIP3    H125792   4.319   4.083  15.155 -0.8513  1.6750 -0.1818
 1459TIP3    H225793   4.462   4.074  15.205 -1.2030 -1.5520  0.4401
 1460TIP3   OH225794   6.619   1.253  11.391  0.3666 -0.6358  0.1840
 1460TIP3    H125795   6.679   1.213  11.453  0.3283 -0.4125  0.3674
 1460TIP3    H225796   6.533   1.216  11.413  0.2731 -0.2046  0.5780
 1461TIP3   OH225797   4.619   4.627  12.138  0.1017  0.0554 -0.4993
 1461TIP3    H125798   4.643   4.639  12.046 -2.2190  0.4573 -1.1126
 1461TIP3    H225799   4.602   4.715  12.171  1.4078 -0.0372  0.5017
 1462TIP3   OH225800   1.995   3.058   9.858 -0.2972 -0.5359 -1.0284
 1462TIP3    H125801   2.081   3.018   9.858  0.4875  1.0540 -0.5998
 1462TIP3    H225802   1.978   3.078   9.950  0.3760  2.1157 -1.4005
 1463TIP3   OH225803   2.754   2.042  12.598  0.0125  0.3274 -0.3688
 1463TIP3    H125804   2.712   2.026  12.682 -1.4687 -0.0326 -1.1510
 1463TIP3    H225805   2.845   2.016  12.612  0.4320  2.5592  1.8058
 1464TIP3   OH225806   6.740   2.025   0.545  0.0097 -0.7185 -0.2629
 1464TIP3    H125807   6.775   1.964   0.610 -0.0836  2.3846  3.0486
 1464TIP3    H225808   6.817   2.060   0.501  0.2680 -1.0657 -0.0897
 1465TIP3   OH225809   3.391   3.492  14.435  0.0866  0.0022 -0.5402
 1465TIP3    H125810   3.398   3.569  14.492  2.2385 -0.9529  0.6058
 1465TIP3    H225811   3.467   3.497  14.377 -0.0987 -0.9234 -0.8939
 1466TIP3   OH225812   1.710   2.113  10.888  0.0866 -0.2480 -1.0106
 1466TIP3    H125813   1.779   2.051  10.863  0.8875  1.2468 -2.7752
 1466TIP3    H225814   1.749   2.164  10.959 -1.0334 -2.4478  1.3508
 1467TIP3   OH225815   6.332   5.031  10.235 -0.1487 -0.6416  0.1184
 1467TIP3    H125816   6.345   5.105  10.175  0.2745 -0.5965  0.2609
 1467TIP3    H225817   6.390   4.963  10.202 -0.9247 -1.1050 -0.3213
 1468TIP3   OH225818   4.562   6.524  10.996  0.1436  0.2820  0.4280
 1468TIP3    H125819   4.611   6.565  11.067  0.4207 -1.7102  1.4349
 1468TIP3    H225820   4.614   6.448  10.972 -1.5999 -0.9309  0.3596
 1469TIP3   OH225821   5.968   1.025   9.851 -0.7426 -0.5386 -0.9763
 1469TIP3    H125822   5.937   1.086   9.784 -1.9753  0.1627  0.1758
 1469TIP3    H225823   5.983   1.081   9.928  1.3140 -1.2147 -0.8454
 1470TIP3   OH225824   0.477   4.002  11.050  0.1784  0.3917 -0.7530
 1470TIP3    H125825   0.429   4.021  10.969 -0.4652  1.2172 -0.1993
 1470TIP3    H225826   0.568   4.024  11.029  0.2346 -0.5707 -1.6138
 1471TIP3   OH225827   5.432   5.130  12.352 -0.4430  0.1857  0.3811
 1471TIP3    H125828   5.415   5.205  12.295 -1.2685 -1.6550 -1.9716
 1471TIP3    H225829   5.409   5.054  12.298  1.9079 -1.8554  2.0396
 1472TIP3   OH225830   1.793   0.318  11.846  0.2543 -0.0739 -0.3273
 1472TIP3    H125831   1.785   0.333  11.752 -1.0803  1.1424 -0.0609
 1472TIP3    H225832   1.703   0.326  11.879  0.8232  0.4692  1.1842
 1473TIP3   OH225833   5.718   6.631   1.111 -0.0195 -0.4089  0.4458
 1473TIP3    H125834   5.622   6.636   1.104  0.0259 -0.1320 -0.0083
 1473TIP3    H225835   5.736   6.537   1.120 -0.4333 -0.3586  2.2242
 1474TIP3   OH225836   1.584   1.508   9.237  0.5401 -0.0394 -0.4307
 1474TIP3    H125837   1.656   1.536   9.293 -0.0216  0.0201  0.2887
 1474TIP3    H225838   1.544   1.589   9.205 -0.4394  0.0073  0.8103
 1475TIP3   OH225839   1.905   1.370   0.481 -0.1067 -0.0933 -0.3891
 1475TIP3    H125840   1.822   1.328   0.460 -0.1467 -0.2521  0.0707
 1475TIP3    H225841   1.916   1.356   0.575  0.5268 -0.2350 -0.4786
 1476TIP3   OH225842   5.629   4.080  10.105 -0.1680 -0.0774 -0.6302
 1476TIP3    H125843   5.723   4.085  10.124 -0.9928  2.3703  4.1804
 1476TIP3    H225844   5.615   4.150  10.041  1.0950  0.6807 -0.1318
 1477TIP3   OH225845   0.255   0.263  12.078 -0.6348 -0.1002 -0.0001
 1477TIP3    H125846   0.240   0.351  12.042  0.8061  0.1775  0.0249
 1477TIP3    H225847   0.188   0.253  12.145 -1.0882  0.8061 -0.2930
 1478TIP3   OH225848   0.469   3.014  14.823  0.1143 -0.1733 -0.0141
 1478TIP3    H125849   0.421   2.937  14.853  2.3629 -2.4630 -1.8091
 1478TIP3    H225850   0.409   3.060  14.765 -1.8484  0.4477  2.3780
 1479TIP3   OH225851   6.175   2.789  14.283 -0.6406 -0.0346 -0.3055
 1479TIP3    H125852   6.163   2.882  14.263 -0.6448 -0.4185 -2.2844
 1479TIP3    H225853   6.269   2.775  14.276 -0.4559  0.0932  1.4787
 1480TIP3   OH225854   7.008   6.231  13.891  0.3245  0.0080  0.9325
 1480TIP3    H125855   7.078   6.200  13.948  1.0544 -0.2396 -0.0720
 1480TIP3    H225856   6.972   6.152  13.851 -0.3431  0.1596  1.2225
 1481TIP3   OH225857   0.810   5.473  12.183  0.2235  0.2395 -0.2383
 1481TIP3    H125858   0.896   5.445  12.216  0.1287  0.9420  0.6700
 1481TIP3    H225859   0.790   5.551  12.235 -0.5869  0.5733 -1.0366
 1482TIP3   OH225860   1.486   2.914  11.375  0.0206  0.1067 -0.2926
 1482TIP3    H125861   1.529   2.855  11.313 -0.2030 -0.4319  0.0540
 1482TIP3    H225862   1.398   2.926  11.340 -0.5078 -1.1552  0.5119
 1483TIP3   OH225863   0.328   2.778  13.162 -0.1690 -0.3605 -0.0307
 1483TIP3    H125864   0.236   2.782  13.136 -0.6060 -2.4370  1.0177
 1483TIP3    H225865   0.357   2.869  13.162 -1.5208  0.1745 -2.7066
 1484TIP3   OH225866   2.337   2.478  10.832 -0.1800  0.3272 -0.1879
 1484TIP3    H125867   2.249   2.514  10.826 -0.7909 -1.0840 -0.1785
 1484TIP3    H225868   2.367   2.473  10.741  0.1889  1.4592 -0.1433
 1485TIP3   OH225869   3.088   7.137  11.821 -0.6411  0.3216 -0.7277
 1485TIP3    H125870   3.056   7.151  11.910 -0.4441 -2.7526 -0.0462
 1485TIP3    H225871   3.150   7.208  11.805 -0.8606  1.0757  1.4861
 1486TIP3   OH225872   7.007   4.667  14.163 -0.2152 -0.1432 -0.4904
 1486TIP3    H125873   7.015   4.616  14.244  0.3267  0.0736 -0.4079
 1486TIP3    H225874   7.043   4.753  14.185 -0.6479  0.1154 -0.7816
 1487TIP3   OH225875   4.311   6.144  11.276  0.8266 -0.3494  0.6375
 1487TIP3    H125876   4.270   6.220  11.234 -1.5434 -1.4585  0.7907
 1487TIP3    H225877   4.393   6.132  11.228  0.9057  1.8210  0.1155
 1488TIP3   OH225878   6.398   5.630   9.648 -0.3867  0.0743  0.3525
 1488TIP3    H125879   6.416   5.612   9.740  0.5424  1.6128  0.5105
 1488TIP3    H225880   6.353   5.552   9.616 -0.0515 -0.7921  1.9156
 1489TIP3   OH225881   0.419   5.708   9.484 -0.1597  0.2894 -0.1115
 1489TIP3    H125882   0.378   5.779   9.535  2.6687  1.3463  0.8608
 1489TIP3    H225883   0.472   5.754   9.419  1.0543 -0.9620 -0.0278
 1490TIP3   OH225884   0.138   4.039  11.915 -0.4437  0.1102  0.3158
 1490TIP3    H125885   0.157   4.130  11.936 -2.2288  0.3701  1.0464
 1490TIP3    H225886   0.199   4.017  11.845 -1.7077  2.7224 -1.7953
 1491TIP3   OH225887   1.640   2.906  10.012 -1.3062  0.0340 -0.0008
 1491TIP3    H125888   1.701   2.970  10.047 -1.1301  0.5577 -1.2043
 1491TIP3    H225889   1.595   2.952   9.941 -0.2461 -1.5362 -1.7756
 1492TIP3   OH225890   0.316   4.096  10.607  0.5888 -0.4487  0.3888
 1492TIP3    H125891   0.287   4.157  10.539 -0.0700 -0.5214  0.6047
 1492TIP3    H225892   0.275   4.013  10.583 -0.6546 -0.2034  1.5446
 1493TIP3   OH225893   5.768   4.362  10.980  0.2086 -0.0501 -0.4065
 1493TIP3    H125894   5.785   4.427  11.048  1.3606  0.2355 -0.9272
 1493TIP3    H225895   5.675   4.371  10.961  0.0032  0.2914  0.6874
 1494TIP3   OH225896   5.424   3.709   9.387 -0.2534 -0.3337  0.2171
 1494TIP3    H125897   5.447   3.655   9.463  0.0013  0.1879  0.5199
 1494TIP3    H225898   5.476   3.674   9.315 -0.9947 -1.2557  0.1196
 1495TIP3   OH225899   1.639   3.374   0.673  0.0097 -0.0538 -0.0660
 1495TIP3    H125900   1.691   3.454   0.683 -0.1035  0.4550 -2.7297
 1495TIP3    H225901   1.701   3.303   0.688  0.8945  0.5502 -0.7667
 1496TIP3   OH225902   2.893   1.481  15.096 -0.7477  0.0017  0.3739
 1496TIP3    H125903   2.827   1.463  15.163 -1.2706  1.5467  0.3174
 1496TIP3    H225904   2.853   1.549  15.041  1.0527  1.3083  0.5996
 1497TIP3   OH225905   5.094   3.059  15.269 -0.4507 -0.8584  0.1055
 1497TIP3    H125906   5.122   2.971  15.244  0.1294 -0.4047 -0.8859
 1497TIP3    H225907   5.175   3.103  15.293 -0.2383  0.4398 -2.6725
 1498TIP3   OH225908   4.686   4.118  11.907  0.2308  0.1014  0.1961
 1498TIP3    H125909   4.777   4.106  11.878  0.1598 -0.6740  0.2783
 1498TIP3    H225910   4.633   4.089  11.832 -0.0067  2.9493 -0.8888
 1499TIP3   OH225911   4.424   0.449  10.898  0.0122 -0.5906 -0.0889
 1499TIP3    H125912   4.452   0.364  10.865 -0.8323 -0.4605 -1.2074
 1499TIP3    H225913   4.445   0.511  10.828  0.3279  0.0876  0.5825
 1500TIP3   OH225914   5.640   7.058   9.391  0.4149  0.9143  0.3378
 1500TIP3    H125915   5.571   7.109   9.350  0.1484 -0.2622 -0.7406
 1500TIP3    H225916   5.720   7.109   9.377  0.2178  0.8790 -1.0410
 1501TIP3   OH225917   3.569   4.985  10.570  0.2086  0.5376  0.2221
 1501TIP3    H125918   3.625   4.916  10.536 -0.5770  0.0592 -0.1318
 1501TIP3    H225919   3.570   5.053  10.502  1.1206  0.9632  0.6477
 1502TIP3   OH225920   3.353   3.956  11.654  0.2380 -0.7275 -0.5849
 1502TIP3    H125921   3.446   3.971  11.672 -0.1882 -0.1112  1.3840
 1502TIP3    H225922   3.333   3.874  11.699 -0.7866  0.6437  1.6080
 1503TIP3   OH225923   2.995   5.357  12.428  0.7338  0.4646  0.4129
 1503TIP3    H125924   3.057   5.284  12.437  0.3430  0.2708  1.7918
 1503TIP3    H225925   2.948   5.359  12.512 -0.6414  1.0514 -0.3329
 1504TIP3   OH225926   0.995   1.935  11.113  0.0047  0.2043  0.6523
 1504TIP3    H125927   1.026   1.859  11.064  0.1775 -0.2846  1.4872
 1504TIP3    H225928   1.068   1.997  11.111 -0.4751  0.7568 -0.8260
 1505TIP3   OH225929   0.552   1.136   9.368  0.0484 -0.1101  0.2954
 1505TIP3    H125930   0.459   1.127   9.348  0.3184 -1.6276 -0.4270
 1505TIP3    H225931   0.559   1.220   9.413 -1.4918  0.6269 -0.7446
 1506TIP3   OH225932   4.583   0.898   9.775 -0.7745  0.7619  0.3721
 1506TIP3    H125933   4.520   0.965   9.749 -0.7164  0.1094 -1.6582
 1506TIP3    H225934   4.535   0.816   9.768 -0.2676  0.4199  0.8214
 1507TIP3   OH225935   4.259   2.221   1.157  0.2243  0.4073 -0.1206
 1507TIP3    H125936   4.288   2.312   1.152 -1.3116  1.0920  1.9664
 1507TIP3    H225937   4.313   2.175   1.092  0.4345  2.9159 -1.8545
 1508TIP3   OH225938   4.446   4.058  13.597  0.4474 -0.4210 -0.4221
 1508TIP3    H125939   4.537   4.083  13.616  0.6079 -2.3498  1.7912
 1508TIP3    H225940   4.395   4.134  13.622  1.3911  0.4380 -1.0244
 1509TIP3   OH225941   6.431   1.196  14.570 -0.2583 -0.0188  0.0952
 1509TIP3    H125942   6.344   1.178  14.534 -0.7074  1.3992  0.4195
 1509TIP3    H225943   6.486   1.208  14.493 -0.1571 -1.6555 -0.1220
 1510TIP3   OH225944   3.170   4.233  11.260 -0.1418 -0.2106 -0.5592
 1510TIP3    H125945   3.130   4.162  11.311  0.7245  1.2966  2.4334
 1510TIP3    H225946   3.253   4.197  11.230  1.1368 -0.0937  2.4309
 1511TIP3   OH225947   0.999   3.870  11.717 -0.3733 -0.1492  0.1077
 1511TIP3    H125948   1.070   3.907  11.769  0.0557 -1.1453  0.2442
 1511TIP3    H225949   0.994   3.779  11.744 -3.2840  0.4119  1.8478
 1512TIP3   OH225950   2.380   1.930  10.667  0.2930  0.0093  0.0639
 1512TIP3    H125951   2.293   1.896  10.645  0.3637 -0.1929  0.1018
 1512TIP3    H225952   2.366   2.025  10.676  0.5165  0.3218 -2.2105
 1513TIP3   OH225953   3.234   2.664   9.431  0.7073 -0.0070  0.1191
 1513TIP3    H125954   3.152   2.658   9.382  1.3693 -0.0211 -1.0230
 1513TIP3    H225955   3.281   2.737   9.390  1.3787 -0.1677  0.5877
 1514TIP3   OH225956   3.430   5.203  11.156  0.2699 -0.0297 -0.2496
 1514TIP3    H125957   3.382   5.220  11.074 -0.5319  1.0275  0.4070
 1514TIP3    H225958   3.395   5.120  11.187  0.4211 -0.3302 -0.8812
 1515TIP3   OH225959   4.912   2.882  13.488 -0.2911  0.4117 -0.0403
 1515TIP3    H125960   4.891   2.884  13.394 -0.2209  2.7862 -0.0730
 1515TIP3    H225961   4.828   2.895  13.532 -0.3225 -0.6872  0.2466
 1516TIP3   OH225962   0.059   5.741  10.415 -0.0655 -0.0699  0.3670
 1516TIP3    H125963   0.078   5.822  10.461 -0.5876 -0.0556  0.5718
 1516TIP3    H225964  -0.027   5.715  10.448  0.6048 -1.3289  1.2039
 1517TIP3   OH225965   2.203   3.719  11.321  0.1220 -0.0914  0.5022
 1517TIP3    H125966   2.202   3.732  11.416  0.2231 -0.2300  0.5230
 1517TIP3    H225967   2.136   3.779  11.287  0.6494  0.5687  0.5863
 1518TIP3   OH225968   4.240   2.842  10.935  0.5354 -0.1833  0.2263
 1518TIP3    H125969   4.295   2.830  11.013 -0.5217 -0.7760  0.9081
 1518TIP3    H225970   4.300   2.832  10.862  1.4496 -0.2224  0.9554
 1519TIP3   OH225971   5.272   5.849   9.819 -0.0998 -0.1024 -0.0221
 1519TIP3    H125972   5.214   5.877   9.889 -0.9832  0.3167 -0.9022
 1519TIP3    H225973   5.267   5.753   9.820 -1.6740 -0.0508 -0.7859
 1520TIP3   OH225974   2.295   3.617  14.510 -0.6939  0.2729 -0.6773
 1520TIP3    H125975   2.381   3.602  14.551 -1.4973 -2.1999  0.2905
 1520TIP3    H225976   2.316   3.636  14.419  0.9454  1.7206 -0.0690
 1521TIP3   OH225977   2.995   4.292  10.138  0.3835 -0.4352  0.0475
 1521TIP3    H125978   2.909   4.276  10.099 -0.3143  0.3769  1.1669
 1521TIP3    H225979   3.049   4.325  10.066 -0.5080 -0.0939 -0.4781
 1522TIP3   OH225980   2.377   3.490   2.767  0.1134 -0.1451 -0.0040
 1522TIP3    H125981   2.348   3.405   2.800 -2.3651  0.0953 -1.2696
 1522TIP3    H225982   2.406   3.471   2.677  0.7825  0.1745  0.1394
 1523TIP3   OH225983   0.475   7.121  10.503  0.2325 -0.0950  0.5854
 1523TIP3    H125984   0.544   7.183  10.480 -1.0976  1.1149 -0.2842
 1523TIP3    H225985   0.439   7.155  10.585 -0.6878  0.4943 -0.0391
 1524TIP3   OH225986   5.250   0.427  13.052 -0.1818  0.3629  0.1551
 1524TIP3    H125987   5.155   0.432  13.062 -0.3358 -0.5072 -0.6874
 1524TIP3    H225988   5.278   0.518  13.040 -1.2057  0.4761 -1.8093
 1525TIP3   OH225989   2.494   6.429   9.912 -0.3576  0.0264  0.4006
 1525TIP3    H125990   2.517   6.491   9.843 -2.2349 -1.8293 -2.1201
 1525TIP3    H225991   2.456   6.483   9.981  0.8948  1.9126 -0.2921
 1526TIP3   OH225992   4.676   6.515  10.191  0.1360  0.3281  0.5785
 1526TIP3    H125993   4.641   6.453  10.127  1.2278 -2.2155  2.2839
 1526TIP3    H225994   4.742   6.565  10.142  0.5217 -1.1320 -0.4711
 1527TIP3   OH225995   3.480   6.477   9.621  0.0101  0.1497  0.0562
 1527TIP3    H125996   3.571   6.505   9.609  1.3048 -2.4436  2.6137
 1527TIP3    H225997   3.459   6.428   9.542  0.6185  1.1737 -0.7708
 1528TIP3   OH225998   0.371   0.700  11.807  0.1546  0.2711  0.2152
 1528TIP3    H125999   0.386   0.659  11.892  0.9165 -0.6270 -0.3245
 1528TIP3    H226000   0.457   0.703  11.766 -0.0331  1.6399 -0.1230
 1529TIP3   OH226001   3.892   3.838  13.170  0.1635  0.6188  0.4745
 1529TIP3    H126002   3.906   3.749  13.201 -1.7242 -0.1298 -0.6767
 1529TIP3    H226003   3.972   3.859  13.121  0.3733 -0.6880  0.2122
 1530TIP3   OH226004   6.971   1.709  10.177  0.0164 -0.1060 -0.0953
 1530TIP3    H126005   7.031   1.757  10.235  0.5538  0.2480 -0.9357
 1530TIP3    H226006   6.890   1.760  10.178  0.6280  0.9187 -1.0984
 1531TIP3   OH226007   6.355   1.847  12.282  0.5020  0.1903  0.4665
 1531TIP3    H126008   6.272   1.892  12.295  0.8549  1.2929 -0.9602
 1531TIP3    H226009   6.342   1.796  12.202  0.6293 -1.0702  1.2169
 1532TIP3   OH226010   0.451   7.063  12.503 -0.5669  0.4964  0.1161
 1532TIP3    H126011   0.367   7.024  12.481 -1.3538  1.2791  1.6285
 1532TIP3    H226012   0.430   7.152  12.530  0.4925  0.1222  2.4040
 1533TIP3   OH226013   3.365   1.629   9.930  0.3402 -0.4607 -0.0284
 1533TIP3    H126014   3.420   1.616  10.007  1.6908 -1.4091 -1.1160
 1533TIP3    H226015   3.323   1.544   9.915 -1.1471  0.1319  0.5346
 1534TIP3   OH226016   2.039   5.056  10.981  0.0545  0.6227  0.4146
 1534TIP3    H126017   2.053   4.971  10.938 -0.7430  1.1181 -0.8950
 1534TIP3    H226018   2.039   5.119  10.909 -2.0372  1.4135  1.0387
 1535TIP3   OH226019   3.006   4.314  14.448  0.4474  0.6715 -0.0357
 1535TIP3    H126020   3.032   4.222  14.453  0.8955  0.6123 -2.3292
 1535TIP3    H226021   3.036   4.352  14.531 -0.3459 -1.3495  1.2671
 1536TIP3   OH226022   0.747   1.983  12.886 -0.1667  0.0815 -0.3381
 1536TIP3    H126023   0.689   1.958  12.958  0.4234 -0.2721  0.0262
 1536TIP3    H226024   0.727   2.076  12.871 -1.4197 -0.2466 -0.8023
 1537TIP3   OH226025   3.720   6.438  12.079 -0.1037 -0.0742  0.5398
 1537TIP3    H126026   3.782   6.504  12.047 -1.7327  1.1804 -0.1549
 1537TIP3    H226027   3.736   6.433  12.173  1.1887  0.0406  0.3408
 1538TIP3   OH226028   5.520   5.951  14.587 -0.6044 -0.0048  0.7339
 1538TIP3    H126029   5.568   5.899  14.523 -0.5543  1.9139 -0.8951
 1538TIP3    H226030   5.430   5.918  14.583 -0.3641 -0.6368  0.4838
 1539TIP3   OH226031   3.950   2.463  10.838  0.0981 -0.8900  0.1883
 1539TIP3    H126032   3.904   2.449  10.921 -0.2785 -1.2300 -0.0771
 1539TIP3    H226033   3.880   2.482  10.775  0.5258  3.3626  0.6800
 1540TIP3   OH226034   3.442   4.417  15.044 -0.1751  0.0711  0.1402
 1540TIP3    H126035   3.397   4.356  14.986 -0.3575  0.5518 -0.2288
 1540TIP3    H226036   3.491   4.475  14.986 -1.4130  1.4001  0.3543
 1541TIP3   OH226037   4.376   6.865  13.050  0.0305  0.1260  0.5284
 1541TIP3    H126038   4.448   6.844  12.991 -1.6051  0.9903 -1.9202
 1541TIP3    H226039   4.310   6.797  13.032 -1.2026  1.4174  0.0026
 1542TIP3   OH226040   6.930   2.810  12.219 -0.0589  0.6759 -0.0102
 1542TIP3    H126041   6.911   2.894  12.260  0.9296  0.3012  1.2629
 1542TIP3    H226042   7.011   2.825  12.169 -0.7201  0.8654 -1.0628
 1543TIP3   OH226043   5.507   1.040  10.981 -0.2336 -0.2018  0.4627
 1543TIP3    H126044   5.513   0.945  10.988 -0.9025 -0.2771  0.0748
 1543TIP3    H226045   5.415   1.057  10.960  0.1222  0.4518 -0.6528
 1544TIP3   OH226046   5.615   0.465  12.231 -0.4323 -0.5020  0.2050
 1544TIP3    H126047   5.686   0.524  12.255 -0.4778  0.0629 -1.0057
 1544TIP3    H226048   5.540   0.498  12.281 -0.0517 -0.6073  0.8612
 1545TIP3   OH226049   2.545   6.341   3.331 -0.3222  0.0982  0.1787
 1545TIP3    H126050   2.611   6.391   3.282  0.7309 -0.1137  1.3267
 1545TIP3    H226051   2.529   6.394   3.409 -1.7644  0.2934 -0.2264
 1546TIP3   OH226052   1.264   2.918  10.829 -0.5233  0.3192  1.0060
 1546TIP3    H126053   1.272   2.955  10.916 -0.1528 -0.6030  1.3820
 1546TIP3    H226054   1.313   2.977  10.772 -1.0967  1.1411  1.3418
 1547TIP3   OH226055   1.579   0.920  10.956 -0.1236 -0.1577 -0.5451
 1547TIP3    H126056   1.623   0.869  11.024 -1.5225 -0.9959 -0.2267
 1547TIP3    H226057   1.594   1.012  10.982  0.0275 -0.4489  0.4661
 1548TIP3   OH226058   2.512   0.155   9.579 -0.2486  0.1476 -0.1235
 1548TIP3    H126059   2.575   0.203   9.632 -1.0566  1.5370 -0.3579
 1548TIP3    H226060   2.550   0.154   9.491  0.3611 -0.7857  0.1375
 1549TIP3   OH226061   6.428   3.058  11.421  0.7608  0.2686 -0.9028
 1549TIP3    H126062   6.409   3.147  11.392  0.7298  0.1017 -1.4076
 1549TIP3    H226063   6.503   3.031  11.368  0.9847  0.1117 -0.5139
 1550TIP3   OH226064   5.822   3.547  10.668 -0.2645 -0.6450 -0.2637
 1550TIP3    H126065   5.847   3.639  10.664  0.2602 -0.6395  1.9292
 1550TIP3    H226066   5.904   3.501  10.684 -0.6764 -1.4000 -0.3055
 1551TIP3   OH226067   3.219   4.842  11.801  0.1854  0.0631 -0.3333
 1551TIP3    H126068   3.309   4.810  11.807  0.0424 -0.1873  0.8577
 1551TIP3    H226069   3.214   4.912  11.867 -0.3761  0.3502 -0.6725
 1552TIP3   OH226070   6.847   1.182  10.069  0.2096 -0.8374 -0.5168
 1552TIP3    H126071   6.938   1.156  10.053  0.4080  0.1707 -1.0870
 1552TIP3    H226072   6.821   1.229   9.989 -0.6885 -0.7872 -0.2043
 1553TIP3   OH226073   4.298   2.494  11.761  0.0460  0.6608 -0.4528
 1553TIP3    H126074   4.291   2.588  11.777 -1.1091  0.5824 -0.3900
 1553TIP3    H226075   4.297   2.485  11.665  1.4996  0.7796 -0.5016
 1554TIP3   OH226076   2.031   2.781   0.540 -0.2509 -0.2775  0.2238
 1554TIP3    H126077   1.990   2.854   0.587  0.4374  1.4704 -1.7376
 1554TIP3    H226078   2.125   2.791   0.556 -0.2217 -1.4533  0.8789
 1555TIP3   OH226079   2.042   5.212  11.220  0.5553  0.1758 -0.1415
 1555TIP3    H126080   1.966   5.269  11.207  0.3765 -0.3234 -1.4259
 1555TIP3    H226081   2.044   5.157  11.141  2.9227  0.9677 -0.7025
 1556TIP3   OH226082   4.438   1.985  10.916 -0.4774  0.1388 -0.5480
 1556TIP3    H126083   4.374   1.953  10.853 -1.1276  0.8280 -0.2440
 1556TIP3    H226084   4.387   2.037  10.978  0.2641  0.0882  0.1219
 1557TIP3   OH226085   2.558   0.446  11.731  0.4464  0.3460  0.4000
 1557TIP3    H126086   2.489   0.512  11.738  1.8493  2.0671 -1.2101
 1557TIP3    H226087   2.580   0.424  11.822 -0.4131  1.6838  0.9548
 1558TIP3   OH226088   1.296   4.466  10.911  0.0767  0.6424  0.7024
 1558TIP3    H126089   1.276   4.374  10.897 -1.1861  0.9680  0.2463
 1558TIP3    H226090   1.211   4.510  10.914  0.6584  1.8425  0.5913
 1559TIP3   OH226091   0.264   1.198   1.324 -0.0356  0.2339 -0.3294
 1559TIP3    H126092   0.352   1.165   1.309 -0.5032 -0.4577 -1.7040
 1559TIP3    H226093   0.212   1.163   1.252 -1.3110  1.1315  0.1090
 1560TIP3   OH226094   5.531   2.370  11.754  0.1601 -0.4428  0.1779
 1560TIP3    H126095   5.593   2.440  11.772  2.3262 -1.8134 -1.4415
 1560TIP3    H226096   5.536   2.358  11.659 -2.2999 -0.9397  0.0448
 1561TIP3   OH226097   4.171   2.596  12.080 -0.1078  0.2850 -0.0168
 1561TIP3    H126098   4.135   2.634  12.000 -0.1693 -0.5316 -0.3827
 1561TIP3    H226099   4.169   2.501  12.065 -0.5375  0.0947  1.1137
 1562TIP3   OH226100   3.787   5.219  13.460 -0.0818  0.5457  0.3439
 1562TIP3    H126101   3.881   5.199  13.451  0.3267  1.5923  1.8917
 1562TIP3    H226102   3.743   5.149  13.412  1.4565 -0.6458  0.5887
 1563TIP3   OH226103   4.624   2.221  11.511 -0.0486 -0.4197 -0.2714
 1563TIP3    H126104   4.667   2.305  11.496  1.4848 -0.6783  2.0850
 1563TIP3    H226105   4.589   2.227  11.599  1.6716 -2.7905  0.6996
 1564TIP3   OH226106   4.386   5.700  10.717  0.4386 -0.1494  0.3755
 1564TIP3    H126107   4.303   5.677  10.674  0.3615 -0.1435  0.5225
 1564TIP3    H226108   4.428   5.616  10.734  0.6907 -0.1337 -0.1513
 1565TIP3   OH226109   1.442   1.996   2.948  0.3540  0.3114 -0.8356
 1565TIP3    H126110   1.536   1.979   2.956  0.0408 -1.4397 -0.3159
 1565TIP3    H226111   1.433   2.045   2.866  1.6850  0.2712 -1.0293
 1566TIP3   OH226112   4.839   0.692  10.741 -0.0618 -0.5200 -0.2003
 1566TIP3    H126113   4.810   0.601  10.735  1.0556 -0.8852 -0.3155
 1566TIP3    H226114   4.909   0.691  10.806 -0.8369  0.4812  0.6863
 1567TIP3   OH226115   6.209   5.007  12.498 -0.0168 -0.4521 -0.6000
 1567TIP3    H126116   6.160   5.087  12.514  2.0268  0.4944  1.5161
 1567TIP3    H226117   6.291   5.036  12.459 -0.0834 -1.7455 -1.7763
 1568TIP3   OH226118   4.957   3.732  10.347  0.1787 -0.0907 -0.1667
 1568TIP3    H126119   4.992   3.703  10.432  1.4356  0.8513 -0.3273
 1568TIP3    H226120   4.874   3.685  10.338  0.8395 -1.5255  0.7950
 1569TIP3   OH226121   0.724   1.176   1.529  0.2724 -0.1076 -0.6179
 1569TIP3    H126122   0.629   1.181   1.517  0.4496  1.8358 -1.4756
 1569TIP3    H226123   0.759   1.246   1.475  2.1264  0.0624  0.7148
 1570TIP3   OH226124   5.957   3.644  11.536 -0.1065  0.5839 -0.0126
 1570TIP3    H126125   6.020   3.691  11.482 -0.5575  1.1200 -0.0830
 1570TIP3    H226126   5.877   3.696  11.530 -0.3566  0.2830  0.6245
 1571TIP3   OH226127   0.211   5.294  10.163  0.2930  0.1113  0.2451
 1571TIP3    H126128   0.257   5.346  10.228 -0.4968  1.6284 -0.3773
 1571TIP3    H226129   0.200   5.352  10.088  0.5101 -1.3565 -0.9788
 1572TIP3   OH226130   2.944   2.842  13.669  0.1204 -0.3449 -0.1223
 1572TIP3    H126131   2.956   2.935  13.650  1.5682 -0.0287  1.9826
 1572TIP3    H226132   2.872   2.839  13.732  0.3403 -0.6193  0.1158
 1573TIP3   OH226133   5.042   1.419  13.629 -0.3403  0.3700 -0.5609
 1573TIP3    H126134   5.064   1.458  13.713  0.9082 -1.6981  0.1693
 1573TIP3    H226135   5.054   1.489  13.565 -1.1353  1.9286  0.9456
 1574TIP3   OH226136   1.494   1.016  13.126 -0.5778 -0.2298 -0.1960
 1574TIP3    H126137   1.459   0.927  13.133 -1.2920  0.1250  1.0424
 1574TIP3    H226138   1.553   1.024  13.202 -0.0742  0.1660 -0.6217
 1575TIP3   OH226139   1.085   6.395  12.506 -0.4266  0.5867  0.7128
 1575TIP3    H126140   1.135   6.316  12.485  1.6229  2.2850 -1.3116
 1575TIP3    H226141   1.052   6.426  12.422 -0.2351  2.4639  1.2829
 1576TIP3   OH226142   4.067   3.404  13.635 -0.2719 -0.4708 -0.0635
 1576TIP3    H126143   4.077   3.473  13.700 -0.9232 -1.5505  1.2366
 1576TIP3    H226144   3.989   3.356  13.663 -0.2159 -1.3278 -1.3066
 1577TIP3   OH226145   6.617   2.982   9.484 -0.4402 -0.4498 -0.0422
 1577TIP3    H126146   6.574   2.907   9.444  0.8395 -1.4235  0.3199
 1577TIP3    H226147   6.711   2.964   9.475 -0.0477  1.6942 -1.0180
 1578TIP3   OH226148   1.771   1.846  12.368 -0.2221  0.2509  0.5690
 1578TIP3    H126149   1.779   1.930  12.324 -1.3739  0.6983  1.1695
 1578TIP3    H226150   1.706   1.860  12.436  1.0004 -0.5880  1.9939
 1579TIP3   OH226151   6.435   4.128   9.588  0.5935 -0.3662  0.3282
 1579TIP3    H126152   6.435   4.208   9.535  1.1598 -0.8704 -0.4691
 1579TIP3    H226153   6.471   4.061   9.529  1.3031 -0.9397  1.3782
 1580TIP3   OH226154   5.874   6.881  11.360 -0.3712 -0.2024  0.1280
 1580TIP3    H126155   5.798   6.888  11.302 -0.9051  2.3669  0.9753
 1580TIP3    H226156   5.843   6.826  11.432 -0.5463 -1.2804 -0.7349
 1581TIP3   OH226157   1.663   2.874   9.383 -0.0571  0.0912 -0.3469
 1581TIP3    H126158   1.625   2.919   9.307  2.2624  2.2505 -0.3462
 1581TIP3    H226159   1.694   2.790   9.348 -1.2963 -0.0511 -1.1702
 1582TIP3   OH226160   2.977   2.938  10.825  0.1936  0.4277 -0.2594
 1582TIP3    H126161   2.971   2.864  10.886 -0.2315 -0.3743 -1.2359
 1582TIP3    H226162   3.039   2.908  10.758  1.7829  1.8482  0.4857
 1583TIP3   OH226163   6.227   3.876   9.733 -0.1167  0.4445 -0.0233
 1583TIP3    H126164   6.199   3.810   9.671 -2.1398  1.9576 -0.8257
 1583TIP3    H226165   6.300   3.921   9.690  0.1858 -0.1958 -0.1781
 1584TIP3   OH226166   3.377   6.405   9.394 -0.0347  0.5114  0.5198
 1584TIP3    H126167   3.384   6.310   9.404 -1.6532  0.3983  0.8811
 1584TIP3    H226168   3.289   6.419   9.357  0.6494  1.8005 -0.7401
 1585TIP3   OH226169   2.773   0.654  11.760 -0.5202 -0.7333 -0.0017
 1585TIP3    H126170   2.719   0.690  11.831 -1.1156 -0.3921 -0.6217
 1585TIP3    H226171   2.720   0.587  11.720 -0.8926  0.2571 -1.2308
 1586TIP3   OH226172   3.359   3.046   9.434  0.2847  0.1575  0.2772
 1586TIP3    H126173   3.447   3.079   9.454 -0.1194  0.9009  0.8850
 1586TIP3    H226174   3.305   3.076   9.508 -0.0641 -2.1218  1.0214
 1587TIP3   OH226175   4.481   5.934  10.889 -0.9465 -0.2826  0.2053
 1587TIP3    H126176   4.487   6.007  10.829  1.1860  0.1979  0.8935
 1587TIP3    H226177   4.458   5.859  10.834  1.6856 -0.0278 -1.4268
 1588TIP3   OH226178   3.903   0.621  15.000 -0.1448  0.0154  0.6271
 1588TIP3    H126179   3.829   0.682  14.994 -0.6190 -0.5262  0.8424
 1588TIP3    H226180   3.980   0.677  15.006 -0.2349  0.6507 -2.4796
 1589TIP3   OH226181   2.666   3.188  12.609 -0.1105  0.9677  0.4996
 1589TIP3    H126182   2.727   3.245  12.563 -0.8894  3.3883  2.2626
 1589TIP3    H226183   2.699   3.185  12.699 -0.5941 -0.7150  0.6602
 1590TIP3   OH226184   0.627   1.425  10.233 -0.1538  0.2871 -0.3461
 1590TIP3    H126185   0.579   1.405  10.153 -0.0034  0.6586 -0.5333
 1590TIP3    H226186   0.715   1.389  10.217 -0.4540 -0.6757  0.1231
 1591TIP3   OH226187   4.218   7.196  11.676  0.0169  0.4485  0.4538
 1591TIP3    H126188   4.246   7.281  11.641  1.2720 -1.0172 -2.5229
 1591TIP3    H226189   4.124   7.204  11.687 -0.2865  1.5951 -2.1007
 1592TIP3   OH226190   3.544   2.230  12.342 -0.0549  0.2064 -0.1881
 1592TIP3    H126191   3.635   2.251  12.318 -0.1233  0.8962  0.1365
 1592TIP3    H226192   3.521   2.294  12.409 -0.9572  0.3697 -0.6385
 1593TIP3   OH226193   5.141   0.976  11.446  0.1681 -0.4060 -0.3631
 1593TIP3    H126194   5.154   1.034  11.370 -1.7252  1.8174  0.8929
 1593TIP3    H226195   5.222   0.987  11.497  0.1536  0.5736 -0.5202
 1594TIP3   OH226196   5.441   1.857  13.521  0.1867 -0.0696  0.3783
 1594TIP3    H126197   5.432   1.919  13.449 -0.1256 -0.4062  0.1240
 1594TIP3    H226198   5.520   1.807  13.499 -0.0241 -0.3115  0.1571
 1595TIP3   OH226199   0.295   2.265   9.994  0.2558  0.5303  0.4653
 1595TIP3    H126200   0.273   2.269  10.087  1.3167 -1.5662  0.8601
 1595TIP3    H226201   0.375   2.212   9.990 -0.1186  0.0347 -1.6855
 1596TIP3   OH226202   6.807   6.904  12.186 -0.2225 -0.3757  0.5159
 1596TIP3    H126203   6.872   6.967  12.216 -1.2855  1.1025 -0.1461
 1596TIP3    H226204   6.768   6.870  12.266 -1.8131  2.2128  0.9553
 1597TIP3   OH226205   6.609   2.139  13.055 -0.1746 -0.5408  0.2863
 1597TIP3    H126206   6.673   2.138  12.984  0.8013 -0.3598  1.1324
 1597TIP3    H226207   6.662   2.141  13.135 -1.2353  0.2409  1.0073
 1598TIP3   OH226208   0.286   4.255   0.998  0.5834  0.1049 -0.2059
 1598TIP3    H126209   0.269   4.320   0.931  2.1425 -0.0226 -0.7650
 1598TIP3    H226210   0.298   4.306   1.079  0.8413  0.4385 -0.4535
 1599TIP3   OH226211   6.080   7.125   0.687  0.1362 -0.2080  0.3118
 1599TIP3    H126212   6.064   7.134   0.780 -1.1039 -0.4893  0.1469
 1599TIP3    H226213   6.061   7.212   0.650  0.2512 -0.1981  0.2757
 1600TIP3   OH226214   5.775   6.743  10.098  0.1553 -0.2164 -0.1608
 1600TIP3    H126215   5.825   6.789  10.165 -3.0195  1.4960  1.2748
 1600TIP3    H226216   5.723   6.679  10.146  0.7235 -1.7824 -1.5388
 1601TIP3   OH226217   4.238   5.513  11.821 -0.0998 -0.0761  0.2793
 1601TIP3    H126218   4.332   5.506  11.842  0.3081  0.3797 -1.2880
 1601TIP3    H226219   4.236   5.537  11.729 -1.7730  0.5119  0.4459
 1602TIP3   OH226220   5.769   4.611  13.482 -0.7262  0.4817  0.0789
 1602TIP3    H126221   5.837   4.604  13.549 -0.6374  0.0759 -0.0542
 1602TIP3    H226222   5.758   4.705  13.470 -0.3176  0.5516  0.2321
 1603TIP3   OH226223   2.706   0.225   9.926 -0.2004 -0.2335 -0.5619
 1603TIP3    H126224   2.734   0.283   9.996 -1.9955  0.2685 -0.2037
 1603TIP3    H226225   2.707   0.280   9.847 -0.0908 -0.2405 -0.5651
 1604TIP3   OH226226   5.398   2.148  13.012  0.4853  0.4453 -0.2540
 1604TIP3    H126227   5.485   2.187  13.010  0.3563  0.8182  0.6908
 1604TIP3    H226228   5.338   2.222  13.013  0.2565  0.3381  2.4776
 1605TIP3   OH226229   4.733   6.377  11.959  0.0173  0.0277 -0.1949
 1605TIP3    H126230   4.713   6.389  12.052 -0.0927  0.7160 -0.2978
 1605TIP3    H226231   4.753   6.284  11.950 -2.5197 -0.6146  0.0470
 1606TIP3   OH226232   6.765   4.160  12.143 -0.2308 -0.2818  0.0215
 1606TIP3    H126233   6.715   4.078  12.141  0.0193 -0.4650 -2.8097
 1606TIP3    H226234   6.708   4.224  12.101 -0.6714  1.2572  2.7478
 1607TIP3   OH226235   1.693   1.858  12.979 -0.3871  0.2257 -0.0335
 1607TIP3    H126236   1.603   1.880  13.003 -0.2166  0.0801  0.7782
 1607TIP3    H226237   1.696   1.762  12.986 -0.1654  0.2336 -0.0343
 1608TIP3   OH226238   4.760   1.672  14.576  0.1939  0.1949 -0.3803
 1608TIP3    H126239   4.756   1.765  14.553 -2.1140  0.6916  1.5093
 1608TIP3    H226240   4.689   1.632  14.526 -0.4295 -0.0250  0.6479
 1609TIP3   OH226241   4.060   6.914  12.349  0.0488 -0.3829 -0.0747
 1609TIP3    H126242   4.081   6.909  12.443  0.9497  2.4500 -0.0039
 1609TIP3    H226243   4.136   6.875  12.306  0.4056 -0.2134  0.3791
 1610TIP3   OH226244   0.780   1.888   9.622 -0.1482  0.4435  0.3597
 1610TIP3    H126245   0.753   1.968   9.578 -1.7776  0.0187  0.5063
 1610TIP3    H226246   0.699   1.853   9.660  0.5271 -1.2385  0.3398
 1611TIP3   OH226247   6.098   0.908  10.225  0.0139  0.4994 -0.6913
 1611TIP3    H126248   6.138   0.952  10.150 -0.9919  1.8752 -0.4518
 1611TIP3    H226249   6.028   0.855  10.187 -0.2411  0.8871 -0.7603
 1612TIP3   OH226250   5.953   1.418  14.270 -0.3518  0.0954 -0.0259
 1612TIP3    H126251   5.976   1.454  14.184 -0.2939 -1.1117 -0.5350
 1612TIP3    H226252   6.013   1.462  14.331  1.3088 -0.7982 -0.9364
 1613TIP3   OH226253   4.513   0.236  10.732 -0.1551  0.6713  0.1132
 1613TIP3    H126254   4.485   0.163  10.787 -1.0060  1.3031  0.5306
 1613TIP3    H226255   4.457   0.231  10.654  0.5228  0.2451 -0.3639
 1614TIP3   OH226256   4.201   3.704  12.538 -0.2972 -0.3304  0.5577
 1614TIP3    H126257   4.196   3.763  12.462  0.7173  1.7403  1.9985
 1614TIP3    H226258   4.239   3.624  12.503  0.9169  0.8472 -1.0017
 1615TIP3   OH226259   3.985   6.018   9.814  0.7330 -0.1218  0.0611
 1615TIP3    H126260   3.914   6.064   9.769  0.0650  0.0643  1.2329
 1615TIP3    H226261   4.050   5.999   9.746 -0.3276 -0.0773 -1.0002
 1616TIP3   OH226262   0.419   4.985  13.079  0.1116  0.6803 -0.8559
 1616TIP3    H126263   0.457   5.057  13.028  1.0153 -0.0055 -1.1833
 1616TIP3    H226264   0.396   5.024  13.163 -1.5898  1.8813 -1.8354
 1617TIP3   OH226265   5.409   2.543  10.108  0.1179 -0.4254 -0.1772
 1617TIP3    H126266   5.327   2.518  10.150 -0.1202 -2.4248 -1.7291
 1617TIP3    H226267   5.413   2.492  10.028  2.3166  0.5307 -0.7752
 1618TIP3   OH226268   3.345   1.981   1.329 -0.2003 -0.4236  0.1047
 1618TIP3    H126269   3.389   1.917   1.273  1.0478  0.4024  0.1160
 1618TIP3    H226270   3.403   1.992   1.404 -0.9752 -0.1431  0.6781
 1619TIP3   OH226271   0.777   6.701   0.190 -0.2100 -0.8845 -0.1977
 1619TIP3    H126272   0.689   6.709   0.152 -0.8879 -1.7482  1.1350
 1619TIP3    H226273   0.762   6.694   0.284  1.4140  0.7569  0.2386
 1620TIP3   OH226274   2.874   2.378  12.904  0.1486  0.0596 -0.0314
 1620TIP3    H126275   2.866   2.470  12.929  0.2847  0.3444 -1.0078
 1620TIP3    H226276   2.795   2.336  12.938  1.0902  0.0776  2.3418
 1621TIP3   OH226277   5.066   0.469  14.531 -0.5554  0.6012 -0.1008
 1621TIP3    H126278   5.065   0.459  14.435  0.9189  2.5469 -0.3695
 1621TIP3    H226279   5.055   0.380  14.564 -0.9248 -0.1437 -2.0693
 1622TIP3   OH226280   6.092   2.115  12.553  0.1749 -0.2401 -0.2672
 1622TIP3    H126281   6.025   2.164  12.601 -0.1402 -0.7851 -0.1466
 1622TIP3    H226282   6.116   2.043  12.610  1.4360  0.3778  0.0131
 1623TIP3   OH226283   3.960   4.517  11.146  0.1876 -0.4488  0.1111
 1623TIP3    H126284   3.931   4.525  11.237 -0.1570 -1.2251  0.0771
 1623TIP3    H226285   4.051   4.488  11.152  0.7514  1.2271  0.2107
 1624TIP3   OH226286   6.027   2.275   9.077 -0.3516 -0.2138 -0.0196
 1624TIP3    H126287   6.065   2.278   9.165  0.6953  0.3865 -0.4669
 1624TIP3    H226288   6.100   2.297   9.019 -1.2015  0.1426 -0.9859
 1625TIP3   OH226289   3.037   6.033  11.599 -0.5682 -0.0077  0.2364
 1625TIP3    H126290   3.094   6.109  11.594  1.6178 -1.2978  2.4965
 1625TIP3    H226291   3.083   5.965  11.550 -0.9572 -0.6505  0.7383
 1626TIP3   OH226292   1.233   6.408   0.316 -0.0278 -0.6532 -0.0535
 1626TIP3    H126293   1.215   6.320   0.350 -1.7363 -0.0911  0.5581
 1626TIP3    H226294   1.328   6.417   0.324 -0.0200 -1.7664  1.5459
 1627TIP3   OH226295   3.604   6.014  11.311  0.6375 -0.2440  0.4951
 1627TIP3    H126296   3.515   5.988  11.288  0.8022 -0.2544 -0.1401
 1627TIP3    H226297   3.615   6.100  11.270  1.4646 -0.9442 -0.8133
 1628TIP3   OH226298   5.627   2.555  10.266 -0.1538  0.3614  0.0321
 1628TIP3    H126299   5.536   2.560  10.238 -0.1495  0.7630  0.0795
 1628TIP3    H226300   5.671   2.509  10.194 -0.2218  1.0054 -0.4274
 1629TIP3   OH226301   4.804   3.505  14.857 -0.3626  0.0534  0.3535
 1629TIP3    H126302   4.797   3.416  14.822  0.7543 -0.4530  1.3352
 1629TIP3    H226303   4.741   3.556  14.807  1.2602 -0.5623 -2.5364
 1630TIP3   OH226304   2.975   0.055  10.591  0.2369  0.3050  0.9481
 1630TIP3    H126305   3.062   0.086  10.616 -0.0517  1.2444  0.8321
 1630TIP3    H226306   2.989  -0.036  10.565  0.8328 -0.1947  2.8606
 1631TIP3   OH226307   5.860   2.060  12.973 -0.0286  0.1299 -0.3480
 1631TIP3    H126308   5.784   2.108  12.941 -0.6606 -0.1974  0.6355
 1631TIP3    H226309   5.912   2.125  13.020 -0.1298  0.1686 -0.2904
 1632TIP3   OH226310   0.473   3.974  14.272 -0.2015 -0.0164 -0.0343
 1632TIP3    H126311   0.519   4.043  14.225 -1.1327  0.2964 -0.5120
 1632TIP3    H226312   0.464   4.008  14.362 -0.4650  0.3931 -0.2132
 1633TIP3   OH226313   3.136   3.851  10.511 -0.3715  0.5167 -0.3495
 1633TIP3    H126314   3.158   3.910  10.583  1.9223  1.2142 -1.5435
 1633TIP3    H226315   3.097   3.908  10.445 -0.6174  0.2101 -0.4717
 1634TIP3   OH226316   1.805   0.640  10.381  0.2172  0.2318 -0.1710
 1634TIP3    H126317   1.869   0.711  10.382 -0.8010  1.4103  4.4253
 1634TIP3    H226318   1.721   0.683  10.402 -0.8371 -2.0222  0.5299
 1635TIP3   OH226319   5.839   2.015   1.658 -0.1315  0.1297  0.2063
 1635TIP3    H126320   5.934   2.021   1.647 -0.0886 -0.1401  0.4111
 1635TIP3    H226321   5.806   1.993   1.571 -0.0781  0.9661 -0.0305
 1636TIP3   OH226322   2.489   6.040   0.671  0.7847  0.0048 -0.2601
 1636TIP3    H126323   2.425   5.982   0.713 -0.0784  1.0733 -0.0627
 1636TIP3    H226324   2.437   6.111   0.634  1.7903  0.4846 -0.7963
 1637TIP3   OH226325   4.506   4.793  15.322 -0.3507 -0.6587  0.0375
 1637TIP3    H126326   4.520   4.880  15.360  1.5428 -0.7930 -0.2607
 1637TIP3    H226327   4.574   4.738  15.362  1.8292 -0.8176 -3.4238
 1638TIP3   OH226328   4.374   0.082  10.948  0.1809  0.0673  0.3051
 1638TIP3    H126329   4.321   0.109  11.023 -0.4165  2.3139 -0.8261
 1638TIP3    H226330   4.338  -0.002  10.922 -1.2193  0.4044  1.0590
 1639TIP3   OH226331   5.411   3.447   9.861  0.1842 -0.0257 -0.1923
 1639TIP3    H126332   5.486   3.501   9.837  0.4631 -0.9548 -1.5409
 1639TIP3    H226333   5.335   3.503   9.846  0.3786 -0.3314 -2.8173
 1640TIP3   OH226334   5.477   0.551  10.860  0.0849 -0.5951 -0.4608
 1640TIP3    H126335   5.394   0.589  10.833  0.8475  0.4651 -1.4126
 1640TIP3    H226336   5.523   0.534  10.777  1.7386  0.9826  0.0668
 1641TIP3   OH226337   5.263   2.781  10.463  0.6378 -0.1205 -0.2690
 1641TIP3    H126338   5.185   2.786  10.518  1.0936  0.5532  0.3290
 1641TIP3    H226339   5.336   2.777  10.525  1.1545  0.5889 -0.8220
 1642TIP3   OH226340   6.008   4.633  13.683  0.4256 -0.2498  0.2977
 1642TIP3    H126341   6.038   4.724  13.683 -0.5371  0.1165  1.9754
 1642TIP3    H226342   6.089   4.582  13.685  0.9780  0.5666 -0.3535
 1643TIP3   OH226343   4.989   6.214   1.787 -0.3019 -0.1423  0.1479
 1643TIP3    H126344   5.001   6.259   1.871 -0.7890  1.1094 -0.4368
 1643TIP3    H226345   5.036   6.131   1.798  1.5565  0.9514  0.8778
 1644TIP3   OH226346   0.551   4.256  13.520  0.3480 -0.0433  0.0518
 1644TIP3    H126347   0.595   4.223  13.598  1.4663  1.1913 -0.0284
 1644TIP3    H226348   0.479   4.309  13.554  1.4853  1.3939  0.3118
 1645TIP3   OH226349   2.287   1.967  14.284  0.1477 -0.0075  0.0277
 1645TIP3    H126350   2.319   1.887  14.242  1.2352  0.3371  0.1590
 1645TIP3    H226351   2.274   2.028  14.212  1.2298  0.3200  0.0866
 1646TIP3   OH226352   2.565   1.270  13.796  0.0548 -0.4151  0.2028
 1646TIP3    H126353   2.558   1.364  13.781  1.4718 -0.4818 -1.2120
 1646TIP3    H226354   2.646   1.260  13.846  0.9899 -0.9678 -1.3299
 1647TIP3   OH226355   0.267   6.606  12.473  0.4159 -0.7271  0.2588
 1647TIP3    H126356   0.225   6.555  12.404  0.5402  0.3601 -0.6468
 1647TIP3    H226357   0.306   6.540  12.531 -1.3688 -1.7144  0.4074
 1648TIP3   OH226358   3.847   5.104  11.807  0.8770 -0.2685 -0.5599
 1648TIP3    H126359   3.854   5.041  11.735  1.4693  0.0823 -0.8263
 1648TIP3    H226360   3.917   5.079  11.868 -0.1316 -1.0576  0.3057
 1649TIP3   OH226361   3.687   1.891  11.586 -0.1130 -0.4319 -0.2223
 1649TIP3    H126362   3.779   1.890  11.610 -0.6107  0.4371  1.9215
 1649TIP3    H226363   3.686   1.919  11.494  1.9495 -4.7647 -1.8350
 1650TIP3   OH226364   0.529   1.642   9.543  0.4885 -0.3067 -0.1625
 1650TIP3    H126365   0.513   1.717   9.600  1.6482  0.2860 -0.6067
 1650TIP3    H226366   0.618   1.653   9.512  0.0397 -0.8527 -1.7517
 1651TIP3   OH226367   1.592   3.546  13.628 -0.2485 -0.0083  0.1078
 1651TIP3    H126368   1.505   3.570  13.596 -0.6429 -0.8664  0.5061
 1651TIP3    H226369   1.585   3.453  13.649  1.5717 -0.8669 -2.5585
 1652TIP3   OH226370   7.117   4.689  10.967  0.2532  0.2643  0.2821
 1652TIP3    H126371   7.167   4.758  11.010  1.1802  0.2591 -0.7276
 1652TIP3    H226372   7.179   4.616  10.959 -0.3415 -0.2478  0.2508
 1653TIP3   OH226373   6.273   1.968   9.918  0.5824 -0.2293 -0.2808
 1653TIP3    H126374   6.216   1.972   9.841  0.6211  1.0538 -0.2591
 1653TIP3    H226375   6.356   1.935   9.884  1.3429  2.4878 -1.2915
 1654TIP3   OH226376   5.447   4.839  10.574  0.4782 -0.2978  0.4318
 1654TIP3    H126377   5.523   4.897  10.568 -1.5844  2.4971 -0.6874
 1654TIP3    H226378   5.446   4.793  10.490  1.8687 -1.7575  1.1535
 1655TIP3   OH226379   0.503   2.456  13.450 -0.3896 -0.9093  0.4874
 1655TIP3    H126380   0.465   2.469  13.363  0.2363  2.4364  0.5759
 1655TIP3    H226381   0.436   2.409  13.499 -1.5231 -1.2215 -1.2822
 1656TIP3   OH226382   1.213   1.145   9.838  0.0701 -0.0730  0.2965
 1656TIP3    H126383   1.239   1.158   9.746 -0.0642 -1.6331  0.0063
 1656TIP3    H226384   1.296   1.143   9.886  0.1205  1.1689  0.2891
 1657TIP3   OH226385   3.436   1.256   9.081  0.4831 -0.2646 -0.4796
 1657TIP3    H126386   3.415   1.166   9.057 -0.7031 -0.3251  0.7056
 1657TIP3    H226387   3.434   1.257   9.176 -0.9692  1.3487 -0.4879
 1658TIP3   OH226388   0.195   1.491  11.844  0.2801  0.0147 -0.1345
 1658TIP3    H126389   0.220   1.451  11.927 -1.7054  0.5638  0.8040
 1658TIP3    H226390   0.171   1.581  11.868 -0.6945  0.0615 -1.2202
 1659TIP3   OH226391   0.156   1.561  10.761  0.2647 -0.2469  0.4658
 1659TIP3    H126392   0.178   1.599  10.846  1.1509 -1.7019  0.9102
 1659TIP3    H226393   0.193   1.473  10.763 -1.5976 -1.1274 -0.5767
 1660TIP3   OH226394   1.857   0.254   1.473  0.1060  0.4467 -0.4201
 1660TIP3    H126395   1.885   0.177   1.424 -0.9179  0.7915 -1.5753
 1660TIP3    H226396   1.936   0.308   1.481  1.2026 -1.2788  1.6010
 1661TIP3   OH226397   3.407   5.484  13.433  0.9270 -1.0006 -0.6946
 1661TIP3    H126398   3.336   5.422  13.414 -0.9204  0.4091  1.0451
 1661TIP3    H226399   3.398   5.502  13.527  1.8419  1.3113 -0.9842
 1662TIP3   OH226400   6.944   2.766  12.572 -0.2485  0.2608 -0.3201
 1662TIP3    H126401   6.863   2.718  12.587  0.0980 -0.0956  0.4405
 1662TIP3    H226402   6.923   2.825  12.500 -0.7052 -0.9518 -1.2120
 1663TIP3   OH226403   3.641   4.737  11.591  0.4334 -0.1264  0.4541
 1663TIP3    H126404   3.728   4.723  11.555 -0.0324  1.0213 -1.2259
 1663TIP3    H226405   3.582   4.724  11.518 -0.5251  2.6304  0.6120
 1664TIP3   OH226406   5.080   5.442   9.733  0.1636  0.6665  0.2695
 1664TIP3    H126407   5.028   5.390   9.794 -0.4594  1.5874  0.5378
 1664TIP3    H226408   5.020   5.463   9.662  0.8049 -0.1567 -0.5453
 1665TIP3   OH226409   4.432   6.738  10.110  0.3839 -0.1072 -0.3175
 1665TIP3    H126410   4.501   6.706  10.168  0.6713  0.7868 -0.1522
 1665TIP3    H226411   4.401   6.819  10.151 -1.1279 -0.7436 -0.1247
 1666TIP3   OH226412   1.362   4.925  12.645  0.3050 -0.2192 -0.4810
 1666TIP3    H126413   1.378   4.838  12.609  1.9995  0.0527 -0.4989
 1666TIP3    H226414   1.268   4.937  12.641  0.0297 -2.1148 -0.3332
 1667TIP3   OH226415   2.366   2.818  11.723 -0.5042  0.3533 -0.1465
 1667TIP3    H126416   2.322   2.903  11.732  1.0538  1.1807 -0.0649
 1667TIP3    H226417   2.451   2.839  11.684  1.0071 -0.8102  2.3043
 1668TIP3   OH226418   0.283   0.625  13.135  0.6411  0.1813  0.1525
 1668TIP3    H126419   0.343   0.644  13.207  1.7341 -0.1698 -0.6425
 1668TIP3    H226420   0.218   0.566  13.173  0.5299  0.9191  1.1404
 1669TIP3   OH226421   2.048   1.115  10.448  0.0220  0.3805 -0.0585
 1669TIP3    H126422   1.974   1.071  10.405  0.3453  0.1130 -0.3536
 1669TIP3    H226423   2.051   1.076  10.535  0.0640  0.0964 -0.1858
 1670TIP3   OH226424   4.902   4.117  12.918 -0.4057 -0.6574  0.3272
 1670TIP3    H126425   4.923   4.139  13.009  1.0649  0.2191 -0.2028
 1670TIP3    H226426   4.807   4.127  12.913 -0.5820 -1.2425  1.8931
 1671TIP3   OH226427   3.546   6.185  12.049  0.0098 -0.7320 -0.5728
 1671TIP3    H126428   3.539   6.162  11.956 -4.2999  2.2967 -1.3343
 1671TIP3    H226429   3.609   6.257  12.051 -0.1784 -0.5444 -1.2251
 1672TIP3   OH226430   0.855   2.618  11.096 -0.0202 -0.4401  0.1717
 1672TIP3    H126431   0.812   2.601  11.180  0.7462  1.0293  0.9058
 1672TIP3    H226432   0.924   2.551  11.091 -0.1553 -0.6202  0.6584
 1673TIP3   OH226433   5.707   5.831  10.573  0.2082  0.3261  0.1737
 1673TIP3    H126434   5.784   5.801  10.622 -1.1130 -0.3254  1.9657
 1673TIP3    H226435   5.731   5.819  10.481  2.2635  0.2136  0.6843
 1674TIP3   OH226436   5.448   7.032   9.609  0.5197  0.0733  0.0539
 1674TIP3    H126437   5.485   7.034   9.520  1.2649 -0.2229  0.3438
 1674TIP3    H226438   5.473   7.117   9.647 -0.1668  0.3726 -0.1612
 1675TIP3   OH226439   2.350   2.006  14.551 -0.3490  0.3846  0.0333
 1675TIP3    H126440   2.339   1.920  14.591  0.3578 -0.0730 -0.7370
 1675TIP3    H226441   2.308   1.999  14.465  0.9339  0.3533 -0.6148
 1676TIP3   OH226442   1.790   2.674  12.875  0.5484  0.4404 -0.0659
 1676TIP3    H126443   1.702   2.695  12.906 -0.3779 -1.6800 -1.0567
 1676TIP3    H226444   1.803   2.583  12.901  1.6691  0.1281 -1.6235
 1677TIP3   OH226445   5.869   2.087   9.287  0.0321 -0.0530 -0.0827
 1677TIP3    H126446   5.904   2.078   9.199  0.0336 -0.8762 -0.0026
 1677TIP3    H226447   5.926   2.151   9.330 -0.5344  1.0791 -0.9662
 1678TIP3   OH226448   1.135   5.062  11.235 -0.4028  0.5162 -0.1501
 1678TIP3    H126449   1.136   5.138  11.294  0.1949  1.0948 -0.8883
 1678TIP3    H226450   1.108   5.098  11.150 -2.6571 -0.5402  0.0332
 1679TIP3   OH226451   2.478   3.275   0.719 -0.4916 -0.3886  0.0742
 1679TIP3    H126452   2.483   3.217   0.794 -3.2139  0.5457  1.1038
 1679TIP3    H226453   2.426   3.350   0.750  1.3324  1.7764 -1.6965
 1680TIP3   OH226454   3.462   5.733  11.880 -0.3412 -0.1477  1.6166
 1680TIP3    H126455   3.442   5.814  11.927 -1.1036  0.4192  0.3812
 1680TIP3    H226456   3.473   5.667  11.948 -0.4728  0.8311  2.6109
 1681TIP3   OH226457   6.121   6.356  14.484  0.3057 -0.1012 -0.1228
 1681TIP3    H126458   6.100   6.417  14.413 -2.7606 -2.4289 -1.5028
 1681TIP3    H226459   6.201   6.311  14.454  0.1322  0.2763 -1.2091
 1682TIP3   OH226460   2.639   4.060  14.349 -0.5487  0.2420 -0.3210
 1682TIP3    H126461   2.647   4.141  14.398 -0.4600 -0.5579  1.0252
 1682TIP3    H226462   2.545   4.051  14.332 -0.4121  1.5162 -2.1030
 1683TIP3   OH226463   4.346   4.699  10.875 -0.2495 -0.2791 -0.4720
 1683TIP3    H126464   4.266   4.733  10.914  1.9127  2.0300  2.3755
 1683TIP3    H226465   4.376   4.769  10.817  0.9859  0.0281  0.5011
 1684TIP3   OH226466   6.390   1.846  11.066  0.0421  0.4729 -0.0605
 1684TIP3    H126467   6.377   1.939  11.086 -0.1792 -0.0077  2.2947
 1684TIP3    H226468   6.308   1.818  11.026 -1.8425  0.2617  3.5884
 1685TIP3   OH226469   6.516   7.014  11.163  0.0222  0.1239  0.2206
 1685TIP3    H126470   6.441   7.061  11.199 -1.1959 -1.1285 -0.5718
 1685TIP3    H226471   6.572   6.995  11.239 -1.8135 -1.2925  1.2930
 1686TIP3   OH226472   4.201   3.829  12.303 -1.0774  0.2673 -0.1194
 1686TIP3    H126473   4.108   3.824  12.279 -0.6505 -1.1234 -1.6855
 1686TIP3    H226474   4.237   3.896  12.245 -0.6806 -0.8247 -1.1788
 1687TIP3   OH226475   2.449   1.339   9.976  0.0238  0.3822  0.0314
 1687TIP3    H126476   2.521   1.305   9.922 -0.0155 -0.1990  0.3334
 1687TIP3    H226477   2.371   1.324   9.924  0.0937  0.7384 -0.1726
 1688TIP3   OH226478   3.865   2.395  11.985  0.3766  0.1029 -0.8070
 1688TIP3    H126479   3.849   2.425  12.075  0.7043 -1.9991  0.0212
 1688TIP3    H226480   3.815   2.314  11.978 -0.4447  0.7294 -2.8995
 1689TIP3   OH226481   0.136   1.789  13.883  0.4592 -0.4292  0.5345
 1689TIP3    H126482   0.184   1.751  13.957 -0.6998  0.2606  1.6898
 1689TIP3    H226483   0.118   1.879  13.910  1.0914  0.2419 -1.1447
 1690TIP3   OH226484   6.288   6.897  10.347  0.3575 -0.2193  0.2126
 1690TIP3    H126485   6.279   6.992  10.338 -0.5725 -0.3707 -0.6516
 1690TIP3    H226486   6.227   6.874  10.417 -1.3383 -0.4506 -1.2627
 1691TIP3   OH226487   0.551   4.657  10.791  0.1696  0.2980  0.1047
 1691TIP3    H126488   0.557   4.752  10.792 -0.5989  0.3602 -0.3731
 1691TIP3    H226489   0.466   4.639  10.751 -0.3793 -0.5695  1.6071
 1692TIP3   OH226490   6.992   3.552  10.216  0.0383 -0.0748  0.2039
 1692TIP3    H126491   7.042   3.590  10.288  1.2242  1.0779 -1.1581
 1692TIP3    H226492   7.026   3.463  10.207  0.9382  0.2674  0.1362
 1693TIP3   OH226493   0.577   1.998  13.123 -0.1076 -0.6454  0.4220
 1693TIP3    H126494   0.623   2.042  13.194 -0.6883 -2.4373  1.9717
 1693TIP3    H226495   0.522   1.933  13.166 -0.3680 -1.9140 -1.6799
 1694TIP3   OH226496   5.071   3.487  12.197 -0.4356  0.1275  0.0311
 1694TIP3    H126497   5.029   3.505  12.281  1.1048 -0.7021  1.0224
 1694TIP3    H226498   5.163   3.509  12.211  0.0370 -0.9919 -1.1157
 1695TIP3   OH226499   4.919   4.805  12.825  0.7562 -0.0602 -0.1504
 1695TIP3    H126500   4.923   4.772  12.735  0.3787  0.0070 -0.1912
 1695TIP3    H226501   4.950   4.732  12.879 -1.4923 -1.0636 -0.0973
 1696TIP3   OH226502   7.036   2.845   2.652 -0.6350  0.2477  0.4866
 1696TIP3    H126503   7.003   2.822   2.739 -0.8339 -0.0341  0.3407
 1696TIP3    H226504   6.958   2.843   2.596 -0.2298 -1.5092 -0.0831
 1697TIP3   OH226505   1.947   4.566  12.497  0.5735  0.1868  0.6412
 1697TIP3    H126506   1.972   4.482  12.458  0.6103  1.1209 -1.5220
 1697TIP3    H226507   1.931   4.546  12.589  0.4790 -2.2054  0.1778
 1698TIP3   OH226508   6.814   2.489  10.119  0.0761  0.1808  0.5055
 1698TIP3    H126509   6.849   2.423  10.058  3.6507  0.0767  2.3972
 1698TIP3    H226510   6.816   2.571  10.069  0.9613 -0.2340 -0.1759
 1699TIP3   OH226511   0.103   3.206  11.594  0.1493  0.1827 -0.1555
 1699TIP3    H126512   0.122   3.254  11.514 -1.3442  2.0980  0.5503
 1699TIP3    H226513   0.042   3.137  11.568  0.3696  0.2315 -0.7986
 1700TIP3   OH226514   3.341   1.585  10.402  0.0351  0.0902  0.3740
 1700TIP3    H126515   3.326   1.576  10.496 -1.7292  0.9948  0.2367
 1700TIP3    H226516   3.325   1.678  10.384 -0.6547 -0.2496 -0.9491
 1701TIP3   OH226517   3.982   0.917  10.235 -0.2433 -0.3140  0.2193
 1701TIP3    H126518   4.045   0.891  10.303 -0.2113 -0.8365 -0.0073
 1701TIP3    H226519   4.036   0.954  10.165  0.0297 -2.5710 -0.8410
 1702TIP3   OH226520   1.548   3.246  12.772  0.7873  0.0220 -0.1324
 1702TIP3    H126521   1.568   3.300  12.848 -3.2509  1.7514 -0.0802
 1702TIP3    H226522   1.601   3.283  12.702  0.3940  2.1122  0.6068
 1703TIP3   OH226523   2.652   4.567  13.888  0.3899  0.0258  0.3296
 1703TIP3    H126524   2.667   4.585  13.981 -1.3351  0.1629  0.6161
 1703TIP3    H226525   2.728   4.606  13.844  0.2186  1.8267  1.5223
 1704TIP3   OH226526   0.770   2.403  11.668  0.2045  0.0483 -0.3088
 1704TIP3    H126527   0.750   2.341  11.738 -1.9758  0.9578 -0.0681
 1704TIP3    H226528   0.847   2.366  11.625 -1.0359 -2.8723 -0.2214
 1705TIP3   OH226529   5.933   3.790  10.622  0.0266  0.3650  0.5485
 1705TIP3    H126530   5.921   3.838  10.541  1.1931 -0.7971 -0.3491
 1705TIP3    H226531   6.026   3.766  10.623 -0.4410 -1.6640  1.0324
 1706TIP3   OH226532   3.021   2.164  11.090  0.2506 -0.2256 -0.5918
 1706TIP3    H126533   2.942   2.218  11.101  0.5066  0.4822 -2.0063
 1706TIP3    H226534   2.991   2.088  11.041  0.5102  0.2398 -1.4856
 1707TIP3   OH226535   5.623   3.815  10.452  0.1204  0.3670 -0.0605
 1707TIP3    H126536   5.618   3.853  10.540  0.3545  1.7961 -0.6321
 1707TIP3    H226537   5.534   3.823  10.418  0.0815  0.0261 -0.0426
 1708TIP3   OH226538   5.222   4.412  10.207  0.4605 -0.1383 -0.2726
 1708TIP3    H126539   5.195   4.460  10.129  0.5876 -1.4097 -1.1334
 1708TIP3    H226540   5.143   4.368  10.238  0.6309 -0.4894 -0.3230
 1709TIP3   OH226541   0.406   6.105  11.193 -0.0065  0.1820 -0.3062
 1709TIP3    H126542   0.457   6.167  11.246  1.1249 -2.3955  1.8313
 1709TIP3    H226543   0.315   6.135  11.202  0.0424 -0.3988  3.6929
 1710TIP3   OH226544   2.669   3.559  12.954 -0.1643 -0.2498  0.5940
 1710TIP3    H126545   2.617   3.616  13.012 -2.5910 -1.1962 -0.5322
 1710TIP3    H226546   2.714   3.500  13.014 -1.3055 -0.1325  1.6293
 1711TIP3   OH226547   3.257   0.927  15.057 -0.0550  0.4023 -0.7496
 1711TIP3    H126548   3.322   0.870  15.016  0.5012  0.2961  0.2415
 1711TIP3    H226549   3.262   0.905  15.150 -0.5244  1.3877 -0.4817
 1712TIP3   OH226550   5.837   6.367  10.489 -0.5708 -0.0589  0.1516
 1712TIP3    H126551   5.895   6.434  10.454 -1.7295  0.5381 -0.6825
 1712TIP3    H226552   5.749   6.398  10.469 -1.3238 -0.0207  2.9847
 1713TIP3   OH226553   0.479   7.113  14.651 -0.2956  0.0623 -0.2435
 1713TIP3    H126554   0.407   7.174  14.634 -2.5430 -2.3582 -0.1128
 1713TIP3    H226555   0.520   7.101  14.565 -0.2799  1.1452 -0.4120
 1714TIP3   OH226556   2.968   2.662   5.195 -0.6087 -0.1154  0.3162
 1714TIP3    H126557   3.008   2.581   5.166 -0.8431 -0.5779  1.2473
 1714TIP3    H226558   2.970   2.657   5.291  1.6654  2.0847  0.4916
 1715TIP3   OH226559   2.202   1.421   0.343  0.6761  0.2245 -0.2643
 1715TIP3    H126560   2.207   1.400   0.436  0.6819 -0.8392 -0.4961
 1715TIP3    H226561   2.110   1.444   0.328 -0.2470 -3.2270 -0.6971
 1716TIP3   OH226562   0.400   3.095  11.600 -0.7662  0.4769 -0.1734
 1716TIP3    H126563   0.422   3.188  11.597 -0.8843  0.5476  0.7526
 1716TIP3    H226564   0.483   3.050  11.613 -0.8599  0.5549  0.7226
 1717TIP3   OH226565   4.228   1.267  12.341  0.9606 -0.0591  0.1074
 1717TIP3    H126566   4.176   1.225  12.409 -1.5111 -1.0196 -2.2233
 1717TIP3    H226567   4.181   1.348  12.321  2.2730  0.7727  0.2649
 1718TIP3   OH226568   5.344   0.600   5.891  0.0338  0.1908  0.5864
 1718TIP3    H126569   5.298   0.537   5.837 -1.6932 -0.2797  2.4839
 1718TIP3    H226570   5.432   0.606   5.852  0.3821 -3.5806  0.4825
 1719TIP3   OH226571   6.631   6.701  10.300 -0.3260  0.3333  0.2471
 1719TIP3    H126572   6.696   6.637  10.272 -0.9102  0.1806 -0.7740
 1719TIP3    H226573   6.580   6.655  10.367 -0.9533 -0.4038 -0.7114
 1720TIP3   OH226574   2.653   5.771  10.268 -0.4429 -0.2708 -0.1870
 1720TIP3    H126575   2.690   5.756  10.180  0.3491  1.8689 -0.2697
 1720TIP3    H226576   2.565   5.806  10.251 -0.1352  0.5342 -0.1581
 1721TIP3   OH226577   0.430   1.757  10.644  0.4978  0.2247  0.4099
 1721TIP3    H126578   0.358   1.809  10.679  0.3361  0.0732  0.3025
 1721TIP3    H226579   0.509   1.799  10.678  0.4175  1.2431 -0.6127
 1722TIP3   OH226580   1.852   4.842  10.151 -0.2881 -0.2656  0.2778
 1722TIP3    H126581   1.814   4.876  10.232 -1.1657 -0.6471  0.0333
 1722TIP3    H226582   1.910   4.771  10.180  0.9971  0.9063  0.7275
 1723TIP3   OH226583   2.472   7.118  13.720 -0.4779  0.4786 -0.3083
 1723TIP3    H126584   2.394   7.062  13.725 -0.4029  0.3513 -0.5513
 1723TIP3    H226585   2.465   7.161  13.636 -0.2653  0.4384 -0.3472
 1724TIP3   OH226586   6.462   3.997  10.945 -0.3330  0.2941 -0.1801
 1724TIP3    H126587   6.413   4.031  10.871  1.2662  0.5586 -1.1651
 1724TIP3    H226588   6.451   3.902  10.939  0.7257  0.2289 -1.4774
 1725TIP3   OH226589   1.250   6.777   0.266 -0.4507 -0.2313  0.1393
 1725TIP3    H126590   1.305   6.706   0.235 -0.2350 -0.4971  1.0836
 1725TIP3    H226591   1.167   6.736   0.288 -0.2066 -0.2698  1.0296
 1726TIP3   OH226592   3.194   3.423  12.543  0.1998  0.4347  0.3068
 1726TIP3    H126593   3.174   3.333  12.568 -1.8719  0.4837 -0.8987
 1726TIP3    H226594   3.284   3.437  12.572 -0.0031 -1.4420  2.0508
 1727TIP3   OH226595   1.386   3.101   0.128 -0.0784 -0.2037 -0.2513
 1727TIP3    H126596   1.414   3.124   0.039 -0.7899 -3.0244 -1.2965
 1727TIP3    H226597   1.299   3.140   0.136  0.1360  0.3815 -0.6292
 1728TIP3   OH226598   6.587   4.716  13.485  0.1239  0.0428  0.1556
 1728TIP3    H126599   6.618   4.680  13.402  1.4708  0.4208  0.4852
 1728TIP3    H226600   6.652   4.688  13.550  1.3561  3.1637  0.4214
 1729TIP3   OH226601   2.924   1.632  10.858  0.3024 -0.2779 -0.1812
 1729TIP3    H126602   2.878   1.715  10.874 -0.7404 -1.4236  4.1544
 1729TIP3    H226603   2.854   1.567  10.858  1.2271 -1.3326 -2.3056
 1730TIP3   OH226604   5.286   2.093   1.581 -0.0217  0.5514  0.5274
 1730TIP3    H126605   5.299   2.015   1.636 -0.2181  0.5187  0.5271
 1730TIP3    H226606   5.302   2.062   1.492 -2.1364  0.0033  0.2908
 1731TIP3   OH226607   3.824   5.037  12.112  0.2592 -0.2624 -0.9222
 1731TIP3    H126608   3.898   4.978  12.117  0.8657  0.5176 -0.3982
 1731TIP3    H226609   3.861   5.124  12.131 -0.4246  0.4426 -2.6242
 1732TIP3   OH226610   7.064   2.044  13.887  0.3660 -0.0518 -0.1416
 1732TIP3    H126611   7.096   2.119  13.836  3.1116 -2.0047 -1.5356
 1732TIP3    H226612   6.998   2.003  13.831  1.8774 -0.9880 -1.3310
 1733TIP3   OH226613   6.324   1.393   9.190 -0.5552  0.4989  0.1349
 1733TIP3    H126614   6.350   1.480   9.221 -1.0926  1.0533 -0.9063
 1733TIP3    H226615   6.289   1.409   9.102 -0.2877 -0.8332 -0.2313
 1734TIP3   OH226616   0.366   0.693  10.842  0.6451 -0.1811 -0.0835
 1734TIP3    H126617   0.389   0.697  10.750  2.4826  0.9392  0.3859
 1734TIP3    H226618   0.441   0.650  10.884 -0.1844 -0.7182  0.9013
 1735TIP3   OH226619   2.650   5.964  10.659 -0.5481  0.6167 -0.4620
 1735TIP3    H126620   2.636   6.052  10.626 -1.0602  0.5426 -0.4482
 1735TIP3    H226621   2.571   5.945  10.711  0.1540  0.6714  0.6683
 1736TIP3   OH226622   0.449   2.572   9.728  0.2739  0.4281  0.4754
 1736TIP3    H126623   0.481   2.596   9.641  1.2268 -1.3858  0.2645
 1736TIP3    H226624   0.353   2.579   9.721  0.2733 -0.4516 -1.0082
 1737TIP3   OH226625   2.099   0.301  14.771  0.4571  0.4006 -0.6598
 1737TIP3    H126626   2.184   0.283  14.731  0.7110 -1.4443  0.5559
 1737TIP3    H226627   2.105   0.391  14.802  2.3113  0.0443  0.1379
 1738TIP3   OH226628   2.406   3.066   1.804  0.0594  0.1792  0.3265
 1738TIP3    H126629   2.392   3.104   1.717  1.3671 -1.0845 -0.4766
 1738TIP3    H226630   2.318   3.064   1.843 -0.8170 -0.5950 -1.5564
 1739TIP3   OH226631   3.568   6.345  13.519 -0.3438  0.0099  0.6075
 1739TIP3    H126632   3.613   6.279  13.571  1.7034  1.1554  0.4231
 1739TIP3    H226633   3.571   6.312  13.429  0.3201  0.1518  0.5734
 1740TIP3   OH226634   1.444   4.110  11.761  0.0128 -0.2168 -0.1970
 1740TIP3    H126635   1.481   4.073  11.680  0.6000 -1.3884  0.5889
 1740TIP3    H226636   1.385   4.179  11.730  1.0445  0.0983 -1.5898
 1741TIP3   OH226637   6.895   2.116  15.105  0.9960 -0.4098 -0.0903
 1741TIP3    H126638   6.838   2.050  15.145  2.1885 -2.9800 -2.2856
 1741TIP3    H226639   6.835   2.175  15.060 -0.0667 -1.4544 -0.1144
 1742TIP3   OH226640   0.879   6.572  13.299 -0.2268  0.2431 -0.3364
 1742TIP3    H126641   0.890   6.508  13.228 -0.1670  1.0890 -1.1073
 1742TIP3    H226642   0.941   6.545  13.366 -2.0811 -2.1375  0.5738
 1743TIP3   OH226643   2.873   4.611   0.432  0.4186 -0.5205  0.4099
 1743TIP3    H126644   2.925   4.602   0.512  1.1226  1.7178  0.2631
 1743TIP3    H226645   2.811   4.538   0.436  1.3642 -1.2977  2.2769
 1744TIP3   OH226646   1.093   5.174  11.877 -0.3259 -0.7187  0.1937
 1744TIP3    H126647   1.179   5.214  11.890  0.1566 -1.0245 -1.7139
 1744TIP3    H226648   1.065   5.204  11.791 -1.0516 -2.4846 -0.2340
 1745TIP3   OH226649   0.519   6.678   1.763 -0.0635 -0.3526  0.6360
 1745TIP3    H126650   0.434   6.652   1.798 -0.0168 -0.0125  1.0203
 1745TIP3    H226651   0.541   6.758   1.811  0.7177 -0.7253  0.9192
 1746TIP3   OH226652   0.450   4.726  13.318 -0.1738  0.4768  0.2912
 1746TIP3    H126653   0.370   4.774  13.298  0.8190  1.7921 -0.6272
 1746TIP3    H226654   0.491   4.775  13.390  0.5345  0.6847 -0.2371
 1747TIP3   OH226655   1.289   0.449  12.992  0.4018  0.0698  0.1175
 1747TIP3    H126656   1.252   0.453  12.903  0.5593  2.8124  0.0906
 1747TIP3    H226657   1.307   0.356  13.006 -0.7793 -0.6023 -2.2351
 1748TIP3   OH226658   2.193   2.885  14.715  0.5095 -0.2031 -0.2749
 1748TIP3    H126659   2.118   2.908  14.770  0.3864 -2.1368  0.4485
 1748TIP3    H226660   2.270   2.903  14.770  0.5073  0.3958 -0.4696
 1749TIP3   OH226661   1.229   2.975  11.282  0.1139  0.4203 -0.1220
 1749TIP3    H126662   1.218   2.993  11.376 -0.0692  0.7647 -0.2098
 1749TIP3    H226663   1.152   3.015  11.241  0.1594  0.2084 -0.4124
 1750TIP3   OH226664   4.195   2.356  11.045  0.2616 -0.3591  1.1293
 1750TIP3    H126665   4.166   2.403  11.123 -2.1389 -0.9422  0.6603
 1750TIP3    H226666   4.167   2.265  11.060 -0.1900 -0.4944 -0.3695
 1751TIP3   OH226667   3.674   4.858  13.989 -0.2946  0.5201  0.3513
 1751TIP3    H126668   3.654   4.894  14.076  3.4481 -0.5500  1.8403
 1751TIP3    H226669   3.671   4.763  14.001  0.4623  0.3536 -0.6397
 1752TIP3   OH226670   6.156   2.112  11.785  0.4268 -0.6865  0.2795
 1752TIP3    H126671   6.249   2.103  11.767  0.5732 -0.8020  1.0510
 1752TIP3    H226672   6.130   2.027  11.820  0.3591 -0.2176  1.4173
 1753TIP3   OH226673   0.907   3.908  13.304 -0.3489 -0.2517 -0.6978
 1753TIP3    H126674   0.854   3.980  13.339  0.6591  0.5355 -0.7561
 1753TIP3    H226675   0.967   3.950  13.243  0.2542 -1.1491 -0.7410
 1754TIP3   OH226676   5.048   5.286  14.466 -0.4957 -0.2238  0.1388
 1754TIP3    H126677   5.096   5.362  14.499 -0.8296  0.0831 -0.0874
 1754TIP3    H226678   5.108   5.212  14.481  1.1804  0.4531 -2.5215
 1755TIP3   OH226679   5.595   3.250  11.500 -0.1552 -0.7053 -0.1354
 1755TIP3    H126680   5.679   3.206  11.495  0.0276 -0.3829  0.0974
 1755TIP3    H226681   5.588   3.299  11.418 -0.1738 -0.8327 -0.2099
 1756TIP3   OH226682   3.932   0.239  10.285 -0.2751  0.2162  0.0679
 1756TIP3    H126683   4.013   0.256  10.334 -0.9312  1.0556  0.9018
 1756TIP3    H226684   3.887   0.172  10.336  0.3744 -1.0909 -0.9948
 1757TIP3   OH226685   3.747   2.784   4.764  0.3472  0.3539  0.3385
 1757TIP3    H126686   3.683   2.804   4.696  0.7863 -0.1361 -0.2219
 1757TIP3    H226687   3.708   2.713   4.815  0.7966 -0.5251 -0.5172
 1758TIP3   OH226688   4.181   4.391  10.055 -0.2524 -0.3771  0.7079
 1758TIP3    H126689   4.167   4.460   9.990 -1.0948  0.7333  1.9895
 1758TIP3    H226690   4.250   4.336  10.019 -0.7309  0.1733 -1.1211
 1759TIP3   OH226691   3.217   6.725  11.621  0.4607  0.1457  0.3664
 1759TIP3    H126692   3.297   6.772  11.643  0.5480 -0.1366  0.6630
 1759TIP3    H226693   3.147   6.788  11.635  0.3927 -0.3372  2.6257
 1760TIP3   OH226694   2.139   6.212  14.280  0.4970 -0.4366 -0.2246
 1760TIP3    H126695   2.151   6.223  14.375 -0.1186  0.3395 -0.2232
 1760TIP3    H226696   2.127   6.118  14.268 -0.2150 -0.4579  0.5685
 1761TIP3   OH226697   6.460   0.024  15.266  0.5190 -0.4402 -0.0673
 1761TIP3    H126698   6.541  -0.006  15.226 -0.7863 -1.1373 -2.3933
 1761TIP3    H226699   6.446   0.112  15.232  0.6981  0.0253  1.0096
 1762TIP3   OH226700   6.278   1.590  10.084  0.4492 -0.2031 -0.2170
 1762TIP3    H126701   6.217   1.540  10.139  0.3084 -0.1180 -0.2964
 1762TIP3    H226702   6.280   1.677  10.125  1.1096 -0.4293  0.2415
 1763TIP3   OH226703   3.703   0.872  10.275  0.1005  0.0697  0.5332
 1763TIP3    H126704   3.791   0.910  10.279 -0.2379  0.8725  0.6069
 1763TIP3    H226705   3.695   0.840  10.185  0.4313  0.1026  0.4915
 1764TIP3   OH226706   6.216   5.682  13.013 -0.3772 -0.4577 -0.4490
 1764TIP3    H126707   6.309   5.696  12.994 -0.3027 -0.0712  0.1808
 1764TIP3    H226708   6.215   5.649  13.102 -0.7633 -1.7597 -0.9083
 1765TIP3   OH226709   6.290   2.971   9.398  0.2400  0.5416  0.0944
 1765TIP3    H126710   6.308   3.021   9.319 -1.0867  0.5544 -0.2158
 1765TIP3    H226711   6.360   2.906   9.402  0.0370  0.2023 -1.3679
 1766TIP3   OH226712   5.677   1.792   0.596 -0.3377 -0.4131 -0.3234
 1766TIP3    H126713   5.752   1.846   0.621  1.1571 -2.2824 -0.4385
 1766TIP3    H226714   5.601   1.846   0.614  0.9909  1.1899  0.8386
 1767TIP3   OH226715   2.857   3.883  10.103 -0.0526 -0.3895 -0.6387
 1767TIP3    H126716   2.814   3.964  10.074  1.6309  1.1970  1.0682
 1767TIP3    H226717   2.836   3.820  10.035  0.0906  1.9595 -3.0178
 1768TIP3   OH226718   2.961   3.676   0.036  0.1361 -0.2694 -0.0767
 1768TIP3    H126719   2.982   3.614   0.106 -0.3241  0.7036  0.9613
 1768TIP3    H226720   2.991   3.761   0.070  1.5306 -0.0041 -1.8038
 1769TIP3   OH226721   6.668   4.525  15.281  0.2049 -0.2798 -1.1172
 1769TIP3    H126722   6.750   4.478  15.263  0.6077  0.5170 -1.4136
 1769TIP3    H226723   6.688   4.579  15.358 -1.1015 -2.6670  1.0527
 1770TIP3   OH226724   0.365   2.577   9.997 -0.7139  0.1914 -0.4034
 1770TIP3    H126725   0.397   2.557   9.909  0.5921 -0.8520  0.2882
 1770TIP3    H226726   0.271   2.560   9.991 -0.9219  1.5549 -1.9686
 1771TIP3   OH226727   5.225   6.271  15.064  0.1621  0.4212 -0.2372
 1771TIP3    H126728   5.221   6.190  15.114  1.2562  0.5259  0.0488
 1771TIP3    H226729   5.317   6.296  15.067 -0.0993  1.4753 -0.6415
 1772TIP3   OH226730   1.216   2.702  13.950  0.5534  0.3081 -0.3220
 1772TIP3    H126731   1.216   2.762  14.025  3.1483  0.9466 -0.7299
 1772TIP3    H226732   1.228   2.759  13.874 -1.8303 -0.3455 -1.2982
 1773TIP3   OH226733   0.941   0.336   3.194  0.2148  0.1492 -0.0876
 1773TIP3    H126734   0.938   0.241   3.208  0.6348  0.0821 -0.4477
 1773TIP3    H226735   0.987   0.347   3.111  1.8819  0.7466  0.8787
 1774TIP3   OH226736   4.520   6.125  12.006  0.1071  0.2529  0.9755
 1774TIP3    H126737   4.490   6.037  11.983  0.2019  0.0176  1.7161
 1774TIP3    H226738   4.457   6.183  11.964 -1.3035 -0.2214  2.3176
 1775TIP3   OH226739   1.324   0.267   0.470  0.1828  0.1481  0.4072
 1775TIP3    H126740   1.312   0.234   0.559  3.5175  1.0120  1.3146
 1775TIP3    H226741   1.285   0.354   0.471  0.1290  0.1199  0.9930
 1776TIP3   OH226742   0.545   4.344  10.058 -0.0118 -0.1090  0.2093
 1776TIP3    H126743   0.457   4.311  10.077 -0.2006 -1.3656 -2.3622
 1776TIP3    H226744   0.542   4.435  10.085 -2.3565  0.0674 -0.3553
 1777TIP3   OH226745   0.410   4.153  12.155  0.0797 -0.2709  0.4207
 1777TIP3    H126746   0.375   4.064  12.142  0.5036 -0.1858 -1.7220
 1777TIP3    H226747   0.360   4.207  12.094 -1.1922  1.3144  2.7219
 1778TIP3   OH226748   2.190   4.888  12.140  0.4845 -0.0125  0.2136
 1778TIP3    H126749   2.217   4.923  12.225  0.1694 -0.7783  0.6370
 1778TIP3    H226750   2.249   4.929  12.078  0.3248  1.0274  0.7283
 1779TIP3   OH226751   6.793   7.105  14.264  0.4057  0.2289  0.1038
 1779TIP3    H126752   6.882   7.095  14.230  0.5844  3.2391 -0.5252
 1779TIP3    H226753   6.754   7.174  14.210 -1.8263  0.0184  1.3334
 1780TIP3   OH226754   2.427   0.008  10.158  1.0669  0.3200 -0.7264
 1780TIP3    H126755   2.365   0.032  10.227  0.6063 -1.0388 -0.6352
 1780TIP3    H226756   2.509   0.050  10.184  1.2274 -1.0926  1.3516
 1781TIP3   OH226757   0.242   1.262  11.016 -0.1156  0.0734 -0.1762
 1781TIP3    H126758   0.276   1.198  10.953  1.4577 -0.8334  1.4771
 1781TIP3    H226759   0.319   1.312  11.042 -1.0351  1.5206 -0.1527
 1782TIP3   OH226760   2.514   3.642   9.796  0.4525 -0.7916  0.2282
 1782TIP3    H126761   2.516   3.619   9.703 -1.3732  0.6505 -0.2401
 1782TIP3    H226762   2.487   3.562   9.840 -2.4168 -0.6276 -0.9624
 1783TIP3   OH226763   1.537   6.663  12.681  0.2002  0.5024  0.5030
 1783TIP3    H126764   1.573   6.689  12.766  0.6733 -0.3182  0.5658
 1783TIP3    H226765   1.445   6.643  12.699 -0.0158  1.5090  0.5722
 1784TIP3   OH226766   1.079   0.010  15.190  0.1734 -0.5490  0.3215
 1784TIP3    H126767   1.084  -0.022  15.281  0.0097 -2.2689 -0.2296
 1784TIP3    H226768   1.008  -0.041  15.152 -0.5044  0.9704 -0.4844
 1785TIP3   OH226769   4.937   3.553  10.980 -0.0950 -0.0970  0.0963
 1785TIP3    H126770   4.901   3.641  10.970 -0.4354 -0.1020  1.0887
 1785TIP3    H226771   4.891   3.518  11.057 -1.3525 -1.8573 -1.3926
 1786TIP3   OH226772   2.736   6.480  11.184 -0.0724  0.0165  0.4729
 1786TIP3    H126773   2.696   6.456  11.268 -0.1438 -0.0442  0.4205
 1786TIP3    H226774   2.741   6.398  11.135  0.3817 -0.0319  0.5927
 1787TIP3   OH226775   3.734   6.588  10.604 -0.4123 -0.0110 -0.5650
 1787TIP3    H126776   3.752   6.659  10.541 -1.0747  0.9446  0.2783
 1787TIP3    H226777   3.669   6.533  10.559 -1.6728  1.2421 -0.3645
 1788TIP3   OH226778   1.136   1.485   0.217  0.4160  0.3170  0.1574
 1788TIP3    H126779   1.112   1.414   0.157 -0.9474  0.4972  0.4458
 1788TIP3    H226780   1.175   1.440   0.292  1.7504  0.0638 -0.6489
 1789TIP3   OH226781   5.171   4.717  10.440  0.0544 -0.4304  0.4891
 1789TIP3    H126782   5.101   4.714  10.375 -0.2801 -1.7827  0.8985
 1789TIP3    H226783   5.231   4.785  10.407 -0.2426 -0.8945 -1.0803
 1790TIP3   OH226784   0.400   0.728   1.338 -0.0871 -0.0785  0.4625
 1790TIP3    H126785   0.459   0.776   1.278  0.5240 -1.0629  0.2539
 1790TIP3    H226786   0.414   0.636   1.316 -0.5250 -0.4051  1.5247
 1791TIP3   OH226787   6.976   0.134   9.637 -0.7678 -0.5025 -0.3548
 1791TIP3    H126788   7.045   0.182   9.683 -0.4440  0.4370 -1.7430
 1791TIP3    H226789   6.897   0.188   9.650 -0.2467  0.9427 -2.5632
 1792TIP3   OH226790   3.372   0.042  11.992 -0.0381  0.1472 -0.7059
 1792TIP3    H126791   3.405   0.111  11.934  2.3649  0.2811  0.7139
 1792TIP3    H226792   3.366   0.084  12.078  0.4855 -1.1243 -0.0217
 1793TIP3   OH226793   0.132   5.863  14.978 -0.1287 -0.1417 -0.3985
 1793TIP3    H126794   0.119   5.929  15.046  0.0488 -1.3677  0.8498
 1793TIP3    H226795   0.084   5.787  15.008  1.8926 -1.5112 -0.4383
 1794TIP3   OH226796   1.493   1.710   2.686  0.8374  0.0945 -0.2388
 1794TIP3    H126797   1.435   1.718   2.610  0.3239  3.4746  0.3102
 1794TIP3    H226798   1.436   1.679   2.756 -0.3218  2.7002  0.1135
 1795TIP3   OH226799   3.612   1.937  10.148  0.6331 -0.1482 -0.5524
 1795TIP3    H126800   3.518   1.928  10.163  0.3993  0.0531 -1.8087
 1795TIP3    H226801   3.645   1.979  10.228 -0.0579 -1.6799  0.5975
 1796TIP3   OH226802   2.617   6.925  13.900  0.2825  0.3648  0.0716
 1796TIP3    H126803   2.609   7.018  13.881 -0.0675  0.5542  1.0892
 1796TIP3    H226804   2.690   6.919  13.962 -0.9385  0.2122  1.5522
 1797TIP3   OH226805   1.522   2.258  10.733  0.3290  0.1078 -0.2063
 1797TIP3    H126806   1.589   2.240  10.799 -1.1184 -0.4458  1.1892
 1797TIP3    H226807   1.553   2.336  10.688  2.5446 -0.8762 -0.5332
 1798TIP3   OH226808   5.850   1.029  11.275 -0.1839 -0.9243 -0.1871
 1798TIP3    H126809   5.834   1.113  11.317 -1.0989 -1.1391 -0.0795
 1798TIP3    H226810   5.833   1.045  11.182 -0.4264 -0.9949 -0.1574
 1799TIP3   OH226811   0.901   5.155  11.366  0.1552  0.4174 -0.0444
 1799TIP3    H126812   0.982   5.111  11.392 -0.1239 -1.5276 -2.1313
 1799TIP3    H226813   0.927   5.247  11.354  1.3378  0.4332  2.0888
 1800TIP3   OH226814   3.514   3.107  11.523 -1.0830  0.4200 -0.3528
 1800TIP3    H126815   3.557   3.099  11.438  0.1281  1.8817  0.0730
 1800TIP3    H226816   3.448   3.175  11.509 -0.6039  0.9582 -0.0440
 1801TIP3   OH226817   3.153   3.052  10.583 -0.2327 -0.1587  0.7579
 1801TIP3    H126818   3.068   3.061  10.540 -1.0031 -0.2143  2.2198
 1801TIP3    H226819   3.192   3.139  10.578 -0.5140 -0.0510  0.3866
 1802TIP3   OH226820   4.028   2.846  11.582 -0.1785  0.3018 -0.2716
 1802TIP3    H126821   4.003   2.900  11.506  1.3154  1.9808  0.3608
 1802TIP3    H226822   3.957   2.859  11.645 -0.1359  1.0752 -0.3668
 1803TIP3   OH226823   2.223   4.561  11.917 -0.5837 -0.0409  0.8828
 1803TIP3    H126824   2.139   4.542  11.959 -1.1376  0.0160 -0.1631
 1803TIP3    H226825   2.234   4.492  11.852 -1.3861  1.6916 -1.2051
 1804TIP3   OH226826   3.920   3.616  10.868  0.0475 -0.1661 -0.2032
 1804TIP3    H126827   3.891   3.701  10.835 -0.3725  0.1975  1.0519
 1804TIP3    H226828   4.015   3.626  10.880  0.0922 -0.0775 -0.5929
 1805TIP3   OH226829   2.744   4.668  11.030  0.6780  0.3545  0.0252
 1805TIP3    H126830   2.722   4.738  10.968  0.9024 -1.0047 -1.6426
 1805TIP3    H226831   2.670   4.607  11.024  1.4008 -0.5335 -0.0274
 1806TIP3   OH226832   1.929   1.155  15.120 -0.9710  0.4423 -0.0521
 1806TIP3    H126833   1.860   1.122  15.063 -0.6431 -1.3514  0.5209
 1806TIP3    H226834   2.007   1.158  15.064 -0.8234 -0.5884  0.0658
 1807TIP3   OH226835   6.124   4.492  11.572  0.5765 -0.0786 -0.2986
 1807TIP3    H126836   6.218   4.503  11.565  0.5583  1.1544  0.8961
 1807TIP3    H226837   6.087   4.577  11.547 -0.0250  0.3877  1.9158
 1808TIP3   OH226838   0.987   3.746  11.056  0.4520 -0.6973 -0.0527
 1808TIP3    H126839   0.901   3.776  11.084  0.7075 -1.3097  1.5138
 1808TIP3    H226840   1.042   3.757  11.134  2.3224  1.5946 -1.5513
 1809TIP3   OH226841   6.848   6.744   9.853 -0.0271 -0.2278 -0.4235
 1809TIP3    H126842   6.768   6.714   9.896  0.1077  1.2197  0.9252
 1809TIP3    H226843   6.874   6.670   9.797 -1.4083 -1.3467  0.3325
 1810TIP3   OH226844   1.760   4.053   1.741 -0.1800 -0.2256 -0.6775
 1810TIP3    H126845   1.713   4.012   1.668  1.1715 -0.1991 -1.5986
 1810TIP3    H226846   1.779   4.142   1.711 -2.0421  0.7427  0.8418
 1811TIP3   OH226847   1.602   0.615  13.480 -0.4262  0.4110 -0.5339
 1811TIP3    H126848   1.518   0.656  13.459  0.3631  1.6687 -1.3893
 1811TIP3    H226849   1.642   0.673  13.545 -0.3106 -0.3139  0.0604
 1812TIP3   OH226850   5.689   5.581  13.644  0.5846 -0.7625  0.9207
 1812TIP3    H126851   5.754   5.633  13.595  0.2528  0.4862  1.7467
 1812TIP3    H226852   5.687   5.497  13.599 -0.1684  0.5101 -1.6306
 1813TIP3   OH226853   2.293   5.839  14.596  0.4516 -0.1958  0.1479
 1813TIP3    H126854   2.352   5.858  14.523  1.0408 -1.6391  0.2045
 1813TIP3    H226855   2.327   5.758  14.633 -0.3990  0.0123  1.4483
 1814TIP3   OH226856   2.132   0.123  14.104 -0.2063 -0.3147 -0.3237
 1814TIP3    H126857   2.069   0.094  14.039 -0.2750 -2.0383  0.4479
 1814TIP3    H226858   2.206   0.064  14.094  0.6591  0.7224 -0.2041
 1815TIP3   OH226859   2.226   6.179  12.944 -0.6940  0.3355 -0.0747
 1815TIP3    H126860   2.193   6.090  12.936  2.3421 -0.8677 -0.7415
 1815TIP3    H226861   2.238   6.193  13.038  0.4678 -0.6955 -0.0468
 1816TIP3   OH226862   5.709   4.699   9.791  0.6170 -0.8584  0.1557
 1816TIP3    H126863   5.626   4.727   9.831  1.7960  0.8481  1.5587
 1816TIP3    H226864   5.736   4.624   9.843  0.7281 -0.4144  0.7528
 1817TIP3   OH226865   6.110   2.259   9.343  0.3131 -0.2108  0.3464
 1817TIP3    H126866   6.069   2.280   9.428 -0.7530  0.5009 -0.3116
 1817TIP3    H226867   6.192   2.216   9.366 -1.0625 -2.2674  1.7497
 1818TIP3   OH226868   0.952   1.076  10.266  0.2070 -0.1613 -0.2077
 1818TIP3    H126869   1.012   1.049  10.196  2.0828  0.1850  1.1887
 1818TIP3    H226870   0.978   1.023  10.341 -0.3612  0.9641  0.8153
 1819TIP3   OH226871   1.867   6.904  11.525 -0.1321 -0.4260  0.6072
 1819TIP3    H126872   1.887   6.817  11.562  1.4043 -0.2824  0.2008
 1819TIP3    H226873   1.845   6.958  11.601 -2.3107 -1.4369  0.7569
 1820TIP3   OH226874   1.986   5.918  10.342  0.0801 -0.4306 -0.5391
 1820TIP3    H126875   1.933   5.868  10.404  1.5914 -2.8576 -1.0819
 1820TIP3    H226876   1.931   5.928  10.265 -0.1093 -1.6707 -0.5753
 1821TIP3   OH226877   6.004   4.269   0.675  0.6592 -0.1074  0.1466
 1821TIP3    H126878   6.072   4.203   0.688  0.4870 -0.3322 -0.0933
 1821TIP3    H226879   5.986   4.302   0.763  2.0700  0.9553  0.0726
 1822TIP3   OH226880   5.749   5.856   8.912  0.5003  0.3428 -0.3354
 1822TIP3    H126881   5.830   5.896   8.945  1.4383  0.7400 -2.8888
 1822TIP3    H226882   5.679   5.908   8.950  1.5039  1.0451  0.6043
 1823TIP3   OH226883   5.522   6.563  10.678 -0.0618  0.3154  0.1925
 1823TIP3    H126884   5.518   6.468  10.692  0.3914  0.1910 -0.4902
 1823TIP3    H226885   5.490   6.576  10.589  1.0270  0.6820 -0.1575
 1824TIP3   OH226886   2.019   2.908   1.708  0.7104  0.0972 -0.0608
 1824TIP3    H126887   1.932   2.899   1.668  0.3581  0.8307  0.5103
 1824TIP3    H226888   2.073   2.948   1.640  0.5034  0.0003 -0.2846
 1825TIP3   OH226889   3.830   4.885  13.478 -0.0654  0.2997 -0.0361
 1825TIP3    H126890   3.747   4.880  13.526  0.5105 -0.1913  0.9381
 1825TIP3    H226891   3.807   4.860  13.388 -1.1487  1.1462 -0.0159
 1826TIP3   OH226892   3.272   4.968   9.241 -0.2436 -0.0177  0.3837
 1826TIP3    H126893   3.204   5.024   9.279 -0.6137 -1.6570  2.3188
 1826TIP3    H226894   3.352   4.990   9.291 -0.1099 -0.3368  0.3126
 1827TIP3   OH226895   5.296   2.084  12.348  0.2643  0.2811 -0.2774
 1827TIP3    H126896   5.348   2.008  12.375 -0.1904  0.4670  1.2475
 1827TIP3    H226897   5.251   2.111  12.428  0.0187  1.8460 -0.9094
 1828TIP3   OH226898   5.461   4.988   9.516  0.3214 -0.1159 -0.1234
 1828TIP3    H126899   5.472   4.985   9.421 -0.2293  1.1203 -0.2537
 1828TIP3    H226900   5.498   5.073   9.542  1.6323 -0.9622  0.9587
 1829TIP3   OH226901   0.564   5.677   9.709  0.3787 -0.1046 -0.0611
 1829TIP3    H126902   0.637   5.715   9.661  0.7038 -2.3848 -1.5020
 1829TIP3    H226903   0.501   5.653   9.641 -0.0031 -1.6445  0.7892
 1830TIP3   OH226904   3.995   6.169  10.778 -0.1014 -0.0840 -0.3937
 1830TIP3    H126905   3.973   6.099  10.717  1.6317  0.2641 -1.4929
 1830TIP3    H226906   3.986   6.130  10.865 -2.9592 -0.4852 -0.7907
 1831TIP3   OH226907   3.751   4.940  12.356  0.3035 -0.1231 -0.2376
 1831TIP3    H126908   3.763   4.991  12.436  0.6147 -1.2491  0.4591
 1831TIP3    H226909   3.783   4.997  12.286 -0.0284  0.9014  0.4257
 1832TIP3   OH226910   3.832   0.806  11.934  0.0802  0.1478 -0.4427
 1832TIP3    H126911   3.871   0.819  11.848  1.5546 -0.6470  0.0711
 1832TIP3    H226912   3.890   0.852  11.995 -1.0320  0.8453  0.1342
 1833TIP3   OH226913   0.395   3.358  14.482 -0.2214 -0.1116  0.9987
 1833TIP3    H126914   0.299   3.360  14.482 -0.3029 -0.6349 -1.6274
 1833TIP3    H226915   0.421   3.435  14.532 -2.0199  0.7916  0.6117
 1834TIP3   OH226916   2.854   5.287  10.915  0.5962 -0.1653 -0.3144
 1834TIP3    H126917   2.865   5.234  10.994 -0.2369  1.4539  0.9486
 1834TIP3    H226918   2.759   5.299  10.908  0.3220 -2.5384 -3.1947
 1835TIP3   OH226919   6.646   4.324  11.038  1.0357 -0.0092  0.1243
 1835TIP3    H126920   6.608   4.374  11.109 -1.3966 -3.1566  1.2662
 1835TIP3    H226921   6.616   4.368  10.958 -1.8581 -0.1339  1.0548
 1836TIP3   OH226922   3.708   7.104  10.006  0.1921  0.3563  0.5096
 1836TIP3    H126923   3.626   7.145   9.977 -0.8906 -1.4043  0.9070
 1836TIP3    H226924   3.694   7.087  10.099  0.2475 -1.5907  0.2083
 1837TIP3   OH226925   3.293   0.924  10.784 -0.6987 -0.9518 -0.7033
 1837TIP3    H126926   3.251   0.843  10.812 -1.4462 -1.2844 -2.6468
 1837TIP3    H226927   3.234   0.993  10.814 -1.1836 -1.2573 -0.9483
 1838TIP3   OH226928   1.425   0.368  11.169 -0.0787  0.2406  0.5889
 1838TIP3    H126929   1.354   0.393  11.110  0.8606 -0.5541 -0.9722
 1838TIP3    H226930   1.389   0.297  11.222 -0.7368  0.4685  0.4527
 1839TIP3   OH226931   1.495   3.375  13.795 -0.0022 -0.5476 -0.4910
 1839TIP3    H126932   1.489   3.437  13.867 -1.6838 -1.0264 -0.1869
 1839TIP3    H226933   1.582   3.336  13.805  0.8979  1.3448 -0.3872
 1840TIP3   OH226934   1.404   0.102  10.982  0.3037  0.5063 -0.2899
 1840TIP3    H126935   1.453   0.168  10.934  1.1465  0.5702  0.6350
 1840TIP3    H226936   1.443   0.018  10.957 -0.3371  0.3954 -0.9606
 1841TIP3   OH226937   3.435   2.906  13.446 -0.4705  0.1127 -0.2593
 1841TIP3    H126938   3.362   2.937  13.499 -1.1261  0.6474 -1.4305
 1841TIP3    H226939   3.395   2.848  13.381  0.3198 -0.5909 -0.1399
 1842TIP3   OH226940   0.839   5.437  11.256  0.0742 -0.3108  0.2416
 1842TIP3    H126941   0.887   5.445  11.173 -0.6868  2.2647 -0.0249
 1842TIP3    H226942   0.752   5.406  11.230 -0.1031  0.3101  0.0637
 1843TIP3   OH226943   0.530   5.080   9.812 -0.4426  0.5914 -0.1013
 1843TIP3    H126944   0.496   4.992   9.796  0.5310  0.1412  0.1935
 1843TIP3    H226945   0.581   5.101   9.734 -2.6829  1.9539 -1.2907
 1844TIP3   OH226946   1.060   4.975  14.047 -0.4209 -0.1229 -0.3786
 1844TIP3    H126947   1.153   4.970  14.066 -0.3761  0.3327 -0.4610
 1844TIP3    H226948   1.022   4.899  14.091 -0.0653 -0.0878 -0.0046
 1845TIP3   OH226949   4.825   2.553  11.074 -0.6556  0.3516  0.4027
 1845TIP3    H126950   4.873   2.519  11.149 -2.4582 -2.2125  0.5309
 1845TIP3    H226951   4.816   2.478  11.015 -0.7316  1.8648 -1.6253
 1846TIP3   OH226952   2.759   6.035  10.403 -0.2401  0.5761 -0.2617
 1846TIP3    H126953   2.728   5.952  10.365  1.2816 -0.6791  1.1042
 1846TIP3    H226954   2.763   6.095  10.329  1.3369 -1.3817 -1.8802
 1847TIP3   OH226955   6.422   5.106  14.284  0.2674  0.2931 -0.2851
 1847TIP3    H126956   6.414   5.199  14.302  1.6960  0.1935  1.1348
 1847TIP3    H226957   6.500   5.079  14.333 -0.3995 -1.7438 -0.2457
 1848TIP3   OH226958   5.330   4.822   9.722  0.1628  0.0895  0.8185
 1848TIP3    H126959   5.342   4.743   9.670 -0.9855  0.2995  0.1973
 1848TIP3    H226960   5.368   4.892   9.669 -2.9573  0.6722 -0.9065
 1849TIP3   OH226961   2.058   1.684  13.303  0.8968  0.1400 -0.3944
 1849TIP3    H126962   2.140   1.732  13.298 -0.0712  1.7795 -1.3266
 1849TIP3    H226963   2.040   1.657  13.213 -0.8108  2.0649 -0.7200
 1850TIP3   OH226964   6.579   5.730  13.412 -0.8067  0.2820 -0.2864
 1850TIP3    H126965   6.512   5.666  13.388 -2.3604  1.7569 -0.1121
 1850TIP3    H226966   6.600   5.711  13.503 -1.0383 -0.1697 -0.3277
 1851TIP3   OH226967   5.091   7.057  10.895 -0.0614 -0.6914  0.0833
 1851TIP3    H126968   5.171   7.005  10.904 -0.5805 -1.8647 -1.5635
 1851TIP3    H226969   5.052   7.057  10.983 -0.7010 -4.2730 -0.0448
 1852TIP3   OH226970   6.643   1.684   9.116 -0.3210  0.3416  0.6098
 1852TIP3    H126971   6.559   1.646   9.142 -0.2131  0.5167  1.2304
 1852TIP3    H226972   6.662   1.749   9.184 -0.0214  0.8005  0.0963
 1853TIP3   OH226973   6.841   5.818  14.426  0.0341  0.1787 -0.3221
 1853TIP3    H126974   6.873   5.733  14.455 -2.4004 -0.7394 -0.0928
 1853TIP3    H226975   6.861   5.820  14.332  0.0286 -0.7082 -0.3524
 1854TIP3   OH226976   6.285   5.422  12.184 -0.5963 -0.0976  0.5828
 1854TIP3    H126977   6.191   5.430  12.195 -0.8624  1.0324 -1.8857
 1854TIP3    H226978   6.322   5.492  12.238 -1.2324  0.0737  0.7993
 1855TIP3   OH226979   2.163   2.218  12.199  0.2918  0.0666  0.0750
 1855TIP3    H126980   2.189   2.146  12.257 -1.1462  0.2435  0.9971
 1855TIP3    H226981   2.098   2.179  12.141 -0.6595  0.6499  0.7247
 1856TIP3   OH226982   6.093   2.161  10.049  0.0791 -0.3476 -0.0532
 1856TIP3    H126983   6.115   2.253  10.040  0.7699 -0.5467 -0.5025
 1856TIP3    H226984   6.169   2.114  10.015 -0.0095 -1.0930  0.7154
 1857TIP3   OH226985   5.842   4.517  15.104 -0.3605 -0.0637  0.4536
 1857TIP3    H126986   5.797   4.593  15.142 -0.8321  0.3597 -0.8937
 1857TIP3    H226987   5.861   4.544  15.014 -0.8318 -1.6791 -0.1478
 1858TIP3   OH226988   3.758   4.297  13.018  0.2513 -0.3626 -0.0353
 1858TIP3    H126989   3.827   4.232  13.010  0.9297  0.3647 -0.2426
 1858TIP3    H226990   3.769   4.333  13.106  0.2658 -0.1097 -0.1392
 1859TIP3   OH226991   0.914   2.594  10.769 -0.6883 -0.6934  1.0413
 1859TIP3    H126992   0.949   2.624  10.685  2.7371  0.3713  2.6680
 1859TIP3    H226993   0.910   2.673  10.823 -2.3431 -1.4324  2.0763
 1860TIP3   OH226994   6.094   0.085  10.620 -0.0633 -0.3153 -0.0967
 1860TIP3    H126995   6.190   0.090  10.621 -0.0362 -0.7874 -0.2942
 1860TIP3    H226996   6.069   0.088  10.712  0.0942  0.6331 -0.0728
 1861TIP3   OH226997   6.138   5.147  10.376  0.4041  0.0836  0.0848
 1861TIP3    H126998   6.173   5.222  10.425 -0.2489 -0.2530  1.0993
 1861TIP3    H226999   6.216   5.102  10.343  0.7995  1.5877 -1.1774
 1862TIP3   OH227000   5.835   1.099  12.265  0.1957  0.1791 -0.4189
 1862TIP3    H127001   5.773   1.071  12.332  2.1510 -1.9430  0.6423
 1862TIP3    H227002   5.782   1.148  12.202 -1.9771  0.9938  1.8942
 1863TIP3   OH227003   2.132   5.073  11.822  0.6312 -0.3584 -0.1101
 1863TIP3    H127004   2.153   4.981  11.806  3.1694  0.0126  0.5986
 1863TIP3    H227005   2.190   5.121  11.763  0.2066  0.8040  0.3837
 1864TIP3   OH227006   4.368   4.277  12.992  0.1667  0.0660  0.0392
 1864TIP3    H127007   4.369   4.287  13.087 -0.1353 -1.9134  0.2950
 1864TIP3    H227008   4.292   4.327  12.963  0.2202  0.6268  0.8362
 1865TIP3   OH227009   2.017   6.034  12.635  0.0898  0.4986  0.9991
 1865TIP3    H127010   2.087   6.097  12.654  2.5377 -1.7178 -0.0139
 1865TIP3    H227011   2.027   5.966  12.701 -0.4781 -0.3242  0.2624
 1866TIP3   OH227012   5.456   1.956  11.131  0.1425 -0.0404 -0.6339
 1866TIP3    H127013   5.459   2.051  11.130 -0.4356 -0.0198 -0.7693
 1866TIP3    H227014   5.536   1.930  11.177 -1.3546  0.6121  2.6425
 1867TIP3   OH227015   0.489   3.704  14.962 -0.0896  0.3235 -0.0647
 1867TIP3    H127016   0.485   3.633  14.897  0.4057 -1.8802  2.1436
 1867TIP3    H227017   0.571   3.749  14.942  0.6725 -1.0762 -0.2819
 1868TIP3   OH227018   4.563   5.193   1.701 -0.5948 -0.2466 -0.1484
 1868TIP3    H127019   4.560   5.197   1.606 -0.4663  1.1098 -0.1125
 1868TIP3    H227020   4.553   5.284   1.730 -0.7253 -0.6407  1.1352
 1869TIP3   OH227021   2.423   1.629  12.453 -0.2110  0.3349  0.3416
 1869TIP3    H127022   2.334   1.658  12.433  0.2555  0.8057 -1.2401
 1869TIP3    H227023   2.433   1.644  12.547 -0.7065  3.4906  0.0048
 1870TIP3   OH227024   1.758   5.621  10.180 -0.2434  0.4017  0.1572
 1870TIP3    H127025   1.764   5.698  10.237 -0.4210 -0.2215  1.0348
 1870TIP3    H227026   1.841   5.575  10.192 -1.0926 -0.8572  1.5893
 1871TIP3   OH227027   0.215   1.483  10.166  0.1571  0.3167  0.5944
 1871TIP3    H127028   0.214   1.461  10.259 -0.1876 -0.3685  0.4316
 1871TIP3    H227029   0.271   1.560  10.161  0.7092 -0.0231  1.2872
 1872TIP3   OH227030   5.255   1.321  10.451  0.1542  0.3048  0.3454
 1872TIP3    H127031   5.228   1.247  10.397 -1.4987  0.1094  1.3848
 1872TIP3    H227032   5.245   1.397  10.394 -2.3057  0.1899  0.5482
 1873TIP3   OH227033   2.589   4.266  11.958  0.2546  0.3467  0.1611
 1873TIP3    H127034   2.518   4.263  12.022  0.3033  0.3503  0.2149
 1873TIP3    H227035   2.619   4.356  11.959  0.1031  0.4015 -0.0340
 1874TIP3   OH227036   5.821   3.805   9.446  0.2876  0.3326  0.6992
 1874TIP3    H127037   5.879   3.796   9.521  1.6111  0.0992 -0.3021
 1874TIP3    H227038   5.788   3.894   9.451  0.1670  0.2425  1.6798
 1875TIP3   OH227039   0.784   0.754  12.248  0.8398 -0.5081 -0.2323
 1875TIP3    H127040   0.745   0.672  12.279  1.3506 -0.6962 -0.0814
 1875TIP3    H227041   0.735   0.822  12.293 -0.6549 -0.6628 -1.5375
 1876TIP3   OH227042   4.814   6.804  10.170  0.7772 -0.1555 -0.4688
 1876TIP3    H127043   4.888   6.852  10.133  0.9341 -1.4990 -1.9905
 1876TIP3    H227044   4.747   6.807  10.102  0.4798 -1.3221 -0.2571
 1877TIP3   OH227045   0.725   3.924  13.996 -0.2456  0.0514  0.1642
 1877TIP3    H127046   0.653   3.902  13.936 -0.9163  0.2749  0.8681
 1877TIP3    H227047   0.763   4.004  13.959  0.0555 -0.4224 -0.5645
 1878TIP3   OH227048   6.711   4.476  12.696 -0.4621 -0.3795 -0.2510
 1878TIP3    H127049   6.695   4.381  12.693 -0.0763 -0.4306 -1.1048
 1878TIP3    H227050   6.755   4.490  12.780  1.7825 -1.3765 -1.1647
 1879TIP3   OH227051   4.470   3.717  13.133  0.0445 -0.5942  0.1516
 1879TIP3    H127052   4.452   3.752  13.220 -2.8006 -1.2660 -0.0574
 1879TIP3    H227053   4.387   3.676  13.106  0.9554 -0.7957 -2.6940
 1880TIP3   OH227054   4.015   3.069  12.058 -0.1217 -0.1930 -0.0241
 1880TIP3    H127055   3.965   3.101  11.983  0.0022  1.3213  0.4955
 1880TIP3    H227056   4.013   3.142  12.120  1.9054 -0.4523  0.4104
 1881TIP3   OH227057   6.947   2.823   9.893 -0.4780 -0.2590  0.0980
 1881TIP3    H127058   6.883   2.780   9.949 -0.3866 -0.1884  0.2555
 1881TIP3    H227059   6.974   2.755   9.832  0.0212 -0.5620  0.6497
 1882TIP3   OH227060   7.023   5.484   9.681 -0.2289  0.4504  0.4322
 1882TIP3    H127061   7.004   5.448   9.767  0.1102 -0.2533  0.2211
 1882TIP3    H227062   6.959   5.554   9.669 -1.4578 -0.6257  0.5169
 1883TIP3   OH227063   1.769   0.042  10.370 -0.3693  0.0205  1.0507
 1883TIP3    H127064   1.856   0.011  10.397 -0.6773 -1.5753  0.3247
 1883TIP3    H227065   1.787   0.119  10.317  0.7143 -0.8355  0.1070
 1884TIP3   OH227066   7.200   1.436   1.521  0.4104 -0.1645 -0.3008
 1884TIP3    H127067   7.175   1.479   1.603  0.8979 -0.4095 -0.0178
 1884TIP3    H227068   7.169   1.495   1.452  0.5220  0.3329  0.0716
 1885TIP3   OH227069   0.990   2.001   0.468  0.1612 -0.1996 -0.3592
 1885TIP3    H127070   0.928   2.024   0.537  2.2331  0.3477  1.4282
 1885TIP3    H227071   1.012   1.909   0.485  0.0348 -0.3169 -0.8241
 1886TIP3   OH227072   1.711   0.407  12.277  0.3529 -0.2280 -0.4953
 1886TIP3    H127073   1.618   0.410  12.300  0.2353 -0.6561 -0.9141
 1886TIP3    H227074   1.756   0.398  12.362  0.0356  0.3131 -0.2636
 1887TIP3   OH227075   2.843   6.229  10.206 -0.4811 -0.6600 -0.4088
 1887TIP3    H127076   2.776   6.291  10.235  1.0507  1.3709 -0.9118
 1887TIP3    H227077   2.844   6.238  10.110  2.2965  1.5116 -0.3020
 1888TIP3   OH227078   6.972   2.737  10.504 -0.1686  0.0615  0.0480
 1888TIP3    H127079   7.052   2.690  10.526 -0.9937 -1.7864 -0.7600
 1888TIP3    H227080   7.002   2.811  10.451  0.8780 -1.6360 -1.8510
 1889TIP3   OH227081   1.402   3.334  14.109  0.6842  0.0692  0.6166
 1889TIP3    H127082   1.364   3.326  14.022 -2.3525 -0.0570  1.8398
 1889TIP3    H227083   1.471   3.399  14.100 -2.1163  3.0508 -1.1808
 1890TIP3   OH227084   5.811   1.713  14.669 -0.6756 -0.0930 -0.3982
 1890TIP3    H127085   5.863   1.755  14.601  0.1933 -0.5119 -0.0068
 1890TIP3    H227086   5.870   1.651  14.710 -2.0321 -2.0086 -1.2125
 1891TIP3   OH227087   5.973   4.205  11.295  0.0921 -0.6735 -0.3009
 1891TIP3    H127088   5.978   4.250  11.211 -0.6881 -2.4785 -1.3688
 1891TIP3    H227089   5.880   4.188  11.308  0.2066 -0.5013  0.9141
 1892TIP3   OH227090   5.572   3.253  10.573 -0.2160  0.4339 -0.2529
 1892TIP3    H127091   5.485   3.239  10.611  0.6107 -2.5615  0.7971
 1892TIP3    H227092   5.632   3.249  10.648  0.9853  0.9572 -1.1457
 1893TIP3   OH227093   3.951   1.751  14.213  0.0944 -0.2468  0.5670
 1893TIP3    H127094   3.896   1.675  14.230 -0.8939  0.3051 -0.0619
 1893TIP3    H227095   3.923   1.816  14.278 -2.1306  1.0722 -1.4996
 1894TIP3   OH227096   1.659   6.296   9.627 -0.3457  0.3242 -0.1667
 1894TIP3    H127097   1.600   6.336   9.563  0.8075  1.6073 -0.4941
 1894TIP3    H227098   1.649   6.202   9.615 -1.7679  0.5219 -0.6983
 1895TIP3   OH227099   0.570   3.933  13.766  0.2848  0.2476  0.4980
 1895TIP3    H127100   0.608   4.015  13.734  0.0299 -0.1080 -0.7843
 1895TIP3    H227101   0.475   3.950  13.768  0.3363  0.4383  1.6090
 1896TIP3   OH227102   7.094   1.592  10.708  0.0565 -0.4971  0.1136
 1896TIP3    H127103   7.071   1.514  10.759 -1.1090  0.0479  0.4441
 1896TIP3    H227104   7.190   1.598  10.716 -0.0702 -0.5006  2.1518
 1897TIP3   OH227105   5.425   1.288  10.700  0.8798  0.0312 -0.6848
 1897TIP3    H127106   5.462   1.204  10.671  1.5071  0.0540  0.0351
 1897TIP3    H227107   5.367   1.314  10.628 -3.7332 -3.6199  1.1405
 1898TIP3   OH227108   6.675   1.312   9.887  0.1352 -0.1084 -0.1642
 1898TIP3    H127109   6.631   1.270   9.813  1.0510 -2.4326  0.5290
 1898TIP3    H227110   6.615   1.381   9.915 -0.7416  0.0666 -2.3331
 1899TIP3   OH227111   1.798   6.573  10.233  0.1276 -0.3408  0.1015
 1899TIP3    H127112   1.874   6.610  10.188 -0.5081  0.7469 -0.1229
 1899TIP3    H227113   1.749   6.528  10.164  0.4219 -0.8185  0.1982
 1900TIP3   OH227114   0.477   5.695  11.904  0.0792  0.0675 -0.2191
 1900TIP3    H127115   0.469   5.640  11.826  0.5190 -0.2778 -0.0267
 1900TIP3    H227116   0.406   5.759  11.896  1.0060  0.9581 -1.6463
 1901TIP3   OH227117   1.558   6.070  15.277 -0.1017 -0.7436 -0.6343
 1901TIP3    H127118   1.466   6.069  15.252 -0.4179 -0.1109  0.4268
 1901TIP3    H227119   1.580   5.977  15.291  0.0389 -1.1152 -2.8866
 1902TIP3   OH227120   6.167   6.602   1.174  0.0343 -0.5086  0.2607
 1902TIP3    H127121   6.155   6.658   1.097 -0.0704 -0.4447  0.3223
 1902TIP3    H227122   6.199   6.519   1.139  0.1412 -0.4274  0.1631
 1903TIP3   OH227123   6.726   2.757  10.022  0.0371  0.3115  0.1184
 1903TIP3    H127124   6.722   2.852  10.027  2.4331  0.4283  1.0349
 1903TIP3    H227125   6.684   2.735   9.939  0.5195  2.2601 -0.6798
 1904TIP3   OH227126   2.925   3.813  11.703  0.6559  0.3196 -0.2726
 1904TIP3    H127127   2.892   3.725  11.687  1.4804 -0.0269 -0.1016
 1904TIP3    H227128   2.870   3.869  11.648 -0.3466 -0.2098  0.1638
 1905TIP3   OH227129   5.292   5.181  11.957 -0.0971 -0.0559  0.2877
 1905TIP3    H127130   5.364   5.243  11.971  1.6917 -1.2808 -2.5862
 1905TIP3    H227131   5.219   5.236  11.927  0.9024  0.8652 -0.5390
 1906TIP3   OH227132   1.630   1.490  10.789  0.1598 -0.3283  0.0970
 1906TIP3    H127133   1.611   1.569  10.738 -0.0319 -0.8069 -0.5868
 1906TIP3    H227134   1.644   1.522  10.878 -0.1360  0.4516 -0.1264
 1907TIP3   OH227135   1.037   6.721   9.191 -0.6507  0.1409 -0.2743
 1907TIP3    H127136   1.051   6.665   9.267  0.3489  1.5678  0.6600
 1907TIP3    H227137   1.108   6.699   9.131  0.5182  1.2152  0.6429
 1908TIP3   OH227138   6.685   4.200  10.151 -0.2750 -0.4593 -0.2174
 1908TIP3    H127139   6.690   4.105  10.147 -1.5090 -0.4999 -1.5836
 1908TIP3    H227140   6.756   4.231  10.095  1.2000 -0.4959  1.5310
 1909TIP3   OH227141   0.976   1.990  14.203  0.1220  0.3508  0.4651
 1909TIP3    H127142   0.904   2.011  14.263 -0.3673  0.8784 -0.2885
 1909TIP3    H227143   1.028   1.925  14.250 -1.0311 -0.2868  0.8882
 1910TIP3   OH227144   6.208   3.384  12.443 -0.6984  0.0241  0.3138
 1910TIP3    H127145   6.301   3.366  12.431 -0.9503 -2.0766  1.1165
 1910TIP3    H227146   6.164   3.309  12.404 -1.8868 -1.1325  3.5701
 1911TIP3   OH227147   4.932   6.244  13.617 -0.2006  0.3312 -0.0952
 1911TIP3    H127148   5.005   6.236  13.557 -1.0316  1.3618 -1.2757
 1911TIP3    H227149   4.867   6.181  13.585 -1.0667  1.6224 -0.9327
 1912TIP3   OH227150   3.150   1.823  10.368 -0.2229 -0.1860 -0.2615
 1912TIP3    H127151   3.147   1.755  10.436  2.0917  1.3352  1.5107
 1912TIP3    H227152   3.079   1.883  10.391  0.8798  0.6129  1.2463
 1913TIP3   OH227153   6.706   2.973  10.277  0.1052  0.6708 -0.1543
 1913TIP3    H127154   6.686   3.015  10.193 -1.5224 -0.3504 -0.3231
 1913TIP3    H227155   6.755   2.895  10.254 -2.5286 -1.0285 -0.4873
 1914TIP3   OH227156   7.173   6.002   0.938  0.0477 -0.1631  0.0558
 1914TIP3    H127157   7.108   6.071   0.953 -0.9555 -1.6551  4.0256
 1914TIP3    H227158   7.257   6.043   0.962 -0.0052  0.6063 -1.0216
 1915TIP3   OH227159   1.119   6.227  13.132 -0.0440 -0.3574  0.1584
 1915TIP3    H127160   1.112   6.145  13.180 -2.6581 -0.1703  0.2682
 1915TIP3    H227161   1.029   6.262  13.131  0.8068  2.0360 -0.6890
 1916TIP3   OH227162   4.445   6.120  12.715  0.5590  0.4375 -0.1389
 1916TIP3    H127163   4.449   6.195  12.657  1.1588  0.5532  0.0539
 1916TIP3    H227164   4.402   6.154  12.794 -3.9419 -0.5814 -1.8331
 1917TIP3   OH227165   6.234   6.083  11.587 -0.6686 -0.2372 -0.6256
 1917TIP3    H127166   6.263   5.996  11.613  1.6379  0.5290 -0.3684
 1917TIP3    H227167   6.210   6.074  11.495  2.0312 -0.7039 -1.3888
 1918TIP3   OH227168   7.079   3.914   4.385 -0.6401  0.0165  0.4121
 1918TIP3    H127169   6.995   3.872   4.364  0.6214 -3.0133  0.8538
 1918TIP3    H227170   7.132   3.843   4.422  2.1148  1.8342  0.2077
 1919TIP3   OH227171   0.570   5.723  10.248  0.1416  0.1875 -0.5221
 1919TIP3    H127172   0.657   5.695  10.219 -0.3598 -2.3361  0.1191
 1919TIP3    H227173   0.510   5.657  10.211 -1.1768  0.3439  1.2143
 1920TIP3   OH227174   0.119   5.341  11.251 -0.3686 -0.1455 -0.0517
 1920TIP3    H127175   0.110   5.366  11.342  0.1936 -0.7806  0.1885
 1920TIP3    H227176   0.160   5.416  11.208  1.7107 -0.7616  0.7376
 1921TIP3   OH227177   3.508   2.376  13.477  0.4757  0.0462  0.4283
 1921TIP3    H127178   3.440   2.414  13.422  0.2764 -0.6974  0.1650
 1921TIP3    H227179   3.580   2.439  13.471  0.2240  0.2890 -0.1716
 1922TIP3   OH227180   3.725   3.509  14.558  0.3678  0.1828 -0.0025
 1922TIP3    H127181   3.670   3.567  14.506  1.1301  1.7707  0.9048
 1922TIP3    H227182   3.668   3.479  14.629  0.5438  1.5344  0.7301
 1923TIP3   OH227183   6.472   1.645  10.312  0.0988  0.1965 -0.2059
 1923TIP3    H127184   6.415   1.583  10.357 -0.1945 -0.5244 -1.5080
 1923TIP3    H227185   6.413   1.715  10.283 -0.2700 -0.7686 -1.9446
 1924TIP3   OH227186   4.350   3.899  14.524 -0.5042 -0.0463 -0.2475
 1924TIP3    H127187   4.339   3.807  14.502 -0.3383 -0.1715  0.1828
 1924TIP3    H227188   4.321   3.946  14.446 -1.3442 -0.4406 -0.1793
 1925TIP3   OH227189   5.820   3.541   1.853  0.0190  0.0003 -0.2310
 1925TIP3    H127190   5.827   3.446   1.864 -1.8757 -0.3889 -1.8623
 1925TIP3    H227191   5.735   3.563   1.890  0.7783  1.2518  0.8699
 1926TIP3   OH227192   2.490   3.383  11.116 -0.0765  0.0182 -0.1250
 1926TIP3    H127193   2.550   3.326  11.165  1.2046  1.5158  0.1292
 1926TIP3    H227194   2.497   3.352  11.026 -0.8519 -1.4102  0.2669
 1927TIP3   OH227195   3.622   3.728   4.981  0.2039  0.2157 -0.3752
 1927TIP3    H127196   3.530   3.704   4.974 -0.4952  2.1086  1.3542
 1927TIP3    H227197   3.641   3.723   5.075  0.9234  2.9033 -0.3102
 1928TIP3   OH227198   5.450   5.662  13.751 -0.4469 -0.1227 -0.0520
 1928TIP3    H127199   5.536   5.636  13.716 -0.3513  1.5154 -1.1105
 1928TIP3    H227200   5.446   5.619  13.837  1.1473 -0.7706 -0.2587
 1929TIP3   OH227201   6.167   6.132  11.851  1.0290 -0.2523  0.1460
 1929TIP3    H127202   6.189   6.100  11.764  0.1601 -1.3416  0.2999
 1929TIP3    H227203   6.171   6.227  11.843  2.1796 -0.3524 -0.7404
 1930TIP3   OH227204   6.470   0.074  14.201 -0.6068  0.3047  0.2207
 1930TIP3    H127205   6.426   0.110  14.124  0.4169  0.7991 -0.1496
 1930TIP3    H227206   6.551   0.125  14.209  0.3341 -1.1451  0.3520
 1931TIP3   OH227207   5.621   2.492  12.387 -0.3541 -0.3465  0.0463
 1931TIP3    H127208   5.674   2.563  12.424  0.0458 -0.4694 -0.2891
 1931TIP3    H227209   5.674   2.457  12.315 -1.0427 -0.2383 -0.5247
 1932TIP3   OH227210   6.612   1.689  13.803  0.6393  0.3993  0.1611
 1932TIP3    H127211   6.618   1.613  13.861  0.8003  0.7479  0.6067
 1932TIP3    H227212   6.692   1.687  13.752  0.8567  0.5201  0.4906
 1933TIP3   OH227213   5.451   6.196  11.731 -0.3478  0.3922 -0.4132
 1933TIP3    H127214   5.387   6.256  11.769 -0.0964  0.9142 -0.8117
 1933TIP3    H227215   5.533   6.219  11.774 -0.1719  0.6092 -0.8588
 1934TIP3   OH227216   3.703   1.454   9.985  0.8109  0.1902  0.2442
 1934TIP3    H127217   3.753   1.412  10.055  0.5633  0.1146  0.3734
 1934TIP3    H227218   3.625   1.489  10.028  1.4417  1.5664  0.3012
 1935TIP3   OH227219   4.523   3.545  13.511  0.1226  0.1439 -0.2527
 1935TIP3    H127220   4.572   3.621  13.480 -0.4810  0.8960  0.5914
 1935TIP3    H227221   4.440   3.580  13.543  0.5823 -0.5713  1.9490
 1936TIP3   OH227222   0.373   4.856   9.744 -0.5199  0.4736  0.6345
 1936TIP3    H127223   0.323   4.781   9.775 -1.2885  0.2964 -0.9791
 1936TIP3    H227224   0.383   4.843   9.650  0.6613  1.6277  0.5609
 1937TIP3   OH227225   2.738   6.153  13.201 -0.3559 -0.3781 -0.3713
 1937TIP3    H127226   2.647   6.160  13.231 -0.8340 -1.3312 -1.5346
 1937TIP3    H227227   2.744   6.215  13.129  0.6105  1.4205  1.1597
 1938TIP3   OH227228   2.404   0.046   2.278  0.2865 -0.3261  0.1251
 1938TIP3    H127229   2.427  -0.028   2.221  0.0015  0.0404 -0.4850
 1938TIP3    H227230   2.349   0.008   2.346  2.0851 -1.0969  1.2264
 1939TIP3   OH227231   1.144   5.329  11.424  0.4129 -0.2702  0.7268
 1939TIP3    H127232   1.220   5.374  11.461  0.3394  0.6693 -0.2348
 1939TIP3    H227233   1.117   5.269  11.493  1.3406  0.1892  1.5218
 1940TIP3   OH227234   3.733   7.185  12.565 -0.3389 -0.1015  0.0098
 1940TIP3    H127235   3.745   7.106  12.514  2.1252  0.7641 -0.9050
 1940TIP3    H227236   3.745   7.157  12.656 -1.1622 -1.0276 -0.1515
 1941TIP3   OH227237   1.466   5.227  11.084  0.4534  0.3801  0.0422
 1941TIP3    H127238   1.547   5.178  11.098 -0.2551 -0.7250  0.3571
 1941TIP3    H227239   1.397   5.168  11.113 -0.3986  1.7632  0.9733
 1942TIP3   OH227240   1.846   3.069  10.155 -0.0883  0.2763  0.3317
 1942TIP3    H127241   1.811   3.014  10.225  0.3815  1.1313  1.2563
 1942TIP3    H227242   1.835   3.158  10.186  1.5500  0.6150  0.0062
 1943TIP3   OH227243   4.256   6.280   0.581  0.4910  0.5058 -0.7424
 1943TIP3    H127244   4.270   6.361   0.629 -1.0654 -0.1363  0.9326
 1943TIP3    H227245   4.228   6.308   0.493 -1.0065  1.8426  0.1070
 1944TIP3   OH227246   0.625   3.013  10.098  0.2590 -0.1631  0.3911
 1944TIP3    H127247   0.552   2.974  10.051 -0.8688 -0.2536  2.1242
 1944TIP3    H227248   0.688   3.036  10.030 -0.5297 -1.8404 -0.9823
 1945TIP3   OH227249   4.284   3.132  10.981 -0.1678 -0.4177  0.1852
 1945TIP3    H127250   4.238   3.079  10.915 -0.5387  1.6698 -1.3717
 1945TIP3    H227251   4.214   3.169  11.034  0.1006 -1.6055  1.4130
 1946TIP3   OH227252   5.205   3.869  11.872  0.2347  0.0910  0.3479
 1946TIP3    H127253   5.138   3.929  11.840  0.9472  0.4465 -0.5146
 1946TIP3    H227254   5.219   3.808  11.800  0.0777 -0.6490  0.9290
 1947TIP3   OH227255   1.359   4.362  14.616  0.4708  0.3818 -0.1091
 1947TIP3    H127256   1.295   4.431  14.632  1.3939  1.3622 -0.5063
 1947TIP3    H227257   1.408   4.354  14.698  1.5780  1.5361 -0.6176
 1948TIP3   OH227258   5.885   1.457  11.821  0.1971 -0.1572  0.5593
 1948TIP3    H127259   5.963   1.492  11.865  1.4135  0.3787 -1.8028
 1948TIP3    H227260   5.909   1.367  11.797  0.1698  0.0365 -0.2494
 1949TIP3   OH227261   6.950   0.636   2.318 -0.0178 -0.1931  0.7766
 1949TIP3    H127262   6.890   0.707   2.297 -0.0040 -0.4583 -0.2228
 1949TIP3    H227263   6.931   0.568   2.252  0.5041 -0.7908  1.2278
 1950TIP3   OH227264   0.437   3.136  10.744 -0.3443  0.0051  0.1779
 1950TIP3    H127265   0.389   3.173  10.670 -0.4615 -2.0790 -0.8514
 1950TIP3    H227266   0.519   3.105  10.706  0.7557  1.2533  1.4439
 1951TIP3   OH227267   2.693   4.556   0.800 -0.1307 -0.8854  0.4029
 1951TIP3    H127268   2.767   4.616   0.807 -0.5564 -0.0977 -1.2410
 1951TIP3    H227269   2.668   4.538   0.891  1.5292 -0.5196  0.9743
 1952TIP3   OH227270   2.547   6.430   9.241 -0.0575 -0.0635  0.6222
 1952TIP3    H127271   2.546   6.469   9.153 -0.0600  1.1625  1.1442
 1952TIP3    H227272   2.510   6.497   9.298 -1.6423 -1.4678  1.3371
 1953TIP3   OH227273   3.416   2.480  10.970 -0.2303  0.3489 -0.2220
 1953TIP3    H127274   3.372   2.412  11.021 -0.0806 -1.3718 -2.2522
 1953TIP3    H227275   3.361   2.491  10.893  2.1284 -0.9649 -2.2369
 1954TIP3   OH227276   0.178   3.452  11.713  0.1884 -0.1505  0.2007
 1954TIP3    H127277   0.171   3.360  11.686  2.0159 -0.9969  2.2913
 1954TIP3    H227278   0.272   3.471  11.709  0.1023  0.8729  1.9979
 1955TIP3   OH227279   1.891   4.443  10.851  0.0660  0.1460  0.1063
 1955TIP3    H127280   1.808   4.474  10.888 -1.0851 -0.4326 -1.8366
 1955TIP3    H227281   1.909   4.361  10.897  0.8141  1.4029  2.1556
 1956TIP3   OH227282   0.977   5.755  10.886 -0.2456 -0.4839 -0.1014
 1956TIP3    H127283   1.017   5.783  10.968 -2.1467  0.9329  0.4254
 1956TIP3    H227284   1.020   5.808  10.819 -1.8550  1.8821  0.5786
 1957TIP3   OH227285   5.839   1.307  12.941 -0.7096 -0.0599 -0.2066
 1957TIP3    H127286   5.751   1.333  12.916 -1.2379 -0.7416  0.8717
 1957TIP3    H227287   5.882   1.388  12.969 -1.7308 -0.0372  1.3785
 1958TIP3   OH227288   3.372   1.828  13.445 -0.2598  0.8156 -0.6337
 1958TIP3    H127289   3.285   1.819  13.483  0.3083 -1.3020  0.3293
 1958TIP3    H227290   3.388   1.745  13.400  1.8541  0.5013  0.5554
 1959TIP3   OH227291   5.011   2.989   9.979 -0.4799 -0.7660  0.1154
 1959TIP3    H127292   4.971   3.075   9.990  0.9170 -0.2360  1.3235
 1959TIP3    H227293   5.053   2.993   9.893 -0.5518 -0.2990  0.1002
 1960TIP3   OH227294   3.163   7.081  13.402 -0.3680  0.0796 -0.5141
 1960TIP3    H127295   3.170   7.170  13.368 -0.8730 -0.0433 -0.9539
 1960TIP3    H227296   3.236   7.073  13.463 -0.5546  0.9239 -0.1686
 1961TIP3   OH227297   2.502   3.667  11.627  0.6935  0.0991  0.0666
 1961TIP3    H127298   2.445   3.618  11.568 -0.3268  0.3713  0.7981
 1961TIP3    H227299   2.549   3.728  11.571 -0.2573  0.3537 -0.4642
 1962TIP3   OH227300   5.572   0.693  10.238  0.0702 -0.9136  0.3253
 1962TIP3    H127301   5.567   0.751  10.315  1.9045  2.2529 -1.7307
 1962TIP3    H227302   5.641   0.630  10.260  0.1691 -0.4388  1.4809
 1963TIP3   OH227303   1.330   4.461   1.651  0.3238 -0.2259 -0.1851
 1963TIP3    H127304   1.271   4.518   1.700  0.5312  0.0010 -0.2000
 1963TIP3    H227305   1.271   4.399   1.606  0.0053  0.8146 -1.2443
 1964TIP3   OH227306   0.142   3.891  10.544  0.1226  0.0529 -0.3931
 1964TIP3    H127307   0.157   3.846  10.461  0.4964  0.5351 -0.5966
 1964TIP3    H227308   0.052   3.870  10.568  0.5229 -1.3910 -0.1032
 1965TIP3   OH227309   1.034   6.590   0.309  0.1819  0.2307 -0.3510
 1965TIP3    H127310   1.110   6.532   0.315 -0.1053 -0.2159 -0.9068
 1965TIP3    H227311   1.002   6.579   0.220  0.3378  1.5335 -0.5838
 1966TIP3   OH227312   5.857   6.627  13.538  0.1047 -0.0359 -0.3561
 1966TIP3    H127313   5.778   6.575  13.523 -0.6840  1.5015 -1.9631
 1966TIP3    H227314   5.827   6.718  13.531  1.9767  0.5931 -0.7107
 1967TIP3   OH227315   5.101   2.667   9.636 -0.1724 -0.1844 -0.4377
 1967TIP3    H127316   5.112   2.642   9.728 -0.4448  0.9875 -0.0759
 1967TIP3    H227317   5.109   2.584   9.588  1.6991 -0.5839  0.4789
 1968TIP3   OH227318   3.345   5.924  11.250 -0.3786  0.5155  0.4222
 1968TIP3    H127319   3.286   5.936  11.175 -0.9807 -0.4906  0.7152
 1968TIP3    H227320   3.397   5.847  11.227 -1.6798 -0.8272  1.6761
 1969TIP3   OH227321   2.120   1.371  12.433  0.0172 -0.0080 -0.3257
 1969TIP3    H127322   2.104   1.398  12.524 -0.2320 -0.1796 -0.3185
 1969TIP3    H227323   2.077   1.286  12.425  0.3988 -0.1886 -0.4865
 1970TIP3   OH227324   6.312   0.992  13.202  0.3590 -0.4954  0.0256
 1970TIP3    H127325   6.231   1.014  13.248  0.6569 -0.0528  0.3434
 1970TIP3    H227326   6.292   1.010  13.110  0.5525  1.0730  0.2554
 1971TIP3   OH227327   6.178   4.690  14.660 -0.0235 -0.2479 -0.2665
 1971TIP3    H127328   6.236   4.643  14.600 -0.5761 -1.8824  0.4352
 1971TIP3    H227329   6.231   4.704  14.738 -0.3977 -1.2813  0.1807
 1972TIP3   OH227330   6.217   6.123  11.254  0.4843 -0.3045  0.7654
 1972TIP3    H127331   6.297   6.071  11.263 -0.3427 -1.7298  0.2450
 1972TIP3    H227332   6.193   6.113  11.161 -1.0717 -1.1140  1.2244
 1973TIP3   OH227333   6.240   5.881  10.489 -0.4223  0.5761 -0.0940
 1973TIP3    H127334   6.150   5.911  10.497 -0.6310  0.9026 -2.7082
 1973TIP3    H227335   6.293   5.957  10.509 -0.7993  0.9129 -0.3486
 1974TIP3   OH227336   6.530   2.757  10.703  0.1690 -0.0370 -0.0506
 1974TIP3    H127337   6.546   2.846  10.671 -2.4546  0.7030  0.5105
 1974TIP3    H227338   6.508   2.706  10.625 -1.5788  0.6350 -0.0263
 1975TIP3   OH227339   2.144   4.580  11.106 -0.0257  0.1323  0.3056
 1975TIP3    H127340   2.053   4.585  11.136  0.1157 -0.8561  0.9339
 1975TIP3    H227341   2.196   4.590  11.186  0.4205  0.2969  0.0009
 1976TIP3   OH227342   3.397   0.436  12.029  0.5929  0.1714 -0.1533
 1976TIP3    H127343   3.485   0.447  12.066  0.7855  0.3645 -0.6676
 1976TIP3    H227344   3.338   0.458  12.102  0.9204 -2.6596  1.0773
 1977TIP3   OH227345   6.010   5.522  10.681 -0.0604  0.2554 -0.1973
 1977TIP3    H127346   6.058   5.538  10.600 -2.6954  1.1699 -1.7059
 1977TIP3    H227347   5.959   5.601  10.694 -0.2547 -0.1779  1.9857
 1978TIP3   OH227348   4.849   4.382  11.711 -0.8074 -0.3906 -0.3530
 1978TIP3    H127349   4.824   4.395  11.802 -0.1641 -0.3791 -0.1752
 1978TIP3    H227350   4.854   4.470  11.674  2.6442 -0.0343  0.6104
 1979TIP3   OH227351   4.901   2.453  10.303 -0.3535  0.3955  0.2642
 1979TIP3    H127352   4.877   2.531  10.352  0.1929  0.9853 -0.3785
 1979TIP3    H227353   4.868   2.469  10.214 -0.4868 -0.2309  0.1924
 1980TIP3   OH227354   0.627   3.549   9.982  0.0592 -0.1280 -0.0241
 1980TIP3    H127355   0.660   3.639   9.977  1.3385 -0.6403 -1.6048
 1980TIP3    H227356   0.562   3.544   9.912 -1.9303  0.2387  1.6905
 1981TIP3   OH227357   6.489   3.350  11.607  0.1321 -0.3214  0.3803
 1981TIP3    H127358   6.549   3.282  11.638  0.2320 -0.6060 -0.4320
 1981TIP3    H227359   6.402   3.310  11.612 -0.0169  0.0897  1.5541
 1982TIP3   OH227360   5.026   0.748  12.749  0.1811 -0.4110  1.0694
 1982TIP3    H127361   4.995   0.710  12.667 -0.1100  1.1314  0.4360
 1982TIP3    H227362   5.078   0.678  12.789  2.3571 -0.4622 -1.5651
 1983TIP3   OH227363   6.942   2.164  12.813 -0.0023 -0.2823  0.4718
 1983TIP3    H127364   6.914   2.073  12.827  2.0392 -0.9488  0.4385
 1983TIP3    H227365   6.951   2.199  12.902 -0.1287 -0.3258  0.5026
 1984TIP3   OH227366   7.076   3.515  11.728  0.5491  0.0311 -0.6734
 1984TIP3    H127367   6.998   3.551  11.771 -0.0806  0.7764 -2.3535
 1984TIP3    H227368   7.097   3.437  11.778 -1.6850 -0.5564 -0.5445
 1985TIP3   OH227369   2.647   6.361  11.426  0.7759 -0.0905 -0.0213
 1985TIP3    H127370   2.608   6.354  11.513  2.0723  1.2880  0.7110
 1985TIP3    H227371   2.610   6.287  11.377 -1.1654  0.0071  1.2087
 1986TIP3   OH227372   1.404   0.641  15.112 -0.0690 -0.6073 -0.2776
 1986TIP3    H127373   1.476   0.685  15.157  1.1297 -1.0025 -1.7194
 1986TIP3    H227374   1.415   0.548  15.132 -1.0395 -0.5339  0.6457
 1987TIP3   OH227375   3.177   3.186  14.213  0.2304  0.3497  0.8838
 1987TIP3    H127376   3.219   3.162  14.295 -1.1222 -3.5540  0.6228
 1987TIP3    H227377   3.084   3.197  14.235 -0.7667 -3.8154 -0.3400
 1988TIP3   OH227378   0.297   2.497  13.228 -0.4463 -0.3638  0.0982
 1988TIP3    H127379   0.215   2.477  13.184 -0.5048  1.5232 -0.7479
 1988TIP3    H227380   0.306   2.592  13.220  2.1214 -0.5847 -0.4007
 1989TIP3   OH227381   1.630   2.205  15.190 -0.2431  0.1911 -0.0359
 1989TIP3    H127382   1.678   2.228  15.110 -0.6482 -1.5541 -0.8458
 1989TIP3    H227383   1.589   2.121  15.169 -1.8507  0.5711  1.3962
 1990TIP3   OH227384   0.545   4.740  10.166  0.3898 -0.0555  0.9175
 1990TIP3    H127385   0.458   4.771  10.192 -0.3130 -1.7149  0.6962
 1990TIP3    H227386   0.541   4.734  10.071  0.8555  0.1391  0.8819
 1991TIP3   OH227387   5.530   5.148  11.738 -0.1304  0.2462 -0.2149
 1991TIP3    H127388   5.594   5.163  11.807 -2.1893  2.5396  1.3740
 1991TIP3    H227389   5.500   5.058  11.752  0.2012  0.3471  1.2559
 1992TIP3   OH227390   0.896   3.443  12.035 -0.3235  0.7652 -0.9448
 1992TIP3    H127391   0.809   3.475  12.062 -0.1796  0.6844 -0.3710
 1992TIP3    H227392   0.879   3.354  12.002 -0.2830  0.2363  0.4023
 1993TIP3   OH227393   2.514   3.851   9.306  0.2229  0.3417  0.0331
 1993TIP3    H127394   2.557   3.802   9.375  0.4284 -0.7319 -0.8188
 1993TIP3    H227395   2.424   3.862   9.337  0.3258 -0.0851  0.4992
 1994TIP3   OH227396   2.964   0.978  15.065  0.1066 -0.0774  0.3873
 1994TIP3    H127397   2.911   1.044  15.108 -0.3348 -0.1979  0.0435
 1994TIP3    H227398   3.054   0.998  15.091 -0.1462 -0.1659  1.3686
 1995TIP3   OH227399   1.813   6.984  10.705 -0.2833 -0.0709  0.1097
 1995TIP3    H127400   1.734   6.986  10.651  0.2411 -0.2878 -0.6787
 1995TIP3    H227401   1.874   7.043  10.661  0.4449 -0.8925 -0.0046
 1996TIP3   OH227402   0.253   1.933  13.324 -0.2925 -0.3332 -0.5222
 1996TIP3    H127403   0.249   1.954  13.231  2.6528 -0.5119 -0.7743
 1996TIP3    H227404   0.296   2.008  13.364 -0.8281 -0.5999  0.6044
 1997TIP3   OH227405   5.237   3.899  13.985  0.4014 -0.4780 -0.4447
 1997TIP3    H127406   5.171   3.837  14.015  1.7946 -2.2271 -0.8629
 1997TIP3    H227407   5.276   3.933  14.066 -0.1796 -0.3347 -0.2179
 1998TIP3   OH227408   3.480   6.255  13.840  0.4006 -0.0211  0.2012
 1998TIP3    H127409   3.435   6.286  13.762 -2.6231 -2.0700  0.9458
 1998TIP3    H227410   3.471   6.326  13.904  0.1987  0.4703 -0.3703
 1999TIP3   OH227411   5.252   6.760   9.783 -0.0544 -0.8315  0.0667
 1999TIP3    H127412   5.161   6.787   9.772  0.2886  0.6811  0.6282
 1999TIP3    H227413   5.302   6.841   9.776  1.3485 -1.7483 -1.1066
 2000TIP3   OH227414   2.285   4.446  12.799  0.0444 -0.6239  0.3036
 2000TIP3    H127415   2.247   4.503  12.732 -0.1509 -1.0631  0.0394
 2000TIP3    H227416   2.283   4.499  12.879  0.5452  0.0087 -0.0917
 2001TIP3   OH227417   6.903   1.361   9.677 -0.4243  0.5889  0.3756
 2001TIP3    H127418   6.978   1.307   9.704  0.7432  1.1301 -1.5996
 2001TIP3    H227419   6.847   1.364   9.755  1.5575  0.1087  1.9093
 2002TIP3   OH227420   4.224   3.582  13.088  0.3135  0.1065  0.1531
 2002TIP3    H127421   4.157   3.609  13.151  1.4130 -0.7377  1.7677
 2002TIP3    H227422   4.230   3.487  13.098 -0.2057 -0.2192 -2.0354
 2003TIP3   OH227423   0.259   4.246  11.663  0.1313 -0.0361 -0.7749
 2003TIP3    H127424   0.275   4.274  11.753  3.2894 -1.7630 -0.6453
 2003TIP3    H227425   0.272   4.151  11.665  0.9076 -0.0502 -3.1557
 2004TIP3   OH227426   2.903   0.100  11.332 -0.0975 -0.3545  0.0285
 2004TIP3    H127427   2.935   0.069  11.417 -0.0289 -1.9540 -0.5536
 2004TIP3    H227428   2.835   0.037  11.307  0.8840 -0.7590 -1.7622
 2005TIP3   OH227429   0.289   5.771   0.844 -0.6939 -0.0718  0.6274
 2005TIP3    H127430   0.352   5.843   0.842 -0.3149 -0.4056  0.1588
 2005TIP3    H227431   0.236   5.783   0.765  0.6599 -1.4218 -0.5301
 2006TIP3   OH227432   2.436   3.990  12.316 -0.4148 -0.0526 -0.1060
 2006TIP3    H127433   2.525   4.013  12.342 -0.9573 -0.4169  2.3331
 2006TIP3    H227434   2.442   3.898  12.289  0.6048  0.9551 -3.9351
 2007TIP3   OH227435   5.142   7.066  13.017 -0.2825 -0.3743 -0.1452
 2007TIP3    H127436   5.187   7.150  13.022  0.5154 -0.8533  1.5606
 2007TIP3    H227437   5.194   7.007  13.072 -2.8453 -1.0127  1.8269
 2008TIP3   OH227438   6.070   5.263  13.376  0.3895 -0.4147  0.0966
 2008TIP3    H127439   6.125   5.215  13.314  0.4757  0.8078 -0.8264
 2008TIP3    H227440   5.991   5.210  13.385 -0.2367  0.0253 -2.1730
 2009TIP3   OH227441   0.808   4.952  12.719 -0.0561 -0.6255  0.4019
 2009TIP3    H127442   0.859   4.872  12.707 -1.0044 -0.9830 -1.7517
 2009TIP3    H227443   0.746   4.930  12.789 -0.1639 -1.7247 -0.0192
 2010TIP3   OH227444   3.641   0.792  12.219  0.7188 -0.3104  0.3276
 2010TIP3    H127445   3.679   0.794  12.307 -1.8172 -1.7552  1.5861
 2010TIP3    H227446   3.671   0.709  12.182  0.5820 -0.4119  0.4425
 2011TIP3   OH227447   4.210   0.892  11.313  0.0831 -0.2893 -0.2803
 2011TIP3    H127448   4.302   0.894  11.287  0.5062 -0.3046  1.1409
 2011TIP3    H227449   4.209   0.923  11.403 -1.5900  1.8970 -0.9556
 2012TIP3   OH227450   4.870   3.794  12.421  0.0863 -0.2464  0.1440
 2012TIP3    H127451   4.822   3.877  12.424  0.0659 -0.2840  1.8533
 2012TIP3    H227452   4.954   3.817  12.380 -0.3332  0.3821 -0.3847
 2013TIP3   OH227453   0.980   0.131  10.365  0.2029  0.3507 -0.3173
 2013TIP3    H127454   0.991   0.067  10.436 -1.0639  0.8534  0.3699
 2013TIP3    H227455   1.015   0.212  10.402  0.8829  0.2914 -0.8189
 2014TIP3   OH227456   4.462   2.610   9.330  0.0449 -0.6339  0.1460
 2014TIP3    H127457   4.496   2.521   9.330  0.3076 -0.5381 -0.4359
 2014TIP3    H227458   4.383   2.606   9.384  1.1379 -0.7971  1.7890
 2015TIP3   OH227459   2.860   6.025  13.713  0.3122  0.4531 -0.7923
 2015TIP3    H127460   2.847   6.116  13.740 -1.4418  0.0904 -0.2997
 2015TIP3    H227461   2.868   5.976  13.795 -2.7177 -0.3324 -0.8621
 2016TIP3   OH227462   0.631   6.642  10.009 -0.3553  0.2390 -0.1824
 2016TIP3    H127463   0.557   6.702  10.019 -0.5977  0.0629 -0.8765
 2016TIP3    H227464   0.605   6.584   9.937 -0.2254 -0.8482  0.6204
 2017TIP3   OH227465   2.367   5.210  12.333 -0.3693 -0.6393 -0.1417
 2017TIP3    H127466   2.294   5.151  12.354 -2.1620  0.9892 -1.4643
 2017TIP3    H227467   2.393   5.185  12.245 -1.2974  0.6069 -0.8063
 2018TIP3   OH227468   4.009   2.928   0.500 -0.5681  0.5301 -0.5673
 2018TIP3    H127469   3.961   2.867   0.444  1.5147 -0.6731 -1.1899
 2018TIP3    H227470   3.950   2.945   0.574 -1.4326 -1.9276 -0.5945
 2019TIP3   OH227471   1.589   4.466   9.202  0.2208 -0.0936  0.8042
 2019TIP3    H127472   1.580   4.522   9.279 -2.4655  0.4701  0.2018
 2019TIP3    H227473   1.548   4.383   9.227  1.5041 -0.7786  0.7217
 2020TIP3   OH227474   6.580   6.233  10.578  0.1629 -0.3278  0.4380
 2020TIP3    H127475   6.661   6.191  10.607  0.3171 -0.3127  0.0435
 2020TIP3    H227476   6.563   6.301  10.643 -0.9092 -1.9433  1.9152
 2021TIP3   OH227477   4.342   4.489   1.079 -0.4839 -0.0246  0.1585
 2021TIP3    H127478   4.269   4.485   1.141  0.4238 -0.8555  1.2182
 2021TIP3    H227479   4.376   4.578   1.087 -1.2119  0.2894 -0.1618
 2022TIP3   OH227480   2.661   0.250  13.216  0.3491 -0.0851 -0.2068
 2022TIP3    H127481   2.648   0.288  13.302  4.5174 -1.9448  1.5045
 2022TIP3    H227482   2.679   0.325  13.159 -1.9111  1.1249  0.5517
 2023TIP3   OH227483   1.449   6.001   9.465  0.3229 -0.0927  0.6273
 2023TIP3    H127484   1.452   5.905   9.464  1.8411 -0.1117  1.8240
 2023TIP3    H227485   1.497   6.027   9.386  1.2001 -0.3565  1.0530
 2024TIP3   OH227486   4.172   1.336   0.505  0.2827  0.2346 -0.0074
 2024TIP3    H127487   4.186   1.289   0.423 -3.4761  1.3421 -1.4947
 2024TIP3    H227488   4.175   1.428   0.481 -0.6445  0.5835  1.0885
 2025TIP3   OH227489   4.925   6.658  11.008 -0.1638 -0.5371 -0.0685
 2025TIP3    H127490   4.956   6.637  10.919  0.5955 -0.7771  0.2421
 2025TIP3    H227491   4.852   6.717  10.994  1.1733  1.0159 -0.8209
 2026TIP3   OH227492   3.316   4.660  12.131  0.6822  0.1202  0.1665
 2026TIP3    H127493   3.282   4.747  12.150 -1.2366 -0.1650 -1.5604
 2026TIP3    H227494   3.307   4.613  12.214 -0.5851  0.8871  0.4938
 2027TIP3   OH227495   1.500   1.320  11.207  0.1889 -0.3037 -0.0352
 2027TIP3    H127496   1.461   1.368  11.280 -0.3492  0.6178 -0.9014
 2027TIP3    H227497   1.448   1.241  11.200  0.8646 -0.8945  1.1879
 2028TIP3   OH227498   2.272   3.780   9.592 -0.1540 -0.0413 -0.2790
 2028TIP3    H127499   2.251   3.688   9.574 -1.0875  0.2248 -0.6275
 2028TIP3    H227500   2.187   3.824   9.591  0.3029  0.8583 -0.2726
 2029TIP3   OH227501   3.410   4.030  11.356  0.1528  0.1507  0.3149
 2029TIP3    H127502   3.399   3.950  11.408  0.2776  0.3769  0.6955
 2029TIP3    H227503   3.420   4.100  11.421 -0.7516  0.5988 -0.0109
 2030TIP3   OH227504   0.797   0.401   9.977  0.2140 -0.5836  0.4359
 2030TIP3    H127505   0.846   0.331  10.020 -1.3843 -2.2725 -0.3447
 2030TIP3    H227506   0.840   0.414   9.893  0.4086 -0.7416  0.5112
 2031TIP3   OH227507   3.254   5.308  10.206  0.1973  0.0718  0.2687
 2031TIP3    H127508   3.228   5.327  10.296  1.6460  1.6179  0.4013
 2031TIP3    H227509   3.335   5.356  10.193  1.2412 -1.9398 -1.1743
 2032TIP3   OH227510   4.873   4.996  10.974 -0.3780  0.1494  0.0127
 2032TIP3    H127511   4.816   5.045  10.915  1.9258  1.3511 -1.3548
 2032TIP3    H227512   4.924   5.063  11.020  1.8137 -0.8557 -0.8179
 2033TIP3   OH227513   5.676   6.010  11.851 -0.5563 -0.2569  0.0108
 2033TIP3    H127514   5.725   6.087  11.878 -0.2956 -0.2842 -0.3793
 2033TIP3    H227515   5.721   5.979  11.772 -0.8715 -0.5993 -0.0373
 2034TIP3   OH227516   1.536   4.518  12.394 -0.5928 -0.4410 -0.5277
 2034TIP3    H127517   1.527   4.507  12.489  0.9626 -0.1740 -0.3264
 2034TIP3    H227518   1.610   4.577  12.384  0.2679 -1.7072 -1.9581
 2035TIP3   OH227519   1.711   2.919  10.367  0.2186 -0.3446 -0.1610
 2035TIP3    H127520   1.624   2.956  10.358 -0.1019 -0.6796  1.2138
 2035TIP3    H227521   1.704   2.831  10.329  0.1024 -0.1747 -0.5335
 2036TIP3   OH227522   5.518   6.830  11.781  0.0645  0.3919 -0.3540
 2036TIP3    H127523   5.486   6.875  11.859 -0.1964  0.0014 -0.2353
 2036TIP3    H227524   5.461   6.754  11.772  0.6338 -0.0326 -0.4396
 2037TIP3   OH227525   7.093   0.812   9.555  0.5856 -0.2432  0.7440
 2037TIP3    H127526   7.155   0.884   9.563 -0.4800  0.8318 -0.3208
 2037TIP3    H227527   7.008   0.854   9.542  0.2366 -1.6220 -2.4142
 2038TIP3   OH227528   0.249   5.492   9.524  0.1987  0.4597 -0.6189
 2038TIP3    H127529   0.309   5.566   9.531  2.7827 -1.2961 -2.1566
 2038TIP3    H227530   0.252   5.468   9.431 -0.4663 -1.5678 -0.1689
 2039TIP3   OH227531   5.440   2.960  11.336  0.3425 -0.2727  0.1076
 2039TIP3    H127532   5.438   3.040  11.284  1.6981 -0.2075  0.1196
 2039TIP3    H227533   5.353   2.956  11.377  1.6094  3.9098  4.1471
 2040TIP3   OH227534   0.861   0.739  11.498 -0.4506 -0.3161 -0.8770
 2040TIP3    H127535   0.804   0.776  11.431  1.5794  1.4798 -1.7253
 2040TIP3    H227536   0.832   0.779  11.580 -0.9378 -0.0652 -1.1721
 2041TIP3   OH227537   2.682   0.847  12.621  0.1901 -0.0999 -0.1919
 2041TIP3    H127538   2.611   0.877  12.678  1.2407  1.3588  0.4132
 2041TIP3    H227539   2.648   0.858  12.532 -0.6726 -0.3135  0.1037
 2042TIP3   OH227540   2.747   1.978   9.593 -0.5237  0.0215 -0.3558
 2042TIP3    H127541   2.803   2.016   9.525  0.7116  0.3782  0.8268
 2042TIP3    H227542   2.775   2.020   9.674 -1.3670 -1.0334  0.5160
 2043TIP3   OH227543   2.604   0.143   1.603  0.0076  0.2465  0.5234
 2043TIP3    H127544   2.634   0.147   1.693 -0.8241  1.8293  0.7468
 2043TIP3    H227545   2.667   0.197   1.554  1.8256 -2.3878 -0.3135
 2044TIP3   OH227546   0.279   3.800  10.755 -0.5141 -0.2482  0.4068
 2044TIP3    H127547   0.209   3.862  10.777  0.5656  1.5452 -0.9713
 2044TIP3    H227548   0.269   3.785  10.661 -1.0388 -2.6243  0.7732
 2045TIP3   OH227549   2.760   5.594   9.244 -0.0665 -0.2441 -0.2623
 2045TIP3    H127550   2.674   5.619   9.210 -0.6606 -0.2125  1.1846
 2045TIP3    H227551   2.763   5.633   9.332  1.5123 -0.0823 -0.3655
 2046TIP3   OH227552   2.907   0.688  10.999 -0.3976  0.6349  0.4024
 2046TIP3    H127553   2.868   0.601  11.004 -1.4206  1.0197 -0.4029
 2046TIP3    H227554   2.889   0.728  11.084 -0.6842  0.3651  0.4697
 2047TIP3   OH227555   4.474   0.702  11.355 -0.2401 -0.2681  0.4102
 2047TIP3    H127556   4.544   0.746  11.308 -0.4150 -0.2361  0.1794
 2047TIP3    H227557   4.418   0.666  11.287 -1.4174  1.2035  0.5393
 2048TIP3   OH227558   5.178   3.858   9.714 -0.4960 -0.2400 -0.5145
 2048TIP3    H127559   5.250   3.845   9.651 -1.7681 -0.5546 -1.9742
 2048TIP3    H227560   5.108   3.802   9.682 -1.6161  0.5192  0.5159
 2049TIP3   OH227561   0.999   6.239  10.079 -0.0151 -0.1833  0.1586
 2049TIP3    H127562   1.037   6.218   9.994 -2.5813  0.2464 -1.1767
 2049TIP3    H227563   1.011   6.334  10.088  1.5044 -0.4204  0.9828
 2050TIP3   OH227564   0.192   1.880  12.326  0.3178  0.5719  0.1775
 2050TIP3    H127565   0.164   1.971  12.338  1.1611  1.1151 -1.5751
 2050TIP3    H227566   0.269   1.871  12.382  1.6724  1.7342 -1.3879
 2051TIP3   OH227567   3.958   3.191  13.315 -0.4375  0.1540 -0.3081
 2051TIP3    H127568   3.991   3.118  13.367 -2.1168 -0.0948  0.4709
 2051TIP3    H227569   3.873   3.211  13.354 -1.4019  0.4921 -2.4746
 2052TIP3   OH227570   0.260   6.331  11.353 -0.0752  0.5842 -0.4291
 2052TIP3    H127571   0.195   6.301  11.417  1.4185 -2.9209 -0.3604
 2052TIP3    H227572   0.224   6.307  11.268 -1.8427  4.8293 -1.1200
 2053TIP3   OH227573   4.136   5.628  10.457  0.3021 -0.2645 -0.9546
 2053TIP3    H127574   4.157   5.546  10.501  0.8083  0.0370 -0.6139
 2053TIP3    H227575   4.192   5.630  10.380  0.2622 -0.2593 -0.9831
 2054TIP3   OH227576   1.822   4.416   9.073  0.2990  0.0535  0.1036
 2054TIP3    H127577   1.735   4.432   9.107 -0.4330 -2.8036 -0.1558
 2054TIP3    H227578   1.880   4.424   9.149 -0.4095  0.3561  0.6129
 2055TIP3   OH227579   3.113   2.484  11.114 -0.6079  0.0559  0.2364
 2055TIP3    H127580   3.178   2.544  11.151 -0.7406  1.8518 -2.2269
 2055TIP3    H227581   3.160   2.401  11.104  0.6579  0.7164  0.4749
 2056TIP3   OH227582   2.217   1.791  14.637 -0.2975  0.2961 -0.0634
 2056TIP3    H127583   2.211   1.751  14.551  1.0877 -1.5361  0.6104
 2056TIP3    H227584   2.129   1.825  14.655 -0.4381  1.3149 -2.4145
 2057TIP3   OH227585   5.880   4.981  12.240 -0.1222  0.2386  0.2357
 2057TIP3    H127586   5.945   4.940  12.298 -0.8643 -0.5701  0.5183
 2057TIP3    H227587   5.852   4.911  12.182  0.4164  0.9793 -0.9507
 2058TIP3   OH227588   0.601   6.109  11.833  0.5219 -0.9035  0.6007
 2058TIP3    H127589   0.666   6.081  11.769  1.0205  1.7258 -0.1402
 2058TIP3    H227590   0.518   6.109  11.784  0.6982 -0.0951  0.2915
 2059TIP3   OH227591   4.482   3.449  10.037  0.0450  0.2036  0.4347
 2059TIP3    H127592   4.401   3.478   9.995  0.0017 -1.1822 -0.4984
 2059TIP3    H227593   4.550   3.504   9.998 -0.0684 -0.6718 -1.0915
 2060TIP3   OH227594   3.464   3.045   0.398 -0.4625 -0.4383  0.2420
 2060TIP3    H127595   3.553   3.058   0.431 -0.7692  0.7192  0.6732
 2060TIP3    H227596   3.464   3.087   0.312 -0.9527  0.7955  0.8294
 2061TIP3   OH227597   1.030   7.127  14.393  0.4546  0.1020 -0.7239
 2061TIP3    H127598   1.029   7.181  14.314  1.4801  3.8876  1.5709
 2061TIP3    H227599   1.121   7.101  14.404  0.3710 -0.1501 -0.6166
 2062TIP3   OH227600   0.987   6.787  11.150 -0.5701 -0.7321  0.1324
 2062TIP3    H127601   0.921   6.803  11.217  1.3909  0.4620  1.9038
 2062TIP3    H227602   0.994   6.870  11.102 -1.2261 -1.2593 -0.9240
 2063TIP3   OH227603   1.509   3.955  11.546 -0.3972  0.5198  0.4142
 2063TIP3    H127604   1.448   3.894  11.588  1.3313 -1.7574 -0.1747
 2063TIP3    H227605   1.479   3.960  11.455  0.2828 -0.6454  0.1098
 2064TIP3   OH227606   4.018   4.410  11.535  0.7756 -0.1712 -0.3632
 2064TIP3    H127607   3.986   4.368  11.615 -1.0087  1.8120  0.0524
 2064TIP3    H227608   4.107   4.376  11.525  0.5011 -1.6798  1.5806
 2065TIP3   OH227609   1.275   2.546  12.385 -0.0907  0.0973 -0.8543
 2065TIP3    H127610   1.314   2.600  12.316 -0.1909 -0.3274 -1.2404
 2065TIP3    H227611   1.305   2.588  12.467 -0.0015  0.6172 -1.1464
 2066TIP3   OH227612   0.159   0.522  11.891  0.1186  0.1849  0.0253
 2066TIP3    H127613   0.189   0.599  11.842 -0.2870 -0.7895 -1.8477
 2066TIP3    H227614   0.092   0.555  11.950  0.9241  1.4778  0.2568
 2067TIP3   OH227615   4.171   3.834  10.305  0.0046 -0.1064  0.1579
 2067TIP3    H127616   4.149   3.868  10.219 -1.0423  0.5158  0.6514
 2067TIP3    H227617   4.099   3.775  10.327 -0.5662  0.9618  1.2632
 2068TIP3   OH227618   3.313   7.024  10.775 -0.0994  0.0773  0.0935
 2068TIP3    H127619   3.266   7.076  10.839  1.4931  1.1883  0.4172
 2068TIP3    H227620   3.318   6.936  10.813 -0.4384  0.3619  0.7950
 2069TIP3   OH227621   3.302   2.316  13.842  0.0772  0.1916 -0.0510
 2069TIP3    H127622   3.307   2.411  13.853 -0.4840  0.4773 -2.0186
 2069TIP3    H227623   3.392   2.291  13.818 -0.2309  0.5691 -1.7190
 2070TIP3   OH227624   0.512   6.730  15.148 -0.4607  0.4591 -1.1387
 2070TIP3    H127625   0.425   6.712  15.183 -1.3552  2.5559 -2.0718
 2070TIP3    H227626   0.560   6.770  15.221 -0.3766 -0.4101 -0.7114
 2071TIP3   OH227627   3.479   4.054  10.642 -0.0674  0.4936  0.3049
 2071TIP3    H127628   3.473   4.111  10.719  2.1755 -1.1836  1.8939
 2071TIP3    H227629   3.415   3.985  10.658  0.3217  0.2051  0.6743
 2072TIP3   OH227630   7.085   3.301  10.191 -0.1035  0.4000 -0.8599
 2072TIP3    H127631   7.155   3.241  10.167  0.1293  0.9013 -1.4668
 2072TIP3    H227632   7.023   3.247  10.240  1.0924  0.1306  0.4081
 2073TIP3   OH227633   2.979   0.688  11.466 -0.2126  0.2839  0.2973
 2073TIP3    H127634   2.968   0.748  11.540 -0.9903 -2.0062  2.1587
 2073TIP3    H227635   3.059   0.640  11.486 -1.7265 -2.0883  1.0528
 2074TIP3   OH227636   4.674   6.981   0.300 -0.1485  0.2433  0.7727
 2074TIP3    H127637   4.744   6.944   0.247 -1.6202  0.4528 -1.4940
 2074TIP3    H227638   4.619   6.906   0.322 -1.6052  0.5565 -1.4167
 2075TIP3   OH227639   6.619   2.611  13.991  0.4859  0.4189  0.4428
 2075TIP3    H127640   6.575   2.679  14.042 -1.4644 -0.3960 -0.0602
 2075TIP3    H227641   6.620   2.644  13.901 -1.6373 -0.6825 -0.0440
 2076TIP3   OH227642   2.438   6.080   9.463  0.3495  0.3964  0.7719
 2076TIP3    H127643   2.346   6.056   9.468 -0.2997  2.7268  1.0479
 2076TIP3    H227644   2.485   6.001   9.491 -1.4065 -1.5673 -1.4384
 2077TIP3   OH227645   3.479   5.189  10.363 -0.0043 -0.2031 -0.1544
 2077TIP3    H127646   3.486   5.141  10.280  3.1283 -0.3417  0.0633
 2077TIP3    H227647   3.529   5.269  10.349 -1.2496  0.8011  0.9582
 2078TIP3   OH227648   2.263   7.033   2.410  0.1005  0.4353  0.1456
 2078TIP3    H127649   2.184   7.084   2.393  0.8259  1.0132 -1.7254
 2078TIP3    H227650   2.244   6.987   2.492 -2.4021  0.0830 -0.5389
 2079TIP3   OH227651   1.067   6.579  11.409 -0.3270 -0.0884 -0.1028
 2079TIP3    H127652   1.038   6.494  11.374 -0.5688  0.0476 -0.2407
 2079TIP3    H227653   0.991   6.636  11.396 -1.0225 -0.4011  2.0307
 2080TIP3   OH227654   3.629   6.882  10.739 -0.2445  0.0542 -0.3086
 2080TIP3    H127655   3.642   6.947  10.808 -1.0469 -0.1484  0.0444
 2080TIP3    H227656   3.558   6.826  10.771  0.2520 -0.8439 -0.7238
 2081TIP3   OH227657   0.514   2.892   9.812 -0.1410 -0.4571  0.1345
 2081TIP3    H127658   0.552   2.804   9.814  0.1062 -0.4078 -1.2340
 2081TIP3    H227659   0.440   2.886   9.752  0.2163  0.3816 -0.4198
 2082TIP3   OH227660   6.131   6.212  13.592  0.0049  0.6736 -0.4331
 2082TIP3    H127661   6.157   6.157  13.666  1.1608  2.6391  0.6875
 2082TIP3    H227662   6.082   6.153  13.535  1.4264 -1.6012  0.5494
 2083TIP3   OH227663   2.284   0.358  14.577 -0.2050  0.5050 -0.1826
 2083TIP3    H127664   2.374   0.379  14.603 -0.0362  2.3401 -2.0716
 2083TIP3    H227665   2.294   0.287  14.514  0.0011  1.1434 -0.8844
 2084TIP3   OH227666   4.709   5.601  11.870 -0.0895 -0.1509  0.0738
 2084TIP3    H127667   4.705   5.697  11.870  2.0449 -0.0159  0.8393
 2084TIP3    H227668   4.785   5.580  11.816  1.8862 -1.1661  2.9818
 2085TIP3   OH227669   6.245   0.823  10.831 -0.4231  0.0149  0.7303
 2085TIP3    H127670   6.155   0.830  10.864 -0.2818 -0.6990  1.3134
 2085TIP3    H227671   6.285   0.756  10.887 -0.1580 -1.2405 -0.9133
 2086TIP3   OH227672   6.806   3.328  12.337 -0.6758  0.0742  0.1451
 2086TIP3    H127673   6.901   3.327  12.349 -0.4852  0.3379 -1.2070
 2086TIP3    H227674   6.791   3.277  12.258 -1.6607  0.1819  0.2497
 2087TIP3   OH227675   4.202   2.861   0.841 -0.3153  0.4554 -0.0897
 2087TIP3    H127676   4.263   2.933   0.858 -1.1381  1.1743 -0.0831
 2087TIP3    H227677   4.205   2.849   0.747  0.9234 -0.5194  0.0478
 2088TIP3   OH227678   1.728   7.009  11.318  0.0886 -0.0349 -0.0790
 2088TIP3    H127679   1.703   7.097  11.347  1.5640  0.3387  0.1216
 2088TIP3    H227680   1.793   6.980  11.383  1.3887 -0.3046 -1.4477
 2089TIP3   OH227681   2.326   1.201  11.473 -0.0574  0.2010  0.4745
 2089TIP3    H127682   2.414   1.186  11.506 -0.2421  0.8829  1.3172
 2089TIP3    H227683   2.335   1.200  11.377  0.6437 -0.9175  0.5429
 2090TIP3   OH227684   2.897   1.036  10.695  0.9116  0.4368 -0.1947
 2090TIP3    H127685   2.864   1.059  10.782 -2.7213 -0.7520 -1.0748
 2090TIP3    H227686   2.946   0.955  10.709 -0.3821 -0.2408  0.6936
 2091TIP3   OH227687   1.904   1.403  10.659  0.0096 -0.3450  0.2237
 2091TIP3    H127688   1.833   1.340  10.669 -0.1852 -0.1364  0.1559
 2091TIP3    H227689   1.860   1.486  10.639  0.1851  0.1173  1.6658
 2092TIP3   OH227690   1.127   6.032  12.661  0.3000 -0.5852  0.3899
 2092TIP3    H127691   1.218   6.050  12.684  0.0770  0.2944  0.6218
 2092TIP3    H227692   1.118   6.067  12.572 -0.4011  1.4297  1.2115
 2093TIP3   OH227693   0.972   6.975  10.947 -0.0171  0.0247  0.2967
 2093TIP3    H127694   0.938   7.050  10.898 -0.4078 -0.1797  0.2465
 2093TIP3    H227695   1.065   6.994  10.960  0.1037  0.0481 -0.5777
 2094TIP3   OH227696   5.588   3.596  12.445 -0.0125  0.0719 -0.0398
 2094TIP3    H127697   5.610   3.674  12.394 -1.4582  0.0444 -0.7703
 2094TIP3    H227698   5.647   3.528  12.411  0.4022  0.5528 -0.2834
 2095TIP3   OH227699   0.952   5.963   2.664  0.1285 -0.3753 -0.0660
 2095TIP3    H127700   0.948   5.942   2.570  0.9950  0.0986 -0.2267
 2095TIP3    H227701   0.950   6.058   2.667  1.7594 -0.3201  0.2698
 2096TIP3   OH227702   2.163   2.439   2.358  0.1549  0.5182  0.2042
 2096TIP3    H127703   2.123   2.395   2.284  0.7828  0.5832 -0.1816
 2096TIP3    H227704   2.248   2.470   2.325 -0.3574  2.2173  0.3912
 2097TIP3   OH227705   6.219   4.924  12.767 -0.2489 -0.2488 -0.0471
 2097TIP3    H127706   6.273   4.857  12.809  0.7253  0.6039  0.1014
 2097TIP3    H227707   6.271   4.953  12.692 -0.1626  1.0545  0.4782
 2098TIP3   OH227708   6.806   5.445  11.864  0.0306  0.0042 -0.4326
 2098TIP3    H127709   6.732   5.446  11.925 -1.0930 -3.5952 -1.4943
 2098TIP3    H227710   6.774   5.493  11.787  0.2220  1.6297  0.4632
 2099TIP3   OH227711   0.775   3.529  14.028 -0.0583  0.0552  0.2865
 2099TIP3    H127712   0.697   3.479  14.049 -1.4065  1.6578 -0.6503
 2099TIP3    H227713   0.775   3.535  13.933  0.2147  1.5344  0.3540
 2100TIP3   OH227714   6.571   4.255  11.678  0.3117  0.0722 -0.3714
 2100TIP3    H127715   6.560   4.178  11.734 -0.5142  1.3578  1.3417
 2100TIP3    H227716   6.661   4.284  11.694  0.0467  0.4922  0.3956
 2101TIP3   OH227717   1.896   4.106  11.206  0.1227 -0.2724 -0.1195
 2101TIP3    H127718   1.975   4.145  11.244  0.3615 -0.7746 -0.0993
 2101TIP3    H227719   1.895   4.016  11.238 -0.2973 -0.3584 -0.3630
 2102TIP3   OH227720   4.994   1.539  10.365 -0.7837  0.3682 -0.2597
 2102TIP3    H127721   5.028   1.565  10.279 -0.9470  0.2638 -0.3573
 2102TIP3    H227722   4.941   1.461  10.347 -1.3340  0.7122 -0.1606
 2103TIP3   OH227723   5.911   1.692   1.528 -0.1528  0.4824  0.5494
 2103TIP3    H127724   6.006   1.695   1.539  0.0626 -3.0072  0.6018
 2103TIP3    H227725   5.877   1.668   1.614 -1.2263  2.3899  0.7155
 2104TIP3   OH227726   2.374   3.086  14.012  0.5847  0.0444  0.0129
 2104TIP3    H127727   2.429   3.035  14.072  1.6264  1.3567  0.2156
 2104TIP3    H227728   2.393   3.049  13.926  3.2416  1.6240 -0.1729
 2105TIP3   OH227729   4.977   3.513  11.948 -0.7271  0.1977  0.2998
 2105TIP3    H127730   5.013   3.514  12.037 -0.0700 -0.1880  0.0512
 2105TIP3    H227731   4.999   3.599  11.912  1.0110 -0.4204 -0.2370
 2106TIP3   OH227732   1.470   6.450  10.371 -1.1664  0.0755 -0.3609
 2106TIP3    H127733   1.411   6.476  10.441 -3.3327 -1.3091 -1.5848
 2106TIP3    H227734   1.415   6.441  10.293  0.3202 -2.6535 -1.2666
 2107TIP3   OH227735   3.829   3.351  10.861  0.0544 -0.1885  0.5824
 2107TIP3    H127736   3.864   3.439  10.878 -2.6753  0.7016  2.2915
 2107TIP3    H227737   3.771   3.334  10.935 -1.0194 -2.6368 -0.7153
 2108TIP3   OH227738   2.464   1.440  12.052  0.7228 -0.0382  0.0912
 2108TIP3    H127739   2.533   1.467  12.113  0.6463  1.0839 -0.2813
 2108TIP3    H227740   2.505   1.447  11.966  0.8223 -1.5839  0.0028
 2109TIP3   OH227741   6.665   6.757  11.767  0.2473 -0.4617 -0.2423
 2109TIP3    H127742   6.681   6.700  11.691  3.0887  1.5047 -1.3087
 2109TIP3    H227743   6.610   6.827  11.732  0.5589 -0.1838 -0.1754
 2110TIP3   OH227744   1.977   0.174  10.050  0.0091 -0.0715  0.5171
 2110TIP3    H127745   1.956   0.082  10.032 -1.1701  0.3564 -0.4248
 2110TIP3    H227746   2.008   0.208   9.966  0.1113  0.4797  0.7750
 2111TIP3   OH227747   3.831   3.003   9.833  0.3819 -0.0508 -0.1757
 2111TIP3    H127748   3.824   3.085   9.785  0.8694 -0.5153 -1.0604
 2111TIP3    H227749   3.900   3.019   9.898  0.8750  0.0600 -0.7234
 2112TIP3   OH227750   1.704   5.806  10.393  0.3797  0.2674 -0.3682
 2112TIP3    H127751   1.635   5.861  10.430 -0.3233  0.3652 -1.7298
 2112TIP3    H227752   1.673   5.717  10.407 -1.1495  0.3024 -2.7812
 2113TIP3   OH227753   1.931   4.416  13.843 -0.2639  0.5569  0.1924
 2113TIP3    H127754   1.904   4.376  13.926 -0.3143 -1.1636 -0.6066
 2113TIP3    H227755   1.852   4.461  13.812 -0.4285  0.6784  0.7707
 2114TIP3   OH227756   6.060   6.986  13.867 -0.3417 -0.0480 -0.0992
 2114TIP3    H127757   6.023   6.899  13.877 -1.3588  0.1076 -2.0151
 2114TIP3    H227758   6.081   6.993  13.773  3.3806  0.3613  0.5761
 2115TIP3   OH227759   5.524   0.429  13.050 -0.2799  0.4624 -0.4840
 2115TIP3    H127760   5.434   0.402  13.067 -0.1760 -0.6194 -1.5587
 2115TIP3    H227761   5.527   0.521  13.077 -1.2438  0.0610  1.1229
 2116TIP3   OH227762   0.489   6.765  11.110 -0.2367 -0.0685  0.3495
 2116TIP3    H127763   0.569   6.795  11.067  1.7598 -0.6461  3.3306
 2116TIP3    H227764   0.463   6.686  11.062  0.4847  0.5830 -1.1594
 2117TIP3   OH227765   1.731   3.460  10.489  0.4440 -0.7326 -0.0745
 2117TIP3    H127766   1.777   3.540  10.463  1.2967 -1.2379 -0.1461
 2117TIP3    H227767   1.638   3.479  10.473  0.4545  0.8462  1.4655
 2118TIP3   OH227768   2.417   5.941  11.652  0.1418 -0.6142  0.0411
 2118TIP3    H127769   2.505   5.957  11.685 -0.4295  0.8958  0.9556
 2118TIP3    H227770   2.360   5.965  11.725 -1.0742  0.1726 -1.1263
 2119TIP3   OH227771   2.261   0.209  11.092 -0.3788  0.0337 -0.0722
 2119TIP3    H127772   2.296   0.148  11.157 -1.2580 -1.0617 -0.5902
 2119TIP3    H227773   2.169   0.218  11.115 -0.4065  0.6739 -0.3978
 2120TIP3   OH227774   6.828   0.228  13.666  0.0144  0.0413  0.0427
 2120TIP3    H127775   6.829   0.229  13.571  0.5120  1.6011  0.0308
 2120TIP3    H227776   6.848   0.318  13.691  0.5554 -0.4810  1.6313
 2121TIP3   OH227777   2.484   2.160  12.616  0.5780  0.4193 -0.3682
 2121TIP3    H127778   2.505   2.210  12.538 -3.3265  2.1641 -0.5454
 2121TIP3    H227779   2.512   2.216  12.689  3.2358 -0.7359 -0.4010
 2122TIP3   OH227780   6.307   6.126  10.585  1.0068  0.4413 -0.2839
 2122TIP3    H127781   6.376   6.192  10.589 -0.6195  2.1739  2.1453
 2122TIP3    H227782   6.227   6.174  10.607 -1.1479 -1.3600 -3.4986
 2123TIP3   OH227783   6.713   2.614  11.530  0.3534 -0.3025  0.6088
 2123TIP3    H127784   6.781   2.557  11.494  0.2195 -0.1178  0.0452
 2123TIP3    H227785   6.761   2.684  11.574  0.6102  1.0466 -1.6486
 2124TIP3   OH227786   7.037   1.112  11.639 -0.3255  0.1215  0.5442
 2124TIP3    H127787   7.069   1.075  11.721 -0.0333  0.8414  0.7583
 2124TIP3    H227788   7.082   1.195  11.630 -0.2953  0.0241 -0.3918
 2125TIP3   OH227789   4.159   0.792   9.791 -0.0180  0.3160 -0.2980
 2125TIP3    H127790   4.139   0.875   9.835 -3.6692 -0.4712 -0.1529
 2125TIP3    H227791   4.139   0.808   9.699 -2.2492 -0.7482 -0.0398
 2126TIP3   OH227792   0.817   5.158   9.831  0.0882 -0.0780  0.0100
 2126TIP3    H127793   0.818   5.125   9.741  0.7465  0.1018 -0.0484
 2126TIP3    H227794   0.789   5.082   9.883  0.0213 -0.2743 -0.3058
 2127TIP3   OH227795   3.577   1.071  10.984 -0.6246 -0.1898 -0.7515
 2127TIP3    H127796   3.500   1.126  10.995 -0.7972 -0.3752 -1.0166
 2127TIP3    H227797   3.548   0.984  11.012  0.2941  0.2613  1.9738
 2128TIP3   OH227798   2.908   1.531  12.680  0.3950 -0.4248  0.6493
 2128TIP3    H127799   3.003   1.547  12.682  0.1669  1.1414  0.2290
 2128TIP3    H227800   2.879   1.573  12.599 -0.6922 -0.7259  0.8716
 2129TIP3   OH227801   3.788   2.902  10.181 -0.1959  0.0993 -0.3496
 2129TIP3    H127802   3.706   2.905  10.132 -0.7193  1.3547  0.5432
 2129TIP3    H227803   3.851   2.948  10.126 -0.2578 -0.2761 -0.7391
 2130TIP3   OH227804   3.421   5.117  10.757  0.0319 -0.0114  0.6598
 2130TIP3    H127805   3.350   5.055  10.738 -0.7713  0.1715  2.6939
 2130TIP3    H227806   3.494   5.089  10.703 -1.9759  0.6825 -2.7130
 2131TIP3   OH227807   4.383   4.324   9.890 -0.4628  0.1014  0.0989
 2131TIP3    H127808   4.302   4.283   9.859 -0.5604 -1.4374  2.1591
 2131TIP3    H227809   4.432   4.345   9.810 -2.3504 -0.0069 -1.1522
 2132TIP3   OH227810   2.079   2.713  10.443 -0.4204 -0.1390  0.0480
 2132TIP3    H127811   2.119   2.747  10.363 -0.0426 -0.2716  0.1808
 2132TIP3    H227812   1.987   2.701  10.421 -0.4730  0.5710 -0.1307
 2133TIP3   OH227813   3.039   2.196  13.454  0.2359  0.1603  0.3256
 2133TIP3    H127814   3.057   2.243  13.372  0.2730  1.4132  1.0246
 2133TIP3    H227815   3.126   2.173  13.487  0.3800  1.7828  1.1862
 2134TIP3   OH227816   0.348   4.510  11.546 -0.0913 -0.8119 -0.6565
 2134TIP3    H127817   0.308   4.429  11.576  0.5276 -1.3671 -1.2995
 2134TIP3    H227818   0.373   4.556  11.627  1.9017 -2.4590 -0.2676
 2135TIP3   OH227819   0.756   3.159   9.884 -0.1759 -0.3216  0.0753
 2135TIP3    H127820   0.760   3.254   9.875  1.3905 -0.3445  0.1410
 2135TIP3    H227821   0.735   3.126   9.796 -1.1257  0.0857  0.1410
 2136TIP3   OH227822   7.174   5.310  14.903  0.1040 -0.3484 -0.1995
 2136TIP3    H127823   7.106   5.342  14.963 -1.6581 -1.6303 -1.3888
 2136TIP3    H227824   7.172   5.372  14.830 -0.1402 -0.6224 -0.4335
 2137TIP3   OH227825   7.003   5.101   0.956  0.2215  0.5099  0.1926
 2137TIP3    H127826   7.010   5.196   0.948  1.8032  0.4678  0.7231
 2137TIP3    H227827   7.093   5.071   0.969 -0.1139 -1.1631 -0.8925
 2138TIP3   OH227828   5.655   0.000  13.658  0.4018  0.1213  0.1835
 2138TIP3    H127829   5.715  -0.039  13.594  3.1466  0.5059  2.3151
 2138TIP3    H227830   5.627  -0.073  13.713  2.7389  0.4627  2.0037
 2139TIP3   OH227831   4.283   0.912  10.800  0.4138  0.3911  0.3445
 2139TIP3    H127832   4.284   0.993  10.851  1.1544 -0.2804  1.4173
 2139TIP3    H227833   4.193   0.904  10.770  0.3159  1.5734  0.2841
 2140TIP3   OH227834   1.409   1.512  13.218  0.0065 -0.0373 -0.2836
 2140TIP3    H127835   1.349   1.495  13.291  1.1273  0.1741  0.7116
 2140TIP3    H227836   1.459   1.588  13.245  1.2849 -0.6885 -0.7417
 2141TIP3   OH227837   2.004   0.762  12.564  0.2128 -0.4322 -0.8168
 2141TIP3    H127838   1.952   0.796  12.491 -0.7719 -0.7889 -0.3053
 2141TIP3    H227839   1.939   0.732  12.627  1.0449  0.3595  0.4562
 2142TIP3   OH227840   5.779   4.054  11.600 -0.2965 -0.5719  0.7347
 2142TIP3    H127841   5.809   3.985  11.541 -0.2546  1.0466 -1.2512
 2142TIP3    H227842   5.817   4.134  11.564 -0.5788  0.5497  2.7863
 2143TIP3   OH227843   6.527   4.002  14.273 -0.2466  0.0307 -0.0243
 2143TIP3    H127844   6.564   3.913  14.268 -1.1094 -0.4020  0.8710
 2143TIP3    H227845   6.450   3.999  14.217  0.0122  0.3801 -0.4058
 2144TIP3   OH227846   3.207   3.156   9.649  0.4472  0.0190 -0.0640
 2144TIP3    H127847   3.126   3.206   9.646  0.6647  0.3487 -1.1125
 2144TIP3    H227848   3.274   3.220   9.675  0.7763  0.3837 -1.7039
 2145TIP3   OH227849   3.702   4.493   3.249 -0.2367 -0.2185 -0.4940
 2145TIP3    H127850   3.615   4.492   3.210 -0.5168 -0.7741  0.1189
 2145TIP3    H227851   3.697   4.429   3.320  0.9458 -0.9787 -1.0588
 2146TIP3   OH227852   2.484   7.201  13.436  0.4651  0.3235 -0.3240
 2146TIP3    H127853   2.475   7.123  13.382  1.2775  0.0826 -0.1293
 2146TIP3    H227854   2.476   7.274  13.374 -1.3023  0.1348 -0.3618
 2147TIP3   OH227855   5.310   7.117  11.731 -0.1867 -0.0591 -0.1403
 2147TIP3    H127856   5.290   7.031  11.768 -0.6457  0.7547  1.5713
 2147TIP3    H227857   5.242   7.175  11.765  1.1381  1.3569  0.1841
 2148TIP3   OH227858   3.271   0.026   9.415 -0.1419 -0.3522 -0.1988
 2148TIP3    H127859   3.349   0.063   9.455 -1.3227  1.6114  0.4320
 2148TIP3    H227860   3.278  -0.068   9.429  0.8399  0.0164  2.1655
 2149TIP3   OH227861   4.055   6.824  11.332  0.0947  0.0443 -0.0740
 2149TIP3    H127862   4.056   6.876  11.412 -3.6804  2.1469 -1.1674
 2149TIP3    H227863   4.110   6.873  11.271  0.5726  0.0414  0.3490
 2150TIP3   OH227864   5.899   4.029  10.116  0.0132  1.1780 -0.5682
 2150TIP3    H127865   5.910   3.990  10.029 -2.3105  1.2142 -0.9584
 2150TIP3    H227866   5.952   4.108  10.114 -0.3290  1.4068 -2.1484
 2151TIP3   OH227867   1.494   3.596  10.475  0.4609 -0.2886  0.3720
 2151TIP3    H127868   1.403   3.610  10.449 -0.3497 -0.5453  2.8682
 2151TIP3    H227869   1.515   3.669  10.533  1.6904 -0.5250  0.2702
 2152TIP3   OH227870   6.195   5.522  12.508 -0.1816 -0.2595  0.0642
 2152TIP3    H127871   6.244   5.556  12.433  0.6221 -1.4359  0.0258
 2152TIP3    H227872   6.257   5.521  12.580 -0.6483 -0.1308  0.4759
 2153TIP3   OH227873   2.565   3.153   1.007  0.1265 -0.1402 -0.2262
 2153TIP3    H127874   2.601   3.107   0.932  0.8080 -0.0970  0.0684
 2153TIP3    H227875   2.607   3.112   1.083 -1.3665 -0.9246  0.2151
 2154TIP3   OH227876   5.125   5.132  13.137  0.4867  0.0873  0.1452
 2154TIP3    H127877   5.083   5.184  13.068 -1.0367 -1.1633  0.0963
 2154TIP3    H227878   5.091   5.169  13.219 -1.0772 -1.1511  0.0999
 2155TIP3   OH227879   0.952   6.518  12.282 -0.4703 -0.1269 -0.2029
 2155TIP3    H127880   0.910   6.604  12.282  0.9062  0.6221 -1.8981
 2155TIP3    H227881   0.939   6.486  12.193  1.0357 -0.5992 -0.2760
 2156TIP3   OH227882   5.900   3.979  11.826 -0.2736  0.2409 -0.1536
 2156TIP3    H127883   5.838   4.008  11.758 -3.2820  0.4339  2.4191
 2156TIP3    H227884   5.882   3.885  11.835  0.4743  0.1132  0.0054
 2157TIP3   OH227885   4.944   4.859  11.235  0.2230 -0.8503  0.0905
 2157TIP3    H127886   4.923   4.880  11.145  1.8224  0.8839  0.0658
 2157TIP3    H227887   4.955   4.764  11.236  0.8535 -0.8198 -1.6932
 2158TIP3   OH227888   3.950   2.966  10.690 -0.7123 -0.0015  0.0962
 2158TIP3    H127889   3.881   2.974  10.625  1.0818  0.5287 -1.8334
 2158TIP3    H227890   3.957   2.872  10.708 -0.3430 -0.3150 -1.5335
 2159TIP3   OH227891   7.181   0.624  11.627  0.0791 -1.3105  0.2042
 2159TIP3    H127892   7.259   0.679  11.625 -1.1460  0.5337  1.0002
 2159TIP3    H227893   7.193   0.562  11.555  0.8283  0.9269 -1.6909
 2160TIP3   OH227894   2.339   5.181   9.485 -0.2335 -1.2055  0.1061
 2160TIP3    H127895   2.307   5.214   9.401  0.0680 -0.3748  0.3000
 2160TIP3    H227896   2.434   5.197   9.483  0.0146 -2.6142 -0.0169
 2161TIP3   OH227897   2.302   3.073  11.771  0.6213  0.4378  0.3470
 2161TIP3    H127898   2.361   3.113  11.708  0.6252 -2.0656 -1.3763
 2161TIP3    H227899   2.324   3.114  11.854  4.4332  0.0470 -0.2831
 2162TIP3   OH227900   4.752   4.262   9.819 -0.2565 -0.5012 -0.6776
 2162TIP3    H127901   4.835   4.228   9.785  1.0711  0.8574  1.0001
 2162TIP3    H227902   4.745   4.350   9.781 -0.4872 -0.2833 -0.1398
 2163TIP3   OH227903   5.408   4.490  14.050  0.5169 -0.1988 -0.2042
 2163TIP3    H127904   5.462   4.544  14.107  0.8514  0.4724 -1.1366
 2163TIP3    H227905   5.470   4.433  14.004  0.5367  0.9765 -1.7091
 2164TIP3   OH227906   0.963   1.811  14.556 -0.8404 -0.0244  0.4857
 2164TIP3    H127907   1.048   1.790  14.594  0.3047 -2.3834 -2.9357
 2164TIP3    H227908   0.971   1.903  14.530  0.0607  0.2048  1.4852
 2165TIP3   OH227909   4.394   3.114  10.425  0.5295 -0.1891 -0.1475
 2165TIP3    H127910   4.473   3.077  10.386  1.2293  1.6362 -0.6003
 2165TIP3    H227911   4.419   3.135  10.515  0.4034 -0.0527 -0.1441
 2166TIP3   OH227912   5.041   3.590  12.896 -0.1404  0.4538 -0.0864
 2166TIP3    H127913   4.978   3.662  12.898 -0.8351 -0.1540  1.1620
 2166TIP3    H227914   5.067   3.583  12.804 -0.6352  1.7943 -0.3483
 2167TIP3   OH227915   2.521   7.028  12.148 -0.0344 -0.3664 -0.1746
 2167TIP3    H127916   2.453   7.093  12.168 -1.0315 -0.3343 -3.1195
 2167TIP3    H227917   2.498   6.952  12.202 -0.6360  0.6559  1.0599
 2168TIP3   OH227918   3.517   0.236  11.863  0.4208 -0.2418  0.0900
 2168TIP3    H127919   3.492   0.319  11.823  0.5984  0.6608  1.7441
 2168TIP3    H227920   3.576   0.261  11.934  1.7612 -1.9233 -0.3589
 2169TIP3   OH227921   4.742   0.237  10.167 -0.1970 -0.4647 -0.2127
 2169TIP3    H127922   4.759   0.198  10.253 -0.5588 -1.6810 -0.6679
 2169TIP3    H227923   4.700   0.321  10.186 -0.6803 -0.9157  0.7990
 2170TIP3   OH227924   2.667   4.273  11.660 -0.1571 -1.0711 -0.2060
 2170TIP3    H127925   2.671   4.303  11.751 -2.1487 -0.2939 -0.3307
 2170TIP3    H227926   2.758   4.278  11.630  0.6439 -1.8210  1.8570
 2171TIP3   OH227927   1.627   5.700  11.489 -0.0373 -0.2327  0.3211
 2171TIP3    H127928   1.710   5.746  11.498 -1.0753  1.7314  0.2188
 2171TIP3    H227929   1.568   5.762  11.448 -1.1867 -2.0818 -0.9951
 2172TIP3   OH227930   2.445   4.230   0.241 -0.4756  0.2827  0.2744
 2172TIP3    H127931   2.534   4.236   0.206  0.0538  2.7966  1.7937
 2172TIP3    H227932   2.388   4.231   0.164  0.7393  1.7075 -0.6487
 2173TIP3   OH227933   6.322   0.629  10.979 -0.2462 -0.4881  0.5733
 2173TIP3    H127934   6.378   0.563  10.938  0.0885 -1.3007  2.2488
 2173TIP3    H227935   6.234   0.591  10.977 -0.5122  0.1497 -0.7387
 2174TIP3   OH227936   4.852   6.081  10.752  0.2872  0.7014  0.5660
 2174TIP3    H127937   4.886   6.158  10.706  0.3711 -0.2186 -1.0169
 2174TIP3    H227938   4.862   6.010  10.688 -0.3080 -0.5048  1.7754
 2175TIP3   OH227939   0.582   5.667  11.461 -0.6896 -0.0280 -0.0054
 2175TIP3    H127940   0.585   5.702  11.550 -3.3746 -0.7493  0.4429
 2175TIP3    H227941   0.630   5.731  11.409 -1.3344  1.8237  1.5503
 2176TIP3   OH227942   0.875   2.705   0.344 -0.1819 -0.1233  0.2649
 2176TIP3    H127943   0.821   2.782   0.325 -1.7790 -1.4440 -0.9093
 2176TIP3    H227944   0.954   2.717   0.291  0.5576  1.6453  1.6771
 2177TIP3   OH227945   3.957   1.767  14.996 -0.2721  0.0335  0.3145
 2177TIP3    H127946   3.995   1.734  15.077 -0.9060  0.4464  0.7924
 2177TIP3    H227947   3.984   1.859  14.992  0.9090 -0.3254 -0.6594
 2178TIP3   OH227948   0.164   1.341  14.478  0.4469 -0.2542 -0.2187
 2178TIP3    H127949   0.156   1.434  14.461  0.9224 -0.3003 -0.7147
 2178TIP3    H227950   0.240   1.332  14.535  0.3254 -0.3256 -0.0669
 2179TIP3   OH227951   1.356   6.715  12.438 -0.3770  0.4140  0.0996
 2179TIP3    H127952   1.323   6.673  12.359  1.2221 -0.5633 -0.0876
 2179TIP3    H227953   1.342   6.651  12.507  0.0368  0.4769  0.2403
 2180TIP3   OH227954   5.316   1.563  12.777 -0.8794  0.1173  0.0893
 2180TIP3    H127955   5.279   1.538  12.861 -0.2437 -1.3372 -0.0226
 2180TIP3    H227956   5.312   1.482  12.725 -0.1429  0.6681 -0.8529
 2181TIP3   OH227957   3.815   2.518  11.376  0.4906  0.0345  0.0457
 2181TIP3    H127958   3.787   2.437  11.419 -0.4711  1.3651  2.0715
 2181TIP3    H227959   3.910   2.514  11.375  0.4466 -1.5175 -0.7620
 2182TIP3   OH227960   2.479   6.701  10.631  0.3249 -0.6374  0.5327
 2182TIP3    H127961   2.453   6.661  10.548  0.6327  3.7170 -1.9925
 2182TIP3    H227962   2.399   6.701  10.684 -0.4967 -1.5439 -0.6579
 2183TIP3   OH227963   7.091   4.998  11.326 -0.1329  0.2654 -0.5273
 2183TIP3    H127964   7.083   4.903  11.325  1.2740  0.1117  0.6427
 2183TIP3    H227965   7.028   5.027  11.392 -0.4581  0.1505 -0.7821
 2184TIP3   OH227966   4.458   3.338  12.165 -0.0078 -0.4024  0.1111
 2184TIP3    H127967   4.437   3.256  12.209 -0.0256 -1.0730 -1.1115
 2184TIP3    H227968   4.511   3.312  12.090  1.1134  0.8299  0.4444
 2185TIP3   OH227969   5.872   2.017   0.309  0.1007 -0.1520  0.6773
 2185TIP3    H127970   5.828   1.956   0.250 -0.1282  0.3880  0.2777
 2185TIP3    H227971   5.803   2.079   0.334  0.8365  1.3073 -0.7500
 2186TIP3   OH227972   6.239   3.417  14.475 -0.0304 -0.0023 -0.5164
 2186TIP3    H127973   6.319   3.378  14.512  1.0015  4.1757  2.3625
 2186TIP3    H227974   6.268   3.458  14.394  1.0096  1.8310  0.7059
 2187TIP3   OH227975   4.336   0.359  11.602 -0.0922  0.2671 -0.5432
 2187TIP3    H127976   4.240   0.360  11.608 -0.1395 -1.1970 -0.7919
 2187TIP3    H227977   4.357   0.432  11.544 -1.1386 -0.0389 -1.3366
 2188TIP3   OH227978   6.916   6.008  11.061 -0.0564  0.6265 -0.1600
 2188TIP3    H127979   6.990   5.958  11.028 -0.6646  0.5395 -1.4490
 2188TIP3    H227980   6.851   6.004  10.991 -1.3922  0.4764  1.0357
 2189TIP3   OH227981   0.758   7.126   9.588  0.0814 -0.3820  0.1804
 2189TIP3    H127982   0.813   7.202   9.611 -1.8928  1.2405 -0.1734
 2189TIP3    H227983   0.692   7.123   9.657 -0.4169 -1.2435 -0.3220
 2190TIP3   OH227984   7.192   0.148  11.653 -0.3278 -0.4390  0.4414
 2190TIP3    H127985   7.115   0.205  11.658  0.2648  1.0490 -3.4830
 2190TIP3    H227986   7.265   0.208  11.644  0.7398 -1.8293 -0.5416
 2191TIP3   OH227987   1.255   2.585  11.983  0.2133  0.1388 -0.1618
 2191TIP3    H127988   1.270   2.671  11.944  1.0322 -0.4512 -1.2018
 2191TIP3    H227989   1.199   2.602  12.059 -0.4065  1.4717 -0.8906
 2192TIP3   OH227990   0.638   5.817  11.704  0.2632  0.1295  0.2608
 2192TIP3    H127991   0.706   5.884  11.702  0.5854 -0.1307  1.4593
 2192TIP3    H227992   0.575   5.848  11.769  0.1010 -0.4214  0.3795
 2193TIP3   OH227993   3.665   2.198  10.961  0.3045 -0.6151 -0.0426
 2193TIP3    H127994   3.619   2.147  11.028  0.5530 -0.4846  0.2287
 2193TIP3    H227995   3.706   2.269  11.009 -1.2299  0.6981 -0.5942
 2194TIP3   OH227996   4.697   2.157  14.694  0.0757  0.3796 -0.4551
 2194TIP3    H127997   4.737   2.119  14.773  0.7858  1.3821 -0.3093
 2194TIP3    H227998   4.692   2.084  14.633  1.1717 -0.0179 -0.0966
 2195TIP3   OH227999   1.868   5.206   9.626  0.2980 -0.3834 -0.1873
 2195TIP3    H128000   1.779   5.204   9.591  0.2822  2.0153 -0.4846
 2195TIP3    H228001   1.871   5.285   9.680  1.9798 -0.9448  0.6186
 2196TIP3   OH228002   6.042   0.227  10.350  0.6936 -0.1847  0.7973
 2196TIP3    H128003   6.043   0.147  10.402 -1.5065 -0.6086  0.2931
 2196TIP3    H228004   6.065   0.297  10.412  0.3174 -0.9309  1.7891
 2197TIP3   OH228005   5.170   1.136  11.224 -0.1865 -0.6841  0.0956
 2197TIP3    H128006   5.183   1.078  11.150  4.0655 -1.6411  1.3237
 2197TIP3    H228007   5.191   1.223  11.190 -0.5991 -0.7585 -0.3572
 2198TIP3   OH228008   7.001   0.132  11.974  0.0783  0.0031  0.3444
 2198TIP3    H128009   6.942   0.062  11.947 -0.1062 -0.1340  1.1033
 2198TIP3    H228010   7.000   0.193  11.900 -0.2147 -0.4999 -0.0755
 2199TIP3   OH228011   3.459   6.853  10.172  0.3106  0.1091 -0.0412
 2199TIP3    H128012   3.443   6.935  10.125 -0.6422 -0.3949 -0.6262
 2199TIP3    H228013   3.525   6.876  10.238  0.3882  1.2375 -0.4822
 2200TIP3   OH228014   2.264   1.837  11.769 -0.0743 -0.2514 -0.4312
 2200TIP3    H128015   2.289   1.792  11.850 -3.0850 -1.4081 -0.0169
 2200TIP3    H228016   2.346   1.851  11.723  1.4647 -2.0864  1.5506
 2201TIP3   OH228017   4.687   1.916  13.499 -0.3575  0.2228 -0.0636
 2201TIP3    H128018   4.738   1.968  13.438 -0.4126  1.3066  0.7801
 2201TIP3    H228019   4.700   1.959  13.584 -0.5516 -1.0344  0.6286
 2202TIP3   OH228020   3.944   6.939  10.543  0.0627 -0.6304  0.1315
 2202TIP3    H128021   4.023   6.985  10.573 -0.6523 -0.6729  2.1522
 2202TIP3    H228022   3.945   6.856  10.590 -1.3108 -0.5295  0.3673
 2203TIP3   OH228023   1.335   0.156  10.121  0.2493 -0.1694  0.4217
 2203TIP3    H128024   1.279   0.084  10.092 -0.5862  0.1085  1.2937
 2203TIP3    H228025   1.380   0.122  10.198 -0.5077  0.3756  1.1244
 2204TIP3   OH228026   1.056   2.397  10.897 -0.4986  0.2043  0.3843
 2204TIP3    H128027   0.993   2.457  10.857 -1.8759 -1.1028  0.5356
 2204TIP3    H228028   1.125   2.388  10.831 -0.8591  1.0225 -0.1242
 2205TIP3   OH228029   6.306   6.680   2.792  0.1551  0.1392  0.0138
 2205TIP3    H128030   6.376   6.721   2.741 -0.7411  4.5101  1.8164
 2205TIP3    H228031   6.343   6.672   2.880 -0.2669 -1.6017  0.0588
 2206TIP3   OH228032   3.763   4.468   9.908  0.9307 -0.1733  0.7027
 2206TIP3    H128033   3.725   4.490   9.823  1.3612  0.7062  0.7310
 2206TIP3    H228034   3.851   4.436   9.887  1.0457  0.0673  0.8229
 2207TIP3   OH228035   2.960   0.583  10.461  0.4343  0.6524  0.3471
 2207TIP3    H128036   2.989   0.649  10.398 -2.2149  1.1381 -0.4674
 2207TIP3    H228037   2.967   0.626  10.546  1.5249  0.9044  0.1479
 2208TIP3   OH228038   3.932   7.021  10.236 -0.1889  0.0579 -0.5145
 2208TIP3    H128039   3.837   7.028  10.231 -0.1562  2.0322  0.6147
 2208TIP3    H228040   3.952   7.032  10.329  1.0487 -2.4914 -0.4211
 2209TIP3   OH228041   2.867   4.739  12.182 -0.0542 -0.3603 -0.5255
 2209TIP3    H128042   2.915   4.666  12.222 -1.3554 -1.0682 -0.1881
 2209TIP3    H228043   2.900   4.744  12.093  0.4975 -0.9672 -0.3603
 2210TIP3   OH228044   1.769   0.741  10.766 -0.2405  0.1547 -0.4696
 2210TIP3    H128045   1.750   0.819  10.715  0.0637 -0.1774 -1.1129
 2210TIP3    H228046   1.730   0.757  10.852 -1.0559  0.5862 -0.9146
 2211TIP3   OH228047   3.768   3.460  10.365 -0.4382  0.6993  0.1763
 2211TIP3    H128048   3.762   3.432  10.456 -0.6482 -2.1414 -0.5882
 2211TIP3    H228049   3.695   3.519  10.352 -2.4507 -1.4177  1.1095
 2212TIP3   OH228050   7.196   2.589  10.569 -0.2356 -0.0901 -0.3830
 2212TIP3    H128051   7.145   2.509  10.560  0.8044 -0.7914 -0.2037
 2212TIP3    H228052   7.279   2.570  10.525  0.2008  0.7304  0.0520
 2213TIP3   OH228053   3.259   3.634   0.680 -0.2796  0.0885  0.4055
 2213TIP3    H128054   3.167   3.609   0.679 -0.5518  1.0631  0.1915
 2213TIP3    H228055   3.301   3.569   0.736 -0.5636 -2.1392 -1.8001
 2214TIP3   OH228056   3.816   4.550  12.953 -0.3223 -0.5870 -0.2696
 2214TIP3    H128057   3.805   4.455  12.946 -0.3947 -0.6056  0.0846
 2214TIP3    H228058   3.838   4.565  13.045  2.2795 -0.4975 -0.8473
 2215TIP3   OH228059   7.205   5.034  10.868 -0.1363  0.2607 -1.0083
 2215TIP3    H128060   7.218   4.974  10.794 -1.2437 -2.2414  0.6773
 2215TIP3    H228061   7.166   4.979  10.936 -3.5141  3.4566 -0.1024
 2216TIP3   OH228062   0.812   0.670  12.574 -0.1349  0.2277 -0.2333
 2216TIP3    H128063   0.752   0.694  12.645  0.1437 -2.4749  1.0305
 2216TIP3    H228064   0.758   0.619  12.514  0.1906  0.5273 -0.7888
 2217TIP3   OH228065   2.254   4.260  13.198 -0.3424  0.2119  0.4656
 2217TIP3    H128066   2.231   4.187  13.141  1.8618 -0.2810  0.0997
 2217TIP3    H228067   2.346   4.277  13.179 -0.4324  2.2083  1.5394
 2218TIP3   OH228068   6.546   3.623   2.152  0.1543 -0.0681  0.0220
 2218TIP3    H128069   6.578   3.679   2.081 -0.2968  0.4886  0.2515
 2218TIP3    H228070   6.467   3.667   2.183  1.4246  0.8224  2.2367
 2219TIP3   OH228071   5.758   5.480  10.848  0.0605  0.7133 -0.3744
 2219TIP3    H128072   5.745   5.471  10.943 -2.2277  1.6169 -0.5530
 2219TIP3    H228073   5.836   5.427  10.830 -1.8777 -3.1004  1.3501
 2220TIP3   OH228074   4.495   2.930  12.919 -0.0462  0.0879  0.2151
 2220TIP3    H128075   4.580   2.893  12.940  0.0131 -0.5481 -1.0712
 2220TIP3    H228076   4.439   2.907  12.994 -0.0049 -2.5972 -0.4814
 2221TIP3   OH228077   1.421   5.091  10.549 -0.3639  0.1193  0.0190
 2221TIP3    H128078   1.482   5.079  10.622  1.0693 -0.7831 -1.2692
 2221TIP3    H228079   1.367   5.165  10.576  0.9751  0.6491  1.4410
 2222TIP3   OH228080   6.008   0.406   0.927  0.0534  0.0799  0.5562
 2222TIP3    H128081   5.987   0.461   1.003 -1.4661  2.1918 -1.2728
 2222TIP3    H228082   6.000   0.465   0.852  4.5813 -1.0699 -1.1279
 2223TIP3   OH228083   0.137   5.464  10.465  0.0673 -0.1468  0.0799
 2223TIP3    H128084   0.197   5.457  10.539  0.3200 -0.9851 -0.1919
 2223TIP3    H228085   0.151   5.553  10.431 -0.3963  0.4211  1.3085
 2224TIP3   OH228086   4.895   3.760  13.333  0.1539 -0.2605  0.5450
 2224TIP3    H128087   4.863   3.809  13.257 -0.1198 -0.6174  0.4270
 2224TIP3    H228088   4.954   3.694  13.296  1.3836  0.6584  0.7943
 2225TIP3   OH228089   7.210   3.784  10.227  0.1726 -0.3250 -0.4660
 2225TIP3    H128090   7.217   3.723  10.153 -1.6640 -0.4702 -0.5507
 2225TIP3    H228091   7.211   3.728  10.304  2.1549 -0.1692 -0.3239
 2226TIP3   OH228092   4.017   6.349  11.879  0.1907 -0.2176 -0.3528
 2226TIP3    H128093   3.951   6.371  11.814  0.8342  2.6167 -0.1577
 2226TIP3    H228094   4.100   6.372  11.839  0.6664  0.7786  1.1090
 2227TIP3   OH228095   6.379   2.205  13.245 -0.0465  0.3921  0.0738
 2227TIP3    H128096   6.335   2.140  13.300  1.9018  0.8046  2.3089
 2227TIP3    H228097   6.450   2.156  13.203  0.0211  0.6028 -0.0599
 2228TIP3   OH228098   4.521   4.041  11.710  0.6603 -0.0200  0.1347
 2228TIP3    H128099   4.512   4.042  11.614 -0.6392  0.5595  0.2411
 2228TIP3    H228100   4.455   3.978  11.739  1.5617 -0.7600  0.6236
 2229TIP3   OH228101   2.602   2.677  11.900 -0.1512 -0.1388  0.0743
 2229TIP3    H128102   2.613   2.730  11.979 -0.6866  2.4466 -1.4639
 2229TIP3    H228103   2.507   2.669  11.889 -0.1353 -2.7979  1.0348
 2230TIP3   OH228104   2.376   0.623  12.146 -0.7936  0.2126 -0.2572
 2230TIP3    H128105   2.329   0.580  12.074 -0.8755 -1.3094  0.6506
 2230TIP3    H228106   2.328   0.703  12.162 -1.7291 -0.2149 -0.8448
 2231TIP3   OH228107   7.043   3.350  14.694  0.5653 -0.1971 -0.2667
 2231TIP3    H128108   7.123   3.399  14.714 -0.2392  0.6699  1.0054
 2231TIP3    H228109   7.013   3.318  14.779 -0.5374 -0.3254 -0.6871
 2232TIP3   OH228110   2.468   0.672  10.934  0.5190  0.6791 -0.3848
 2232TIP3    H128111   2.490   0.645  11.023  1.7786  0.7949 -0.6502
 2232TIP3    H228112   2.511   0.757  10.923 -0.8472  1.3702 -0.6118
 2233TIP3   OH228113   0.072   0.788  11.091  0.0996  0.3929  0.3061
 2233TIP3    H128114  -0.020   0.781  11.114 -0.4411  0.6010 -1.5742
 2233TIP3    H228115   0.071   0.826  11.003  1.9836  0.4836  0.2916
 2234TIP3   OH228116   4.105   5.151  15.093  0.1256 -0.0889  0.0864
 2234TIP3    H128117   4.129   5.072  15.044 -0.4221 -1.2380  1.6002
 2234TIP3    H228118   4.162   5.219  15.058  0.6798 -1.1689 -1.1946
 2235TIP3   OH228119   6.418   6.801  10.140 -0.4963  0.0191 -0.4965
 2235TIP3    H128120   6.506   6.781  10.171 -0.7130 -0.6332 -0.2742
 2235TIP3    H228121   6.377   6.848  10.213  0.3798  2.4223 -1.4319
 2236TIP3   OH228122   0.623   5.157   1.058 -0.1473  0.1027 -0.1445
 2236TIP3    H128123   0.568   5.194   1.128  1.2908  0.2459  0.9678
 2236TIP3    H228124   0.641   5.231   1.000 -3.6535 -0.5680 -2.3826
 2237TIP3   OH228125   3.176   6.971  10.004  0.7465 -0.3162  0.2360
 2237TIP3    H128126   3.114   6.981  10.077  0.4947  0.8845 -0.1219
 2237TIP3    H228127   3.136   6.906   9.947 -0.4638  0.8015 -0.2428
 2238TIP3   OH228128   4.293   3.910   9.865  0.1457 -0.2112  0.3148
 2238TIP3    H128129   4.376   3.868   9.841  0.9621  1.2797  0.3745
 2238TIP3    H228130   4.229   3.840   9.863  1.0954 -1.0956 -1.4361
 2239TIP3   OH228131   3.599   1.159  10.392  0.1893  0.2813  0.1618
 2239TIP3    H128132   3.593   1.202  10.477 -0.3717  1.2254 -0.3301
 2239TIP3    H228133   3.626   1.069  10.411  0.2995  0.5510  1.3076
 2240TIP3   OH228134   1.692   4.014  10.979 -0.7915  0.6356  0.3615
 2240TIP3    H128135   1.650   4.055  10.904 -1.1103  0.0911  0.2376
 2240TIP3    H228136   1.756   4.079  11.009  0.2127  0.3727 -1.1154
 2241TIP3   OH228137   5.070   4.135  11.373  0.2960  0.4282 -0.5400
 2241TIP3    H128138   5.087   4.064  11.434  0.9060 -0.3445 -1.5627
 2241TIP3    H228139   4.975   4.136  11.362  0.2743 -0.1544 -0.4150
 2242TIP3   OH228140   1.669   6.351  11.972 -0.0196 -0.7202 -0.5899
 2242TIP3    H128141   1.605   6.390  11.913 -0.6077 -1.6268 -0.5759
 2242TIP3    H228142   1.733   6.309  11.915  0.7958  0.5076 -0.6111
 2243TIP3   OH228143   5.897   4.511   9.900 -0.1374 -0.2026  0.5145
 2243TIP3    H128144   5.867   4.421   9.897 -1.3261  0.1153  1.6136
 2243TIP3    H228145   5.983   4.510   9.859 -0.1342 -1.8316  0.5162
 2244TIP3   OH228146   4.205   2.061  11.276  0.0782 -0.3165 -0.4040
 2244TIP3    H128147   4.248   2.008  11.209  1.2847 -0.2391  0.2880
 2244TIP3    H228148   4.137   2.109  11.229 -1.1759 -2.5776 -1.0322
 2245TIP3   OH228149   1.065   1.849  13.076  0.1451 -0.4280  0.5258
 2245TIP3    H128150   1.035   1.759  13.087  0.8887 -0.9527 -1.3729
 2245TIP3    H228151   1.030   1.877  12.992 -1.0597  1.5109  1.5988
 2246TIP3   OH228152   5.120   2.031  14.444 -0.1841 -0.0118 -0.1535
 2246TIP3    H128153   5.107   2.086  14.521  1.2685  2.9887 -1.8570
 2246TIP3    H228154   5.132   1.942  14.478 -1.9054  0.7972  2.8277
 2247TIP3   OH228155   2.268   5.913   2.288 -0.2177  0.9019 -0.9629
 2247TIP3    H128156   2.311   5.840   2.243  0.4613  1.5737 -1.4213
 2247TIP3    H228157   2.237   5.969   2.217 -1.2393  0.7911 -0.6268
 2248TIP3   OH228158   6.456   3.079  12.877 -0.2258  0.1155  0.1301
 2248TIP3    H128159   6.414   3.042  12.799 -0.9537 -0.5090  0.7955
 2248TIP3    H228160   6.387   3.078  12.944  0.7798 -0.7676  1.2117
 2249TIP3   OH228161   1.358   5.313  11.947 -0.0056 -0.0123  0.1386
 2249TIP3    H128162   1.351   5.300  11.852 -1.6655 -1.3505  0.3933
 2249TIP3    H228163   1.437   5.265  11.972 -0.1098 -0.4919 -0.4335
 2250TIP3   OH228164   3.797   4.133   9.456 -1.0790  0.1955 -0.6301
 2250TIP3    H128165   3.724   4.079   9.485 -2.0030  0.6202 -2.0815
 2250TIP3    H228166   3.821   4.098   9.371  2.2004 -1.6406  0.8622
 2251TIP3   OH228167   7.100   1.851  10.377  0.6705 -0.5666  0.1667
 2251TIP3    H128168   7.189   1.885  10.364  0.1723 -0.0541 -2.5764
 2251TIP3    H228169   7.048   1.928  10.401  0.7284 -0.6261  0.4852
 2252TIP3   OH228170   0.879   6.208  10.443 -0.2784 -0.5847  0.4289
 2252TIP3    H128171   0.956   6.264  10.457 -1.2641  1.1983 -0.7943
 2252TIP3    H228172   0.805   6.263  10.471 -1.2641 -1.4011 -0.5049
 2253TIP3   OH228173   5.252   0.655  13.210  0.0380  0.3373  0.2542
 2253TIP3    H128174   5.209   0.722  13.263  0.4464  0.7297  0.0886
 2253TIP3    H228175   5.282   0.590  13.274 -0.9460 -0.0369  0.3617
 2254TIP3   OH228176   2.956   5.123  10.693 -0.3818 -0.6783 -0.6389
 2254TIP3    H128177   2.898   5.059  10.652 -1.0552 -0.7378  0.3737
 2254TIP3    H228178   2.897   5.181  10.741  0.1670  1.0494 -1.9595
 2255TIP3   OH228179   5.885   3.027  10.003 -0.2755  0.5349  0.6255
 2255TIP3    H128180   5.961   2.989  10.047 -0.2633 -1.2967 -0.8573
 2255TIP3    H228181   5.921   3.069   9.924 -0.7134  0.3137  0.3036
 2256TIP3   OH228182   5.699   4.355  10.440 -0.2558  0.3264  0.0520
 2256TIP3    H128183   5.768   4.315  10.387  1.6869  2.3962  0.8549
 2256TIP3    H228184   5.637   4.283  10.456  0.1462 -0.9271 -3.1002
 2257TIP3   OH228185   6.638   1.757  12.298  0.0952 -0.5372 -0.2170
 2257TIP3    H128186   6.566   1.807  12.337  0.0555 -1.2415  0.6410
 2257TIP3    H228187   6.678   1.818  12.236 -0.2892  0.3743  0.4060
 2258TIP3   OH228188   4.269   2.401  12.961 -0.0538  0.2134  0.2951
 2258TIP3    H128189   4.269   2.483  12.912 -0.9782 -1.7372 -3.3378
 2258TIP3    H228190   4.195   2.353  12.926 -0.9037 -1.4165  3.8774
 2259TIP3   OH228191   0.303   6.907   0.195 -0.4384 -0.1215  0.5173
 2259TIP3    H128192   0.283   6.905   0.102  1.5922 -2.6793  0.0336
 2259TIP3    H228193   0.223   6.873   0.237 -0.5760 -1.1085 -0.5013
 2260TIP3   OH228194   1.719   4.674  10.408  0.8815 -0.0257 -0.5532
 2260TIP3    H128195   1.752   4.761  10.431  0.0511  0.1131  0.1515
 2260TIP3    H228196   1.665   4.689  10.330  2.4700 -0.2641 -1.7564
 2261TIP3   OH228197   3.273   1.779  10.824  0.4980 -0.1889 -0.2892
 2261TIP3    H128198   3.211   1.740  10.762  0.9405 -1.7281  0.1957
 2261TIP3    H228199   3.328   1.836  10.771 -1.5143  1.5090 -0.6919
 2262TIP3   OH228200   0.811   2.816  14.265 -0.0608 -0.6444  0.0054
 2262TIP3    H128201   0.779   2.849  14.181 -0.0701 -2.0041 -0.5502
 2262TIP3    H228202   0.891   2.866  14.281 -1.4216  1.5160  0.5236
 2263TIP3   OH228203   5.602   3.184  11.017 -0.1572  0.0124 -0.3127
 2263TIP3    H128204   5.589   3.142  10.932 -0.0676 -0.7420  0.0348
 2263TIP3    H228205   5.627   3.274  10.996 -0.5985 -0.0334 -1.0747
 2264TIP3   OH228206   2.091   2.196  10.739 -0.1391 -0.2237  0.1169
 2264TIP3    H128207   2.181   2.194  10.707 -0.5702 -0.0937 -1.1647
 2264TIP3    H228208   2.099   2.210  10.833  1.1525  2.4307 -0.2835
 2265TIP3   OH228209   6.607   7.132  10.894 -0.5922  0.1781 -0.3593
 2265TIP3    H128210   6.538   7.077  10.857 -0.4640  0.2173 -0.6599
 2265TIP3    H228211   6.629   7.091  10.977 -0.5947 -0.1456 -0.5182
 2266TIP3   OH228212   3.852   1.031  11.256  0.9309 -0.0328  0.2022
 2266TIP3    H128213   3.765   1.030  11.295  1.1500 -1.2233  0.7088
 2266TIP3    H228214   3.881   0.940  11.259  2.7205  0.5032  1.2700
 2267TIP3   OH228215   2.802   6.940  11.081  0.0046  0.0167 -0.1990
 2267TIP3    H128216   2.820   6.854  11.043 -3.3416 -0.5787 -0.7862
 2267TIP3    H228217   2.879   6.960  11.134  0.9764 -3.2575 -0.1618
 2268TIP3   OH228218   2.041   0.873  11.193 -0.0227 -0.4242  0.3684
 2268TIP3    H128219   2.127   0.860  11.231 -0.1366 -0.4512  0.6234
 2268TIP3    H228220   2.052   0.855  11.100  0.2371 -0.4624  0.4067
 2269TIP3   OH228221   3.618   6.358  10.482  0.2437 -0.2193  0.4179
 2269TIP3    H128222   3.688   6.304  10.445 -0.2332 -1.0821  0.7361
 2269TIP3    H228223   3.570   6.391  10.406  1.5843  1.2220  0.1603
 2270TIP3   OH228224   5.894   4.165  12.025 -0.2135  0.0147 -0.0192
 2270TIP3    H128225   5.894   4.104  11.952 -0.9165  1.8894 -1.6886
 2270TIP3    H228226   5.828   4.230  12.002 -1.0943  0.2238  2.7301
 2271TIP3   OH228227   5.959   0.630  14.630  0.7509 -0.3713 -0.7301
 2271TIP3    H128228   5.974   0.568  14.701 -0.0569  0.0699 -0.1705
 2271TIP3    H228229   5.956   0.575  14.551  0.8933 -0.9468 -0.3398
 2272TIP3   OH228230   0.596   6.899  12.241  0.2033 -0.5123 -0.9612
 2272TIP3    H128231   0.587   6.882  12.335  0.3080 -0.0771 -0.8704
 2272TIP3    H228232   0.506   6.912  12.211  0.0643 -1.8307 -1.1530
 2273TIP3   OH228233   1.962   0.589  11.159 -0.6551 -0.0734 -0.4978
 2273TIP3    H128234   1.989   0.613  11.071 -0.5033  1.3011 -0.1014
 2273TIP3    H228235   2.038   0.547  11.197 -0.6054 -0.3506 -0.8956
 2274TIP3   OH228236   1.029   5.607  10.638  0.1133 -0.4450  0.0101
 2274TIP3    H128237   1.005   5.558  10.716 -0.6250 -0.4609 -0.2240
 2274TIP3    H228238   0.981   5.565  10.567 -0.9241  0.8920 -0.1275
 2275TIP3   OH228239   3.244   0.457   9.925  0.0038  0.1120  0.0089
 2275TIP3    H128240   3.180   0.492   9.987 -0.7819  0.5021 -0.9875
 2275TIP3    H228241   3.290   0.534   9.891  1.0587 -0.1669  0.7476
 2276TIP3   OH228242   1.006   6.503  10.750  0.1744 -0.5272  0.3469
 2276TIP3    H128243   1.044   6.449  10.819  1.0969 -0.9850 -0.5039
 2276TIP3    H228244   1.043   6.591  10.765 -1.6913  0.0484  2.0158
 2277TIP3   OH228245   5.044   1.930  11.052 -0.6083  0.3668  0.0278
 2277TIP3    H128246   4.993   1.934  10.972 -1.2708 -0.3723  0.4025
 2277TIP3    H228247   5.010   2.000  11.107 -0.0764  0.9466 -0.3721
 2278TIP3   OH228248   3.415   4.762   0.137  0.6535  0.2703 -0.0940
 2278TIP3    H128249   3.408   4.674   0.174  0.4153  0.6841  0.8544
 2278TIP3    H228250   3.508   4.783   0.144  0.5910  0.3907  0.3642
 2279TIP3   OH228251   4.595   4.813  11.379 -0.3009 -0.8649 -0.7482
 2279TIP3    H128252   4.607   4.839  11.288 -0.6843 -0.4496 -0.6859
 2279TIP3    H228253   4.680   4.827  11.420 -0.9474  2.2706 -0.2423
 2280TIP3   OH228254   6.949   6.635  14.738  0.2846  0.1672 -0.0481
 2280TIP3    H128255   6.894   6.634  14.815  0.1262 -1.2530 -0.1491
 2280TIP3    H228256   7.021   6.575  14.759  0.8004  0.5677 -0.6146
 2281TIP3   OH228257   1.906   4.076   3.803  0.2785 -0.6219  0.2562
 2281TIP3    H128258   1.894   4.151   3.861 -2.8523 -0.7536 -0.0565
 2281TIP3    H228259   1.936   4.115   3.720 -1.6954  0.4041 -0.0331
 2282TIP3   OH228260   1.498   5.938  10.569 -0.0104 -0.5678 -0.1765
 2282TIP3    H128261   1.486   5.942  10.664  0.2302 -0.5134 -0.1465
 2282TIP3    H228262   1.412   5.915  10.535 -0.4240  0.6743 -0.0341
 2283TIP3   OH228263   3.071   2.218   9.780  0.6968  0.1550  0.4488
 2283TIP3    H128264   2.975   2.210   9.780  0.5056  0.7465 -2.8706
 2283TIP3    H228265   3.101   2.140   9.733  1.7488  0.4531  0.6122
 2284TIP3   OH228266   6.768   1.861  10.089 -0.0166 -0.1836 -0.0280
 2284TIP3    H128267   6.759   1.956  10.091 -0.6992 -0.2523  1.2083
 2284TIP3    H228268   6.719   1.834  10.012  0.8324  0.5202 -0.8297
 2285TIP3   OH228269   5.821   2.830  10.375  0.5813 -0.3111 -0.4019
 2285TIP3    H128270   5.815   2.800  10.285 -2.5323 -1.3352  0.0194
 2285TIP3    H228271   5.831   2.749  10.426  0.0581  0.0545  0.2926
 2286TIP3   OH228272   0.973   6.524  14.212 -0.2760  0.0949  0.0119
 2286TIP3    H128273   1.002   6.569  14.291 -0.3881 -1.0408  0.7221
 2286TIP3    H228274   1.008   6.576  14.140  1.7872 -0.1080  0.8185
 2287TIP3   OH228275   3.023   0.002  12.072  0.4038 -0.0041 -0.0798
 2287TIP3    H128276   3.103  -0.024  12.118  2.2558  2.1789 -1.8840
 2287TIP3    H228277   2.994   0.081  12.117 -0.1143 -0.1522 -0.1464
 2288TIP3   OH228278   3.686   0.271   9.857 -0.0661  0.0229 -0.0980
 2288TIP3    H128279   3.699   0.338   9.924  0.0410 -0.0700 -0.0263
 2288TIP3    H228280   3.720   0.310   9.777 -0.5398  0.2833 -0.1819
 2289TIP3   OH228281   6.628   1.916   9.270  0.0096 -0.3273 -0.1438
 2289TIP3    H128282   6.572   1.962   9.208  0.3211  0.7700  0.3626
 2289TIP3    H228283   6.581   1.920   9.353  0.7615  0.5175  0.2655
 2290TIP3   OH228284   5.969   1.622  11.489 -0.2592  0.7212 -0.3592
 2290TIP3    H128285   6.032   1.657  11.552  1.2011  2.0306 -2.3932
 2290TIP3    H228286   6.017   1.552  11.444 -0.3351  1.4879 -1.6815
 2291TIP3   OH228287   7.185   0.305   9.698 -0.9162  0.1408  0.1775
 2291TIP3    H128288   7.241   0.266   9.765  0.4372 -0.5206 -1.2634
 2291TIP3    H228289   7.175   0.396   9.725 -3.4454 -0.8376  3.1797
 2292TIP3   OH228290   5.932   1.091   0.162  0.1175 -0.6432 -0.1681
 2292TIP3    H128291   6.027   1.085   0.172  0.5033  1.9577 -1.5743
 2292TIP3    H228292   5.911   1.028   0.092  1.1460  0.2855 -1.3515
 2293TIP3   OH228293   4.186   3.322  10.324 -0.2219  0.1825  0.3947
 2293TIP3    H128294   4.246   3.251  10.347  0.1871  0.7807  1.2453
 2293TIP3    H228295   4.207   3.392  10.387 -0.9523  0.8665 -0.1068
 2294TIP3   OH228296   0.871   2.853  12.140  0.2000  0.0582 -0.3744
 2294TIP3    H128297   0.916   2.771  12.122 -0.2566 -0.3817  0.4356
 2294TIP3    H228298   0.914   2.888  12.219  0.3525  0.5686 -0.6765
 2295TIP3   OH228299   3.603   2.278  13.813  0.3423 -0.5288 -0.4613
 2295TIP3    H128300   3.684   2.227  13.814  1.1978  0.7726 -0.7652
 2295TIP3    H228301   3.628   2.364  13.847 -1.3989 -0.7413  1.6183
 2296TIP3   OH228302   0.237   0.140   9.676 -0.1457 -0.2063  0.6526
 2296TIP3    H128303   0.239   0.220   9.623  1.0086 -0.6040  0.0770
 2296TIP3    H228304   0.291   0.078   9.628 -0.9929 -1.3368  1.1165
 2297TIP3   OH228305   1.155   2.247  14.563  0.0232 -0.2263  0.4481
 2297TIP3    H128306   1.186   2.331  14.598  1.2393 -0.5901  0.3074
 2297TIP3    H228307   1.233   2.208  14.524 -1.2625  0.1767 -2.8114
 2298TIP3   OH228308   5.749   4.121  10.794  0.5303  0.2519 -0.4044
 2298TIP3    H128309   5.834   4.084  10.818  0.1556 -0.5527 -0.2858
 2298TIP3    H228310   5.753   4.212  10.824  1.4833  0.3289 -0.7413
 2299TIP3   OH228311   6.177   3.303  12.747  0.3106 -0.3209  0.3749
 2299TIP3    H128312   6.211   3.236  12.687 -1.9142 -0.5222 -0.7624
 2299TIP3    H228313   6.178   3.383  12.695 -1.2823 -0.4233  0.1334
 2300TIP3   OH228314   5.425   1.830  12.454  0.2559  0.2465 -0.6439
 2300TIP3    H128315   5.502   1.815  12.508  0.1217 -0.8375 -0.7280
 2300TIP3    H228316   5.456   1.819  12.364  0.0705  0.0799 -0.6894
 2301TIP3   OH228317   1.010   4.083  11.271 -0.5266  0.0720 -0.7654
 2301TIP3    H128318   0.985   3.993  11.291 -0.9785 -0.1383 -2.1825
 2301TIP3    H228319   0.955   4.136  11.328  0.5713 -0.5253  0.9625
 2302TIP3   OH228320   0.887   2.108  10.670  0.4175 -0.3363  0.1672
 2302TIP3    H128321   0.958   2.058  10.631  0.1614  0.6699 -1.6783
 2302TIP3    H228322   0.889   2.192  10.625  0.3264  1.0663  2.6280
 2303TIP3   OH228323   6.291   1.464  11.124  0.0355 -0.4402 -0.0346
 2303TIP3    H128324   6.298   1.520  11.047 -0.9438 -0.4569 -0.1508
 2303TIP3    H228325   6.357   1.497  11.184  0.3666 -0.0121 -0.6257
 2304TIP3   OH228326   0.380   3.604  12.300 -0.3726 -0.5526 -0.6759
 2304TIP3    H128327   0.300   3.626  12.347 -0.6147 -0.5160 -1.1029
 2304TIP3    H228328   0.446   3.592  12.369 -0.6091 -0.0357 -0.3597
 2305TIP3   OH228329   1.676   0.742  10.068  1.2607 -0.1752  0.7306
 2305TIP3    H128330   1.643   0.745  10.158  0.6505 -2.5864  0.6543
 2305TIP3    H228331   1.598   0.742  10.013  1.6241  0.9353  0.1576
 2306TIP3   OH228332   1.613   6.295  10.559 -0.8054  0.1488  0.2149
 2306TIP3    H128333   1.566   6.357  10.504 -0.0903 -0.5341 -1.2192
 2306TIP3    H228334   1.689   6.270  10.507 -1.1751 -2.0870  0.6556
 2307TIP3   OH228335   1.167   3.287   0.504 -0.1225 -0.2786  0.6762
 2307TIP3    H128336   1.085   3.312   0.462  1.4076  0.3759 -2.1621
 2307TIP3    H228337   1.236   3.323   0.448  2.1549 -1.6416  2.3765
 2308TIP3   OH228338   7.160   6.690  12.173  0.0843 -0.0504  0.0013
 2308TIP3    H128339   7.084   6.681  12.231 -0.5647 -0.5944 -0.9206
 2308TIP3    H228340   7.123   6.709  12.087  1.0659  1.6127 -0.1069
 2309TIP3   OH228341   3.708   5.564  11.396  0.3668  0.4070 -0.4338
 2309TIP3    H128342   3.618   5.554  11.365  0.3626 -0.0919 -0.2698
 2309TIP3    H228343   3.760   5.512  11.335  0.5942  0.9871 -0.7469
 2310TIP3   OH228344   3.100   6.313  11.055 -0.1574 -0.5360  0.2148
 2310TIP3    H128345   3.079   6.345  11.143 -1.3749  1.8650 -0.8449
 2310TIP3    H228346   3.015   6.310  11.010  0.6792  0.8799 -1.6103
 2311TIP3   OH228347   7.059   5.614  13.523 -0.0424 -0.0769  0.6511
 2311TIP3    H128348   7.066   5.593  13.616  1.0256  0.2141  0.6531
 2311TIP3    H228349   7.150   5.611  13.491 -0.4390 -0.6946 -0.4964
 2312TIP3   OH228350   0.077   1.298   9.555 -0.2506  0.3364 -0.0662
 2312TIP3    H128351   0.009   1.310   9.489  0.5262  0.0841 -0.9476
 2312TIP3    H228352   0.150   1.351   9.523  0.1339  0.2295  0.6107
 2313TIP3   OH228353   4.759   5.054  14.726  0.2248  0.4768  0.8774
 2313TIP3    H128354   4.807   4.988  14.776  1.7087  1.0617  0.2661
 2313TIP3    H228355   4.668   5.046  14.756  0.3459 -1.8884  0.7398
 2314TIP3   OH228356   1.892   2.458   9.792  0.4871 -0.2390  0.6581
 2314TIP3    H128357   1.915   2.394   9.724 -1.8960 -2.7926  2.0465
 2314TIP3    H228358   1.967   2.458   9.851  1.3648 -0.1810 -0.4110
 2315TIP3   OH228359   6.147   3.316  13.953  0.4508 -0.2555 -0.1055
 2315TIP3    H128360   6.238   3.308  13.924  0.3209  0.7135 -0.8359
 2315TIP3    H228361   6.119   3.402  13.921  0.4326  1.1738  3.2296
 2316TIP3   OH228362   4.616   0.460  10.281 -0.1994  0.4426  0.4390
 2316TIP3    H128363   4.577   0.379  10.314 -0.1539 -0.1406 -0.8419
 2316TIP3    H228364   4.570   0.530  10.326 -1.6092 -0.2722  0.1587
 2317TIP3   OH228365   6.559   7.174  13.481 -0.4500  0.6458  0.5669
 2317TIP3    H128366   6.499   7.239  13.445 -0.7757 -1.3448 -2.9223
 2317TIP3    H228367   6.503   7.099  13.501  0.1611  0.7269  2.7905
 2318TIP3   OH228368   3.710   3.849  10.835 -0.3916  0.3789  0.1056
 2318TIP3    H128369   3.662   3.779  10.791  0.4920 -0.1645 -0.0243
 2318TIP3    H228370   3.714   3.919  10.770  0.9312 -0.4289 -0.7256
 2319TIP3   OH228371   2.929   0.690  15.010  0.3460  0.3824 -0.3860
 2319TIP3    H128372   2.840   0.661  15.033  0.7959 -0.9907 -0.2642
 2319TIP3    H228373   2.937   0.777  15.049 -0.7184  0.2550  0.1673
 2320TIP3   OH228374   0.405   6.684  14.449  0.2036  0.2379 -0.2482
 2320TIP3    H128375   0.487   6.638  14.467  0.9435  0.7830 -2.0042
 2320TIP3    H228376   0.377   6.650  14.364 -2.0032 -0.7345  0.7786
 2321TIP3   OH228377   0.578   4.385  14.537 -0.6564 -0.1692  0.1393
 2321TIP3    H128378   0.574   4.407  14.444 -0.6239 -2.0421 -0.3525
 2321TIP3    H228379   0.492   4.409  14.572 -1.2307 -0.8613 -0.7451
 2322TIP3   OH228380   1.995   5.360  12.444  0.3871  0.3460 -0.2691
 2322TIP3    H128381   1.997   5.344  12.350 -1.5068  0.7096 -0.4207
 2322TIP3    H228382   1.902   5.375  12.464  0.8230  0.9384  1.5467
 2323TIP3   OH228383   6.432   2.140  10.283 -0.0116 -0.0691 -0.4028
 2323TIP3    H128384   6.352   2.181  10.316  0.5509 -0.2412  1.2259
 2323TIP3    H228385   6.481   2.211  10.242 -0.2012  0.3858  0.1554
 2324TIP3   OH228386   6.204   7.125   0.114  0.4515 -0.1570  0.5017
 2324TIP3    H128387   6.168   7.148   0.200 -0.3013  0.4359  0.0342
 2324TIP3    H228388   6.189   7.203   0.060 -0.9720 -1.2676 -0.7624
 2325TIP3   OH228389   0.626   4.498  13.362  0.0324  0.1579  0.2828
 2325TIP3    H128390   0.573   4.575  13.338 -2.0323 -1.2495  0.0153
 2325TIP3    H228391   0.569   4.448  13.419  1.9577 -0.4270  1.7682
 2326TIP3   OH228392   6.540   5.532  10.557 -0.1907 -0.9326 -0.1487
 2326TIP3    H128393   6.605   5.547  10.489  0.6365  1.6556  1.0758
 2326TIP3    H228394   6.589   5.492  10.629  0.2593  1.3181  0.9021
 2327TIP3   OH228395   3.218   5.273  14.045 -0.1922  0.0600  0.3226
 2327TIP3    H128396   3.309   5.303  14.050 -0.1696  0.8049 -2.8170
 2327TIP3    H228397   3.226   5.179  14.029 -0.0130  0.0351  0.5401
 2328TIP3   OH228398   0.545   0.091   9.327  0.0944 -0.0458 -0.1382
 2328TIP3    H128399   0.607   0.119   9.259  1.2645 -2.2416 -0.0468
 2328TIP3    H228400   0.503   0.173   9.355 -0.8168  0.9473 -3.7871
 2329TIP3   OH228401   0.343   3.433  10.932 -0.2330  0.2484  0.0233
 2329TIP3    H128402   0.275   3.366  10.941  1.3664 -1.4977 -0.2961
 2329TIP3    H228403   0.343   3.454  10.838  0.9011 -1.1456 -0.3097
 2330TIP3   OH228404   2.926   3.355  10.536 -0.0077 -0.4616 -0.0547
 2330TIP3    H128405   2.843   3.398  10.516 -0.4656 -1.2825  0.0183
 2330TIP3    H228406   2.991   3.425  10.533 -0.9189  0.5083  1.4483
 2331TIP3   OH228407   1.525   0.499  10.742  0.3592  0.0591  0.4032
 2331TIP3    H128408   1.557   0.575  10.789  2.6956  0.3992 -1.4868
 2331TIP3    H228409   1.560   0.424  10.791 -0.4427  0.2406  1.2730
 2332TIP3   OH228410   0.363   6.781  10.102  0.4438 -0.1752  0.2013
 2332TIP3    H128411   0.333   6.823  10.022 -1.0496  0.4791  1.0715
 2332TIP3    H228412   0.345   6.844  10.172  0.4245 -1.2587  1.2277
 2333TIP3   OH228413   3.547   4.827  10.828 -0.2587 -0.1162  0.0635
 2333TIP3    H128414   3.462   4.847  10.789 -1.0965 -1.4261  1.1361
 2333TIP3    H228415   3.587   4.765  10.767 -0.4521 -0.1562 -0.0250
 2334TIP3   OH228416   0.088   5.834  11.169 -0.5834 -0.1873 -0.2043
 2334TIP3    H128417   0.032   5.844  11.245 -0.0952 -1.7905  0.4185
 2334TIP3    H228418   0.030   5.844  11.094 -1.2301  0.5520  0.3889
 2335TIP3   OH228419   3.298   2.936   9.990 -0.3866  0.1575  0.1347
 2335TIP3    H128420   3.356   2.957   9.917  2.3963 -0.4388  2.0322
 2335TIP3    H228421   3.265   3.021  10.020 -1.5058  0.4149 -1.6553
 2336TIP3   OH228422   7.093   3.621  13.833  0.0274 -0.0457  0.3931
 2336TIP3    H128423   7.083   3.614  13.738 -1.1104 -0.9508  0.5684
 2336TIP3    H228424   7.184   3.594  13.849 -0.1509 -1.1108 -0.3213
 2337TIP3   OH228425   0.996   3.277  11.430  0.6406 -0.3704 -0.2526
 2337TIP3    H128426   0.945   3.238  11.501 -0.4408 -0.7103 -1.1963
 2337TIP3    H228427   0.969   3.368  11.428 -0.9333 -0.8218 -1.5656
 2338TIP3   OH228428   4.051   6.612   0.702  0.0868 -0.1423 -0.2778
 2338TIP3    H128429   4.054   6.600   0.607 -0.3986  0.0830 -0.3243
 2338TIP3    H228430   4.113   6.547   0.736  1.5256  0.8737 -0.8393
 2339TIP3   OH228431   3.037   2.017  11.630 -0.1866 -0.7316  0.5943
 2339TIP3    H128432   2.999   1.952  11.689 -1.6051 -0.3416  0.1595
 2339TIP3    H228433   3.031   1.976  11.543  1.0462 -0.9350  0.5889
 2340TIP3   OH228434   6.680   4.084  13.242 -0.1294  0.2818 -0.0315
 2340TIP3    H128435   6.624   4.032  13.184 -0.8079  0.8263  0.1142
 2340TIP3    H228436   6.620   4.146  13.284  0.4476  0.3136  0.7872
 2341TIP3   OH228437   5.656   1.605   1.241  0.1623 -0.1195 -0.0385
 2341TIP3    H128438   5.735   1.565   1.277  0.5634  1.3612  0.7954
 2341TIP3    H228439   5.670   1.604   1.146  0.1591 -1.8815 -0.0470
 2342TIP3   OH228440   0.070   5.763  10.764 -0.4694  0.5571  0.6388
 2342TIP3    H128441   0.085   5.680  10.718  1.4155  1.6603 -0.8940
 2342TIP3    H228442   0.153   5.782  10.808 -0.4311  2.2389 -0.0831
 2343TIP3   OH228443   1.654   6.816  12.180 -0.0301 -0.0461  0.4222
 2343TIP3    H128444   1.628   6.725  12.195  0.5302 -0.0513  1.4141
 2343TIP3    H228445   1.591   6.849  12.116 -0.2205 -1.1386  0.0338
 2344TIP3   OH228446   4.851   6.536   9.403  0.2196 -0.6482  0.3020
 2344TIP3    H128447   4.943   6.533   9.376  0.5100  0.5068  1.1053
 2344TIP3    H228448   4.804   6.491   9.332  1.2688 -0.2707 -0.6648
 2345TIP3   OH228449   3.366   6.602   0.202 -0.3237  0.1580  0.4617
 2345TIP3    H128450   3.455   6.617   0.169 -0.2550 -0.5095  0.3268
 2345TIP3    H228451   3.346   6.681   0.253  0.0707  0.6329 -0.0917
 2346TIP3   OH228452   0.478   5.195  10.539  0.1095 -0.0761  0.1404
 2346TIP3    H128453   0.527   5.157  10.466  0.1919 -0.0501  0.1817
 2346TIP3    H228454   0.541   5.199  10.610  0.2772  0.7230 -0.0493
 2347TIP3   OH228455   5.657   0.794  13.755 -0.1127 -0.1450 -0.5494
 2347TIP3    H128456   5.671   0.812  13.848 -2.3289 -2.2952  0.3244
 2347TIP3    H228457   5.671   0.877  13.711 -1.0638  1.4625  1.9829
 2348TIP3   OH228458   1.707   1.224  10.771 -0.3578 -0.4397  0.4496
 2348TIP3    H128459   1.656   1.305  10.774  0.0981 -0.1700  1.5159
 2348TIP3    H228460   1.703   1.190  10.860  1.4037 -0.3350  0.6059
 2349TIP3   OH228461   5.638   1.603   9.839 -0.2447  0.3347 -0.0299
 2349TIP3    H128462   5.682   1.547   9.776 -1.1827 -1.4373  0.8204
 2349TIP3    H228463   5.585   1.543   9.892 -2.8727  2.2263 -0.3240
 2350TIP3   OH228464   3.894   5.887  11.029  0.1944 -0.4545 -0.2906
 2350TIP3    H128465   3.868   5.969  11.071  0.4418 -0.4726 -0.1032
 2350TIP3    H228466   3.870   5.820  11.093  1.3297 -0.4271  0.1813
 2351TIP3   OH228467   0.565   0.991   9.720 -0.3322  0.0007  0.1889
 2351TIP3    H128468   0.477   0.983   9.683  0.1766  0.9389 -1.3363
 2351TIP3    H228469   0.608   0.909   9.697 -1.1204 -0.9662  1.9636
 2352TIP3   OH228470   0.525   2.770  10.462 -0.4666 -0.1549  0.3705
 2352TIP3    H128471   0.527   2.827  10.386 -2.0428  0.5946  0.8440
 2352TIP3    H228472   0.529   2.681  10.426 -2.1585  0.1569 -0.6585
 2353TIP3   OH228473   3.181   1.429   9.901  0.8308  0.5068 -0.3086
 2353TIP3    H128474   3.166   1.408   9.993  2.4645  0.1701 -0.1017
 2353TIP3    H228475   3.100   1.402   9.857  0.3676 -0.1172  0.9022
 2354TIP3   OH228476   5.368   4.330  13.357  0.4761  0.0563  0.3921
 2354TIP3    H128477   5.370   4.234  13.356 -1.5056 -0.0402  0.6047
 2354TIP3    H228478   5.413   4.357  13.277 -1.2881 -1.1704 -1.0851
 2355TIP3   OH228479   6.135   5.758   9.753 -0.0500 -0.1278 -0.6401
 2355TIP3    H128480   6.195   5.692   9.720 -0.0134  0.3878 -1.6442
 2355TIP3    H228481   6.067   5.709   9.800  0.1823 -0.8366 -1.0439
 2356TIP3   OH228482   0.257   1.168   9.815  0.6594  0.3627  0.3017
 2356TIP3    H128483   0.177   1.172   9.762  0.5229  1.7817  0.5692
 2356TIP3    H228484   0.305   1.093   9.781 -1.2148 -1.0977  0.7645
 2357TIP3   OH228485   4.555   3.274  12.539  0.2692  0.7412  0.0632
 2357TIP3    H128486   4.608   3.246  12.464  0.3522  2.3177 -0.4890
 2357TIP3    H228487   4.572   3.207  12.606  1.0178 -0.1162 -0.9514
 2358TIP3   OH228488   6.206   0.103  12.071  0.3732  0.4244  0.0805
 2358TIP3    H128489   6.127   0.157  12.074  0.1877  0.1909 -0.4965
 2358TIP3    H228490   6.177   0.018  12.037  1.3419  1.2615 -3.2338
 2359TIP3   OH228491   1.446   4.855  10.444  0.0965 -0.9042 -0.4869
 2359TIP3    H128492   1.426   4.938  10.487  0.2576 -0.7924 -0.6284
 2359TIP3    H228493   1.490   4.803  10.511 -0.4227 -1.0541 -0.2541
 2360TIP3   OH228494   0.996   1.460  14.275  0.3273  0.2940  0.6250
 2360TIP3    H128495   0.926   1.509  14.232  0.7714 -0.0110 -0.5046
 2360TIP3    H228496   1.070   1.521  14.276 -0.1974  0.9663  2.7081
 2361TIP3   OH228497   7.006   3.544  10.584  0.3154  0.6074 -0.2725
 2361TIP3    H128498   6.918   3.529  10.618 -0.2046  0.6853 -1.5099
 2361TIP3    H228499   7.013   3.639  10.577  0.6329  0.6156  0.1652
 2362TIP3   OH228500   6.633   6.590  12.696 -0.5774 -0.1317  0.3280
 2362TIP3    H128501   6.599   6.589  12.785 -1.3251  1.0800  0.0805
 2362TIP3    H228502   6.587   6.662  12.653  0.0396 -0.4529 -0.9341
 2363TIP3   OH228503   1.719   2.633   0.206 -0.3286  0.1566  0.3329
 2363TIP3    H128504   1.655   2.691   0.165  0.9794  0.3939 -1.5121
 2363TIP3    H228505   1.668   2.558   0.236 -1.9511  1.8451  2.1095
 2364TIP3   OH228506   6.419   5.714  11.987 -0.3255  0.4933  0.0548
 2364TIP3    H128507   6.328   5.694  12.006 -0.3129 -0.0639 -0.4326
 2364TIP3    H228508   6.438   5.792  12.038 -0.7091 -0.1166  1.1507
 2365TIP3   OH228509   0.849   5.793  11.342 -0.1130  0.2105  0.3617
 2365TIP3    H128510   0.944   5.809  11.345  0.1245 -1.1462  0.7849
 2365TIP3    H228511   0.842   5.699  11.322 -1.3870  0.7468 -2.0294
 2366TIP3   OH228512   3.436   5.904  12.169 -0.3132 -0.0011 -0.0964
 2366TIP3    H128513   3.463   5.817  12.198 -0.1904 -0.2615 -0.9530
 2366TIP3    H228514   3.341   5.899  12.161 -0.3539  0.0917  0.3107
 2367TIP3   OH228515   4.850   4.548  14.426  0.2803  0.3371  0.0958
 2367TIP3    H128516   4.761   4.544  14.392 -0.2707  2.4748  1.0940
 2367TIP3    H228517   4.903   4.500  14.362 -1.1377  1.5938 -2.1703
 2368TIP3   OH228518   0.931   4.584  10.680 -0.0381  0.0850  0.6205
 2368TIP3    H128519   0.993   4.568  10.609  0.7466 -1.1859  1.5588
 2368TIP3    H228520   0.845   4.568  10.640  0.3946 -0.7071 -0.0352
 2369TIP3   OH228521   3.127   4.407  14.671 -0.1290  0.3955 -0.4505
 2369TIP3    H128522   3.057   4.458  14.711  0.7844  1.2606  0.0661
 2369TIP3    H228523   3.110   4.317  14.699  0.3773  0.9459  1.7553
 2370TIP3   OH228524   5.963   4.864  10.281 -0.5941  0.1292 -0.0467
 2370TIP3    H128525   6.031   4.855  10.348 -0.7685  2.3423  0.5322
 2370TIP3    H228526   5.905   4.932  10.316 -2.0198 -0.3342 -1.4071
 2371TIP3   OH228527   1.774   0.832  11.114 -0.1712 -0.4351 -0.2310
 2371TIP3    H128528   1.860   0.840  11.154 -0.1528  1.0159 -0.5258
 2371TIP3    H228529   1.757   0.737  11.112  0.6070 -0.6424  1.4915
 2372TIP3   OH228530   5.000   4.460  12.034  0.4142 -0.0398  0.3231
 2372TIP3    H128531   4.915   4.499  12.015 -0.1938 -0.8461  1.2955
 2372TIP3    H228532   5.060   4.534  12.038 -0.5806  0.7334  1.4017
 2373TIP3   OH228533   3.694   4.226  14.910  0.3531 -0.3414  0.4014
 2373TIP3    H128534   3.755   4.278  14.962  1.7378 -0.9441 -0.5735
 2373TIP3    H228535   3.693   4.140  14.952  0.2768 -0.3765  0.3284
 2374TIP3   OH228536   3.065   6.360  12.136  0.3865  0.0427  0.0355
 2374TIP3    H128537   3.149   6.315  12.122  0.6718  0.7770 -0.7180
 2374TIP3    H228538   3.042   6.395  12.049 -0.3813  0.3983  0.3719
 2375TIP3   OH228539   5.212   1.909  10.139  0.0673 -0.7995  0.3848
 2375TIP3    H128540   5.247   1.840  10.083 -0.6963 -0.7015 -0.2182
 2375TIP3    H228541   5.160   1.964  10.081 -1.1513 -0.9776  1.2673
 2376TIP3   OH228542   5.404   0.370  10.057  0.1717  0.1392  0.3509
 2376TIP3    H128543   5.383   0.412  10.140  0.5409 -1.4951  1.3166
 2376TIP3    H228544   5.454   0.292  10.081  2.6315  0.9851 -1.5626
 2377TIP3   OH228545   3.489   5.600  14.635  0.2888 -0.3244 -0.3796
 2377TIP3    H128546   3.527   5.583  14.721  0.7016 -0.6858 -0.6272
 2377TIP3    H228547   3.496   5.516  14.590  1.7507  0.3044 -1.4035
 2378TIP3   OH228548   5.711   4.622  13.001  0.4080 -0.4039  0.3791
 2378TIP3    H128549   5.677   4.552  12.944  0.8142 -0.9183  0.7578
 2378TIP3    H228550   5.750   4.575  13.075  2.7725  0.1065 -0.4536
 2379TIP3   OH228551   4.833   0.921  10.987  0.1530  0.3433 -0.2369
 2379TIP3    H128552   4.895   0.912  11.058 -0.4455  2.2351  0.5735
 2379TIP3    H228553   4.778   0.995  11.011 -0.7069  0.4195 -2.2008
 2380TIP3   OH228554   5.585   2.132  10.794 -0.1366 -0.3112  0.4578
 2380TIP3    H128555   5.606   2.152  10.703  0.5029  0.2106  0.7113
 2380TIP3    H228556   5.506   2.078  10.789 -1.9335  2.1983 -0.2997
 2381TIP3   OH228557   5.633   3.041  10.204  0.0105  0.2673  0.5000
 2381TIP3    H128558   5.552   3.018  10.249  0.1055  1.0853  1.1189
 2381TIP3    H228559   5.636   3.137  10.208  0.5651  0.2964 -0.3026
 2382TIP3   OH228560   1.797   3.944  10.672  0.5351 -0.4828  0.2246
 2382TIP3    H128561   1.817   4.037  10.675 -2.4273  0.2188  1.4588
 2382TIP3    H228562   1.762   3.930  10.584 -0.5076 -0.0369  0.5557
 2383TIP3   OH228563   3.266   6.854   0.270 -0.4034  0.0069 -0.0904
 2383TIP3    H128564   3.277   6.942   0.235 -0.9655 -0.8542 -2.6091
 2383TIP3    H228565   3.178   6.828   0.242  0.0284 -1.6239 -0.0314
 2384TIP3   OH228566   2.664   0.858  11.160 -0.2687  0.1655 -0.4925
 2384TIP3    H128567   2.739   0.870  11.218 -0.1131  0.2132 -0.7010
 2384TIP3    H228568   2.689   0.903  11.079 -0.5634  0.2661 -0.5284
 2385TIP3   OH228569   3.387   6.508  13.423 -0.6668  0.1885  0.0574
 2385TIP3    H128570   3.468   6.462  13.449 -0.4857  0.1711 -0.5314
 2385TIP3    H228571   3.359   6.463  13.344 -0.1588  1.4693 -0.8792
 2386TIP3   OH228572   5.817   3.302   9.940 -0.0627  0.5123  0.2523
 2386TIP3    H128573   5.771   3.220   9.925  0.1676  0.1755  1.2967
 2386TIP3    H228574   5.903   3.289   9.900 -0.4401  0.6961 -0.6365
 2387TIP3   OH228575   2.747   6.397  12.602  0.2558  0.1038  0.0224
 2387TIP3    H128576   2.830   6.349  12.602 -0.2790 -0.8651  1.5260
 2387TIP3    H228577   2.709   6.380  12.516  0.6491 -1.1606  0.0901
 2388TIP3   OH228578   6.824   0.134  10.282 -0.0724 -0.5565  0.1531
 2388TIP3    H128579   6.836   0.162  10.373  1.2809 -0.5617 -0.0131
 2388TIP3    H228580   6.762   0.197  10.246  1.3297  1.0050  0.3685
 2389TIP3   OH228581   3.316   2.632  14.784  0.0499  0.1687  0.1589
 2389TIP3    H128582   3.221   2.630  14.771 -0.0004 -0.2638  0.5722
 2389TIP3    H228583   3.350   2.570  14.720 -0.0252 -0.3846  0.6521
 2390TIP3   OH228584   0.678   2.538  10.275  0.7844 -0.1791 -0.1509
 2390TIP3    H128585   0.706   2.496  10.193  0.2237 -0.7895 -0.0441
 2390TIP3    H228586   0.754   2.588  10.303  0.9697  0.0845 -1.0754
 2391TIP3   OH228587   4.526   6.726  13.248  0.5663 -0.0382 -0.7443
 2391TIP3    H128588   4.479   6.809  13.243 -0.3944 -0.2880  2.4432
 2391TIP3    H228589   4.618   6.751  13.252  0.2349  1.0144  1.4261
 2392TIP3   OH228590   3.905   4.778  11.063 -0.0652  0.0502 -0.0860
 2392TIP3    H128591   3.977   4.817  11.014  1.4200  1.3005  2.8488
 2392TIP3    H228592   3.937   4.691  11.088  0.0795  0.2650  0.4844
 2393TIP3   OH228593   0.230   3.219  14.762  0.0105  0.6067 -0.0654
 2393TIP3    H128594   0.221   3.314  14.765 -0.5265  0.5556  0.0437
 2393TIP3    H228595   0.148   3.186  14.798  0.3666  0.1041  0.3065
 2394TIP3   OH228596   6.549   0.943  12.029 -0.3526 -0.0744 -0.9692
 2394TIP3    H128597   6.561   0.935  12.124  1.0422  1.0320 -1.0185
 2394TIP3    H228598   6.601   1.019  12.005 -3.4030  1.8229 -2.1462
 2395TIP3   OH228599   2.640   6.653  12.808  0.1848 -0.8880  0.5332
 2395TIP3    H128600   2.712   6.660  12.870  1.0576  1.4260 -0.6322
 2395TIP3    H228601   2.681   6.650  12.722 -1.0533  1.4803 -0.2251
 2396TIP3   OH228602   4.826   3.468  11.229  0.5035 -0.2765 -0.4348
 2396TIP3    H128603   4.791   3.391  11.273 -0.4215 -0.3335 -1.2526
 2396TIP3    H228604   4.879   3.511  11.296  0.2636 -1.1036  0.3117
 2397TIP3   OH228605   3.287   4.869  10.740  0.0671  0.7223  0.3828
 2397TIP3    H128606   3.228   4.863  10.815 -0.1577  0.8493  0.2182
 2397TIP3    H228607   3.228   4.872  10.664  0.2876  0.7591  0.2136
 2398TIP3   OH228608   5.573   5.653  12.592 -0.0219  0.3028 -0.1990
 2398TIP3    H128609   5.655   5.609  12.613 -0.5704 -0.6192  0.0537
 2398TIP3    H228610   5.598   5.725  12.533  0.9686  0.1006 -0.0261
 2399TIP3   OH228611   4.598   0.294   9.652  0.0464 -0.0025 -0.1493
 2399TIP3    H128612   4.650   0.214   9.666 -1.7987 -1.0843  0.8352
 2399TIP3    H228613   4.538   0.271   9.581  0.7602  1.1975 -1.1922
 2400TIP3   OH228614   0.597   5.814  12.702  0.0996 -0.4200  0.4725
 2400TIP3    H128615   0.660   5.810  12.774 -1.0076  0.1592  1.5179
 2400TIP3    H228616   0.600   5.728  12.661  0.4039 -0.9195  1.5282
 2401TIP3   OH228617   5.893   6.677  11.070  0.3701 -0.1107 -0.3362
 2401TIP3    H128618   5.875   6.624  10.993 -0.5181  0.6543 -0.6668
 2401TIP3    H228619   5.890   6.614  11.143 -0.6947 -0.5316 -0.7159
 2402TIP3   OH228620   0.416   3.877  13.081  0.3155 -0.2949  0.7662
 2402TIP3    H128621   0.419   3.959  13.033 -0.9206 -0.5836  0.1498
 2402TIP3    H228622   0.476   3.889  13.154  0.0644  1.1988  0.7544
 2403TIP3   OH228623   0.258   1.296  10.679  0.0383  0.1314 -0.6305
 2403TIP3    H128624   0.279   1.338  10.596  1.1634 -1.1924 -1.0534
 2403TIP3    H228625   0.170   1.262  10.667 -1.0429  2.5736 -0.1566
 2404TIP3   OH228626   1.427   3.156  15.185  0.0325  0.1136  0.6239
 2404TIP3    H128627   1.476   3.155  15.103  0.0257  3.4723  0.4455
 2404TIP3    H228628   1.335   3.157  15.158 -0.0487 -0.8534  0.8028
 2405TIP3   OH228629   3.968   4.196  12.104  0.2735 -0.2710  0.1581
 2405TIP3    H128630   3.934   4.285  12.089  0.7732 -0.1730 -0.4752
 2405TIP3    H228631   4.054   4.196  12.061 -0.0984 -1.3322 -0.6171
 2406TIP3   OH228632   0.663   0.332  10.211  0.5240  0.1653 -0.1230
 2406TIP3    H128633   0.716   0.344  10.290  4.1404 -2.1398 -1.9135
 2406TIP3    H228634   0.702   0.391  10.146  0.0139 -0.5854 -1.1555
 2407TIP3   OH228635   5.662   3.301  13.258 -0.0101 -0.1143  0.4627
 2407TIP3    H128636   5.599   3.253  13.204 -0.0316 -0.6879  0.9963
 2407TIP3    H228637   5.746   3.257  13.242  0.0875  0.0691  0.4647
 2408TIP3   OH228638   3.639   2.151  12.723 -0.3631 -0.1578 -0.5776
 2408TIP3    H128639   3.714   2.103  12.690  0.1445  0.2448 -0.0241
 2408TIP3    H228640   3.568   2.087  12.726  0.0255 -0.6022 -0.8468
 2409TIP3   OH228641   1.526   2.886  11.028  0.4109  0.6024 -0.0829
 2409TIP3    H128642   1.496   2.855  10.943  0.8219 -0.9782  0.3082
 2409TIP3    H228643   1.555   2.807  11.074 -0.9896  1.2175  2.0293
 2410TIP3   OH228644   6.672   3.010  10.838  0.3141 -0.1536 -0.3184
 2410TIP3    H128645   6.765   2.989  10.827  0.6472  0.5837  0.8790
 2410TIP3    H228646   6.654   3.076  10.771  1.2568  1.3185  0.7949
 2411TIP3   OH228647   1.848   6.214  10.404  0.4668  0.0736 -0.1632
 2411TIP3    H128648   1.884   6.222  10.316 -0.0722 -1.5583 -0.5666
 2411TIP3    H228649   1.890   6.137  10.441 -0.2046  0.0299  0.5579
 2412TIP3   OH228650   4.809   4.761   9.593  0.5073 -0.6474  0.0998
 2412TIP3    H128651   4.904   4.757   9.597  0.6020  1.3549  1.3993
 2412TIP3    H228652   4.785   4.828   9.657 -1.7411 -0.6573 -0.6293
 2413TIP3   OH228653   1.331   3.055  11.041  0.2002 -0.6650  0.7583
 2413TIP3    H128654   1.407   2.998  11.044  0.0397 -0.9998 -0.8678
 2413TIP3    H228655   1.282   3.033  11.120  0.9883 -1.5813  1.0129
 2414TIP3   OH228656   2.668   5.640  12.006  0.3642  0.6365  0.0404
 2414TIP3    H128657   2.744   5.672  11.958  2.0971 -1.8555  0.8916
 2414TIP3    H228658   2.704   5.576  12.068 -2.4892 -1.1859  0.0055
 2415TIP3   OH228659   6.273   5.338  13.022  0.7279 -0.1860  0.1637
 2415TIP3    H128660   6.218   5.396  13.074 -0.9427 -0.6108 -1.0116
 2415TIP3    H228661   6.353   5.387  13.006  0.3089  0.8454  1.1374
 2416TIP3   OH228662   2.427   0.125  10.679  0.0643  0.0050 -0.2166
 2416TIP3    H128663   2.465   0.124  10.766 -1.1829  1.3103  0.3832
 2416TIP3    H228664   2.497   0.093  10.622  0.9883 -0.6270  1.2039
 2417TIP3   OH228665   0.192   6.141  12.987  0.1117 -0.2112 -0.6739
 2417TIP3    H128666   0.170   6.220  12.939 -0.2857 -0.8472 -1.5554
 2417TIP3    H228667   0.288   6.145  12.997 -0.1341  1.5986  1.4974
 2418TIP3   OH228668   6.226   0.190  12.688 -0.4400  1.1099  0.3841
 2418TIP3    H128669   6.301   0.224  12.639  2.0567 -2.0272  1.6799
 2418TIP3    H228670   6.243   0.214  12.779 -0.6147 -0.1707  0.7775
 2419TIP3   OH228671   2.608   4.019  11.834  0.0391 -0.5016 -0.1329
 2419TIP3    H128672   2.609   4.095  11.892  0.6110 -1.0472  0.5886
 2419TIP3    H228673   2.686   4.029  11.780  0.0527 -0.5156 -0.1160
 2420TIP3   OH228674   4.436   5.043  11.348  0.1280  0.2195  0.0926
 2420TIP3    H128675   4.517   5.009  11.386  0.4323 -0.9277 -1.4483
 2420TIP3    H228676   4.453   5.136  11.333  0.3201  0.4841  1.8262
 2421TIP3   OH228677   0.354   0.340  13.898  0.4914 -0.2857  0.2161
 2421TIP3    H128678   0.341   0.251  13.865  0.9270 -0.7780  1.3271
 2421TIP3    H228679   0.268   0.382  13.888 -0.0435 -1.2063  0.7727
 2422TIP3   OH228680   4.080   6.456  10.849 -0.4453  0.6309 -0.1744
 2422TIP3    H128681   4.044   6.369  10.832 -0.5277  0.6973 -0.3402
 2422TIP3    H228682   4.120   6.482  10.766 -0.0470  0.5732 -0.0040
 2423TIP3   OH228683   1.875   2.541  10.947  0.6687  0.2235  0.0921
 2423TIP3    H128684   1.948   2.531  10.886  0.5319 -0.9576  0.1014
 2423TIP3    H228685   1.800   2.504  10.901  0.3537  0.2207  0.6036
 2424TIP3   OH228686   0.367   2.843  10.079 -0.3888  0.3450  0.5461
 2424TIP3    H128687   0.316   2.834  10.160  0.8183 -1.5313  1.1654
 2424TIP3    H228688   0.365   2.756  10.040  1.3415  0.5151 -0.0027
 2425TIP3   OH228689   2.153   3.186  14.386 -0.9338  0.2966 -0.3627
 2425TIP3    H128690   2.191   3.099  14.372 -0.7773  0.2159  0.4922
 2425TIP3    H228691   2.219   3.246  14.350 -0.6782  0.0929 -0.2423
 2426TIP3   OH228692   4.974   3.181   2.940 -0.6587  0.2355 -0.1962
 2426TIP3    H128693   4.971   3.193   3.035  0.7150  3.8776 -0.4546
 2426TIP3    H228694   5.067   3.169   2.920 -0.7205  1.2803 -1.1962
 2427TIP3   OH228695   2.430   4.067  10.480 -0.9275  0.2526  0.3600
 2427TIP3    H128696   2.437   4.016  10.399 -0.6027  1.4497 -0.3938
 2427TIP3    H228697   2.487   4.022  10.542 -0.9252 -0.4948 -0.1711
 2428TIP3   OH228698   1.554   4.196  13.552  0.5662  0.3005  0.3776
 2428TIP3    H128699   1.535   4.279  13.595 -1.7648 -0.5412  1.1644
 2428TIP3    H228700   1.558   4.132  13.623 -1.1195 -0.7625 -0.4032
 2429TIP3   OH228701   1.032   1.169  10.766  0.0757 -0.4428 -0.2460
 2429TIP3    H128702   1.038   1.186  10.672  0.3959 -0.8579 -0.3018
 2429TIP3    H228703   0.944   1.198  10.790 -1.5827 -3.9732 -1.4421
 2430TIP3   OH228704   2.595   0.761  11.956  0.2914  0.1151 -0.6206
 2430TIP3    H128705   2.621   0.807  12.035  0.9161  1.3700 -1.5146
 2430TIP3    H228706   2.499   0.764  11.956  0.2694 -0.4026  0.3549
 2431TIP3   OH228707   5.547   3.596  14.373  1.3431  0.2193  0.2435
 2431TIP3    H128708   5.598   3.552  14.440  0.4932 -0.3756  0.5110
 2431TIP3    H228709   5.458   3.565  14.386  1.2088 -0.1703 -1.3670
 2432TIP3   OH228710   1.059   6.878   9.948  0.4409  0.2673 -0.1033
 2432TIP3    H128711   1.084   6.936  10.020  1.9946  0.2225 -0.5608
 2432TIP3    H228712   0.965   6.890   9.938  0.3691  1.0231  1.2754
 2433TIP3   OH228713   4.700   6.966  12.326 -0.0266  0.0123  0.0622
 2433TIP3    H128714   4.665   6.970  12.237 -0.4442 -0.5543  0.1980
 2433TIP3    H228715   4.783   6.920  12.318  0.5309  1.0409 -0.2095
 2434TIP3   OH228716   5.385   7.102  14.019  0.2697  0.3091 -0.1053
 2434TIP3    H128717   5.353   7.017  13.990 -0.4685 -0.0348  1.5959
 2434TIP3    H228718   5.307   7.148  14.051  0.7685  1.3263 -0.3025
 2435TIP3   OH228719   6.930   1.319  10.661 -0.0980 -0.2221  0.0146
 2435TIP3    H128720   6.846   1.296  10.699 -0.4114  0.5135 -0.2063
 2435TIP3    H228721   6.908   1.359  10.576  0.5780 -1.7285 -0.9071
 2436TIP3   OH228722   2.830   1.411  11.660 -0.3547 -0.1504 -0.3085
 2436TIP3    H128723   2.924   1.404  11.678 -0.6545 -0.8473  1.0564
 2436TIP3    H228724   2.804   1.323  11.634 -1.2896 -0.9016  2.7886
 2437TIP3   OH228725   2.815   2.168  13.239  0.0133 -0.0527 -0.6787
 2437TIP3    H128726   2.750   2.147  13.306 -0.4022 -2.0087 -1.6250
 2437TIP3    H228727   2.778   2.245  13.195 -1.0423 -0.3525 -0.3639
 2438TIP3   OH228728   1.159   4.459   0.036 -0.2869  0.1800 -0.0730
 2438TIP3    H128729   1.109   4.414  -0.032  0.1184  0.0045 -0.2525
 2438TIP3    H228730   1.103   4.533   0.060 -1.1825 -0.6789  0.5713
 2439TIP3   OH228731   1.178   3.780  10.061 -0.2774 -0.2469  0.4603
 2439TIP3    H128732   1.207   3.868  10.085  2.2148 -0.3430 -1.8602
 2439TIP3    H228733   1.087   3.792  10.032 -0.9767  0.9894  2.8798
 2440TIP3   OH228734   5.565   2.993  11.924  0.1268  0.0004  0.1334
 2440TIP3    H128735   5.587   2.915  11.975 -0.3317  0.2419  0.7218
 2440TIP3    H228736   5.475   3.014  11.949  0.1317  0.5311 -0.2577
 2441TIP3   OH228737   2.950   5.606   9.580  0.1219 -0.0781 -0.8572
 2441TIP3    H128738   2.975   5.684   9.630  1.1076 -0.1287 -1.2504
 2441TIP3    H228739   2.856   5.616   9.565 -0.2182 -0.1127  1.0823
 2442TIP3   OH228740   6.551   6.691  10.900  0.7435  0.2822 -0.1194
 2442TIP3    H128741   6.508   6.618  10.944  1.6107 -0.2997 -0.2236
 2442TIP3    H228742   6.627   6.712  10.954 -0.0908  1.8573  0.5207
 2443TIP3   OH228743   5.084   3.169  12.145  0.2629 -1.1452  0.6931
 2443TIP3    H128744   5.078   3.264  12.148 -2.7082 -1.1037 -1.6605
 2443TIP3    H228745   5.060   3.140  12.233 -0.8287  0.2514  0.8726
 2444TIP3   OH228746   6.217   0.817  12.406 -0.1368  0.3036  0.0427
 2444TIP3    H128747   6.287   0.757  12.433  1.2306  1.1620 -1.4101
 2444TIP3    H228748   6.228   0.825  12.311 -0.4272  2.6247  0.1553
 2445TIP3   OH228749   2.815   4.337  13.231  0.1856 -0.5252 -0.4417
 2445TIP3    H128750   2.777   4.251  13.252  0.5844 -1.1697 -2.1462
 2445TIP3    H228751   2.852   4.368  13.314  0.8291 -2.4212  0.0354
 2446TIP3   OH228752   4.593   4.558  11.828 -0.0262  0.0148 -0.4487
 2446TIP3    H128753   4.685   4.583  11.818  0.9738 -2.7600  0.8169
 2446TIP3    H228754   4.586   4.473  11.786 -1.3854 -0.9976  1.6569
 2447TIP3   OH228755   0.699   0.913   0.612 -0.1286 -0.4286 -0.4779
 2447TIP3    H128756   0.725   1.000   0.584  0.7686 -0.6535 -0.3570
 2447TIP3    H228757   0.629   0.928   0.676  0.1118  0.2067 -0.3630
 2448TIP3   OH228758   1.816   4.256  12.749  0.0674  0.2586  0.3118
 2448TIP3    H128759   1.888   4.202  12.782  0.7799  1.1893  0.3654
 2448TIP3    H228760   1.858   4.340  12.728 -0.5777  0.1039 -1.8033
 2449TIP3   OH228761   5.121   6.078  10.018  0.1335  0.6756  0.1435
 2449TIP3    H128762   5.113   6.165   9.979  0.6134 -0.2523 -2.2045
 2449TIP3    H228763   5.040   6.033   9.996  0.2828  0.2088  0.5095
 2450TIP3   OH228764   4.912   4.677  12.575 -0.3826 -0.3583  0.4626
 2450TIP3    H128765   4.827   4.690  12.616 -0.8683  0.4580 -0.7326
 2450TIP3    H228766   4.898   4.607  12.511  0.0595 -0.7832  0.8205
 2451TIP3   OH228767   1.020   4.835   1.561  0.7497 -0.3689 -0.0236
 2451TIP3    H128768   0.948   4.857   1.620  1.9344  1.0897  0.9493
 2451TIP3    H228769   0.980   4.835   1.474 -0.5138 -0.0381  0.5305
 2452TIP3   OH228770   0.367   0.007  10.758 -0.3773 -0.0359  0.7786
 2452TIP3    H128771   0.282   0.024  10.717 -0.9361  1.4947  2.4326
 2452TIP3    H228772   0.389   0.088  10.802  1.3412 -0.8360  1.4894
 2453TIP3   OH228773   5.111   3.458   9.622 -0.3028 -0.7977  0.1337
 2453TIP3    H128774   5.051   3.404   9.571 -1.7108 -0.2874  1.1961
 2453TIP3    H228775   5.077   3.547   9.613  0.1256 -0.5380  0.9770
 2454TIP3   OH228776   5.131   1.558  12.395  0.4476  0.6788 -0.4566
 2454TIP3    H128777   5.036   1.570  12.398  0.3128 -0.3486  0.3452
 2454TIP3    H228778   5.164   1.610  12.468  0.3503  0.0028  0.0823
 2455TIP3   OH228779   6.931   4.406  15.200 -0.4017  0.0039 -0.3424
 2455TIP3    H128780   7.008   4.450  15.236 -0.3288 -1.3301  1.2515
 2455TIP3    H228781   6.949   4.312  15.212 -1.5983 -0.3892 -1.3833
 2456TIP3   OH228782   3.659   4.447  12.121  0.5070  0.3158 -0.8452
 2456TIP3    H128783   3.661   4.509  12.194 -0.9093  0.4309 -0.8766
 2456TIP3    H228784   3.747   4.450  12.085  1.1385  0.5039  0.6567
 2457TIP3   OH228785   6.874   3.887  12.438  0.4542  0.6598 -0.1299
 2457TIP3    H128786   6.874   3.963  12.380  0.2821  0.1521 -0.8088
 2457TIP3    H228787   6.785   3.851  12.432 -0.0862  1.5377  1.7305
 2458TIP3   OH228788   2.994   0.747  10.711 -0.4500  0.0415 -0.3930
 2458TIP3    H128789   2.941   0.716  10.784  0.5626 -1.6817 -0.3529
 2458TIP3    H228790   3.083   0.719  10.732 -0.1151 -0.3776 -2.2227
 2459TIP3   OH228791   1.545   4.570  11.365  0.3056  0.2610 -0.7183
 2459TIP3    H128792   1.502   4.564  11.280  0.2067  1.8864 -0.8012
 2459TIP3    H228793   1.506   4.499  11.416 -0.8724  0.3251 -1.4907
 2460TIP3   OH228794   1.815   2.752  13.809 -0.0704  0.3816 -0.0688
 2460TIP3    H128795   1.876   2.700  13.861  0.0847  1.3932  0.7890
 2460TIP3    H228796   1.798   2.830  13.862 -2.7192 -0.2046  0.0880
 2461TIP3   OH228797   6.072   4.897  13.170 -0.7467 -0.6271  0.1690
 2461TIP3    H128798   6.018   4.973  13.149  0.5229  0.5783  1.0849
 2461TIP3    H228799   6.096   4.860  13.085 -1.1789  0.1452 -0.2979
 2462TIP3   OH228800   4.270   2.263   2.246 -0.3057  0.1318  0.0520
 2462TIP3    H128801   4.308   2.232   2.164 -0.8097 -1.3164  0.3462
 2462TIP3    H228802   4.186   2.301   2.221 -0.7303 -0.8521 -0.0434
 2463TIP3   OH228803   1.881   1.374  10.190 -0.3590 -0.4180 -0.6195
 2463TIP3    H128804   1.974   1.362  10.212  0.2707  0.4336 -2.5841
 2463TIP3    H228805   1.870   1.469  10.188 -1.0079 -0.5103 -1.4213
 2464TIP3   OH228806   2.435   2.442  13.286  0.3529  0.0350  0.5949
 2464TIP3    H128807   2.412   2.529  13.317 -2.2554  0.1567 -1.3422
 2464TIP3    H228808   2.374   2.384  13.332 -1.3584 -0.1148 -1.6710
 2465TIP3   OH228809   1.091   3.545   0.183 -0.1777  0.4975  0.4259
 2465TIP3    H128810   1.091   3.620   0.123  0.6362  0.2868  0.1503
 2465TIP3    H228811   1.000   3.517   0.185 -0.4846  1.4656  0.4972
 2466TIP3   OH228812   2.673   6.425  12.323 -0.6899  0.2140 -0.3056
 2466TIP3    H128813   2.706   6.514  12.317  1.1258 -0.4007 -0.1407
 2466TIP3    H228814   2.647   6.402  12.234  1.4710  0.0097 -0.9592
 2467TIP3   OH228815   5.689   6.089  10.211  0.0719 -0.4534  0.5716
 2467TIP3    H128816   5.763   6.143  10.238  0.3581  0.5382 -1.9011
 2467TIP3    H228817   5.612   6.139  10.237  0.3227  0.1090  0.2553
 2468TIP3   OH228818   1.292   3.790  11.647 -0.0421  0.0040 -1.0043
 2468TIP3    H128819   1.253   3.825  11.727  0.7486  0.4202 -0.7960
 2468TIP3    H228820   1.342   3.714  11.676  0.8050  0.5574 -0.9960
 2469TIP3   OH228821   5.580   6.565   9.596 -0.0186  0.1977  0.0575
 2469TIP3    H128822   5.613   6.490   9.546 -0.6638 -0.2133  0.2314
 2469TIP3    H228823   5.631   6.639   9.564  3.2187 -0.8207  2.3989
 2470TIP3   OH228824   5.924   1.746  10.838 -0.0420 -0.1981 -0.7118
 2470TIP3    H128825   5.889   1.659  10.857 -0.2120 -0.3510 -1.6515
 2470TIP3    H228826   5.855   1.807  10.866 -0.0037 -0.3697 -0.2373
 2471TIP3   OH228827   6.998   6.711   0.825  0.2561  0.1717 -0.3016
 2471TIP3    H128828   6.974   6.768   0.752 -0.7731 -0.4931 -0.5108
 2471TIP3    H228829   6.998   6.768   0.902  1.1649  0.8414 -0.7797
 2472TIP3   OH228830   5.848   5.942  11.642 -0.0092  0.0171 -0.4583
 2472TIP3    H128831   5.928   5.943  11.590 -0.0183  0.7484 -0.4657
 2472TIP3    H228832   5.778   5.957  11.578  0.0649  2.0833 -0.1200
 2473TIP3   OH228833   3.572   6.905  13.508  0.2042  0.2405 -0.1266
 2473TIP3    H128834   3.483   6.913  13.475 -0.0471  3.4219  0.9573
 2473TIP3    H228835   3.627   6.914  13.431 -0.4003 -0.3922 -0.6391
 2474TIP3   OH228836   0.426   1.485  12.852  0.1846  0.1480 -0.6582
 2474TIP3    H128837   0.411   1.398  12.814  0.4104  1.1281 -3.1277
 2474TIP3    H228838   0.516   1.481  12.886  0.0939 -0.6514 -0.4909
 2475TIP3   OH228839   1.477   0.976  12.019 -0.2732 -0.0407  0.1195
 2475TIP3    H128840   1.505   1.028  12.094 -2.4714 -0.3019  1.2103
 2475TIP3    H228841   1.456   1.040  11.951  1.9547  0.1868 -0.4193
 2476TIP3   OH228842   5.856   3.506  15.304 -0.2354 -0.4766 -0.0767
 2476TIP3    H128843   5.935   3.541  15.346  0.7558 -2.9946  0.2920
 2476TIP3    H228844   5.878   3.506  15.211 -1.3076  2.2888 -0.4442
 2477TIP3   OH228845   6.950   6.654  12.981 -0.3535  0.2000  0.0690
 2477TIP3    H128846   6.855   6.646  12.986 -0.2799 -0.2014  1.1170
 2477TIP3    H228847   6.972   6.723  13.043  0.0086  0.5926 -0.4891
 2478TIP3   OH228848   0.279   5.013  10.690 -0.1236 -0.0296  0.4063
 2478TIP3    H128849   0.258   4.920  10.681  0.0073 -0.0732  0.5572
 2478TIP3    H228850   0.370   5.015  10.719  0.2921  0.1742 -0.8635
 2479TIP3   OH228851   4.194   3.077  11.787  0.3941  0.2568 -0.6858
 2479TIP3    H128852   4.114   3.075  11.735  0.8512 -1.1713 -1.3985
 2479TIP3    H228853   4.187   3.157  11.839 -0.9762  0.7273 -1.5329
 2480TIP3   OH228854   3.296   4.424  10.974  0.6538  0.1576 -0.1153
 2480TIP3    H128855   3.346   4.505  10.987  0.8256  0.0686 -0.2201
 2480TIP3    H228856   3.243   4.440  10.896  2.1617 -0.5414 -1.3470
 2481TIP3   OH228857   0.753   6.085  13.689 -0.5773 -0.1408  0.3468
 2481TIP3    H128858   0.759   6.001  13.643  0.9114 -0.4022  0.9672
 2481TIP3    H228859   0.743   6.149  13.619 -0.5175 -0.7189 -0.2079
 2482TIP3   OH228860   1.776   5.189  12.757 -0.1282  0.3731 -0.3759
 2482TIP3    H128861   1.802   5.221  12.844  0.3023 -1.3781  0.1817
 2482TIP3    H228862   1.772   5.094  12.767  0.4332  0.0979 -2.4289
 2483TIP3   OH228863   1.692   1.400  11.598 -0.0732 -0.4372 -0.3852
 2483TIP3    H128864   1.630   1.328  11.588 -0.1054 -0.5610  0.6175
 2483TIP3    H228865   1.687   1.423  11.690  0.5551  0.2966 -0.5278
 2484TIP3   OH228866   5.462   0.400  11.104 -0.2553 -0.0543 -0.2748
 2484TIP3    H128867   5.470   0.442  11.019 -0.5108 -0.2639 -0.4038
 2484TIP3    H228868   5.524   0.448  11.160  1.8500 -1.5634 -1.1900
 2485TIP3   OH228869   2.208   3.064  12.807 -0.2941  0.2322  0.4985
 2485TIP3    H128870   2.264   3.060  12.885  0.5074  0.7066 -0.0419
 2485TIP3    H228871   2.269   3.068  12.733 -1.0208  1.3933 -0.0715
 2486TIP3   OH228872   0.191   3.891   9.508 -0.1738 -0.3838  0.2057
 2486TIP3    H128873   0.217   3.958   9.445  0.1674  0.0138  0.7746
 2486TIP3    H228874   0.102   3.915   9.534  0.3529  0.4929  1.2571
 2487TIP3   OH228875   4.066   4.063  10.537  0.6220  0.0376  0.5692
 2487TIP3    H128876   4.137   4.075  10.474  0.4542 -0.8404  0.2034
 2487TIP3    H228877   4.029   4.151  10.549  1.6546  0.4683  0.6371
 2488TIP3   OH228878   0.016   7.140  10.174  0.4991  0.0994  0.0261
 2488TIP3    H128879   0.025   7.160  10.268 -0.0505  0.0620  0.0950
 2488TIP3    H228880  -0.008   7.047  10.172  2.7393 -0.5117 -0.2765
 2489TIP3   OH228881   2.879   5.937   0.334  0.4775  0.1391 -0.0406
 2489TIP3    H128882   2.800   5.964   0.287 -1.1978 -2.3097  1.1159
 2489TIP3    H228883   2.877   5.989   0.415  0.2602  0.3747 -0.1959
 2490TIP3   OH228884   4.469   3.964  10.521  0.1830  0.4199  0.9336
 2490TIP3    H128885   4.427   3.961  10.607 -0.1584  0.1123  0.7602
 2490TIP3    H228886   4.484   3.872  10.499 -2.6541  0.2452 -0.7463
 2491TIP3   OH228887   6.027   2.220  11.293  0.0511 -0.5135  0.6017
 2491TIP3    H128888   6.041   2.149  11.357 -0.2605 -0.1261  1.1115
 2491TIP3    H228889   6.092   2.286  11.317  2.7034 -1.9610 -1.9659
 2492TIP3   OH228890   1.067   2.463   1.442 -0.1593  0.1981 -0.0214
 2492TIP3    H128891   1.141   2.407   1.465  0.0803  0.4221 -0.2407
 2492TIP3    H228892   1.067   2.531   1.510  0.0681  0.4104 -0.2292
 2493TIP3   OH228893   2.844   5.852  15.255 -0.0836 -0.1267  0.2985
 2493TIP3    H128894   2.916   5.856  15.317  0.0647 -2.2338  0.3294
 2493TIP3    H228895   2.883   5.820  15.174 -0.5753  1.0251 -0.4236
 2494TIP3   OH228896   6.831   2.370  10.621 -0.1334 -0.3327 -0.4412
 2494TIP3    H128897   6.818   2.464  10.615 -3.7125 -0.7795 -1.8484
 2494TIP3    H228898   6.849   2.354  10.714 -2.4978  1.5072  0.4440
 2495TIP3   OH228899   0.251   0.388  12.877  0.1201  0.1252 -0.2654
 2495TIP3    H128900   0.229   0.463  12.822 -0.3124  0.5650  0.4892
 2495TIP3    H228901   0.301   0.424  12.949  0.4509 -0.4049 -0.2230
 2496TIP3   OH228902   2.997   3.522   9.970  0.3135 -0.1687 -0.0881
 2496TIP3    H128903   2.946   3.578   9.912 -1.0591 -0.5865  0.6766
 2496TIP3    H228904   2.957   3.435   9.960  1.0968 -0.5771  0.2799
 2497TIP3   OH228905   2.191   4.150  11.893  0.5923 -0.1326  0.0207
 2497TIP3    H128906   2.209   4.223  11.834  0.6315  0.7129  1.0640
 2497TIP3    H228907   2.224   4.073  11.846  0.3404  0.4743 -1.1878
 2498TIP3   OH228908   1.246   0.904  15.270  0.0368 -0.4041 -0.6822
 2498TIP3    H128909   1.235   0.835  15.205  2.1745 -0.3484 -1.1816
 2498TIP3    H228910   1.299   0.970  15.227 -0.1260  0.5454  0.5027
 2499TIP3   OH228911   1.506   2.632  11.577 -0.5414  0.0802 -0.3390
 2499TIP3    H128912   1.451   2.621  11.500 -1.8702  1.9921  0.2703
 2499TIP3    H228913   1.475   2.713  11.618  2.4557  1.0334  0.2948
 2500TIP3   OH228914   3.051   6.790  10.630 -0.1894 -0.2236  0.3141
 2500TIP3    H128915   3.026   6.792  10.723 -0.9283  0.3519  0.1210
 2500TIP3    H228916   3.125   6.730  10.626  0.1357  0.0851  1.3468
 2501TIP3   OH228917   3.013   5.291  13.844 -0.9160 -0.1697 -0.5787
 2501TIP3    H128918   3.070   5.339  13.903 -1.0825  2.1783 -2.2104
 2501TIP3    H228919   3.063   5.284  13.762 -0.9099 -2.8413 -0.4408
 2502TIP3   OH228920   3.129   0.925   9.697  0.1482  0.5679  0.7247
 2502TIP3    H128921   3.158   0.838   9.670  1.0540  0.4595  1.9697
 2502TIP3    H228922   3.153   0.982   9.625 -0.2566 -0.1666 -0.0158
 2503TIP3   OH228923   2.937   3.352   0.477  0.3110 -0.3251 -0.2739
 2503TIP3    H128924   2.875   3.313   0.539 -1.1684  0.5328 -1.1647
 2503TIP3    H228925   3.020   3.308   0.497  0.2523  0.7839  3.1487
 2504TIP3   OH228926   2.819   4.106  14.612 -0.0142  0.2379 -0.5707
 2504TIP3    H128927   2.799   4.061  14.694 -0.2549  0.4693 -0.4987
 2504TIP3    H228928   2.748   4.080  14.553 -0.7545  1.3377 -0.2082
 2505TIP3   OH228929   2.240   4.281  10.680 -0.0122  0.7192 -0.3309
 2505TIP3    H128930   2.249   4.297  10.774 -0.5049 -0.0158 -0.1455
 2505TIP3    H228931   2.314   4.224  10.659  0.5164  1.4744 -0.5457
 2506TIP3   OH228932   0.908   3.018  12.972  0.5316  0.1074  0.1539
 2506TIP3    H128933   0.875   3.097  13.014  0.6014  0.5161 -0.5520
 2506TIP3    H228934   0.845   2.999  12.903  1.6873  0.8416 -1.1467
 2507TIP3   OH228935   2.547   6.072  14.809  0.0441 -0.5163  0.1801
 2507TIP3    H128936   2.591   6.013  14.748  0.9270  0.7743 -0.4819
 2507TIP3    H228937   2.585   6.053  14.894  0.1002 -1.1001  0.0236
 2508TIP3   OH228938   6.133   5.868  12.233 -0.4510  0.3423 -0.1482
 2508TIP3    H128939   6.115   5.806  12.162 -0.8604 -0.1426  0.3626
 2508TIP3    H228940   6.083   5.834  12.308  0.8003  0.2333  0.6814
 2509TIP3   OH228941   5.226   3.406  10.310  0.0937  0.5992 -0.4017
 2509TIP3    H128942   5.287   3.479  10.305 -0.3640  0.9850 -0.4382
 2509TIP3    H228943   5.230   3.365  10.224  1.8114 -0.6355  0.2096
 2510TIP3   OH228944   4.697   4.857  10.249 -0.2035 -0.0945  0.3955
 2510TIP3    H128945   4.604   4.864  10.230 -0.3661 -0.5022  1.0157
 2510TIP3    H228946   4.703   4.793  10.320  0.3999  1.0381  1.4109
 2511TIP3   OH228947   5.288   2.214  11.057  0.2356 -0.2953 -0.1107
 2511TIP3    H128948   5.238   2.205  11.139  0.2349  0.5946 -0.0001
 2511TIP3    H228949   5.248   2.289  11.013  0.7777 -0.2518 -0.5421
 2512TIP3   OH228950   5.327   4.080  10.054 -0.5373 -0.7299  0.1639
 2512TIP3    H128951   5.386   4.141  10.009  0.9083 -0.5193  2.2075
 2512TIP3    H228952   5.377   4.051  10.130 -2.7495 -1.3130  1.4634
 2513TIP3   OH228953   5.682   3.551   9.874 -0.3591  0.1830  0.0653
 2513TIP3    H128954   5.732   3.472   9.894 -0.4681 -0.3773 -1.7122
 2513TIP3    H228955   5.746   3.614   9.843 -0.5734 -0.0637 -0.8923
 2514TIP3   OH228956   3.484   2.984  10.710 -0.0376 -0.6213 -0.5167
 2514TIP3    H128957   3.473   3.048  10.640  0.2335  1.2789  1.0767
 2514TIP3    H228958   3.555   3.019  10.764 -1.1350 -1.2719  1.4619
 2515TIP3   OH228959   3.473   3.798   9.934  0.3194 -0.2223  0.2079
 2515TIP3    H128960   3.437   3.864   9.993 -0.4288 -0.2995 -0.1602
 2515TIP3    H228961   3.398   3.764   9.887  0.9704  0.2631 -1.2298
 2516TIP3   OH228962   0.510   2.755   0.463 -0.0206  0.1766  0.1843
 2516TIP3    H128963   0.557   2.768   0.545 -0.5512  0.7856  0.3993
 2516TIP3    H228964   0.569   2.791   0.396  0.4777 -0.4610  0.2673
 2517TIP3   OH228965   3.035   4.259  13.083  0.2928 -0.3598 -0.0749
 2517TIP3    H128966   3.014   4.204  13.008  1.1329 -0.0648 -0.5407
 2517TIP3    H228967   2.951   4.278  13.123 -0.1771 -0.4322 -1.0029
 2518TIP3   OH228968   4.643   1.800  10.795 -0.2046 -0.7407 -0.4128
 2518TIP3    H128969   4.613   1.840  10.877 -2.4840  0.7143 -1.8494
 2518TIP3    H228970   4.715   1.855  10.766 -0.4986 -0.2495 -0.2183
 2519TIP3   OH228971   5.549   1.484   3.105 -0.0916 -0.2064 -0.2990
 2519TIP3    H128972   5.512   1.568   3.132 -0.1745  0.4580 -2.3468
 2519TIP3    H228973   5.636   1.483   3.144  0.0651  1.0306 -0.5540
 2520TIP3   OH228974   2.809   4.878  11.909  0.1190  0.6252  0.3183
 2520TIP3    H128975   2.837   4.969  11.914 -0.4106  0.8286 -0.3091
 2520TIP3    H228976   2.739   4.870  11.974  1.2397  0.2440  1.5248
 2521TIP3   OH228977   4.965   4.872  11.526 -0.1950  0.0867 -0.2162
 2521TIP3    H128978   4.889   4.929  11.536 -0.0503  0.0720  1.1329
 2521TIP3    H228979   4.974   4.861  11.431 -1.5222  0.5480 -0.4193
 2522TIP3   OH228980   2.097   4.535  15.035 -0.1634  0.2531 -0.3122
 2522TIP3    H128981   2.083   4.442  15.054 -1.9138  0.7480  1.0396
 2522TIP3    H228982   2.188   4.551  15.061  0.3638 -1.1779 -1.1346
 2523TIP3   OH228983   5.040   4.100  10.195  0.0649 -0.2986  0.0568
 2523TIP3    H128984   5.130   4.092  10.228  0.1562 -2.5998 -0.6185
 2523TIP3    H228985   5.039   4.047  10.115 -1.8432 -0.1042 -0.0943
 2524TIP3   OH228986   1.291   5.817  12.264  0.0666 -0.0847 -0.2355
 2524TIP3    H128987   1.339   5.831  12.183 -1.0455  0.5752 -0.8105
 2524TIP3    H228988   1.199   5.823  12.238 -0.3864 -2.1696  0.6594
 2525TIP3   OH228989   2.559   0.969  11.745  0.3542 -0.5201 -0.3049
 2525TIP3    H128990   2.557   0.901  11.677  3.3529 -1.4833  0.4039
 2525TIP3    H228991   2.584   0.921  11.824 -0.5145  0.9838  0.9092
 2526TIP3   OH228992   6.320   4.655  14.926  0.7669  0.5507 -0.3426
 2526TIP3    H128993   6.390   4.613  14.976 -0.4207 -1.0192  0.0768
 2526TIP3    H228994   6.290   4.728  14.981  0.6908 -0.0520  0.4141
 2527TIP3   OH228995   2.270   0.064  10.367 -0.1569  0.3175  1.3320
 2527TIP3    H128996   2.213   0.142  10.366  0.7909  1.0658  2.7443
 2527TIP3    H228997   2.337   0.084  10.432  1.7361 -0.5593 -0.2600
 2528TIP3   OH228998   0.955   2.890  11.421  0.3388 -0.1990 -0.1313
 2528TIP3    H128999   0.991   2.801  11.416 -1.7808 -1.1655  0.3131
 2528TIP3    H229000   0.968   2.915  11.513  0.5299 -0.2493 -0.1442
 2529TIP3   OH229001   1.297   6.539  10.551  0.3087 -0.1052 -0.1069
 2529TIP3    H129002   1.362   6.559  10.618 -1.3883 -0.8892  1.8685
 2529TIP3    H229003   1.241   6.617  10.547  0.7586  0.1951 -1.1325
 2530TIP3   OH229004   1.319   5.618  10.710 -0.1793 -0.1145 -0.1041
 2530TIP3    H129005   1.226   5.608  10.692 -0.2998  0.1981  0.3344
 2530TIP3    H229006   1.359   5.624  10.623 -0.5650 -0.2646 -0.2946
 2531TIP3   OH229007   5.935   2.650   9.748  0.0440 -0.5398  0.6569
 2531TIP3    H129008   6.019   2.658   9.702  0.3744 -0.0890  1.3138
 2531TIP3    H229009   5.915   2.557   9.746  1.4886 -0.9413  2.0649
 2532TIP3   OH229010   0.139   0.036   2.625  0.3212  0.1842 -0.2819
 2532TIP3    H129011   0.154  -0.034   2.689  0.1767  0.6915  0.3136
 2532TIP3    H229012   0.226   0.071   2.605  0.4240 -0.3384 -0.7931
 2533TIP3   OH229013   0.803   0.106   9.783 -0.3012 -0.0280 -0.1761
 2533TIP3    H129014   0.895   0.105   9.810  0.2284 -0.1176 -1.8331
 2533TIP3    H229015   0.755   0.080   9.861  1.2024 -1.5696  0.3127
 2534TIP3   OH229016   2.854   5.230  14.363  0.6567 -0.2853 -0.3781
 2534TIP3    H129017   2.885   5.152  14.316  1.6619  0.5522 -1.1648
 2534TIP3    H229018   2.894   5.303  14.316 -0.2201  0.7098  0.3833
 2535TIP3   OH229019   3.807   2.156  10.220  0.3299  0.6835  0.1418
 2535TIP3    H129020   3.769   2.244  10.210 -1.9501 -0.3516 -0.9281
 2535TIP3    H229021   3.823   2.127  10.130  0.3496 -0.3121  0.4645
 2536TIP3   OH229022   2.774   4.415   9.916  0.6471 -0.3488 -0.6202
 2536TIP3    H129023   2.864   4.449   9.919  0.7106 -0.4344 -1.4118
 2536TIP3    H229024   2.748   4.423   9.824 -0.6773  1.0281 -0.1677
 2537TIP3   OH229025   1.046   1.471  15.245 -0.1593  0.3080  0.1353
 2537TIP3    H129026   0.978   1.506  15.303 -1.3754 -0.7993 -0.5781
 2537TIP3    H229027   1.072   1.545  15.192 -0.5270  0.8476  0.6860
 2538TIP3   OH229028   4.688   5.380  12.718  0.3158 -0.3603 -0.0421
 2538TIP3    H129029   4.682   5.351  12.809  0.6269 -1.7087 -0.4351
 2538TIP3    H229030   4.608   5.346  12.677  0.3316 -0.0319 -0.3512
 2539TIP3   OH229031   5.597   0.362  13.622 -1.0803  0.0973 -0.0067
 2539TIP3    H129032   5.607   0.383  13.529 -1.1278  2.0079  0.3899
 2539TIP3    H229033   5.679   0.318  13.645 -0.6738  0.4643 -0.7284
 2540TIP3   OH229034   7.041   6.991  12.701  0.2478  0.1498  0.0436
 2540TIP3    H129035   7.113   7.010  12.641 -0.8553 -0.4629 -1.5112
 2540TIP3    H229036   6.984   7.068  12.695 -1.2834 -1.0572 -1.8820
 2541TIP3   OH229037   3.244   3.471  12.253  0.7089 -0.2510 -0.1575
 2541TIP3    H129038   3.241   3.481  12.348 -1.2389 -2.1246  0.0711
 2541TIP3    H229039   3.183   3.400  12.235  2.3968 -1.2180 -2.6559
 2542TIP3   OH229040   1.597   5.113  10.759  1.0035 -0.0660  0.0919
 2542TIP3    H129041   1.600   5.208  10.759  1.5554 -0.0667  0.8416
 2542TIP3    H229042   1.529   5.091  10.823 -0.0292 -0.1809 -1.0140
 2543TIP3   OH229043   7.070   1.604  12.995  0.1501 -0.7180 -0.1048
 2543TIP3    H129044   7.050   1.552  13.073 -1.8390  1.1817  0.7504
 2543TIP3    H229045   7.018   1.564  12.926  1.8365 -2.3404 -0.5348
 2544TIP3   OH229046   6.667   6.406   1.745 -0.4543 -0.0623  0.0611
 2544TIP3    H129047   6.744   6.458   1.769  0.3368 -1.9610  2.0154
 2544TIP3    H229048   6.674   6.395   1.650 -1.3040  4.1784 -0.6849
 2545TIP3   OH229049   0.433   6.992  11.495 -0.0746  1.0093  0.2410
 2545TIP3    H129050   0.358   6.936  11.512  0.9225 -0.3848  0.2383
 2545TIP3    H229051   0.399   7.061  11.438 -1.0236 -0.5419 -1.1806
 2546TIP3   OH229052   1.734   4.859  12.976 -0.0088  0.2306  0.3215
 2546TIP3    H129053   1.761   4.925  13.040  0.4162 -0.1585  0.5472
 2546TIP3    H229054   1.815   4.825  12.939 -0.2015 -0.4422  0.4911
 2547TIP3   OH229055   0.631   2.542  12.916 -0.3134  0.1112 -0.4927
 2547TIP3    H129056   0.544   2.520  12.882 -0.2794  0.5800 -0.8917
 2547TIP3    H229057   0.614   2.580  13.002 -0.3543 -1.6864  0.3173
 2548TIP3   OH229058   0.089   4.820   9.656  0.7850 -0.1871  0.3911
 2548TIP3    H129059   0.162   4.784   9.605  0.9733  1.6237 -0.6950
 2548TIP3    H229060   0.098   4.915   9.647 -2.4047  0.1048 -0.7887
 2549TIP3   OH229061   0.153   0.956  13.868  0.0735  0.4129  0.1578
 2549TIP3    H129062   0.184   0.976  13.957 -1.9435  1.2291  0.7454
 2549TIP3    H229063   0.185   1.028  13.814 -0.8157  1.2924  0.7650
 2550TIP3   OH229064   0.485   5.240  12.963 -0.0934 -0.2221  0.0968
 2550TIP3    H129065   0.400   5.284  12.955  0.3140  0.5510 -0.0369
 2550TIP3    H229066   0.520   5.238  12.874 -0.9054 -2.5004 -0.2511
 2551TIP3   OH229067   4.868   5.652  13.209  0.1154  0.6771 -0.0922
 2551TIP3    H129068   4.783   5.639  13.250  0.6425 -0.1465  0.8064
 2551TIP3    H229069   4.928   5.598  13.261  1.0317  0.5329 -1.2533
 2552TIP3   OH229070   5.906   2.897  10.700 -0.0414 -0.4221 -0.5320
 2552TIP3    H129071   5.880   2.842  10.626 -0.6879 -0.2741 -0.4206
 2552TIP3    H229072   5.861   2.859  10.775 -0.8443  0.4887 -0.5239
 2553TIP3   OH229073   7.128   5.304  10.446 -0.3035 -0.1402 -0.5117
 2553TIP3    H129074   7.085   5.311  10.531 -1.1338  0.3487 -0.9545
 2553TIP3    H229075   7.200   5.367  10.449 -0.3990 -0.0459 -0.2068
 2554TIP3   OH229076   7.186   2.361  11.810  0.5971 -0.2606 -0.3964
 2554TIP3    H129077   7.260   2.358  11.870  0.3818 -1.9476 -0.1697
 2554TIP3    H229078   7.112   2.388  11.865  0.9794  1.2545 -0.5877
 2555TIP3   OH229079   0.853   3.830  13.761 -0.2442  0.4613 -0.0837
 2555TIP3    H129080   0.910   3.907  13.751 -0.4489  0.9667  2.1592
 2555TIP3    H229081   0.793   3.854  13.831 -1.4589 -1.1136 -0.5351
 2556TIP3   OH229082   2.233   4.358  10.938  0.3002 -0.2911 -0.2842
 2556TIP3    H129083   2.233   4.441  10.986  1.6364 -0.8327  0.7277
 2556TIP3    H229084   2.143   4.326  10.946  0.1985  0.2265  0.8300
 2557TIP3   OH229085   3.890   0.057   9.853  0.2811 -0.3217  0.6075
 2557TIP3    H129086   3.852  -0.008   9.912 -1.7631  0.1807 -0.0811
 2557TIP3    H229087   3.841   0.137   9.871 -0.0827 -0.0346 -1.4245
 2558TIP3   OH229088   3.358   0.956  13.011 -0.0888  0.0355  0.3833
 2558TIP3    H129089   3.443   0.926  12.978  0.5229  2.7243 -0.7679
 2558TIP3    H229090   3.297   0.939  12.939 -0.3157 -0.8688  0.7786
 2559TIP3   OH229091   6.647   5.029   9.368 -0.0509  0.0607 -0.1286
 2559TIP3    H129092   6.714   5.045   9.301  0.6727 -1.4668  0.1887
 2559TIP3    H229093   6.611   4.943   9.347 -1.5174  0.5942  0.0653
 2560TIP3   OH229094   1.285   0.396  12.124  0.0410 -0.3092 -0.1094
 2560TIP3    H129095   1.257   0.486  12.140  1.4861  0.0719  0.4142
 2560TIP3    H229096   1.259   0.348  12.203  1.0556  0.0983  0.4885
 2561TIP3   OH229097   0.988   2.120   9.540 -0.5607  0.1638 -0.0127
 2561TIP3    H129098   1.014   2.092   9.452 -0.0519 -0.4449  0.3185
 2561TIP3    H229099   0.909   2.070   9.559 -0.4994  0.0661 -0.0107
 2562TIP3   OH229100   5.872   3.894  10.376 -0.0808  0.3506 -0.4190
 2562TIP3    H129101   5.783   3.858  10.387  0.6533 -2.1851 -1.9583
 2562TIP3    H229102   5.868   3.943  10.294 -0.2161  0.8356 -0.1254
 2563TIP3   OH229103   0.981   4.806  13.537 -0.4794 -0.1779  0.3267
 2563TIP3    H129104   0.935   4.812  13.621  0.3817 -1.0081  0.8736
 2563TIP3    H229105   1.017   4.894  13.523 -0.8429  0.0327  0.6865
 2564TIP3   OH229106   6.671   3.861  11.129  0.3955  0.6792 -0.5884
 2564TIP3    H129107   6.650   3.929  11.192  0.6001  0.1071  0.1143
 2564TIP3    H229108   6.624   3.886  11.049 -0.7602  0.8334  0.1246
 2565TIP3   OH229109   1.083   0.579  11.433 -0.5210  0.5391 -0.3109
 2565TIP3    H129110   1.058   0.519  11.362 -0.8860 -1.2977  1.2762
 2565TIP3    H229111   0.999   0.612  11.466 -0.5721 -0.8467  1.0543
 2566TIP3   OH229112   1.246   1.893  10.309  0.3451  0.3875 -0.6940
 2566TIP3    H129113   1.338   1.891  10.335 -0.1899  0.8597  1.3691
 2566TIP3    H229114   1.247   1.868  10.216  2.6330  1.3706 -1.0082
 2567TIP3   OH229115   0.697   0.714   1.808  0.2344 -0.1832 -0.1880
 2567TIP3    H129116   0.616   0.765   1.804  0.9817  1.2956  1.9692
 2567TIP3    H229117   0.754   0.756   1.744  0.9191  1.9855  1.7158
 2568TIP3   OH229118   2.321   0.653  10.242 -0.0160  0.0718  0.2129
 2568TIP3    H129119   2.272   0.582  10.201  1.7471 -1.0099 -0.0817
 2568TIP3    H229120   2.363   0.699  10.169 -0.8560  1.2513  0.4301
 2569TIP3   OH229121   6.123   6.322  14.775  0.0921  0.2357 -0.3359
 2569TIP3    H129122   6.205   6.370  14.760  1.2115 -1.5097 -0.0747
 2569TIP3    H229123   6.090   6.302  14.688  0.4157  0.2001 -0.4505
 2570TIP3   OH229124   2.227   6.559   3.682  0.0026  0.3205  0.7254
 2570TIP3    H129125   2.251   6.540   3.591  1.0088 -1.8308  1.3821
 2570TIP3    H229126   2.132   6.573   3.679 -0.4805 -2.6417 -0.2821
 2571TIP3   OH229127   2.636   1.796   2.334 -0.6088  0.2016  0.1686
 2571TIP3    H129128   2.571   1.861   2.357 -0.3011 -0.1545  2.2215
 2571TIP3    H229129   2.719   1.831   2.367 -0.2879 -0.7669  0.4499
 2572TIP3   OH229130   7.113   4.477  14.845  0.6118  0.1214  0.0719
 2572TIP3    H129131   7.127   4.559  14.893  0.8279  0.1884 -0.1036
 2572TIP3    H229132   7.192   4.426  14.861  0.2928 -0.2329  0.5319
 2573TIP3   OH229133   3.445   6.722   1.061 -0.1539 -0.2767  0.5977
 2573TIP3    H129134   3.486   6.805   1.085  0.0224  0.3481 -1.6290
 2573TIP3    H229135   3.504   6.655   1.097  0.4899  0.5662  1.1520
 2574TIP3   OH229136   0.908   2.185  14.004  0.0879 -0.5864 -0.3598
 2574TIP3    H129137   0.970   2.256  13.988 -0.6610  0.5403  1.4042
 2574TIP3    H229138   0.937   2.145  14.086 -1.7534  0.3351  0.8194
 2575TIP3   OH229139   3.800   0.209  12.490  0.2480 -0.1821  0.2141
 2575TIP3    H129140   3.786   0.119  12.519 -0.9534  0.8925  3.5152
 2575TIP3    H229141   3.792   0.261  12.570  0.4008  2.9322 -1.6222
 2576TIP3   OH229142   4.888   6.596   1.195  0.7645 -0.5657 -0.3871
 2576TIP3    H129143   4.815   6.616   1.253  1.1512 -0.1058 -0.0564
 2576TIP3    H229144   4.848   6.556   1.118 -0.0089  1.2716 -0.9789
 2577TIP3   OH229145   6.396   2.128  11.344 -0.1393 -0.1101 -0.1205
 2577TIP3    H129146   6.434   2.068  11.408 -1.3667  0.3968  1.1378
 2577TIP3    H229147   6.471   2.178  11.310  0.7973 -1.7631 -0.6178
 2578TIP3   OH229148   5.797   1.113  11.036  0.4481 -0.1050 -0.1357
 2578TIP3    H129149   5.856   1.107  10.961  1.8574 -1.1046  0.9844
 2578TIP3    H229150   5.709   1.114  10.999  1.1315  1.0530 -1.8573
 2579TIP3   OH229151   0.740   5.300  13.115 -0.2425  0.2363  0.5695
 2579TIP3    H129152   0.655   5.280  13.076  0.1504  1.7991 -1.2313
 2579TIP3    H229153   0.719   5.341  13.200 -1.1796 -1.3427  1.1275
 2580TIP3   OH229154   4.735   4.994   9.821 -0.3900 -0.0664 -0.1147
 2580TIP3    H129155   4.640   4.984   9.814 -0.2960 -0.5524 -0.7670
 2580TIP3    H229156   4.759   5.047   9.744  0.2516 -2.6792 -1.8658
 2581TIP3   OH229157   4.523   3.321  13.700  0.1124  0.1562  0.0648
 2581TIP3    H129158   4.544   3.394  13.642  4.0708 -2.6153 -2.5277
 2581TIP3    H229159   4.465   3.264  13.648  0.6819 -0.6123  0.2488
 2582TIP3   OH229160   1.003   2.205  12.704  0.5335  0.6309  0.2462
 2582TIP3    H129161   0.908   2.217  12.700  0.5657  0.8462  0.1436
 2582TIP3    H229162   1.014   2.112  12.724  0.2801  0.9417  1.9809
 2583TIP3   OH229163   3.036   3.493  10.916  0.5099  0.0805  0.0885
 2583TIP3    H129164   2.969   3.427  10.937 -0.2294  0.2875 -1.4812
 2583TIP3    H229165   3.113   3.464  10.965 -0.2788 -1.0241  0.7403
 2584TIP3   OH229166   5.544   3.255   1.656  0.0549  0.1173 -0.1836
 2584TIP3    H129167   5.602   3.236   1.582 -0.5525 -0.8714 -0.4276
 2584TIP3    H229168   5.548   3.176   1.710 -1.3092 -0.1102 -0.3810
 2585TIP3   OH229169   0.643   6.255   0.064  0.1359  0.1242  0.2011
 2585TIP3    H129170   0.672   6.346   0.075 -0.3494  0.4496 -1.0187
 2585TIP3    H229171   0.579   6.259  -0.007 -0.9171 -0.9796  1.0492
 2586TIP3   OH229172   2.794   3.531   0.889  0.1745 -0.9745 -0.5374
 2586TIP3    H129173   2.824   3.476   0.961 -0.6763 -1.5386 -0.5979
 2586TIP3    H229174   2.751   3.471   0.828  1.1711 -0.5511 -1.6987
 2587TIP3   OH229175   0.510   7.090   9.731 -0.7804 -0.2967  0.3544
 2587TIP3    H129176   0.478   7.158   9.791 -0.5755 -0.0439  0.1823
 2587TIP3    H229177   0.475   7.116   9.646  0.9503  0.7466 -0.1010
 2588TIP3   OH229178   2.536   3.227   0.409  0.4018  0.9373  0.5878
 2588TIP3    H129179   2.519   3.163   0.478  1.6952 -1.2901 -1.0494
 2588TIP3    H229180   2.467   3.293   0.420 -2.6505 -2.0434  0.7975
 2589TIP3   OH229181   5.491   2.673   9.749 -0.0452 -0.6335 -0.4473
 2589TIP3    H129182   5.517   2.591   9.790 -2.2166 -0.9469  0.4778
 2589TIP3    H229183   5.492   2.656   9.655 -0.1532 -1.6062 -0.2731
 2590TIP3   OH229184   2.218   1.896  12.281  1.2482  0.5171  0.3246
 2590TIP3    H129185   2.183   1.811  12.307  0.4791  1.1289  1.3718
 2590TIP3    H229186   2.270   1.878  12.203 -0.4266 -0.6168 -0.5861
 2591TIP3   OH229187   6.791   2.168  10.187 -0.0962  0.9130 -0.1987
 2591TIP3    H129188   6.709   2.217  10.189 -0.8596 -0.2955 -0.8203
 2591TIP3    H229189   6.827   2.184  10.100 -1.8102 -1.8310 -1.5629
 2592TIP3   OH229190   2.121   6.521  11.287 -0.4352  0.6031 -0.1728
 2592TIP3    H129191   2.071   6.495  11.210 -0.6574  0.4698  0.0139
 2592TIP3    H229192   2.191   6.576  11.253  1.3956 -1.9621 -0.8651
 2593TIP3   OH229193   7.044   4.870  12.712  0.0610 -0.1479  0.5038
 2593TIP3    H129194   6.966   4.844  12.761  0.8093 -2.7358  0.4609
 2593TIP3    H229195   7.024   4.846  12.621 -0.5445  2.8138 -0.2550
 2594TIP3   OH229196   2.439   5.859  14.374 -0.4936 -0.3414  0.4132
 2594TIP3    H129197   2.454   5.911  14.295  2.7991 -0.4054  0.8625
 2594TIP3    H229198   2.441   5.768  14.344 -0.1490 -0.3420  0.4322
 2595TIP3   OH229199   0.193   5.164  10.467  0.3527  0.5230 -0.2810
 2595TIP3    H129200   0.123   5.225  10.490 -2.7755 -3.1364  0.9869
 2595TIP3    H229201   0.248   5.159  10.545 -1.0878 -0.3324  0.7147
 2596TIP3   OH229202   2.776   1.269  14.981  0.2157 -0.8459 -0.0365
 2596TIP3    H129203   2.835   1.342  15.002  0.5533 -1.0633 -0.2115
 2596TIP3    H229204   2.835   1.193  14.974 -0.1803 -1.2169  0.5777
 2597TIP3   OH229205   5.372   2.037  10.573 -0.0790 -0.2757 -0.3128
 2597TIP3    H129206   5.435   1.966  10.585 -0.4309 -0.4029  1.0581
 2597TIP3    H229207   5.302   2.017  10.636 -2.2165 -0.9039 -2.7201
 2598TIP3   OH229208   3.152   7.111  13.115  0.0374  0.0149  0.8814
 2598TIP3    H129209   3.143   7.026  13.157  0.5063  0.5618  2.1301
 2598TIP3    H229210   3.112   7.173  13.176  1.8319  0.9882  1.1286
 2599TIP3   OH229211   2.803   6.548   2.014  0.0102 -0.2374  0.4865
 2599TIP3    H129212   2.864   6.598   1.960 -1.5797  0.6317 -0.5982
 2599TIP3    H229213   2.833   6.562   2.104  1.2329  0.3713  0.0107
 2600TIP3   OH229214   1.369   5.822  10.197  0.4567  0.1738 -0.2221
 2600TIP3    H129215   1.393   5.904  10.241  1.0760 -0.1212  0.0172
 2600TIP3    H229216   1.344   5.763  10.269 -3.4794  1.1652 -0.5556
 2601TIP3   OH229217   5.042   2.657  14.277  0.0719  0.1733  0.2653
 2601TIP3    H129218   5.105   2.729  14.277  0.5058 -0.1958  0.9349
 2601TIP3    H229219   5.070   2.601  14.204  0.1767  0.3069  0.2023
 2602TIP3   OH229220   2.508   5.323  13.187  0.7105  0.3872  0.5842
 2602TIP3    H129221   2.501   5.367  13.271  1.1405 -0.2935  0.9910
 2602TIP3    H229222   2.597   5.342  13.157  1.1360 -0.7392  1.0860
 2603TIP3   OH229223   5.412   5.167  11.496 -0.0375  0.4188 -0.4934
 2603TIP3    H129224   5.450   5.181  11.583  0.9008 -1.4111 -0.5625
 2603TIP3    H229225   5.415   5.072  11.484 -1.1800  0.5567 -2.0809
 2604TIP3   OH229226   3.190   6.671   9.406  0.4251 -0.8589  0.3931
 2604TIP3    H129227   3.272   6.630   9.432  0.0235 -2.0722 -0.1459
 2604TIP3    H229228   3.159   6.617   9.333 -0.0087  0.5918 -0.5404
 2605TIP3   OH229229   0.601   2.605  11.626  0.5580  0.2275 -0.6435
 2605TIP3    H129230   0.514   2.568  11.643  0.6949  0.0821 -0.2499
 2605TIP3    H229231   0.660   2.530  11.630  0.7433  0.3768 -0.5863
 2606TIP3   OH229232   4.013   6.315  14.000  0.4996  0.1241  0.1210
 2606TIP3    H129233   3.998   6.410  14.004  0.2030  0.0486  0.8110
 2606TIP3    H229234   4.092   6.301  14.052  1.7106  0.2232 -1.5952
 2607TIP3   OH229235   2.460   2.988  10.626 -0.4741  0.0975  0.0413
 2607TIP3    H129236   2.417   2.903  10.627 -1.6146  0.6484 -0.3665
 2607TIP3    H229237   2.498   2.997  10.713 -1.1316 -0.4430  0.3954
 2608TIP3   OH229238   0.477   6.305   9.073 -0.3523  0.0388 -0.1782
 2608TIP3    H129239   0.537   6.374   9.044 -1.2602  0.8066 -0.2619
 2608TIP3    H229240   0.463   6.322   9.166  0.0129 -0.4936 -0.0207
 2609TIP3   OH229241   2.410   1.281  11.216 -0.1318  0.4634 -0.5773
 2609TIP3    H129242   2.389   1.374  11.227 -0.7131  0.2926 -0.2187
 2609TIP3    H229243   2.348   1.249  11.151 -0.1187  0.2592 -0.4919
 2610TIP3   OH229244   0.224   5.206   9.232  0.1395  0.5987 -0.1925
 2610TIP3    H129245   0.214   5.300   9.246  0.6147  0.5270  0.6843
 2610TIP3    H229246   0.264   5.173   9.313 -1.2636 -0.5654  0.0822
 2611TIP3   OH229247   7.156   2.197  10.484 -0.3997 -0.8072 -0.4280
 2611TIP3    H129248   7.068   2.162  10.467 -1.1261  1.0462 -0.7086
 2611TIP3    H229249   7.141   2.270  10.544  0.7962  0.3542 -1.4859
 2612TIP3   OH229250   7.197   6.851   3.996  0.0538 -0.2707 -0.6574
 2612TIP3    H129251   7.282   6.892   4.016  0.7266 -1.6556 -0.5833
 2612TIP3    H229252   7.219   6.771   3.950 -1.2556 -0.4287 -1.0468
 2613TIP3   OH229253   0.566   5.252  14.506  0.1966 -0.3395  0.1848
 2613TIP3    H129254   0.473   5.271  14.518  0.4377 -0.0072  1.7055
 2613TIP3    H229255   0.575   5.160  14.531  0.3684 -0.2224  0.5558
 2614TIP3   OH229256   2.208   1.275  11.720  0.1561 -0.1748  0.0627
 2614TIP3    H129257   2.241   1.239  11.637 -1.0265 -2.3825  0.4647
 2614TIP3    H229258   2.139   1.335  11.694 -0.1180 -0.7497 -0.5796
 2615TIP3   OH229259   6.476   5.020   0.271 -0.1201  0.1851 -0.4379
 2615TIP3    H129260   6.554   4.998   0.321  0.4578 -0.1462 -1.4618
 2615TIP3    H229261   6.405   5.019   0.336  0.3989 -1.4849  0.1588
 2616TIP3   OH229262   3.235   5.559  14.182 -0.2426  0.0172 -0.4860
 2616TIP3    H129263   3.304   5.621  14.203 -0.3505 -0.3305  0.9752
 2616TIP3    H229264   3.280   5.490  14.132  0.6239 -0.5168  0.9660
 2617TIP3   OH229265   4.879   0.269  10.547  0.3393 -0.5436  0.6366
 2617TIP3    H129266   4.855   0.183  10.582  3.6115 -1.9034 -0.0986
 2617TIP3    H229267   4.893   0.253  10.453  1.7787  0.5526  0.6315
 2618TIP3   OH229268   2.469   3.918  11.215  0.0230 -0.3278  0.6246
 2618TIP3    H129269   2.499   3.837  11.175 -1.0098  0.4332 -1.8911
 2618TIP3    H229270   2.383   3.897  11.251 -0.7658 -0.1334 -1.0578
 2619TIP3   OH229271   4.161   6.591  14.982 -0.1533  0.1529 -0.0488
 2619TIP3    H129272   4.187   6.500  14.966  0.2302  0.3953 -0.8439
 2619TIP3    H229273   4.072   6.597  14.948  0.3564  0.4483 -1.3752
 2620TIP3   OH229274   3.244   0.789   0.875 -0.1869 -0.3622 -0.3863
 2620TIP3    H129275   3.328   0.829   0.899 -1.4453  2.3466 -0.1606
 2620TIP3    H229276   3.249   0.778   0.780  0.7652 -1.1461 -0.2611
 2621TIP3   OH229277   2.828   5.193  11.176  0.0407 -0.0439 -0.0205
 2621TIP3    H129278   2.923   5.194  11.166 -0.0272  2.5496 -1.0868
 2621TIP3    H229279   2.800   5.110  11.137  1.8442 -0.9104  0.4496
 2622TIP3   OH229280   0.308   2.915  10.839  0.0079 -0.2583 -0.1264
 2622TIP3    H129281   0.384   2.973  10.842 -1.9399  2.4456  1.9799
 2622TIP3    H229282   0.298   2.893  10.746  1.2415  2.3044 -0.9556
 2623TIP3   OH229283   1.799   3.079  12.735  0.4090  0.3675  0.1711
 2623TIP3    H129284   1.821   2.986  12.729  0.5498  0.3646  0.7411
 2623TIP3    H229285   1.704   3.080  12.747  0.2657  0.3374 -0.8167
 2624TIP3   OH229286   2.035   4.535  14.482 -0.1085  0.2798 -0.4507
 2624TIP3    H129287   2.069   4.590  14.411  0.2044 -0.1108 -0.6029
 2624TIP3    H229288   1.941   4.532  14.466  0.0070 -0.1238 -1.0730
 2625TIP3   OH229289   0.653   5.503   3.012  0.1582  0.0134 -0.0359
 2625TIP3    H129290   0.747   5.520   3.003  0.2801 -1.5079 -2.7284
 2625TIP3    H229291   0.614   5.539   2.932 -0.6552 -4.1812 -1.8093
 2626TIP3   OH229292   1.414   3.338  13.022 -0.2937  0.3750  0.4489
 2626TIP3    H129293   1.324   3.317  13.047  0.1165 -0.1432  1.5444
 2626TIP3    H229294   1.468   3.285  13.081  0.7305 -0.0744 -0.8472
 2627TIP3   OH229295   1.397   5.150  11.723  0.8107 -0.0660  0.7254
 2627TIP3    H129296   1.479   5.184  11.759  1.3147  0.4564 -0.8449
 2627TIP3    H229297   1.420   5.064  11.689  0.3073 -0.6111  1.7227
 2628TIP3   OH229298   5.593   3.355   9.293  0.0646 -0.3401 -0.1171
 2628TIP3    H129299   5.686   3.376   9.288  0.5777 -2.3696  0.0475
 2628TIP3    H229300   5.551   3.438   9.311  1.9722  0.4201  1.1715
 2629TIP3   OH229301   5.843   3.098  11.465  0.3177  0.2127 -0.2969
 2629TIP3    H129302   5.908   3.112  11.397  0.2702  1.6132 -0.0788
 2629TIP3    H229303   5.895   3.094  11.546  0.3325 -1.0044 -0.3476
 2630TIP3   OH229304   6.644   0.732  11.250 -0.1165 -0.3494 -0.4394
 2630TIP3    H129305   6.698   0.810  11.244  0.2846 -0.5831  0.0501
 2630TIP3    H229306   6.613   0.731  11.341 -0.8155 -0.3066 -0.6685
 2631TIP3   OH229307   0.462   1.681  15.135  0.3023 -0.0271  0.0038
 2631TIP3    H129308   0.545   1.711  15.100 -0.4373 -0.2562 -2.0991
 2631TIP3    H229309   0.415   1.761  15.158  0.4621  0.1772 -0.3775
 2632TIP3   OH229310   0.571   6.154   9.744  0.8113 -0.6597  0.2190
 2632TIP3    H129311   0.476   6.154   9.734  0.7815  2.7516 -1.1602
 2632TIP3    H229312   0.605   6.155   9.654  1.8958  1.8717  0.5546
 2633TIP3   OH229313   2.739   3.760  10.342  0.3111 -0.5833 -0.2544
 2633TIP3    H129314   2.747   3.818  10.418  3.2572 -2.5437  1.1709
 2633TIP3    H229315   2.777   3.810  10.270 -0.0869  0.3668  0.1742
 2634TIP3   OH229316   1.219   3.750  10.526  0.0976 -0.0162  0.3370
 2634TIP3    H129317   1.198   3.734  10.618 -0.7963  1.1156  0.3450
 2634TIP3    H229318   1.144   3.798  10.491  0.7854  0.3049 -0.7720
 2635TIP3   OH229319   4.473   5.923  11.713  0.7478  0.3242 -0.4604
 2635TIP3    H129320   4.431   5.920  11.799 -0.5481  0.1203 -1.0792
 2635TIP3    H229321   4.563   5.893  11.729 -0.3226 -2.8712  0.3222
 2636TIP3   OH229322   3.339   5.694  11.632  0.2849  0.1056  0.2409
 2636TIP3    H129323   3.338   5.690  11.727 -0.0721  0.0222  0.2340
 2636TIP3    H229324   3.363   5.605  11.604 -1.2800 -0.3503  0.2260
 2637TIP3   OH229325   4.089   3.722   9.886  0.3353 -0.1713 -0.1287
 2637TIP3    H129326   4.140   3.640   9.887  0.4041 -0.1887 -2.0353
 2637TIP3    H229327   4.082   3.745   9.793 -1.8328  0.6734  0.1875
 2638TIP3   OH229328   0.521   0.519  13.540  0.2223 -0.1110 -0.6112
 2638TIP3    H129329   0.502   0.441  13.488  1.6355  0.7252 -2.5152
 2638TIP3    H229330   0.458   0.585  13.508  0.3282  0.0898 -0.4125
 2639TIP3   OH229331   5.241   2.397  13.794 -0.0482 -0.2884 -0.0841
 2639TIP3    H129332   5.333   2.377  13.810  0.7825  2.7423 -0.3264
 2639TIP3    H229333   5.221   2.358  13.710  1.3733 -0.1027 -0.5330
 2640TIP3   OH229334   3.941   1.901  10.692 -0.6959  0.0490  0.1972
 2640TIP3    H129335   3.981   1.982  10.722  1.3766 -0.0390 -1.9966
 2640TIP3    H229336   3.917   1.918  10.601 -1.1144 -1.4902 -0.0210
 2641TIP3   OH229337   1.363   2.782  10.515 -0.3143 -0.2633  0.5600
 2641TIP3    H129338   1.364   2.826  10.430 -0.0038 -1.9504 -0.3681
 2641TIP3    H229339   1.448   2.803  10.554 -0.0561 -0.2562  0.0081
 2642TIP3   OH229340   5.838   3.313  10.408 -1.0495 -0.1429 -0.0879
 2642TIP3    H129341   5.893   3.239  10.381  1.3304  1.0604  1.1395
 2642TIP3    H229342   5.804   3.287  10.494  1.2822  0.8330  1.2000
 2643TIP3   OH229343   6.440   4.242  11.431 -0.4468 -0.1299  0.1375
 2643TIP3    H129344   6.350   4.217  11.452 -0.2710 -0.3913  0.5828
 2643TIP3    H229345   6.488   4.229  11.512  0.6175 -2.8458 -0.8185
 2644TIP3   OH229346   0.537   1.442   1.011 -0.0165 -0.4382  0.5314
 2644TIP3    H129347   0.447   1.411   1.005 -0.1090  0.1434 -3.0922
 2644TIP3    H229348   0.529   1.535   1.034 -0.6271  0.3387 -2.4288
 2645TIP3   OH229349   7.130   0.823   1.864  0.8648 -0.0508 -0.0013
 2645TIP3    H129350   7.155   0.760   1.930  0.1828  0.7141  1.0176
 2645TIP3    H229351   7.039   0.845   1.885  1.1145  1.3267 -0.2785
 2646TIP3   OH229352   0.461   3.019  13.267 -0.7452 -0.1157  0.2614
 2646TIP3    H129353   0.522   3.048  13.335  1.2144  0.5751 -1.6635
 2646TIP3    H229354   0.381   3.070  13.282 -0.0281  0.6828  1.4865
 2647TIP3   OH229355   5.146   2.717   9.931 -0.3736  0.5246  0.0334
 2647TIP3    H129356   5.173   2.807   9.913 -2.9048  1.3220 -0.1555
 2647TIP3    H229357   5.163   2.705  10.024 -1.5379  1.8179  0.4429
 2648TIP3   OH229358   2.753   3.991  11.582 -0.0378  0.0596 -0.0930
 2648TIP3    H129359   2.802   4.067  11.549  2.2809 -1.9798 -1.7553
 2648TIP3    H229360   2.700   3.962  11.508 -1.2734  0.2995  0.6777
 2649TIP3   OH229361   4.652   0.115  12.073  0.4795  0.8669  0.1355
 2649TIP3    H129362   4.739   0.075  12.068  0.6902  1.2367  0.7406
 2649TIP3    H229363   4.669   0.209  12.077 -0.0538  1.1265 -2.4575
 2650TIP3   OH229364   5.993   3.183  11.685  0.0280 -0.0680 -0.7679
 2650TIP3    H129365   6.024   3.269  11.714 -0.1267  0.3468 -1.7937
 2650TIP3    H229366   5.968   3.139  11.765 -0.8692  1.2280 -0.2993
 2651TIP3   OH229367   6.258   3.904   9.427  0.4489 -0.3186  0.1273
 2651TIP3    H129368   6.301   3.856   9.356  0.2329 -1.2903  0.6352
 2651TIP3    H229369   6.188   3.846   9.457  2.2901 -1.2435  3.0255
 2652TIP3   OH229370   3.443   2.884  14.286 -0.0189  0.1159  0.0213
 2652TIP3    H129371   3.521   2.847  14.245  0.5568  0.2086  1.0012
 2652TIP3    H229372   3.440   2.842  14.372 -1.9983 -1.1791 -0.5897
 2653TIP3   OH229373   2.271   3.713  10.014  0.4510 -0.6478  0.2347
 2653TIP3    H129374   2.316   3.632   9.990 -0.9307 -1.4791  0.3343
 2653TIP3    H229375   2.291   3.774   9.942 -0.0548 -1.6995 -0.8333
 2654TIP3   OH229376   6.157   0.513  14.059 -0.2459  0.2180 -0.7830
 2654TIP3    H129377   6.131   0.540  14.148 -0.4081  0.2332 -0.8355
 2654TIP3    H229378   6.190   0.424  14.069 -0.9345 -0.0466 -0.8245
 2655TIP3   OH229379   1.376   1.612   0.843 -0.0038  0.8378 -0.0393
 2655TIP3    H129380   1.393   1.646   0.931  1.0706  1.3038 -0.4041
 2655TIP3    H229381   1.441   1.543   0.832 -1.5881 -0.7972  0.3560
 2656TIP3   OH229382   3.666   3.725  12.101  0.0986 -0.4830  0.2989
 2656TIP3    H129383   3.589   3.693  12.149 -2.8086  1.9142 -2.2747
 2656TIP3    H229384   3.662   3.820  12.110  2.4149 -0.2395 -0.5423
 2657TIP3   OH229385   4.333   1.804  13.025 -0.0243  0.4468 -0.2175
 2657TIP3    H129386   4.339   1.885  12.973 -0.4181  0.6357  0.0272
 2657TIP3    H229387   4.258   1.758  12.988  0.3490  0.0709 -0.5181
 2658TIP3   OH229388   4.987   6.043  12.248 -0.1663  0.0370  0.0777
 2658TIP3    H129389   4.903   6.009  12.218 -0.2406  1.2277 -1.1605
 2658TIP3    H229390   5.025   6.085  12.170  1.7574 -0.8195  0.4932
 2659TIP3   OH229391   5.734   6.515  12.601 -0.3831  0.2301 -0.2602
 2659TIP3    H129392   5.818   6.493  12.561 -0.3873  0.8566 -0.6147
 2659TIP3    H229393   5.740   6.477  12.689 -0.6582 -1.7838 -1.0400
 2660TIP3   OH229394   0.341   3.027  12.523  0.5411 -0.1315  0.1395
 2660TIP3    H129395   0.273   3.080  12.565  1.2377  0.2549  0.7938
 2660TIP3    H229396   0.295   2.949  12.493  0.3469 -1.4377  3.4458
 2661TIP3   OH229397   4.069   6.135   1.265  0.5191 -0.6683 -0.1983
 2661TIP3    H129398   4.008   6.110   1.196 -2.1905  1.2385  1.3156
 2661TIP3    H229399   4.149   6.162   1.219 -0.4670 -1.3395 -2.3993
 2662TIP3   OH229400   7.080   0.371  12.101  0.3962 -0.4935 -0.0055
 2662TIP3    H129401   7.006   0.411  12.055  1.1750 -0.6673 -1.4716
 2662TIP3    H229402   7.084   0.282  12.068  0.6084 -0.8248  0.8827
 2663TIP3   OH229403   2.207   6.136  10.819 -0.1252  0.4888 -0.5290
 2663TIP3    H129404   2.261   6.206  10.855 -2.2464  1.8586  0.1939
 2663TIP3    H229405   2.221   6.141  10.724  1.0749  0.7056 -0.3608
 2664TIP3   OH229406   0.659   5.375  10.228 -0.8916  0.1876  0.2763
 2664TIP3    H129407   0.753   5.363  10.236 -1.0647 -0.8499  0.9725
 2664TIP3    H229408   0.646   5.403  10.137  0.1919  1.7405  0.5689
 2665TIP3   OH229409   2.010   6.186  13.151 -0.6423  0.0236 -0.4484
 2665TIP3    H129410   1.960   6.117  13.107 -1.3137 -0.3088  0.7820
 2665TIP3    H229411   2.051   6.143  13.226 -0.6932  0.8485  0.0736
 2666TIP3   OH229412   6.146   4.802  12.057 -0.0840  0.1298 -0.1030
 2666TIP3    H129413   6.111   4.722  12.018  3.6247 -2.0434  0.6035
 2666TIP3    H229414   6.236   4.806  12.026  0.3391  3.2281  1.1996
 2667TIP3   OH229415   4.078   6.339  10.161 -0.2824  0.1786  0.8547
 2667TIP3    H129416   4.134   6.371  10.232 -0.9287  1.1885  0.9256
 2667TIP3    H229417   4.140   6.307  10.095  0.4332  1.9176  0.6247
 2668TIP3   OH229418   0.150   3.131  11.923  0.5052  0.0601 -0.5227
 2668TIP3    H129419   0.077   3.146  11.862  0.6715  1.1755 -0.4660
 2668TIP3    H229420   0.192   3.051  11.890 -2.6157 -2.5764  1.3006
 2669TIP3   OH229421   0.609   2.598  11.984  0.2113 -0.1024  0.3066
 2669TIP3    H129422   0.625   2.665  11.917 -2.5611 -0.1756 -0.5572
 2669TIP3    H229423   0.589   2.648  12.063 -0.0267  0.0725  0.1401
 2670TIP3   OH229424   1.146   2.178   9.793 -0.3418  0.9010  0.2052
 2670TIP3    H129425   1.219   2.118   9.810 -1.0554  0.3727  1.6762
 2670TIP3    H229426   1.123   2.162   9.702  1.0560  0.7274 -0.1469
 2671TIP3   OH229427   2.901   2.194   9.523 -0.2695  0.0900 -0.0772
 2671TIP3    H129428   2.851   2.275   9.515 -0.4209 -0.0754 -0.8909
 2671TIP3    H229429   2.992   2.221   9.511 -0.4192 -0.0264 -1.8486
 2672TIP3   OH229430   6.653   0.169  13.137  0.3298 -0.0392 -0.0610
 2672TIP3    H129431   6.690   0.109  13.203  2.6600  0.0924 -1.1541
 2672TIP3    H229432   6.691   0.254  13.159 -0.7213  0.4942 -0.2314
 2673TIP3   OH229433   1.090   4.583   1.691 -0.3378  0.3634 -0.1903
 2673TIP3    H129434   1.006   4.574   1.735 -0.3560  1.7501  0.1217
 2673TIP3    H229435   1.095   4.677   1.669  0.5309  0.0603 -1.4019
 2674TIP3   OH229436   3.465   3.306  12.831 -0.2328 -0.1322 -0.0282
 2674TIP3    H129437   3.527   3.290  12.759  0.0842  0.8623  0.0170
 2674TIP3    H229438   3.443   3.218  12.862 -0.3851 -0.5846 -1.3444
 2675TIP3   OH229439   3.550   4.371  11.697 -0.3831 -0.1151 -0.5733
 2675TIP3    H129440   3.632   4.403  11.733 -0.3256 -1.5213  0.6386
 2675TIP3    H229441   3.483   4.399  11.759 -0.9898  1.7452 -1.9729
 2676TIP3   OH229442   0.680   4.952   9.988  0.1316 -0.5423  0.1239
 2676TIP3    H129443   0.667   4.859   9.973 -0.4263 -0.2553 -1.2832
 2676TIP3    H229444   0.604   4.994   9.949  0.3142  0.5122  0.8429
 2677TIP3   OH229445   6.325   6.836  10.798  0.0149 -0.5660 -0.2668
 2677TIP3    H129446   6.297   6.773  10.732  1.4429 -2.6437  1.0042
 2677TIP3    H229447   6.406   6.799  10.834  0.9848  2.0716  0.4795
 2678TIP3   OH229448   0.363   6.683   9.588 -0.2194 -0.2871  0.1315
 2678TIP3    H129449   0.399   6.607   9.542 -1.9225 -1.9194  1.3368
 2678TIP3    H229450   0.440   6.734   9.613  1.0481 -1.9244 -0.2240
 2679TIP3   OH229451   6.508   6.670  13.230  0.3801 -0.2178  0.1985
 2679TIP3    H129452   6.437   6.606  13.228  1.0642 -1.0152 -2.1237
 2679TIP3    H229453   6.582   6.623  13.268  1.0817 -1.1146 -2.1461
 2680TIP3   OH229454   1.349   0.684  13.465  0.2050  0.1229  0.6968
 2680TIP3    H129455   1.275   0.669  13.406  0.5145  0.8888  0.0884
 2680TIP3    H229456   1.317   0.657  13.551 -1.2075  1.5423  0.6654
 2681TIP3   OH229457   6.318   6.145  10.203  0.0706 -0.1644 -0.4229
 2681TIP3    H129458   6.363   6.111  10.126  0.7655 -1.8009  0.6454
 2681TIP3    H229459   6.225   6.137  10.183  0.1997 -2.7276 -0.2748
 2682TIP3   OH229460   0.464   2.458  11.351 -0.6765  0.0300 -0.1688
 2682TIP3    H129461   0.390   2.418  11.397  1.5012 -1.9772  1.8051
 2682TIP3    H229462   0.495   2.389  11.292 -0.1129  0.7158 -0.6897
 2683TIP3   OH229463   0.746   0.683  14.729 -0.1407 -0.2411 -0.5766
 2683TIP3    H129464   0.700   0.623  14.670  2.1318 -1.1270 -1.5774
 2683TIP3    H229465   0.768   0.629  14.806 -0.2556 -0.0019 -0.3753
 2684TIP3   OH229466   3.544   3.687  13.349  0.0979  0.0121 -0.4756
 2684TIP3    H129467   3.466   3.646  13.385 -0.0771  1.9371  1.5717
 2684TIP3    H229468   3.617   3.637  13.386 -0.1390  0.2020  0.2608
 2685TIP3   OH229469   5.624   3.032   2.919  0.0131  0.5577  0.4087
 2685TIP3    H129470   5.582   3.116   2.935 -0.6497  0.3120 -0.0169
 2685TIP3    H229471   5.621   2.987   3.004 -1.0858  0.3306  0.2695
 2686TIP3   OH229472   5.995   4.032  10.805  0.3583  0.3070  0.4148
 2686TIP3    H129473   6.077   4.056  10.761  0.3403  1.8426  1.1570
 2686TIP3    H229474   5.990   3.937  10.797  1.1425  0.3808 -1.5125
 2687TIP3   OH229475   3.905   6.741  10.780 -0.0177 -0.2666  0.2612
 2687TIP3    H129476   3.866   6.676  10.721 -1.5057 -0.2205  1.1427
 2687TIP3    H229477   3.831   6.774  10.831  1.0277  0.6854  1.2048
 2688TIP3   OH229478   4.363   4.879  12.275  0.2167 -0.2162 -0.1745
 2688TIP3    H129479   4.325   4.866  12.362  0.1487  2.7396  0.3432
 2688TIP3    H229480   4.456   4.897  12.293  0.1890  0.4685 -0.6955
 2689TIP3   OH229481   4.300   0.384  13.397  0.2044  0.0123  0.9377
 2689TIP3    H129482   4.386   0.380  13.355 -1.4318 -5.1713 -3.0352
 2689TIP3    H229483   4.304   0.317  13.466 -0.5820 -0.1893  0.7979
 2690TIP3   OH229484   4.428   2.260  11.205 -0.3015  0.8382 -0.0228
 2690TIP3    H129485   4.353   2.227  11.254  0.7343  0.5622  1.4507
 2690TIP3    H229486   4.397   2.341  11.165 -1.1823  1.1165  1.1640
 2691TIP3   OH229487   6.854   0.236  11.271  0.0819  0.0000 -0.0003
 2691TIP3    H129488   6.827   0.158  11.222  1.0549 -0.5699  0.3475
 2691TIP3    H229489   6.824   0.310  11.217 -0.4923 -0.6087 -0.5277
 2692TIP3   OH229490   6.969   2.733  15.080  0.3851 -0.1015  0.2268
 2692TIP3    H129491   6.890   2.707  15.128 -0.6288  0.5581 -1.0126
 2692TIP3    H229492   7.041   2.689  15.125 -0.6520 -0.4418  1.6005
 2693TIP3   OH229493   3.453   6.984  11.541  0.0250 -0.4241  0.2573
 2693TIP3    H129494   3.484   7.025  11.622  1.7265  2.5811 -1.7348
 2693TIP3    H229495   3.528   6.933  11.510 -0.0171 -0.1678 -0.2712
 2694TIP3   OH229496   3.916   0.487  11.013 -0.3775  0.6770 -0.2447
 2694TIP3    H129497   4.000   0.527  11.036  1.0130 -2.3136  0.3654
 2694TIP3    H229498   3.880   0.458  11.096 -0.9048 -0.0477 -0.7107
 2695TIP3   OH229499   5.841   4.613  10.655  0.1941 -0.2065  0.1859
 2695TIP3    H129500   5.771   4.566  10.700 -0.0015 -0.7058 -0.6210
 2695TIP3    H229501   5.874   4.676  10.720 -0.6282 -0.3457  0.7467
 2696TIP3   OH229502   3.256   2.430  11.472 -0.6305  0.0920  0.5604
 2696TIP3    H129503   3.316   2.357  11.482 -0.7535  0.0183  0.7816
 2696TIP3    H229504   3.265   2.457  11.381  0.4334  0.6874  0.8246
 2697TIP3   OH229505   0.778   7.137  10.629  0.3008  0.0391 -0.4440
 2697TIP3    H129506   0.731   7.192  10.566 -0.8508 -0.2161  0.1739
 2697TIP3    H229507   0.825   7.200  10.684  1.7327  0.2565 -1.8147
 2698TIP3   OH229508   0.027   1.872  13.618  0.8384 -0.6558  0.8850
 2698TIP3    H129509   0.042   1.966  13.606  0.0886 -0.5446  0.7643
 2698TIP3    H229510   0.069   1.852  13.701  0.6143 -0.1161  1.1341
 2699TIP3   OH229511   3.077   7.041   0.059 -0.2005  0.5011  0.2187
 2699TIP3    H129512   3.050   6.955   0.027 -0.8454 -0.2287  2.5558
 2699TIP3    H229513   3.170   7.047   0.034 -0.5851 -0.0894 -1.4880
 2700TIP3   OH229514   6.645   1.590  10.688  0.0246 -0.5435 -0.4968
 2700TIP3    H129515   6.572   1.651  10.675  0.3878  0.0051 -0.0253
 2700TIP3    H229516   6.623   1.514  10.634 -0.7881 -0.2956 -0.5272
 2701TIP3   OH229517   6.352   5.716  11.155 -0.0468  0.5970  0.2406
 2701TIP3    H129518   6.338   5.713  11.060  2.2570 -0.9969 -0.1462
 2701TIP3    H229519   6.274   5.675  11.192 -0.8581  0.9741 -0.9862
 2702TIP3   OH229520   4.683   0.494  11.100  0.4917  0.3666  0.6442
 2702TIP3    H129521   4.775   0.469  11.110  0.6086  1.1240  1.5523
 2702TIP3    H229522   4.648   0.430  11.038  0.3746 -3.2055  3.9387
 2703TIP3   OH229523   7.110   0.387  11.045  0.4837  0.3648  0.2587
 2703TIP3    H129524   7.082   0.426  11.128  0.2722  0.9112 -0.0627
 2703TIP3    H229525   7.068   0.302  11.042 -1.6950  1.4030 -0.4976
 2704TIP3   OH229526   3.009   2.306  13.783 -0.4218 -0.8012  0.2523
 2704TIP3    H129527   3.095   2.276  13.814 -0.7244 -0.9993  0.9267
 2704TIP3    H229528   2.984   2.241  13.717 -0.3766 -1.1533  0.5788
 2705TIP3   OH229529   5.531   1.218  13.741  0.4917 -0.0411 -0.0803
 2705TIP3    H129530   5.595   1.279  13.777  1.3552 -0.2379 -1.1927
 2705TIP3    H229531   5.579   1.135  13.734 -0.2238 -0.4744  0.0678
 2706TIP3   OH229532   3.552   4.270   9.607 -0.0092  0.3739 -0.5648
 2706TIP3    H129533   3.462   4.257   9.636  0.3500  1.1803  1.0444
 2706TIP3    H229534   3.590   4.182   9.607 -0.7064  0.0633 -0.9947
 2707TIP3   OH229535   3.724   5.870  10.015  0.2246  0.2838 -0.0488
 2707TIP3    H129536   3.642   5.876   9.966 -0.2343 -1.0141  0.5326
 2707TIP3    H229537   3.790   5.847   9.948 -0.1912 -0.3334 -0.2568
 2708TIP3   OH229538   2.560   6.873  10.300 -0.0509 -0.4353  0.7971
 2708TIP3    H129539   2.635   6.909  10.346  0.2773  0.1914 -0.2175
 2708TIP3    H229540   2.486   6.887  10.360  0.9144 -3.1374  2.8698
 2709TIP3   OH229541   5.272   4.180  11.118  0.4195 -0.5686  0.1627
 2709TIP3    H129542   5.277   4.273  11.095  2.0932 -0.6104  0.2334
 2709TIP3    H229543   5.271   4.178  11.214 -3.2159 -0.5389  0.2731
 2710TIP3   OH229544   7.180   5.141  14.486 -0.0398 -0.2416 -0.2039
 2710TIP3    H129545   7.256   5.177  14.440 -0.4324 -0.2307 -0.8450
 2710TIP3    H229546   7.188   5.175  14.575 -0.1568  1.0894 -0.6816
 2711TIP3   OH229547   6.670   2.487  11.881 -0.3373  0.2874  0.2321
 2711TIP3    H129548   6.661   2.413  11.942  0.3880  0.4229  0.5146
 2711TIP3    H229549   6.656   2.449  11.795 -2.0665  0.2133  0.5110
 2712TIP3   OH229550   6.909   1.678  11.143  0.3149 -0.4142 -0.6511
 2712TIP3    H129551   6.902   1.583  11.132 -0.9088 -0.3802 -0.2649
 2712TIP3    H229552   6.995   1.690  11.184  0.2606 -1.3961 -0.2131
 2713TIP3   OH229553   6.276   2.693  13.352  0.1298 -0.2378  0.1920
 2713TIP3    H129554   6.333   2.617  13.359  0.2156 -0.0471  2.6544
 2713TIP3    H229555   6.289   2.740  13.435  0.3222  2.6630 -1.3586
 2714TIP3   OH229556   6.102   4.352   9.568  0.4427  0.0815  0.7607
 2714TIP3    H129557   6.099   4.276   9.510  0.8155  0.9233 -0.4151
 2714TIP3    H229558   6.188   4.350   9.608  1.7418  1.5275 -1.6849
 2715TIP3   OH229559   1.257   0.101  13.002 -1.1552 -0.7759  0.0011
 2715TIP3    H129560   1.186   0.072  12.946  0.4032  0.8306 -3.1094
 2715TIP3    H229561   1.335   0.095  12.947  0.4767  1.3622  1.8607
 2716TIP3   OH229562   7.153   6.078  10.141  0.3648  0.2675 -0.0860
 2716TIP3    H129563   7.124   6.054  10.229  2.6606  0.3186  0.7564
 2716TIP3    H229564   7.142   6.173  10.137 -0.7701  0.1351 -0.2747
 2717TIP3   OH229565   0.626   4.816  12.357  0.6511  0.6589  0.2953
 2717TIP3    H129566   0.582   4.895  12.388  0.1730  1.0178 -1.2369
 2717TIP3    H229567   0.715   4.823  12.392  0.5695  1.8024  0.3031
 2718TIP3   OH229568   2.736   0.581  11.381  0.0837 -0.2221  0.0468
 2718TIP3    H129569   2.820   0.627  11.379 -0.6183  1.0799 -0.2725
 2718TIP3    H229570   2.742   0.524  11.458  0.6641  1.0170  0.9466
 2719TIP3   OH229571   1.360   6.544   9.590  0.0422  0.2176  0.5164
 2719TIP3    H129572   1.383   6.452   9.578 -0.1303 -0.1179  2.3902
 2719TIP3    H229573   1.424   6.592   9.538  0.1057 -0.9607 -0.5211
 2720TIP3   OH229574   1.821   0.403  11.582  0.0205  0.0617  0.4351
 2720TIP3    H129575   1.831   0.481  11.528  0.2449  0.1708  0.6359
 2720TIP3    H229576   1.909   0.366  11.588 -0.0218 -0.0054  0.6446
 2721TIP3   OH229577   3.090   2.621  12.696 -0.4653  0.6262  0.0168
 2721TIP3    H129578   3.161   2.581  12.747 -2.2234  1.0529  3.0449
 2721TIP3    H229579   3.038   2.547  12.666 -1.5531  0.3734  2.2990
 2722TIP3   OH229580   6.467   6.245  12.312  0.2509 -0.6561  0.2529
 2722TIP3    H129581   6.543   6.211  12.358 -1.1886 -0.3214  3.0916
 2722TIP3    H229582   6.470   6.340  12.325  0.4363 -0.3893 -1.4700
 2723TIP3   OH229583   0.460   7.059  13.422 -0.4995  0.6584  0.4468
 2723TIP3    H129584   0.486   7.149  13.402 -0.3269  0.4641 -0.2313
 2723TIP3    H229585   0.375   7.068  13.465 -0.2335  1.1767  0.8717
 2724TIP3   OH229586   1.786   0.260  12.954  0.1802  0.1854  0.4379
 2724TIP3    H129587   1.834   0.299  12.881  0.0075 -1.2769 -0.5124
 2724TIP3    H229588   1.829   0.175  12.969 -0.7167 -0.1875  1.0328
 2725TIP3   OH229589   1.062   2.708  13.408 -0.7334 -0.0831 -0.2439
 2725TIP3    H129590   1.143   2.753  13.382 -0.6705 -0.5475 -0.8786
 2725TIP3    H229591   1.006   2.714  13.331 -0.7098 -1.1199 -0.3506
 2726TIP3   OH229592   5.310   4.281  11.457 -0.0830  0.1501 -0.2154
 2726TIP3    H129593   5.236   4.226  11.433 -1.6387  1.5632  1.0530
 2726TIP3    H229594   5.325   4.262  11.549 -0.4437  1.5704  0.1568
 2727TIP3   OH229595   5.965   5.989  10.509 -0.2214  0.2791  0.0103
 2727TIP3    H129596   5.914   6.014  10.586 -1.4590  1.5493 -1.1728
 2727TIP3    H229597   5.911   5.924  10.465  0.7609 -0.9097  0.4885
 2728TIP3   OH229598   1.284   1.829  12.631  0.2527  0.6588 -0.3980
 2728TIP3    H129599   1.291   1.751  12.576  0.6297  0.3726  0.0465
 2728TIP3    H229600   1.344   1.813  12.704 -1.0846  0.5259  0.7176
 2729TIP3   OH229601   6.634   1.682   9.876  0.3212 -0.5198 -0.3566
 2729TIP3    H129602   6.608   1.761   9.829  0.1579 -0.6141 -0.4293
 2729TIP3    H229603   6.716   1.656   9.836  0.9903  0.2701  0.4551
 2730TIP3   OH229604   4.935   5.600  10.224 -0.1113 -0.3209  0.0940
 2730TIP3    H129605   4.898   5.555  10.300 -0.2631 -0.4723 -0.0648
 2730TIP3    H229606   4.932   5.693  10.246 -2.5412 -0.1283 -0.7176
 2731TIP3   OH229607   1.027   3.496  10.772 -0.1780  0.2022  0.9183
 2731TIP3    H129608   0.955   3.540  10.728  0.5742  0.4505 -0.1019
 2731TIP3    H229609   1.076   3.566  10.816  0.1324  0.1903  0.5937
 2732TIP3   OH229610   4.342   4.973  12.869 -0.4902 -0.1750  0.4875
 2732TIP3    H129611   4.362   5.002  12.780  1.7060 -0.0468  0.9622
 2732TIP3    H229612   4.336   4.878  12.864  0.2644 -0.2208  0.2741
 2733TIP3   OH229613   1.103   5.898   0.627 -0.4276 -0.0063 -0.0288
 2733TIP3    H129614   1.194   5.930   0.631 -0.8503  1.1731  2.4545
 2733TIP3    H229615   1.111   5.803   0.630  0.7419  0.0321 -1.2154
 2734TIP3   OH229616   4.018   1.507  11.047 -0.0589 -0.4234 -0.6686
 2734TIP3    H129617   3.949   1.540  11.105 -1.2756 -1.3667 -1.5363
 2734TIP3    H229618   4.061   1.586  11.014  0.7494  0.1490  1.5536
 2735TIP3   OH229619   1.915   4.324   8.827 -0.0647 -0.2149 -0.0950
 2735TIP3    H129620   1.870   4.370   8.898 -0.1708 -1.5613  0.7443
 2735TIP3    H229621   1.906   4.382   8.751 -0.2821  1.0847  0.8822
 2736TIP3   OH229622   6.573   6.703   9.922 -0.0500 -0.4350  0.1472
 2736TIP3    H129623   6.508   6.759   9.965  0.8976 -1.4139  3.1227
 2736TIP3    H229624   6.539   6.690   9.834 -1.1768  3.3356 -0.1603
 2737TIP3   OH229625   0.041   7.011  11.562  0.3425  0.3209  0.5136
 2737TIP3    H129626   0.041   7.075  11.491  2.4817  0.1633  0.3305
 2737TIP3    H229627   0.068   7.060  11.639  0.7746 -0.0935  0.6318
 2738TIP3   OH229628   0.503   1.489  10.883  0.5963  0.2268 -0.0882
 2738TIP3    H129629   0.560   1.495  10.807  0.7618 -0.4674 -0.0244
 2738TIP3    H229630   0.432   1.551  10.865  2.4773  2.8234  0.8282
 2739TIP3   OH229631   3.996   4.358   9.787  0.5395 -0.4974 -0.7840
 2739TIP3    H129632   4.058   4.300   9.830 -0.9596 -1.9697 -0.4840
 2739TIP3    H229633   4.046   4.399   9.716  1.9131 -1.3507 -0.3460
 2740TIP3   OH229634   1.295   1.158  11.176 -0.3545 -0.0379  0.5498
 2740TIP3    H129635   1.306   1.155  11.081  1.3033 -1.1279  0.7370
 2740TIP3    H229636   1.200   1.164  11.189 -0.8416 -2.5791 -1.1649
 2741TIP3   OH229637   3.976   2.410  11.737  0.3402 -0.4767  0.3823
 2741TIP3    H129638   4.050   2.355  11.764  1.6856  0.8204 -0.5163
 2741TIP3    H229639   3.918   2.410  11.812  0.6520 -2.5131  0.6740
 2742TIP3   OH229640   4.009   5.208  11.377 -0.7458 -0.2532 -0.3857
 2742TIP3    H129641   4.092   5.255  11.389 -1.2071  0.1992  1.4629
 2742TIP3    H229642   4.034   5.127  11.331  0.7684 -0.2246  0.2936
 2743TIP3   OH229643   3.294   0.944  11.806  0.3711 -0.1555  0.0552
 2743TIP3    H129644   3.236   1.012  11.839  1.1647 -0.0855  1.3804
 2743TIP3    H229645   3.379   0.987  11.795  0.1736 -0.2147 -2.0165
 2744TIP3   OH229646   1.279   1.305  14.181  0.3262 -0.2496  0.1197
 2744TIP3    H129647   1.256   1.395  14.202 -0.7733 -0.6393  0.6287
 2744TIP3    H229648   1.375   1.304  14.182  0.3443  0.8147  0.5101
 2745TIP3   OH229649   1.471   0.107  10.653 -0.4497  0.2667 -0.2722
 2745TIP3    H129650   1.442   0.187  10.608 -0.8103  1.3003  1.6991
 2745TIP3    H229651   1.566   0.109  10.647 -0.3664  1.6315  0.9592
 2746TIP3   OH229652   3.591   2.110  12.006  0.5600 -0.2373  0.4746
 2746TIP3    H129653   3.530   2.184  12.009  1.9592  0.9716  0.2863
 2746TIP3    H229654   3.561   2.052  12.076  0.1007  1.0697  1.4047
 2747TIP3   OH229655   3.011   3.453  12.762  0.1619 -0.0296  0.2555
 2747TIP3    H129656   2.952   3.528  12.756 -0.4098 -0.5013 -0.2110
 2747TIP3    H229657   3.063   3.456  12.682  0.3544  0.0418  0.3819
 2748TIP3   OH229658   0.295   6.374   0.309 -0.4431  0.3126 -0.2232
 2748TIP3    H129659   0.334   6.414   0.387  1.2736  2.0940 -1.8779
 2748TIP3    H229660   0.215   6.424   0.295 -0.8950 -0.1850  0.5205
 2749TIP3   OH229661   5.320   6.011  11.199 -0.5734 -0.6402 -0.0372
 2749TIP3    H129662   5.287   6.020  11.288 -0.2289 -0.9370  0.1222
 2749TIP3    H229663   5.371   6.091  11.183 -1.7360  0.0398 -0.4509
 2750TIP3   OH229664   6.007   4.369  10.863 -0.4983  0.1843 -0.0120
 2750TIP3    H129665   5.918   4.371  10.899 -0.3823  0.6804  0.2541
 2750TIP3    H229666   6.059   4.423  10.923 -0.2384  0.7888 -0.7622
 2751TIP3   OH229667   0.968   2.337  10.170 -0.1183  0.0210 -0.2690
 2751TIP3    H129668   1.021   2.268  10.130  0.3325 -1.7383  3.0115
 2751TIP3    H229669   1.029   2.385  10.226 -1.5951 -1.5387  2.9786
 2752TIP3   OH229670   2.607   5.063  13.507  0.0414 -0.3467  0.7304
 2752TIP3    H129671   2.551   4.988  13.488 -0.7066  0.5688 -0.9126
 2752TIP3    H229672   2.636   5.094  13.421  1.5262  0.3734  1.4506
 2753TIP3   OH229673   5.355   6.998  10.891 -0.3594 -0.2323 -0.1759
 2753TIP3    H129674   5.383   6.947  10.967 -2.1235 -1.7060 -0.4452
 2753TIP3    H229675   5.391   6.951  10.816  1.5999  1.3634 -0.3201
 2754TIP3   OH229676   4.786   2.577  11.774 -0.0851 -0.2495 -0.0620
 2754TIP3    H129677   4.857   2.631  11.806  0.5574 -1.7075  1.1123
 2754TIP3    H229678   4.712   2.597  11.831 -0.0640 -0.0982 -0.0876
 2755TIP3   OH229679   0.321   4.362   9.818 -0.0972  0.1507 -0.3779
 2755TIP3    H129680   0.233   4.329   9.797 -0.1203 -0.8474  1.1715
 2755TIP3    H229681   0.380   4.296   9.781  0.0925  1.3263 -2.3241
 2756TIP3   OH229682   5.398   4.765  10.088  0.1260  0.5389 -0.2691
 2756TIP3    H129683   5.466   4.831  10.070  0.7763  0.7214  2.3572
 2756TIP3    H229684   5.427   4.687  10.042  1.4273  0.9905 -0.2523
 2757TIP3   OH229685   0.815   6.566  10.979  0.8022  0.3177  0.6120
 2757TIP3    H129686   0.784   6.657  10.983 -1.4025 -0.2474 -1.2031
 2757TIP3    H229687   0.891   6.570  10.920  1.3765  1.1047  1.3793
 2758TIP3   OH229688   2.676   3.117  12.213  0.1128  0.1666  1.0762
 2758TIP3    H129689   2.642   3.203  12.238  0.1436 -0.0224  1.7977
 2758TIP3    H229690   2.770   3.130  12.205  0.1391  0.1630  1.3606
 2759TIP3   OH229691   4.807   0.453   9.527 -0.1137 -0.0931  0.5093
 2759TIP3    H129692   4.755   0.400   9.588  1.8570 -1.5999  0.9816
 2759TIP3    H229693   4.838   0.391   9.462  1.4132  0.6556  0.4813
 2760TIP3   OH229694   3.859   0.648  13.400 -0.1317 -0.1364  0.0718
 2760TIP3    H129695   3.907   0.695  13.468  0.3220 -0.0836 -0.2844
 2760TIP3    H229696   3.926   0.605  13.348 -0.3977  0.6519 -0.9668
 2761TIP3   OH229697   2.639   1.847  10.329 -0.7588  0.0849  0.0013
 2761TIP3    H129698   2.600   1.852  10.242 -0.6587 -0.4656 -0.0794
 2761TIP3    H229699   2.588   1.780  10.374 -1.0830  0.6627  0.5145
 2762TIP3   OH229700   2.844   3.344  14.108 -0.6505  0.6314  0.3939
 2762TIP3    H129701   2.786   3.365  14.181  1.1279  0.7074  1.8641
 2762TIP3    H229702   2.930   3.375  14.136  0.2805 -0.2323 -1.3345
 2763TIP3   OH229703   4.168   5.749   9.697 -0.1048  0.3122 -0.3044
 2763TIP3    H129704   4.205   5.671   9.655 -1.0242  0.9104 -2.3463
 2763TIP3    H229705   4.074   5.738   9.687 -0.4365  0.1493  2.3406
 2764TIP3   OH229706   2.829   3.185  11.623  0.1784 -0.1690 -0.3347
 2764TIP3    H129707   2.891   3.194  11.696  0.4903  0.7209 -0.7010
 2764TIP3    H229708   2.809   3.091  11.620 -1.2057 -0.0185  2.0175
 2765TIP3   OH229709   0.789   6.989   0.105  0.1256 -0.1203  0.3439
 2765TIP3    H129710   0.877   6.971   0.071 -0.6498  0.3631 -2.0919
 2765TIP3    H229711   0.759   6.904   0.137  2.1481  0.0625  3.1567
 2766TIP3   OH229712   4.880   1.254  14.647  0.1761 -0.4840  0.4381
 2766TIP3    H129713   4.813   1.232  14.582 -1.1711  1.1117  1.2153
 2766TIP3    H229714   4.835   1.309  14.711  2.2224  0.6609  0.9927
 2767TIP3   OH229715   6.208   0.695   2.582  0.4722 -0.1782 -0.1412
 2767TIP3    H129716   6.116   0.691   2.606  0.8708 -0.4129  1.4771
 2767TIP3    H229717   6.217   0.775   2.531 -0.1719  1.3554  1.9867
 2768TIP3   OH229718   3.396   2.139  11.458 -0.5980  0.0881  0.0952
 2768TIP3    H129719   3.396   2.103  11.546  0.4388 -0.3238 -0.0566
 2768TIP3    H229720   3.327   2.091  11.412 -1.4471  0.6278  0.7962
 2769TIP3   OH229721   7.161   3.770   3.084 -0.8686  0.3780 -0.0750
 2769TIP3    H129722   7.069   3.772   3.110 -0.7485  2.4843  0.4096
 2769TIP3    H229723   7.169   3.840   3.019  0.6486  1.3166  1.0350
 2770TIP3   OH229724   0.210   2.639   0.957 -0.3978  0.4830 -0.1623
 2770TIP3    H129725   0.305   2.645   0.955 -0.4246  1.0350 -0.0991
 2770TIP3    H229726   0.187   2.658   1.048 -0.6481  1.9334 -0.5031
 2771TIP3   OH229727   3.769   7.198  10.509 -0.5107 -0.0870  0.0624
 2771TIP3    H129728   3.767   7.285  10.548  0.0935  0.6858 -1.5245
 2771TIP3    H229729   3.839   7.152  10.556  0.7862  1.0943 -0.6276
 2772TIP3   OH229730   0.617   3.672  13.613 -0.0234 -0.4950 -0.7849
 2772TIP3    H129731   0.557   3.718  13.555  1.7956 -0.4106 -2.7354
 2772TIP3    H229732   0.652   3.740  13.671 -1.0154 -0.3660 -0.3279
 2773TIP3   OH229733   2.628   6.643  13.499  0.2772  0.9518  0.3474
 2773TIP3    H129734   2.699   6.702  13.525 -1.8855  4.3177 -0.8520
 2773TIP3    H229735   2.583   6.622  13.581  0.8013  1.3461  0.7455
 2774TIP3   OH229736   2.199   1.722  13.771  0.1398  0.1796  0.1861
 2774TIP3    H129737   2.199   1.664  13.695  0.0408  1.1535 -0.5892
 2774TIP3    H229738   2.107   1.744  13.785  0.3649  3.3687 -2.1639
 2775TIP3   OH229739   3.639   5.473  10.628  0.2272 -0.3901 -0.3042
 2775TIP3    H129740   3.549   5.441  10.632  0.6154 -1.6310 -0.9307
 2775TIP3    H229741   3.666   5.459  10.537  1.0338  0.0465 -0.1452
 2776TIP3   OH229742   3.314   1.578  14.070  0.0583 -0.0378 -0.5183
 2776TIP3    H129743   3.333   1.590  14.163 -0.9207 -0.7807 -0.2070
 2776TIP3    H229744   3.256   1.650  14.047 -0.4374 -0.3679 -0.3167
 2777TIP3   OH229745   2.534   5.163  13.736 -0.3346  0.1019  0.3458
 2777TIP3    H129746   2.549   5.132  13.647 -0.2660  1.0439  0.0231
 2777TIP3    H229747   2.619   5.154  13.779 -0.8878 -2.6186  1.0651
 2778TIP3   OH229748   7.093   1.004  10.648 -0.1550 -0.1447  0.4891
 2778TIP3    H129749   7.062   0.919  10.679 -0.1349 -0.3403 -0.0147
 2778TIP3    H229750   7.044   1.019  10.567  0.3227  0.0186  0.2278
 2779TIP3   OH229751   6.332   6.194   2.376 -0.1496 -0.1747 -0.0152
 2779TIP3    H129752   6.303   6.112   2.415 -2.2768  0.3642 -0.3455
 2779TIP3    H229753   6.288   6.197   2.291 -0.4659  1.5122  0.1762
 2780TIP3   OH229754   0.030   2.660  12.303 -0.0382  0.1012 -0.1597
 2780TIP3    H129755   0.003   2.582  12.254  1.0978 -0.5566  0.2247
 2780TIP3    H229756   0.014   2.733  12.243  0.5030 -0.6052 -1.2023
 2781TIP3   OH229757   4.436   3.213  13.104 -0.1502 -0.7858  0.5123
 2781TIP3    H129758   4.418   3.293  13.154 -0.8224 -0.0397 -0.8563
 2781TIP3    H229759   4.368   3.152  13.133 -0.8237 -0.2071  0.1951
 2782TIP3   OH229760   5.947   3.902  13.380 -0.1703  0.1047 -0.3358
 2782TIP3    H129761   5.923   3.989  13.412 -4.1437 -1.5496  2.0051
 2782TIP3    H229762   5.901   3.893  13.296 -0.4114  0.0316 -0.1985
 2783TIP3   OH229763   3.869   2.945  12.568  0.2857 -0.2725 -0.0074
 2783TIP3    H129764   3.889   3.028  12.526 -0.2489 -0.3738 -0.4645
 2783TIP3    H229765   3.953   2.899  12.570  0.0412 -0.9944 -2.5748
 2784TIP3   OH229766   4.124   0.399  14.947  0.4422  0.5162  0.7614
 2784TIP3    H129767   4.117   0.404  15.042 -1.0469  0.0169  0.7047
 2784TIP3    H229768   4.047   0.447  14.915  1.2132  1.1427 -0.2080
 2785TIP3   OH229769   0.899   0.019  10.891  0.4687 -1.1569  0.1470
 2785TIP3    H129770   0.927   0.110  10.886  0.0663 -1.0916 -1.7122
 2785TIP3    H229771   0.827   0.020  10.954 -1.5983  0.4721 -2.0043
 2786TIP3   OH229772   5.254   2.867  13.819  0.0804  0.3907  0.8788
 2786TIP3    H129773   5.282   2.934  13.882 -0.6022 -0.0488  1.6593
 2786TIP3    H229774   5.329   2.808  13.812  0.6949  1.2280  0.1733
 2787TIP3   OH229775   5.008   5.332  10.734 -0.2021 -0.3148 -0.0562
 2787TIP3    H129776   5.064   5.259  10.707 -0.1124  0.0776 -0.9346
 2787TIP3    H229777   5.039   5.355  10.822  1.6370  0.4954 -0.8784
 2788TIP3   OH229778   1.685   1.083  13.641  0.3329 -0.4897  0.2553
 2788TIP3    H129779   1.611   1.135  13.672 -0.6214 -0.9619 -1.1424
 2788TIP3    H229780   1.762   1.128  13.675 -0.5645  0.4591  1.0868
 2789TIP3   OH229781   0.841   7.060  15.095  0.1496 -0.1939 -0.7401
 2789TIP3    H129782   0.922   7.013  15.076 -0.3317 -1.0233 -0.7734
 2789TIP3    H229783   0.777   7.023  15.034 -0.2583  0.4535 -0.7119
 2790TIP3   OH229784   5.677   3.959   9.677  0.3820  0.2059  0.3370
 2790TIP3    H129785   5.724   4.039   9.653 -0.6850  0.6292 -0.4349
 2790TIP3    H229786   5.746   3.899   9.705  1.5987  0.2723 -2.2180
 2791TIP3   OH229787   0.473   0.283  11.946 -0.0522 -0.6900 -0.0117
 2791TIP3    H129788   0.508   0.211  11.894 -0.6646 -1.2498  0.3436
 2791TIP3    H229789   0.386   0.254  11.973  0.5114 -0.7518  1.9307
 2792TIP3   OH229790   2.745   0.340   1.467  0.0053 -0.7855  0.4022
 2792TIP3    H129791   2.833   0.369   1.490  0.2956 -2.4883  1.6578
 2792TIP3    H229792   2.739   0.355   1.372  2.4929 -2.5928 -0.1681
 2793TIP3   OH229793   7.051   6.076  12.595  0.6965 -0.3231 -0.3634
 2793TIP3    H129794   7.112   6.149  12.609  0.2060  0.2446 -1.1562
 2793TIP3    H229795   7.047   6.066  12.500  0.9860 -1.5898 -0.2615
 2794TIP3   OH229796   3.432   0.321   0.266 -0.6233  0.0711  0.5799
 2794TIP3    H129797   3.367   0.329   0.337 -2.4412  0.0664 -1.0116
 2794TIP3    H229798   3.422   0.402   0.216  0.3873 -0.0857  0.0983
 2795TIP3   OH229799   1.810   1.067  13.035 -0.0633 -0.0733  0.0957
 2795TIP3    H129800   1.755   0.989  13.033  1.4774 -1.1984 -0.0743
 2795TIP3    H229801   1.877   1.048  13.099  1.9616 -0.0721 -1.9084
 2796TIP3   OH229802   1.145   3.959   0.521  0.7630  0.2770  0.2542
 2796TIP3    H129803   1.217   4.013   0.489  0.0204  1.1463 -0.0099
 2796TIP3    H229804   1.183   3.906   0.591  1.9879 -0.3477 -0.8541
 2797TIP3   OH229805   0.670   0.977  10.239  0.5293  0.4229 -0.4221
 2797TIP3    H129806   0.625   0.900  10.205  1.8834 -1.5363  1.9095
 2797TIP3    H229807   0.746   0.942  10.285  0.5080  3.0252  1.8518
 2798TIP3   OH229808   0.947   6.329  11.340 -0.0018  0.1530  0.4502
 2798TIP3    H129809   0.878   6.293  11.284  0.2659  0.8042 -0.3270
 2798TIP3    H229810   1.029   6.302  11.298  0.2209 -0.3149  1.1680
 2799TIP3   OH229811   1.635   1.361  13.242 -0.7717 -0.5576  0.8437
 2799TIP3    H129812   1.650   1.384  13.334 -1.6353 -2.6026  1.5539
 2799TIP3    H229813   1.554   1.405  13.220  1.1021  2.7856 -0.1074
 2800TIP3   OH229814   2.290   1.323   9.734  0.1332  0.0620  0.5022
 2800TIP3    H129815   2.319   1.393   9.675 -1.1041 -0.4697 -0.7742
 2800TIP3    H229816   2.205   1.352   9.766  0.5880  0.1285  1.6993
 2801TIP3   OH229817   4.761   1.485  13.062 -0.2372  0.1790 -0.3890
 2801TIP3    H129818   4.718   1.412  13.106  1.6376  0.9867  3.2207
 2801TIP3    H229819   4.698   1.557  13.065 -0.8411 -0.3335 -0.8203
 2802TIP3   OH229820   1.159   3.670   2.367 -0.4661  0.2879  0.2236
 2802TIP3    H129821   1.115   3.629   2.292  0.2180  0.1110 -0.0831
 2802TIP3    H229822   1.250   3.679   2.340  0.0289 -0.7598  1.4255
 2803TIP3   OH229823   2.889   4.589  11.233  0.2056  0.1286  0.2159
 2803TIP3    H129824   2.931   4.509  11.202  1.6826  0.8680  0.2518
 2803TIP3    H229825   2.838   4.620  11.158 -1.6411 -1.6049  0.6520
 2804TIP3   OH229826   1.935   5.911  11.824  1.1668 -0.3359  0.2870
 2804TIP3    H129827   2.003   5.851  11.856  0.5719 -0.4571  1.3640
 2804TIP3    H229828   1.911   5.964  11.900  1.2793  0.9048 -0.5086
 2805TIP3   OH229829   6.842   5.907   0.709  0.1457  0.1592 -0.5479
 2805TIP3    H129830   6.869   5.997   0.726 -0.0859  0.2426 -0.6201
 2805TIP3    H229831   6.865   5.892   0.617  0.2521  0.1205 -0.5150
 2806TIP3   OH229832   1.257   2.788   0.596 -0.0052  0.3344  0.0620
 2806TIP3    H129833   1.204   2.845   0.539 -2.1775 -0.9214  0.7231
 2806TIP3    H229834   1.331   2.762   0.540 -1.3466  0.2045 -1.7596
 2807TIP3   OH229835   0.018   2.297  11.158 -0.7022  0.7637 -0.2930
 2807TIP3    H129836   0.069   2.377  11.169  1.3683 -0.4287 -0.6252
 2807TIP3    H229837  -0.038   2.292  11.236 -0.6053  2.3239 -0.1048
 2808TIP3   OH229838   6.030   6.407   9.373  0.2296  0.2178  0.2068
 2808TIP3    H129839   6.089   6.477   9.401 -0.3231  1.5375 -1.7182
 2808TIP3    H229840   6.064   6.380   9.288 -1.8580  1.0223 -0.9740
 2809TIP3   OH229841   1.993   4.552  12.030 -0.2438  0.1799  0.0116
 2809TIP3    H129842   1.911   4.512  12.059 -0.4878  0.3579 -0.4213
 2809TIP3    H229843   1.971   4.644  12.015  0.0830  0.2701  0.0807
 2810TIP3   OH229844   0.835   2.009  12.407 -0.2138  0.0153  0.4654
 2810TIP3    H129845   0.925   2.011  12.374 -0.1456 -1.5085  0.5047
 2810TIP3    H229846   0.844   2.017  12.502 -0.3260  2.7804  0.3381
 2811TIP3   OH229847   1.948   2.386  11.454  0.0962  0.0130  0.4007
 2811TIP3    H129848   1.889   2.321  11.492 -0.1365 -0.4051 -0.6193
 2811TIP3    H229849   2.008   2.410  11.524  0.3532 -1.5008  0.7290
 2812TIP3   OH229850   0.362   6.692  10.867 -0.9742 -0.5711  0.4870
 2812TIP3    H129851   0.323   6.677  10.781  1.5301  2.0207 -1.2919
 2812TIP3    H229852   0.366   6.787  10.875  2.9585 -0.6625  1.3678
 2813TIP3   OH229853   5.979   6.583  11.986 -0.4776  0.4803  0.1561
 2813TIP3    H129854   6.012   6.624  12.066  1.5699  0.4468 -0.6213
 2813TIP3    H229855   5.940   6.501  12.015 -0.6856  0.9309  1.2110
 2814TIP3   OH229856   5.199   3.775  10.842 -0.1407 -0.2824  0.1803
 2814TIP3    H129857   5.135   3.724  10.791  0.9190 -0.1250 -1.3666
 2814TIP3    H229858   5.241   3.831  10.778  1.1051  0.0876  1.2889
 2815TIP3   OH229859   2.063   3.533  10.774  0.0661 -0.2424 -0.3405
 2815TIP3    H129860   1.970   3.531  10.799 -0.0646  0.6850 -0.7256
 2815TIP3    H229861   2.075   3.619  10.733  1.8318  1.0469  2.5869
 2816TIP3   OH229862   0.794   1.025   9.274  0.0316  0.4575 -0.2305
 2816TIP3    H129863   0.713   1.062   9.309  0.3558  1.3463 -0.3828
 2816TIP3    H229864   0.812   0.948   9.329 -0.9575  0.2021 -0.2597
 2817TIP3   OH229865   1.478   7.086   9.235 -0.0073 -0.1307  0.1771
 2817TIP3    H129866   1.481   7.155   9.169  0.5964 -0.4825 -0.1751
 2817TIP3    H229867   1.399   7.104   9.286 -1.6913 -1.0418 -1.9480
 2818TIP3   OH229868   4.249   1.736  11.213  0.0010 -0.4554  0.5210
 2818TIP3    H129869   4.216   1.729  11.303 -1.1290 -0.8420  0.0829
 2818TIP3    H229870   4.279   1.648  11.192  3.1904  0.2370  1.5692
 2819TIP3   OH229871   2.544   2.947  11.299 -0.0706  0.5362 -0.4380
 2819TIP3    H129872   2.468   2.906  11.260 -0.6522  0.0630  1.1045
 2819TIP3    H229873   2.609   2.877  11.305 -0.4778  0.2289  0.6720
 2820TIP3   OH229874   1.310   0.778  12.122 -0.0489 -0.6349  0.2946
 2820TIP3    H129875   1.353   0.857  12.090  0.8077 -1.5997 -1.0298
 2820TIP3    H229876   1.356   0.706  12.078 -1.2791 -1.8383  0.9117
 2821TIP3   OH229877   4.495   4.268  14.853  0.0580  0.5496  0.1280
 2821TIP3    H129878   4.458   4.190  14.894  2.0844 -0.4320  0.2145
 2821TIP3    H229879   4.462   4.265  14.763  0.5780 -0.7727 -0.0447
 2822TIP3   OH229880   4.346   1.181  10.153  0.3359  0.8490 -0.0803
 2822TIP3    H129881   4.311   1.184  10.242 -1.0593  0.2442 -0.5811
 2822TIP3    H229882   4.332   1.269  10.118 -2.4184  0.1746 -0.8698
 2823TIP3   OH229883   2.138   6.257  11.426 -0.1100  0.0518  0.4156
 2823TIP3    H129884   2.067   6.306  11.386  0.7348 -0.1015 -1.3808
 2823TIP3    H229885   2.211   6.267  11.365  0.5975 -2.0297  0.8549
 2824TIP3   OH229886   6.212   2.561  10.493 -0.2627 -0.0183 -0.3160
 2824TIP3    H129887   6.192   2.478  10.536  0.0466 -0.1052 -0.3403
 2824TIP3    H229888   6.299   2.585  10.525 -1.0809  1.2214  1.1406
 2825TIP3   OH229889   2.067   5.894   9.251 -0.0882 -0.6502  0.1765
 2825TIP3    H129890   1.978   5.927   9.262  0.1045 -0.3692  0.9324
 2825TIP3    H229891   2.109   5.908   9.336  0.3023 -1.9396  0.2083
 2826TIP3   OH229892   4.531   1.616  14.476  0.7737  0.3038 -0.0328
 2826TIP3    H129893   4.513   1.553  14.406 -0.0375  0.7340 -0.2105
 2826TIP3    H229894   4.488   1.579  14.554  0.8483  0.3161  0.0144
 2827TIP3   OH229895   2.117   1.853   9.753  0.7002  0.1173  0.1365
 2827TIP3    H129896   2.102   1.936   9.706  1.0700 -0.6156 -1.3431
 2827TIP3    H229897   2.034   1.807   9.748 -0.2951  1.3571  3.1181
 2828TIP3   OH229898   6.694   0.532  10.436  0.3102  0.2522  0.5245
 2828TIP3    H129899   6.717   0.550  10.345  1.0115  1.0688  0.8460
 2828TIP3    H229900   6.607   0.571  10.447  0.4179  0.5520  0.3230
 2829TIP3   OH229901   1.657   6.269  12.890 -0.1701  0.4477  0.0453
 2829TIP3    H129902   1.730   6.249  12.948 -1.3102 -0.6422  1.1467
 2829TIP3    H229903   1.686   6.239  12.804  0.8260  0.4016  0.3837
 2830TIP3   OH229904   5.583   4.171  13.058  0.5744  0.9304  0.2361
 2830TIP3    H129905   5.549   4.128  12.980  0.7172  0.4242  0.4496
 2830TIP3    H229906   5.674   4.142  13.064  0.6023  1.0751  0.5124
 2831TIP3   OH229907   0.020   1.297  11.439 -0.1386 -0.2977  0.2050
 2831TIP3    H129908  -0.039   1.275  11.367 -1.8521  1.6786  0.9134
 2831TIP3    H229909   0.108   1.287  11.402 -0.9619  0.4471 -2.0989
 2832TIP3   OH229910   5.857   1.403   0.536 -0.1947  0.2657 -0.1542
 2832TIP3    H129911   5.912   1.399   0.614 -1.0990 -2.3068  0.4376
 2832TIP3    H229912   5.901   1.346   0.473  0.4999  2.2709 -1.6195
 2833TIP3   OH229913   0.079   2.626  11.731  0.1376  0.3902 -0.8156
 2833TIP3    H129914   0.100   2.634  11.638 -0.6441 -2.2171 -1.2830
 2833TIP3    H229915   0.026   2.547  11.737  2.2822 -0.9940  2.1734
 2834TIP3   OH229916   3.153   1.480  12.261  0.0476 -0.2772 -0.2756
 2834TIP3    H129917   3.248   1.484  12.259  0.1857 -2.2967  0.3165
 2834TIP3    H229918   3.125   1.569  12.238  2.0493  0.3735 -0.3983
 2835TIP3   OH229919   6.517   1.363  10.596 -0.0960 -0.5831 -0.2276
 2835TIP3    H129920   6.450   1.330  10.656  0.7955  0.4514  1.4254
 2835TIP3    H229921   6.487   1.336  10.509 -2.0091 -1.1916  0.5629
 2836TIP3   OH229922   0.987   3.664   9.786 -0.8054  0.4591  0.1930
 2836TIP3    H129923   0.996   3.609   9.708  3.3285  0.1935  0.6242
 2836TIP3    H229924   0.956   3.748   9.752 -1.4146 -0.3498 -1.3481
 2837TIP3   OH229925   2.640   3.867  12.641  0.4244 -0.5509 -0.4009
 2837TIP3    H129926   2.632   3.950  12.593  0.2886  1.3594  2.6816
 2837TIP3    H229927   2.552   3.830  12.640 -0.2386  0.9065  0.6925
 2838TIP3   OH229928   4.936   6.305  12.377 -0.1708 -0.1166  0.6159
 2838TIP3    H129929   4.939   6.252  12.298 -1.1246 -2.0598  1.8154
 2838TIP3    H229930   5.003   6.268  12.434 -0.5507  0.2330  1.3068
 2839TIP3   OH229931   1.669   7.197  10.950  0.5200 -0.0151 -0.5933
 2839TIP3    H129932   1.728   7.271  10.961 -0.7902  1.2778 -1.8418
 2839TIP3    H229933   1.673   7.178  10.856 -0.3193 -0.5287 -0.5323
 2840TIP3   OH229934   5.905   5.657   9.879  0.1470 -0.2613  0.4584
 2840TIP3    H129935   5.830   5.686   9.827 -0.8685  2.3611  3.1496
 2840TIP3    H229936   5.867   5.601   9.947  0.9298 -0.6629  0.5802
 2841TIP3   OH229937   0.227   2.360  10.941  0.0010 -0.1874 -0.9401
 2841TIP3    H129938   0.263   2.285  10.989  0.5385  0.3288 -0.5246
 2841TIP3    H229939   0.246   2.340  10.849  0.5613 -0.3502 -0.7965
 2842TIP3   OH229940   7.208   4.253   9.992 -0.1723 -0.3438  0.4663
 2842TIP3    H129941   7.169   4.196  10.059  0.5238 -1.5065 -0.1069
 2842TIP3    H229942   7.201   4.204   9.911 -0.1841  0.6879 -0.1755
 2843TIP3   OH229943   3.134   1.652  10.610 -0.0075 -0.1326  0.7987
 2843TIP3    H129944   3.064   1.693  10.660 -1.5598 -2.1026  0.3812
 2843TIP3    H229945   3.138   1.562  10.643  0.3520 -0.8814 -1.1227
 2844TIP3   OH229946   2.754   1.222  12.687 -1.1306  0.4702  0.5963
 2844TIP3    H129947   2.803   1.281  12.744 -0.7848 -1.0856  1.9760
 2844TIP3    H229948   2.704   1.167  12.747 -0.6498 -1.3211 -0.5772
 2845TIP3   OH229949   2.395   5.089  12.061  0.1102  0.1841  0.7214
 2845TIP3    H129950   2.401   5.154  11.992  2.8145 -0.2267  0.4775
 2845TIP3    H229951   2.485   5.062  12.078 -0.2265  1.0638  5.2328
 2846TIP3   OH229952   4.197   0.310  11.026 -0.0253 -0.4369 -0.6042
 2846TIP3    H129953   4.268   0.365  10.992 -0.8626 -0.0147 -1.7295
 2846TIP3    H229954   4.194   0.331  11.119  1.3044 -0.4450 -0.5305
 2847TIP3   OH229955   3.801   3.177  14.390  0.9783 -0.2811 -0.2523
 2847TIP3    H129956   3.858   3.196  14.316  0.8913 -0.1204 -0.2800
 2847TIP3    H229957   3.859   3.140  14.456  1.4144  1.2274  0.2680
 2848TIP3   OH229958   3.289   0.507  10.692 -0.4003  0.1880  0.1117
 2848TIP3    H129959   3.363   0.522  10.633 -0.4054 -0.8464 -0.1745
 2848TIP3    H229960   3.271   0.413  10.684 -2.2017  0.5431 -0.3889
 2849TIP3   OH229961   6.724   5.900  12.939  0.7645  0.4161 -0.7953
 2849TIP3    H129962   6.742   5.964  12.871  3.2704 -0.6104 -1.2180
 2849TIP3    H229963   6.762   5.937  13.019  0.2879  0.4128 -0.5656
 2850TIP3   OH229964   0.265   5.970  11.381  0.1518  0.4687  1.1626
 2850TIP3    H129965   0.195   5.930  11.330 -0.2254  1.4649  0.8739
 2850TIP3    H229966   0.333   5.991  11.317 -0.3897  1.8657  1.0148
 2851TIP3   OH229967   6.873   5.467  12.758  0.2789 -0.1108  0.0415
 2851TIP3    H129968   6.870   5.563  12.759 -0.0560 -0.1206  0.8100
 2851TIP3    H229969   6.915   5.444  12.840  0.2716 -0.6341 -0.1014
 2852TIP3   OH229970   3.833   3.656  11.197 -0.0096 -0.8003 -0.2465
 2852TIP3    H129971   3.739   3.672  11.194  0.0416 -0.2443  0.8488
 2852TIP3    H229972   3.872   3.729  11.149 -0.1253 -0.9919 -0.6361
 2853TIP3   OH229973   5.220   3.612   0.010 -0.0951 -0.2765 -0.4162
 2853TIP3    H129974   5.143   3.650   0.051 -0.2471 -0.7051 -0.2975
 2853TIP3    H229975   5.289   3.620   0.076  0.8863  3.0778 -1.6310
 2854TIP3   OH229976   0.704   0.646  10.615 -0.0165  0.0786  0.1859
 2854TIP3    H129977   0.718   0.642  10.520  1.4544  2.3623  0.2264
 2854TIP3    H229978   0.639   0.716  10.626  0.2414  0.2136  0.8973
 2855TIP3   OH229979   4.393   1.366   0.036  0.5665 -1.0418 -0.5640
 2855TIP3    H129980   4.475   1.318   0.025  1.0142 -0.2224 -0.9135
 2855TIP3    H229981   4.406   1.447  -0.014 -0.9920 -1.5174 -1.8340
 2856TIP3   OH229982   4.728   5.451  13.475 -0.6375  0.8958 -0.0167
 2856TIP3    H129983   4.670   5.515  13.435 -0.8121 -0.1487 -1.5078
 2856TIP3    H229984   4.816   5.481  13.453 -0.7340  0.1844 -1.5008
 2857TIP3   OH229985   6.939   4.149  14.241 -0.2413  0.4256  0.1340
 2857TIP3    H129986   6.865   4.155  14.182  0.8825 -0.3736 -1.4261
 2857TIP3    H229987   6.936   4.060  14.276  0.6802 -0.0412 -0.9319
 2858TIP3   OH229988   3.832   1.974   9.975  0.5913 -0.3408  0.1168
 2858TIP3    H129989   3.783   1.959   9.893  0.7535 -0.3465  0.0208
 2858TIP3    H229990   3.775   1.938  10.043  0.1264  0.2988  0.0830
 2859TIP3   OH229991   4.792   3.117  10.625 -0.1186 -0.8103  0.1681
 2859TIP3    H129992   4.821   3.195  10.577  1.0707 -0.4086  1.4549
 2859TIP3    H229993   4.704   3.139  10.655 -0.7662 -0.9567 -1.5287
 2860TIP3   OH229994   5.828   0.758  11.278  0.4757 -0.0837  0.5117
 2860TIP3    H129995   5.832   0.853  11.270 -1.1367  0.0692  1.3353
 2860TIP3    H229996   5.806   0.742  11.370 -0.5182 -1.2039  0.0982
 2861TIP3   OH229997   4.776   2.152  12.522  0.2630  0.4766 -0.3699
 2861TIP3    H129998   4.833   2.202  12.464 -0.0884  0.6444 -0.5756
 2861TIP3    H229999   4.738   2.085  12.465  0.8418 -0.1271 -0.0661
 2862TIP3   OH230000   4.420   2.047   2.668  0.2025  0.1223  0.6963
 2862TIP3    H130001   4.434   2.081   2.580  2.6809 -0.2908  0.8540
 2862TIP3    H230002   4.407   2.125   2.722  2.3224  0.6657  0.4966
 2863TIP3   OH230003   0.856   5.223   2.110  0.0916  0.2691 -0.0199
 2863TIP3    H130004   0.845   5.250   2.201  0.3274  1.1103 -0.2292
 2863TIP3    H230005   0.951   5.225   2.096  0.0502  0.2107 -0.3019
 2864TIP3   OH230006   3.746   6.363  10.755 -0.3794  0.0820  0.3314
 2864TIP3    H130007   3.760   6.450  10.718 -0.0241  0.6256  1.6750
 2864TIP3    H230008   3.802   6.306  10.704  0.0265  0.7925 -0.0279
 2865TIP3   OH230009   4.043   1.608  12.606  0.0197  0.4784  0.2652
 2865TIP3    H130010   3.963   1.559  12.624 -0.4603  0.4552 -1.7413
 2865TIP3    H230011   4.112   1.542  12.604 -0.3323  0.1289 -0.6053
 2866TIP3   OH230012   3.836   5.073  15.045  0.1032 -0.1022  0.0419
 2866TIP3    H130013   3.823   5.114  14.960  0.7102  0.6251  0.2922
 2866TIP3    H230014   3.918   5.110  15.078 -0.4902  0.1922  1.2609
 2867TIP3   OH230015   5.855   4.260   9.833 -0.3582  0.2309  0.2215
 2867TIP3    H130016   5.905   4.179   9.848  1.3721  1.0698 -0.6640
 2867TIP3    H230017   5.884   4.290   9.747  0.0822  2.4817  1.0780
 2868TIP3   OH230018   6.638   1.775  10.900  0.4056 -0.3104  0.0417
 2868TIP3    H130019   6.653   1.696  10.849  0.9513 -0.1676 -0.0247
 2868TIP3    H230020   6.558   1.756  10.950  0.8222 -1.1122  0.4325
 2869TIP3   OH230021   3.113   4.678  14.437  0.0071  0.8739  0.3933
 2869TIP3    H130022   3.037   4.637  14.478 -0.0473 -0.5128 -0.9857
 2869TIP3    H230023   3.107   4.653  14.344  1.7757  1.2854  0.1287
 2870TIP3   OH230024   3.071   1.750  14.312  0.0112  0.2282 -0.1027
 2870TIP3    H130025   3.152   1.786  14.350  0.0323 -0.2609  0.3312
 2870TIP3    H230026   3.023   1.826  14.281 -0.2511  0.7158  1.3946
 2871TIP3   OH230027   2.061   0.849  10.146 -0.2180 -0.1742  0.1835
 2871TIP3    H130028   2.072   0.768  10.096  0.9706 -0.0535  0.2266
 2871TIP3    H230029   2.080   0.825  10.236 -0.3860  0.0486  0.2802
 2872TIP3   OH230030   2.681   3.286  10.069 -0.0749 -0.3428 -0.4641
 2872TIP3    H130031   2.750   3.264  10.007  0.3486 -0.2751 -0.0238
 2872TIP3    H230032   2.650   3.372  10.041 -0.0752 -0.4368 -0.7496
 2873TIP3   OH230033   2.537   6.362  13.530 -0.4443 -0.2355  0.1867
 2873TIP3    H130034   2.562   6.407  13.449  1.5669  0.2154  0.9998
 2873TIP3    H230035   2.562   6.271  13.516  0.3696 -0.0626  0.4602
 2874TIP3   OH230036   4.907   5.573  11.695  0.5564  0.1943  0.3552
 2874TIP3    H130037   4.989   5.607  11.659  1.3239 -1.6617  0.2493
 2874TIP3    H230038   4.869   5.521  11.624  1.4674 -2.4879  1.7182
 2875TIP3   OH230039   5.961   0.301  12.511 -0.0216  0.3381 -0.3270
 2875TIP3    H130040   5.870   0.287  12.537 -0.2048 -0.5341 -1.3578
 2875TIP3    H230041   6.012   0.260  12.580 -0.4923 -1.6589 -1.0930
 2876TIP3   OH230042   4.481   7.182  10.159 -0.2042  0.2447 -0.5097
 2876TIP3    H130043   4.529   7.258  10.192 -1.2685  1.3329 -1.3729
 2876TIP3    H230044   4.500   7.180  10.065  0.9937 -1.4737 -0.2725
 2877TIP3   OH230045   0.559   3.911  10.635  0.2967  0.0453  0.0487
 2877TIP3    H130046   0.520   3.850  10.573  0.5680 -0.6447  0.5340
 2877TIP3    H230047   0.519   3.995  10.615  0.2208 -0.2036 -0.9125
 2878TIP3   OH230048   4.143   0.340  10.760  0.6282  0.1503  0.1238
 2878TIP3    H130049   4.138   0.338  10.855 -0.9434 -1.5805  0.0737
 2878TIP3    H230050   4.157   0.248  10.735  1.0631  0.5790 -1.3140
 2879TIP3   OH230051   4.698   3.998  13.482 -0.0651  0.0634 -0.0656
 2879TIP3    H130052   4.710   4.024  13.574  1.2025 -0.6904  0.0087
 2879TIP3    H230053   4.688   3.903  13.486  1.6544 -0.1869 -0.8104
 2880TIP3   OH230054   6.302   5.644  10.621 -0.2709 -0.2436 -0.7259
 2880TIP3    H130055   6.274   5.712  10.560  1.2698  0.7017 -0.4309
 2880TIP3    H230056   6.389   5.619  10.591 -1.1299 -2.7775 -1.3557
 2881TIP3   OH230057   2.511   3.652  13.914  0.0834  0.1438  0.5652
 2881TIP3    H130058   2.534   3.730  13.864  0.5484 -0.3286  0.0190
 2881TIP3    H230059   2.470   3.594  13.850  0.0386 -0.1889  0.8910
 2882TIP3   OH230060   0.006   4.123  14.442 -0.6324 -0.4402 -0.3301
 2882TIP3    H130061   0.067   4.197  14.436 -0.3093 -0.4731  1.7491
 2882TIP3    H230062  -0.004   4.093  14.352  0.5852  1.0494 -1.0132
 2883TIP3   OH230063   5.915   5.223   0.992  0.1964 -0.7054 -0.1839
 2883TIP3    H130064   5.996   5.227   1.043 -1.4161 -2.6596  2.8438
 2883TIP3    H230065   5.928   5.150   0.932  1.3797  0.3314 -1.2478
 2884TIP3   OH230066   1.000   2.908  10.734 -0.3406  0.2128  0.1439
 2884TIP3    H130067   1.020   2.879  10.646 -0.1922  2.0173 -0.4657
 2884TIP3    H230068   1.084   2.907  10.779 -0.8742 -4.0608  1.4417
 2885TIP3   OH230069   3.833   4.983  10.731 -0.4893 -0.4953 -0.3535
 2885TIP3    H130070   3.794   4.922  10.794 -0.2560 -0.1560  0.1318
 2885TIP3    H230071   3.797   5.068  10.756  1.0030 -0.0795  0.4964
 2886TIP3   OH230072   5.133   2.771  12.456  0.0452 -0.0733 -0.4494
 2886TIP3    H130073   5.212   2.825  12.456  0.6051 -0.8433  1.0153
 2886TIP3    H230074   5.062   2.833  12.476  0.3813  0.4610 -0.8715
 2887TIP3   OH230075   6.912   5.254  10.207 -0.0865 -0.1335  0.1452
 2887TIP3    H130076   6.985   5.298  10.251  0.4306 -2.0776  1.3581
 2887TIP3    H230077   6.845   5.245  10.274 -0.7786  0.0953 -0.4989
 2888TIP3   OH230078   0.879   2.355  10.561 -0.3731  0.0969  0.5537
 2888TIP3    H130079   0.865   2.425  10.626  1.7553  0.6615  0.5007
 2888TIP3    H230080   0.827   2.382  10.486  1.5030  2.5201 -0.0271
 2889TIP3   OH230081   5.584   5.113  10.361 -0.2196 -0.1759  0.2164
 2889TIP3    H130082   5.610   5.051  10.293 -0.7329  0.1900 -0.3198
 2889TIP3    H230083   5.566   5.195  10.314  1.4311  0.7008  1.0055
 2890TIP3   OH230084   0.564   1.348  10.479  0.0856  0.1982  0.1607
 2890TIP3    H130085   0.470   1.368  10.471  0.1137  0.1460 -0.3358
 2890TIP3    H230086   0.599   1.366  10.392  0.2372 -1.3992 -0.1282
 2891TIP3   OH230087   3.483   0.153  11.082  0.1756  0.7219  0.1032
 2891TIP3    H130088   3.573   0.124  11.097 -0.1148  0.8183  2.4556
 2891TIP3    H230089   3.482   0.244  11.110 -0.1534  1.4614 -2.1583
 2892TIP3   OH230090   4.923   4.570  11.462 -0.0604  0.2617 -0.1254
 2892TIP3    H130091   4.890   4.569  11.372  0.3568  0.2413 -0.2760
 2892TIP3    H230092   5.017   4.560  11.454 -0.0682 -0.2599  0.3404
 2893TIP3   OH230093   6.827   2.992  13.551 -0.5457 -0.3965 -0.0158
 2893TIP3    H130094   6.810   2.902  13.522 -0.8587 -0.2396 -0.3289
 2893TIP3    H230095   6.756   3.012  13.612  0.8799 -1.2203  2.0205
 2894TIP3   OH230096   2.374   1.535  10.179 -0.1030 -0.0977  0.0721
 2894TIP3    H130097   2.280   1.526  10.167 -0.3647 -0.7857  2.1694
 2894TIP3    H230098   2.411   1.458  10.138 -0.4134  0.2778 -0.9438
 2895TIP3   OH230099   2.738   4.504  11.942 -0.0705 -0.1203 -0.4780
 2895TIP3    H130100   2.820   4.500  11.992 -0.7163 -1.3452  0.5557
 2895TIP3    H230101   2.698   4.587  11.967  0.5416  0.1776 -0.4755
 2896TIP3   OH230102   4.800   1.175  12.209  0.3729 -0.0869  0.3119
 2896TIP3    H130103   4.886   1.218  12.208  0.5903 -0.5106 -1.2830
 2896TIP3    H230104   4.771   1.176  12.118 -1.5111  0.3905  0.8651
 2897TIP3   OH230105   2.668   5.127  12.171  0.0793  0.2722  0.1307
 2897TIP3    H130106   2.664   5.056  12.235 -1.8085 -0.1181 -0.3600
 2897TIP3    H230107   2.654   5.207  12.223 -0.3092  0.0569  0.3595
 2898TIP3   OH230108   3.534   3.944  10.392 -0.4083  0.2078 -0.0747
 2898TIP3    H130109   3.510   3.981  10.477 -1.2909  0.9148 -0.6071
 2898TIP3    H230110   3.590   4.011  10.352  1.8006 -1.0367  0.7816
 2899TIP3   OH230111   5.708   6.350   9.482 -0.0978 -0.7443  0.2983
 2899TIP3    H130112   5.795   6.376   9.512  0.0003 -0.6386 -0.0830
 2899TIP3    H230113   5.706   6.255   9.494 -0.4861 -0.5851  1.7752
 2900TIP3   OH230114   2.234   1.156   2.574  0.0710 -0.4046  0.5706
 2900TIP3    H130115   2.167   1.098   2.539 -0.6402  1.4090 -1.3233
 2900TIP3    H230116   2.277   1.192   2.497  1.4894  0.4327  1.7015
 2901TIP3   OH230117   1.864   3.016  10.567 -0.6508  0.2204 -0.4164
 2901TIP3    H130118   1.804   2.969  10.509  0.2136 -1.5170 -0.0000
 2901TIP3    H230119   1.909   3.079  10.511 -0.8541 -0.4218 -1.3186
 2902TIP3   OH230120   1.707   6.864  14.676 -0.4724 -0.2091  0.1643
 2902TIP3    H130121   1.639   6.865  14.744  0.0108  0.7439  0.6552
 2902TIP3    H230122   1.787   6.886  14.723  0.5355 -3.0052 -0.0748
 2903TIP3   OH230123   0.181   5.039  12.525  0.2933  0.7156  0.3594
 2903TIP3    H130124   0.270   5.024  12.495  0.6948 -0.9723  2.1798
 2903TIP3    H230125   0.128   4.976  12.476  0.6953 -0.8386  1.8267
 2904TIP3   OH230126   1.090   6.082  11.594 -0.2672  0.2557 -0.3079
 2904TIP3    H130127   1.114   6.067  11.686 -1.1642 -2.4865 -0.4272
 2904TIP3    H230128   1.160   6.138  11.560  1.2509 -0.4096  1.5145
 2905TIP3   OH230129   7.124   5.692   9.937 -0.0968  0.3634  0.6407
 2905TIP3    H130130   7.077   5.626   9.987  2.0530 -1.7477  0.0474
 2905TIP3    H230131   7.180   5.642   9.877  0.0753  2.7528 -1.3674
 2906TIP3   OH230132   5.218   6.378  11.951 -0.0946 -0.0099  0.2063
 2906TIP3    H130133   5.161   6.395  12.025 -0.4646  0.3692 -0.1571
 2906TIP3    H230134   5.307   6.391  11.985 -0.1889 -1.0512  0.8855
 2907TIP3   OH230135   5.952   6.565  10.785 -0.2093  0.2103 -0.8509
 2907TIP3    H130136   6.024   6.503  10.796 -0.4736 -0.0004 -0.2401
 2907TIP3    H230137   5.991   6.640  10.739  0.0967 -0.4309 -1.6681
 2908TIP3   OH230138   5.858   3.752   9.742  0.4092 -0.0087  0.7763
 2908TIP3    H130139   5.929   3.693   9.767  0.2712 -0.9916 -1.0008
 2908TIP3    H230140   5.814   3.707   9.670  1.2768  2.8887 -1.7917
 2909TIP3   OH230141   7.124   2.440  12.632 -0.4626 -0.2629 -0.0918
 2909TIP3    H130142   7.146   2.531  12.615 -0.4750 -0.4235 -1.0050
 2909TIP3    H230143   7.054   2.443  12.697 -0.9494  0.3978 -0.6476
 2910TIP3   OH230144   4.369   3.971  10.780  0.1058  0.4738  1.2425
 2910TIP3    H130145   4.342   4.061  10.761 -0.1968 -0.0645 -1.3314
 2910TIP3    H230146   4.315   3.945  10.855 -1.7562  1.6059  0.3634
 2911TIP3   OH230147   5.726   0.764  10.913 -0.4800 -0.5126 -0.5049
 2911TIP3    H130148   5.646   0.747  10.962  0.2148  0.2872  0.9655
 2911TIP3    H230149   5.696   0.799  10.829 -1.6916  2.4987  1.0506
 2912TIP3   OH230150   6.408   4.697   9.486 -0.0023 -0.5404  0.0670
 2912TIP3    H130151   6.472   4.723   9.420  0.0846  0.1773  0.4268
 2912TIP3    H230152   6.325   4.733   9.455 -0.4386 -2.2237 -0.8614
 2913TIP3   OH230153   6.151   3.109  11.410 -0.4213 -0.7844 -0.1510
 2913TIP3    H130154   6.216   3.038  11.413  0.0653 -0.3642  2.7582
 2913TIP3    H230155   6.204   3.188  11.400 -0.3257 -0.4145  2.5158
 2914TIP3   OH230156   7.131   1.026  11.885 -0.0576  0.1883 -0.6631
 2914TIP3    H130157   7.218   1.041  11.848  0.4555  1.4772  0.9344
 2914TIP3    H230158   7.118   1.098  11.947 -1.3654 -1.1632  0.7457
 2915TIP3   OH230159   4.339   1.484  11.195 -0.1362 -0.6646 -0.2216
 2915TIP3    H130160   4.421   1.517  11.231  0.6585 -2.1483 -0.5786
 2915TIP3    H230161   4.357   1.467  11.103 -1.8423  2.0844 -1.1890
 2916TIP3   OH230162   2.667   4.742  12.894 -0.2753 -0.0119 -0.5586
 2916TIP3    H130163   2.605   4.808  12.925 -1.2048 -0.4234 -1.4695
 2916TIP3    H230164   2.633   4.716  12.808  1.8467  0.6153 -1.6472
 2917TIP3   OH230165   6.184   6.401   2.710  0.4743 -0.0023 -0.1433
 2917TIP3    H130166   6.207   6.442   2.794  0.2557 -2.5776  1.2725
 2917TIP3    H230167   6.268   6.387   2.667  0.6036  1.1606 -0.3178
 2918TIP3   OH230168   4.622   0.910  12.440 -0.1887  0.2271 -0.2341
 2918TIP3    H130169   4.623   0.889  12.534  0.4502 -2.1366 -0.7028
 2918TIP3    H230170   4.530   0.917  12.418 -0.5355 -2.6815 -0.0472
 2919TIP3   OH230171   0.603   3.303  11.419 -0.1442  0.0127 -0.4994
 2919TIP3    H130172   0.653   3.355  11.355  0.8534 -0.6041 -0.2424
 2919TIP3    H230173   0.580   3.223  11.372 -1.1655  0.4159 -0.7071
 2920TIP3   OH230174   6.476   1.898  14.977  0.2062 -0.2715 -0.2765
 2920TIP3    H130175   6.386   1.916  15.005  1.1098  0.4537  2.5522
 2920TIP3    H230176   6.490   1.806  14.998  0.6234  0.0669  1.0753
 2921TIP3   OH230177   4.486   4.479  12.599  0.2321  0.0527 -0.1461
 2921TIP3    H130178   4.549   4.414  12.629  0.3372  0.3368  0.2548
 2921TIP3    H230179   4.401   4.439  12.615  0.2774 -0.9049 -1.9222
 2922TIP3   OH230180   1.770   0.189  12.494 -0.8043 -0.5034 -0.0076
 2922TIP3    H130181   1.855   0.225  12.519 -1.1230 -1.0290  2.0359
 2922TIP3    H230182   1.772   0.099  12.529 -2.5333 -0.1997  0.9617
 2923TIP3   OH230183   5.307   7.077  15.084 -0.2030  0.4413 -0.4313
 2923TIP3    H130184   5.232   7.042  15.132 -0.6239 -0.1271 -1.4525
 2923TIP3    H230185   5.326   7.010  15.018  1.1353  0.6346 -0.2710
 2924TIP3   OH230186   6.987   2.047  12.322  0.8308 -0.7159  0.6088
 2924TIP3    H130187   6.977   2.101  12.400 -3.5540 -2.2760  1.4048
 2924TIP3    H230188   6.986   2.110  12.249  0.4863  0.5253  1.6476
 2925TIP3   OH230189   3.381   0.892   9.861  0.1059 -0.1637 -0.5473
 2925TIP3    H130190   3.322   0.967   9.860  1.4223  0.9525  0.7483
 2925TIP3    H230191   3.468   0.930   9.873  0.9953 -1.8231 -1.3826
 2926TIP3   OH230192   5.587   0.166  12.308  0.3006 -0.2437  0.1011
 2926TIP3    H130193   5.508   0.131  12.267  1.0352 -2.4323  0.4713
 2926TIP3    H230194   5.612   0.240  12.252 -1.2081 -0.3896 -0.8083
 2927TIP3   OH230195   1.771   5.021  12.091 -0.0743  0.6217 -0.5358
 2927TIP3    H130196   1.723   4.953  12.139  0.6608  0.0226 -0.6339
 2927TIP3    H230197   1.845   4.975  12.052  0.1181  1.3765 -1.0819
 2928TIP3   OH230198   3.855   5.375  15.252 -0.5315  0.3154  0.1555
 2928TIP3    H130199   3.786   5.392  15.316 -0.3199 -0.6284  0.6601
 2928TIP3    H230200   3.926   5.337  15.303  0.4052  1.3371 -0.3474
 2929TIP3   OH230201   6.483   1.133   0.322 -0.2605  0.4177  0.0991
 2929TIP3    H130202   6.471   1.057   0.379 -0.2977  0.3988  0.0665
 2929TIP3    H230203   6.550   1.105   0.259  1.9229  1.3940  1.8332
 2930TIP3   OH230204   1.789   0.872  14.130 -0.1184  0.5312  0.2980
 2930TIP3    H130205   1.761   0.947  14.076  1.9890  0.9055 -0.3596
 2930TIP3    H230206   1.707   0.832  14.159 -1.3864  0.8430 -2.4764
 2931TIP3   OH230207   4.195   3.890  11.065  0.0738  0.1240 -0.2446
 2931TIP3    H130208   4.108   3.904  11.102 -0.4125 -1.4144 -0.7235
 2931TIP3    H230209   4.233   3.978  11.060 -1.5106  0.8555 -0.1838
 2932TIP3   OH230210   6.646   3.564  12.332  0.0849  0.0931  0.5285
 2932TIP3    H130211   6.735   3.530  12.338 -0.1333 -0.4504  0.8110
 2932TIP3    H230212   6.621   3.550  12.241  0.1806 -0.0279  0.5215
 2933TIP3   OH230213   5.818   6.203  12.584 -0.1443 -0.9273  0.4291
 2933TIP3    H130214   5.752   6.158  12.637 -1.2972 -0.3335 -0.4913
 2933TIP3    H230215   5.896   6.204  12.641 -1.4086 -0.0486  2.2505
 2934TIP3   OH230216   4.008   2.956  13.586 -0.1846  0.1446 -0.0699
 2934TIP3    H130217   4.067   3.029  13.609  1.2434 -1.6216  2.3253
 2934TIP3    H230218   3.965   2.933  13.669 -1.8317 -0.7376 -1.1176
 2935TIP3   OH230219   1.982   3.047  13.975  0.3079  0.0692  0.3638
 2935TIP3    H130220   1.964   3.120  14.034  0.0831  0.7345 -0.5068
 2935TIP3    H230221   2.030   3.086  13.902  1.1674 -0.8582  0.4077
 2936TIP3   OH230222   7.133   5.728   1.448  0.2758 -0.3338  0.2331
 2936TIP3    H130223   7.200   5.796   1.461  0.4114 -0.3425 -0.3643
 2936TIP3    H230224   7.070   5.742   1.519 -0.0523  0.8458 -0.2566
 2937TIP3   OH230225   3.562   6.543  14.321  0.3348 -0.3781 -0.5765
 2937TIP3    H130226   3.632   6.539  14.256  1.1175 -1.1356  0.2910
 2937TIP3    H230227   3.602   6.514  14.403 -1.5032 -3.1207 -0.5133
 2938TIP3   OH230228   3.959   4.973   5.722 -0.0723 -0.0141  0.1958
 2938TIP3    H130229   3.956   5.025   5.641 -2.3348  0.5938  0.6064
 2938TIP3    H230230   3.887   4.910   5.713  0.3602 -0.6900  1.2728
 2939TIP3   OH230231   3.752   5.674  15.240 -0.4732  0.5048  0.2614
 2939TIP3    H130232   3.829   5.653  15.188 -1.1117 -0.5950 -0.2919
 2939TIP3    H230233   3.690   5.603  15.221 -1.1315  0.6429  1.7067
 2940TIP3   OH230234   6.124   0.122   9.895  0.1457 -0.0798  0.1864
 2940TIP3    H130235   6.071   0.044   9.881  1.3323 -0.5541 -2.2706
 2940TIP3    H230236   6.101   0.179   9.821  0.0182  1.5149  1.3982
 2941TIP3   OH230237   2.519   4.620  10.546 -0.2446 -0.3918 -0.4062
 2941TIP3    H130238   2.507   4.528  10.525  1.4353 -0.6701 -0.2452
 2941TIP3    H230239   2.613   4.630  10.562 -0.3270  1.4095 -0.7513
 2942TIP3   OH230240   1.185   1.838  13.376 -0.2168  0.4205  0.5194
 2942TIP3    H130241   1.226   1.789  13.447  0.9807  0.4138 -0.1470
 2942TIP3    H230242   1.230   1.808  13.297 -0.4417  1.5714 -0.0677
 2943TIP3   OH230243   5.195   5.054  10.981  0.2674 -0.3857 -0.0109
 2943TIP3    H130244   5.139   5.104  11.039 -0.8830  1.2740 -2.4142
 2943TIP3    H230245   5.253   5.119  10.940  2.5081 -1.7686  0.7661
 2944TIP3   OH230246   2.147   2.010   0.195  0.7885 -0.1215 -0.3821
 2944TIP3    H130247   2.074   2.055   0.152 -1.4330 -1.7085  1.4613
 2944TIP3    H230248   2.190   2.078   0.247  0.1240  0.6952 -0.8667
 2945TIP3   OH230249   0.307   0.801   2.077 -0.0821 -0.3714 -0.0261
 2945TIP3    H130250   0.319   0.719   2.031 -0.5229 -0.8269  0.6524
 2945TIP3    H230251   0.392   0.844   2.074  0.2442 -1.0183 -0.0707
 2946TIP3   OH230252   0.087   6.674   1.616 -0.6320  0.0471 -0.6664
 2946TIP3    H130253   0.094   6.648   1.525 -0.0700 -2.0585 -0.0738
 2946TIP3    H230254   0.000   6.644   1.644 -0.2322 -0.6679 -0.1435
 2947TIP3   OH230255   2.816   7.016  12.028 -0.2889  0.3461 -0.3585
 2947TIP3    H130256   2.905   7.049  12.039 -1.0212  1.7114  2.1325
 2947TIP3    H230257   2.760   7.087  12.058 -2.2169 -0.7894 -1.0757
 2948TIP3   OH230258   6.423   2.156  11.709 -0.0135 -0.1188  0.3282
 2948TIP3    H130259   6.509   2.118  11.728  0.2745 -1.1013 -2.4237
 2948TIP3    H230260   6.439   2.250  11.702  0.7993 -0.2697  0.0949
 2949TIP3   OH230261   1.529   0.432   9.270 -0.5346 -0.2212 -0.8083
 2949TIP3    H130262   1.602   0.371   9.280  0.1395  0.7151  0.1883
 2949TIP3    H230263   1.545   0.475   9.186 -0.6579 -0.9380 -1.2039
 2950TIP3   OH230264   5.256   5.752  10.142  0.1429  0.1056 -1.0089
 2950TIP3    H130265   5.209   5.727  10.221  2.0019 -0.2661  0.0270
 2950TIP3    H230266   5.224   5.692  10.075 -0.6154 -0.3413 -0.2607
 2951TIP3   OH230267   6.178   6.014   9.869  0.2203 -0.0343  0.7342
 2951TIP3    H130268   6.169   5.926   9.833  0.7835  0.1893  0.0132
 2951TIP3    H230269   6.101   6.025   9.925 -0.3000 -0.6685  0.1613
 2952TIP3   OH230270   5.973   1.035   9.508 -0.6453  0.2793  0.6696
 2952TIP3    H130271   5.972   1.068   9.418  0.5306  0.2280  0.6322
 2952TIP3    H230272   5.934   1.106   9.559 -1.4173  0.2670  0.1239
 2953TIP3   OH230273   6.961   1.159   9.315  0.2355 -0.2411 -0.4359
 2953TIP3    H130274   6.893   1.139   9.380  0.9359 -1.0626  0.0512
 2953TIP3    H230275   6.919   1.140   9.230 -0.1831 -0.6201 -0.1482
 2954TIP3   OH230276   0.556   4.210  14.083 -0.1233  0.0165 -0.3381
 2954TIP3    H130277   0.542   4.223  13.990 -0.9317  2.8457  0.0764
 2954TIP3    H230278   0.648   4.233  14.098  0.3923 -1.7487 -0.5757
 2955TIP3   OH230279   1.821   4.967  10.824 -0.1512 -0.1832 -0.1820
 2955TIP3    H130280   1.811   4.995  10.915 -0.5749 -1.4525  0.1943
 2955TIP3    H230281   1.745   5.004  10.779 -1.0730 -1.2105  0.4472
 2956TIP3   OH230282   6.886   6.816  13.198 -0.6990 -0.6676  0.1335
 2956TIP3    H130283   6.823   6.842  13.131 -0.3114 -0.6686 -0.2385
 2956TIP3    H230284   6.837   6.757  13.256 -1.5194  0.6868  0.8542
 2957TIP3   OH230285   3.657   0.447  13.454  0.3703  0.3413 -0.2962
 2957TIP3    H130286   3.641   0.449  13.548 -0.8367  0.6220 -0.5009
 2957TIP3    H230287   3.697   0.531  13.434 -3.6092  2.3687 -0.7232
 2958TIP3   OH230288   6.941   3.718  13.259  0.3432 -0.0591  0.2331
 2958TIP3    H130289   7.015   3.735  13.202  0.1291  0.0101 -0.0264
 2958TIP3    H230290   6.960   3.767  13.339 -0.1588  1.2643 -0.4174
 2959TIP3   OH230291   4.356   0.261  14.407  0.2953 -0.0271  0.1948
 2959TIP3    H130292   4.409   0.187  14.380 -1.3424 -1.5805  1.0131
 2959TIP3    H230293   4.369   0.267  14.502 -1.4313 -0.8682  0.5231
 2960TIP3   OH230294   3.699   6.003   9.459 -0.6359 -0.0437 -0.2597
 2960TIP3    H130295   3.681   6.007   9.365 -1.1532 -0.3131 -0.1797
 2960TIP3    H230296   3.794   6.007   9.466 -0.6560  2.0389 -0.6706
 2961TIP3   OH230297   1.269   4.666   9.564  0.1620 -0.2543  0.4125
 2961TIP3    H130298   1.305   4.582   9.591  0.8937 -0.4570 -1.0837
 2961TIP3    H230299   1.335   4.730   9.588 -0.3577 -0.1002  1.4743
 2962TIP3   OH230300   4.416   1.065  12.732 -0.4981  0.2022  0.2536
 2962TIP3    H130301   4.444   0.974  12.722 -0.7502  0.2074 -0.6507
 2962TIP3    H230302   4.332   1.059  12.778 -0.7181 -0.0577 -0.1712
 2963TIP3   OH230303   4.990   7.026  11.147 -0.0016 -0.8144  0.1513
 2963TIP3    H130304   5.015   6.944  11.190 -1.1101 -1.1062  0.2640
 2963TIP3    H230305   4.895   7.023  11.143 -0.1945  1.2431  1.6911
 2964TIP3   OH230306   2.854   4.167  12.371  0.2735  0.2155 -0.3258
 2964TIP3    H130307   2.903   4.090  12.399 -0.2789  0.0959  0.3344
 2964TIP3    H230308   2.880   4.180  12.279  1.6206  0.2411  0.0434
 2965TIP3   OH230309   4.221   1.725  13.606 -0.0794 -0.2766  0.5074
 2965TIP3    H130310   4.278   1.760  13.537 -1.6328  2.4666  0.4925
 2965TIP3    H230311   4.160   1.668  13.559 -0.0449  0.2026 -0.1373
 2966TIP3   OH230312   0.373   6.503  13.149  0.1734 -0.8189 -0.1265
 2966TIP3    H130313   0.285   6.472  13.168 -0.1067 -0.5476 -0.9466
 2966TIP3    H230314   0.384   6.581  13.204 -0.9968  0.5490 -1.7246
 2967TIP3   OH230315   5.433   0.491  11.827 -0.5891  0.0086 -0.3047
 2967TIP3    H130316   5.509   0.510  11.882 -1.1946 -0.3930  0.6972
 2967TIP3    H230317   5.401   0.406  11.858 -1.5498  0.2542 -0.5829
 2968TIP3   OH230318   3.821   1.431  13.008  0.1961 -0.1219 -0.2644
 2968TIP3    H130319   3.901   1.392  13.045  1.4677  1.5013 -1.1265
 2968TIP3    H230320   3.798   1.500  13.070 -0.9025 -0.9487  0.2682
 2969TIP3   OH230321   2.805   5.734  11.507  0.0691 -0.2177  0.0360
 2969TIP3    H130322   2.834   5.793  11.576  3.1990 -1.5376 -0.0080
 2969TIP3    H230323   2.778   5.792  11.435  0.6572  1.1585  0.8933
 2970TIP3   OH230324   0.890   4.953   9.588  0.0471 -0.4123  0.1208
 2970TIP3    H130325   0.964   4.975   9.531  1.6739 -2.5863  1.2445
 2970TIP3    H230326   0.909   4.864   9.619 -0.4018  0.7962  4.5122
 2971TIP3   OH230327   2.552   0.834  11.504  0.3147 -0.0614 -0.1493
 2971TIP3    H130328   2.638   0.816  11.467  0.7885  2.3177 -0.3898
 2971TIP3    H230329   2.513   0.899  11.444 -1.6707 -1.0817 -0.0538
 2972TIP3   OH230330   3.443   4.430  14.101 -0.2117 -0.1870 -0.5930
 2972TIP3    H130331   3.411   4.369  14.168  0.5381 -0.7335 -0.7183
 2972TIP3    H230332   3.442   4.380  14.020  3.0043 -1.0252 -0.2737
 2973TIP3   OH230333   4.685   4.072  13.754 -0.2153  0.5314 -0.6038
 2973TIP3    H130334   4.638   4.066  13.838  1.4828  0.1729  0.3528
 2973TIP3    H230335   4.769   4.030  13.770  0.9599  2.2316 -1.9022
 2974TIP3   OH230336   3.610   1.712  14.771  0.2641  0.1613 -0.5659
 2974TIP3    H130337   3.654   1.709  14.687 -1.6073 -0.3899 -1.5895
 2974TIP3    H230338   3.573   1.801  14.775 -0.3045 -0.0621 -0.7089
 2975TIP3   OH230339   5.533   0.021  10.474  0.5329 -0.0798 -0.0882
 2975TIP3    H130340   5.587  -0.052  10.444  1.6117  1.0426 -0.9657
 2975TIP3    H230341   5.593   0.095  10.480 -0.5335  0.7517  0.7775
 2976TIP3   OH230342   2.513   0.396  12.459 -0.6472 -0.2048 -0.4549
 2976TIP3    H130343   2.548   0.376  12.546 -0.0560  1.4298 -0.2770
 2976TIP3    H230344   2.438   0.453  12.476 -0.5529  0.0886 -1.0158
 2977TIP3   OH230345   4.229   1.935  11.896  0.1418 -0.3181  0.5902
 2977TIP3    H130346   4.167   1.928  11.824 -0.2171  3.2464  0.3726
 2977TIP3    H230347   4.312   1.906  11.859 -0.3263  0.0392 -0.8097
 2978TIP3   OH230348   5.960   0.288  12.784 -0.1904  0.0267  0.1521
 2978TIP3    H130349   5.872   0.300  12.821  0.2945  1.3119  0.9533
 2978TIP3    H230350   5.963   0.195  12.760 -1.9423  0.0709 -0.3893
 2979TIP3   OH230351   3.615   5.334  11.004 -0.0859  0.7103  0.0955
 2979TIP3    H130352   3.702   5.301  11.025 -0.7235 -0.4383  1.0719
 2979TIP3    H230353   3.560   5.304  11.076 -1.6664 -0.1939 -1.3981
 2980TIP3   OH230354   6.768   6.381  15.119  0.4812  0.0142 -0.3297
 2980TIP3    H130355   6.856   6.389  15.157  0.7144 -0.3111 -0.7927
 2980TIP3    H230356   6.783   6.380  15.024  0.1459 -1.8878 -0.3979
 2981TIP3   OH230357   5.244   2.271  10.597 -0.4996  0.0826 -0.0252
 2981TIP3    H130358   5.316   2.209  10.584 -2.8013 -3.1695  1.3547
 2981TIP3    H230359   5.167   2.226  10.562 -2.7210  1.0810  3.1056
 2982TIP3   OH230360   0.037   4.290  13.681  0.0239 -0.4271  0.6745
 2982TIP3    H130361  -0.038   4.349  13.674 -0.9318 -1.4343  1.8783
 2982TIP3    H230362   0.035   4.239  13.600  1.1346  1.4307 -0.5953
 2983TIP3   OH230363   0.019   5.036   1.393 -0.3134  0.5048  0.5519
 2983TIP3    H130364  -0.014   5.019   1.305  0.6916  1.3682 -0.0123
 2983TIP3    H230365  -0.050   5.005   1.451  0.2833 -3.0840 -0.3984
 2984TIP3   OH230366   6.128   5.573  10.103 -0.4901 -0.2019 -0.0889
 2984TIP3    H130367   6.079   5.652  10.083 -0.2425 -0.4192 -1.6851
 2984TIP3    H230368   6.173   5.592  10.185 -1.2909  0.8994  0.1107
 2985TIP3   OH230369   4.627   2.891  11.739  0.9274  0.1085 -0.2775
 2985TIP3    H130370   4.693   2.943  11.785 -0.0437 -0.8523  2.3846
 2985TIP3    H230371   4.674   2.812  11.712  0.7959 -0.9683  2.3550
 2986TIP3   OH230372   3.531   0.968   0.140  0.2573  0.2183  0.0934
 2986TIP3    H130373   3.498   0.987   0.228 -0.5003  0.1411 -0.1624
 2986TIP3    H230374   3.567   0.879   0.147  1.0275  0.5595  0.5409
 2987TIP3   OH230375   5.729   2.065  10.305 -0.3180  0.0020 -0.3591
 2987TIP3    H130376   5.685   1.987  10.337 -0.4646  0.4363  0.5238
 2987TIP3    H230377   5.771   2.037  10.224 -2.7075 -0.2974 -1.6066
 2988TIP3   OH230378   0.394   1.935   0.177 -0.8606  0.4954  0.5993
 2988TIP3    H130379   0.484   1.954   0.153 -0.5300 -1.5017  0.0442
 2988TIP3    H230380   0.341   1.997   0.126  0.1670  1.4902  0.7162
 2989TIP3   OH230381   6.473   6.055  12.858 -0.0950  0.6929  0.0517
 2989TIP3    H130382   6.547   6.030  12.913 -0.6426  0.5214  0.7255
 2989TIP3    H230383   6.502   6.132  12.810  1.2123 -0.4817 -1.1533
 2990TIP3   OH230384   5.893   5.780  14.121 -0.2822  0.1636 -0.7795
 2990TIP3    H130385   5.969   5.809  14.172 -0.8927 -0.1627  0.3572
 2990TIP3    H230386   5.880   5.689  14.146 -3.0096  1.0476  1.6984
 2991TIP3   OH230387   0.455   3.222   9.954 -0.0923  0.0852  0.9331
 2991TIP3    H130388   0.535   3.170   9.947  0.9466  1.7495 -0.2185
 2991TIP3    H230389   0.472   3.300   9.901 -2.3558  0.6598  0.9524
 2992TIP3   OH230390   3.362   6.123   9.355  0.4283  0.2193  0.1736
 2992TIP3    H130391   3.436   6.063   9.367  1.4174  1.2720 -0.4767
 2992TIP3    H230392   3.286   6.066   9.347  1.4454 -1.0245 -1.2779
 2993TIP3   OH230393   1.147   2.697  11.499  0.2331 -0.1890 -0.3464
 2993TIP3    H130394   1.209   2.669  11.432 -1.4026 -3.4562 -0.6844
 2993TIP3    H230395   1.144   2.623  11.560 -3.1054 -0.1048 -0.2450
 2994TIP3   OH230396   2.963   7.209  11.584 -0.1288  0.0925  0.5286
 2994TIP3    H130397   3.025   7.153  11.630 -0.5140  0.3142  1.3365
 2994TIP3    H230398   2.931   7.269  11.651 -0.1929  0.8707 -0.1842
 2995TIP3   OH230399   3.072   1.706  13.235 -0.0207 -0.2003 -0.3135
 2995TIP3    H130400   3.112   1.737  13.316  1.3110  0.6757 -1.2643
 2995TIP3    H230401   2.987   1.751  13.232 -0.0771 -0.2248  0.5667
 2996TIP3   OH230402   0.851   3.790  12.711 -0.5964  0.0983  0.0076
 2996TIP3    H130403   0.789   3.772  12.782 -0.5653 -0.0457 -0.0010
 2996TIP3    H230404   0.796   3.803  12.634 -0.7138  1.5950  0.3185
 2997TIP3   OH230405   7.006   1.848   9.913  0.2948  0.1957 -0.2642
 2997TIP3    H130406   7.026   1.940   9.932  2.4746 -0.2133 -0.3417
 2997TIP3    H230407   6.971   1.814   9.995 -0.1849  0.9871 -0.1242
 2998TIP3   OH230408   3.798   3.592  12.429 -0.1771  0.3466 -0.1070
 2998TIP3    H130409   3.713   3.633  12.448 -0.1190 -0.2045  1.5081
 2998TIP3    H230410   3.835   3.574  12.515  1.9476  1.2774 -0.7744
 2999TIP3   OH230411   7.126   6.232  11.268 -0.1088  0.3394 -0.6511
 2999TIP3    H130412   7.207   6.250  11.222 -0.9577  1.1672 -1.8916
 2999TIP3    H230413   7.057   6.254  11.205 -1.2908 -0.7935  0.1977
 3000TIP3   OH230414   5.915   7.155   9.398 -0.5157 -0.2340 -0.4773
 3000TIP3    H130415   6.002   7.115   9.390  0.0046  0.7610 -0.0331
 3000TIP3    H230416   5.895   7.188   9.311 -2.0131 -3.4493 -1.5034
 3001TIP3   OH230417   6.765   2.334  14.964  0.4632  0.1167 -0.1690
 3001TIP3    H130418   6.720   2.326  15.048  2.8698 -1.3215  1.0864
 3001TIP3    H230419   6.696   2.330  14.899 -1.5979  2.1848  1.7018
 3002TIP3   OH230420   3.487   6.489  14.753  0.1872  0.1844  0.3054
 3002TIP3    H130421   3.514   6.581  14.755 -0.0054  0.2427  0.2113
 3002TIP3    H230422   3.439   6.479  14.671 -0.1817  0.1108  0.5281
 3003TIP3   OH230423   6.530   6.180   3.334 -0.4058 -0.2370  0.0952
 3003TIP3    H130424   6.441   6.210   3.354 -0.0546 -0.4708  2.3284
 3003TIP3    H230425   6.586   6.255   3.357  0.0790 -0.6783  0.3870
 3004TIP3   OH230426   5.779   2.112  11.889  0.2230 -0.2306 -0.6362
 3004TIP3    H130427   5.715   2.149  11.950  0.5740  0.3572 -0.6211
 3004TIP3    H230428   5.853   2.086  11.945  0.6591  0.5558 -0.8246
 3005TIP3   OH230429   2.508   4.550  11.672 -0.0785 -0.0097 -0.1969
 3005TIP3    H130430   2.548   4.630  11.705  0.9046 -0.2470 -0.7835
 3005TIP3    H230431   2.552   4.534  11.588 -0.8306 -0.7251 -0.4643
 3006TIP3   OH230432   1.538   6.024  10.272 -0.0494 -0.4180  0.1175
 3006TIP3    H130433   1.496   6.105  10.243 -0.5579 -0.2955  1.1360
 3006TIP3    H230434   1.531   6.027  10.368  0.5690 -1.3220  0.2003
 3007TIP3   OH230435   5.299   1.364  11.450  0.0746  0.1347  0.5407
 3007TIP3    H130436   5.367   1.430  11.461  0.9945 -0.7046 -0.0100
 3007TIP3    H230437   5.296   1.347  11.356 -1.9981  1.2757  0.3354
 3008TIP3   OH230438   2.976   6.268   9.405  0.0149 -0.3147  0.1861
 3008TIP3    H130439   2.881   6.267   9.393 -0.0772 -1.3502  0.9357
 3008TIP3    H230440   2.998   6.180   9.436  1.2018 -0.0432  0.1699
 3009TIP3   OH230441   4.970   4.308  13.894 -0.0783  0.1802 -0.2306
 3009TIP3    H130442   5.056   4.266  13.900  0.4737  1.4245  1.1666
 3009TIP3    H230443   4.963   4.335  13.803  1.3870  0.7946 -0.1897
 3010TIP3   OH230444   4.459   6.671  10.414  0.3166 -0.0995  0.3847
 3010TIP3    H130445   4.541   6.719  10.400 -0.0998  0.1678 -1.4317
 3010TIP3    H230446   4.487   6.581  10.427  0.9750  0.2268  1.3663
 3011TIP3   OH230447   2.826   0.058  13.156 -0.2501 -0.3751  0.2638
 3011TIP3    H130448   2.820  -0.008  13.225 -0.8347  0.4108  0.9932
 3011TIP3    H230449   2.767   0.128  13.185 -0.0825  0.2129 -0.7697
 3012TIP3   OH230450   2.224   6.755  10.753  0.0796  0.3252 -0.7544
 3012TIP3    H130451   2.202   6.726  10.842 -0.9231  1.2719 -0.6748
 3012TIP3    H230452   2.158   6.713  10.698 -0.1405  0.8297 -0.8790
 3013TIP3   OH230453   5.660   2.240  13.488  0.2816  0.0328  0.2210
 3013TIP3    H130454   5.680   2.238  13.582  0.6436 -0.2709  0.1372
 3013TIP3    H230455   5.609   2.321  13.477  0.0527 -0.0379  0.7124
 3014TIP3   OH230456   5.317   6.554  12.428  0.3848  0.3965 -0.0993
 3014TIP3    H130457   5.389   6.612  12.404  0.3160  0.7499  0.5146
 3014TIP3    H230458   5.353   6.465  12.416  0.2853  0.5385 -1.6354
 3015TIP3   OH230459   4.731   5.020  10.703  0.4900 -0.2974 -0.0925
 3015TIP3    H130460   4.801   4.962  10.673  2.8674 -0.1425  4.3506
 3015TIP3    H230461   4.731   5.092  10.640  2.6881 -1.4600 -1.5673
 3016TIP3   OH230462   3.148   5.582  11.203 -0.5498  0.8447  1.1192
 3016TIP3    H130463   3.228   5.550  11.246 -0.1718  3.5386  2.6783
 3016TIP3    H230464   3.078   5.560  11.264 -0.6642  0.6071  0.9030
 3017TIP3   OH230465   6.473   4.912  11.082 -0.0698  0.4966  0.4011
 3017TIP3    H130466   6.531   4.837  11.067  1.5488  1.5852  0.9515
 3017TIP3    H230467   6.461   4.950  10.995 -0.5146 -0.1006  0.1892
 3018TIP3   OH230468   2.341   6.907  11.674  0.3006  0.1360 -0.3154
 3018TIP3    H130469   2.296   6.898  11.590  2.0228 -0.0379 -1.2721
 3018TIP3    H230470   2.291   6.851  11.734 -0.6637 -0.1352 -1.3360
 3019TIP3   OH230471   2.342   2.234  10.664 -0.4994  0.0710 -0.4639
 3019TIP3    H130472   2.400   2.255  10.737 -0.6979 -0.8966 -0.0112
 3019TIP3    H230473   2.361   2.301  10.598  1.2489 -0.3086 -0.3928
 3020TIP3   OH230474   5.531   4.486  10.627  0.1142  0.5252 -0.2407
 3020TIP3    H130475   5.610   4.477  10.574  1.4734 -3.6242  2.0167
 3020TIP3    H230476   5.466   4.432  10.582  0.2216 -0.2416  0.4963
 3021TIP3   OH230477   2.034   6.822  14.567 -0.0870  0.3464  0.5536
 3021TIP3    H130478   2.060   6.818  14.659  0.9626 -0.6808  0.2388
 3021TIP3    H230479   1.995   6.736  14.549  0.5979  0.1768 -0.1967
 3022TIP3   OH230480   4.554   5.699  14.606  0.4090  0.0691 -0.4209
 3022TIP3    H130481   4.644   5.669  14.590  0.4892 -0.4524  0.8782
 3022TIP3    H230482   4.509   5.622  14.641 -0.4981  0.3823 -0.8590
 3023TIP3   OH230483   5.085   7.072  12.219 -0.4243  0.3999 -0.6418
 3023TIP3    H130484   5.087   7.138  12.289  1.1919  1.2947 -1.4843
 3023TIP3    H230485   5.176   7.043  12.211 -1.0173 -1.6128 -0.6406
 3024TIP3   OH230486   1.363   2.046  10.692 -0.2624  0.3643  0.0169
 3024TIP3    H130487   1.344   2.052  10.786  1.4095 -2.2835  0.6142
 3024TIP3    H230488   1.419   2.122  10.675  0.5410  0.1500  1.4978
 3025TIP3   OH230489   7.179   4.040  11.207 -0.0069 -0.3200 -0.0356
 3025TIP3    H130490   7.166   4.074  11.296  0.5261  1.3708 -0.5609
 3025TIP3    H230491   7.242   3.969  11.218 -0.9183 -0.9845  1.0864
 3026TIP3   OH230492   4.141   4.521   1.248  0.3722 -0.1854 -0.0107
 3026TIP3    H130493   4.045   4.519   1.249  0.3479  0.7375 -0.1738
 3026TIP3    H230494   4.165   4.558   1.332  0.5542  0.5138 -0.3670
 3027TIP3   OH230495   2.410   1.486  11.679 -0.6649 -0.1528  0.2620
 3027TIP3    H130496   2.375   1.403  11.710  0.7393 -0.6921  0.4746
 3027TIP3    H230497   2.498   1.491  11.716  0.3177  0.1473 -1.9382
 3028TIP3   OH230498   6.687   4.502  14.092  0.0160 -0.0450 -0.0368
 3028TIP3    H130499   6.666   4.589  14.126  1.8359  0.3071  0.3209
 3028TIP3    H230500   6.637   4.495  14.011 -0.2443  1.3055 -0.0198
 3029TIP3   OH230501   1.549   6.125  13.513 -0.1014 -0.2421  0.3815
 3029TIP3    H130502   1.640   6.102  13.534  0.1626  0.7027  0.3397
 3029TIP3    H230503   1.555   6.215  13.480 -1.1468  0.0959  1.0867
 3030TIP3   OH230504   2.523   6.121  11.387  0.5020  0.2766 -0.1812
 3030TIP3    H130505   2.566   6.037  11.369  1.6383  0.2460  2.4123
 3030TIP3    H230506   2.488   6.112  11.475 -0.8771  1.9584 -0.5028
 3031TIP3   OH230507   0.209   1.734  12.010  0.2601  0.1786  0.2815
 3031TIP3    H130508   0.132   1.760  12.061 -0.8591  0.6492 -1.5632
 3031TIP3    H230509   0.281   1.737  12.073 -0.8110  2.0583  1.5233
 3032TIP3   OH230510   6.259   2.368  13.068 -0.3136 -0.2323 -0.4198
 3032TIP3    H130511   6.335   2.412  13.031 -0.4086 -1.2810 -1.9186
 3032TIP3    H230512   6.293   2.318  13.142  0.2763  0.1229 -0.4504
 3033TIP3   OH230513   5.802   0.861  12.895 -0.6741  0.0850 -0.0209
 3033TIP3    H130514   5.766   0.923  12.958 -1.2259  0.5196 -0.7558
 3033TIP3    H230515   5.874   0.909  12.854 -1.0154  0.1965 -0.4932
 3034TIP3   OH230516   0.521   1.494  11.673 -0.0054 -0.3258  0.2939
 3034TIP3    H130517   0.595   1.532  11.625 -0.4544  0.1556 -0.0162
 3034TIP3    H230518   0.550   1.495  11.765  0.8034 -1.1389  0.0588
 3035TIP3   OH230519   2.550   1.777  11.397  0.3744 -0.4208  0.1166
 3035TIP3    H130520   2.478   1.818  11.445  1.0849  1.3200 -0.2219
 3035TIP3    H230521   2.621   1.772  11.460  1.6559  2.8234 -0.8493
 3036TIP3   OH230522   4.286   6.323  14.931  0.7108  0.3340  0.0756
 3036TIP3    H130523   4.233   6.298  15.006  0.5781 -0.5689 -0.3033
 3036TIP3    H230524   4.367   6.273  14.941  1.0982  0.9573  0.1292
 3037TIP3   OH230525   6.238   4.407  13.746 -0.0943 -0.8013  0.1531
 3037TIP3    H130526   6.305   4.429  13.682  0.1991 -1.2806  0.2900
 3037TIP3    H230527   6.165   4.372  13.695  0.0749 -1.0279  0.0683
 3038TIP3   OH230528   3.391   0.158  12.260 -0.0647 -0.4957 -0.4722
 3038TIP3    H130529   3.415   0.138  12.351 -2.5441 -1.1716  0.1087
 3038TIP3    H230530   3.375   0.252  12.259 -2.6274 -0.8441  0.5492
 3039TIP3   OH230531   1.958   3.720  13.107 -0.3100  0.4743 -0.2425
 3039TIP3    H130532   1.935   3.729  13.200  0.6775 -1.1337  0.2006
 3039TIP3    H230533   1.985   3.628  13.098  0.2476  0.7765 -1.9817
 3040TIP3   OH230534   6.710   7.050   9.407  0.2832 -0.1937 -0.3773
 3040TIP3    H130535   6.679   7.069   9.318  0.2612  0.9309 -0.1428
 3040TIP3    H230536   6.798   7.087   9.411  0.2094 -0.0685  0.1356
 3041TIP3   OH230537   4.026   0.862  10.701 -0.2192 -0.3278  0.3468
 3041TIP3    H130538   3.974   0.788  10.671  0.5604 -1.9475  2.6402
 3041TIP3    H230539   3.963   0.917  10.749 -0.5301 -0.2724 -0.1211
 3042TIP3   OH230540   5.355   6.149   9.097 -0.3183 -0.3292 -0.3593
 3042TIP3    H130541   5.421   6.208   9.059  0.8298 -0.6184  1.0754
 3042TIP3    H230542   5.315   6.200   9.168 -1.0180 -0.4679 -0.6482
 3043TIP3   OH230543   0.979   6.610   9.696  0.0369  0.0285  0.5696
 3043TIP3    H130544   1.062   6.584   9.735  1.2664  0.7252 -1.4169
 3043TIP3    H230545   0.945   6.679   9.753  0.3731 -0.8518  1.8594
 3044TIP3   OH230546   0.255   3.384  10.054 -0.0114 -0.5816 -0.2519
 3044TIP3    H130547   0.322   3.399  10.121  1.4208 -0.8829 -1.5553
 3044TIP3    H230548   0.275   3.297  10.019 -2.2818 -1.5326  0.6082
 3045TIP3   OH230549   5.149   1.153  13.097 -0.5456 -0.2163 -0.0011
 3045TIP3    H130550   5.138   1.136  13.190 -0.7341 -0.5686 -0.0870
 3045TIP3    H230551   5.060   1.157  13.062 -0.5682  1.8361  0.1624
 3046TIP3   OH230552   4.727   6.728  10.420  0.1674  0.1157  0.2191
 3046TIP3    H130553   4.737   6.787  10.494  1.0832 -1.6053  1.5519
 3046TIP3    H230554   4.783   6.765  10.352 -0.4470  1.5592  0.4662
 3047TIP3   OH230555   4.429   2.980   0.979 -0.3648  0.6170  0.0095
 3047TIP3    H130556   4.441   3.070   0.949  1.3214  0.5680  0.4701
 3047TIP3    H230557   4.461   2.979   1.069  1.0012 -0.7307 -0.4434
 3048TIP3   OH230558   6.240   6.919   9.963 -0.6214 -0.2459  0.3524
 3048TIP3    H130559   6.168   6.875   9.919 -0.5729 -0.2884  0.3160
 3048TIP3    H230560   6.265   6.860  10.034 -0.5244 -0.2993  0.2736
 3049TIP3   OH230561   6.726   6.209   9.822 -0.4243  0.1051  0.0793
 3049TIP3    H130562   6.636   6.240   9.819 -0.0288  1.3560  0.4279
 3049TIP3    H230563   6.751   6.199   9.730  0.5373  4.3424 -0.2923
 3050TIP3   OH230564   5.221   6.784  14.644  0.4680 -0.3551 -0.2436
 3050TIP3    H130565   5.221   6.688  14.651 -0.5916 -0.2545  2.0864
 3050TIP3    H230566   5.132   6.809  14.666  1.0250  1.2300  0.3153
 3051TIP3   OH230567   6.345   1.266   9.851  0.0302  0.4281  0.2375
 3051TIP3    H130568   6.408   1.229   9.789 -0.8817 -1.9412  0.6086
 3051TIP3    H230569   6.398   1.309   9.918  1.1420  0.2852 -0.5317
 3052TIP3   OH230570   2.858   0.677  12.737  0.0176 -0.3480  0.2846
 3052TIP3    H130571   2.798   0.731  12.685 -1.0708 -1.6447  0.1196
 3052TIP3    H230572   2.850   0.590  12.698  4.4294 -0.0758 -1.8582
 3053TIP3   OH230573   3.013   0.088  10.193 -0.5159 -0.0854  0.6075
 3053TIP3    H130574   3.071   0.161  10.215 -0.2582 -0.1761  0.2487
 3053TIP3    H230575   3.049   0.014  10.242 -0.3667 -0.1269  0.4356
 3054TIP3   OH230576   5.003   2.558  12.369 -0.3265  0.1793  0.4039
 3054TIP3    H130577   5.062   2.617  12.416 -0.1723  1.9207 -1.8255
 3054TIP3    H230578   5.060   2.494  12.327  0.3478  2.6774 -2.9112
 3055TIP3   OH230579   2.983   6.541   9.536  0.4545 -0.2080 -0.5119
 3055TIP3    H130580   3.004   6.476   9.469 -1.8237 -0.2725 -1.2645
 3055TIP3    H230581   3.055   6.604   9.532  0.6853 -0.5353 -2.6490
 3056TIP3   OH230582   2.387   7.203   1.070  0.0022 -0.6593 -0.4589
 3056TIP3    H130583   2.466   7.164   1.031 -0.4308 -2.3170  0.2346
 3056TIP3    H230584   2.376   7.156   1.152 -0.6625  0.8802  0.3634
 3057TIP3   OH230585   2.012   6.685  10.117  0.5309  0.7389 -0.4782
 3057TIP3    H130586   2.027   6.623  10.045 -0.0711 -2.4973  1.9817
 3057TIP3    H230587   2.080   6.752  10.104  2.9625 -1.7578 -1.9117
 3058TIP3   OH230588   6.048   1.999  10.329  0.2340  0.0921 -0.3802
 3058TIP3    H130589   6.026   2.077  10.278 -0.8669  1.0354  1.4206
 3058TIP3    H230590   5.999   1.928  10.287  1.6430  0.2140 -2.3393
 3059TIP3   OH230591   0.269   3.807   9.974  0.2591 -0.8503  0.1227
 3059TIP3    H130592   0.336   3.869  10.003  0.2553 -1.5075  1.6451
 3059TIP3    H230593   0.305   3.767   9.895  0.7535  0.2695 -0.2285
 3060TIP3   OH230594   2.783   4.791  15.255 -0.1872  0.0056  0.2263
 3060TIP3    H130595   2.697   4.820  15.223 -0.5105 -2.4632 -1.4809
 3060TIP3    H230596   2.769   4.773  15.348 -1.1194  0.9961  0.3023
 3061TIP3   OH230597   2.482   2.265  12.352 -0.1695 -0.2748  0.2058
 3061TIP3    H130598   2.516   2.345  12.312 -0.9159 -0.6517 -1.2637
 3061TIP3    H230599   2.400   2.291  12.394 -1.4449 -0.5740 -1.9521
 3062TIP3   OH230600   5.036   1.405  14.869 -0.8460 -0.0019 -0.0001
 3062TIP3    H130601   5.117   1.403  14.919 -2.1647  1.4428  2.4235
 3062TIP3    H230602   5.022   1.315  14.841  2.1794 -0.0797 -1.6546
 3063TIP3   OH230603   6.322   4.110   9.908  0.1489  0.5034 -0.4392
 3063TIP3    H130604   6.380   4.176   9.870 -0.0190  0.8875 -0.0391
 3063TIP3    H230605   6.371   4.028   9.901  1.8417  1.1728  2.1455
 3064TIP3   OH230606   0.033   2.158  10.911  0.0983 -0.0262  0.0150
 3064TIP3    H130607   0.063   2.226  10.972  0.0205  1.0681 -1.1187
 3064TIP3    H230608  -0.050   2.128  10.947 -0.2561  1.0575  0.1391
 3065TIP3   OH230609   0.991   0.861  14.774 -0.2285 -1.0533  0.4951
 3065TIP3    H130610   1.041   0.869  14.855  1.0237 -0.9077 -0.2594
 3065TIP3    H230611   0.917   0.805  14.796 -0.5626 -0.0523  2.0194
 3066TIP3   OH230612   6.112   6.425  11.753 -0.3512  0.2949  0.1863
 3066TIP3    H130613   6.150   6.497  11.703  1.1215  0.5049  1.5404
 3066TIP3    H230614   6.068   6.468  11.826  0.2548 -0.1609  0.8206
 3067TIP3   OH230615   3.222   6.578  11.880 -0.3028  0.2502  0.6812
 3067TIP3    H130616   3.276   6.603  11.955  2.7790 -0.4407 -1.1302
 3067TIP3    H230617   3.284   6.572  11.807 -2.9823 -0.0467 -1.7372
 3068TIP3   OH230618   4.532   4.331  11.701 -0.6392  0.1417  0.0318
 3068TIP3    H130619   4.532   4.236  11.706 -1.1568  0.1156 -0.3792
 3068TIP3    H230620   4.596   4.352  11.633  0.1928  0.1323  0.8065
 3069TIP3   OH230621   2.828   4.180  10.447  0.0840 -0.4052 -0.1409
 3069TIP3    H130622   2.915   4.144  10.461  0.0920 -0.1834  0.3929
 3069TIP3    H230623   2.803   4.217  10.532 -0.3125 -0.0007 -0.4290
 3070TIP3   OH230624   6.724   7.034  11.346  0.2045 -0.4046 -0.4390
 3070TIP3    H130625   6.769   6.957  11.381 -0.8920 -0.9528 -0.1922
 3070TIP3    H230626   6.686   7.077  11.422  0.4264  0.1323 -0.6281
 3071TIP3   OH230627   4.307   6.965  10.216 -0.1669  0.5429 -0.2972
 3071TIP3    H130628   4.247   7.006  10.154 -0.9774  0.9472  0.7223
 3071TIP3    H230629   4.374   7.031  10.231  0.4331  0.1748 -1.2675
 3072TIP3   OH230630   6.210   6.339   9.170  0.0454 -0.0106 -0.7888
 3072TIP3    H130631   6.197   6.280   9.096  0.2177 -0.1348 -0.7215
 3072TIP3    H230632   6.304   6.332   9.190  0.3537  1.3483 -1.6689
 3073TIP3   OH230633   0.603   6.279  11.377 -0.0509 -0.1873  0.2086
 3073TIP3    H130634   0.659   6.201  11.381  1.4705  0.7615 -1.1253
 3073TIP3    H230635   0.650   6.344  11.430  0.0789  0.5813 -0.8105
 3074TIP3   OH230636   5.507   4.373  12.279 -0.0378  0.5385  0.2163
 3074TIP3    H130637   5.525   4.466  12.286  1.2576  0.4492 -1.3356
 3074TIP3    H230638   5.489   4.358  12.186 -1.6229 -0.5461  0.6499
 3075TIP3   OH230639   6.581   3.064  11.193  0.4118 -0.0994 -0.2534
 3075TIP3    H130640   6.674   3.082  11.204  0.4226  1.3973 -2.2729
 3075TIP3    H230641   6.576   3.004  11.119 -0.2642  0.2895 -0.5321
 3076TIP3   OH230642   4.243   4.023   0.425 -0.0396  0.6377  0.0651
 3076TIP3    H130643   4.240   3.971   0.505 -0.0693 -0.3172 -0.5380
 3076TIP3    H230644   4.155   4.014   0.387 -0.1467  1.4085  0.1262
 3077TIP3   OH230645   0.411   4.440  10.429 -0.5303  0.0218  0.4566
 3077TIP3    H130646   0.448   4.522  10.460 -0.7449  0.0155  0.7453
 3077TIP3    H230647   0.320   4.461  10.407 -0.1961  0.1740 -0.8341
 3078TIP3   OH230648   1.568   2.164  12.088 -0.3674 -0.0841 -0.0921
 3078TIP3    H130649   1.481   2.193  12.063 -0.9065 -0.8096  0.9012
 3078TIP3    H230650   1.618   2.245  12.100 -0.9443  0.3328 -0.4695
 3079TIP3   OH230651   4.944   4.836  10.614 -0.0747 -0.0503  0.1330
 3079TIP3    H130652   5.031   4.874  10.630  0.7348 -2.4230  1.9475
 3079TIP3    H230653   4.902   4.835  10.700 -1.2397 -0.4855 -0.4266
 3080TIP3   OH230654   5.772   2.241  11.592  0.3875  0.6855  0.1093
 3080TIP3    H130655   5.788   2.225  11.685  0.0553  0.3514  0.1110
 3080TIP3    H230656   5.799   2.160  11.549 -1.1722  0.1458  0.1007
 3081TIP3   OH230657   0.306   6.361  10.618  0.1678  0.1120  0.7084
 3081TIP3    H130658   0.234   6.375  10.557 -0.0661 -0.2590  0.8944
 3081TIP3    H230659   0.379   6.334  10.563 -0.2503 -0.9575  0.6541
 3082TIP3   OH230660   0.678   2.911  14.628 -0.5636 -0.2392  0.2651
 3082TIP3    H130661   0.591   2.946  14.645 -0.5885 -0.1129 -0.1026
 3082TIP3    H230662   0.671   2.873  14.540 -0.9471 -2.4764  1.1900
 3083TIP3   OH230663   4.286   0.133  10.608  0.0604 -0.5202 -0.4058
 3083TIP3    H130664   4.281   0.044  10.574  1.8461  0.0460 -2.3728
 3083TIP3    H230665   4.238   0.186  10.544 -0.5129  0.0174  0.4483
 3084TIP3   OH230666   0.782   6.050  11.638 -0.0176  0.2392  0.4750
 3084TIP3    H130667   0.873   6.054  11.609 -0.6344 -0.2129 -1.6793
 3084TIP3    H230668   0.731   6.059  11.558 -1.8764  0.1330  1.6020
 3085TIP3   OH230669   6.390   2.417  13.426 -0.7981 -0.0883 -0.2471
 3085TIP3    H130670   6.467   2.378  13.468 -0.8690 -1.1737 -1.0574
 3085TIP3    H230671   6.367   2.354  13.357 -1.8958  0.6434 -0.5692
 3086TIP3   OH230672   6.760   0.079   9.198  0.1326  0.2093  0.1184
 3086TIP3    H130673   6.711   0.145   9.149 -0.9457  0.9892  2.1318
 3086TIP3    H230674   6.835   0.127   9.235 -0.3191  0.2021  1.0836
 3087TIP3   OH230675   6.574   0.684   9.064 -0.6162  0.6492 -0.0351
 3087TIP3    H130676   6.510   0.752   9.084 -0.4472 -0.0490  3.5914
 3087TIP3    H230677   6.639   0.690   9.134  0.4911 -1.9194 -0.7001
 3088TIP3   OH230678   3.539   5.840  12.500 -0.0248  0.3557  0.1258
 3088TIP3    H130679   3.465   5.889  12.465  0.4115  1.4449  0.6881
 3088TIP3    H230680   3.528   5.842  12.595  1.8738  2.4959  0.3826
 3089TIP3   OH230681   3.965   4.124  12.934 -0.2141 -0.0932  0.3474
 3089TIP3    H130682   4.021   4.055  12.900 -0.2189 -0.0292  0.2106
 3089TIP3    H230683   3.886   4.078  12.964  0.6992 -0.4361  2.3760
 3090TIP3   OH230684   6.879   5.549  14.812 -0.2125 -0.6612  0.0862
 3090TIP3    H130685   6.790   5.516  14.801 -0.3012 -0.6230  0.6806
 3090TIP3    H230686   6.906   5.518  14.898 -0.0626  0.2698  0.3865
 3091TIP3   OH230687   5.509   5.274  10.611 -0.2564  0.2768  0.0998
 3091TIP3    H130688   5.539   5.213  10.544 -1.0120 -0.4615  0.4077
 3091TIP3    H230689   5.547   5.358  10.587  0.2438 -0.1758 -0.7196
 3092TIP3   OH230690   2.167   3.801  10.492  0.0175  0.2334 -0.1290
 3092TIP3    H130691   2.102   3.731  10.488 -0.0307  0.0836  2.2120
 3092TIP3    H230692   2.120   3.876  10.528  1.1898 -0.0143  2.0455
 3093TIP3   OH230693   7.204   6.019  13.781 -0.1899 -0.3452  0.5624
 3093TIP3    H130694   7.210   5.970  13.862  0.4169 -1.6166 -0.2113
 3093TIP3    H230695   7.112   6.012  13.755 -0.2475 -0.4958  0.8068
 3094TIP3   OH230696   0.726   2.698  14.818 -0.3071  0.3207 -0.5054
 3094TIP3    H130697   0.725   2.767  14.752  2.6324 -1.1971 -2.3619
 3094TIP3    H230698   0.756   2.620  14.771 -0.6831 -1.5410  2.1023
 3095TIP3   OH230699   3.791   5.732   1.050  0.7815 -0.4235  0.1965
 3095TIP3    H130700   3.696   5.723   1.060  1.0140 -1.8448  1.6687
 3095TIP3    H230701   3.803   5.768   0.962 -1.0133 -3.9612 -1.7197
 3096TIP3   OH230702   3.841   5.020  10.174 -0.1123  0.1277  0.2945
 3096TIP3    H130703   3.865   4.927  10.172  0.5893  0.3037 -1.4981
 3096TIP3    H230704   3.748   5.021  10.152 -0.0876 -0.1514  0.1713
 3097TIP3   OH230705   4.703   5.765   9.224  0.0858  0.3199 -0.0517
 3097TIP3    H130706   4.750   5.764   9.308 -0.0578  0.4941  0.0328
 3097TIP3    H230707   4.627   5.822   9.240  0.4435  0.9452 -0.5038
 3098TIP3   OH230708   6.471   5.887   9.609 -0.5528 -0.4312 -0.1854
 3098TIP3    H130709   6.464   5.793   9.622  1.8365 -0.5634  0.5943
 3098TIP3    H230710   6.558   5.910   9.640 -1.0681  2.0658 -0.3131
 3099TIP3   OH230711   7.181   5.365   9.483  0.3951  0.0328  0.1665
 3099TIP3    H130712   7.254   5.357   9.545 -0.8835  1.8372  2.0124
 3099TIP3    H230713   7.114   5.414   9.530 -1.8501 -1.0968 -1.6450
 3100TIP3   OH230714   4.750   1.459  11.862  0.2337  0.2102 -0.0059
 3100TIP3    H130715   4.790   1.445  11.776 -0.3189  0.0397 -0.2391
 3100TIP3    H230716   4.717   1.548  11.859 -0.5830 -0.0931 -0.3058
 3101TIP3   OH230717   5.065   2.354   0.356  0.2482 -0.1721 -0.2743
 3101TIP3    H130718   5.128   2.355   0.284  0.3663 -2.8024 -0.3033
 3101TIP3    H230719   4.980   2.353   0.313  0.3052 -1.0966 -0.3761
 3102TIP3   OH230720   4.084   4.986  11.873  0.1048 -0.1787 -0.3198
 3102TIP3    H130721   4.124   5.028  11.797 -1.5490  1.8559 -0.1616
 3102TIP3    H230722   4.156   4.979  11.936  1.3003 -1.1478 -1.7327
 3103TIP3   OH230723   6.922   4.979   9.290 -0.1381  0.0603 -0.1862
 3103TIP3    H130724   7.000   5.034   9.293 -0.4283  0.4600  0.4509
 3103TIP3    H230725   6.954   4.892   9.269  0.5685  0.0711  0.7512
 3104TIP3   OH230726   1.855   3.161   1.093 -0.8627 -0.3036 -0.3357
 3104TIP3    H130727   1.790   3.111   1.044 -1.3358 -0.4569  0.4207
 3104TIP3    H230728   1.821   3.250   1.094 -0.9543 -0.3396 -0.1287
 3105TIP3   OH230729   0.064   0.451  11.402 -0.0778 -0.4722 -0.6784
 3105TIP3    H130730   0.067   0.374  11.345 -0.5819 -0.1065 -1.2103
 3105TIP3    H230731   0.136   0.438  11.464  1.3354 -0.2718 -2.2004
 3106TIP3   OH230732   0.587   3.630  11.085  0.1517 -0.1286  0.1990
 3106TIP3    H130733   0.631   3.707  11.122  1.2152 -0.7289  0.1951
 3106TIP3    H230734   0.574   3.653  10.993 -0.4298  0.4392  0.4146
 3107TIP3   OH230735   0.595   2.927  11.966 -0.4525 -0.2608 -0.2145
 3107TIP3    H130736   0.525   2.969  12.016 -1.5216 -0.6828 -1.3048
 3107TIP3    H230737   0.675   2.953  12.011 -1.3094  0.1231  1.1525
 3108TIP3   OH230738   0.136   0.614  14.445  0.4157 -0.6056  0.0300
 3108TIP3    H130739   0.163   0.699  14.480 -2.3652  0.1338  0.6235
 3108TIP3    H230740   0.184   0.606  14.363  2.9027  0.1858  1.3147
 3109TIP3   OH230741   2.963   1.462  13.168 -0.1177  0.2556 -0.1296
 3109TIP3    H130742   2.975   1.551  13.199  0.9185  0.2270 -0.3985
 3109TIP3    H230743   3.052   1.430  13.153 -0.4583 -0.9355  0.2731
 3110TIP3   OH230744   6.873   3.998  11.766 -0.5285 -0.0519 -0.2196
 3110TIP3    H130745   6.923   4.057  11.823 -1.0256  0.2411 -0.0837
 3110TIP3    H230746   6.879   4.037  11.679 -1.8477  0.8569  0.0763
 3111TIP3   OH230747   2.332   4.455   9.671  0.6159  0.1149 -0.1435
 3111TIP3    H130748   2.311   4.365   9.645 -0.8636  1.0539 -2.5523
 3111TIP3    H230749   2.407   4.479   9.616 -0.2169  0.9520 -0.9424
 3112TIP3   OH230750   5.493   3.004   9.632  0.2445  0.1238 -0.2291
 3112TIP3    H130751   5.500   3.073   9.565  1.2144 -0.8170 -1.1484
 3112TIP3    H230752   5.441   2.935   9.590 -0.2211  0.0437  0.4688
 3113TIP3   OH230753   6.762   6.135   9.522  0.0924  0.4126  0.1026
 3113TIP3    H130754   6.733   6.048   9.550 -1.0641  1.2364  1.6616
 3113TIP3    H230755   6.698   6.195   9.562  2.6704  2.2046  1.8388
 3114TIP3   OH230756   4.878   5.702   0.885 -0.4279  0.2298 -0.3787
 3114TIP3    H130757   4.938   5.637   0.922 -1.2387 -0.5640 -0.4252
 3114TIP3    H230758   4.935   5.775   0.860  0.8794 -1.4244 -2.6249
 3115TIP3   OH230759   0.944   3.463  13.271  0.0658  0.0793 -0.7923
 3115TIP3    H130760   0.971   3.481  13.181 -2.6874  1.9006 -1.3867
 3115TIP3    H230761   0.936   3.549  13.312 -0.2927 -0.6308  0.6949
 3116TIP3   OH230762   1.451   0.142   9.430  0.4582  0.4334 -0.2477
 3116TIP3    H130763   1.392   0.068   9.414  0.3923 -0.0554  1.9592
 3116TIP3    H230764   1.512   0.109   9.496  1.2585  1.9524 -0.1972
 3117TIP3   OH230765   5.804   1.347  13.628  0.1829 -0.1767 -0.2430
 3117TIP3    H130766   5.795   1.424  13.684 -1.9750 -0.4908 -0.0577
 3117TIP3    H230767   5.873   1.295  13.669  2.8476  2.3382 -1.2821
 3118TIP3   OH230768   3.558   1.624  10.134  0.7192 -0.0839 -0.2225
 3118TIP3    H130769   3.624   1.693  10.140 -0.8912  1.4462  0.6045
 3118TIP3    H230770   3.529   1.610  10.224 -0.6368 -0.1436 -0.6442
 3119TIP3   OH230771   3.249   2.256  10.375  0.1175  0.2356 -0.1538
 3119TIP3    H130772   3.245   2.312  10.298  0.7255  0.4891 -0.0035
 3119TIP3    H230773   3.191   2.183  10.354 -0.5945  0.8503 -0.3994
 3120TIP3   OH230774   1.613   0.607  12.522 -0.1705 -0.1675  0.0673
 3120TIP3    H130775   1.568   0.533  12.481 -0.3875  0.8219 -1.5610
 3120TIP3    H230776   1.611   0.676  12.456  2.3386  0.4589  0.5449
 3121TIP3   OH230777   3.420   6.655  10.803  0.0990  0.1746 -0.3895
 3121TIP3    H130778   3.467   6.629  10.882  1.2838  0.4042 -0.9966
 3121TIP3    H230779   3.341   6.699  10.836  0.2733 -0.2535  0.6500
 3122TIP3   OH230780   5.061   4.586  12.979 -0.1179  0.6412  0.4382
 3122TIP3    H130781   5.059   4.530  12.901 -0.8493  0.8271  0.3165
 3122TIP3    H230782   5.151   4.616  12.985  0.4189 -0.9508  0.7973
 3123TIP3   OH230783   5.115   3.274  11.376 -0.5893  0.4042  0.0324
 3123TIP3    H130784   5.051   3.279  11.305  0.9947 -0.7342 -1.5923
 3123TIP3    H230785   5.198   3.298  11.334  0.3592 -0.0123  1.5927
 3124TIP3   OH230786   6.057   5.531  10.418  0.3099 -0.4082  0.1724
 3124TIP3    H130787   6.045   5.625  10.402  0.3630 -0.9896 -4.6808
 3124TIP3    H230788   5.972   5.493  10.396  0.4558 -1.5977  1.5660
 3125TIP3   OH230789   5.245   5.225   3.233  0.1235  0.5954 -0.1995
 3125TIP3    H130790   5.327   5.208   3.185  0.2078  1.7098 -0.4725
 3125TIP3    H230791   5.264   5.197   3.322 -0.6436 -3.3737 -1.0947
 3126TIP3   OH230792   3.003   6.452  11.272 -0.4134 -0.1391  0.0726
 3126TIP3    H130793   3.001   6.445  11.367 -1.6909  1.9824  0.2480
 3126TIP3    H230794   2.913   6.439  11.244 -0.2494  0.4159 -0.7509
 3127TIP3   OH230795   4.761   7.047   9.534 -0.1162  0.1478  0.4064
 3127TIP3    H130796   4.825   7.019   9.468 -0.2515 -0.0158  0.3460
 3127TIP3    H230797   4.714   6.968   9.557 -0.5043  0.3232  0.2265
 3128TIP3   OH230798   5.627   6.060  10.931 -0.2968 -0.0696 -0.0675
 3128TIP3    H130799   5.657   6.074  11.021 -1.9901  1.1129  0.3689
 3128TIP3    H230800   5.552   6.119  10.921 -0.7772 -0.9071 -1.9311
 3129TIP3   OH230801   6.073   6.690  10.030  0.1737 -0.5999  0.4150
 3129TIP3    H130802   6.139   6.645   9.976  0.2441 -1.2210  1.0005
 3129TIP3    H230803   6.096   6.667  10.120  0.2651  0.7131  0.7478
 3130TIP3   OH230804   0.297   1.838  14.314 -0.4516  0.0173 -0.2300
 3130TIP3    H130805   0.256   1.852  14.400 -0.5854 -2.6794  0.2487
 3130TIP3    H230806   0.390   1.829  14.333 -0.5032 -0.7742 -0.2927
 3131TIP3   OH230807   2.353   0.611  11.361 -0.5871 -0.2710 -0.1010
 3131TIP3    H130808   2.397   0.640  11.441  1.0764 -1.2341 -0.6171
 3131TIP3    H230809   2.425   0.589  11.301 -1.7974 -0.6382 -1.4632
 3132TIP3   OH230810   6.106   0.787  11.651  0.2326 -0.1333  0.1348
 3132TIP3    H130811   6.048   0.852  11.610 -0.0985 -1.6188 -1.9261
 3132TIP3    H230812   6.195   0.817  11.629  0.0699 -1.5476 -3.0427
 3133TIP3   OH230813   5.790   5.764  11.109 -0.2436  0.4832 -0.1172
 3133TIP3    H130814   5.720   5.700  11.118 -0.6272  1.0180  0.8157
 3133TIP3    H230815   5.870   5.716  11.132 -0.6730  0.6315  1.7965
 3134TIP3   OH230816   5.089   5.416  10.993  0.1362  0.1074  0.0778
 3134TIP3    H130817   5.068   5.502  10.956  1.1636  0.3935  0.1300
 3134TIP3    H230818   5.166   5.431  11.048  0.7582 -0.9635 -0.4592
 3135TIP3   OH230819   3.724   2.520  13.061  0.0465  0.1677 -0.0794
 3135TIP3    H130820   3.717   2.448  12.998 -0.0342 -1.0665  1.2968
 3135TIP3    H230821   3.770   2.482  13.135 -1.0661  1.1907  1.1746
 3136TIP3   OH230822   7.113   0.209  10.080 -0.0813  0.3442 -0.1596
 3136TIP3    H130823   7.149   0.120  10.079  0.2121  0.3354  2.9994
 3136TIP3    H230824   7.150   0.250  10.002  1.5019 -1.6347 -0.5448
 3137TIP3   OH230825   3.805   5.667  14.508  0.4776  0.1976  0.3442
 3137TIP3    H130826   3.764   5.715  14.580 -2.3076 -2.3584  0.6933
 3137TIP3    H230827   3.838   5.735  14.449 -2.1291  2.5543  1.3609
 3138TIP3   OH230828   3.005   1.109  10.199 -0.2259  0.4292 -0.4026
 3138TIP3    H130829   3.031   1.201  10.209  0.0518  0.3439 -0.3307
 3138TIP3    H230830   2.951   1.091  10.276  2.2202 -0.3365  1.2266
 3139TIP3   OH230831   2.492   5.608  11.338 -0.2412 -0.2457  0.5489
 3139TIP3    H130832   2.424   5.649  11.390 -0.3148 -0.2168  0.4308
 3139TIP3    H230833   2.479   5.514  11.351 -0.0370 -0.2334  0.8654
 3140TIP3   OH230834   4.203   5.998  13.234  0.1122  0.4325  0.1188
 3140TIP3    H130835   4.172   5.908  13.220 -0.3432  0.8609 -2.1795
 3140TIP3    H230836   4.156   6.028  13.311  0.9451 -1.5595  1.4772
 3141TIP3   OH230837   3.556   6.255  13.251 -0.3691 -0.2685  0.4298
 3141TIP3    H130838   3.559   6.187  13.183 -3.2732 -1.1652  1.0617
 3141TIP3    H230839   3.570   6.337  13.203  0.0988 -1.0611 -0.8441
 3142TIP3   OH230840   0.187   1.283  13.337 -0.8754 -0.0977 -0.2115
 3142TIP3    H130841   0.210   1.210  13.394 -1.6987  0.2896  0.6523
 3142TIP3    H230842   0.255   1.284  13.269  0.8416  0.1948  1.4451
 3143TIP3   OH230843   4.079   1.558  14.032 -0.0792  0.1740 -0.1041
 3143TIP3    H130844   4.036   1.626  14.083  1.1779  0.0336  1.1884
 3143TIP3    H230845   4.156   1.600  13.995 -0.0878 -0.1684 -0.5205
 3144TIP3   OH230846   6.411   6.056   1.095 -0.3786  0.5632  0.5846
 3144TIP3    H130847   6.423   6.035   1.003 -1.4435  1.1541  0.2901
 3144TIP3    H230848   6.384   5.974   1.135  0.3435  0.2442  0.4274
 3145TIP3   OH230849   3.285   3.880  14.719  0.1475  0.3285 -0.6282
 3145TIP3    H130850   3.228   3.884  14.642 -1.0137 -1.0830  0.1040
 3145TIP3    H230851   3.350   3.813  14.697  0.7985  1.0523 -0.9720
 3146TIP3   OH230852   6.422   5.038  10.820 -0.0913  0.2177  0.2045
 3146TIP3    H130853   6.493   5.071  10.765 -0.3243  1.3826  0.5674
 3146TIP3    H230854   6.353   5.104  10.812 -0.4416 -0.0009  1.2466
 3147TIP3   OH230855   4.331   7.131  12.046  0.1572  0.2001  0.3103
 3147TIP3    H130856   4.355   7.149  11.956 -2.4994 -1.8776 -0.9800
 3147TIP3    H230857   4.279   7.206  12.073 -1.3462 -0.3267 -0.9549
 3148TIP3   OH230858   6.386   7.173   0.993 -0.1833  0.2677 -0.1079
 3148TIP3    H130859   6.431   7.147   1.073 -2.1826 -1.3740  0.5731
 3148TIP3    H230860   6.399   7.268   0.989 -0.1030  0.4270  2.2405
 3149TIP3   OH230861   6.348   4.111  13.538  0.2701 -0.2229  0.2425
 3149TIP3    H130862   6.267   4.162  13.532  0.2332 -0.0310  1.8335
 3149TIP3    H230863   6.319   4.020  13.534  0.2387 -0.1772 -1.5628
 3150TIP3   OH230864   3.779   1.755   0.049 -0.1281 -0.1600 -0.1479
 3150TIP3    H130865   3.692   1.789   0.071  0.2535  0.5432  0.3085
 3150TIP3    H230866   3.828   1.832   0.018  0.5093 -0.4337  0.1557
 3151TIP3   OH230867   2.994   1.351  10.936 -0.7645  0.0628  0.1765
 3151TIP3    H130868   3.046   1.429  10.956 -1.0426  0.6017 -1.1248
 3151TIP3    H230869   2.903   1.379  10.950 -0.7873 -0.5747  1.4456
 3152TIP3   OH230870   4.928   7.172  12.648 -0.2103 -0.1577  0.6171
 3152TIP3    H130871   4.941   7.078  12.654 -0.1708 -0.0926  1.8376
 3152TIP3    H230872   4.841   7.182  12.609 -0.9252 -0.7404  1.9985
 3153TIP3   OH230873   0.467   2.641  14.152 -0.4914  0.2246  0.0927
 3153TIP3    H130874   0.537   2.598  14.202 -0.0884  0.2908 -0.4102
 3153TIP3    H230875   0.451   2.723  14.199 -1.3541 -0.5123  1.1380
 3154TIP3   OH230876   1.785   0.213  11.135  0.0587 -0.2011  0.5436
 3154TIP3    H130877   1.726   0.234  11.207 -1.3708  0.1620 -0.6642
 3154TIP3    H230878   1.871   0.203  11.175 -0.4989  1.0396  2.1221
 3155TIP3   OH230879   0.587   1.345  13.921  0.1482 -0.4056  0.6456
 3155TIP3    H130880   0.638   1.264  13.934  1.0950  0.2383  1.0354
 3155TIP3    H230881   0.572   1.378  14.010  1.0240  0.6057  0.4318
 3156TIP3   OH230882   5.403   3.003  10.337  0.1863 -0.9051 -0.4861
 3156TIP3    H130883   5.367   2.919  10.366 -1.7692  0.5444  1.5657
 3156TIP3    H230884   5.330   3.064  10.343  1.5896  1.0215 -1.7792
 3157TIP3   OH230885   2.442   4.595  13.363 -0.5885 -0.1834 -0.1861
 3157TIP3    H130886   2.346   4.598  13.362 -0.6401 -0.6501  1.0878
 3157TIP3    H230887   2.463   4.507  13.392  0.2208  0.0286 -0.1074
 3158TIP3   OH230888   3.988   6.972  12.070 -0.0075 -0.4020  0.0820
 3158TIP3    H130889   4.006   6.933  12.156 -0.1572  0.9120  0.7310
 3158TIP3    H230890   3.902   6.937  12.045 -0.3700 -0.1204  0.8910
 3159TIP3   OH230891   1.066   3.609  13.687 -0.7650 -0.9636 -0.3423
 3159TIP3    H130892   1.022   3.689  13.718  0.5536 -1.2303  2.4963
 3159TIP3    H230893   0.995   3.544  13.681 -1.3828 -0.3844  0.3796
 3160TIP3   OH230894   1.867   2.167  12.735  0.3006  0.3164  0.0978
 3160TIP3    H130895   1.941   2.186  12.793  0.3709 -2.1000  0.9220
 3160TIP3    H230896   1.905   2.162  12.648  1.2618 -1.4269  0.5798
 3161TIP3   OH230897   5.618   6.440  11.094  0.4138 -0.2161  0.0831
 3161TIP3    H130898   5.625   6.373  11.027  2.0687  1.1539 -1.2346
 3161TIP3    H230899   5.708   6.451  11.126 -0.3881 -1.1517  2.9383
 3162TIP3   OH230900   0.922   3.658  10.127 -0.0084  0.0865 -0.1838
 3162TIP3    H130901   0.853   3.676  10.064 -0.0878 -0.7561 -0.3456
 3162TIP3    H230902   0.987   3.608  10.078  0.0209 -0.4061  0.3547
 3163TIP3   OH230903   1.574   2.904  12.365  0.8318 -0.1292  0.3994
 3163TIP3    H130904   1.594   2.997  12.373  1.5648 -0.4189  3.1947
 3163TIP3    H230905   1.658   2.860  12.376  0.7735 -1.1726 -2.5363
 3164TIP3   OH230906   5.719   5.630  13.039 -0.2947  0.3066  0.6113
 3164TIP3    H130907   5.626   5.631  13.062 -0.7455  1.2792 -1.1581
 3164TIP3    H230908   5.728   5.560  12.975  0.0381  0.7570  0.1586
 3165TIP3   OH230909   2.442   0.470  13.553  0.3788 -0.4653 -0.0884
 3165TIP3    H130910   2.378   0.440  13.489 -0.7543  1.3252  0.1195
 3165TIP3    H230911   2.520   0.491  13.502 -0.3224  0.4087 -0.8297
 3166TIP3   OH230912   3.600   6.686  12.517 -0.6495  0.5180 -0.3404
 3166TIP3    H130913   3.527   6.628  12.539 -1.0706  1.0941 -0.2052
 3166TIP3    H230914   3.559   6.770  12.498 -0.0030  0.9170 -0.0021
 3167TIP3   OH230915   5.080   6.511  15.126 -0.1265 -0.0076 -0.9813
 3167TIP3    H130916   5.087   6.573  15.053  0.2957 -0.3334 -1.2177
 3167TIP3    H230917   5.129   6.434  15.097  1.0732  0.3093  0.1319
 3168TIP3   OH230918   4.288   4.886  13.967 -0.2462  0.5344 -0.2995
 3168TIP3    H130919   4.342   4.836  13.906  0.7480 -0.9887  1.7179
 3168TIP3    H230920   4.212   4.830  13.983  0.2585  0.1728  0.9953
 3169TIP3   OH230921   4.714   5.825  12.655 -0.2527  0.4864  0.3764
 3169TIP3    H130922   4.710   5.913  12.691 -0.7923  0.8250 -0.4651
 3169TIP3    H230923   4.654   5.773  12.710 -2.0324  1.2738 -0.7321
 3170TIP3   OH230924   1.223   6.515  11.848  0.7645  0.1712 -0.3333
 3170TIP3    H130925   1.264   6.435  11.883  1.5733  0.4313 -0.6543
 3170TIP3    H230926   1.175   6.485  11.771 -1.0266 -0.4039  0.9581
 3171TIP3   OH230927   4.428   7.117  13.131  0.0359 -0.0113  0.2875
 3171TIP3    H130928   4.397   7.031  13.102  0.9253 -0.4889  0.7263
 3171TIP3    H230929   4.422   7.114  13.226 -0.5281  0.6528  0.2849
 3172TIP3   OH230930   0.968   6.304  10.924  0.0558 -0.2060 -0.0561
 3172TIP3    H130931   0.986   6.383  10.975 -2.0889  0.4088 -0.1433
 3172TIP3    H230932   1.036   6.242  10.951  0.8403  1.1312  1.1993
 3173TIP3   OH230933   3.364   6.468  11.662  0.0346 -0.9230 -0.3401
 3173TIP3    H130934   3.418   6.414  11.604  1.3047 -0.4261  0.3325
 3173TIP3    H230935   3.395   6.557  11.646 -0.3551 -0.6675  0.3125
 3174TIP3   OH230936   2.199   5.716  10.041 -0.0826 -0.1539  0.6912
 3174TIP3    H130937   2.125   5.693   9.984  0.7964 -1.5885  0.0731
 3174TIP3    H230938   2.276   5.689   9.992  1.0820  3.3262  0.3539
 3175TIP3   OH230939   3.934   5.002  10.488  0.0644 -0.0245  0.6016
 3175TIP3    H130940   3.870   4.977  10.554  0.6899 -2.2715  0.4346
 3175TIP3    H230941   4.007   5.040  10.538 -0.2189 -0.0387  1.0297
 3176TIP3   OH230942   3.145   6.098  10.681 -0.3806  0.4026  0.0154
 3176TIP3    H130943   3.169   6.021  10.629 -0.3378 -0.1667  0.8607
 3176TIP3    H230944   3.050   6.092  10.689 -0.2640 -0.2500  1.1083
 3177TIP3   OH230945   6.214   3.665  10.724  0.1953 -0.6017 -0.0726
 3177TIP3    H130946   6.275   3.695  10.657  1.7768 -0.9913  1.1337
 3177TIP3    H230947   6.248   3.700  10.806 -2.6396  1.2978  0.4301
 3178TIP3   OH230948   4.868   3.225   9.999 -0.1485 -0.1026  0.0310
 3178TIP3    H130949   4.924   3.288   9.953 -1.5998  0.9083 -0.4158
 3178TIP3    H230950   4.796   3.209   9.938 -0.5546 -1.0695  0.7585
 3179TIP3   OH230951   0.212   4.604  10.260  0.8404  0.6854  0.6461
 3179TIP3    H130952   0.225   4.676  10.198 -3.2992  0.8388 -0.3293
 3179TIP3    H230953   0.173   4.534  10.208  1.3949 -0.9437  2.3041
 3180TIP3   OH230954   2.307   3.470  12.321 -0.3726 -0.2132 -0.0403
 3180TIP3    H130955   2.270   3.432  12.400  3.1297 -0.4772  1.7003
 3180TIP3    H230956   2.365   3.539  12.353  2.0730 -1.1010 -2.1796
 3181TIP3   OH230957   5.365   6.590  11.139  0.1197 -0.3739 -0.3716
 3181TIP3    H130958   5.303   6.519  11.156  0.2919 -0.5517 -0.4819
 3181TIP3    H230959   5.446   6.545  11.111  0.1291 -0.1233 -0.7490
 3182TIP3   OH230960   3.409   1.736   0.447 -0.1907 -0.3534 -0.4545
 3182TIP3    H130961   3.325   1.781   0.458  0.2138  0.5602 -1.0057
 3182TIP3    H230962   3.386   1.652   0.406 -0.9704 -0.7629  0.7379
 3183TIP3   OH230963   6.772   6.021  12.352  0.0321  0.6133  0.0780
 3183TIP3    H130964   6.724   6.027  12.269 -0.8715 -3.3804  0.0882
 3183TIP3    H230965   6.865   6.019  12.326 -0.2452 -0.7220 -0.9155
 3184TIP3   OH230966   6.140   0.848  14.563 -0.0762 -0.0292 -0.3665
 3184TIP3    H130967   6.136   0.754  14.580 -0.2674  0.0368 -0.0387
 3184TIP3    H230968   6.205   0.857  14.492 -0.2045 -0.4216 -0.5353
 3185TIP3   OH230969   2.633   0.409   0.005 -0.4573  0.7128 -0.2463
 3185TIP3    H130970   2.587   0.489  -0.021  0.9531  1.5963 -0.1204
 3185TIP3    H230971   2.713   0.440   0.047 -0.0706 -0.7714  0.1599
 3186TIP3   OH230972   4.379   4.373  14.161  0.5417  0.3285  0.7159
 3186TIP3    H130973   4.347   4.462  14.179  0.6109  0.3500  0.7329
 3186TIP3    H230974   4.392   4.372  14.066 -0.3833  0.0296  0.5882
 3187TIP3   OH230975   0.174   7.059   1.829 -0.0635  0.0405 -0.0836
 3187TIP3    H130976   0.079   7.053   1.842 -0.0572  0.2350  0.0676
 3187TIP3    H230977   0.195   6.986   1.772 -0.5503  0.9502 -1.4846
 3188TIP3   OH230978   6.575   4.907  11.492 -0.5653 -0.0197  0.2953
 3188TIP3    H130979   6.518   4.831  11.476  1.4258 -1.2281 -1.7219
 3188TIP3    H230980   6.604   4.933  11.405  2.8408 -0.2267  1.2515
 3189TIP3   OH230981   2.649   4.218  10.246  0.9766  0.0217  0.1861
 3189TIP3    H130982   2.640   4.151  10.177  1.1201 -0.3730  0.5463
 3189TIP3    H230983   2.730   4.194  10.291  0.4444 -0.2217  1.0335
 3190TIP3   OH230984   6.745   2.684  10.349 -0.2131  0.0494 -0.3870
 3190TIP3    H130985   6.827   2.718  10.384 -0.1803 -0.3067 -0.1174
 3190TIP3    H230986   6.772   2.622  10.281 -0.2755  0.7730 -1.0920
 3191TIP3   OH230987   2.787   3.284   2.111 -0.0202  0.2610  0.0545
 3191TIP3    H130988   2.710   3.332   2.079 -0.1264 -0.3293 -0.5863
 3191TIP3    H230989   2.859   3.315   2.056  0.0381  0.1674  0.0772
 3192TIP3   OH230990   6.561   6.224  11.222  0.2181 -0.3600  0.3449
 3192TIP3    H130991   6.553   6.196  11.131  0.9614  1.9382 -0.5164
 3192TIP3    H230992   6.643   6.183  11.252  0.2872 -0.6412 -0.2107
 3193TIP3   OH230993   2.688   5.826   4.230 -0.1350 -0.3923  0.0180
 3193TIP3    H130994   2.621   5.794   4.290  0.4422 -0.6587  0.5337
 3193TIP3    H230995   2.771   5.796   4.268  0.2862  0.0219 -0.5470
 3194TIP3   OH230996   2.864   7.072  13.748  0.2436 -0.5156  0.9084
 3194TIP3    H130997   2.927   7.145  13.746  0.1373 -0.4386  0.0980
 3194TIP3    H230998   2.860   7.047  13.840  1.5323 -0.5859  0.9595
 3195TIP3   OH230999   1.229   6.974  11.034 -0.3796  0.1781  0.2908
 3195TIP3    H131000   1.180   6.988  11.115 -0.8240  0.8635 -0.0856
 3195TIP3    H231001   1.320   6.965  11.063 -0.6967 -1.0761  0.9948
 3196TIP3   OH231002   5.422   0.178  13.387 -0.1049  0.2454 -0.5141
 3196TIP3    H131003   5.391   0.163  13.477 -1.1877  0.0159 -0.9095
 3196TIP3    H231004   5.517   0.183  13.395 -0.2659  1.8230  0.8818
 3197TIP3   OH231005   1.951   2.323  11.993  0.1615  0.4855  0.3915
 3197TIP3    H131006   1.955   2.227  11.984  0.9291  0.5644 -0.1862
 3197TIP3    H231007   1.874   2.348  11.942  0.6128  0.2767 -0.4094
 3198TIP3   OH231008   1.818   2.294  11.064  0.3896  0.1034 -0.1841
 3198TIP3    H131009   1.807   2.268  11.155 -0.1243  0.0512 -0.2579
 3198TIP3    H231010   1.878   2.369  11.067 -0.2703  0.6147  0.2651
 3199TIP3   OH231011   3.574   3.426  14.056 -0.3771 -0.2849 -0.5923
 3199TIP3    H131012   3.479   3.414  14.047 -0.4420 -2.1262  1.7569
 3199TIP3    H231013   3.596   3.382  14.138  1.9630  3.2065  0.8868
 3200TIP3   OH231014   0.757   4.289   9.586  0.1314  0.1043 -0.3183
 3200TIP3    H131015   0.778   4.197   9.603 -1.1756 -0.0861  0.4199
 3200TIP3    H231016   0.833   4.322   9.538  1.2378 -0.9911  0.5856
 3201TIP3   OH231017   0.520   4.399  11.783 -0.3201 -0.5560  0.1798
 3201TIP3    H131018   0.427   4.393  11.808 -0.7997  1.1908 -0.9959
 3201TIP3    H231019   0.567   4.388  11.865 -1.7160  1.4225  1.3510
 3202TIP3   OH231020   3.101   2.912  12.093 -0.1774 -0.1337  0.0418
 3202TIP3    H131021   3.125   2.925  12.185  0.4218  1.0629 -0.2702
 3202TIP3    H231022   3.063   2.996  12.066  3.0994  0.9094 -1.8383
 3203TIP3   OH231023   0.359   5.630  15.236 -0.3333 -0.0886  0.4503
 3203TIP3    H131024   0.424   5.560  15.240  1.1578  1.1905 -0.4056
 3203TIP3    H231025   0.346   5.654  15.328 -0.0486 -0.7402  0.6747
 3204TIP3   OH231026   0.149   4.831   0.530  0.3060 -0.8494 -0.5031
 3204TIP3    H131027   0.240   4.805   0.541  0.7403  0.7813 -0.0116
 3204TIP3    H231028   0.153   4.924   0.509 -1.3488  0.4504  3.8391
 3205TIP3   OH231029   6.131   1.949  12.759 -0.4287  0.0590  0.1770
 3205TIP3    H131030   6.183   2.008  12.813  0.5583 -0.0378 -0.6354
 3205TIP3    H231031   6.126   1.868  12.811  0.3320  0.0325  0.2253
 3206TIP3   OH231032   0.344   1.091   2.668  0.2593 -0.5783 -0.2784
 3206TIP3    H131033   0.377   1.133   2.748 -0.6682 -0.3351 -0.0049
 3206TIP3    H231034   0.269   1.145   2.643 -1.9082 -2.8184  0.9141
 3207TIP3   OH231035   3.564   5.021  11.406 -0.1752 -0.2437 -0.0006
 3207TIP3    H131036   3.607   5.106  11.419 -2.3238  0.7667  1.1218
 3207TIP3    H231037   3.622   4.973  11.347  1.6682  1.5723  0.2252
 3208TIP3   OH231038   5.263   4.686  12.322 -0.0542  0.5014  0.4491
 3208TIP3    H131039   5.353   4.715  12.303 -0.1485  1.3784  1.2782
 3208TIP3    H231040   5.275   4.608  12.376  0.3119  2.2550  3.1230
 3209TIP3   OH231041   0.959   5.575   0.040 -0.3355 -0.4724 -0.4353
 3209TIP3    H131042   0.980   5.586  -0.053 -1.0065 -0.7380 -0.6221
 3209TIP3    H231043   0.997   5.651   0.082  0.2210 -0.4928 -0.8911
 3210TIP3   OH231044   1.579   2.347  12.895  0.2103  0.1511 -0.0051
 3210TIP3    H131045   1.539   2.434  12.894  1.3563  0.7636  1.7411
 3210TIP3    H231046   1.505   2.287  12.898 -0.6299  0.9646 -2.3295
 3211TIP3   OH231047   4.942   4.163  13.442  0.1625 -0.7647  0.2335
 3211TIP3    H131048   4.850   4.145  13.424 -0.3009  0.0569  1.5852
 3211TIP3    H231049   4.967   4.095  13.505  0.2745 -0.5584  0.4109
 3212TIP3   OH231050   0.942   2.419  13.650 -0.3054  0.0482 -0.4465
 3212TIP3    H131051   0.993   2.424  13.731  1.2781 -0.8180 -1.3319
 3212TIP3    H231052   0.852   2.438  13.677  0.2165  0.0151  1.4666
 3213TIP3   OH231053   5.167   5.299  13.587 -0.4730 -0.0330  0.2190
 3213TIP3    H131054   5.188   5.391  13.569  1.1664 -0.2771  0.7213
 3213TIP3    H231055   5.250   5.261  13.616 -1.2060 -1.5989  0.3460
 3214TIP3   OH231056   0.098   5.056  10.233 -0.3957 -0.3908  0.2370
 3214TIP3    H131057   0.110   5.132  10.176 -1.7591  0.2664  0.7900
 3214TIP3    H231058   0.129   5.084  10.319 -2.0451  0.0002  0.7398
 3215TIP3   OH231059   4.561   2.602  13.191  0.7294 -0.1567 -0.2900
 3215TIP3    H131060   4.487   2.660  13.175  1.1299  0.6341  0.6479
 3215TIP3    H231061   4.541   2.524  13.139 -0.2018  0.4891 -0.9454
 3216TIP3   OH231062   4.528   7.107  10.533 -0.0274  0.4252  0.3364
 3216TIP3    H131063   4.472   7.036  10.562 -1.2741 -0.1695 -3.0470
 3216TIP3    H231064   4.601   7.064  10.488  0.9531  1.2661  1.0795
 3217TIP3   OH231065   6.310   5.603   9.287  0.0175  0.3115 -0.1496
 3217TIP3    H131066   6.262   5.610   9.204  0.0760  0.7030 -0.1535
 3217TIP3    H231067   6.393   5.562   9.263 -0.0597  0.2091 -0.2458
 3218TIP3   OH231068   0.137   1.920  10.281 -0.1843  0.3493  0.8117
 3218TIP3    H131069   0.181   1.845  10.240 -1.6694 -0.0145 -0.2207
 3218TIP3    H231070   0.146   1.991  10.217 -2.1881 -0.1144 -0.0619
 3219TIP3   OH231071   1.697   6.679   0.098  0.7193  0.4538 -0.0894
 3219TIP3    H131072   1.601   6.670   0.094  0.8238 -0.2696 -1.3842
 3219TIP3    H231073   1.712   6.774   0.095  0.0204  0.6553  1.4508
 3220TIP3   OH231074   3.720   4.582  11.790  0.0457  0.5794  0.4406
 3220TIP3    H131075   3.694   4.640  11.718  1.4295  1.1463  0.3682
 3220TIP3    H231076   3.663   4.607  11.863  0.0493  1.4584  0.1580
 3221TIP3   OH231077   4.780   6.132  10.227  0.0469  0.0185  0.0616
 3221TIP3    H131078   4.788   6.160  10.137 -1.3658  1.0493  0.2271
 3221TIP3    H231079   4.765   6.037  10.222  0.5948 -0.0286 -0.7338
 3222TIP3   OH231080   6.967   4.040  10.652  0.1387 -0.3827  0.3599
 3222TIP3    H131081   6.934   4.064  10.565 -1.0296  0.8942  1.1061
 3222TIP3    H231082   6.890   4.008  10.698  0.0104  1.8343  1.8626
 3223TIP3   OH231083   5.907   1.198   9.307 -0.1642  0.9957 -0.4756
 3223TIP3    H131084   5.830   1.216   9.360  0.4064  0.1423  0.6890
 3223TIP3    H231085   5.892   1.245   9.225 -1.3726  1.7889  0.1825
 3224TIP3   OH231086   1.144   0.848   9.208 -0.2813 -0.1516  0.0184
 3224TIP3    H131087   1.166   0.772   9.262  1.3416 -1.1552 -1.9457
 3224TIP3    H231088   1.064   0.822   9.161 -0.8921  0.1871  0.8381
 3225TIP3   OH231089   1.245   2.843  14.197 -0.4240 -0.4477 -0.3149
 3225TIP3    H131090   1.296   2.873  14.273 -2.3243 -0.2617  0.9541
 3225TIP3    H231091   1.240   2.748  14.208 -1.8323 -0.2956  0.5887
 3226TIP3   OH231092   3.480   1.795  12.090  0.0098  0.1096  0.2901
 3226TIP3    H131093   3.439   1.875  12.122  0.3255 -0.3785  2.0356
 3226TIP3    H231094   3.437   1.725  12.139  0.9567 -0.6394  0.0906
 3227TIP3   OH231095   3.572   3.204  10.467  0.0033 -0.0055 -0.7875
 3227TIP3    H131096   3.618   3.287  10.476 -0.9971  0.4735  0.1655
 3227TIP3    H231097   3.641   3.137  10.466  0.7014  0.5999  1.6524
 3228TIP3   OH231098   6.446   4.688  11.380 -0.9572  0.0981  0.1353
 3228TIP3    H131099   6.389   4.718  11.309 -1.0892  2.1363  1.0225
 3228TIP3    H231100   6.483   4.606  11.348 -2.3465  0.0659 -1.5536
 3229TIP3   OH231101   1.289   6.272  11.572  0.6585  0.0863 -0.0097
 3229TIP3    H131102   1.331   6.313  11.496  0.8424 -1.3424 -0.7172
 3229TIP3    H231103   1.362   6.237  11.623  0.5170  0.8103  0.7115
 3230TIP3   OH231104   7.198   1.584  10.429 -0.1254 -0.2063 -0.0980
 3230TIP3    H131105   7.160   1.670  10.406  0.2327 -0.4523 -1.7040
 3230TIP3    H231106   7.173   1.571  10.521 -1.5592  0.8967 -0.2935
 3231TIP3   OH231107   0.395   6.435  12.036  0.1036 -0.4962 -0.4693
 3231TIP3    H131108   0.364   6.374  11.969  3.9135 -1.4863 -1.5814
 3231TIP3    H231109   0.447   6.381  12.095  2.0352  1.3195 -0.3948
 3232TIP3   OH231110   0.343   4.099  13.842 -0.1631  0.1505  0.3509
 3232TIP3    H131111   0.273   4.156  13.872 -1.3055 -0.9747 -0.0748
 3232TIP3    H231112   0.376   4.058  13.922 -0.8850 -0.2817  0.4411
 3233TIP3   OH231113   7.183   3.970  13.261  0.4884 -0.1987 -0.1396
 3233TIP3    H131114   7.278   3.962  13.254  0.3856 -1.6080 -0.3101
 3233TIP3    H231115   7.165   3.974  13.355  0.7168  0.0817 -0.1087
 3234TIP3   OH231116   1.155   6.998  12.543 -0.2925  0.4411 -0.1540
 3234TIP3    H131117   1.246   6.967  12.538 -0.0683  1.0283  0.2476
 3234TIP3    H231118   1.145   7.029  12.633 -0.5770  1.3349 -0.4865
 3235TIP3   OH231119   3.078   2.273  11.779  0.0255  0.0422  0.3966
 3235TIP3    H131120   3.130   2.226  11.844 -1.5820 -0.0233  1.6972
 3235TIP3    H231121   3.045   2.205  11.720  3.0662  0.2575 -1.8380
 3236TIP3   OH231122   5.544   6.724  14.630 -0.0608  0.0901  0.0539
 3236TIP3    H131123   5.619   6.783  14.630 -0.5905  0.7813 -0.0727
 3236TIP3    H231124   5.520   6.715  14.538  1.2906 -2.0202 -0.1513
 3237TIP3   OH231125   0.728   4.925  14.159 -0.0017 -0.1053  0.1910
 3237TIP3    H131126   0.760   5.009  14.194 -1.3187  0.5269 -0.0405
 3237TIP3    H231127   0.800   4.864  14.174  0.6884  0.8831  1.1036
 3238TIP3   OH231128   0.024   1.008  13.549 -0.0713 -0.1264 -0.7115
 3238TIP3    H131129  -0.042   1.032  13.484 -1.4664 -1.5078  0.1118
 3238TIP3    H231130  -0.002   1.054  13.628  0.6709  0.2681 -0.6903
 3239TIP3   OH231131   3.147   4.070  11.496  0.3558  0.0522 -0.0066
 3239TIP3    H131132   3.221   4.123  11.524  0.3549 -0.5329  1.1826
 3239TIP3    H231133   3.156   3.988  11.545 -1.6054  0.3522  0.9507
 3240TIP3   OH231134   4.171   1.179  11.793  0.1055 -0.4701 -0.0678
 3240TIP3    H131135   4.178   1.262  11.747 -1.0754 -1.3346 -1.9151
 3240TIP3    H231136   4.147   1.203  11.883  0.0045  1.1798 -0.5077
 3241TIP3   OH231137   6.031   2.983   9.225  0.6546  0.6961  0.0121
 3241TIP3    H131138   6.006   2.991   9.133  1.2231 -0.8939 -0.3120
 3241TIP3    H231139   6.035   2.888   9.241  1.3924  0.9351  1.4462
 3242TIP3   OH231140   0.856   4.204  11.879  0.6860 -0.3059 -0.3913
 3242TIP3    H131141   0.785   4.223  11.940  0.0999 -2.7679 -0.2223
 3242TIP3    H231142   0.927   4.171  11.933  1.8674  1.6969 -0.6160
 3243TIP3   OH231143   6.581   2.379  11.638  0.3040  0.4177  0.6370
 3243TIP3    H131144   6.570   2.460  11.588 -0.0874  0.4024  0.6928
 3243TIP3    H231145   6.626   2.320  11.577 -0.3295  0.3416  0.2312
 3244TIP3   OH231146   5.818   1.465  10.465  0.0129 -0.3387  0.4417
 3244TIP3    H131147   5.803   1.396  10.530 -0.9988 -0.5553  0.0018
 3244TIP3    H231148   5.864   1.533  10.512  0.2333 -0.9454  1.1172
 3245TIP3   OH231149   1.676   0.201  13.464 -0.1666  0.3682  0.9330
 3245TIP3    H131150   1.626   0.281  13.477 -1.5938 -0.5413  1.3365
 3245TIP3    H231151   1.650   0.170  13.377 -0.3170 -0.1085  1.1409
 3246TIP3   OH231152   1.084   0.767  11.115 -0.4093  0.5434 -0.7932
 3246TIP3    H131153   1.112   0.819  11.190 -1.4522 -0.6972  0.5111
 3246TIP3    H231154   0.996   0.799  11.095 -0.0850  0.9597 -1.5965
 3247TIP3   OH231155   0.793   5.634  10.083 -0.0659 -0.1744 -1.0122
 3247TIP3    H131156   0.800   5.578  10.006  3.0211  0.2898 -1.2024
 3247TIP3    H231157   0.764   5.719  10.049 -2.0963 -0.8511 -1.0963
 3248TIP3   OH231158   4.523   6.872   9.790 -0.3008 -0.1606 -0.8972
 3248TIP3    H131159   4.436   6.886   9.826 -0.5738  0.3562 -1.7362
 3248TIP3    H231160   4.509   6.822   9.710  0.0855  0.6789 -1.5056
 3249TIP3   OH231161   3.353   6.155   2.999  0.1483  0.1595 -0.1551
 3249TIP3    H131162   3.307   6.092   3.055  2.1714  1.2479  3.0219
 3249TIP3    H231163   3.319   6.240   3.025  0.5143  0.6629 -1.2690
 3250TIP3   OH231164   4.733   4.675  13.767  0.2659 -0.1648  0.1382
 3250TIP3    H131165   4.710   4.747  13.708 -0.9996 -0.9374 -0.3266
 3250TIP3    H231166   4.663   4.611  13.756  1.0150 -1.1715  1.0665
 3251TIP3   OH231167   0.561   4.703   9.894 -0.1292 -0.7101 -0.0495
 3251TIP3    H131168   0.605   4.643   9.834 -0.6134 -0.1924 -0.9264
 3251TIP3    H231169   0.474   4.716   9.856  0.5116  1.8717 -0.7979
 3252TIP3   OH231170   7.107   2.912  11.265  0.5726 -0.4096 -0.0117
 3252TIP3    H131171   7.122   2.950  11.352  2.1990  0.2408 -0.5441
 3252TIP3    H231172   7.164   2.961  11.207  1.1489 -2.2553 -1.0893
 3253TIP3   OH231173   0.816   4.187  13.418  0.1230  0.3949 -0.0901
 3253TIP3    H131174   0.872   4.237  13.358  2.1373 -0.6735  0.7808
 3253TIP3    H231175   0.734   4.236  13.421 -0.4827  0.0163 -4.4269
 3254TIP3   OH231176   1.917   0.412  12.632 -0.5928  0.5618 -0.2643
 3254TIP3    H131177   1.910   0.491  12.685 -1.5744  0.0681  0.3554
 3254TIP3    H231178   1.992   0.429  12.574  0.1128  1.3540  0.8406
 3255TIP3   OH231179   6.061   3.539  10.421 -0.1431  0.0698  0.7192
 3255TIP3    H131180   6.066   3.497  10.507 -1.5561 -1.2150  0.2227
 3255TIP3    H231181   5.968   3.532  10.396  0.4015 -0.5753 -1.3595
 3256TIP3   OH231182   1.734   6.168  14.832 -0.1845 -0.5423  0.5792
 3256TIP3    H131183   1.726   6.081  14.793  1.5208  0.1078 -1.3796
 3256TIP3    H231184   1.754   6.150  14.924  2.5937 -2.3836 -0.2373
 3257TIP3   OH231185   1.239   2.263   9.478 -0.6278 -0.5016  0.6166
 3257TIP3    H131186   1.169   2.203   9.505  0.0350 -0.4136  2.7201
 3257TIP3    H231187   1.238   2.332   9.545 -1.5743  2.1209 -1.8907
 3258TIP3   OH231188   0.170   7.107   9.940 -0.4440 -0.7869  0.2136
 3258TIP3    H131189   0.126   7.168  10.000  2.2087  0.9866  0.5162
 3258TIP3    H231190   0.136   7.131   9.853  0.2551  0.9341  0.3773
 3259TIP3   OH231191   0.247   4.856  10.162  0.3443 -0.1341  0.6991
 3259TIP3    H131192   0.210   4.900  10.239  0.3384  0.3987  0.3996
 3259TIP3    H231193   0.207   4.901  10.087 -1.2805 -2.0404  0.3541
 3260TIP3   OH231194   3.356   3.386  10.930 -0.5916  0.1631  0.0625
 3260TIP3    H131195   3.344   3.297  10.896 -1.4730  0.1525  0.3883
 3260TIP3    H231196   3.306   3.388  11.011  0.8368  0.4423  0.9705
 3261TIP3   OH231197   0.585   5.472  12.405  0.4109 -0.2511  0.5254
 3261TIP3    H131198   0.548   5.541  12.349 -0.3526  0.4379  1.8070
 3261TIP3    H231199   0.534   5.394  12.384 -1.0286  0.3997  1.3875
 3262TIP3   OH231200   1.108   0.619  12.178  0.1385  0.3256 -0.6801
 3262TIP3    H131201   1.182   0.679  12.175  0.5469 -0.1894 -1.0653
 3262TIP3    H231202   1.059   0.645  12.256  1.7356 -0.5029  0.6543
 3263TIP3   OH231203   7.119   6.185  14.904 -0.8086  0.2460 -0.5289
 3263TIP3    H131204   7.048   6.161  14.844 -0.8075  0.6180 -0.6808
 3263TIP3    H231205   7.191   6.128  14.880 -1.6496 -1.5172  0.8965
 3264TIP3   OH231206   2.974   5.375   9.191 -0.1275  0.4411  0.1072
 3264TIP3    H131207   2.942   5.465   9.183  1.6789  0.9886 -2.3578
 3264TIP3    H231208   2.938   5.330   9.114  2.2672  0.2466 -1.0020
 3265TIP3   OH231209   3.906   4.206   4.654 -0.7823 -0.7169  0.1164
 3265TIP3    H131210   3.814   4.226   4.672 -1.3264 -1.3155 -1.8163
 3265TIP3    H231211   3.924   4.246   4.570  1.0662  0.2471  0.9127
 3266TIP3   OH231212   2.314   5.855  14.033 -0.0425 -0.0248  0.0987
 3266TIP3    H131213   2.309   5.760  14.040  0.3809 -0.0552  0.0253
 3266TIP3    H231214   2.408   5.873  14.025 -0.1781  0.3271 -0.8788
 3267TIP3   OH231215   5.123   2.824   0.764 -0.3284 -0.2183  0.7305
 3267TIP3    H131216   5.102   2.786   0.679  1.0611 -0.0229  0.2886
 3267TIP3    H231217   5.139   2.749   0.821  0.7505 -0.3369  0.2880
 3268TIP3   OH231218   3.157   3.753   0.967 -0.2005  0.3248  0.2365
 3268TIP3    H131219   3.145   3.664   1.001 -0.9801  0.5337  0.5429
 3268TIP3    H231220   3.093   3.759   0.896 -1.6115  1.2877  1.5132
 3269TIP3   OH231221   6.101   5.868  13.375 -0.1496 -0.4735  0.3278
 3269TIP3    H131222   6.062   5.783  13.356 -1.0098  0.2804 -1.4609
 3269TIP3    H231223   6.032   5.931  13.355  0.3830  0.6603  1.8655
 3270TIP3   OH231224   6.084   6.892   0.182  0.1126 -0.0867  0.4299
 3270TIP3    H131225   6.125   6.960   0.129 -0.6508 -0.8498 -1.2009
 3270TIP3    H231226   6.115   6.909   0.271  4.5294 -0.9837 -0.6789
 3271TIP3   OH231227   6.308   2.483  12.261  0.2672 -0.4187 -0.2399
 3271TIP3    H131228   6.316   2.470  12.166  1.2663  0.3426 -0.2763
 3271TIP3    H231229   6.310   2.394  12.297  0.1437 -0.7027 -0.9056
 3272TIP3   OH231230   5.289   4.907  11.956  0.5044  0.3245 -0.2910
 3272TIP3    H131231   5.261   4.900  11.865 -1.4084 -0.4686  0.3046
 3272TIP3    H231232   5.297   5.001  11.972  1.7688  0.4579 -1.4984
 3273TIP3   OH231233   5.190   7.021   9.552 -0.1753  0.0604 -0.0951
 3273TIP3    H131234   5.160   7.098   9.503  0.7120 -0.5239 -1.6508
 3273TIP3    H231235   5.273   7.048   9.591 -0.1289  0.0715 -0.1995
 3274TIP3   OH231236   2.086   6.133   5.255 -0.1428 -0.0419  0.2995
 3274TIP3    H131237   2.046   6.053   5.290 -1.7002  0.4395 -0.3141
 3274TIP3    H231238   2.163   6.102   5.208 -0.7694 -1.2023 -0.0067
 3275TIP3   OH231239   3.141   5.448   9.459 -0.1499  0.2462 -0.5711
 3275TIP3    H131240   3.113   5.409   9.376 -0.0969 -0.7630 -0.1398
 3275TIP3    H231241   3.065   5.498   9.488 -0.0460  0.8873 -1.3881
 3276TIP3   OH231242   5.968   2.391  13.443 -0.4287 -0.0852  0.0062
 3276TIP3    H131243   6.056   2.404  13.480  0.0270 -2.2046 -0.1915
 3276TIP3    H231244   5.938   2.479  13.421  0.5333  0.9837  2.5644
 3277TIP3   OH231245   3.185   3.163  10.311 -0.0322  0.0496  0.0870
 3277TIP3    H131246   3.254   3.197  10.254 -0.2309 -1.0775 -0.8659
 3277TIP3    H231247   3.177   3.228  10.381  1.6767  0.4267 -0.0296
 3278TIP3   OH231248   6.712   3.738  12.812 -0.0747  0.4077  0.6557
 3278TIP3    H131249   6.667   3.657  12.791 -1.6636  1.3439  0.2518
 3278TIP3    H231250   6.805   3.716  12.809 -0.4259 -1.0137 -1.0157
 3279TIP3   OH231251   2.723   0.464  14.824 -0.5725  0.2670 -0.3967
 3279TIP3    H131252   2.758   0.550  14.846  0.1373  0.0440 -0.6260
 3279TIP3    H231253   2.745   0.452  14.731  0.6904 -0.7838  0.0052
 3280TIP3   OH231254   1.398   2.462  10.169  0.1630  0.4825  0.4619
 3280TIP3    H131255   1.390   2.443  10.076  1.3433  0.6703  0.3058
 3280TIP3    H231256   1.311   2.492  10.195 -0.0608  0.8843 -0.6894
 3281TIP3   OH231257   1.404   1.840  11.670 -1.4858  0.0936  0.6263
 3281TIP3    H131258   1.481   1.791  11.699 -0.5493  1.2516  0.1704
 3281TIP3    H231259   1.376   1.889  11.748 -1.1649  0.4035  0.5535
 3282TIP3   OH231260   4.189   2.706  10.299  0.3037 -0.4431  0.1655
 3282TIP3    H131261   4.227   2.650  10.367 -0.3456 -0.1580  0.7719
 3282TIP3    H231262   4.136   2.769  10.347  0.2697  0.1026 -0.5796
 3283TIP3   OH231263   2.299   2.624  11.550 -0.1718 -0.3286 -0.2460
 3283TIP3    H131264   2.239   2.566  11.598 -0.2043  0.3025  0.4835
 3283TIP3    H231265   2.320   2.694  11.611  1.0954 -0.3783 -0.6003
 3284TIP3   OH231266   4.192   3.525  10.503  0.8489 -0.1896 -0.0896
 3284TIP3    H131267   4.195   3.611  10.546 -0.0894  0.2777 -0.9141
 3284TIP3    H231268   4.172   3.464  10.573 -1.3394  0.6373  0.1004
 3285TIP3   OH231269   0.466   1.521   0.580 -0.0116 -0.1487 -0.0324
 3285TIP3    H131270   0.406   1.447   0.569  0.2103 -0.3283 -0.0352
 3285TIP3    H231271   0.419   1.581   0.637  0.4160 -0.9550  1.1981
 3286TIP3   OH231272   6.804   0.145  14.567  0.3936  0.4721  0.0305
 3286TIP3    H131273   6.789   0.051  14.568 -0.0561  0.4928 -1.7704
 3286TIP3    H231274   6.800   0.169  14.475  1.2396  2.1477  0.3898
 3287TIP3   OH231275   2.395   0.237   3.854  0.1965 -0.6530  0.1459
 3287TIP3    H131276   2.309   0.255   3.816 -0.3292 -0.3815  1.4267
 3287TIP3    H231277   2.393   0.279   3.940  0.8271 -2.4424  1.0817
 3288TIP3   OH231278   3.291   2.931   2.033  0.0079 -0.2460 -0.8411
 3288TIP3    H131279   3.245   2.886   1.961 -2.6193  2.5712 -1.1327
 3288TIP3    H231280   3.253   2.894   2.112 -1.0347  0.3542 -1.0451
 3289TIP3   OH231281   5.879   2.819  11.584 -0.1791 -0.1488 -0.0018
 3289TIP3    H131282   5.862   2.727  11.564  1.3712 -0.6936  1.0011
 3289TIP3    H231283   5.848   2.867  11.507  0.5485 -1.6504 -1.2740
 3290TIP3   OH231284   4.029   1.724  12.161  0.1101  0.2245  0.5112
 3290TIP3    H131285   4.001   1.692  12.075  2.1275 -0.4291  0.0582
 3290TIP3    H231286   4.118   1.754  12.149  0.2958  0.5375  2.2933
 3291TIP3   OH231287   7.070   2.949  13.693 -0.2547  0.3741  0.4654
 3291TIP3    H131288   7.052   3.020  13.755  1.4777  0.7855  0.5376
 3291TIP3    H231289   6.999   2.955  13.629 -0.6396  1.6071  0.9720
 3292TIP3   OH231290   1.645   1.910  15.077  0.3464  0.2175  0.2481
 3292TIP3    H131291   1.601   1.836  15.118 -1.3510  0.2009 -1.4529
 3292TIP3    H231292   1.733   1.911  15.116 -0.0217 -1.8722  1.2557
 3293TIP3   OH231293   5.880   4.841  10.859 -0.7459 -0.2647  0.4883
 3293TIP3    H131294   5.808   4.831  10.797  0.0354 -0.0740 -0.4894
 3293TIP3    H231295   5.951   4.879  10.807 -0.4759  1.1418  1.8169
 3294TIP3   OH231296   6.296   0.113  13.221 -0.5819 -1.1128  0.7708
 3294TIP3    H131297   6.225   0.159  13.265  0.6649  1.2400  0.4350
 3294TIP3    H231298   6.367   0.110  13.285  0.6354  0.7886 -0.3989
 3295TIP3   OH231299   3.029   0.985  11.935 -0.2889 -0.4828  0.3083
 3295TIP3    H131300   3.058   0.953  12.020  0.2293 -0.2715  0.2142
 3295TIP3    H231301   2.944   1.026  11.953 -0.4007 -0.8556  0.6361
 3296TIP3   OH231302   4.840   1.018  10.173 -0.7889 -0.3334  0.1022
 3296TIP3    H131303   4.848   0.945  10.113  0.2570 -1.5429  1.6080
 3296TIP3    H231304   4.774   0.991  10.236  0.8089 -0.8025  1.6700
 3297TIP3   OH231305   0.524   5.184   0.137 -0.6184 -0.2403 -0.1303
 3297TIP3    H131306   0.525   5.210   0.229 -0.3736  0.6482 -0.3697
 3297TIP3    H231307   0.435   5.153   0.121 -1.4610  2.0475 -0.2341
 3298TIP3   OH231308   3.069   5.471  10.853  0.0195  0.0209  0.0635
 3298TIP3    H131309   3.011   5.399  10.878  0.8798 -0.6808  0.0715
 3298TIP3    H231310   3.091   5.513  10.937  0.5314 -0.4975  0.1928
 3299TIP3   OH231311   6.926   1.335  11.367 -0.7249 -0.2361 -0.0886
 3299TIP3    H131312   6.976   1.255  11.384 -0.5409  0.2430  1.7859
 3299TIP3    H231313   6.935   1.348  11.272  0.8447 -1.3717 -0.1495
 3300TIP3   OH231314   4.779   0.051  10.673  0.2901  0.2974 -0.0942
 3300TIP3    H131315   4.707   0.030  10.733  1.5375 -0.2397  1.2655
 3300TIP3    H231316   4.789  -0.028  10.619  0.2028  0.1870  0.0514
 3301TIP3   OH231317   4.276   5.958  10.154  0.2355  0.1656 -0.1065
 3301TIP3    H131318   4.296   5.882  10.100 -1.8848 -0.2882 -0.3439
 3301TIP3    H231319   4.187   5.943  10.184  1.1001  0.6883  3.0716
 3302TIP3   OH231320   4.389   1.539  12.426 -0.6896  0.1604  0.3778
 3302TIP3    H131321   4.477   1.542  12.462  0.1075  0.0776 -1.4207
 3302TIP3    H231322   4.350   1.623  12.449  0.3178  0.7036  0.1594
 3303TIP3   OH231323   4.624   1.829  14.308 -0.4007 -0.4252  0.2991
 3303TIP3    H131324   4.567   1.778  14.366 -1.5133 -0.8390 -1.1067
 3303TIP3    H231325   4.686   1.766  14.273  0.3096 -0.1632  1.0418
 3304TIP3   OH231326   0.428   6.320  13.820  0.5025 -0.2695 -0.5214
 3304TIP3    H131327   0.419   6.331  13.915 -1.7690 -1.7851 -0.4754
 3304TIP3    H231328   0.498   6.255  13.811 -1.0865 -2.2144  0.3418
 3305TIP3   OH231329   0.486   6.028  10.948  0.1616  0.0515 -0.1960
 3305TIP3    H131330   0.580   6.040  10.950  0.0793  0.6084  0.9443
 3305TIP3    H231331   0.455   6.061  11.032 -0.7711 -2.5623  0.6075
 3306TIP3   OH231332   1.685   1.405  10.367 -0.2165  0.2469  0.2706
 3306TIP3    H131333   1.762   1.402  10.310 -0.7829 -1.8984 -0.4688
 3306TIP3    H231334   1.611   1.392  10.308 -0.8114 -2.3249  1.4387
 3307TIP3   OH231335   6.875   4.260   9.905 -0.5191 -0.1073 -0.6466
 3307TIP3    H131336   6.817   4.265   9.829 -0.5497 -1.6754 -0.7602
 3307TIP3    H231337   6.906   4.349   9.917  1.8951 -0.2140 -4.4089
 3308TIP3   OH231338   1.493   5.431  10.864 -0.4826 -0.1086 -0.3140
 3308TIP3    H131339   1.481   5.384  10.947 -0.3680  1.8964  0.8982
 3308TIP3    H231340   1.404   5.458  10.839 -0.2879  1.2058  0.3569
 3309TIP3   OH231341   0.856   6.272  11.812  0.8833 -0.1962 -0.5814
 3309TIP3    H131342   0.912   6.311  11.744  2.8736 -1.6866  0.1265
 3309TIP3    H231343   0.807   6.204  11.766 -0.0088  0.7774 -1.1047
 3310TIP3   OH231344   3.089   3.953  11.926 -0.0813 -0.5032 -0.0972
 3310TIP3    H131345   3.052   3.885  11.870 -1.2828 -0.0845  0.1734
 3310TIP3    H231346   3.079   4.034  11.876  0.1317 -0.3263  0.1398
 3311TIP3   OH231347   4.235   1.437  13.451  0.8073 -0.0483 -0.0459
 3311TIP3    H131348   4.193   1.507  13.402  1.5405  0.1441 -0.4215
 3311TIP3    H231349   4.318   1.476  13.482  1.2885 -0.7835 -0.3788
 3312TIP3   OH231350   5.694   1.170  11.819  0.4805  0.6926  0.3238
 3312TIP3    H131351   5.652   1.243  11.774  1.5793  0.8047 -0.5545
 3312TIP3    H231352   5.665   1.092  11.771 -0.0652  0.6105  0.7752
 3313TIP3   OH231353   6.663   7.114  11.608  0.2011 -0.0424  0.2699
 3313TIP3    H131354   6.599   7.054  11.647 -0.3660  0.4213  0.0610
 3313TIP3    H231355   6.732   7.120  11.674  1.1192 -2.2390 -0.3788
 3314TIP3   OH231356   0.306   4.297   5.876 -0.1136  0.0545 -0.1413
 3314TIP3    H131357   0.349   4.341   5.802 -2.4084  0.4766 -1.3022
 3314TIP3    H231358   0.362   4.222   5.894  1.6804  1.1512 -0.8429
 3315TIP3   OH231359   3.224   7.036  11.059  0.0281 -0.2971 -0.3556
 3315TIP3    H131360   3.197   7.128  11.061 -0.0594 -0.3265 -0.0483
 3315TIP3    H231361   3.242   7.015  11.151 -1.4896 -1.0367 -0.2081
 3316TIP3   OH231362   4.230   2.343   9.545 -0.5061 -0.0921 -0.3890
 3316TIP3    H131363   4.287   2.285   9.596 -0.6930  0.2011  0.1534
 3316TIP3    H231364   4.150   2.350   9.597 -0.3990  0.8380 -0.3459
 3317TIP3   OH231365   6.410   5.253  13.272 -0.8535  0.1279  0.2655
 3317TIP3    H131366   6.345   5.183  13.284  0.5035 -1.2468 -0.1682
 3317TIP3    H231367   6.401   5.279  13.181  1.1791 -2.2045 -0.7141
 3318TIP3   OH231368   0.722   2.474   0.046  0.1259 -0.0511 -0.3780
 3318TIP3    H131369   0.668   2.510  -0.024  1.7622  0.7802 -1.2771
 3318TIP3    H231370   0.661   2.427   0.102 -1.5677  1.1636 -1.1264
 3319TIP3   OH231371   6.277   5.501  15.140  0.0039 -1.0145 -0.5081
 3319TIP3    H131372   6.261   5.442  15.067  1.4895  0.3024 -1.9594
 3319TIP3    H231373   6.357   5.468  15.181  0.9374  0.0221 -1.4279
 3320TIP3   OH231374   1.872   1.629  14.833 -0.1505 -0.1148  0.1395
 3320TIP3    H131375   1.879   1.725  14.824  1.6661 -0.2414 -0.1958
 3320TIP3    H231376   1.809   1.616  14.903  0.7778  1.3901  1.3231
 3321TIP3   OH231377   6.286   0.601  10.654  0.6333 -0.1817  0.7082
 3321TIP3    H131378   6.273   0.679  10.708  0.1798  0.2349  0.0217
 3321TIP3    H231379   6.324   0.536  10.713  2.2308  0.9587  0.9882
 3322TIP3   OH231380   2.415   3.361  14.356  0.6102  0.3143 -0.3072
 3322TIP3    H131381   2.433   3.387  14.265  0.1346 -0.2663 -0.5719
 3322TIP3    H231382   2.470   3.420  14.408  1.5821  0.0596 -1.0058
 3323TIP3   OH231383   3.406   3.979   1.364 -0.9854  0.2591 -0.2682
 3323TIP3    H131384   3.373   4.052   1.416 -0.5615  0.2583  0.0045
 3323TIP3    H231385   3.337   3.962   1.301 -1.0229  1.0049 -0.4450
 3324TIP3   OH231386   0.581   4.198   0.274 -0.0257  0.2791 -0.2623
 3324TIP3    H131387   0.665   4.239   0.292  0.7324 -0.7878 -1.2585
 3324TIP3    H231388   0.554   4.235   0.190 -1.1751  1.5424  0.6182
 3325TIP3   OH231389   5.550   6.694   9.918 -0.2823  0.6769  0.2983
 3325TIP3    H131390   5.635   6.689   9.874  0.0833 -0.3184  1.0502
 3325TIP3    H231391   5.563   6.646  10.000 -1.0708  2.0538  1.2742
 3326TIP3   OH231392   1.535   7.030   9.799 -0.1675 -0.2744  0.1109
 3326TIP3    H131393   1.467   7.082   9.755  1.2475  0.2168 -1.6515
 3326TIP3    H231394   1.513   6.940   9.778 -0.2954 -0.1200 -0.4492
 3327TIP3   OH231395   2.146   5.564  13.559 -0.0083 -0.3126  0.4963
 3327TIP3    H131396   2.051   5.572  13.560  0.0153 -0.0334  1.0203
 3327TIP3    H231397   2.165   5.511  13.482 -0.6669 -1.3637  1.0468
 3328TIP3   OH231398   6.482   6.945  11.708 -0.0240  0.1250  0.2895
 3328TIP3    H131399   6.437   6.910  11.631 -0.0313  0.8095 -0.0258
 3328TIP3    H231400   6.412   6.985  11.760 -0.1822 -1.2896  1.2028
 3329TIP3   OH231401   0.906   5.208  12.894 -0.2869  0.0525 -0.0170
 3329TIP3    H131402   0.844   5.162  12.838  0.0864  0.1121 -0.4775
 3329TIP3    H231403   0.851   5.244  12.965 -0.9035  0.7881 -0.8464
 3330TIP3   OH231404   3.829   5.384  14.974  0.1802 -0.2331 -0.5782
 3330TIP3    H131405   3.847   5.411  15.063 -0.4741 -0.6446 -0.3115
 3330TIP3    H231406   3.741   5.347  14.978  0.1031 -0.1583 -1.4142
 3331TIP3   OH231407   5.048   3.942  14.528  0.2785 -0.1120  0.3815
 3331TIP3    H131408   5.099   3.899  14.597 -0.2421  0.4039  1.0937
 3331TIP3    H231409   5.027   3.871  14.467  0.7720 -0.5636  0.7235
 3332TIP3   OH231410   6.802   1.528  12.918 -0.7614  0.0943 -0.0027
 3332TIP3    H131411   6.811   1.616  12.954 -2.4233 -0.3404  1.6456
 3332TIP3    H231412   6.750   1.541  12.838 -1.9680  0.5404  0.8174
 3333TIP3   OH231413   3.425   1.343  11.881  0.9554  0.4255  0.3260
 3333TIP3    H131414   3.484   1.387  11.941  0.0467  0.6534  1.0677
 3333TIP3    H231415   3.378   1.414  11.837  0.1260  0.2332  0.8786
 3334TIP3   OH231416   4.609   3.433  11.050  0.5742 -0.3954 -0.2085
 3334TIP3    H131417   4.684   3.452  11.106  1.0664 -0.7430 -0.7322
 3334TIP3    H231418   4.626   3.484  10.970 -0.3318  0.4396  0.1180
 3335TIP3   OH231419   5.176   4.944  10.722 -0.2732 -0.1096  0.1342
 3335TIP3    H131420   5.175   4.962  10.816 -0.0015  0.0116  0.1151
 3335TIP3    H231421   5.225   4.862  10.714 -1.2800 -0.7275  0.1970
 3336TIP3   OH231422   0.562   1.457   2.952  0.2256  0.0270  0.4499
 3336TIP3    H131423   0.567   1.529   2.889 -2.7699 -1.8936 -2.3111
 3336TIP3    H231424   0.492   1.482   3.012 -0.5718 -0.3150 -0.2992
 3337TIP3   OH231425   4.789   7.176   1.490  0.4239 -0.3382  0.0372
 3337TIP3    H131426   4.846   7.168   1.567  1.4673  1.3056 -0.5172
 3337TIP3    H231427   4.845   7.214   1.422 -1.0581  0.2895 -0.8849
 3338TIP3   OH231428   4.117   5.495  10.869  0.2956 -0.3957 -0.0397
 3338TIP3    H131429   4.155   5.482  10.782  0.0949 -0.2985 -0.1423
 3338TIP3    H231430   4.061   5.419  10.883  0.7661 -0.7000  0.2435
 3339TIP3   OH231431   5.479   1.022  12.718  0.0834  0.2683  0.4667
 3339TIP3    H131432   5.496   0.936  12.757  0.3502  1.0771  2.2457
 3339TIP3    H231433   5.565   1.056  12.693 -0.2509 -1.5427 -4.0493
 3340TIP3   OH231434   2.058   0.205  12.220  0.1107 -1.2147 -0.3334
 3340TIP3    H131435   2.034   0.134  12.161 -0.2296 -0.6328 -0.9036
 3340TIP3    H231436   2.070   0.281  12.163  0.5635 -0.8350  0.2593
 3341TIP3   OH231437   1.652   1.353   9.999  0.0286 -0.0558 -0.1642
 3341TIP3    H131438   1.713   1.334  10.070  1.7172  0.3144 -1.4731
 3341TIP3    H231439   1.684   1.434   9.960 -1.8404  0.6623 -0.3458
 3342TIP3   OH231440   6.509   6.520  11.443 -0.7242  0.4144  0.5908
 3342TIP3    H131441   6.592   6.505  11.490 -1.3319  0.7998  1.8365
 3342TIP3    H231442   6.534   6.571  11.366  0.2292  0.3187  0.8192
 3343TIP3   OH231443   5.292   0.567   0.990  0.7253  0.3904  0.1795
 3343TIP3    H131444   5.355   0.527   0.930  1.1047  0.9206  0.2080
 3343TIP3    H231445   5.207   0.531   0.965  0.9019  0.4910 -0.5846
 3344TIP3   OH231446   5.350   1.093  12.356  0.0538  0.3819  0.2966
 3344TIP3    H131447   5.416   1.143  12.308  1.1264 -1.6993 -0.5474
 3344TIP3    H231448   5.268   1.109  12.309  1.0078 -1.3223 -2.1779
 3345TIP3   OH231449   0.411   6.495  11.510 -0.1471 -0.0736  0.0578
 3345TIP3    H131450   0.499   6.505  11.474 -0.9504  0.3327 -1.9029
 3345TIP3    H231451   0.361   6.452  11.441 -1.0667 -2.0720  1.8439
 3346TIP3   OH231452   4.559   3.382   2.145  0.1301  0.0514 -0.4374
 3346TIP3    H131453   4.576   3.460   2.092  0.6801 -0.6209 -1.2720
 3346TIP3    H231454   4.525   3.416   2.228 -1.6751  1.1001 -1.5430
 3347TIP3   OH231455   4.909   6.944  11.927 -0.2829 -0.2476  0.9005
 3347TIP3    H131456   4.866   6.939  11.841  0.5211  2.1027  0.2913
 3347TIP3    H231457   5.001   6.929  11.909 -0.2770 -1.0706  1.5731
 3348TIP3   OH231458   1.616   6.512  11.534 -0.4411 -0.6267  0.1446
 3348TIP3    H131459   1.598   6.595  11.491  0.8108 -0.1992  0.4239
 3348TIP3    H231460   1.542   6.456  11.509 -1.5919  0.7192  0.4038
 3349TIP3   OH231461   0.518   1.504   9.938 -0.1031 -0.2199  0.3397
 3349TIP3    H131462   0.490   1.415   9.960 -1.7331  0.1950  0.0590
 3349TIP3    H231463   0.561   1.495   9.852  0.3538 -0.8222  0.6262
 3350TIP3   OH231464   5.331   6.590  13.878 -0.0780 -0.0735  0.0881
 3350TIP3    H131465   5.409   6.581  13.824 -0.0805 -0.1502  0.0968
 3350TIP3    H231466   5.312   6.501  13.908 -1.5530 -0.4653 -1.8285
 3351TIP3   OH231467   3.739   3.522  13.509  0.2585  0.0905 -0.1996
 3351TIP3    H131468   3.808   3.550  13.569 -1.9470  0.6863  2.2310
 3351TIP3    H231469   3.747   3.427  13.506  0.7872  0.1004  0.5767
 3352TIP3   OH231470   5.671   0.565  11.186  0.2843  0.1323 -0.2589
 3352TIP3    H131471   5.728   0.494  11.156  0.3476  0.5384 -1.1505
 3352TIP3    H231472   5.731   0.628  11.227  0.3941  0.2371 -0.5750
 3353TIP3   OH231473   5.065   6.837   0.853  0.2618 -0.0424 -0.2263
 3353TIP3    H131474   5.048   6.876   0.768  0.5833 -1.9737 -1.2196
 3353TIP3    H231475   5.022   6.896   0.915  1.8085  2.5899 -1.4602
 3354TIP3   OH231476   7.171   4.214   1.676  0.1254  0.2081  0.0397
 3354TIP3    H131477   7.266   4.200   1.678  0.0844 -0.0587  1.0568
 3354TIP3    H231478   7.160   4.309   1.678  0.3747  0.2507 -0.5955
 3355TIP3   OH231479   6.377   0.010  11.288 -0.0980  0.1080  0.6164
 3355TIP3    H131480   6.418   0.032  11.371  0.9480 -0.3294  0.2314
 3355TIP3    H231481   6.433   0.051  11.222  0.4550 -1.5480  0.0151
 3356TIP3   OH231482   6.764   5.438  10.685 -0.2446 -0.2504  0.2006
 3356TIP3    H131483   6.828   5.505  10.662 -0.4872 -0.2426 -0.4828
 3356TIP3    H231484   6.794   5.404  10.769  1.0692 -0.7409 -0.4423
 3357TIP3   OH231485   1.026   0.981   0.800 -0.7303 -0.7259 -0.0834
 3357TIP3    H131486   1.018   1.072   0.771  1.9491 -0.5607 -0.5746
 3357TIP3    H231487   1.041   0.987   0.894 -0.0035 -0.5939 -0.2004
 3358TIP3   OH231488   2.802   2.173   9.825  0.2437  0.2735 -0.1489
 3358TIP3    H131489   2.735   2.148   9.888  0.2830  0.0877 -0.1776
 3358TIP3    H231490   2.774   2.258   9.791  0.3466  0.4842  0.2944
 3359TIP3   OH231491   2.214   0.035  13.736 -0.4567  0.0959  0.4666
 3359TIP3    H131492   2.145   0.071  13.681 -1.5153  0.0689  1.7290
 3359TIP3    H231493   2.279   0.104  13.742 -0.4111  0.1598 -0.6603
 3360TIP3   OH231494   0.320   1.698  12.984 -0.0935  0.2580  0.0418
 3360TIP3    H131495   0.373   1.773  12.956  2.0348  0.0254  2.9903
 3360TIP3    H231496   0.363   1.623  12.943 -0.7425  0.3982 -0.9318
 3361TIP3   OH231497   0.922   2.514  12.983 -0.3056  0.2163 -0.4280
 3361TIP3    H131498   0.831   2.542  12.990 -0.2201  0.6079 -0.8859
 3361TIP3    H231499   0.924   2.429  13.027 -0.6856  0.6498  0.4451
 3362TIP3   OH231500   6.354   5.580   9.933  0.0596 -0.3060 -0.6981
 3362TIP3    H131501   6.389   5.492   9.920  0.5116 -0.4245  1.0163
 3362TIP3    H231502   6.290   5.569  10.004 -0.0770  0.7031 -0.6547
 3363TIP3   OH231503   1.274   0.870   9.816 -0.3807  0.8355 -0.3051
 3363TIP3    H131504   1.207   0.938   9.827 -2.2725 -1.2025  1.9380
 3363TIP3    H231505   1.263   0.841   9.725 -0.0648  2.8897 -1.0570
 3364TIP3   OH231506   1.483   3.171  10.334  0.3914 -0.6137  0.1788
 3364TIP3    H131507   1.419   3.240  10.348  0.1802 -0.5757 -0.8923
 3364TIP3    H231508   1.436   3.103  10.286  0.9259 -0.9696  0.1460
 3365TIP3   OH231509   0.203   4.674  12.712  0.1869 -0.6419  0.1276
 3365TIP3    H131510   0.123   4.674  12.659 -0.4547  0.0659  1.0567
 3365TIP3    H231511   0.201   4.758  12.757  0.0998 -1.6631  2.1525
 3366TIP3   OH231512   3.694   4.805  11.989  0.1025  0.3815 -0.6007
 3366TIP3    H131513   3.782   4.783  11.959  0.4077 -0.6688  0.9387
 3366TIP3    H231514   3.703   4.894  12.024  0.7421  0.0092  0.2159
 3367TIP3   OH231515   0.971   4.899  10.796 -0.2204  0.2858  0.6629
 3367TIP3    H131516   0.916   4.851  10.858  0.2208 -0.3197  0.5837
 3367TIP3    H231517   0.913   4.916  10.721 -0.1306 -0.9145  0.3025
 3368TIP3   OH231518   4.903   2.244  15.122  0.1982 -0.2580  0.3778
 3368TIP3    H131519   4.918   2.324  15.072 -0.6433 -0.8141 -0.8177
 3368TIP3    H231520   4.990   2.217  15.150  0.5642  0.7134  0.2416
 3369TIP3   OH231521   2.461   4.413   0.450  0.0695  0.4207 -0.7233
 3369TIP3    H131522   2.498   4.350   0.512  0.5333  0.5641 -0.8539
 3369TIP3    H231523   2.454   4.364   0.368 -0.2802  0.3149 -0.6320
 3370TIP3   OH231524   0.979   4.362  13.268  0.4094 -0.2004 -0.1660
 3370TIP3    H131525   0.997   4.418  13.343 -3.5355 -1.5697  2.1130
 3370TIP3    H231526   0.992   4.418  13.192  1.8833  2.1081  1.6654
 3371TIP3   OH231527   2.201   4.429  13.776  0.4147 -0.7020 -0.2771
 3371TIP3    H131528   2.243   4.514  13.767 -0.8403 -0.0563 -0.1513
 3371TIP3    H231529   2.108   4.448  13.783  0.2889 -1.8430  2.9029
 3372TIP3   OH231530   7.112   0.248  12.497  0.0408  0.0585  0.0821
 3372TIP3    H131531   7.128   0.339  12.475  0.5884 -0.1329 -0.3259
 3372TIP3    H231532   7.017   0.239  12.494  0.0529  0.2223 -1.4754
 3373TIP3   OH231533   5.406   0.236  12.682 -0.6053  0.2927 -0.0257
 3373TIP3    H131534   5.312   0.248  12.697 -0.4194  1.0769  0.5819
 3373TIP3    H231535   5.431   0.164  12.740 -0.8858 -0.1414 -0.4341
 3374TIP3   OH231536   6.372   4.107  14.474  0.0506  0.2818  0.2200
 3374TIP3    H131537   6.433   4.075  14.408  0.7247  1.1645  0.3943
 3374TIP3    H231538   6.422   4.172  14.524 -0.8075  0.4923  0.8369
 3375TIP3   OH231539   2.601   2.399   0.002 -0.1631  0.6199  0.2200
 3375TIP3    H131540   2.577   2.402  -0.090  0.3691  0.5002  0.0737
 3375TIP3    H231541   2.686   2.444   0.007  0.4262 -0.4768  0.4443
 3376TIP3   OH231542   5.243   1.348   0.949 -0.4182 -0.3571 -0.0942
 3376TIP3    H131543   5.244   1.397   1.032 -0.8160  1.6948 -1.2301
 3376TIP3    H231544   5.191   1.270   0.968  1.8958 -1.4792  2.3427
 3377TIP3   OH231545   1.701   3.781  15.055  0.1344  0.7502 -0.0813
 3377TIP3    H131546   1.647   3.827  14.991  1.1290 -0.6401 -2.0274
 3377TIP3    H231547   1.765   3.732  15.002  0.6695 -0.9086  1.9520
 3378TIP3   OH231548   4.393   0.961  10.486 -0.6585 -0.5100  0.1733
 3378TIP3    H131549   4.455   0.976  10.414 -1.0274 -0.6831 -0.1806
 3378TIP3    H231550   4.449   0.957  10.564 -0.3647  0.9970  0.0774
 3379TIP3   OH231551   6.558   6.888  12.714  0.2430  0.3956  0.1795
 3379TIP3    H131552   6.558   6.975  12.753  1.2027  0.1035  0.8672
 3379TIP3    H231553   6.599   6.832  12.780  2.5402 -0.0048 -1.4430
 3380TIP3   OH231554   6.078   0.625  11.864  0.0645 -0.5343  0.0244
 3380TIP3    H131555   6.034   0.541  11.871 -0.4181 -0.3633 -0.8257
 3380TIP3    H231556   6.054   0.658  11.777 -1.6875  1.5530  1.1878
 3381TIP3   OH231557   1.497   1.680  11.272 -0.2134  0.0842  0.1515
 3381TIP3    H131558   1.571   1.640  11.316 -0.5471  1.0966  1.7206
 3381TIP3    H231559   1.421   1.630  11.302 -0.5313  1.2818  1.4132
 3382TIP3   OH231560   1.453   4.388  15.272  0.4387  0.2818 -0.2119
 3382TIP3    H131561   1.375   4.443  15.276 -1.3284 -1.9119 -1.5710
 3382TIP3    H231562   1.526   4.449  15.274 -1.2730  2.4375  1.3124
 3383TIP3   OH231563   1.664   0.861  14.931  0.6931  0.1284  0.1176
 3383TIP3    H131564   1.641   0.772  14.961  1.0074  0.1380  0.3935
 3383TIP3    H231565   1.759   0.858  14.917  0.5610  0.1385 -0.8584
 3384TIP3   OH231566   1.361   5.470  11.208  0.1313 -0.9067  0.4828
 3384TIP3    H131567   1.363   5.386  11.164  1.0250 -0.8260  0.3403
 3384TIP3    H231568   1.450   5.505  11.197 -0.8399  1.1622 -1.5904
 3385TIP3   OH231569   1.454   1.422  13.602  0.5478  0.6611 -0.1875
 3385TIP3    H131570   1.536   1.444  13.559  1.6082  1.9525  2.3561
 3385TIP3    H231571   1.408   1.505  13.612  0.3937  0.4153  1.2870
 3386TIP3   OH231572   5.263   4.058  12.152 -0.1418  0.4212  0.1477
 3386TIP3    H131573   5.321   3.993  12.192 -1.1246  0.0808  1.0592
 3386TIP3    H231574   5.234   4.017  12.070  0.0981  0.1740  0.1843
 3387TIP3   OH231575   0.644   0.078  10.081 -0.0739 -0.4203  0.3818
 3387TIP3    H131576   0.556   0.057  10.048  0.3775 -1.2503 -0.3100
 3387TIP3    H231577   0.638   0.170  10.106 -1.3528 -0.6487  1.0279
 3388TIP3   OH231578   5.621   7.082  10.143 -0.4802  0.2959  0.0643
 3388TIP3    H131579   5.666   7.060  10.224 -1.4375  0.9988  0.8179
 3388TIP3    H231580   5.686   7.068  10.074 -0.9071 -4.8039  0.3630
 3389TIP3   OH231581   5.112   0.443  12.672  0.3174 -0.1329 -0.1793
 3389TIP3    H131582   5.187   0.485  12.629  0.3882  2.5458  2.2516
 3389TIP3    H231583   5.041   0.449  12.609  1.4644 -0.2632 -1.5172
 3390TIP3   OH231584   1.972   4.547   9.279 -0.1693 -0.2482  0.0706
 3390TIP3    H131585   1.911   4.620   9.289  0.4457  0.1386  1.1538
 3390TIP3    H231586   2.058   4.589   9.272  0.0936 -0.8326 -0.2390
 3391TIP3   OH231587   1.015   6.956  13.385 -0.1075  0.0909 -0.1636
 3391TIP3    H131588   0.927   6.920  13.397  0.5709 -1.2536  1.1739
 3391TIP3    H231589   1.042   6.926  13.298  0.2170 -2.3389  0.6790
 3392TIP3   OH231590   2.583   3.564   0.558  0.2010  0.2025 -0.4637
 3392TIP3    H131591   2.566   3.487   0.503  0.7772  0.9215 -1.6855
 3392TIP3    H231592   2.517   3.559   0.627  0.2829 -1.4349 -0.4630
 3393TIP3   OH231593   2.145   6.430  10.332  0.4617 -0.0585 -0.2806
 3393TIP3    H131594   2.094   6.457  10.256 -0.1916  0.0866  0.2029
 3393TIP3    H231595   2.089   6.367  10.377  0.6511  0.2022  0.3282
 3394TIP3   OH231596   6.077   3.626  12.343 -0.1868 -0.6848  0.4254
 3394TIP3    H131597   6.133   3.552  12.364  0.5767 -0.1089  0.4786
 3394TIP3    H231598   6.000   3.615  12.400 -0.0758 -1.4169  0.4400
 3395TIP3   OH231599   3.018   3.634  14.852 -0.9545 -0.9670  0.3055
 3395TIP3    H131600   2.935   3.591  14.875 -0.3681 -1.2059  2.1002
 3395TIP3    H231601   3.064   3.643  14.935  0.2475  0.4185 -0.4681
 3396TIP3   OH231602   4.892   0.825  13.013  0.2411 -0.0482  0.0112
 3396TIP3    H131603   4.867   0.780  12.932 -2.1745 -1.0420  1.2181
 3396TIP3    H231604   4.954   0.766  13.055  1.4966  0.4637 -1.0449
 3397TIP3   OH231605   6.137   0.605   2.230 -0.5199 -0.5778  0.4509
 3397TIP3    H131606   6.205   0.541   2.251 -0.7798 -0.8941  0.3310
 3397TIP3    H231607   6.084   0.610   2.309  1.3991  1.9568  1.7373
 3398TIP3   OH231608   0.178   3.592  12.559 -0.3283 -0.2645  0.2751
 3398TIP3    H131609   0.127   3.663  12.518  0.2836 -0.8249 -1.5355
 3398TIP3    H231610   0.118   3.517  12.559 -0.2461 -0.3304  0.1641
 3399TIP3   OH231611   3.875   0.723   9.825 -0.1201  0.1550  0.0886
 3399TIP3    H131612   3.967   0.718   9.851 -0.1695 -2.1842  0.0017
 3399TIP3    H231613   3.853   0.634   9.798 -1.8059  1.1341 -2.0797
 3400TIP3   OH231614   1.382   5.335   0.652  0.1074 -0.3414  0.2439
 3400TIP3    H131615   1.327   5.330   0.731 -0.1811  0.8590  0.1446
 3400TIP3    H231616   1.455   5.276   0.670  1.8439  2.3075  2.8842
 3401TIP3   OH231617   1.588   5.627  11.185 -0.4422 -0.6162  0.0751
 3401TIP3    H131618   1.645   5.561  11.226 -1.2168 -0.6333  1.1694
 3401TIP3    H231619   1.635   5.709  11.197 -1.3075 -0.3742  2.4601
 3402TIP3   OH231620   3.925   4.493  14.698  0.0513  0.0758  0.3408
 3402TIP3    H131621   3.853   4.535  14.652  0.9857  0.9941 -0.3373
 3402TIP3    H231622   3.897   4.402  14.708 -0.4574 -0.0299 -1.5536
 3403TIP3   OH231623   2.345   0.657   1.228 -0.2184 -0.1191  0.4261
 3403TIP3    H131624   2.323   0.690   1.141  1.0864  0.3684  0.2460
 3403TIP3    H231625   2.441   0.655   1.229 -0.2323 -1.6010  1.3183
 3404TIP3   OH231626   1.698   3.610  10.830 -0.5296 -0.4828 -0.1362
 3404TIP3    H131627   1.662   3.620  10.742  0.0517  0.2496 -0.3056
 3404TIP3    H231628   1.736   3.523  10.831  1.2110  0.2124 -1.2908
 3405TIP3   OH231629   5.504   6.553   0.881 -0.0982 -0.1494  0.2838
 3405TIP3    H131630   5.419   6.579   0.846  0.1145 -0.7751 -0.7487
 3405TIP3    H231631   5.484   6.505   0.962 -0.5290  2.4447  1.8014
 3406TIP3   OH231632   4.839   3.209   1.730  0.1259 -0.2580  0.0506
 3406TIP3    H131633   4.859   3.294   1.691  0.1562 -0.8304 -1.2091
 3406TIP3    H231634   4.876   3.214   1.818 -0.8017  1.4243  0.4035
 3407TIP3   OH231635   1.136   6.557   4.203 -0.0320  0.1475  0.2314
 3407TIP3    H131636   1.136   6.531   4.110  0.4339 -0.0746  0.2912
 3407TIP3    H231637   1.198   6.629   4.207  0.6978 -0.4839  0.5399
 3408TIP3   OH231638   6.608   5.511  12.050  0.2951 -0.2380  0.3208
 3408TIP3    H131639   6.545   5.576  12.019  1.3338  0.2968 -0.7681
 3408TIP3    H231640   6.625   5.535  12.141 -0.3509  0.1720  0.3399
 3409TIP3   OH231641   0.408   2.192  14.751 -0.1415  0.0401  0.6158
 3409TIP3    H131642   0.418   2.198  14.656 -1.5651 -0.8827  0.3711
 3409TIP3    H231643   0.328   2.242  14.769  0.1416  0.2392  1.3347
 3410TIP3   OH231644   1.898   2.006   1.126  0.2792  0.7916  0.3933
 3410TIP3    H131645   1.858   2.073   1.182  2.8162  2.6409  0.1460
 3410TIP3    H231646   1.919   2.052   1.045 -1.8541 -1.4536 -1.5925
 3411TIP3   OH231647   4.260   1.770  12.477 -0.2036  0.0519 -0.1592
 3411TIP3    H131648   4.185   1.726  12.518  1.1180 -0.5133  1.7832
 3411TIP3    H231649   4.249   1.862  12.501 -0.0751 -0.0980  0.5121
 3412TIP3   OH231650   1.076   2.686   0.786  0.4134  0.0572 -0.7024
 3412TIP3    H131651   1.157   2.697   0.737  0.6629 -1.0447 -0.5563
 3412TIP3    H231652   1.010   2.731   0.733  1.0322  0.6138 -1.0218
 3413TIP3   OH231653   0.034   6.585   1.343 -0.5303 -0.2998 -0.4573
 3413TIP3    H131654   0.127   6.565   1.349  0.0181  1.6988 -1.4167
 3413TIP3    H231655   0.022   6.615   1.253 -1.4955  2.0945  0.3884
 3414TIP3   OH231656   1.271   0.159   9.637  0.1299 -0.1504  0.7823
 3414TIP3    H131657   1.309   0.154   9.549 -1.0225  0.0920  0.2531
 3414TIP3    H231658   1.289   0.073   9.676  1.0056 -0.1187  0.4754
 3415TIP3   OH231659   4.607   3.490   0.780  0.0225  0.0161  0.4682
 3415TIP3    H131660   4.640   3.552   0.716 -0.2459 -0.1359  0.1777
 3415TIP3    H231661   4.635   3.525   0.864  1.0727 -0.2063  0.2226
 3416TIP3   OH231662   1.473   0.969  12.832  0.1108  0.0537 -0.3411
 3416TIP3    H131663   1.473   0.956  12.926  1.6071  1.3667 -0.1117
 3416TIP3    H231664   1.435   0.889  12.796 -0.8004 -0.3249  1.3732
 3417TIP3   OH231665   3.039   1.987  12.636  0.1462 -0.1114  0.7036
 3417TIP3    H131666   3.044   1.970  12.542 -0.5286  1.6535  0.3139
 3417TIP3    H231667   3.094   1.919  12.675 -0.8898 -1.9129 -0.8130
 3418TIP3   OH231668   2.445   5.626  13.117 -0.3863  0.3066 -0.4596
 3418TIP3    H131669   2.393   5.665  13.047 -1.6875 -1.2716 -0.4199
 3418TIP3    H231670   2.474   5.542  13.082  0.3672  0.2425  0.2982
 3419TIP3   OH231671   5.849   3.235  12.658 -0.3180 -0.0173  0.8074
 3419TIP3    H131672   5.925   3.184  12.630 -0.7304 -0.8559  1.1978
 3419TIP3    H231673   5.775   3.197  12.610 -0.5511  0.6014  0.6579
 3420TIP3   OH231674   2.876   4.183   0.351 -0.3763  0.3442  0.0658
 3420TIP3    H131675   2.901   4.134   0.429  0.8766  1.0891  0.1669
 3420TIP3    H231676   2.891   4.123   0.278  0.8170  0.4318  0.2156
 3421TIP3   OH231677   2.572   0.832  14.472 -0.0384 -0.4963 -0.6589
 3421TIP3    H131678   2.590   0.926  14.467 -0.6359 -0.3465 -0.0918
 3421TIP3    H231679   2.480   0.826  14.500  0.4705 -1.2265  1.0352
 3422TIP3   OH231680   4.310   4.687  10.475 -0.4685  0.1100 -0.3800
 3422TIP3    H131681   4.315   4.781  10.486  2.4489  0.0036 -0.0755
 3422TIP3    H231682   4.306   4.674  10.380  1.4989  0.5474 -0.5577
 3423TIP3   OH231683   1.411   3.751  14.275 -0.1603  0.1166 -0.4344
 3423TIP3    H131684   1.333   3.695  14.279  0.1029 -0.2415 -0.3435
 3423TIP3    H231685   1.377   3.836  14.246 -0.9565  0.6541  1.8229
 3424TIP3   OH231686   0.525   4.926  10.800  0.1240  0.4547 -0.9567
 3424TIP3    H131687   0.586   4.976  10.855  1.1969 -0.8259 -0.9416
 3424TIP3    H231688   0.562   4.932  10.712  0.0777 -0.0136 -1.0119
 3425TIP3   OH231689   0.134   5.507  12.705  0.5353  0.4807  0.1951
 3425TIP3    H131690   0.131   5.573  12.636 -0.4359  0.8102  0.5385
 3425TIP3    H231691   0.165   5.428  12.661  1.7374  1.1557 -0.2104
 3426TIP3   OH231692   4.915   4.819   1.141 -0.1551 -0.6703  0.3288
 3426TIP3    H131693   4.935   4.861   1.225  0.0455 -0.3996  0.1453
 3426TIP3    H231694   4.828   4.852   1.119 -0.1428 -0.6199  0.3544
 3427TIP3   OH231695   5.502   6.427   9.295 -0.6330 -1.0897  0.2461
 3427TIP3    H131696   5.574   6.380   9.337 -0.8597 -0.3495  1.5265
 3427TIP3    H231697   5.423   6.387   9.333 -0.8281  0.3195  1.3950
 3428TIP3   OH231698   6.641   1.157  13.904  0.4235  0.4581  0.2829
 3428TIP3    H131699   6.568   1.171  13.964 -1.1805  0.4642 -1.5500
 3428TIP3    H231700   6.719   1.177  13.955 -0.7453 -0.7713  2.7074
 3429TIP3   OH231701   2.462   1.190  14.404  0.0604 -0.3309  0.2865
 3429TIP3    H131702   2.552   1.194  14.370  0.2719 -2.1803  0.5539
 3429TIP3    H231703   2.472   1.173  14.497 -0.5788  0.8375  0.5894
 3430TIP3   OH231704   3.320   3.170  13.063  0.0443 -0.1182 -0.3629
 3430TIP3    H131705   3.396   3.228  13.068  0.6539 -0.9721  1.0982
 3430TIP3    H231706   3.247   3.227  13.042  0.8495  0.9625 -0.2952
 3431TIP3   OH231707   4.987   2.268  13.883 -0.3539  0.0645 -0.0788
 3431TIP3    H131708   4.943   2.300  13.961 -0.3779  2.0473 -0.8519
 3431TIP3    H231709   5.063   2.325  13.874  0.9002 -1.5595 -0.2931
 3432TIP3   OH231710   6.170   0.880  15.238  0.5657  0.2925  0.0381
 3432TIP3    H131711   6.087   0.888  15.190  0.0511 -2.1660  0.3858
 3432TIP3    H231712   6.232   0.848  15.172  0.6913  0.0849  0.2557
 3433TIP3   OH231713   4.644   4.839  13.974 -0.3803  0.0131 -0.1202
 3433TIP3    H131714   4.674   4.793  13.896 -0.8640 -0.3840 -0.0789
 3433TIP3    H231715   4.570   4.787  14.006 -0.7869  0.6919  0.0673
 3434TIP3   OH231716   3.834   4.391   9.349  0.1525  0.5222 -0.2817
 3434TIP3    H131717   3.824   4.307   9.393 -0.4837  1.2555  1.0572
 3434TIP3    H231718   3.929   4.401   9.338  0.2492 -0.2070 -0.1416
 3435TIP3   OH231719   2.590   6.519   1.749 -0.2442 -0.1630 -0.4857
 3435TIP3    H131720   2.510   6.499   1.699 -0.3232 -2.8190  0.5301
 3435TIP3    H231721   2.602   6.443   1.806  0.8996  1.8715  2.1889
 3436TIP3   OH231722   6.505   6.567  10.515  0.1664  0.0558  0.5488
 3436TIP3    H131723   6.484   6.496  10.454 -0.3417  0.9679 -0.3696
 3436TIP3    H231724   6.531   6.522  10.596  0.7387 -1.1811 -0.2851
 3437TIP3   OH231725   4.798   4.481  13.104 -0.1395 -0.0985 -0.4494
 3437TIP3    H131726   4.885   4.456  13.135 -0.0704  0.9306  0.2452
 3437TIP3    H231727   4.813   4.524  13.020  0.1779  1.1331  0.2077
 3438TIP3   OH231728   3.817   0.404  10.091  0.2413 -0.3093 -0.5614
 3438TIP3    H131729   3.841   0.338  10.156  0.4296 -0.6155 -0.9364
 3438TIP3    H231730   3.861   0.484  10.120 -0.7229 -0.1038  0.3968
 3439TIP3   OH231731   1.651   0.286  10.870 -0.4679  0.7842  0.1223
 3439TIP3    H131732   1.672   0.264  10.961  0.0688 -0.1560 -0.2168
 3439TIP3    H231733   1.698   0.221  10.818 -1.0203  1.1220 -0.8223
 3440TIP3   OH231734   3.244   4.499  12.381 -0.1725 -0.5718  0.5203
 3440TIP3    H131735   3.291   4.567  12.429  0.0373  0.7625 -1.4624
 3440TIP3    H231736   3.302   4.423  12.384  2.3028  1.0614 -1.9671
 3441TIP3   OH231737   4.689   7.083  11.193 -0.4008  0.1470 -0.1611
 3441TIP3    H131738   4.697   7.177  11.203 -1.0911  0.2414 -0.5024
 3441TIP3    H231739   4.606   7.069  11.147  0.0995 -0.5723 -0.8985
 3442TIP3   OH231740   6.909   3.225  10.382 -0.0835 -0.2978  0.5451
 3442TIP3    H131741   6.930   3.206  10.473  0.0319  0.0360  0.5866
 3442TIP3    H231742   6.815   3.245  10.382  0.1129  0.6742  0.7472
 3443TIP3   OH231743   2.774   4.120  14.076 -0.2719  0.5036 -0.0011
 3443TIP3    H131744   2.716   4.097  14.149  0.5711 -1.3740  0.1428
 3443TIP3    H231745   2.848   4.165  14.117  0.2787 -0.6935  0.3514
 3444TIP3   OH231746   3.881   3.211  11.844  0.2754  0.3430  0.2182
 3444TIP3    H131747   3.794   3.248  11.861  0.3248  0.6460 -0.1646
 3444TIP3    H231748   3.918   3.267  11.776  0.7223  0.1386  0.2859
 3445TIP3   OH231749   4.543   2.689  15.131 -0.2997  0.1488 -0.0629
 3445TIP3    H131750   4.475   2.674  15.197 -0.6765  1.5953 -0.0812
 3445TIP3    H231751   4.531   2.618  15.068 -1.1068 -0.2280  0.4865
 3446TIP3   OH231752   2.466   3.750  11.885  0.3022 -0.1396  0.6702
 3446TIP3    H131753   2.459   3.698  11.805  3.6886 -0.2419  0.2864
 3446TIP3    H231754   2.531   3.818  11.863  0.2996  0.6694  2.9175
 3447TIP3   OH231755   0.737   0.458   1.230  0.1644  0.3672  0.3327
 3447TIP3    H131756   0.663   0.466   1.170  1.7802  0.5205 -1.7714
 3447TIP3    H231757   0.760   0.365   1.227  0.7655  0.5210  0.0573
 3448TIP3   OH231758   2.156   0.810  11.943  0.0087  0.6202 -0.4891
 3448TIP3    H131759   2.224   0.833  11.880 -1.1505  1.4714 -1.4482
 3448TIP3    H231760   2.076   0.847  11.908 -1.3813 -2.0590 -0.4376
 3449TIP3   OH231761   4.534   1.460  12.650  0.9783 -0.0047 -0.6520
 3449TIP3    H131762   4.570   1.483  12.736 -1.1672  0.7789  0.0851
 3449TIP3    H231763   4.580   1.380  12.626  1.5432 -0.3056  1.2694
 3450TIP3   OH231764   0.969   3.716  10.400  0.0315 -0.2643 -0.2713
 3450TIP3    H131765   0.964   3.677  10.313 -1.0373  0.8268 -0.7252
 3450TIP3    H231766   0.898   3.780  10.402  0.3329  0.0632  1.2410
 3451TIP3   OH231767   2.365   5.323  12.924  0.1911 -0.7506 -0.2933
 3451TIP3    H131768   2.390   5.277  13.005  0.5665  0.7736  0.4949
 3451TIP3    H231769   2.443   5.372  12.900  0.2678 -1.6224 -1.9432
 3452TIP3   OH231770   0.811   6.149  11.106  0.1740 -0.1268 -0.0570
 3452TIP3    H131771   0.730   6.198  11.094 -1.7858 -3.2020 -0.5147
 3452TIP3    H231772   0.865   6.173  11.031  0.3770  3.0105  0.9633
 3453TIP3   OH231773   1.985   3.582   1.476 -0.4360 -0.0594 -0.5851
 3453TIP3    H131774   2.070   3.541   1.458  0.7690  2.2517 -0.4832
 3453TIP3    H231775   1.973   3.644   1.404 -0.9946  1.1579  0.5145
 3454TIP3   OH231776   5.620   5.252  15.112 -0.2126 -0.0514 -0.1447
 3454TIP3    H131777   5.571   5.328  15.144 -1.0456 -0.9029  0.6259
 3454TIP3    H231778   5.558   5.179  15.116  1.0698 -1.1356  0.7250
 3455TIP3   OH231779   0.815   5.483  13.913 -0.0066  0.1197  0.0961
 3455TIP3    H131780   0.796   5.465  14.005 -2.8182  0.9995 -0.2130
 3455TIP3    H231781   0.844   5.399  13.877 -1.2172 -0.8333  1.2580
 3456TIP3   OH231782   3.910   1.113  11.951 -0.4701 -0.2347  0.0931
 3456TIP3    H131783   3.910   1.050  11.879 -0.1530  0.2168 -0.3055
 3456TIP3    H231784   4.002   1.129  11.970 -0.4780  1.6074 -1.1532
 3457TIP3   OH231785   2.126   6.151  10.423  0.4093 -0.4859  0.4618
 3457TIP3    H131786   2.197   6.090  10.445  1.9871  0.4604 -1.7192
 3457TIP3    H231787   2.076   6.105  10.355 -0.6420 -0.8097  1.4182
 3458TIP3   OH231788   3.135   4.626  11.619 -0.2332  0.1900  0.6627
 3458TIP3    H131789   3.136   4.705  11.673  0.4069  1.0011 -0.5044
 3458TIP3    H231790   3.197   4.644  11.548 -1.8744 -0.3731 -1.0078
 3459TIP3   OH231791   7.049   6.334  10.129 -0.4583  0.1688 -0.0133
 3459TIP3    H131792   6.984   6.355  10.062 -0.3934 -0.2781 -0.2221
 3459TIP3    H231793   7.116   6.401  10.119 -0.2784 -0.1021 -0.6317
 3460TIP3   OH231794   4.716   5.214  12.951  0.6426 -0.0195  0.0723
 3460TIP3    H131795   4.797   5.167  12.972  0.2620 -0.0347  1.6478
 3460TIP3    H231796   4.649   5.172  13.006 -0.4125  0.0823 -1.0984
 3461TIP3   OH231797   5.998   2.634  12.715 -0.0854 -0.1655  0.0158
 3461TIP3    H131798   6.008   2.627  12.810  0.0353  0.4877  0.0531
 3461TIP3    H231799   6.058   2.704  12.690  0.8820 -1.2173 -0.7137
 3462TIP3   OH231800   5.578   1.124  10.264 -0.5087  0.0791 -0.1815
 3462TIP3    H131801   5.590   1.203  10.316 -0.0072 -0.5028  0.6097
 3462TIP3    H231802   5.655   1.070  10.284 -0.9744 -0.7210 -0.5030
 3463TIP3   OH231803   2.663   0.208  13.609  0.0414  0.6945 -0.0961
 3463TIP3    H131804   2.678   0.114  13.601 -1.7394  0.5802 -3.2476
 3463TIP3    H231805   2.574   0.215  13.642 -0.7997  1.1758 -2.3106
 3464TIP3   OH231806   0.723   6.494  15.163  0.6725 -0.3280  0.5359
 3464TIP3    H131807   0.640   6.451  15.182  0.2690  1.0487  2.1484
 3464TIP3    H231808   0.725   6.501  15.067 -0.2477 -1.8777  0.3642
 3465TIP3   OH231809   5.935   6.045  12.790  0.0608 -0.0637  0.0982
 3465TIP3    H131810   5.902   5.956  12.794 -0.3395  0.1295  1.3695
 3465TIP3    H231811   6.030   6.035  12.789  0.0863 -0.5957 -3.0109
 3466TIP3   OH231812   4.179   0.157   3.713 -0.0839  0.7508 -0.3784
 3466TIP3    H131813   4.232   0.160   3.633 -1.9143  1.7764 -1.6241
 3466TIP3    H231814   4.213   0.082   3.762  1.3961  0.3889 -1.8790
 3467TIP3   OH231815   0.913   6.616  12.649 -0.3217  0.0912 -0.2297
 3467TIP3    H131816   0.818   6.615  12.647 -0.3746 -2.4237  0.6815
 3467TIP3    H231817   0.940   6.531  12.615  1.6042  0.7045 -0.3813
 3468TIP3   OH231818   0.276   1.699  14.098  0.6245  0.2218  0.5432
 3468TIP3    H131819   0.275   1.734  14.187  1.9028  3.5817 -0.6363
 3468TIP3    H231820   0.364   1.665  14.085  0.3267 -0.6201  0.6429
 3469TIP3   OH231821   2.262   5.083   2.523 -0.5544 -0.2524  0.5966
 3469TIP3    H131822   2.314   5.034   2.586 -1.0224  0.2209  1.3723
 3469TIP3    H231823   2.294   5.173   2.531  0.2865 -0.3902 -0.8005
 3470TIP3   OH231824   4.848   4.252  10.553  0.2509  0.6168 -0.2314
 3470TIP3    H131825   4.909   4.324  10.536  0.4832  0.7237  0.9557
 3470TIP3    H231826   4.824   4.263  10.645  1.1560 -1.4724  0.3091
 3471TIP3   OH231827   4.800   6.415  11.668 -0.1630 -0.2326 -0.0401
 3471TIP3    H131828   4.782   6.367  11.749 -1.1790 -0.0060 -0.1214
 3471TIP3    H231829   4.791   6.349  11.599 -1.6496  0.0570 -0.1600
 3472TIP3   OH231830   3.345   3.716  11.427 -0.7283 -0.0167 -0.4478
 3472TIP3    H131831   3.286   3.692  11.356 -0.7686 -1.3442  0.0048
 3472TIP3    H231832   3.287   3.740  11.500 -0.6962  0.2248 -0.5015
 3473TIP3   OH231833   4.027   0.995   2.476 -0.0553 -0.3326 -0.5485
 3473TIP3    H131834   4.017   1.060   2.406  1.1182 -0.3984 -0.7873
 3473TIP3    H231835   3.957   1.017   2.538  0.3933  1.2464 -0.5584
 3474TIP3   OH231836   1.895   6.908  10.280 -0.2184  0.0500 -0.1080
 3474TIP3    H131837   1.800   6.898  10.274 -0.5558  0.7723  2.5961
 3474TIP3    H231838   1.928   6.819  10.291 -0.4393 -0.2919 -1.9154
 3475TIP3   OH231839   1.634   0.758  14.394  0.0346  0.0699 -0.3604
 3475TIP3    H131840   1.579   0.681  14.381  0.3386 -0.1720 -0.2196
 3475TIP3    H231841   1.723   0.725  14.386  0.2783 -0.0725  2.1126
 3476TIP3   OH231842   0.707   3.335  10.315  0.0551 -0.0066  0.4376
 3476TIP3    H131843   0.755   3.383  10.383  0.8892 -0.6552  0.3243
 3476TIP3    H231844   0.771   3.323  10.245 -0.5669 -0.0352 -0.1370
 3477TIP3   OH231845   3.091   2.265  13.186  0.1022 -0.2974  0.1669
 3477TIP3    H131846   3.172   2.215  13.181 -0.2625 -0.9035  0.2042
 3477TIP3    H231847   3.023   2.204  13.158 -0.5083 -0.1852  1.3428
 3478TIP3   OH231848   7.049   4.579   0.599 -0.0097  0.5253  0.5822
 3478TIP3    H131849   6.990   4.578   0.675  0.0553 -0.2134  0.6342
 3478TIP3    H231850   7.132   4.544   0.633  0.3701  1.2668  0.4350
 3479TIP3   OH231851   2.007   4.112  10.380 -0.1844  0.2840 -0.4317
 3479TIP3    H131852   2.094   4.125  10.342  0.2407 -1.2248 -0.0452
 3479TIP3    H231853   2.021   4.116  10.474 -0.3914 -0.5929 -0.3482
 3480TIP3   OH231854   6.081   5.104  11.785  0.4668  0.4650  0.4102
 3480TIP3    H131855   6.104   5.014  11.763 -1.7807 -0.1452  0.3206
 3480TIP3    H231856   6.083   5.107  11.880  0.5344  0.3264  0.4130
 3481TIP3   OH231857   6.942   1.843  10.835 -0.3940 -0.1822 -0.0065
 3481TIP3    H131858   6.938   1.749  10.815  0.6441 -0.3315  0.4389
 3481TIP3    H231859   6.890   1.884  10.766  0.6352 -0.9364 -1.2707
 3482TIP3   OH231860   2.539   3.890  10.698 -0.1673 -0.1484 -0.0079
 3482TIP3    H131861   2.559   3.800  10.722  0.9310 -0.3555 -1.5055
 3482TIP3    H231862   2.466   3.915  10.754  2.3257 -0.3928  3.7709
 3483TIP3   OH231863   6.693   6.295  11.906  0.3121  0.9117  0.7457
 3483TIP3    H131864   6.756   6.367  11.910 -0.1192  1.4412 -0.8960
 3483TIP3    H231865   6.709   6.256  11.820 -0.3034 -0.1717  1.1195
 3484TIP3   OH231866   3.340   5.530  10.362  0.0721  0.0390  0.2866
 3484TIP3    H131867   3.322   5.557  10.452  0.0982  1.2174 -0.0459
 3484TIP3    H231868   3.300   5.598  10.308  0.0312 -0.6671 -0.6057
 3485TIP3   OH231869   1.776   7.142  12.518  0.2463 -0.2697 -0.0902
 3485TIP3    H131870   1.858   7.137  12.469  0.8851 -1.7286  1.0464
 3485TIP3    H231871   1.710   7.107  12.458  1.1812 -3.0308  0.3425
 3486TIP3   OH231872   4.202   2.829  15.193 -0.0078  0.7647  0.3091
 3486TIP3    H131873   4.214   2.736  15.177 -0.2884  0.4398  1.8374
 3486TIP3    H231874   4.110   2.845  15.171  0.0751  0.7060 -0.0784
 3487TIP3   OH231875   4.243   0.963  10.066 -0.0380 -0.4302  0.1294
 3487TIP3    H131876   4.284   1.024  10.126 -0.8182  0.0065  0.2310
 3487TIP3    H231877   4.248   1.006   9.980  0.5535 -0.7977 -0.0324
 3488TIP3   OH231878   0.096   2.905  10.010  0.1664 -0.6515  0.1718
 3488TIP3    H131879   0.190   2.912   9.992 -0.1008  0.9424 -0.8575
 3488TIP3    H231880   0.073   2.816   9.983  1.2237 -0.7703 -0.3858
 3489TIP3   OH231881   0.454   0.823  13.251 -0.1403 -0.0253  0.0418
 3489TIP3    H131882   0.524   0.811  13.315  1.3667 -0.6053 -1.6324
 3489TIP3    H231883   0.386   0.870  13.299  1.4484  0.7169  1.7012
 3490TIP3   OH231884   1.097   5.855   9.943  0.1604 -0.1284 -0.5723
 3490TIP3    H131885   1.078   5.828   9.853  2.7018  0.8551 -1.5216
 3490TIP3    H231886   1.015   5.843   9.991 -1.0283 -1.4998 -2.8170
 3491TIP3   OH231887   1.173   3.563  13.953  0.2029  0.6689  0.1761
 3491TIP3    H131888   1.128   3.590  13.873  1.8790  1.3894 -0.5611
 3491TIP3    H231889   1.261   3.599  13.945  0.6976 -0.0258  1.9364
 3492TIP3   OH231890   2.124   1.715  10.913 -0.2755 -0.2515 -0.4781
 3492TIP3    H131891   2.097   1.777  10.981  0.8220  0.5806 -0.7559
 3492TIP3    H231892   2.084   1.632  10.938 -0.0376  0.0714  1.1014
 3493TIP3   OH231893   3.202   5.712  10.969  0.5767 -0.0727 -0.1708
 3493TIP3    H131894   3.184   5.665  11.050  1.2616  1.6089  1.0171
 3493TIP3    H231895   3.232   5.644  10.908 -0.8382 -1.5113  0.6529
 3494TIP3   OH231896   2.066   0.402   2.221  0.5518 -0.3798  0.6618
 3494TIP3    H131897   2.041   0.317   2.258 -1.7477  0.4069  1.0213
 3494TIP3    H231898   2.061   0.463   2.294 -0.4389  0.5390 -0.1484
 3495TIP3   OH231899   3.442   5.513  10.876  0.4227 -1.0426 -0.4667
 3495TIP3    H131900   3.468   5.604  10.867 -1.1043 -0.6818 -1.5426
 3495TIP3    H231901   3.510   5.474  10.931  0.5614  0.9607  0.8596
 3496TIP3   OH231902   4.462   1.764   9.768  0.2030  0.5700  0.5718
 3496TIP3    H131903   4.537   1.736   9.715 -0.6402  1.7654 -1.3651
 3496TIP3    H231904   4.479   1.856   9.787 -1.0917  1.0898 -0.5809
 3497TIP3   OH231905   4.582   0.936  10.296  0.6885  0.1577 -0.1116
 3497TIP3    H131906   4.538   0.898  10.219  0.5838  1.1146 -0.5313
 3497TIP3    H231907   4.604   0.860  10.350 -1.0737 -0.4036 -0.0988
 3498TIP3   OH231908   1.449   3.922  10.298  0.2519 -0.6969 -0.5930
 3498TIP3    H131909   1.485   3.901  10.212 -1.1294 -0.2711 -1.3013
 3498TIP3    H231910   1.447   3.837  10.344  0.2548 -1.0696 -1.2641
 3499TIP3   OH231911   5.459   2.493  12.972  0.0368 -0.9842 -0.3733
 3499TIP3    H131912   5.473   2.580  13.008  0.8207 -0.5702 -1.6118
 3499TIP3    H231913   5.547   2.464  12.945 -0.6033 -0.8001 -2.8982
 3500TIP3   OH231914   1.757   7.042   1.435 -0.0590  0.1352  0.2323
 3500TIP3    H131915   1.748   7.085   1.350  1.3524  0.7435  0.3543
 3500TIP3    H231916   1.670   7.048   1.475 -0.8112 -0.3801 -1.2470
 3501TIP3   OH231917   4.338   7.112  14.866 -1.1035  0.5175  0.0734
 3501TIP3    H131918   4.394   7.181  14.901 -1.4494  0.2735  1.1537
 3501TIP3    H231919   4.336   7.045  14.935 -0.1029 -0.9663 -1.2603
 3502TIP3   OH231920   6.713   0.394  14.388  0.1585 -0.5344 -0.1830
 3502TIP3    H131921   6.755   0.464  14.438  0.8684  0.5577 -2.1723
 3502TIP3    H231922   6.786   0.350  14.344 -0.4103 -1.6777 -0.0146
 3503TIP3   OH231923   1.572   0.013  12.968  0.5393  0.1008  0.3954
 3503TIP3    H131924   1.610   0.082  12.913 -1.2430  1.3257  0.6206
 3503TIP3    H231925   1.545  -0.055  12.907  3.2723 -0.9773  0.2484
 3504TIP3   OH231926   0.364   0.690  12.086  0.1920  0.0607  0.0805
 3504TIP3    H131927   0.447   0.665  12.126 -0.9219 -2.9077  0.8554
 3504TIP3    H231928   0.309   0.718  12.160 -0.2551 -0.3875 -0.0732
 3505TIP3   OH231929   2.647   6.482  13.289  0.1409  0.0299 -0.0055
 3505TIP3    H131930   2.668   6.529  13.370  0.6474 -0.8942  0.4118
 3505TIP3    H231931   2.730   6.481  13.240 -0.1166  0.4206 -0.4652
 3506TIP3   OH231932   4.060   0.497  11.291  0.0789 -0.5295  0.1255
 3506TIP3    H131933   4.047   0.436  11.364 -1.9860 -0.3531 -0.0398
 3506TIP3    H231934   4.155   0.504  11.282  0.3830 -1.0159  2.4120
 3507TIP3   OH231935   6.045   7.112   0.939  0.1317 -0.8063 -0.1478
 3507TIP3    H131936   6.045   7.179   1.007 -0.8777  0.0042 -0.9244
 3507TIP3    H231937   5.982   7.047   0.969 -0.0406 -0.6345 -0.1390
 3508TIP3   OH231938   1.123   0.285   4.227  0.1585  0.1373  0.2194
 3508TIP3    H131939   1.185   0.323   4.290  2.0711 -0.6598 -1.1024
 3508TIP3    H231940   1.161   0.304   4.141 -0.9129 -1.2785 -0.6110
 3509TIP3   OH231941   4.858   2.462  12.047 -0.0514  0.0178 -0.0437
 3509TIP3    H131942   4.791   2.529  12.044 -0.2421 -0.1051  0.9702
 3509TIP3    H231943   4.940   2.508  12.031 -0.0247  0.7601  1.9365
 3510TIP3   OH231944   2.816   6.398  10.653  0.1611 -0.5627  0.3477
 3510TIP3    H131945   2.841   6.465  10.590 -0.5251 -1.9036 -1.4250
 3510TIP3    H231946   2.793   6.447  10.732 -2.1215  1.5265 -1.4394
 3511TIP3   OH231947   1.038   1.924  12.664 -0.4474 -0.8058  0.2301
 3511TIP3    H131948   1.124   1.885  12.651  0.1140 -0.1084  1.5438
 3511TIP3    H231949   0.978   1.850  12.668  0.3095 -1.4144  0.6886
 3512TIP3   OH231950   0.997   3.279   1.308  0.4281 -0.2637  0.6843
 3512TIP3    H131951   0.982   3.282   1.402 -3.0336 -0.9100  0.3011
 3512TIP3    H231952   1.023   3.369   1.285 -0.2597  0.3170  2.0689
 3513TIP3   OH231953   0.428   2.004  12.707 -0.0344  0.1232 -0.0885
 3513TIP3    H131954   0.442   1.913  12.682 -0.8212 -0.3550  1.0758
 3513TIP3    H231955   0.359   2.000  12.774  0.0301  1.5556  0.1066
 3514TIP3   OH231956   0.598   2.390  12.342  0.2216  0.3359  0.1528
 3514TIP3    H131957   0.650   2.435  12.409 -1.0843 -0.8487  2.0610
 3514TIP3    H231958   0.528   2.452  12.321  0.8172  0.8420 -0.4062
 3515TIP3   OH231959   6.225   3.007   9.998  0.0885  0.6876  0.0268
 3515TIP3    H131960   6.193   3.027   9.910  0.1437 -0.6943 -0.3236
 3515TIP3    H231961   6.277   3.083  10.023  1.2819  0.4826 -1.7242
 3516TIP3   OH231962   6.182   6.274  12.329 -0.2230  0.9445 -0.4076
 3516TIP3    H131963   6.142   6.232  12.253 -1.2434  0.4651  0.3812
 3516TIP3    H231964   6.276   6.269  12.312 -0.3253 -1.1539 -0.6200
 3517TIP3   OH231965   1.846   1.724  11.463 -0.1165 -0.6730  0.3237
 3517TIP3    H131966   1.815   1.648  11.414  1.6198 -0.9414 -0.4428
 3517TIP3    H231967   1.858   1.692  11.552  0.5591 -1.3113  0.0166
 3518TIP3   OH231968   1.978   3.465  12.293 -0.1429 -0.2926  0.1757
 3518TIP3    H131969   1.887   3.443  12.274 -0.1317 -1.2266  1.0860
 3518TIP3    H231970   1.972   3.530  12.363 -0.1215  0.4890 -0.5387
 3519TIP3   OH231971   6.059   4.149  14.000 -0.0135 -0.1638  0.2414
 3519TIP3    H131972   6.023   4.101  13.925  0.0136  0.3109 -0.0775
 3519TIP3    H231973   6.144   4.180  13.971  0.0190 -0.0193  0.4869
 3520TIP3   OH231974   3.730   0.569  11.254  0.7232 -1.1185 -0.3382
 3520TIP3    H131975   3.657   0.603  11.306  1.9414 -2.1890  2.2468
 3520TIP3    H231976   3.738   0.478  11.282  1.6661 -1.6646 -2.2518
 3521TIP3   OH231977   1.423   3.092  11.701  0.4463 -0.2635 -0.2844
 3521TIP3    H131978   1.366   3.108  11.626  0.3570  0.9324  0.0134
 3521TIP3    H231979   1.498   3.044  11.666  0.2454 -0.0078 -1.0705
 3522TIP3   OH231980   2.067   2.608  14.391 -0.3366  0.2035 -0.1010
 3522TIP3    H131981   2.076   2.669  14.318  1.5247 -0.0979 -0.1865
 3522TIP3    H231982   2.139   2.632  14.450 -1.0692 -0.3514  1.0449
 3523TIP3   OH231983   2.274   4.300   0.008 -0.4878  0.1696  0.1961
 3523TIP3    H131984   2.358   4.327  -0.028  0.1531 -1.6547  0.2401
 3523TIP3    H231985   2.230   4.254  -0.064 -0.5916 -0.6153  0.7437
 3524TIP3   OH231986   1.796   4.838  14.298  0.0191  0.0732  0.4337
 3524TIP3    H131987   1.743   4.856  14.376  0.2674 -0.3406  0.7013
 3524TIP3    H231988   1.875   4.796  14.332  1.6799  2.8506  0.3095
 3525TIP3   OH231989   6.530   4.189  12.546 -0.0104 -0.3045  0.0210
 3525TIP3    H131990   6.525   4.120  12.480  0.1928  0.4326 -0.7737
 3525TIP3    H231991   6.580   4.259  12.504 -0.2908  0.3622  0.7862
 3526TIP3   OH231992   3.571   0.701  11.059 -0.2394  0.0854  0.4717
 3526TIP3    H131993   3.638   0.655  11.110  2.9388  1.8447 -1.8084
 3526TIP3    H231994   3.533   0.764  11.120  0.8483 -0.2908  1.5692
 3527TIP3   OH231995   4.450   6.925   0.663 -0.2622 -0.4768  0.4856
 3527TIP3    H131996   4.507   6.950   0.736 -1.6640 -0.6671  1.7040
 3527TIP3    H231997   4.435   7.007   0.615  0.3186 -0.2581  0.6756
 3528TIP3   OH231998   5.414   1.539  13.361  0.3589  0.2932 -0.7608
 3528TIP3    H131999   5.488   1.500  13.313  1.0625 -0.1981  0.6620
 3528TIP3    H232000   5.438   1.529  13.453 -2.1818 -1.2386 -0.2004
 3529TIP3   OH232001   6.885   5.843  14.765  0.3427 -0.2976 -0.2175
 3529TIP3    H132002   6.790   5.856  14.758  0.2038 -1.9111 -2.6379
 3529TIP3    H232003   6.894   5.753  14.798  1.0313 -0.2427 -0.2459
 3530TIP3   OH232004   1.892   4.923  12.431  0.1767  0.3065  0.1200
 3530TIP3    H132005   1.913   4.910  12.523 -1.0433  1.2554  0.5563
 3530TIP3    H232006   1.836   5.000  12.430  1.6406  1.4309 -1.6124
 3531TIP3   OH232007   4.281   3.846  12.761  0.2687 -0.3060  0.2226
 3531TIP3    H132008   4.244   3.809  12.681 -0.0588  0.8524 -0.1877
 3531TIP3    H232009   4.334   3.776  12.799 -0.3549 -1.1800 -0.4974
 3532TIP3   OH232010   5.283   1.848  12.069 -0.7898  0.0762  0.1066
 3532TIP3    H132011   5.340   1.840  11.992 -1.4000 -1.4381 -0.2345
 3532TIP3    H232012   5.263   1.942  12.075  1.5293  0.6214  0.1198
 3533TIP3   OH232013   5.457   4.933   9.243 -0.1175 -0.8824 -0.2948
 3533TIP3    H132014   5.423   4.853   9.202 -0.1034 -0.2017 -1.6812
 3533TIP3    H232015   5.387   4.997   9.231 -0.4558 -0.8553  1.5061
 3534TIP3   OH232016   1.443   3.076  10.619  0.1269 -0.3932 -0.1909
 3534TIP3    H132017   1.389   3.154  10.634 -0.0880 -0.4580 -0.6053
 3534TIP3    H232018   1.445   3.066  10.524  0.0634 -0.9542 -0.1358
 3535TIP3   OH232019   4.755   5.865  12.133  0.6146  0.3147 -0.1678
 3535TIP3    H132020   4.782   5.822  12.214 -0.0444  0.0517 -0.0840
 3535TIP3    H232021   4.711   5.797  12.083 -0.3144  0.8410 -0.0927
 3536TIP3   OH232022   1.311   0.588  11.043  0.8707 -0.5353 -0.1847
 3536TIP3    H132023   1.234   0.607  11.098  0.0477 -1.1076 -1.0992
 3536TIP3    H232024   1.386   0.602  11.101  0.2574  2.7838 -0.0187
 3537TIP3   OH232025   6.411   0.557   9.820 -0.4853 -0.3477  0.5065
 3537TIP3    H132026   6.338   0.528   9.766 -0.1352  0.2656 -0.3147
 3537TIP3    H232027   6.489   0.532   9.771 -0.1645  0.7761  0.4034
 3538TIP3   OH232028   5.739   4.692  10.241 -0.0970  0.6736  0.0852
 3538TIP3    H132029   5.731   4.615  10.184  0.2638  0.2334  0.6167
 3538TIP3    H232030   5.827   4.686  10.278 -0.6774  0.3642  1.4911
 3539TIP3   OH232031   2.760   6.596  11.545  1.0159  0.6776 -0.1473
 3539TIP3    H132032   2.852   6.570  11.547  0.9589  0.4693 -0.1598
 3539TIP3    H232033   2.717   6.527  11.494  0.7858  0.5546  0.2117
 3540TIP3   OH232034   3.846   4.533  10.531  0.0377 -0.5658 -0.1476
 3540TIP3    H132035   3.786   4.543  10.606  1.7984  1.1974  1.1318
 3540TIP3    H232036   3.788   4.524  10.455 -1.8258 -1.1242  1.2536
 3541TIP3   OH232037   4.680   2.032  11.833 -0.0820  0.4132  0.2202
 3541TIP3    H132038   4.683   2.080  11.916 -0.2392  1.5989 -0.4326
 3541TIP3    H232039   4.670   2.101  11.767  1.6541 -0.3647 -0.9226
 3542TIP3   OH232040   0.061   4.558  14.140  0.2352 -0.7558 -0.0530
 3542TIP3    H132041  -0.034   4.545  14.143  0.2436 -0.7202  0.6524
 3542TIP3    H232042   0.076   4.609  14.061 -0.1840 -1.8874 -0.8921
 3543TIP3   OH232043   6.256   0.512  12.736  0.6672 -0.7180 -0.3282
 3543TIP3    H132044   6.272   0.606  12.747 -0.1011 -0.6627  0.4043
 3543TIP3    H232045   6.324   0.483  12.676  1.1401  0.2385 -0.2699
 3544TIP3   OH232046   6.053   2.715  11.001  0.2530 -0.0638 -0.0291
 3544TIP3    H132047   5.996   2.681  11.069 -0.3193 -1.3237 -1.0841
 3544TIP3    H232048   6.098   2.638  10.966  0.5007  0.5315 -1.0905
 3545TIP3   OH232049   3.288   0.083   4.487 -0.0473 -0.0709  0.3763
 3545TIP3    H132050   3.248   0.074   4.400  1.2956 -0.6314 -0.2140
 3545TIP3    H232051   3.251   0.165   4.521 -2.4106 -1.0353  0.3035
 3546TIP3   OH232052   0.860   2.678  13.901 -0.4851  0.1815 -0.2653
 3546TIP3    H132053   0.824   2.629  13.974  0.3426  1.8046  1.3111
 3546TIP3    H232054   0.817   2.763  13.905  0.8139  0.8877 -0.5903
 3547TIP3   OH232055   6.144   2.269  14.658 -0.3100  0.1734  0.0254
 3547TIP3    H132056   6.129   2.221  14.577  0.3704 -2.0550  1.1313
 3547TIP3    H232057   6.069   2.328  14.665  0.4506  1.6820 -3.0001
 3548TIP3   OH232058   0.123   4.227   9.697  0.2323 -0.3901 -0.2423
 3548TIP3    H132059   0.198   4.187   9.652 -0.6606 -0.6785 -1.5463
 3548TIP3    H232060   0.066   4.154   9.718  0.2780 -0.1660  0.6990
 3549TIP3   OH232061   1.951   5.796   0.321  0.3353 -0.4202 -0.7080
 3549TIP3    H132062   1.896   5.835   0.254 -0.1938  0.5528  0.2556
 3549TIP3    H232063   1.997   5.869   0.361 -1.4786 -0.5261  1.8517
 3550TIP3   OH232064   0.126   4.706  11.630  0.6750 -0.2686 -0.4748
 3550TIP3    H132065   0.121   4.651  11.709  1.0985  0.2210 -0.1057
 3550TIP3    H232066   0.219   4.710  11.610  0.5548 -0.5315 -1.1080
 3551TIP3   OH232067   0.680   4.358   4.087  0.0835  0.0382 -0.1157
 3551TIP3    H132068   0.674   4.338   3.993  0.1069  0.4156 -0.2005
 3551TIP3    H232069   0.592   4.389   4.110 -0.1824 -0.9071  0.1958
 3552TIP3   OH232070   0.406   0.441  10.233  0.3230 -0.0575  0.1005
 3552TIP3    H132071   0.385   0.534  10.244 -1.0009 -0.2525 -0.4514
 3552TIP3    H232072   0.501   0.437  10.227  0.3231  1.6797 -2.9307
 3553TIP3   OH232073   4.559   2.525   4.442 -0.0623  0.7818 -0.1830
 3553TIP3    H132074   4.546   2.481   4.525  1.9560 -0.7017 -0.5852
 3553TIP3    H232075   4.654   2.537   4.434 -0.2196  1.2672 -2.0763
 3554TIP3   OH232076   6.474   0.364  14.287  0.3577  0.3814 -0.5299
 3554TIP3    H132077   6.554   0.366  14.339  0.7145  0.0728 -1.0679
 3554TIP3    H232078   6.404   0.375  14.352  0.6310 -2.4516  0.3781
 3555TIP3   OH232079   3.154   3.578  11.909  0.1616 -0.0596 -0.5087
 3555TIP3    H132080   3.233   3.560  11.959 -1.0635 -1.2181  1.1178
 3555TIP3    H232081   3.124   3.492  11.878 -1.0089  0.2164 -0.2007
 3556TIP3   OH232082   3.207   6.790  10.896 -0.2841  0.3178  0.3159
 3556TIP3    H132083   3.184   6.856  10.962 -0.2137  0.0295  0.6304
 3556TIP3    H232084   3.145   6.719  10.910  0.8621 -0.5351  1.2726
 3557TIP3   OH232085   4.623   1.941  10.537  0.2455 -0.0122 -0.5433
 3557TIP3    H132086   4.637   1.977  10.449  2.7147 -2.7366 -1.4390
 3557TIP3    H232087   4.709   1.944  10.578  0.0083 -2.2815  0.2728
 3558TIP3   OH232088   5.224   1.698  11.149  0.3762 -0.0931  0.4212
 3558TIP3    H132089   5.281   1.774  11.133 -0.9806  1.6110  3.0382
 3558TIP3    H232090   5.135   1.732  11.137 -0.2342 -1.8210 -0.2612
 3559TIP3   OH232091   4.982   0.606  13.118  0.2006 -0.0471  0.1360
 3559TIP3    H132092   4.961   0.552  13.194  2.0409 -0.9311  0.0637
 3559TIP3    H232093   4.960   0.551  13.043 -0.6265  0.4322  0.0072
 3560TIP3   OH232094   0.256   1.654  11.619 -0.3022 -0.4219 -0.2989
 3560TIP3    H132095   0.345   1.662  11.653  0.1791 -0.3417 -1.5160
 3560TIP3    H232096   0.226   1.568  11.648  0.3871 -0.6868 -0.3604
 3561TIP3   OH232097   6.498   0.117  14.891 -0.1442 -0.5194  0.3123
 3561TIP3    H132098   6.496   0.064  14.812  0.8793  2.2331 -1.6928
 3561TIP3    H232099   6.591   0.125  14.912 -0.1056  1.8403 -0.5007
 3562TIP3   OH232100   1.764   3.558  14.724 -0.1112 -0.0394 -0.6678
 3562TIP3    H132101   1.858   3.553  14.706  0.2175 -2.5554  1.2528
 3562TIP3    H232102   1.722   3.542  14.640  1.1854 -0.2154 -1.2958
 3563TIP3   OH232103   1.966   2.127  12.498 -0.2546  0.4348  0.3228
 3563TIP3    H132104   2.044   2.075  12.483  1.3724  2.6909  0.4758
 3563TIP3    H232105   1.932   2.145  12.410  0.2094  0.5808  0.1699
 3564TIP3   OH232106   6.057   6.938  11.616 -0.0982 -0.4114 -0.2343
 3564TIP3    H132107   6.030   6.846  11.612 -1.0902 -0.1600  0.4184
 3564TIP3    H232108   6.091   6.949  11.705 -0.4674 -0.0216 -0.1378
 3565TIP3   OH232109   1.555   0.851   9.799  0.0518 -0.5890  0.1541
 3565TIP3    H132110   1.597   0.769   9.826  0.6343 -0.2134  0.4047
 3565TIP3    H232111   1.467   0.845   9.834  0.8597  0.0196  2.4945
 3566TIP3   OH232112   0.260   2.535  12.017  0.3096  0.4416 -0.3258
 3566TIP3    H132113   0.228   2.589  11.944 -0.8079 -1.0537 -1.0040
 3566TIP3    H232114   0.261   2.446  11.982  2.3086  0.0134  0.6927
 3567TIP3   OH232115   2.910   1.721   1.895  0.0778 -0.2921 -0.5621
 3567TIP3    H132116   2.934   1.643   1.943 -1.9139 -1.1645 -0.8683
 3567TIP3    H232117   2.962   1.717   1.815 -0.9668 -2.0665 -1.2070
 3568TIP3   OH232118   2.646   1.902  10.711 -0.7387 -0.3379  0.0962
 3568TIP3    H132119   2.554   1.914  10.689  0.0325  1.1794 -2.9624
 3568TIP3    H232120   2.667   1.814  10.679 -1.1368 -0.7419  0.9294
 3569TIP3   OH232121   1.924   1.509   0.258 -0.1938  0.4531  0.3131
 3569TIP3    H132122   1.922   1.457   0.338  2.3532 -0.8628 -0.3552
 3569TIP3    H232123   1.870   1.461   0.195 -1.3997  0.9807  0.9135
 3570TIP3   OH232124   3.123   3.644  13.105 -0.3743  0.8168  0.5616
 3570TIP3    H132125   3.110   3.593  13.184 -0.5615 -0.5565 -0.3211
 3570TIP3    H232126   3.208   3.616  13.071 -0.0031  1.8565  0.5998
 3571TIP3   OH232127   4.326   5.346  15.106 -0.4416 -0.6430  0.0253
 3571TIP3    H132128   4.334   5.349  15.202 -0.4214  1.8760  0.0313
 3571TIP3    H232129   4.413   5.368  15.074 -0.8750  0.4171 -0.4938
 3572TIP3   OH232130   4.793   3.927   0.124 -0.7306  0.2303 -0.1567
 3572TIP3    H132131   4.727   3.913   0.056  0.5559  1.2235 -1.6967
 3572TIP3    H232132   4.821   4.018   0.112  1.8300 -0.5192 -0.4549
 3573TIP3   OH232133   4.855   3.815   0.418 -0.3111 -1.1272  0.1268
 3573TIP3    H132134   4.920   3.745   0.422 -1.9547 -2.8007 -0.6548
 3573TIP3    H232135   4.850   3.838   0.325 -0.2460 -0.4121  0.2943
 3574TIP3   OH232136   5.301   7.128  10.606  0.0400 -0.3764 -0.1803
 3574TIP3    H132137   5.300   7.168  10.693 -0.6805  1.0999 -0.8304
 3574TIP3    H232138   5.375   7.168  10.561  0.2826 -0.9761 -0.3294
 3575TIP3   OH232139   3.995   6.013  11.525  0.2324 -0.2769 -0.7755
 3575TIP3    H132140   4.021   6.010  11.433  1.5188 -0.9687 -0.4067
 3575TIP3    H232141   4.069   6.054  11.569  0.4474 -1.7088  0.2242
 3576TIP3   OH232142   5.365   0.910  14.056  0.1412 -0.0287 -0.2602
 3576TIP3    H132143   5.295   0.845  14.051  0.0854 -0.0940 -6.6515
 3576TIP3    H232144   5.323   0.993  14.034  1.2518  1.1644  1.7597
 3577TIP3   OH232145   2.120   6.802  12.792 -0.2517 -0.2056 -0.6538
 3577TIP3    H132146   2.026   6.812  12.776  0.0412  0.6535 -2.0257
 3577TIP3    H232147   2.155   6.765  12.711  0.7731  0.7226 -0.6699
 3578TIP3   OH232148   6.641   3.070   0.908  1.0210 -0.9941  0.0869
 3578TIP3    H132149   6.623   2.989   0.955  0.9954 -0.7465  0.5030
 3578TIP3    H232150   6.706   3.045   0.842 -0.0897 -1.6782 -0.7819
 3579TIP3   OH232151   2.281   6.813  15.261  0.5425  0.2640 -0.1626
 3579TIP3    H132152   2.293   6.766  15.343 -0.9535 -1.1709 -0.6994
 3579TIP3    H232153   2.269   6.743  15.196  3.7649  1.2446 -2.0511
 3580TIP3   OH232154   6.909   2.490  14.786  0.2110  0.0252  0.4646
 3580TIP3    H132155   6.863   2.535  14.715 -0.2262 -1.2064 -0.0651
 3580TIP3    H232156   6.886   2.538  14.865 -1.0661  0.1264  0.0479
 3581TIP3   OH232157   4.569   5.047  12.026 -0.1828 -0.3493  0.0865
 3581TIP3    H132158   4.584   5.085  11.939  0.4053  1.8361  1.0598
 3581TIP3    H232159   4.501   5.102  12.064 -0.8037 -1.6019  0.8470
 3582TIP3   OH232160   5.101   1.954  10.731  0.2055 -0.0567 -0.5750
 3582TIP3    H132161   5.164   1.984  10.797 -1.2483  1.0540  0.3686
 3582TIP3    H232162   5.124   1.862  10.717  1.9292  0.2649 -0.1579
 3583TIP3   OH232163   1.182   3.464  11.165 -0.2777  0.1299 -0.4973
 3583TIP3    H132164   1.098   3.431  11.132 -1.0202  1.3190  0.1186
 3583TIP3    H232165   1.164   3.555  11.188  0.6263 -0.1923  1.6550
 3584TIP3   OH232166   2.173   3.541  11.125 -0.8811  0.3772  0.0209
 3584TIP3    H132167   2.179   3.456  11.168 -0.4668  0.5436  0.2993
 3584TIP3    H232168   2.184   3.605  11.196 -0.7488  0.6583 -0.2474
 3585TIP3   OH232169   0.636   2.022   1.908  0.3446  0.2499 -0.3499
 3585TIP3    H132170   0.624   1.933   1.940 -0.0798 -0.1245 -1.4922
 3585TIP3    H232171   0.602   2.020   1.818  1.7072  1.1837 -0.9204
 3586TIP3   OH232172   0.106   0.732  10.087  0.4668  0.7521  0.0633
 3586TIP3    H132173   0.148   0.742  10.001  0.9731  0.5340  0.2809
 3586TIP3    H232174   0.067   0.645  10.085  0.7293  0.6318  0.1603
 3587TIP3   OH232175   1.470   1.899  12.108 -0.1689 -0.6148 -0.3275
 3587TIP3    H132176   1.512   1.974  12.149  0.6755 -0.8274 -0.7765
 3587TIP3    H232177   1.466   1.833  12.177  1.0788 -0.9068 -0.5163
 3588TIP3   OH232178   3.196   5.467  12.739 -0.3209  0.0935 -0.4613
 3588TIP3    H132179   3.106   5.452  12.711 -0.7588  0.8662  0.4851
 3588TIP3    H232180   3.234   5.519  12.668 -0.5153 -0.4890 -1.0054
 3589TIP3   OH232181   4.287   6.533  11.279 -0.4449  0.1355  0.2960
 3589TIP3    H132182   4.276   6.623  11.249 -0.7501  0.7031  1.9609
 3589TIP3    H232183   4.226   6.526  11.353  1.1115 -0.7528  1.5441
 3590TIP3   OH232184   0.007   0.701  10.582 -0.2657  0.7180  0.5350
 3590TIP3    H132185   0.033   0.653  10.661 -1.0145  1.0192  0.9756
 3590TIP3    H232186   0.078   0.763  10.567  1.5191 -1.5283 -0.9604
 3591TIP3   OH232187   0.502   0.312   1.458 -0.3534  0.3941  0.4986
 3591TIP3    H132188   0.556   0.233   1.461  0.3457  0.8460  0.1766
 3591TIP3    H232189   0.564   0.384   1.468 -0.9968  0.9033  0.9030
 3592TIP3   OH232190   0.902   0.456   1.922 -0.0027  0.0256  0.1791
 3592TIP3    H132191   0.977   0.515   1.915  2.4829 -2.8155  0.7072
 3592TIP3    H232192   0.856   0.465   1.839  0.7426  1.9913 -0.0842
 3593TIP3   OH232193   0.670   1.498  12.220 -0.0812  0.0540 -0.2527
 3593TIP3    H132194   0.598   1.556  12.243 -1.2932 -1.8533  1.0052
 3593TIP3    H232195   0.744   1.556  12.205 -1.7837  2.0603 -1.3298
 3594TIP3   OH232196   0.575   2.755  10.790 -0.0728  0.4316 -0.1226
 3594TIP3    H132197   0.609   2.841  10.815  1.1237  0.4695 -1.7307
 3594TIP3    H232198   0.583   2.702  10.870  2.6243  0.8215 -0.0367
 3595TIP3   OH232199   3.485   3.528  10.208 -0.2318 -0.9791 -0.2997
 3595TIP3    H132200   3.537   3.593  10.256  0.7409 -1.5846 -0.5073
 3595TIP3    H232201   3.413   3.578  10.170 -0.2428 -0.2541  0.6439
 3596TIP3   OH232202   4.738   2.728   4.804  0.6992  0.3725 -0.1769
 3596TIP3    H132203   4.793   2.784   4.859  2.0717  0.4352 -1.5535
 3596TIP3    H232204   4.717   2.783   4.728  3.2292 -1.2710 -2.2610
 3597TIP3   OH232205   5.800   5.477  10.360  0.4793 -0.0282 -0.2997
 3597TIP3    H132206   5.750   5.501  10.438 -1.6552 -2.4387 -0.7943
 3597TIP3    H232207   5.744   5.504  10.286  1.8405  0.9700 -1.0124
 3598TIP3   OH232208   4.781   1.610  11.189  0.1524  0.6742 -0.6402
 3598TIP3    H132209   4.703   1.660  11.164 -0.8970 -0.8326 -0.5419
 3598TIP3    H232210   4.794   1.632  11.282 -0.9883 -0.0566 -0.2795
 3599TIP3   OH232211   1.933   6.062  12.066  0.2000  0.5732  0.3250
 3599TIP3    H132212   1.897   5.977  12.091  0.4430 -0.2673 -1.9945
 3599TIP3    H232213   1.871   6.125  12.103  0.1429 -0.5430  2.2993
 3600TIP3   OH232214   4.534   2.354   9.314  0.6820  0.0654  0.2621
 3600TIP3    H132215   4.447   2.320   9.293  0.9176 -1.4403  1.5288
 3600TIP3    H232216   4.594   2.284   9.288  1.2759 -0.0716  1.8630
 3601TIP3   OH232217   5.769   2.494  10.999  0.0448 -0.0716  0.5088
 3601TIP3    H132218   5.683   2.499  10.958  0.7510 -1.7674 -1.3624
 3601TIP3    H232219   5.807   2.581  10.987 -1.2737  0.6148  1.1328
 3602TIP3   OH232220   0.642   2.680  12.522  0.1264  0.7563  0.1409
 3602TIP3    H132221   0.555   2.643  12.532  0.3006 -0.3429 -1.8020
 3602TIP3    H232222   0.629   2.775  12.526 -0.9615  0.5849  1.0211
 3603TIP3   OH232223   0.478   3.829   2.158  0.0434  0.1094  0.2322
 3603TIP3    H132224   0.556   3.873   2.193 -1.2549  1.5889  1.4009
 3603TIP3    H232225   0.512   3.776   2.085  2.1890  0.3750  0.9463
 3604TIP3   OH232226   1.567   1.173  10.528 -0.2934  0.4496  0.0988
 3604TIP3    H132227   1.632   1.200  10.593  1.1719  0.3296 -1.2349
 3604TIP3    H232228   1.516   1.252  10.511  2.4186  1.9156 -2.0264
 3605TIP3   OH232229   7.110   1.095  10.086 -0.3799 -0.6401 -0.0414
 3605TIP3    H132230   7.114   1.012  10.038  1.2516 -0.5235 -0.1891
 3605TIP3    H232231   7.197   1.134  10.074 -0.8080  0.6577  0.7957
 3606TIP3   OH232232   6.151   3.044  14.159 -0.4364  0.5269 -0.6258
 3606TIP3    H132233   6.098   3.080  14.088 -1.0732  1.6438  0.3851
 3606TIP3    H232234   6.239   3.079  14.142 -0.9205  2.1294  0.0022
 3607TIP3   OH232235   5.664   5.635   9.080 -1.0630  0.0123 -0.3443
 3607TIP3    H132236   5.569   5.639   9.070 -0.9564  1.8708 -1.0583
 3607TIP3    H232237   5.697   5.704   9.023  0.6441  0.2428  0.8407
 3608TIP3   OH232238   0.386   2.585  12.245  0.1321  0.5095  0.2274
 3608TIP3    H132239   0.440   2.661  12.223  0.9828 -0.1457  0.0290
 3608TIP3    H232240   0.341   2.563  12.163  0.5547  0.2687  0.0567
 3609TIP3   OH232241   4.447   2.341  14.605 -0.1605  0.5013 -0.1848
 3609TIP3    H132242   4.441   2.247  14.589  0.8333  0.6071 -1.3398
 3609TIP3    H232243   4.530   2.367  14.566  1.3860  1.2756  3.2373
 3610TIP3   OH232244   5.381   3.622  14.652 -0.1708  0.7332 -0.1511
 3610TIP3    H132245   5.329   3.573  14.589 -1.4306 -1.2368  2.2906
 3610TIP3    H232246   5.464   3.574  14.657 -0.3641  0.4459  0.2650
 3611TIP3   OH232247   3.465   4.025  11.088  0.0640 -0.0344 -0.0786
 3611TIP3    H132248   3.555   4.057  11.096 -0.8233  2.7159  0.0774
 3611TIP3    H232249   3.434   4.016  11.178  0.0897 -0.7705 -0.1362
 3612TIP3   OH232250   2.670   5.928  14.589 -0.3915 -0.0489 -0.1550
 3612TIP3    H132251   2.641   6.003  14.537 -1.0104  0.8046  1.3477
 3612TIP3    H232252   2.631   5.852  14.545  0.1444  0.4962 -1.6331
 3613TIP3   OH232253   6.234   6.061  14.728 -0.1275  0.1123 -0.5904
 3613TIP3    H132254   6.211   5.991  14.668 -1.4274 -0.1432  0.1663
 3613TIP3    H232255   6.157   6.117  14.731  0.1032  0.4126  0.4170
 3614TIP3   OH232256   3.896   6.960  11.112 -0.0347  0.1160 -0.4322
 3614TIP3    H132257   3.900   6.876  11.158 -0.5877  0.9043  1.1129
 3614TIP3    H232258   3.825   7.008  11.154 -0.6083  0.8678 -2.1795
 3615TIP3   OH232259   2.465   1.010  11.286 -0.5603 -0.8362  0.1500
 3615TIP3    H132260   2.525   0.984  11.216 -0.5596  0.1835 -0.2347
 3615TIP3    H232261   2.442   1.101  11.267 -0.9155 -0.6812  1.2269
 3616TIP3   OH232262   2.525   4.618  14.842 -0.1370  0.2678  0.3209
 3616TIP3    H132263   2.484   4.532  14.852  1.0383 -0.5977 -1.6909
 3616TIP3    H232264   2.554   4.641  14.930 -1.1096 -1.0467  1.0225
 3617TIP3   OH232265   6.995   3.999  14.884 -0.0637  0.0819 -0.6109
 3617TIP3    H132266   7.008   4.022  14.792  1.0132 -0.4544 -0.6106
 3617TIP3    H232267   7.049   4.062  14.932 -1.7223  1.2853 -0.2238
 3618TIP3   OH232268   3.241   5.835  10.555 -1.0380 -0.8512 -0.2386
 3618TIP3    H132269   3.147   5.832  10.534 -0.9065 -1.6463 -0.7312
 3618TIP3    H232270   3.256   5.756  10.606 -1.0307  0.2739  1.5973
 3619TIP3   OH232271   6.568   1.949  11.457 -0.0955  0.3313  0.3466
 3619TIP3    H132272   6.642   1.954  11.395 -0.0963  1.4612  0.4229
 3619TIP3    H232273   6.607   1.967  11.542 -0.1868 -0.7189  0.6209
 3620TIP3   OH232274   6.159   3.157  13.550  0.1489 -0.1741  0.2985
 3620TIP3    H132275   6.171   3.252  13.547 -1.1486  0.0027 -1.9741
 3620TIP3    H232276   6.065   3.145  13.542  0.0847 -1.6741  2.5514
 3621TIP3   OH232277   1.769   1.138  11.997 -0.2475  0.1737  0.4839
 3621TIP3    H132278   1.864   1.155  11.991 -0.3307  1.1621  1.7228
 3621TIP3    H232279   1.750   1.087  11.918  1.0269  1.3281 -0.6410
 3622TIP3   OH232280   5.528   3.876  12.009 -0.3113  0.4775 -0.3097
 3622TIP3    H132281   5.535   3.818  11.934 -1.1353  0.4007 -0.3365
 3622TIP3    H232282   5.509   3.962  11.971  1.4841  0.9258 -0.3087
 3623TIP3   OH232283   0.726   5.782   9.532  0.5219 -0.5333  0.4759
 3623TIP3    H132284   0.770   5.705   9.494  1.2147 -0.2498  0.6946
 3623TIP3    H232285   0.672   5.816   9.461  0.9808 -0.6420  0.0683
 3624TIP3   OH232286   6.031   4.179   0.118 -0.0999 -0.5532  0.1796
 3624TIP3    H132287   6.124   4.175   0.096  0.7096 -0.8501  3.2495
 3624TIP3    H232288   6.012   4.272   0.130  0.4224 -0.6269  1.7400
 3625TIP3   OH232289   3.332   4.985  11.557 -0.0002  0.6863 -0.8302
 3625TIP3    H132290   3.423   4.967  11.536  0.1871 -1.3510  1.3549
 3625TIP3    H232291   3.319   4.947  11.644 -2.5367  2.2862 -0.3914
 3626TIP3   OH232292   0.328   2.200  11.738  0.4745  0.4861  0.4434
 3626TIP3    H132293   0.346   2.106  11.742  0.7191  0.4614 -0.8976
 3626TIP3    H232294   0.404   2.238  11.695 -0.5008  1.0234 -0.8804
 3627TIP3   OH232295   4.827   5.205  13.836 -0.3243  0.0153 -0.3165
 3627TIP3    H132296   4.768   5.212  13.760 -0.8245 -0.8687 -0.0277
 3627TIP3    H232297   4.851   5.112  13.838  0.4794  0.2254  0.0278
 3628TIP3   OH232298   2.436   3.130  10.155 -0.0880  0.2005 -0.5902
 3628TIP3    H132299   2.503   3.176  10.105  0.4726  0.8535  0.7139
 3628TIP3    H232300   2.475   3.116  10.241 -1.1056 -0.6955 -0.2468
 3629TIP3   OH232301   2.955   1.945  14.168 -0.5303 -0.1035 -0.5893
 3629TIP3    H132302   2.875   1.894  14.156 -1.8281  1.5275  0.6487
 3629TIP3    H232303   2.965   1.993  14.086 -0.7226 -0.4042 -0.7945
 3630TIP3   OH232304   0.853   1.108   0.441  0.0311 -0.2551  0.0441
 3630TIP3    H132305   0.789   1.174   0.467 -0.2836 -0.6858  0.3804
 3630TIP3    H232306   0.868   1.125   0.348 -3.8160 -2.7006 -1.2621
 3631TIP3   OH232307   6.471   4.535  12.110  0.0991 -0.0867 -0.1760
 3631TIP3    H132308   6.518   4.452  12.104  0.8972  0.2361  1.1260
 3631TIP3    H232309   6.396   4.517  12.167  1.5579  0.5481  2.1144
 3632TIP3   OH232310   4.432   3.875  13.374 -0.2196 -0.2674 -0.0087
 3632TIP3    H132311   4.460   3.949  13.428 -1.0643  0.7556 -0.9015
 3632TIP3    H232312   4.349   3.847  13.413  1.4519 -2.7168  2.0987
 3633TIP3   OH232313   0.701   0.509  12.400 -0.4391 -0.8512  0.5896
 3633TIP3    H132314   0.615   0.491  12.362  0.1082 -0.7882 -0.7323
 3633TIP3    H232315   0.762   0.458  12.347  0.3805 -0.6640  1.3230
 3634TIP3   OH232316   1.184   4.024  13.953  0.0754 -0.1161  0.0334
 3634TIP3    H132317   1.253   3.972  13.911 -0.4050 -1.0875  0.4063
 3634TIP3    H232318   1.192   4.001  14.046 -0.0429  0.6150  0.2248
 3635TIP3   OH232319   3.961   6.835  14.753  0.2806 -0.2231 -0.4331
 3635TIP3    H132320   3.965   6.741  14.732 -2.0283 -0.8072  1.2515
 3635TIP3    H232321   3.888   6.868  14.700  0.8782  0.5713 -0.7791
 3636TIP3   OH232322   4.672   1.212   0.738  0.4309 -0.5179  0.0957
 3636TIP3    H132323   4.711   1.239   0.821 -0.1077 -0.6568  0.3917
 3636TIP3    H232324   4.708   1.274   0.674 -0.7364  0.8939  0.7465
 3637TIP3   OH232325   0.020   6.463  10.800  0.1990 -0.4448  0.6312
 3637TIP3    H132326   0.069   6.469  10.718  0.6650 -1.7213  0.7936
 3637TIP3    H232327   0.086   6.441  10.866 -0.5491 -2.3042  0.8338
 3638TIP3   OH232328   5.909   5.079   0.182 -0.4855  0.2756 -1.1725
 3638TIP3    H132329   5.828   5.095   0.134 -0.6987 -1.5735 -1.4783
 3638TIP3    H232330   5.889   5.006   0.240  0.5609  0.7361 -0.1788
 3639TIP3   OH232331   4.334   1.163  13.431 -0.8206 -0.5703 -0.1247
 3639TIP3    H132332   4.413   1.196  13.473 -0.4473 -1.2563 -0.2853
 3639TIP3    H232333   4.281   1.241  13.416  0.5999  0.1449 -1.6872
 3640TIP3   OH232334   7.195   0.330  10.570 -0.2951  0.4169  0.3524
 3640TIP3    H132335   7.119   0.304  10.621 -0.0422  2.5707  1.9623
 3640TIP3    H232336   7.159   0.384  10.499 -0.3599  0.7329  0.6210
 3641TIP3   OH232337   0.580   0.072  12.934 -0.6629 -0.2356 -0.0985
 3641TIP3    H132338   0.506   0.099  12.879 -1.7734 -3.3998 -0.3873
 3641TIP3    H232339   0.623   0.003  12.883  1.4659  0.3574  0.8262
 3642TIP3   OH232340   2.932   3.303   1.049 -0.0531  0.1587  0.1318
 3642TIP3    H132341   2.931   3.229   0.988 -0.1017  1.7179 -1.8670
 3642TIP3    H232342   3.012   3.351   1.025 -0.7285  1.4698  0.4462
 3643TIP3   OH232343   5.278   0.933  12.563 -0.0901  0.0987  0.0846
 3643TIP3    H132344   5.307   0.986  12.488 -0.7625  0.1493 -0.1537
 3643TIP3    H232345   5.314   0.978  12.639 -0.0878  0.5199 -0.1586
 3644TIP3   OH232346   1.348   4.426  10.347  0.2895  0.1059 -0.3115
 3644TIP3    H132347   1.368   4.342  10.307 -0.5694  0.0085 -0.5756
 3644TIP3    H232348   1.288   4.404  10.419  2.4272  0.1931  1.5892
 3645TIP3   OH232349   2.946   3.158  12.051 -0.3635  0.1802  0.2023
 3645TIP3    H132350   3.005   3.140  11.977 -1.3609 -0.1433 -0.5348
 3645TIP3    H232351   2.880   3.218  12.014 -0.5431  0.4781  0.9955
 3646TIP3   OH232352   3.791   3.733  14.758 -0.2489  0.4858 -0.0936
 3646TIP3    H132353   3.790   3.688  14.842  1.9379  0.8386  0.1838
 3646TIP3    H232354   3.770   3.666  14.694  0.6499 -0.3950  0.5121
 3647TIP3   OH232355   3.676   4.881  11.199  0.3964  0.3497 -0.1309
 3647TIP3    H132356   3.760   4.840  11.176  0.2165  0.3169 -0.7363
 3647TIP3    H232357   3.652   4.931  11.121  0.4355  1.3278  0.4669
 3648TIP3   OH232358   4.888   3.394   0.150 -0.0650  0.3776  0.1235
 3648TIP3    H132359   4.925   3.311   0.121 -0.2199 -0.1001  1.2438
 3648TIP3    H232360   4.910   3.400   0.243 -1.0962  1.0092  0.3520
 3649TIP3   OH232361   4.458   4.907  10.667  0.0045  0.2067 -0.0417
 3649TIP3    H132362   4.508   4.982  10.699 -0.4221  0.0543  1.0068
 3649TIP3    H232363   4.429   4.933  10.580  0.9376  0.7437 -0.2083
 3650TIP3   OH232364   5.455   4.826  14.633  0.3807  0.3378  0.2664
 3650TIP3    H132365   5.543   4.850  14.603  1.9379 -1.3854  3.0126
 3650TIP3    H232366   5.424   4.763  14.568  1.4894  0.3861 -0.3298
 3651TIP3   OH232367   4.206   6.480   0.167  0.1242  0.1717  0.5427
 3651TIP3    H132368   4.265   6.406   0.181 -0.3374 -0.6384 -1.4364
 3651TIP3    H232369   4.240   6.523   0.087 -2.4559 -0.9414 -1.2868
 3652TIP3   OH232370   3.644   5.048  10.980 -0.4942 -0.1740  0.0362
 3652TIP3    H132371   3.627   5.141  10.964  2.2464  0.3524 -0.2810
 3652TIP3    H232372   3.597   5.003  10.909 -0.2809  1.1196 -0.9786
 3653TIP3   OH232373   5.193   1.060  15.246  0.0787  0.0498 -0.3554
 3653TIP3    H132374   5.143   0.978  15.246  1.2827 -0.7561  1.5769
 3653TIP3    H232375   5.282   1.035  15.221  0.5022  0.7212  0.4288
 3654TIP3   OH232376   0.457   5.623  12.180 -0.0496 -0.3209  0.2781
 3654TIP3    H132377   0.467   5.529  12.163  0.3534 -0.1880 -0.2320
 3654TIP3    H232378   0.446   5.662  12.094 -4.5627 -0.3456  0.5869
 3655TIP3   OH232379   0.639   5.093  10.970 -0.0397 -0.5070  0.1253
 3655TIP3    H132380   0.679   5.063  11.052 -2.8672  0.0156  1.8179
 3655TIP3    H232381   0.589   5.170  10.994 -0.7115 -0.1364 -2.2011
 3656TIP3   OH232382   4.092   2.139  14.342 -0.0080  0.0082 -0.1636
 3656TIP3    H132383   4.148   2.064  14.360 -0.7398 -0.1751  1.5655
 3656TIP3    H232384   4.077   2.136  14.248 -0.3201 -2.2522 -0.0931
 3657TIP3   OH232385   2.648   2.707  11.277 -0.4022  0.6956 -0.5334
 3657TIP3    H132386   2.736   2.669  11.278 -0.4530  0.5811 -0.3899
 3657TIP3    H232387   2.589   2.632  11.287 -0.4950  0.8312 -0.0286
 3658TIP3   OH232388   3.417   0.882  11.211  0.3374 -0.0240  0.4966
 3658TIP3    H132389   3.377   0.945  11.151  1.5533  0.1295 -0.1751
 3658TIP3    H232390   3.469   0.935  11.271 -0.2028 -0.2443  1.1727
 3659TIP3   OH232391   1.679   5.999  12.208  0.0409 -0.5208 -0.5133
 3659TIP3    H132392   1.671   6.093  12.223  2.3686 -0.3545  0.1194
 3659TIP3    H232393   1.732   5.968  12.282  0.7093 -2.0342 -1.5905
 3660TIP3   OH232394   2.668   0.299  10.835 -0.0511 -0.1861 -0.5449
 3660TIP3    H132395   2.575   0.323  10.842 -0.5117 -2.0183  0.4777
 3660TIP3    H232396   2.698   0.340  10.754 -1.0164  2.6582  0.4032
 3661TIP3   OH232397   4.193   2.305  14.053 -0.0598  0.1274  0.2006
 3661TIP3    H132398   4.131   2.333  14.121  0.2687 -1.0702  1.0197
 3661TIP3    H232399   4.262   2.372  14.055 -0.5117  0.5960  0.3937
 3662TIP3   OH232400   3.287   5.137  12.696  0.1610  0.0992 -0.0514
 3662TIP3    H132401   3.324   5.049  12.687 -1.8961 -0.8603  0.0953
 3662TIP3    H232402   3.361   5.193  12.716  1.7120 -1.4040 -1.2710
 3663TIP3   OH232403   0.140   0.320  14.435  0.2279  0.2042 -0.2818
 3663TIP3    H132404   0.181   0.247  14.390  1.9472  0.5587  0.6387
 3663TIP3    H232405   0.213   0.376  14.463 -0.8624  0.8197  1.5076
 3664TIP3   OH232406   0.049   5.014   0.957 -0.3848  0.1381 -0.7232
 3664TIP3    H132407   0.059   4.919   0.947 -1.6606 -0.1632  0.5594
 3664TIP3    H232408   0.119   5.039   1.017  0.2510  0.1074 -1.4343
 3665TIP3   OH232409   4.591   1.211  12.414  0.2587 -0.3931 -0.3753
 3665TIP3    H132410   4.659   1.157  12.373 -0.5356 -2.3346  0.7834
 3665TIP3    H232411   4.614   1.212  12.507  0.8527  2.2267 -0.4704
 3666TIP3   OH232412   0.597   2.753  12.207  0.0481  0.0296  0.5569
 3666TIP3    H132413   0.552   2.824  12.162 -1.0430 -1.7304 -1.3154
 3666TIP3    H232414   0.689   2.765  12.184  0.0134  1.2945  0.9902
 3667TIP3   OH232415   0.352   6.969  10.315  0.5505 -0.1237  0.0457
 3667TIP3    H132416   0.399   7.020  10.382 -0.7660 -0.4967  1.3095
 3667TIP3    H232417   0.268   6.950  10.355  0.1387 -1.3167 -1.3226
 3668TIP3   OH232418   5.934   6.348   2.186  1.1463  0.0288  0.2335
 3668TIP3    H132419   5.918   6.324   2.277 -0.3754 -0.6052 -0.1874
 3668TIP3    H232420   5.914   6.441   2.182 -0.2649 -0.2630  0.2280
 3669TIP3   OH232421   4.857   4.923  14.219 -0.3740 -0.0084  0.1442
 3669TIP3    H132422   4.818   4.897  14.303  1.9041 -0.2456  1.2010
 3669TIP3    H232423   4.877   4.840  14.176  1.9950 -0.0207  1.1420
 3670TIP3   OH232424   4.700   4.302  12.655 -0.0441 -0.2242  0.0593
 3670TIP3    H132425   4.642   4.239  12.612 -0.6341  0.0448  0.4475
 3670TIP3    H232426   4.784   4.258  12.660 -0.2135 -0.6196 -0.5181
 3671TIP3   OH232427   4.199   1.139   1.117  0.8268 -0.1189  0.1532
 3671TIP3    H132428   4.197   1.044   1.123  1.9639 -0.2770 -1.2909
 3671TIP3    H232429   4.109   1.166   1.134  0.4280 -1.4720  0.3211
 3672TIP3   OH232430   0.294   1.491  14.823  0.1587 -0.4841  0.5053
 3672TIP3    H132431   0.199   1.499  14.810  0.0829 -2.3436 -0.2817
 3672TIP3    H232432   0.330   1.569  14.780 -1.0028  0.3502  0.9775
 3673TIP3   OH232433   3.814   0.735   1.984 -0.5524  0.1786 -0.2112
 3673TIP3    H132434   3.721   0.743   2.008 -0.6041  2.0359 -0.9263
 3673TIP3    H232435   3.858   0.723   2.068 -1.4347 -1.0358  0.1197
 3674TIP3   OH232436   5.079   2.717  10.679 -0.3453  0.7312  0.5750
 3674TIP3    H132437   5.059   2.739  10.770 -2.4145 -1.1708  0.6488
 3674TIP3    H232438   5.137   2.641  10.684 -2.6927 -1.1786  0.4049
 3675TIP3   OH232439   4.433   6.879   2.044  0.1573 -0.3133 -0.6803
 3675TIP3    H132440   4.446   6.839   2.130  0.1517 -1.8060 -1.3490
 3675TIP3    H232441   4.368   6.947   2.059  1.1989  0.4136  0.7623
 3676TIP3   OH232442   6.505   5.222  11.821 -0.3488  0.2893 -0.0828
 3676TIP3    H132443   6.439   5.291  11.821 -1.9459 -1.1820  0.9919
 3676TIP3    H232444   6.541   5.223  11.910  1.1686  1.1098 -0.6664
 3677TIP3   OH232445   3.682   2.622   9.954  0.0686  0.0892  0.2291
 3677TIP3    H132446   3.684   2.717   9.954  0.1606  0.0887  0.0305
 3677TIP3    H232447   3.740   2.597   9.882  1.3807 -0.1484  1.3189
 3678TIP3   OH232448   3.359   2.847   9.254 -0.2669 -0.3713 -0.1426
 3678TIP3    H132449   3.449   2.849   9.222  0.1289 -2.5854  0.6613
 3678TIP3    H232450   3.354   2.920   9.317  1.4848 -1.2030  1.0389
 3679TIP3   OH232451   0.150   5.852   1.604  0.0760  0.7795  0.4624
 3679TIP3    H132452   0.204   5.841   1.683 -0.6570  1.1484  1.0308
 3679TIP3    H232453   0.207   5.827   1.532  0.3574 -0.8961  1.2051
 3680TIP3   OH232454   3.555   5.229  12.660  0.0460 -0.6137 -0.4282
 3680TIP3    H132455   3.611   5.186  12.596  0.9599 -0.5181  0.2923
 3680TIP3    H232456   3.611   5.244  12.735 -1.0550 -0.8786  0.4739
 3681TIP3   OH232457   6.731   0.736  15.269  0.1994  0.2360 -0.0858
 3681TIP3    H132458   6.826   0.730  15.260  0.2229 -1.1653  0.8017
 3681TIP3    H232459   6.697   0.680  15.199 -0.0038  1.2849 -0.8403
 3682TIP3   OH232460   2.406   1.681  10.400 -0.2279  0.2742  0.4288
 3682TIP3    H132461   2.393   1.628  10.322 -0.2213 -0.6144  1.0123
 3682TIP3    H232462   2.322   1.725  10.414 -0.0912  0.7983 -0.3180
 3683TIP3   OH232463   2.649   5.748  12.908 -0.2453 -0.2853  0.5940
 3683TIP3    H132464   2.612   5.794  12.834  2.2241  0.4873 -0.2537
 3683TIP3    H232465   2.619   5.796  12.985 -0.5914  0.5886 -0.0800
 3684TIP3   OH232466   4.573   7.003  12.068  0.3577 -0.3518  0.2256
 3684TIP3    H132467   4.523   7.084  12.078  0.2897 -0.4138  0.3869
 3684TIP3    H232468   4.606   7.006  11.978  1.5675  0.5471  0.6716
 3685TIP3   OH232469   6.167   6.017  11.015 -0.3844 -0.0582 -0.0911
 3685TIP3    H132470   6.113   6.073  10.959  1.2619 -1.1014 -2.9300
 3685TIP3    H232471   6.234   5.981  10.956  2.5424  0.0053  2.8897
 3686TIP3   OH232472   0.000   5.673  13.806 -0.5785 -0.1836  0.2668
 3686TIP3    H132473   0.029   5.722  13.729 -3.2031  0.8337 -0.1800
 3686TIP3    H232474   0.080   5.633  13.840  0.7708 -0.2903 -2.6827
 3687TIP3   OH232475   1.667   4.314  11.493 -0.0073 -0.1480 -0.1694
 3687TIP3    H132476   1.743   4.255  11.494 -0.7021 -1.1021  1.2186
 3687TIP3    H232477   1.666   4.353  11.581  0.2502  1.7264 -0.9615
 3688TIP3   OH232478   4.564   4.488   0.601  0.1682 -0.1080  0.2787
 3688TIP3    H132479   4.618   4.510   0.677 -1.0357  0.3389  1.0314
 3688TIP3    H232480   4.616   4.425   0.552  1.9854  1.3723  0.2033
 3689TIP3   OH232481   5.409   6.980  12.846  0.3346  0.2816  0.0932
 3689TIP3    H132482   5.452   6.953  12.928  0.5696 -1.5999 -0.5967
 3689TIP3    H232483   5.372   6.899  12.811 -2.4415  1.5688 -0.1615
 3690TIP3   OH232484   0.008   0.743  13.614  0.0908  0.2845  0.1131
 3690TIP3    H132485  -0.069   0.767  13.666 -0.5864  0.9434 -1.1594
 3690TIP3    H232486   0.046   0.826  13.587 -0.9378  0.0465 -2.3840
 3691TIP3   OH232487   2.500   6.743  13.720 -0.2389  0.3994  0.1496
 3691TIP3    H132488   2.477   6.835  13.707  0.6232  0.5037 -0.8119
 3691TIP3    H232489   2.516   6.735  13.814  2.3365  1.9154 -0.0680
 3692TIP3   OH232490   0.601   0.431   2.538  0.0682  0.1631  0.2583
 3692TIP3    H132491   0.656   0.507   2.522  0.7735 -0.4301 -0.2393
 3692TIP3    H232492   0.604   0.418   2.633  0.9370  0.0447  0.2220
 3693TIP3   OH232493   2.402   3.851   0.065 -0.0044 -0.1870 -0.0844
 3693TIP3    H132494   2.493   3.862   0.093 -0.1756  0.3973  0.2705
 3693TIP3    H232495   2.351   3.872   0.143 -0.4734  0.4629 -0.5619
 3694TIP3   OH232496   2.800   7.034  14.349 -0.1910 -0.3958  0.1292
 3694TIP3    H132497   2.741   7.062  14.278  0.4986 -0.0044 -0.3032
 3694TIP3    H232498   2.876   6.998  14.304 -0.0130 -0.7181  0.6809
 3695TIP3   OH232499   2.047   3.449  12.984  0.1410  0.7871 -0.4549
 3695TIP3    H132500   2.043   3.409  13.070 -1.6988  1.6323 -0.0869
 3695TIP3    H232501   2.022   3.380  12.923  0.1221  0.5320 -0.1564
 3696TIP3   OH232502   0.129   2.238  14.321 -0.5971  0.3657  0.3436
 3696TIP3    H132503   0.103   2.216  14.231 -0.8403 -1.9562  0.9142
 3696TIP3    H232504   0.047   2.245  14.369 -0.4373  0.5325  0.5951
 3697TIP3   OH232505   1.670   1.599   9.823  0.3147  0.0015 -0.1162
 3697TIP3    H132506   1.742   1.641   9.776  1.0380 -0.7773  0.2642
 3697TIP3    H232507   1.592   1.644   9.792  0.6789 -0.8974 -2.6140
 3698TIP3   OH232508   7.132   4.311  14.091  0.7272 -0.2411  0.4756
 3698TIP3    H132509   7.073   4.246  14.130 -0.5845  0.7254  0.1860
 3698TIP3    H232510   7.079   4.355  14.025  1.3712  1.5215  1.0557
 3699TIP3   OH232511   4.746   3.898   2.679  0.0135  0.0956  0.4579
 3699TIP3    H132512   4.689   3.905   2.602  0.8215  0.2061 -0.1359
 3699TIP3    H232513   4.832   3.925   2.648  0.4820 -0.4480  1.2559
 3700TIP3   OH232514   5.519   5.720   8.748  0.2281 -0.6614  0.1993
 3700TIP3    H132515   5.438   5.715   8.799  0.3712 -2.5506  0.3259
 3700TIP3    H232516   5.584   5.673   8.801  2.0186  2.5431  1.0600
 3701TIP3   OH232517   5.096   3.356  10.666 -0.0496 -0.5004  0.7048
 3701TIP3    H132518   5.024   3.399  10.620  0.3102 -1.7757 -1.1797
 3701TIP3    H232519   5.054   3.285  10.714 -0.1459 -0.8955  0.0561
 3702TIP3   OH232520   3.866   1.043  10.519 -0.4671 -0.4803 -0.2710
 3702TIP3    H132521   3.864   1.098  10.597 -0.3105 -0.1699 -0.4831
 3702TIP3    H232522   3.908   0.962  10.548 -0.4764 -0.3950 -0.0159
 3703TIP3   OH232523   3.100   1.358  14.821 -0.2839  0.2133 -0.9016
 3703TIP3    H132524   3.159   1.350  14.745 -0.2948 -1.5353 -0.7521
 3703TIP3    H232525   3.041   1.284  14.814 -0.7189  0.4025  0.4690
 3704TIP3   OH232526   4.924   3.733  10.054  0.1220 -0.8552  0.0537
 3704TIP3    H132527   4.933   3.729  10.149  0.6727 -2.5940 -0.0388
 3704TIP3    H232528   4.999   3.786  10.025 -0.0705 -0.2895  0.5828
 3705TIP3   OH232529   3.488   6.185   2.397  0.4691 -0.2528  0.3102
 3705TIP3    H132530   3.438   6.192   2.478  1.8267 -0.9998  1.2488
 3705TIP3    H232531   3.551   6.115   2.413  1.4526  0.2749 -1.0213
 3706TIP3   OH232532   0.941   0.714   1.267  0.1835  0.0859 -0.3568
 3706TIP3    H132533   0.850   0.688   1.252  0.5189 -1.9672  0.8323
 3706TIP3    H232534   0.954   0.700   1.361  2.8864 -4.0112 -1.0922
 3707TIP3   OH232535   3.537   1.897  13.173  0.0493  0.1647  0.6712
 3707TIP3    H132536   3.466   1.960  13.159 -0.0900 -0.4793 -2.2522
 3707TIP3    H232537   3.615   1.941  13.139  0.0659 -0.9044 -0.8066
 3708TIP3   OH232538   4.708   1.975  10.202  0.3958  0.7719  0.5326
 3708TIP3    H132539   4.668   2.022  10.129 -0.7670  0.1270  0.7321
 3708TIP3    H232540   4.682   1.884  10.189  1.8263  0.3158  0.6676
 3709TIP3   OH232541   0.421   6.308  13.504  0.5419  0.1047 -0.3484
 3709TIP3    H132542   0.491   6.371  13.485  1.5630 -1.0948 -0.7861
 3709TIP3    H232543   0.444   6.231  13.451 -0.7735 -0.5619  0.0082
 3710TIP3   OH232544   3.012   3.988  10.329 -0.0606  0.0364 -0.2210
 3710TIP3    H132545   3.018   4.075  10.289  0.8494 -0.2553 -0.7506
 3710TIP3    H232546   2.976   3.932  10.260  0.0147 -0.1482 -0.1109
 3711TIP3   OH232547   5.447   6.504  12.726 -0.4744 -0.0090  0.0464
 3711TIP3    H132548   5.486   6.460  12.650 -0.0006 -2.0219  1.3846
 3711TIP3    H232549   5.521   6.523  12.783 -1.0384 -0.4880  0.9568
 3712TIP3   OH232550   2.905   1.395  10.562 -0.3391  0.3879  0.3961
 3712TIP3    H132551   2.830   1.340  10.537 -0.5371 -0.2172  2.1870
 3712TIP3    H232552   2.867   1.464  10.616  0.3111  0.4452  0.7892
 3713TIP3   OH232553   4.582   1.469  10.173 -0.2040  0.2185 -0.2450
 3713TIP3    H132554   4.579   1.542  10.234 -0.9266 -1.6882  2.1959
 3713TIP3    H232555   4.529   1.496  10.099  0.1549  2.3964  0.2222
 3714TIP3   OH232556   4.005   1.263  10.355 -0.4010  0.0244  0.4721
 3714TIP3    H132557   4.100   1.271  10.363 -0.3050  0.9281 -1.0274
 3714TIP3    H232558   3.985   1.173  10.381  0.9392 -0.3515  0.2579
 3715TIP3   OH232559   5.968   1.087  10.832 -0.9938  0.7284 -0.0802
 3715TIP3    H132560   6.003   1.033  10.903 -0.1497 -0.7920 -1.5924
 3715TIP3    H232561   6.042   1.101  10.774 -2.0241  0.5773 -1.4822
 3716TIP3   OH232562   5.192   1.698  10.723 -0.5214  0.2661 -0.0922
 3716TIP3    H132563   5.131   1.639  10.767 -0.4448  0.9100  0.9018
 3716TIP3    H232564   5.277   1.655  10.729 -0.8836 -0.7474 -1.6900
 3717TIP3   OH232565   3.516   0.784   0.819 -0.1120  0.1259 -0.7515
 3717TIP3    H132566   3.553   0.714   0.766 -0.8894 -0.6212 -0.3455
 3717TIP3    H232567   3.493   0.742   0.902 -1.6152  0.5896 -0.8940
 3718TIP3   OH232568   1.823   0.452  14.141 -0.0665  0.0489 -0.1994
 3718TIP3    H132569   1.802   0.362  14.115  0.4609  0.0997 -0.8225
 3718TIP3    H232570   1.776   0.507  14.078  0.2342  0.1937 -0.2989
 3719TIP3   OH232571   6.035   2.373  12.683 -0.4815  0.7228 -0.2315
 3719TIP3    H132572   6.026   2.469  12.681 -3.1776  0.5574 -0.9213
 3719TIP3    H232573   6.027   2.351  12.776  1.3192  1.2062  0.0623
 3720TIP3   OH232574   6.033   1.472  13.313 -0.1441 -0.5135  0.1814
 3720TIP3    H132575   5.995   1.549  13.272  0.3161  1.7369  3.5355
 3720TIP3    H232576   5.958   1.422  13.344 -0.4336 -0.4346 -0.3790
 3721TIP3   OH232577   7.209   6.259  14.354 -0.6312  0.3684 -0.8883
 3721TIP3    H132578   7.227   6.234  14.444 -1.0243  1.4686 -0.4973
 3721TIP3    H232579   7.290   6.298  14.322 -0.3330 -0.4690 -1.1825
 3722TIP3   OH232580   5.738   4.883  13.440  0.1534 -0.1003 -0.3429
 3722TIP3    H132581   5.717   4.933  13.361  2.2638 -1.4613 -1.8648
 3722TIP3    H232582   5.828   4.907  13.460 -0.5415  0.7721  2.1842
 3723TIP3   OH232583   4.225   2.792   0.585  0.5517  0.1600  0.1339
 3723TIP3    H132584   4.199   2.703   0.561 -3.1080  0.9771  0.4859
 3723TIP3    H232585   4.163   2.848   0.537  1.5654  2.4355  1.3522
 3724TIP3   OH232586   6.678   0.704  13.062  0.1347  0.2346 -0.7572
 3724TIP3    H132587   6.637   0.617  13.069 -0.3736  0.5484  0.6680
 3724TIP3    H232588   6.770   0.686  13.046 -0.0090 -0.5724 -0.7246
 3725TIP3   OH232589   6.139   6.360   9.952  0.0887 -0.1527 -0.6170
 3725TIP3    H132590   6.161   6.445   9.915  1.4790 -0.0051  0.4765
 3725TIP3    H232591   6.219   6.308   9.942 -0.6901 -1.3161 -1.1480
 3726TIP3   OH232592   0.772   1.315  13.686  0.6371 -0.3691  0.1735
 3726TIP3    H132593   0.756   1.373  13.760 -0.1276  1.5204 -1.3746
 3726TIP3    H232594   0.866   1.320  13.670  0.7942 -0.7385  0.9455
 3727TIP3   OH232595   0.161   6.202  11.101 -0.2853 -0.0031  0.3425
 3727TIP3    H132596   0.110   6.156  11.034 -1.2801  2.3595 -0.6674
 3727TIP3    H232597   0.192   6.282  11.057  1.6668  0.1650  1.8584
 3728TIP3   OH232598   5.185   5.771  14.287 -0.4542 -0.2502  0.0043
 3728TIP3    H132599   5.131   5.719  14.228 -0.6079 -0.0389 -0.0458
 3728TIP3    H232600   5.239   5.825  14.228 -2.4236  1.8533  0.0013
 3729TIP3   OH232601   0.174   5.565  11.099 -0.1243 -0.5852  0.3908
 3729TIP3    H132602   0.186   5.582  11.005 -0.1552 -0.5962  0.3849
 3729TIP3    H232603   0.148   5.650  11.135 -0.3365 -0.6310  0.3503
 3730TIP3   OH232604   4.893   6.053  11.044 -0.2545 -0.2075  0.6802
 3730TIP3    H132605   4.971   5.998  11.043  0.2684  0.5282 -0.2024
 3730TIP3    H232606   4.866   6.059  10.953  0.1721  1.6050  0.6210
 3731TIP3   OH232607   3.651   7.010   0.372 -0.1584 -0.5652  0.2836
 3731TIP3    H132608   3.580   7.068   0.345 -1.0491 -1.6088  0.3095
 3731TIP3    H232609   3.729   7.048   0.331 -0.5754  1.0415  0.8986
 3732TIP3   OH232610   3.259   7.090  10.324 -0.0585 -0.1325 -0.0357
 3732TIP3    H132611   3.317   7.118  10.395 -0.4834 -0.2275  0.3521
 3732TIP3    H232612   3.311   7.100  10.245 -0.3579  2.2696  0.0212
 3733TIP3   OH232613   3.069   4.594   0.638 -0.0793  0.5623  0.2371
 3733TIP3    H132614   3.145   4.536   0.638 -1.3357 -1.1539  0.2283
 3733TIP3    H232615   3.103   4.678   0.670  2.2293  0.4773 -1.6484
 3734TIP3   OH232616   3.217   1.582  11.071 -0.0904  0.4100 -0.0133
 3734TIP3    H132617   3.197   1.648  11.005 -1.0045  0.8340  0.6703
 3734TIP3    H232618   3.281   1.625  11.129 -0.0225  0.3800 -0.0651
 3735TIP3   OH232619   1.782   2.793  13.472 -0.6782  0.6826  0.1142
 3735TIP3    H132620   1.814   2.705  13.493 -0.4259  0.6551 -0.3790
 3735TIP3    H232621   1.802   2.804  13.379  0.9693  1.9688  0.5820
 3736TIP3   OH232622   0.712   3.003  10.934  0.1127 -0.1420  0.7447
 3736TIP3    H132623   0.632   3.017  10.985 -0.4345  1.1616 -0.4062
 3736TIP3    H232624   0.777   2.974  10.999 -1.1574 -0.8076  1.7711
 3737TIP3   OH232625   0.172   1.948  10.745  0.1442 -0.1990 -0.1712
 3737TIP3    H132626   0.121   2.026  10.768 -0.0904  0.1558 -1.8012
 3737TIP3    H232627   0.114   1.875  10.765  0.4777 -0.0076  1.6579
 3738TIP3   OH232628   5.425   1.448   9.923 -0.1534  0.2155  0.6502
 3738TIP3    H132629   5.329   1.439   9.925 -0.1363  0.0247  0.5721
 3738TIP3    H232630   5.458   1.358   9.921 -0.0036  0.2826 -0.9450
 3739TIP3   OH232631   4.440   0.723   1.574  0.5025  0.4395 -0.7227
 3739TIP3    H132632   4.367   0.769   1.615  0.9497  0.1922  0.3790
 3739TIP3    H232633   4.399   0.660   1.514 -0.2661 -0.6006  0.8270
 3740TIP3   OH232634   7.007   0.965  12.271  0.3757 -0.2833  0.0844
 3740TIP3    H132635   6.966   0.882  12.293 -0.8755  0.0686 -0.8076
 3740TIP3    H232636   7.100   0.944  12.259  0.1302 -1.4856  0.1732
 3741TIP3   OH232637   0.823   0.178  11.835  0.4038 -0.1484  0.0508
 3741TIP3    H132638   0.865   0.152  11.918  1.8861 -1.1260 -0.9594
 3741TIP3    H232639   0.896   0.205  11.779 -0.7329  2.2143 -0.3870
 3742TIP3   OH232640   2.991   6.060   4.215 -0.0373 -0.4811 -0.5220
 3742TIP3    H132641   3.005   6.054   4.310 -1.4785 -1.0535 -0.3185
 3742TIP3    H232642   3.038   5.985   4.179 -1.2293 -1.4997 -0.0252
 3743TIP3   OH232643   0.884   1.081  14.491  0.0237 -0.2440 -0.2582
 3743TIP3    H132644   0.979   1.095  14.498  0.1212 -0.8976 -0.1334
 3743TIP3    H232645   0.867   1.009  14.552 -0.5660 -0.0780 -0.2247
 3744TIP3   OH232646   5.497   6.233  10.349  0.1499  0.1639  0.5152
 3744TIP3    H132647   5.420   6.263  10.302 -0.1674 -2.6116 -0.8743
 3744TIP3    H232648   5.464   6.208  10.435 -0.4239 -0.5470  0.0954
 3745TIP3   OH232649   4.962   2.197  10.169  0.4036  0.3207 -0.3578
 3745TIP3    H132650   4.932   2.280  10.205 -0.7574  0.1910 -0.9814
 3745TIP3    H232651   4.939   2.132  10.236  1.4679  0.4948  0.2067
 3746TIP3   OH232652   2.724   4.819   9.649  0.0491  0.1699 -0.4378
 3746TIP3    H132653   2.770   4.740   9.621 -0.6974 -0.2219 -0.5910
 3746TIP3    H232654   2.686   4.854   9.568 -1.8817 -0.8118 -0.0329
 3747TIP3   OH232655   6.733   4.087   0.082 -0.2736  0.1173 -0.2973
 3747TIP3    H132656   6.775   4.022   0.138  0.0933  1.0841  0.5685
 3747TIP3    H232657   6.648   4.048   0.061 -0.2989 -0.3925  0.6813
 3748TIP3   OH232658   2.630   6.113  13.542 -0.2745 -0.0015 -0.4847
 3748TIP3    H132659   2.693   6.070  13.601  0.2101 -1.4525 -1.9674
 3748TIP3    H232660   2.580   6.041  13.505  0.0791  0.7512 -2.5482
 3749TIP3   OH232661   5.299   3.760  15.130 -0.4354 -0.0295  0.0173
 3749TIP3    H132662   5.269   3.712  15.207  0.2889  0.5863  0.6920
 3749TIP3    H232663   5.218   3.792  15.089 -0.8678 -0.9901  0.0880
 3750TIP3   OH232664   1.941   0.262  13.305 -0.1465  0.3141  0.1450
 3750TIP3    H132665   1.868   0.323  13.309  0.6373  1.2007  2.8205
 3750TIP3    H232666   1.901   0.176  13.301 -1.3597  0.7930  1.3434
 3751TIP3   OH232667   3.733   6.467  10.168  0.2362  0.1041  0.1453
 3751TIP3    H132668   3.650   6.481  10.212  0.2228 -0.2860  0.2480
 3751TIP3    H232669   3.716   6.493  10.077 -0.1786 -0.5733  0.0234
 3752TIP3   OH232670   2.116   6.028  12.304  0.7531 -0.2392 -0.6522
 3752TIP3    H132671   2.062   6.056  12.229 -1.1210  2.2600  1.4477
 3752TIP3    H232672   2.057   5.975  12.357  0.7245  1.2890  0.9421
 3753TIP3   OH232673   6.544   2.995  12.055  0.0710  0.0030  0.0757
 3753TIP3    H132674   6.614   2.941  12.091 -0.1388  0.1147  0.6607
 3753TIP3    H232675   6.469   2.936  12.047  0.5004 -0.3705 -1.4954
 3754TIP3   OH232676   1.246   5.966  11.886  0.2525 -0.5275 -0.0618
 3754TIP3    H132677   1.217   5.875  11.874  2.3845 -1.0998 -1.5885
 3754TIP3    H232678   1.311   5.961  11.956  0.0352 -0.1049  0.1682
 3755TIP3   OH232679   4.762   2.268  13.123 -0.1816  0.4409 -0.9183
 3755TIP3    H132680   4.828   2.202  13.101 -1.8318 -0.6896 -2.8516
 3755TIP3    H232681   4.721   2.290  13.040 -2.2839  1.0280  0.1941
 3756TIP3   OH232682   6.790   3.157   2.552 -0.1164  0.1928 -0.5320
 3756TIP3    H132683   6.863   3.159   2.614 -0.4845 -1.2360 -0.0248
 3756TIP3    H232684   6.762   3.248   2.546  0.9611  0.5942  0.1472
 3757TIP3   OH232685   6.747   5.681   1.053  0.2324  0.4984  0.0932
 3757TIP3    H132686   6.836   5.696   1.086  0.8838 -1.3494 -0.6643
 3757TIP3    H232687   6.710   5.619   1.117 -0.0319  0.2607 -0.2916
 3758TIP3   OH232688   4.500   6.463  11.704  0.1612 -0.0946  0.2466
 3758TIP3    H132689   4.592   6.461  11.680  0.1716  0.2655  0.2489
 3758TIP3    H232690   4.454   6.430  11.627  0.1755  1.3198 -0.4022
 3759TIP3   OH232691   4.497   5.601  11.230 -0.8538 -0.4610 -0.2579
 3759TIP3    H132692   4.491   5.652  11.149  1.5561  0.7434  0.2525
 3759TIP3    H232693   4.496   5.666  11.299 -2.4233 -1.4588  0.7169
 3760TIP3   OH232694   4.770   4.301  10.811  0.5477  0.1291 -0.5354
 3760TIP3    H132695   4.773   4.273  10.903  2.0177 -1.0104 -0.8831
 3760TIP3    H232696   4.798   4.392  10.812  0.6999  0.0782  0.1463
 3761TIP3   OH232697   1.004   2.218   2.035 -0.7593 -0.0230  0.0845
 3761TIP3    H132698   0.949   2.289   2.000  0.0618  0.0844 -1.0251
 3761TIP3    H232699   1.007   2.153   1.965  2.0496  0.8069 -0.6949
 3762TIP3   OH232700   6.606   4.904   1.238  0.2503 -0.4101  0.2533
 3762TIP3    H132701   6.682   4.961   1.253  1.5864 -2.4513  1.6986
 3762TIP3    H232702   6.599   4.899   1.143  1.6575  0.1810  0.0923
 3763TIP3   OH232703   0.192   2.195  13.184  0.6550 -0.0153 -0.0644
 3763TIP3    H132704   0.190   2.210  13.278  0.8623 -1.6525  0.2362
 3763TIP3    H232705   0.116   2.243  13.150 -0.0288 -0.2574  1.0810
 3764TIP3   OH232706   7.090   0.253  13.080  0.0095  0.3690  0.0809
 3764TIP3    H132707   7.023   0.320  13.068 -0.7651 -0.6625 -1.8393
 3764TIP3    H232708   7.042   0.177  13.111  0.3522 -0.2244 -0.8012
 3765TIP3   OH232709   2.267   5.906  11.999 -0.4131 -0.6108 -0.4585
 3765TIP3    H132710   2.257   5.995  11.965  0.1517 -0.4799 -0.2937
 3765TIP3    H232711   2.212   5.905  12.078  1.4846  0.3822  0.9493
 3766TIP3   OH232712   2.569   2.139  14.996 -0.1848  0.4743  0.0066
 3766TIP3    H132713   2.491   2.122  15.047 -1.3725 -0.5931 -2.0229
 3766TIP3    H232714   2.547   2.111  14.907  2.0457  1.3989 -0.9433
 3767TIP3   OH232715   5.221   5.181  10.561  0.0037  0.0987 -0.5526
 3767TIP3    H132716   5.314   5.200  10.556 -0.0914  0.4739 -0.9187
 3767TIP3    H232717   5.215   5.110  10.624  0.2714  2.0662  1.8804
 3768TIP3   OH232718   3.754   6.838  11.991  0.6451  0.3577 -0.2413
 3768TIP3    H132719   3.738   6.792  12.074  0.7537 -0.0612 -0.4488
 3768TIP3    H232720   3.690   6.909  11.991 -1.2571 -1.2486 -1.0371
 3769TIP3   OH232721   5.516   4.705  10.806 -0.2164  0.0212 -0.0939
 3769TIP3    H132722   5.482   4.751  10.729 -0.5232 -0.1301 -0.0486
 3769TIP3    H232723   5.535   4.617  10.774  0.8434  0.3071 -0.3055
 3770TIP3   OH232724   6.099   3.664   0.945  0.7471 -0.1521 -0.7746
 3770TIP3    H132725   6.186   3.631   0.923  0.2918 -1.2941 -0.9855
 3770TIP3    H232726   6.055   3.674   0.861  0.5750  0.1019 -0.6536
 3771TIP3   OH232727   2.526   3.605  12.432 -0.0636 -0.6510  0.4619
 3771TIP3    H132728   2.532   3.560  12.516 -0.0522 -0.1071  0.7605
 3771TIP3    H232729   2.553   3.695  12.452 -1.3341 -0.1842  0.1602
 3772TIP3   OH232730   1.624   5.476   9.882 -0.3216  0.6857  0.8766
 3772TIP3    H132731   1.717   5.459   9.868 -0.4086  1.4448 -1.0337
 3772TIP3    H232732   1.583   5.390   9.874  0.1602  0.4141  1.2570
 3773TIP3   OH232733   2.517   5.436  10.057  0.4705  0.9330  0.3130
 3773TIP3    H132734   2.502   5.525  10.024 -2.1458  0.4044 -0.1109
 3773TIP3    H232735   2.453   5.425  10.127  0.6941 -0.6380  0.3020
 3774TIP3   OH232736   2.134   1.467  10.089  0.3560  0.2536  0.2986
 3774TIP3    H132737   2.092   1.393  10.045 -0.2028  1.5210 -1.3468
 3774TIP3    H232738   2.079   1.542  10.070  0.0888  0.9281  3.1777
 3775TIP3   OH232739   6.778   5.097  12.562 -0.3325 -0.3077  0.0873
 3775TIP3    H132740   6.733   5.109  12.479  1.0432  0.5641 -0.5699
 3775TIP3    H232741   6.844   5.030  12.545 -0.9400 -1.1268  0.8636
 3776TIP3   OH232742   2.649   4.841  10.841  0.0176  0.0179  0.0953
 3776TIP3    H132743   2.571   4.788  10.825 -1.7628  2.3393  0.5169
 3776TIP3    H232744   2.674   4.875  10.756  2.7381 -3.2820 -0.6531
 3777TIP3   OH232745   1.250   1.221  14.845  0.0971  0.0527  0.3216
 3777TIP3    H132746   1.317   1.244  14.910  0.9586 -0.2291 -0.4406
 3777TIP3    H232747   1.177   1.279  14.864  1.7875  2.7794 -0.8560
 3778TIP3   OH232748   5.732   1.445  10.181  0.0108 -0.2875 -0.7554
 3778TIP3    H132749   5.685   1.528  10.191 -0.8013 -0.8178 -0.1375
 3778TIP3    H232750   5.766   1.426  10.268  0.6669 -0.3363 -1.0174
 3779TIP3   OH232751   0.113   4.739  13.587 -0.3517  0.3497  0.4020
 3779TIP3    H132752   0.072   4.820  13.619 -2.2797 -0.1660 -0.5475
 3779TIP3    H232753   0.113   4.749  13.492 -2.3625 -1.4573  0.1279
 3780TIP3   OH232754   0.835   2.977  13.401  0.0031 -0.7825  0.7406
 3780TIP3    H132755   0.860   2.941  13.487 -0.8488 -2.1738  0.4355
 3780TIP3    H232756   0.837   2.901  13.343 -2.7257 -0.5474  0.2379
 3781TIP3   OH232757   4.913   1.003  10.504 -0.7411 -0.3775 -0.6108
 3781TIP3    H132758   4.857   1.069  10.545  0.1346  0.3564 -0.5370
 3781TIP3    H232759   4.858   0.926  10.494 -1.4999  0.0398  0.2436
 3782TIP3   OH232760   5.265   2.878   9.472 -0.9528  0.6948 -0.1990
 3782TIP3    H132761   5.315   2.815   9.421 -1.5283  0.3605 -0.3609
 3782TIP3    H232762   5.209   2.825   9.529 -0.5670  1.0629  0.5458
 3783TIP3   OH232763   4.498   3.146  10.673  0.4062  0.0917  0.3339
 3783TIP3    H132764   4.544   3.173  10.753 -0.9755 -0.3064  1.2980
 3783TIP3    H232765   4.457   3.063  10.695 -2.4477  1.3588  0.2423
 3784TIP3   OH232766   0.443   1.635  11.410 -0.5397 -0.3123 -0.4722
 3784TIP3    H132767   0.514   1.578  11.439  2.0716  1.7203 -2.3249
 3784TIP3    H232768   0.423   1.606  11.322  1.0007  1.6124 -1.5405
 3785TIP3   OH232769   5.476   1.305  12.256  0.1211  0.7880  0.7623
 3785TIP3    H132770   5.436   1.388  12.231 -1.0828 -0.1699 -0.6911
 3785TIP3    H232771   5.546   1.291  12.191  0.1301  0.5317  0.8230
 3786TIP3   OH232772   5.648   3.211  12.465  0.0141 -0.6389  0.2223
 3786TIP3    H132773   5.692   3.141  12.416  1.0342 -1.6525  2.4403
 3786TIP3    H232774   5.556   3.185  12.466  0.6016 -3.1074  2.5701
 3787TIP3   OH232775   1.463   5.886  12.059  0.2601 -0.3054 -0.0069
 3787TIP3    H132776   1.498   5.849  11.978  0.1282  1.0415 -0.7086
 3787TIP3    H232777   1.537   5.930  12.100  0.5509 -1.7656  1.1119
 3788TIP3   OH232778   6.913   7.191  13.216  0.3215 -0.3251 -0.0299
 3788TIP3    H132779   6.870   7.148  13.290  1.0040 -0.4123  0.3187
 3788TIP3    H232780   6.925   7.121  13.152 -0.6108 -0.1721 -0.3892
 3789TIP3   OH232781   5.636   5.509  10.600 -0.0884  0.4679  0.2131
 3789TIP3    H132782   5.564   5.572  10.591 -0.7748 -0.2799  0.3386
 3789TIP3    H232783   5.657   5.511  10.694 -0.7981 -0.2279  0.3908
 3790TIP3   OH232784   6.980   5.101  12.207  0.3507 -0.2917  0.8423
 3790TIP3    H132785   7.037   5.118  12.282  0.0633 -0.1709  1.0363
 3790TIP3    H232786   7.040   5.093  12.133  0.5933  0.2788  0.9689
 3791TIP3   OH232787   4.541   6.052  13.640 -0.1100 -0.3551 -0.4388
 3791TIP3    H132788   4.605   6.115  13.607 -0.4769 -0.1594 -0.7800
 3791TIP3    H232789   4.459   6.100  13.643 -0.9455 -1.4495 -3.0006
 3792TIP3   OH232790   5.758   6.358  10.840  0.4428  0.5968  0.2764
 3792TIP3    H132791   5.698   6.343  10.767  1.1111 -0.8628 -0.0021
 3792TIP3    H232792   5.803   6.439  10.818  1.3343 -0.3072 -1.4420
 3793TIP3   OH232793   4.766   7.039  14.660 -0.3780  0.2002 -0.0951
 3793TIP3    H132794   4.835   7.098  14.628  0.0332  0.2328  0.7851
 3793TIP3    H232795   4.753   6.976  14.590  0.6497  0.1246 -0.2429
 3794TIP3   OH232796   0.192   5.887  11.637 -0.5857 -0.0620  0.5988
 3794TIP3    H132797   0.145   5.804  11.624  1.1321 -1.0415  0.2893
 3794TIP3    H232798   0.221   5.912  11.549 -0.3992  0.4247  0.7986
 3795TIP3   OH232799   3.179   4.984  14.818 -0.4460 -0.3337 -0.1032
 3795TIP3    H132800   3.156   4.942  14.735  1.0974  0.8681 -1.1993
 3795TIP3    H232801   3.268   4.954  14.837  0.5769  2.0822 -0.7547
 3796TIP3   OH232802   0.731   3.821  11.189 -0.0775 -0.2699 -0.3825
 3796TIP3    H132803   0.775   3.817  11.274 -1.7995 -0.7490  0.5241
 3796TIP3    H232804   0.703   3.912  11.180  0.6375 -0.0777 -0.7361
 3797TIP3   OH232805   3.271   6.236  10.376  0.0269  0.5454  0.6240
 3797TIP3    H132806   3.182   6.233  10.411  0.2938  1.2924  1.4099
 3797TIP3    H232807   3.278   6.322  10.335 -0.6552 -0.7207 -2.4072
 3798TIP3   OH232808   2.312   0.981  15.102  0.1962  0.1751  0.4012
 3798TIP3    H132809   2.379   1.047  15.125  0.6621  0.2637 -1.0736
 3798TIP3    H232810   2.271   1.016  15.023 -0.7540 -0.4875  0.5892
 3799TIP3   OH232811   1.395   5.339   2.466  0.0147  0.2450 -0.0317
 3799TIP3    H132812   1.469   5.329   2.526 -0.2169  0.9098  0.3689
 3799TIP3    H232813   1.436   5.358   2.381  0.3373 -0.5930 -0.0652
 3800TIP3   OH232814   0.971   1.577  11.991 -0.5390 -0.1340 -0.3896
 3800TIP3    H132815   0.949   1.668  11.972  0.8615  0.3670  0.2463
 3800TIP3    H232816   1.030   1.551  11.920  0.2959 -0.0363  0.2580
 3801TIP3   OH232817   0.804   1.085  12.078 -0.1228  0.1953  0.2803
 3801TIP3    H132818   0.852   1.002  12.081  0.1453  0.3708  1.3233
 3801TIP3    H232819   0.843   1.137  12.148  0.4966  1.6409 -1.0982
 3802TIP3   OH232820   7.048   6.389  10.411  0.2229 -0.7466  0.3096
 3802TIP3    H132821   7.143   6.404  10.411  0.0610  0.3277 -0.2951
 3802TIP3    H232822   7.028   6.363  10.321 -0.1747 -0.1750  0.2303
 3803TIP3   OH232823   5.114   2.618  12.046 -0.0793  0.5358 -0.1034
 3803TIP3    H132824   5.146   2.667  11.971 -0.3139 -1.0473 -1.2756
 3803TIP3    H232825   5.048   2.675  12.086 -0.3403  1.1687 -1.4061
 3804TIP3   OH232826   5.209   6.894  12.493  0.5891 -0.1731  0.1081
 3804TIP3    H132827   5.273   6.840  12.541  1.9491  1.0330 -0.2684
 3804TIP3    H232828   5.226   6.983  12.522  0.4876  0.4197 -1.5374
 3805TIP3   OH232829   0.054   1.103  11.160 -0.4768 -0.2156 -0.5644
 3805TIP3    H132830   0.115   1.104  11.087  1.0908 -3.0279  0.5581
 3805TIP3    H232831  -0.032   1.090  11.119  0.2393 -0.6673 -1.9822
 3806TIP3   OH232832   2.525   7.191   9.843 -0.5126 -0.2910  0.6774
 3806TIP3    H132833   2.573   7.262   9.884  2.4787 -0.8238 -1.5848
 3806TIP3    H232834   2.517   7.123   9.911  3.8215 -0.9793  0.7306
 3807TIP3   OH232835   3.561   5.257  13.663 -0.0435 -0.0045  0.8566
 3807TIP3    H132836   3.544   5.171  13.702 -1.3702 -0.5428 -0.7713
 3807TIP3    H232837   3.640   5.244  13.610 -0.9311 -0.6029 -0.3686
 3808TIP3   OH232838   4.050   5.939   2.117 -0.2621  0.5748  0.5489
 3808TIP3    H132839   3.984   5.913   2.052 -0.3128  2.3486 -0.1688
 3808TIP3    H232840   4.040   6.034   2.125  2.7740  1.0659 -0.2279
 3809TIP3   OH232841   0.656   4.914  12.926  0.8955  1.2080  0.3473
 3809TIP3    H132842   0.579   4.945  12.975  0.1827  0.8437 -0.5177
 3809TIP3    H232843   0.634   4.825  12.901  1.1912  1.4245 -0.7274
 3810TIP3   OH232844   3.502   0.611   0.448  0.1217 -0.1059 -0.6533
 3810TIP3    H132845   3.592   0.601   0.417  0.1096 -0.7935 -0.4785
 3810TIP3    H232846   3.466   0.523   0.446 -0.4499  0.1197 -0.4180
 3811TIP3   OH232847   3.890   0.072  13.614 -0.3563  0.0574  0.2782
 3811TIP3    H132848   3.889   0.043  13.705  1.1195 -1.6548 -0.1907
 3811TIP3    H232849   3.879   0.167  13.618  2.1602  0.3637  2.4181
 3812TIP3   OH232850   1.588   0.476  14.361  0.1619 -0.0666 -0.0203
 3812TIP3    H132851   1.598   0.406  14.297 -0.9242 -1.5933  1.3736
 3812TIP3    H232852   1.493   0.487  14.370  0.2942  2.1402 -0.7304
 3813TIP3   OH232853   2.907   4.010   1.597  0.0844 -0.2713 -0.3697
 3813TIP3    H132854   2.956   3.940   1.640 -0.1904 -0.5704 -0.5389
 3813TIP3    H232855   2.949   4.018   1.511  0.6332  0.3257 -0.0539
 3814TIP3   OH232856   1.499   5.655  12.304 -0.1873 -0.2660 -0.6139
 3814TIP3    H132857   1.531   5.707  12.378  1.5374 -1.6524 -0.3094
 3814TIP3    H232858   1.410   5.686  12.289  0.9276  3.2440 -0.9271
 3815TIP3   OH232859   5.960   5.471  12.823 -0.0171 -0.3299 -0.0644
 3815TIP3    H132860   6.032   5.415  12.797 -0.7457 -1.1016 -0.4832
 3815TIP3    H232861   5.973   5.487  12.916  2.0953  1.6498 -0.6189
 3816TIP3   OH232862   6.776   7.090  14.536 -0.2399  0.6901 -0.0789
 3816TIP3    H132863   6.766   7.052  14.449 -1.8586  3.5034 -1.2332
 3816TIP3    H232864   6.689   7.086  14.575  0.1129  0.9212  0.7627
 3817TIP3   OH232865   1.993   4.833   1.897 -0.4803  0.3710  0.0622
 3817TIP3    H132866   1.899   4.819   1.900 -0.6582  0.8593 -1.7574
 3817TIP3    H232867   2.026   4.761   1.842  0.3791 -0.4622  1.6089
 3818TIP3   OH232868   0.644   5.083  10.347 -0.0256  0.2824 -0.1270
 3818TIP3    H132869   0.730   5.081  10.303  0.3157 -2.0094  0.5199
 3818TIP3    H232870   0.585   5.119  10.281  1.6190  3.3682 -0.1072
 3819TIP3   OH232871   2.688   4.854  11.660  0.3312 -0.0497  0.0046
 3819TIP3    H132872   2.754   4.874  11.726  0.1818  1.3083 -0.2292
 3819TIP3    H232873   2.738   4.831  11.582  0.5191 -2.7000  0.8250
 3820TIP3   OH232874   4.975   2.483  11.298  0.4881 -0.5615  0.4856
 3820TIP3    H132875   5.002   2.543  11.368 -0.3369  0.2301  0.1457
 3820TIP3    H232876   4.932   2.411  11.344 -2.6155  1.2664  0.7704
 3821TIP3   OH232877   2.682   5.981  11.678  0.0043  0.0401 -0.5163
 3821TIP3    H132878   2.683   6.077  11.676 -0.8068  0.2652  3.0334
 3821TIP3    H232879   2.772   5.957  11.699  0.7332 -0.2164 -3.5251
 3822TIP3   OH232880   2.186   6.897  11.157 -0.1242  0.5189  0.0634
 3822TIP3    H132881   2.109   6.933  11.113 -0.1285  1.7539  1.0145
 3822TIP3    H232882   2.260   6.928  11.104 -0.2223  0.1973 -0.2684
 3823TIP3   OH232883   4.429   3.979  13.035 -0.1069 -0.2761 -0.9642
 3823TIP3    H132884   4.444   3.895  13.079  2.7259 -0.4784 -2.0773
 3823TIP3    H232885   4.478   4.042  13.088 -2.6708  0.8735  0.1876
 3824TIP3   OH232886   4.718   1.507  15.094 -0.4793  0.2171 -0.1233
 3824TIP3    H132887   4.729   1.598  15.122  1.0279 -0.6214  2.3888
 3824TIP3    H232888   4.689   1.513  15.003 -2.5563  3.2029  0.5767
 3825TIP3   OH232889   3.423   1.518  12.240 -0.3083 -0.4778  0.1514
 3825TIP3    H132890   3.458   1.566  12.315 -1.5222  1.6857 -0.5598
 3825TIP3    H232891   3.500   1.487  12.193  0.7291  2.6713 -0.4729
 3826TIP3   OH232892   1.523   2.211  10.413  0.7777 -0.0416  0.4777
 3826TIP3    H132893   1.495   2.302  10.425  0.9057 -0.1367  1.6134
 3826TIP3    H232894   1.485   2.185  10.329  0.3192  0.9032  0.3833
 3827TIP3   OH232895   0.257   2.787  15.293 -0.0352  0.2664  0.2422
 3827TIP3    H132896   0.235   2.842  15.218  0.2184  0.4780  0.3223
 3827TIP3    H232897   0.269   2.848  15.365  1.9603  0.2779 -0.0499
 3828TIP3   OH232898   4.508   2.668   9.868  0.4786  0.1597 -0.7425
 3828TIP3    H132899   4.499   2.684   9.962 -0.7537 -3.1037 -0.1652
 3828TIP3    H232900   4.454   2.736   9.827 -1.0971  0.1275  1.1046
 3829TIP3   OH232901   1.454   1.140   9.978 -0.0675 -0.6434  0.1977
 3829TIP3    H132902   1.479   1.059  10.022  2.8177 -0.2667 -0.5549
 3829TIP3    H232903   1.523   1.202  10.000 -1.0811  0.9791 -0.9709
 3830TIP3   OH232904   4.833   0.488  12.330 -0.6956 -0.5581  0.2851
 3830TIP3    H132905   4.738   0.483  12.338 -0.7775  0.8913  0.5027
 3830TIP3    H232906   4.865   0.417  12.385 -1.6347 -0.8945  0.4245
 3831TIP3   OH232907   3.190   0.686  10.899  0.3493 -0.2047  0.5158
 3831TIP3    H132908   3.126   0.650  10.959  1.7044 -1.0442  1.5318
 3831TIP3    H232909   3.225   0.609  10.853  1.4886  0.0725  0.8877
 3832TIP3   OH232910   2.904   5.238  13.086  0.4675 -0.3210  1.0436
 3832TIP3    H132911   2.863   5.300  13.147 -0.0363 -0.2261  0.6156
 3832TIP3    H232912   2.834   5.212  13.027  1.3053  0.9111 -0.5879
 3833TIP3   OH232913   4.738   5.666  15.000 -0.2508  0.1564 -0.0343
 3833TIP3    H132914   4.689   5.730  15.052  0.5028  0.9522 -0.2844
 3833TIP3    H232915   4.818   5.712  14.974  0.1862 -0.8037 -0.4414
 3834TIP3   OH232916   3.799   5.393  12.704 -0.8199 -0.0297 -0.9031
 3834TIP3    H132917   3.818   5.472  12.756 -0.0109  0.3358 -1.7300
 3834TIP3    H232918   3.784   5.325  12.769  2.3870 -0.1260 -0.1193
 3835TIP3   OH232919   4.417   1.729   4.820  0.0416 -0.1464  0.3762
 3835TIP3    H132920   4.439   1.801   4.879  0.8778 -2.0669  2.5557
 3835TIP3    H232921   4.501   1.684   4.807  0.0610  0.6245 -2.9990
 3836TIP3   OH232922   5.376   4.635  11.940 -0.2771  0.3345 -0.0508
 3836TIP3    H132923   5.336   4.718  11.966 -0.8173 -0.2024  0.9398
 3836TIP3    H232924   5.371   4.635  11.844 -1.2078  1.0004 -0.0260
 3837TIP3   OH232925   0.474   1.087  11.179 -0.2040 -0.3819 -0.0619
 3837TIP3    H132926   0.408   1.120  11.240 -1.3366 -1.0309 -0.8964
 3837TIP3    H232927   0.441   1.002  11.150  1.4039 -1.1046  0.0937
 3838TIP3   OH232928   4.749   0.788  10.444  0.7440  0.0076 -0.5411
 3838TIP3    H132929   4.805   0.723  10.401 -1.3936 -1.3006 -1.4891
 3838TIP3    H232930   4.731   0.750  10.530  1.3864  0.4897 -0.1870
 3839TIP3   OH232931   3.225   4.322   9.965 -0.1571 -0.4699  0.2551
 3839TIP3    H132932   3.319   4.341   9.961 -0.4609  0.8911 -1.0320
 3839TIP3    H232933   3.215   4.241   9.916  0.0577  0.7515 -1.9637
 3840TIP3   OH232934   1.399   6.925  14.230  0.5703  0.0914  0.0415
 3840TIP3    H132935   1.378   6.973  14.311  0.1886  1.5161 -0.8565
 3840TIP3    H232936   1.460   6.982  14.184  1.1171 -0.9062 -0.4984
 3841TIP3   OH232937   3.893   5.265  11.083  0.6356 -0.2227 -0.3069
 3841TIP3    H132938   3.890   5.228  11.171 -0.9206 -2.7241 -1.3147
 3841TIP3    H232939   3.936   5.198  11.030  0.1869  0.5688 -1.7242
 3842TIP3   OH232940   0.497   4.473  11.278 -0.1340  0.0872 -0.4257
 3842TIP3    H132941   0.453   4.555  11.301 -0.1395 -0.2351  0.7591
 3842TIP3    H232942   0.433   4.405  11.299 -0.4947 -0.2025 -2.2796
 3843TIP3   OH232943   5.753   1.475  11.592 -0.8858 -0.6136  0.1380
 3843TIP3    H132944   5.814   1.509  11.527  0.2343 -2.5741  0.0896
 3843TIP3    H232945   5.796   1.489  11.676 -2.3156  1.8857  0.5326
 3844TIP3   OH232946   6.222   6.961  15.149  0.4917 -0.3689  0.7535
 3844TIP3    H132947   6.166   7.015  15.094  1.4481  0.4436  0.5439
 3844TIP3    H232948   6.161   6.908  15.201 -0.5793  2.1259  2.2248
 3845TIP3   OH232949   5.300   6.375  10.219 -0.6689  0.3062 -0.1333
 3845TIP3    H132950   5.266   6.383  10.130 -2.7842 -0.3233  0.5646
 3845TIP3    H232951   5.238   6.425  10.272  0.2765  0.2413  1.0590
 3846TIP3   OH232952   0.156   1.327  12.623 -0.0082 -0.0784 -0.2702
 3846TIP3    H132953   0.241   1.317  12.666 -0.7779 -1.3473  1.0527
 3846TIP3    H232954   0.156   1.260  12.555 -0.1011 -0.3448 -0.0093
 3847TIP3   OH232955   0.619   1.062  11.837  0.3046 -0.3908  0.3440
 3847TIP3    H132956   0.655   1.063  11.925  1.8513  1.4146 -0.2471
 3847TIP3    H232957   0.561   1.138  11.833  0.0466 -0.6038 -0.1352
 3848TIP3   OH232958   0.141   3.049  13.250  0.0881 -0.0115  0.1151
 3848TIP3    H132959   0.170   3.021  13.337 -1.1318  0.8243  0.8273
 3848TIP3    H232960   0.058   3.004  13.237  0.2624 -0.1321 -0.6377
 3849TIP3   OH232961   5.028   5.661  10.803  0.2759 -0.1821 -0.5699
 3849TIP3    H132962   4.952   5.608  10.826  0.2349 -0.4734 -1.3377
 3849TIP3    H232963   4.999   5.714  10.729  0.4845  0.5192 -0.1584
 3850TIP3   OH232964   3.740   2.815  13.402 -0.2948 -0.3715  0.1732
 3850TIP3    H132965   3.814   2.835  13.459  0.1051 -1.1275 -0.0745
 3850TIP3    H232966   3.699   2.900  13.386  1.9269  0.4582 -1.6539
 3851TIP3   OH232967   3.295   6.558  12.233  0.3569  0.9998 -0.0142
 3851TIP3    H132968   3.215   6.530  12.277  1.4791 -0.5964  1.1433
 3851TIP3    H232969   3.301   6.651  12.252 -0.5474  0.8768  1.0290
 3852TIP3   OH232970   0.625   3.180  13.471 -0.0151  0.2805 -0.2120
 3852TIP3    H132971   0.588   3.169  13.559  0.2541 -0.5636 -0.1898
 3852TIP3    H232972   0.709   3.133  13.475  0.2318  0.6696 -0.7724
 3853TIP3   OH232973   0.462   6.374  12.501 -0.0420 -0.2711 -0.0961
 3853TIP3    H132974   0.379   6.339  12.467 -0.2531  1.6823 -1.8161
 3853TIP3    H232975   0.521   6.374  12.425  2.0193 -2.7595  1.3713
 3854TIP3   OH232976   4.822   6.675   1.594 -0.1078 -0.0638  0.0023
 3854TIP3    H132977   4.839   6.586   1.626 -1.4504 -0.4863 -0.4000
 3854TIP3    H232978   4.733   6.695   1.624  0.1547  1.1269  0.0400
 3855TIP3   OH232979   3.895   1.181  10.731  0.4389 -0.5629 -0.6883
 3855TIP3    H132980   3.971   1.234  10.756  0.7126 -1.0266 -0.5368
 3855TIP3    H232981   3.867   1.138  10.811 -1.9331  1.9788  0.0264
 3856TIP3   OH232982   2.342   1.564  13.214 -0.1741 -0.1115  0.2513
 3856TIP3    H132983   2.338   1.623  13.288 -1.3531 -0.2444  0.3001
 3856TIP3    H232984   2.317   1.618  13.138 -0.5224 -0.3589  0.1880
 3857TIP3   OH232985   1.036   5.823   2.880  0.0237  0.4008  0.3304
 3857TIP3    H132986   1.024   5.872   2.799  0.5078 -1.6327 -1.0460
 3857TIP3    H232987   1.131   5.818   2.892 -0.0343  0.3185  0.7912
 3858TIP3   OH232988   0.944   5.263  10.312 -0.4807  0.1947  0.1349
 3858TIP3    H132989   0.978   5.319  10.241  0.8053  0.5298  0.9687
 3858TIP3    H232990   0.938   5.176  10.273 -0.0230  0.4236 -0.4744
 3859TIP3   OH232991   3.719   4.572   0.227  0.2272 -0.3481  0.2668
 3859TIP3    H132992   3.684   4.527   0.151 -1.1326  1.2620 -0.1122
 3859TIP3    H232993   3.802   4.610   0.197 -1.0458  1.6122 -0.9532
 3860TIP3   OH232994   3.094   5.965   1.504 -0.1096  0.1159  0.3861
 3860TIP3    H132995   3.037   5.895   1.472  1.3687 -1.0308  0.1648
 3860TIP3    H232996   3.112   6.018   1.426  1.7572 -1.4443 -0.3150
 3861TIP3   OH232997   4.007   2.535  12.803 -0.6742  0.0004  0.0293
 3861TIP3    H132998   4.049   2.450  12.794 -0.6535  0.0052  0.0823
 3861TIP3    H232999   3.922   2.523  12.760  0.0441  0.4895 -1.5925
 3862TIP3   OH233000   1.248   0.597  13.948  0.2329  0.0283  1.1347
 3862TIP3    H133001   1.196   0.622  14.025 -0.9807 -0.7503  0.6014
 3862TIP3    H233002   1.338   0.621  13.971 -0.2594  0.7964  2.3614
 3863TIP3   OH233003   5.533   4.991   0.407  1.0741  0.4861  0.7898
 3863TIP3    H133004   5.442   5.019   0.397  0.8445 -0.3974  0.2472
 3863TIP3    H233005   5.558   5.019   0.495  0.0827  0.2134  1.1611
 3864TIP3   OH233006   0.705   7.152  13.821  0.3160  0.3245  0.4075
 3864TIP3    H133007   0.798   7.150  13.797  0.2747 -0.6236  0.2672
 3864TIP3    H233008   0.705   7.130  13.914  0.2824  1.1664  0.6114
 3865TIP3   OH233009   7.190   7.009  11.146  0.0268  0.6554  0.1758
 3865TIP3    H133010   7.177   7.100  11.118 -2.9497 -0.0486 -1.0687
 3865TIP3    H233011   7.238   6.968  11.075 -0.6983  0.7186 -0.3592
 3866TIP3   OH233012   2.607   3.313  10.810  0.0184 -0.2874  0.2233
 3866TIP3    H133013   2.644   3.240  10.760  0.0190 -0.4885  0.5183
 3866TIP3    H233014   2.519   3.284  10.833 -0.5133  0.3772 -0.8873
 3867TIP3   OH233015   2.183   5.749  12.268  0.0447  0.2202 -0.6864
 3867TIP3    H133016   2.251   5.805  12.304 -0.9231  2.1897 -1.7698
 3867TIP3    H233017   2.231   5.685  12.215  1.1327  0.4687 -0.0421
 3868TIP3   OH233018   7.092   0.880  14.918  0.1604 -0.2071 -0.0055
 3868TIP3    H133019   7.092   0.971  14.947 -2.0205 -0.1655  0.0509
 3868TIP3    H233020   7.178   0.847  14.941  0.6782  1.5902  0.7820
 3869TIP3   OH233021   0.257   3.157   9.777 -0.4262 -0.1886 -0.2653
 3869TIP3    H133022   0.285   3.066   9.775 -0.7879 -0.3718  1.4072
 3869TIP3    H233023   0.314   3.199   9.841 -1.8986  0.1435  0.9021
 3870TIP3   OH233024   4.385   3.998   5.065  0.6699  0.1693  0.1594
 3870TIP3    H133025   4.313   4.056   5.089  0.8711 -0.2460  1.9640
 3870TIP3    H233026   4.407   3.952   5.147  1.0955 -1.8005 -0.9773
 3871TIP3   OH233027   3.282   5.512   4.721 -0.3076 -0.4174 -0.0208
 3871TIP3    H133028   3.332   5.588   4.750 -0.4385 -0.6597  0.8509
 3871TIP3    H233029   3.346   5.440   4.719 -0.3149 -0.4188 -0.2684
 3872TIP3   OH233030   5.252   0.121  14.153  0.2847 -0.0595 -0.6636
 3872TIP3    H133031   5.284   0.060  14.220  0.3471  1.1713  0.4766
 3872TIP3    H233032   5.317   0.191  14.151 -0.0515  0.2330 -1.5643
 3873TIP3   OH233033   3.110   1.009  13.336  0.9140  0.1748  0.4511
 3873TIP3    H133034   3.092   0.953  13.411 -0.5917  0.5701  0.4203
 3873TIP3    H233035   3.117   0.949  13.262 -1.0144 -0.0021  0.3647
 3874TIP3   OH233036   1.401   2.477  14.782 -0.3610 -0.9849  0.3901
 3874TIP3    H133037   1.346   2.531  14.838  0.9869 -0.2626  1.0518
 3874TIP3    H233038   1.351   2.470  14.700 -0.8455  0.7476  0.4946
 3875TIP3   OH233039   1.478   0.418  15.267 -0.2778 -0.4431 -0.4531
 3875TIP3    H133040   1.412   0.350  15.280  0.2282 -0.3841  3.8703
 3875TIP3    H233041   1.520   0.428  15.352  3.0572  1.9157 -2.1278
 3876TIP3   OH233042   0.373   4.421   0.116 -0.4739 -0.3023  0.9454
 3876TIP3    H133043   0.295   4.473   0.137 -1.3240 -0.4726 -1.5249
 3876TIP3    H233044   0.443   4.485   0.104 -0.7004  0.0038  1.2453
 3877TIP3   OH233045   5.386   3.447   9.517  0.3794 -0.0602  0.0039
 3877TIP3    H133046   5.308   3.438   9.572 -0.3773 -1.9061 -1.2631
 3877TIP3    H233047   5.390   3.366   9.467  1.8294  0.9408 -1.6425
 3878TIP3   OH233048   2.177   0.385  10.183 -0.4131  0.4992  0.0610
 3878TIP3    H133049   2.113   0.352  10.120  1.2918 -0.4176 -1.2803
 3878TIP3    H233050   2.133   0.379  10.268 -1.8544 -0.7123 -0.7281
 3879TIP3   OH233051   6.953   4.083  12.721  0.0689 -0.3466  0.8737
 3879TIP3    H133052   6.863   4.054  12.730 -0.4128  1.2837  1.6752
 3879TIP3    H233053   6.983   4.096  12.811  0.0841  1.9765  0.5979
 3880TIP3   OH233054   5.892   0.282  10.134 -0.1114 -0.4787  0.2532
 3880TIP3    H133055   5.950   0.237  10.195  1.9963 -0.2066 -1.4267
 3880TIP3    H233056   5.942   0.357  10.103 -1.6775  0.2407 -0.6947
 3881TIP3   OH233057   0.771   2.160  11.831  0.2475  0.3427  0.2480
 3881TIP3    H133058   0.688   2.175  11.875 -0.4234  1.1075 -1.2243
 3881TIP3    H233059   0.753   2.090  11.768  1.0014 -0.2227  0.6356
 3882TIP3   OH233060   3.256   0.136  11.683 -0.0075  1.2755 -1.2933
 3882TIP3    H133061   3.224   0.194  11.753 -0.1840  0.0733 -0.3439
 3882TIP3    H233062   3.250   0.189  11.604  0.0269  2.6316 -0.4346
 3883TIP3   OH233063   2.357   0.831  13.361 -1.0053  0.1380 -0.2427
 3883TIP3    H133064   2.390   0.835  13.271 -2.4477 -1.4103 -0.8919
 3883TIP3    H233065   2.406   0.759  13.401  0.2575  1.3707  0.5441
 3884TIP3   OH233066   6.531   0.461  13.077 -0.3644 -0.5393 -0.0617
 3884TIP3    H133067   6.543   0.461  13.172 -0.2972 -1.8556 -0.0614
 3884TIP3    H233068   6.467   0.531  13.061  1.5090  1.4751  0.6656
 3885TIP3   OH233069   6.468   4.964  11.744  0.1002 -0.1368  0.5577
 3885TIP3    H133070   6.496   5.055  11.756 -1.0148  0.0098  2.5818
 3885TIP3    H233071   6.503   4.939  11.659  2.3397  1.4728  0.9166
 3886TIP3   OH233072   3.046   6.796  13.950 -0.1477  0.3955 -0.7914
 3886TIP3    H133073   3.052   6.813  13.856 -0.9044 -0.0429 -0.9277
 3886TIP3    H233074   3.136   6.777  13.977 -0.1758 -1.3466 -1.8059
 3887TIP3   OH233075   3.292   5.506  13.160 -0.3151 -0.4166  0.5017
 3887TIP3    H133076   3.299   5.437  13.094  0.0952  0.5062 -0.4665
 3887TIP3    H233077   3.383   5.535  13.173 -0.6708  1.8437 -1.2726
 3888TIP3   OH233078   4.272   2.938   9.866 -0.4518 -1.0174  0.4984
 3888TIP3    H133079   4.235   3.020   9.834  2.7016  0.5771  0.4736
 3888TIP3    H233080   4.252   2.937   9.960 -1.1967 -0.6167  0.3445
 3889TIP3   OH233081   0.603   2.544  10.990 -0.5619  0.4002  0.4930
 3889TIP3    H133082   0.694   2.575  10.998 -0.8932  1.3401  0.7318
 3889TIP3    H233083   0.609   2.450  11.006  0.5447  0.2279 -0.7443
 3890TIP3   OH233084   1.015   5.470  11.771 -0.0831  0.4229  0.4219
 3890TIP3    H133085   0.939   5.444  11.823 -1.5323  2.9899 -0.2092
 3890TIP3    H233086   0.988   5.457  11.681  0.7196  0.1867  0.2061
 3891TIP3   OH233087   3.964   4.127  11.396  0.1433 -0.0983  0.4434
 3891TIP3    H133088   4.008   4.210  11.376  0.0794 -0.3332 -0.7549
 3891TIP3    H233089   3.872   4.151  11.408 -0.2636 -0.1885 -1.8819
 3892TIP3   OH233090   4.491   0.677  13.673 -0.0786  0.1325 -0.4285
 3892TIP3    H133091   4.471   0.595  13.717 -0.4018 -1.0227 -2.5778
 3892TIP3    H233092   4.412   0.699  13.623  0.7723  0.4848 -1.6984
 3893TIP3   OH233093   5.936   6.572  14.573  0.2358 -0.0144  0.2316
 3893TIP3    H133094   5.977   6.633  14.634 -1.0977  1.6405 -0.4295
 3893TIP3    H233095   6.006   6.512  14.548  1.5103  1.0114  1.2169
 3894TIP3   OH233096   2.561   7.153   1.381  0.5841 -0.9302  0.1936
 3894TIP3    H133097   2.509   7.196   1.448 -0.1792 -1.5679  0.0252
 3894TIP3    H233098   2.601   7.225   1.332  1.7209 -0.4544  1.7283
 3895TIP3   OH233099   1.856   5.711  13.990 -0.1191  0.0766  0.2912
 3895TIP3    H133100   1.786   5.681  13.933  0.0893  0.2759 -0.0699
 3895TIP3    H233101   1.921   5.642  13.987 -0.8354 -0.6990  1.6129
 3896TIP3   OH233102   1.882   0.925   0.811  0.2445 -0.5315 -0.1531
 3896TIP3    H133103   1.931   0.890   0.737 -1.1609 -1.0370 -0.8850
 3896TIP3    H233104   1.926   1.007   0.832  1.8234 -1.2865 -0.2988
 3897TIP3   OH233105   6.577   3.575   0.843  0.1983 -0.4547 -0.1066
 3897TIP3    H133106   6.617   3.511   0.784  1.8715  1.0179 -0.6579
 3897TIP3    H233107   6.650   3.628   0.874 -1.0888  1.0710  0.4730
 3898TIP3   OH233108   2.328   4.771   9.879 -0.6153  0.1762  0.0667
 3898TIP3    H133109   2.423   4.761   9.889 -0.7363 -0.6775  0.4615
 3898TIP3    H233110   2.318   4.825   9.800  0.2278  1.6721  0.9449
 3899TIP3   OH233111   3.376   4.027  11.986  0.1393  0.8247  0.3001
 3899TIP3    H133112   3.367   4.123  11.989 -1.2365  0.8398 -1.6956
 3899TIP3    H233113   3.286   3.995  11.977  0.5436 -0.7114  1.3550
 3900TIP3   OH233114   0.071   0.170  12.278  0.4392  0.0655 -0.1067
 3900TIP3    H133115  -0.013   0.201  12.312  0.4118  1.3928 -1.2652
 3900TIP3    H233116   0.049   0.091  12.228  0.0766 -0.2918  0.6046
 3901TIP3   OH233117   5.077   0.637   1.131 -0.1251 -0.2886  0.3540
 3901TIP3    H133118   5.165   0.633   1.095 -0.6050 -2.6605 -0.7385
 3901TIP3    H233119   5.071   0.560   1.187 -0.8415  1.0021  2.1391
 3902TIP3   OH233120   4.236   0.289   0.373 -0.5628 -0.0749 -0.6893
 3902TIP3    H133121   4.315   0.291   0.428 -0.5561 -0.7417 -0.6631
 3902TIP3    H233122   4.164   0.309   0.432 -0.7210 -2.1612 -0.1033
 3903TIP3   OH233123   6.596   3.605  12.591 -0.5097  0.2236 -0.3833
 3903TIP3    H133124   6.609   3.591  12.497 -3.0462  1.1553 -0.9533
 3903TIP3    H233125   6.507   3.574  12.607 -0.8887  2.0490  1.2698
 3904TIP3   OH233126   1.643   3.926  10.067  0.1417  0.2618 -0.3475
 3904TIP3    H133127   1.732   3.957  10.082  0.7020 -1.1854 -0.5631
 3904TIP3    H233128   1.648   3.831  10.074 -1.3545  0.1357 -0.5385
 3905TIP3   OH233129   1.498   0.814  12.366  0.2795  0.1182 -0.0788
 3905TIP3    H133130   1.484   0.902  12.402 -0.4870  0.6051 -1.4716
 3905TIP3    H233131   1.416   0.793  12.321  1.6951  0.3559 -3.0624
 3906TIP3   OH233132   5.189   1.782  12.577 -0.4117 -0.0649 -0.3274
 3906TIP3    H133133   5.215   1.779  12.669  0.7793  0.2163 -0.6423
 3906TIP3    H233134   5.271   1.781  12.528 -1.0070  0.3785 -1.3812
 3907TIP3   OH233135   7.089   3.263  11.048 -0.0445  0.0478  0.3167
 3907TIP3    H133136   7.163   3.237  10.994 -1.2767 -3.4827  0.0405
 3907TIP3    H233137   7.122   3.333  11.103  2.5658  0.6853 -1.8548
 3908TIP3   OH233138   4.613   4.047  11.458 -0.2356  0.2744  0.2317
 3908TIP3    H133139   4.637   3.954  11.457 -0.5895  0.1570 -1.9316
 3908TIP3    H233140   4.686   4.090  11.503 -0.2747 -1.0701  1.6639
 3909TIP3   OH233141   5.986   4.927   9.997  0.6282 -0.3578 -0.3066
 3909TIP3    H133142   5.995   4.926  10.092  1.4542  0.6667 -0.3581
 3909TIP3    H233143   5.929   4.852   9.978 -0.8190  0.3347  1.0931
 3910TIP3   OH233144   2.461   5.711  12.243 -0.1957 -0.2776  0.0041
 3910TIP3    H133145   2.523   5.781  12.264  0.6963 -1.7641  2.9451
 3910TIP3    H233146   2.499   5.668  12.166  1.7292 -0.2710  0.8883
 3911TIP3   OH233147   2.656   3.840  11.388 -0.0139 -0.2485 -0.1691
 3911TIP3    H133148   2.592   3.857  11.319  0.5553 -1.8566 -1.1441
 3911TIP3    H233149   2.710   3.768  11.354  2.1742  0.8899  0.7040
 3912TIP3   OH233150   3.066   0.112   0.828  0.1242  0.0821 -0.7679
 3912TIP3    H133151   2.998   0.176   0.807 -0.2217 -0.5804 -1.7126
 3912TIP3    H233152   3.036   0.030   0.788  1.4877 -0.2206 -1.2290
 3913TIP3   OH233153   6.230   0.574  10.239  0.1887 -0.7363  0.2258
 3913TIP3    H133154   6.280   0.521  10.177  0.4693  0.3551 -0.5023
 3913TIP3    H233155   6.139   0.567  10.209  0.3699  0.0781 -0.5363
 3914TIP3   OH233156   5.376   1.947  14.737 -0.9115  0.2352  0.0908
 3914TIP3    H133157   5.373   1.852  14.724 -1.7596  0.3587 -0.6482
 3914TIP3    H233158   5.333   1.960  14.822  0.3763 -0.1325  0.8423
 3915TIP3   OH233159   2.712   3.570  11.301 -0.0539  0.0575 -0.4147
 3915TIP3    H133160   2.780   3.505  11.320  0.9575  1.4054  0.7644
 3915TIP3    H233161   2.631   3.519  11.300  0.9645 -1.6642 -2.2843
 3916TIP3   OH233162   5.983   0.296  11.411  0.4028 -0.3703 -0.2974
 3916TIP3    H133163   5.974   0.277  11.504  0.9661 -0.4662 -0.2612
 3916TIP3    H233164   6.071   0.333  11.402  0.6813 -1.1454 -0.9112
 3917TIP3   OH233165   5.102   1.288  12.284  0.2880  0.4537 -0.1288
 3917TIP3    H133166   5.078   1.241  12.363 -3.9759  0.3785 -1.2476
 3917TIP3    H233167   5.136   1.372  12.315 -0.7012  0.1850  1.7862
 3918TIP3   OH233168   5.617   6.721  12.466 -0.5816  0.6014  0.1804
 3918TIP3    H133169   5.655   6.636  12.490 -2.3419 -0.5359 -0.8009
 3918TIP3    H233170   5.619   6.772  12.547  0.0188 -0.5596  0.9318
 3919TIP3   OH233171   6.352   6.206  14.477 -0.4465 -0.0544  0.6110
 3919TIP3    H133172   6.443   6.177  14.488 -0.4637 -0.6680 -0.6460
 3919TIP3    H233173   6.300   6.131  14.505 -0.5636  0.1758  1.0142
 3920TIP3   OH233174   5.370   1.292   0.454 -0.0617 -0.4687 -0.1246
 3920TIP3    H133175   5.447   1.327   0.409  0.4059  1.7303  2.2242
 3920TIP3    H233176   5.402   1.268   0.541 -2.3143  2.3380  1.6196
 3921TIP3   OH233177   2.942   1.309  14.438 -0.6744 -0.3446  0.1260
 3921TIP3    H133178   2.856   1.343  14.463 -1.3969 -2.6897  1.0381
 3921TIP3    H233179   2.997   1.326  14.514 -0.8327 -0.5459  0.2852
 3922TIP3   OH233180   6.941   0.558  10.898 -0.1956 -0.0015  0.1783
 3922TIP3    H133181   6.927   0.531  10.808  0.3225 -0.9213  0.3682
 3922TIP3    H233182   6.995   0.489  10.936 -0.1658  0.5216  1.1112
 3923TIP3   OH233183   5.129   1.107  13.357 -0.2219 -0.4677 -0.7053
 3923TIP3    H133184   5.185   1.152  13.421 -0.8456 -0.4412 -0.1747
 3923TIP3    H233185   5.120   1.018  13.391  0.0822 -0.6787 -1.1674
 3924TIP3   OH233186   1.632   1.584   0.463  0.2893  0.7965  0.0686
 3924TIP3    H133187   1.645   1.532   0.383  1.6248  0.0494  0.7370
 3924TIP3    H233188   1.543   1.563   0.491 -1.1914  2.9968 -2.5433
 3925TIP3   OH233189   4.870   5.628  14.291  0.4593  0.4410 -0.1623
 3925TIP3    H133190   4.932   5.627  14.218 -0.1798 -0.9958 -0.7219
 3925TIP3    H233191   4.809   5.699  14.269  0.3256  0.0855 -1.0079
 3926TIP3   OH233192   6.190   6.970  12.180 -0.1033  0.4158  0.1327
 3926TIP3    H133193   6.272   7.016  12.164 -0.0422  0.0836 -0.5744
 3926TIP3    H233194   6.126   7.015  12.124 -0.3654  0.5662  0.5506
 3927TIP3   OH233195   3.412   1.689  14.558  0.0631 -0.2686  0.1994
 3927TIP3    H133196   3.328   1.725  14.530 -1.0037 -1.7045  1.3779
 3927TIP3    H233197   3.425   1.726  14.646  2.8019  3.2779 -1.4252
 3928TIP3   OH233198   0.211   1.987  11.187 -0.0026 -0.3978  0.4552
 3928TIP3    H133199   0.208   2.064  11.244  3.4392  1.0125 -0.9569
 3928TIP3    H233200   0.173   1.917  11.239  0.0818  1.4740  3.2681
 3929TIP3   OH233201   5.853   1.779  11.309  0.2767  0.4227 -0.2100
 3929TIP3    H133202   5.921   1.769  11.243  2.0756  3.4368  1.0230
 3929TIP3    H233203   5.886   1.732  11.386 -0.5988 -0.8438 -0.5744
 3930TIP3   OH233204   4.280   5.033  12.054 -1.0732  0.2306 -0.0912
 3930TIP3    H133205   4.343   4.995  11.992 -1.8024 -0.5137 -0.4025
 3930TIP3    H233206   4.278   4.971  12.127 -0.9342  0.6095  0.2382
 3931TIP3   OH233207   1.354   3.896  13.776  0.6082 -0.5103 -0.3059
 3931TIP3    H133208   1.442   3.929  13.756  1.0689 -1.1323  0.6237
 3931TIP3    H233209   1.318   3.872  13.691  1.4531 -0.5132 -0.6777
 3932TIP3   OH233210   3.302   3.186  12.077 -0.4459  0.0861 -0.2412
 3932TIP3    H133211   3.344   3.123  12.136 -2.6882 -2.1929 -0.9641
 3932TIP3    H233212   3.240   3.233  12.133 -1.8049 -1.3348 -0.5079
 3933TIP3   OH233213   0.472   0.254  10.748 -0.3565  0.3839  0.3989
 3933TIP3    H133214   0.561   0.280  10.724 -0.5668  0.3224 -0.4651
 3933TIP3    H233215   0.415   0.308  10.694 -0.8458  0.1519  0.6695
 3934TIP3   OH233216   2.126   3.523  14.069  0.0366 -0.0199  0.5983
 3934TIP3    H133217   2.089   3.444  14.109  0.5916 -1.8963 -2.2131
 3934TIP3    H233218   2.220   3.511  14.077  0.1533 -0.2824 -0.8003
 3935TIP3   OH233219   5.678   3.810  12.228  0.1602 -0.1029 -0.1421
 3935TIP3    H133220   5.773   3.811  12.217  0.4421 -0.5324  1.8635
 3935TIP3    H233221   5.644   3.851  12.148  1.9647 -0.8116 -1.3281
 3936TIP3   OH233222   6.609   3.614  10.177 -0.2239 -0.0572  0.4173
 3936TIP3    H133223   6.531   3.664  10.201 -0.3609  1.2850 -2.3920
 3936TIP3    H233224   6.576   3.533  10.140 -0.1352 -0.6181  1.5158
 3937TIP3   OH233225   3.171   5.722  13.007 -0.0508 -0.5803 -0.3783
 3937TIP3    H133226   3.152   5.776  13.084 -3.0105 -1.8460 -0.0990
 3937TIP3    H233227   3.206   5.640  13.043  1.1223 -0.1860 -0.5874
 3938TIP3   OH233228   0.883   4.793  12.433 -0.2434 -0.0833  1.0121
 3938TIP3    H133229   0.946   4.761  12.368 -0.4239 -1.5022  1.5069
 3938TIP3    H233230   0.899   4.739  12.511 -1.2899  0.3190  1.5290
 3939TIP3   OH233231   5.714   0.265  13.183  0.5953  0.1547  0.3571
 3939TIP3    H133232   5.650   0.326  13.148  0.1643  0.9324  2.3824
 3939TIP3    H233233   5.721   0.287  13.276  2.6944 -0.8923  0.5209
 3940TIP3   OH233234   2.489   5.647  10.765 -0.1115  0.2555 -0.5061
 3940TIP3    H133235   2.585   5.649  10.768 -0.1445  2.1400  0.3449
 3940TIP3    H233236   2.464   5.599  10.845  0.1141  1.3787  0.2607
 3941TIP3   OH233237   3.198   2.747  13.895  0.2951 -0.2513 -0.1200
 3941TIP3    H133238   3.133   2.715  13.958 -1.1177  3.4960  0.6188
 3941TIP3    H233239   3.276   2.695  13.913 -1.3166 -2.2524  1.7389
 3942TIP3   OH233240   5.925   7.135   9.811  0.1583  0.4993  0.2705
 3942TIP3    H133241   5.858   7.084   9.858 -0.5506  0.5136 -0.6961
 3942TIP3    H233242   5.899   7.131   9.719  0.9094  1.3880 -0.0036
 3943TIP3   OH233243   4.555   6.421  10.428  0.8388  0.2184 -0.1294
 3943TIP3    H133244   4.554   6.329  10.403  2.1681 -0.1213  0.9514
 3943TIP3    H233245   4.619   6.461  10.369  1.9530 -0.0337  0.8763
 3944TIP3   OH233246   3.188   6.120  12.677 -0.2425  0.3345 -0.1727
 3944TIP3    H133247   3.201   6.033  12.715  1.5094  0.3493 -0.6178
 3944TIP3    H233248   3.245   6.178  12.729  0.9652  0.6363 -1.7183
 3945TIP3   OH233249   1.848   4.558  13.076  0.4886 -0.4174  0.5488
 3945TIP3    H133250   1.941   4.564  13.096  0.8380  0.0062 -1.0770
 3945TIP3    H233251   1.806   4.540  13.161  1.9841 -0.1302  1.3780
 3946TIP3   OH233252   4.038   2.853  14.324 -0.1084  0.2927 -0.1239
 3946TIP3    H133253   4.039   2.894  14.237  1.8067 -0.5246 -0.5533
 3946TIP3    H233254   4.055   2.760  14.307 -3.8899 -0.7683  0.8524
 3947TIP3   OH233255   1.634   3.733  13.275 -0.2945  0.0115  0.5580
 3947TIP3    H133256   1.698   3.803  13.261  0.0901 -0.5840 -0.8250
 3947TIP3    H233257   1.675   3.676  13.340  0.0502  0.2545  0.5564
 3948TIP3   OH233258   0.330   0.915  10.030  0.1224 -0.1191  0.5007
 3948TIP3    H133259   0.339   0.893   9.937  2.6039  2.4773 -0.0115
 3948TIP3    H233260   0.388   0.853  10.075  3.0173  1.7826 -0.3543
 3949TIP3   OH233261   2.978   2.295  12.598 -0.1918  0.0545  0.3898
 3949TIP3    H133262   3.034   2.324  12.526 -1.5398  1.2327 -0.2288
 3949TIP3    H233263   3.038   2.284  12.672  0.7101  2.6856  0.1526
 3950TIP3   OH233264   2.120   3.540  11.703  0.5862 -0.9359  0.5557
 3950TIP3    H133265   2.128   3.519  11.610  0.8469  0.7264  0.1619
 3950TIP3    H233266   2.027   3.531  11.722  0.4837 -0.9732  0.0454
 3951TIP3   OH233267   1.321   3.474   0.352  0.2965 -0.3758  0.4359
 3951TIP3    H133268   1.315   3.517   0.437 -0.1321  0.9970 -0.2448
 3951TIP3    H233269   1.241   3.501   0.307  1.0828 -0.0754 -0.8294
 3952TIP3   OH233270   2.247   1.912  14.908 -0.2748 -0.1709 -0.0011
 3952TIP3    H133271   2.198   1.986  14.945 -1.5269 -1.4028  0.8896
 3952TIP3    H233272   2.204   1.895  14.824 -0.4860 -0.3770  0.1489
 3953TIP3   OH233273   0.531   6.555  11.756 -0.4047 -0.0208 -0.8540
 3953TIP3    H133274   0.620   6.521  11.744 -0.0124  0.3731  0.7825
 3953TIP3    H233275   0.491   6.548  11.669  0.3428 -2.6572 -1.0613
 3954TIP3   OH233276   3.721   6.971   4.740  0.2364 -0.5081  0.5306
 3954TIP3    H133277   3.687   6.954   4.652 -1.0189 -0.4187  0.9664
 3954TIP3    H233278   3.747   6.885   4.773  0.7778 -0.5335  0.0599
 3955TIP3   OH233279   0.299   0.696  10.304 -0.9431  0.2224  0.3461
 3955TIP3    H133280   0.220   0.747  10.286 -0.8465  0.0412 -0.6473
 3955TIP3    H233281   0.363   0.727  10.240 -0.5058 -0.3028  0.5165
 3956TIP3   OH233282   4.484   4.793  15.032 -0.0199 -0.0176  0.6497
 3956TIP3    H133283   4.491   4.800  15.127 -1.8434 -0.8771  0.9029
 3956TIP3    H233284   4.466   4.700  15.016  3.2992 -0.5572 -0.8458
 3957TIP3   OH233285   1.574   5.319  12.624 -0.1852 -0.1255  0.3028
 3957TIP3    H133286   1.645   5.257  12.642 -1.7154 -2.5602 -1.3564
 3957TIP3    H233287   1.540   5.341  12.711  2.2908  0.8426  1.1153
 3958TIP3   OH233288   2.182   1.325  10.718  0.4795  0.1929  0.2082
 3958TIP3    H133289   2.090   1.303  10.704  0.8474 -1.1988 -0.2662
 3958TIP3    H233290   2.221   1.315  10.631  0.9790  1.3060  0.3005
 3959TIP3   OH233291   5.558   1.286  14.106  0.7006 -0.0643 -0.8307
 3959TIP3    H133292   5.560   1.197  14.071 -1.0991 -0.4433 -0.0978
 3959TIP3    H233293   5.501   1.280  14.182  0.0355  1.8521 -1.1262
 3960TIP3   OH233294   3.214   1.365   0.700 -0.1061 -0.2864  0.1549
 3960TIP3    H133295   3.162   1.312   0.760  0.3046  0.5790  1.3305
 3960TIP3    H233296   3.155   1.433   0.669  0.0877  0.2064  0.8426
 3961TIP3   OH233297   3.378   3.984  14.216 -0.8154 -0.0891  0.2162
 3961TIP3    H133298   3.425   3.915  14.169 -2.2221 -0.7497 -0.2685
 3961TIP3    H233299   3.442   4.054  14.225  0.6899 -1.4561  0.7960
 3962TIP3   OH233300   6.413   2.673   0.392 -0.0800 -0.0796 -0.2045
 3962TIP3    H133301   6.377   2.613   0.457  1.3583 -1.1830 -0.3679
 3962TIP3    H233302   6.358   2.661   0.315  0.4155 -1.5016 -0.3560
 3963TIP3   OH233303   6.262   3.437  11.923 -0.0617  0.4942  0.5233
 3963TIP3    H133304   6.202   3.464  11.853 -0.1365  0.0673  0.4219
 3963TIP3    H233305   6.211   3.376  11.976 -0.4392  1.7686  1.7017
 3964TIP3   OH233306   2.509   1.991  12.397  0.3267 -0.7192 -0.1389
 3964TIP3    H133307   2.541   1.992  12.487  1.2424 -1.5780 -0.4375
 3964TIP3    H233308   2.543   2.072  12.359  0.2823 -0.5529  0.1715
 3965TIP3   OH233309   1.806   1.652  10.453 -0.1717  1.0028 -0.4161
 3965TIP3    H133310   1.783   1.679  10.541 -0.8613  1.4372 -0.7191
 3965TIP3    H233311   1.748   1.577  10.434  1.4974 -0.5367  0.2971
 3966TIP3   OH233312   2.571   0.123  12.819 -0.0633 -0.3645 -0.4804
 3966TIP3    H133313   2.547   0.215  12.829  1.4253  0.2329 -1.9145
 3966TIP3    H233314   2.658   0.117  12.857  0.5651 -0.7582 -1.9134
 3967TIP3   OH233315   1.753   2.113  12.310 -0.2772  0.2783 -0.1150
 3967TIP3    H133316   1.735   2.185  12.371  1.7676  1.0874 -0.3809
 3967TIP3    H233317   1.684   2.121  12.243 -1.0949  0.9019  0.7762
 3968TIP3   OH233318   0.628   4.500  11.546 -0.3502 -0.0948  0.2660
 3968TIP3    H133319   0.560   4.484  11.481 -1.1984  0.0910  1.0847
 3968TIP3    H233320   0.600   4.450  11.623 -0.3039  1.1043  1.0869
 3969TIP3   OH233321   1.465   4.919   3.315  0.6277  0.4022 -0.1541
 3969TIP3    H133322   1.469   4.826   3.339  1.7740  0.8773  1.7317
 3969TIP3    H233323   1.538   4.931   3.254  0.3463  0.0493 -0.5713
 3970TIP3   OH233324   0.598   1.421  14.177  0.2589  0.3531 -0.8106
 3970TIP3    H133325   0.643   1.361  14.236  1.0680 -0.1690 -1.9246
 3970TIP3    H233326   0.615   1.508  14.213 -1.0379 -0.0433  0.8926
 3971TIP3   OH233327   2.798   6.236  11.119  0.9706 -0.2786 -0.9300
 3971TIP3    H133328   2.740   6.189  11.058 -0.4928 -0.4994  0.5555
 3971TIP3    H233329   2.842   6.166  11.168 -1.0443 -0.1860  1.1306
 3972TIP3   OH233330   3.730   3.560   0.818  0.1476 -0.3983 -0.1264
 3972TIP3    H133331   3.690   3.512   0.745 -0.3952  0.5590 -0.4798
 3972TIP3    H233332   3.788   3.497   0.860 -0.8074 -1.4576 -0.3695
 3973TIP3   OH233333   2.473   0.953  13.136 -0.7920  0.1821  0.1831
 3973TIP3    H133334   2.392   0.977  13.091  0.7662 -0.1849 -3.1134
 3973TIP3    H233335   2.500   1.032  13.182 -2.5928  0.5079  0.7627
 3974TIP3   OH233336   5.961   2.845  12.445  0.1918  0.2888  0.4043
 3974TIP3    H133337   6.035   2.787  12.430 -0.3643  0.0478 -1.7797
 3974TIP3    H233338   5.888   2.786  12.464 -0.4723  0.1338 -2.2436
 3975TIP3   OH233339   0.257   5.306  12.578 -0.4059 -0.0956  0.3176
 3975TIP3    H133340   0.215   5.220  12.581 -1.2961  0.2054 -1.6535
 3975TIP3    H233341   0.277   5.319  12.485  1.5377  0.9942  0.8428
 3976TIP3   OH233342   5.077   0.063   5.027  0.4772  0.0103  0.0351
 3976TIP3    H133343   4.987   0.054   5.059  1.0059  0.3702  1.7060
 3976TIP3    H233344   5.079   0.010   4.947 -1.5114  0.9426 -0.7042
 3977TIP3   OH233345   2.497   2.515   1.489 -0.4807  0.5205 -0.2999
 3977TIP3    H133346   2.501   2.420   1.504  0.4386  0.6386  0.2878
 3977TIP3    H233347   2.418   2.543   1.535  1.8088  0.7508  3.9569
 3978TIP3   OH233348   6.242   1.254   0.568  0.3983  0.0600 -0.4264
 3978TIP3    H133349   6.183   1.271   0.495  0.3653 -0.0772 -0.4307
 3978TIP3    H233350   6.237   1.160   0.583  0.5220  0.0648 -0.3469
 3979TIP3   OH233351   1.587   3.615  10.165  0.0958 -0.0745 -0.0305
 3979TIP3    H133352   1.559   3.640  10.254 -0.8554 -0.4339 -0.2107
 3979TIP3    H233353   1.538   3.534  10.147  1.2718 -0.7265 -0.3853
 3980TIP3   OH233354   0.821   7.118  11.811 -0.4121  0.1281  0.5704
 3980TIP3    H133355   0.806   7.213  11.814 -2.3877 -0.1612  1.6602
 3980TIP3    H233356   0.739   7.080  11.844  0.5371 -1.9548  0.6727
 3981TIP3   OH233357   5.873   4.426   0.139 -0.1243  0.7656 -0.3252
 3981TIP3    H133358   5.803   4.391   0.083  0.5892 -0.8514 -0.2355
 3981TIP3    H233359   5.842   4.514   0.162 -0.6107  1.3692 -2.9416
 3982TIP3   OH233360   1.738   5.004   9.964 -0.5540  0.1313 -0.5024
 3982TIP3    H133361   1.826   5.042   9.952 -1.0317  1.6589  0.5352
 3982TIP3    H233362   1.753   4.925  10.017  0.2195  0.2377 -0.5474
 3983TIP3   OH233363   5.572   5.938  11.499 -0.5912  0.0961  0.4528
 3983TIP3    H133364   5.553   5.845  11.483 -0.7603  0.3750 -1.1096
 3983TIP3    H233365   5.505   5.965  11.562 -0.7165 -0.7657  0.7147
 3984TIP3   OH233366   6.583   3.766  15.161 -0.4163 -0.4432 -0.8459
 3984TIP3    H133367   6.644   3.805  15.099  0.1961 -0.7721 -0.4591
 3984TIP3    H233368   6.513   3.728  15.107 -0.8466  0.8690 -1.2464
 3985TIP3   OH233369   0.490   4.350  10.940 -0.5410  0.2242  0.1557
 3985TIP3    H133370   0.413   4.304  10.908 -1.3193  1.3753  0.3127
 3985TIP3    H233371   0.455   4.416  11.000  0.5032  1.2338 -0.3139
 3986TIP3   OH233372   1.352   7.110   9.629 -0.2007  0.1619  0.1723
 3986TIP3    H133373   1.311   7.128   9.544  0.8377  0.7060 -0.2387
 3986TIP3    H233374   1.327   7.020   9.650 -0.0977 -0.1460 -0.9450
 3987TIP3   OH233375   0.633   0.830  11.302  0.1875 -0.0579 -0.3103
 3987TIP3    H133376   0.560   0.869  11.352 -1.2459  0.6618 -2.7995
 3987TIP3    H233377   0.676   0.905  11.261  0.1766 -0.7527 -1.6116
 3988TIP3   OH233378   4.294   1.726  12.116 -0.2353 -0.1437 -0.4294
 3988TIP3    H133379   4.359   1.757  12.178 -0.7874  0.0137  0.0801
 3988TIP3    H233380   4.305   1.631  12.114 -0.3132 -0.1672  0.0352
 3989TIP3   OH233381   7.086   1.403  14.334 -0.3729 -1.0160 -0.1305
 3989TIP3    H133382   7.133   1.372  14.411 -1.9364 -1.5781  0.6285
 3989TIP3    H233383   7.054   1.323  14.292  0.2495 -0.7003 -1.2397
 3990TIP3   OH233384   5.112   3.599  10.534 -0.2422  0.7852 -0.0492
 3990TIP3    H133385   5.116   3.541  10.610 -0.3337  1.1371  0.2223
 3990TIP3    H233386   5.141   3.544  10.461  1.9264  1.0410  0.5778
 3991TIP3   OH233387   1.346   5.201  15.160 -0.4434  0.5345  0.2205
 3991TIP3    H133388   1.432   5.237  15.140 -0.7128 -0.1745 -2.6618
 3991TIP3    H233389   1.286   5.275  15.149 -0.3248  0.7580  1.0631
 3992TIP3   OH233390   2.082   1.730   0.331 -0.1855 -0.6578 -0.6947
 3992TIP3    H133391   2.060   1.681   0.251  2.7733 -0.1718 -1.9408
 3992TIP3    H233392   2.112   1.815   0.299  0.6500 -0.2882  0.9695
 3993TIP3   OH233393   0.913   6.250  15.000 -0.3408 -0.2429 -0.2038
 3993TIP3    H133394   0.944   6.243  15.090 -0.3601  0.8867 -0.0918
 3993TIP3    H233395   0.895   6.344  14.988 -0.6744 -0.4272 -1.2682
 3994TIP3   OH233396   1.545   5.805   0.293  0.0394  0.3439 -0.2775
 3994TIP3    H133397   1.575   5.812   0.383 -1.5618 -1.5590  0.4938
 3994TIP3    H233398   1.590   5.727   0.259  1.0450  1.3506 -1.3418
 3995TIP3   OH233399   0.924   6.540  14.561  0.0452 -0.0263 -0.1656
 3995TIP3    H133400   0.962   6.616  14.605  0.0902  0.1242 -0.4592
 3995TIP3    H233401   0.950   6.551  14.469 -1.1529  0.3599 -0.4728
 3996TIP3   OH233402   5.124   6.953  10.094 -0.3212  0.1517  0.0790
 3996TIP3    H133403   5.200   6.992  10.052  1.0980  1.3828  3.4571
 3996TIP3    H233404   5.156   6.872  10.133 -0.8851  0.3718  1.0305
 3997TIP3   OH233405   4.992   3.984   2.517 -0.6020  0.9515  0.1168
 3997TIP3    H133406   5.035   4.016   2.437 -1.2540  1.3607 -0.0812
 3997TIP3    H233407   4.995   4.059   2.577  0.6849  0.3623  0.8160
 3998TIP3   OH233408   0.277   4.336  10.101  0.1155  0.5430 -1.0173
 3998TIP3    H133409   0.202   4.276  10.098 -0.0670  0.8045 -2.3805
 3998TIP3    H233410   0.279   4.375  10.014  0.5945  2.0922 -0.3305
 3999TIP3   OH233411   2.939   0.381  11.340 -0.2575 -0.3819 -0.4779
 3999TIP3    H133412   2.938   0.286  11.335  0.5147 -0.3193 -4.0696
 3999TIP3    H233413   2.872   0.402  11.406 -0.2212 -3.3440  0.6555
 4000TIP3   OH233414   2.115   3.801  11.895 -0.1046  0.7257  0.2857
 4000TIP3    H133415   2.035   3.827  11.940  0.0005 -0.0882  0.9789
 4000TIP3    H233416   2.166   3.754  11.961  0.8636  1.0502 -0.1973
 4001TIP3   OH233417   4.230   4.672   3.801  0.6875 -0.3694  0.0684
 4001TIP3    H133418   4.269   4.626   3.726  1.6638  0.0754  0.2810
 4001TIP3    H233419   4.139   4.687   3.776  1.2691  0.7886 -1.5371
 4002TIP3   OH233420   6.465   1.370  11.741 -0.8368 -0.2878 -0.2494
 4002TIP3    H133421   6.558   1.385  11.761 -0.6490 -1.3028 -0.2844
 4002TIP3    H233422   6.425   1.457  11.746  0.1161  0.1702 -0.2427
 4003TIP3   OH233423   0.885   6.905   0.711 -0.6017  0.6675  0.2382
 4003TIP3    H133424   0.889   6.847   0.635 -0.7113 -0.4117  1.0245
 4003TIP3    H233425   0.926   6.854   0.781 -0.5694  1.6111  0.9187
 4004TIP3   OH233426   2.409   0.302  14.272  0.4506  0.3181  0.1926
 4004TIP3    H133427   2.349   0.239  14.232  0.4604  0.4878 -0.0910
 4004TIP3    H233428   2.356   0.379  14.288  0.3372  0.0949  0.9243
 4005TIP3   OH233429   6.833   1.583  11.963 -0.3563  0.0758  0.5372
 4005TIP3    H133430   6.910   1.542  11.924 -1.0533  1.6606 -2.9260
 4005TIP3    H233431   6.858   1.601  12.054  2.8110 -0.6812 -0.0628
 4006TIP3   OH233432   0.853   2.056  11.582  0.1726  1.1114  0.2766
 4006TIP3    H133433   0.926   2.117  11.571  0.4566  0.9783  1.3157
 4006TIP3    H233434   0.892   1.979  11.623 -0.0942  0.0188 -1.4580
 4007TIP3   OH233435   1.983   5.121   9.954 -0.1013 -0.1424  0.3482
 4007TIP3    H133436   2.021   5.209   9.951 -0.8979  0.1835 -1.4883
 4007TIP3    H233437   2.053   5.067   9.992  0.4028  1.2414  1.5215
 4008TIP3   OH233438   3.000   6.666  12.172  0.3735 -0.6773 -0.1677
 4008TIP3    H133439   2.980   6.585  12.220  0.0143  0.2428  1.2888
 4008TIP3    H233440   3.078   6.701  12.215  0.9010 -0.5374 -1.1890
 4009TIP3   OH233441   4.864   0.652   1.770 -0.4474  0.3054 -0.1379
 4009TIP3    H133442   4.936   0.714   1.779 -1.4116  1.5695 -0.7378
 4009TIP3    H233443   4.869   0.597   1.848  0.7044  0.8505  0.1942
 4010TIP3   OH233444   4.859   4.250   4.627 -0.3275 -0.7454 -0.2690
 4010TIP3    H133445   4.817   4.328   4.662 -0.5810 -0.3885 -1.3381
 4010TIP3    H233446   4.928   4.282   4.570  1.4962 -1.3326  1.4979
 4011TIP3   OH233447   6.504   0.219  13.413 -0.1041  0.3791  0.1861
 4011TIP3    H133448   6.510   0.269  13.494  1.2445  0.8429 -0.1656
 4011TIP3    H233449   6.582   0.245  13.363  0.0405 -1.2307 -0.4911
 4012TIP3   OH233450   5.431   4.624  12.681  0.1263  0.2415 -0.1558
 4012TIP3    H133451   5.390   4.567  12.616  1.7614 -2.7061  1.1990
 4012TIP3    H233452   5.517   4.645  12.644 -0.1978  1.3547 -0.3339
 4013TIP3   OH233453   3.179   4.157   1.785  0.3882  0.2654 -0.0936
 4013TIP3    H133454   3.148   4.197   1.866  0.1327  0.1338 -0.1264
 4013TIP3    H233455   3.251   4.100   1.813  0.0417 -0.0843  0.0924
 4014TIP3   OH233456   1.843   5.856  11.569  0.5144 -0.6225 -0.3094
 4014TIP3    H133457   1.892   5.864  11.651  2.1592 -2.6153 -0.9997
 4014TIP3    H233458   1.900   5.898  11.504  0.3922 -1.2151 -0.8046
 4015TIP3   OH233459   0.036   0.680   9.372 -0.3960 -0.3962  0.1125
 4015TIP3    H133460   0.116   0.727   9.396 -0.4561 -0.7431  1.0409
 4015TIP3    H233461  -0.029   0.708   9.436 -0.7806 -0.7612 -0.1124
 4016TIP3   OH233462   5.797   1.069  13.075  0.2801 -0.0432  0.9347
 4016TIP3    H133463   5.861   1.079  13.145  0.4922  0.4398  0.6782
 4016TIP3    H233464   5.804   1.150  13.024 -2.4960  1.3250  2.4994
 4017TIP3   OH233465   3.723   5.372   1.463 -0.0803 -0.4944 -0.6643
 4017TIP3    H133466   3.731   5.333   1.550 -0.9596 -0.5163 -0.5920
 4017TIP3    H233467   3.813   5.373   1.430  0.0293 -2.3745 -0.5762
 4018TIP3   OH233468   1.213   4.007  13.289  0.4786 -0.1605 -0.0103
 4018TIP3    H133469   1.215   3.972  13.378  1.0811  0.6961  0.3329
 4018TIP3    H233470   1.246   4.097  13.298  0.8749 -0.1751 -1.1498
 4019TIP3   OH233471   4.577   7.078  11.777  0.6261  0.0607 -0.9597
 4019TIP3    H133472   4.652   7.057  11.720  0.9405 -0.0267 -0.5202
 4019TIP3    H233473   4.574   7.173  11.779  0.3695  0.0669 -1.4365
 4020TIP3   OH233474   4.136   3.212  11.215  0.5394  0.2874 -0.0242
 4020TIP3    H133475   4.074   3.152  11.257 -0.8818  0.6331 -1.4761
 4020TIP3    H233476   4.081   3.286  11.187  1.9645  1.4874  0.2806
 4021TIP3   OH233477   0.523   1.357   9.703  0.0224  0.4709  0.2618
 4021TIP3    H133478   0.449   1.320   9.655 -0.8099  0.9705  1.1249
 4021TIP3    H233479   0.556   1.426   9.646 -0.9902  1.0932  0.3916
 4022TIP3   OH233480   1.050   5.720  12.898 -0.2432 -0.3914  0.5924
 4022TIP3    H133481   1.097   5.757  12.824 -2.7361  1.5663 -0.1748
 4022TIP3    H233482   1.024   5.633  12.869  0.3096 -0.3161 -0.1574
 4023TIP3   OH233483   6.924   6.799  12.429  0.4297  0.5041  0.5356
 4023TIP3    H133484   6.833   6.821  12.449  0.3722  1.2431 -0.4411
 4023TIP3    H233485   6.972   6.879  12.452  0.6927  0.4643  0.1188
 4024TIP3   OH233486   4.307   0.919  14.623  0.6108 -0.5505 -0.4101
 4024TIP3    H133487   4.403   0.924  14.623  0.6509 -0.0002  2.1967
 4024TIP3    H233488   4.279   1.006  14.652 -0.6464 -0.8825 -0.5974
 4025TIP3   OH233489   7.078   1.896  12.875  0.3091  0.0474 -0.2724
 4025TIP3    H133490   7.086   1.896  12.779 -0.1362 -0.0617 -0.3109
 4025TIP3    H233491   7.111   1.810  12.901  1.2374  0.4028 -0.2546
 4026TIP3   OH233492   6.445   3.746  14.916 -0.0066  0.1693  0.1724
 4026TIP3    H133493   6.469   3.787  14.833  0.0917  1.1606  0.6627
 4026TIP3    H233494   6.351   3.730  14.909 -0.1225  0.8330  0.0946
 4027TIP3   OH233495   5.533   6.231   9.704  0.0108  0.2158  0.5955
 4027TIP3    H133496   5.621   6.267   9.700  0.3167 -0.4562  1.0116
 4027TIP3    H233497   5.530   6.184   9.788 -0.3587 -0.7304  0.0702
 4028TIP3   OH233498   2.586   5.471  12.855 -0.6059 -0.2743 -0.7630
 4028TIP3    H133499   2.543   5.489  12.771 -2.4178 -0.5854  0.0442
 4028TIP3    H233500   2.627   5.554  12.879 -3.0811  0.9109 -0.3201
 4029TIP3   OH233501   0.413   1.692  13.748 -0.2836 -0.4958  0.3685
 4029TIP3    H133502   0.334   1.643  13.769 -0.2264 -0.5626  0.4318
 4029TIP3    H233503   0.406   1.710  13.654 -0.5847 -0.1133  0.4657
 4030TIP3   OH233504   1.999   5.170  14.233 -0.0291  0.6489 -0.4438
 4030TIP3    H133505   2.044   5.236  14.180  1.3889 -0.9357 -1.3148
 4030TIP3    H233506   2.044   5.173  14.318  0.2920  0.5765 -0.6062
 4031TIP3   OH233507   4.578   6.406   9.892  0.1227  0.1935  0.4685
 4031TIP3    H133508   4.671   6.388   9.888 -0.1901 -1.5469  0.4986
 4031TIP3    H233509   4.536   6.320   9.896 -1.4960  0.9241  0.2085
 4032TIP3   OH233510   6.634   3.442  10.427 -0.2677 -0.4190  0.2876
 4032TIP3    H133511   6.652   3.494  10.349  0.1339 -0.5599  0.2824
 4032TIP3    H233512   6.643   3.504  10.500  0.0585 -0.4472  0.2712
 4033TIP3   OH233513   1.145   4.622  11.416 -0.3671 -0.0780  0.2660
 4033TIP3    H133514   1.184   4.546  11.373  0.2763  0.6070 -0.3928
 4033TIP3    H233515   1.079   4.585  11.475  1.0256 -1.2339  1.1644
 4034TIP3   OH233516   3.608   1.444  13.566  0.0855 -0.3304  0.1855
 4034TIP3    H133517   3.685   1.392  13.587  1.4896  0.7786 -1.8653
 4034TIP3    H233518   3.612   1.458  13.472 -4.1289 -2.4580 -0.5791
 4035TIP3   OH233519   4.119   0.892  10.451 -0.2937 -0.4548  0.0817
 4035TIP3    H133520   4.094   0.884  10.543 -1.0927 -0.9738 -0.1790
 4035TIP3    H233521   4.213   0.912  10.454 -0.3660 -0.2118  1.0125
 4036TIP3   OH233522   5.907   2.336  10.266 -0.0675  0.3289 -0.3837
 4036TIP3    H133523   5.901   2.285  10.347 -0.0530 -0.6799 -0.9932
 4036TIP3    H233524   6.000   2.358  10.259  0.3838 -1.5957 -1.2751
 4037TIP3   OH233525   4.337   0.549  11.163  0.1540  0.0066 -0.2617
 4037TIP3    H133526   4.267   0.582  11.106 -1.1038 -0.9126  0.6845
 4037TIP3    H233527   4.412   0.536  11.105 -0.7878  0.0139 -1.5183
 4038TIP3   OH233528   4.470   5.347  10.198  0.5719 -0.3456  0.3365
 4038TIP3    H133529   4.480   5.263  10.153  1.0382 -0.6915  1.0608
 4038TIP3    H233530   4.528   5.407  10.152 -1.3088  0.1632 -1.5253
 4039TIP3   OH233531   7.063   6.006   0.512  1.0856  0.1797 -0.1025
 4039TIP3    H133532   7.036   6.081   0.459  0.2965  1.0835  1.5085
 4039TIP3    H233533   7.009   5.933   0.480 -0.4102  1.0401  0.3916
 4040TIP3   OH233534   4.497   2.475  14.942 -0.3129  0.1744 -0.0071
 4040TIP3    H133535   4.442   2.527  14.884 -0.9270  0.2609  0.6401
 4040TIP3    H233536   4.576   2.457  14.890 -0.2358  1.4427 -0.3745
 4041TIP3   OH233537   2.984   0.301  12.046  0.4007 -0.2329 -0.2213
 4041TIP3    H133538   3.002   0.279  12.137 -0.0577 -0.5627 -0.2054
 4041TIP3    H233539   3.066   0.335  12.012  0.9988 -1.5196 -0.1074
 4042TIP3   OH233540   4.888   0.977  11.964 -0.0620  0.1263 -0.3367
 4042TIP3    H133541   4.820   1.028  11.919  0.5946  0.9234 -0.4500
 4042TIP3    H233542   4.959   0.970  11.899  0.4303  0.3145  0.1711
 4043TIP3   OH233543   2.657   5.142   1.993 -0.4342 -0.2218  0.2297
 4043TIP3    H133544   2.665   5.055   1.955 -2.3625  0.3384 -1.6674
 4043TIP3    H233545   2.739   5.186   1.971  0.5130 -1.4705  1.1085
 4044TIP3   OH233546   5.493   6.810  13.456  0.3705  0.0870  0.1841
 4044TIP3    H133547   5.447   6.734  13.418 -1.0694  0.4160  1.1940
 4044TIP3    H233548   5.513   6.865  13.380 -0.2836 -0.3990 -0.3610
 4045TIP3   OH233549   4.440   6.841  13.617 -0.1145  0.1787 -0.3535
 4045TIP3    H133550   4.521   6.800  13.588  0.1844  1.0837 -0.8240
 4045TIP3    H233551   4.374   6.772  13.608  0.6605 -0.6994  0.4327
 4046TIP3   OH233552   4.699   5.340  11.124 -0.0639 -0.3318 -0.1613
 4046TIP3    H133553   4.760   5.327  11.052 -2.4899  0.6647 -2.5571
 4046TIP3    H233554   4.627   5.279  11.107 -1.4219  1.0178  0.4692
 4047TIP3   OH233555   4.085   2.725  10.739  0.0353 -0.0298  0.8086
 4047TIP3    H133556   4.159   2.702  10.682  1.1023 -0.3611  2.2576
 4047TIP3    H233557   4.127   2.756  10.819 -1.4049  1.8720  0.8861
 4048TIP3   OH233558   0.679   0.446  11.409  0.2862 -0.1718 -0.0315
 4048TIP3    H133559   0.749   0.410  11.354  1.5171  0.0670  1.3460
 4048TIP3    H233560   0.603   0.446  11.351  0.9469 -2.1510 -1.0221
 4049TIP3   OH233561   1.259   2.400   9.934 -0.0368  0.8309  0.1600
 4049TIP3    H133562   1.302   2.452   9.866  0.4139 -1.3070 -1.2796
 4049TIP3    H233563   1.215   2.329   9.886 -1.8086  0.6385  1.9248
 4050TIP3   OH233564   3.452   4.670  10.055 -0.3889 -0.6039 -0.2234
 4050TIP3    H133565   3.369   4.630  10.082 -1.3163  2.7030  2.6667
 4050TIP3    H233566   3.426   4.752  10.013  1.2826  1.1194  1.8464
 4051TIP3   OH233567   4.657   7.070  12.938 -0.1286 -0.1267  0.0842
 4051TIP3    H133568   4.704   7.054  13.020  0.1981 -2.3848 -0.4978
 4051TIP3    H233569   4.696   7.010  12.875 -1.8984 -0.0559 -1.1589
 4052TIP3   OH233570   2.915   6.278  13.411  0.1270  0.5162  0.1233
 4052TIP3    H133571   2.903   6.318  13.497  1.8399 -1.5171  1.3984
 4052TIP3    H233572   2.871   6.193  13.417  0.3121  0.3201 -0.9855
 4053TIP3   OH233573   0.898   4.766  11.276 -0.1200 -0.0982  0.4177
 4053TIP3    H133574   0.934   4.711  11.345 -0.7628 -1.6518 -0.4247
 4053TIP3    H233575   0.803   4.759  11.286 -0.2170  0.2378 -0.1898
 4054TIP3   OH233576   2.188   2.791  13.225  0.3662 -0.0778 -0.2038
 4054TIP3    H133577   2.143   2.795  13.141  0.3684 -0.5642 -0.2318
 4054TIP3    H233578   2.201   2.697  13.240 -0.5382 -0.0557  0.8235
 4055TIP3   OH233579   7.113   0.685  10.346  0.1612  0.4289 -0.1714
 4055TIP3    H133580   7.187   0.628  10.327 -0.4503 -0.4569  0.0266
 4055TIP3    H233581   7.135   0.727  10.429  0.4701  0.2161 -0.1451
 4056TIP3   OH233582   0.289   6.925   1.582 -0.0232  0.1021  0.0932
 4056TIP3    H133583   0.279   6.945   1.489  1.0492  1.1932  0.1968
 4056TIP3    H233584   0.218   6.864   1.601 -0.9062  0.6899 -1.2009
 4057TIP3   OH233585   4.362   2.376   0.167  0.3721 -0.0974  0.3166
 4057TIP3    H133586   4.325   2.301   0.119 -0.8306  0.0209  1.0210
 4057TIP3    H233587   4.372   2.344   0.257  1.1826  0.1643  0.3301
 4058TIP3   OH233588   1.247   2.006  14.848 -0.1089  0.0193 -0.0483
 4058TIP3    H133589   1.160   1.980  14.820 -0.1920 -0.0545  0.2752
 4058TIP3    H233590   1.251   1.981  14.941  0.9423 -1.8395 -0.5432
 4059TIP3   OH233591   2.593   3.623  10.791 -0.4257 -0.0843  0.3602
 4059TIP3    H133592   2.572   3.531  10.801  0.3188 -0.4634 -1.2882
 4059TIP3    H233593   2.646   3.644  10.868  0.7641 -1.4700 -0.0385
 4060TIP3   OH233594   3.903   6.563  13.251 -0.2726 -0.1013 -0.1406
 4060TIP3    H133595   3.861   6.506  13.186  1.5167 -0.9152 -0.6635
 4060TIP3    H233596   3.835   6.580  13.316 -0.9063 -2.8771  0.0459
 4061TIP3   OH233597   2.948   6.101   9.840 -0.5463  0.4136 -0.1109
 4061TIP3    H133598   2.967   6.030   9.901 -1.4929  0.5575  0.3734
 4061TIP3    H233599   2.895   6.163   9.891 -0.0001  1.3199 -0.6125
 4062TIP3   OH233600   6.327   2.317   3.258 -0.2139  0.8558  0.5598
 4062TIP3    H133601   6.322   2.412   3.245 -1.2454  0.6631 -0.7565
 4062TIP3    H233602   6.259   2.298   3.322 -0.1991  0.9772  0.6112
 4063TIP3   OH233603   4.507   4.403   9.652 -0.0792 -0.0584  0.1718
 4063TIP3    H133604   4.549   4.389   9.567  1.1274  2.6028  0.2462
 4063TIP3    H233605   4.458   4.484   9.643 -0.2044  0.1052  1.9256
 4064TIP3   OH233606   0.850   0.125   2.223 -0.3690  0.0274 -0.0112
 4064TIP3    H133607   0.900   0.116   2.142 -0.6200 -0.2832 -0.1357
 4064TIP3    H233608   0.850   0.037   2.261 -1.4641 -0.1555 -0.4019
 4065TIP3   OH233609   1.329   4.716  11.837  0.1206 -0.8682 -0.2233
 4065TIP3    H133610   1.322   4.731  11.931  1.1560 -1.2521 -0.0659
 4065TIP3    H233611   1.423   4.723  11.819 -0.2675  2.3959 -1.7864
 4066TIP3   OH233612   5.042   5.134  10.370  0.0353  0.2013  0.4978
 4066TIP3    H133613   4.960   5.161  10.412  0.4740  1.8170  0.3615
 4066TIP3    H233614   5.108   5.148  10.437  0.2620 -0.8148  0.5024
 4067TIP3   OH233615   3.461   6.582  12.039  0.1046 -0.1818  0.3112
 4067TIP3    H133616   3.410   6.545  12.111 -0.3868  2.3691  1.3772
 4067TIP3    H233617   3.544   6.534  12.042 -1.3360 -2.9798 -0.1595
 4068TIP3   OH233618   1.994   5.941   9.961 -0.0937 -0.2151 -0.1292
 4068TIP3    H133619   2.067   5.915  10.018 -0.8301 -0.0989  0.9043
 4068TIP3    H233620   2.028   5.932   9.872  2.1368  2.5289  0.3119
 4069TIP3   OH233621   1.493   2.063  14.757 -0.3298  0.2828  0.1286
 4069TIP3    H133622   1.416   2.061  14.814 -1.7358 -2.8135 -1.5873
 4069TIP3    H233623   1.458   2.083  14.670  0.9110 -0.4181 -0.5672
 4070TIP3   OH233624   0.836   3.171  13.223 -0.1501  0.8241 -0.2607
 4070TIP3    H133625   0.852   3.259  13.258  2.0658  0.5403 -0.4561
 4070TIP3    H233626   0.804   3.121  13.297  0.1735  1.3806  0.2653
 4071TIP3   OH233627   3.304   5.015   0.259  0.0466  0.1019  0.2895
 4071TIP3    H133628   3.311   5.017   0.354  1.0707 -1.5174  0.2999
 4071TIP3    H233629   3.377   5.068   0.228  0.7766 -0.7823  0.4386
 4072TIP3   OH233630   6.356   6.440  14.322  0.0340  1.1291 -0.0880
 4072TIP3    H133631   6.357   6.356  14.367 -0.7950  1.7131  1.0557
 4072TIP3    H233632   6.374   6.418  14.230 -0.0031 -0.2658  0.2191
 4073TIP3   OH233633   2.282   3.708  14.851 -0.7848 -0.2715  0.0729
 4073TIP3    H133634   2.279   3.745  14.763  1.0714  0.6893  0.3527
 4073TIP3    H233635   2.241   3.773  14.906 -1.7498 -0.7757 -0.0317
 4074TIP3   OH233636   1.127   1.750  12.205 -0.2843 -0.9022  0.2247
 4074TIP3    H133637   1.059   1.749  12.138  1.8338 -0.2952 -2.1178
 4074TIP3    H233638   1.132   1.842  12.232  3.4846  0.5561 -4.1876
 4075TIP3   OH233639   5.512   1.929  11.893  0.4347  0.1410 -0.2794
 4075TIP3    H133640   5.559   1.892  11.819 -2.9863  1.8273 -3.6606
 4075TIP3    H233641   5.554   2.013  11.909 -0.5379  1.1260 -2.4789
 4076TIP3   OH233642   0.339   4.468  14.009 -0.1598  0.3347 -0.2257
 4076TIP3    H133643   0.373   4.379  13.999 -1.9580 -0.4174 -0.0541
 4076TIP3    H233644   0.244   4.457  14.016 -0.3579  2.1904  0.7814
 4077TIP3   OH233645   4.801   0.239  13.243  0.0417 -0.2131 -0.0353
 4077TIP3    H133646   4.807   0.177  13.316  0.0286 -1.9881 -1.4740
 4077TIP3    H233647   4.892   0.262  13.224  0.1438 -0.8946 -0.3893
 4078TIP3   OH233648   4.400   2.063  14.609 -0.8986 -0.1225  0.1421
 4078TIP3    H133649   4.343   2.029  14.540 -1.8950  0.0973  0.8287
 4078TIP3    H233650   4.351   2.047  14.690  0.6831 -1.3026  0.9237
 4079TIP3   OH233651   1.068   2.463  13.912  0.6309  0.1960  0.5506
 4079TIP3    H133652   0.981   2.492  13.938  0.6065 -0.0873  0.7784
 4079TIP3    H233653   1.125   2.538  13.931  0.2151  0.9314 -0.9596
 4080TIP3   OH233654   5.780   6.414  15.211  0.3264  0.3508 -0.3048
 4080TIP3    H133655   5.846   6.481  15.198 -0.6950  1.4750  0.0973
 4080TIP3    H233656   5.723   6.421  15.133 -0.2941  0.5873  0.1571
 4081TIP3   OH233657   1.689   4.486  11.038 -0.0866  0.3516  0.1904
 4081TIP3    H133658   1.628   4.473  10.965 -0.0080  1.2561 -0.0511
 4081TIP3    H233659   1.672   4.413  11.097 -1.1149  0.3601 -0.0761
 4082TIP3   OH233660   4.630   7.062  14.948 -0.2387 -0.0827 -0.3180
 4082TIP3    H133661   4.689   7.133  14.975  0.6774 -0.9886  0.1690
 4082TIP3    H233662   4.561   7.061  15.014  0.9955 -1.0957  1.0260
 4083TIP3   OH233663   2.178   6.857  11.430 -0.2378 -0.0628 -0.3992
 4083TIP3    H133664   2.200   6.864  11.337 -1.2903 -0.1447 -0.6715
 4083TIP3    H233665   2.084   6.839  11.430 -0.1243 -0.7143  0.6634
 4084TIP3   OH233666   0.286   2.706  14.515 -0.0413 -0.3104 -0.1207
 4084TIP3    H133667   0.310   2.626  14.561  0.4898 -0.5929 -0.8504
 4084TIP3    H233668   0.370   2.740  14.482 -0.2334  0.6853  0.4066
 4085TIP3   OH233669   4.423   1.144  12.068  0.2978  0.6084  0.0078
 4085TIP3    H133670   4.435   1.050  12.079  1.7625  0.7221 -0.4021
 4085TIP3    H233671   4.427   1.158  11.973  0.4220  1.1133  0.0804
 4086TIP3   OH233672   6.831   1.773  11.443 -0.1318  0.5926 -0.5456
 4086TIP3    H133673   6.883   1.851  11.424 -0.1051  0.9134  0.7869
 4086TIP3    H233674   6.780   1.759  11.363  0.3314  1.5949 -1.0384
 4087TIP3   OH233675   6.000   0.816  10.995  0.1933  0.6769  1.1124
 4087TIP3    H133676   5.908   0.809  10.969  0.6757 -1.3376 -0.3560
 4087TIP3    H233677   6.014   0.739  11.051  1.0995  0.6413  0.8502
 4088TIP3   OH233678   5.925   6.179  10.313  0.2777  0.7203  0.2472
 4088TIP3    H133679   5.894   6.242  10.377 -1.1687 -1.8347  2.2497
 4088TIP3    H233680   5.965   6.110  10.365  0.6029 -0.6672 -1.7340
 4089TIP3   OH233681   5.801   3.571  12.122 -0.7695  0.2234  0.6089
 4089TIP3    H133682   5.818   3.514  12.197 -3.6188  1.6564  2.5215
 4089TIP3    H233683   5.706   3.579  12.118 -0.5956  3.7075 -0.3945
 4090TIP3   OH233684   1.444   5.675  13.348 -0.1144 -0.2350 -0.3655
 4090TIP3    H133685   1.486   5.590  13.360  0.5745  0.0112 -0.9566
 4090TIP3    H233686   1.365   5.655  13.296  1.4660 -0.2269 -2.9739
 4091TIP3   OH233687   3.492   5.871  12.768 -0.4890 -0.4370 -0.3973
 4091TIP3    H133688   3.534   5.886  12.853  1.0335  1.5971 -1.4285
 4091TIP3    H233689   3.401   5.853  12.790  0.1619 -1.5148  1.7347
 4092TIP3   OH233690   6.046   5.847  11.249 -0.1229 -0.3781 -0.2273
 4092TIP3    H133691   6.069   5.802  11.168 -2.6867 -0.2804 -1.0728
 4092TIP3    H233692   6.042   5.940  11.225 -3.2509 -0.5294 -0.7265
 4093TIP3   OH233693   0.939   4.101   9.530 -0.1243  0.2873 -0.1522
 4093TIP3    H133694   1.007   4.156   9.568  0.7866 -0.5804 -0.4652
 4093TIP3    H233695   0.983   4.054   9.459 -0.8911 -0.7797  0.0538
 4094TIP3   OH233696   3.773   5.503   2.200  0.4050  0.0050 -0.1149
 4094TIP3    H133697   3.753   5.457   2.281  1.0917  1.8633  1.1659
 4094TIP3    H233698   3.868   5.516   2.203  0.4634 -0.0460 -1.3143
 4095TIP3   OH233699   1.316   1.551  10.042 -0.6693 -0.3597 -0.3445
 4095TIP3    H133700   1.337   1.491  10.113  0.5847 -0.8148 -1.0455
 4095TIP3    H233701   1.381   1.620  10.049  0.3853 -1.1240 -1.8234
 4096TIP3   OH233702   7.090   3.237  12.417 -0.3170 -0.3465 -0.1301
 4096TIP3    H133703   7.097   3.315  12.471  2.2693  0.1355 -1.0176
 4096TIP3    H233704   7.116   3.266  12.329  0.4822 -2.1240 -0.5239
 4097TIP3   OH233705   4.084   0.270  13.129  0.1319  0.4099 -0.0017
 4097TIP3    H133706   4.029   0.192  13.132  0.3689  0.2566  0.3138
 4097TIP3    H233707   4.116   0.281  13.218  0.0790  0.8810 -0.0410
 4098TIP3   OH233708   4.752   5.350  11.977  0.4687 -0.1117 -0.2641
 4098TIP3    H133709   4.772   5.441  11.958  2.4502 -0.4429  0.0584
 4098TIP3    H233710   4.673   5.354  12.032  0.3166  1.3562 -0.5384
 4099TIP3   OH233711   1.304   5.065  14.194 -0.0601 -0.6075 -0.5585
 4099TIP3    H133712   1.334   5.084  14.283 -1.6823 -0.5052 -0.0052
 4099TIP3    H233713   1.329   5.143  14.144  0.0340 -0.2626  0.0125
 4100TIP3   OH233714   6.704   4.246   9.682  0.0905  0.2977  0.6975
 4100TIP3    H133715   6.671   4.312   9.620 -1.4834  0.3403  1.5402
 4100TIP3    H233716   6.626   4.197   9.709  1.0656 -1.1435  1.0082
 4101TIP3   OH233717   1.104   1.451   9.900 -0.0723  0.1580 -0.5037
 4101TIP3    H133718   1.164   1.475   9.972 -0.1473  0.1823 -0.4497
 4101TIP3    H233719   1.117   1.519   9.834  1.4096 -0.8819 -1.3383
 4102TIP3   OH233720   3.925   1.888  14.466  0.9594 -0.4784  0.6452
 4102TIP3    H133721   3.844   1.887  14.516  0.4604  2.7734  0.1104
 4102TIP3    H233722   3.994   1.885  14.532  0.3395  0.7376  1.3856
 4103TIP3   OH233723   5.569   4.609  14.427 -0.4150  0.7315 -0.1494
 4103TIP3    H133724   5.495   4.659  14.393 -0.6780  0.6763  0.3329
 4103TIP3    H233725   5.535   4.520  14.439 -0.4297  0.8237  0.5629
 4104TIP3   OH233726   5.994   6.576  10.297 -0.7134 -0.3085  0.5226
 4104TIP3    H133727   5.988   6.669  10.317  0.4058 -0.1767  0.3209
 4104TIP3    H233728   5.949   6.566  10.214  1.2461  0.5183 -0.7107
 4105TIP3   OH233729   6.076   2.568  12.974  0.7187 -0.3755  0.6104
 4105TIP3    H133730   6.161   2.529  12.996  0.6610  0.0334  1.6033
 4105TIP3    H233731   6.038   2.592  13.058 -0.4819 -0.7310  0.1935
 4106TIP3   OH233732   4.367   5.483   9.904  0.4467  0.5677 -0.3551
 4106TIP3    H133733   4.302   5.421   9.869  0.8171  0.3458 -0.6569
 4106TIP3    H233734   4.446   5.431   9.915  0.6450  0.8951 -0.2172
 4107TIP3   OH233735   0.470   4.806  12.638 -0.2566  1.0151  0.2959
 4107TIP3    H133736   0.489   4.760  12.720  0.1382  1.5038  0.4821
 4107TIP3    H233737   0.406   4.750  12.594 -1.8857  1.6023  1.7585
 4108TIP3   OH233738   1.731   2.641   9.679 -0.7447  0.4128 -0.4513
 4108TIP3    H133739   1.770   2.593   9.751 -1.1934  0.3281 -0.2590
 4108TIP3    H233740   1.794   2.634   9.607 -1.4850 -1.8300 -0.9525
 4109TIP3   OH233741   2.774   5.347  10.076  0.2622  0.7471  0.1483
 4109TIP3    H133742   2.680   5.359  10.064 -0.4650 -2.0131  1.9130
 4109TIP3    H233743   2.785   5.342  10.171  1.3672 -3.2314 -0.0047
 4110TIP3   OH233744   2.337   2.528  12.763  0.2014 -0.1795 -0.2523
 4110TIP3    H133745   2.341   2.619  12.794 -2.5987  0.1766 -0.6662
 4110TIP3    H233746   2.420   2.515  12.718  1.0178  1.9054  0.4955
 4111TIP3   OH233747   1.789   1.202  14.886  0.0217 -0.1415  0.9940
 4111TIP3    H133748   1.842   1.270  14.844 -0.4914 -1.1077 -1.3536
 4111TIP3    H233749   1.698   1.228  14.869 -0.2233 -0.2883  1.9991
 4112TIP3   OH233750   7.004   5.793  12.397 -0.0249 -0.5393 -0.2768
 4112TIP3    H133751   6.913   5.801  12.423  0.4645 -1.2838  1.9142
 4112TIP3    H233752   7.034   5.883  12.384 -1.2522 -0.3208 -1.9510
 4113TIP3   OH233753   3.017   5.382  12.049 -0.2186 -0.6428 -0.2518
 4113TIP3    H133754   3.008   5.290  12.073  0.0930 -1.2137 -2.1870
 4113TIP3    H233755   3.051   5.381  11.960  0.9429  1.3705  0.1085
 4114TIP3   OH233756   3.064   3.796  11.022  0.7682  0.0381 -0.2872
 4114TIP3    H133757   3.069   3.715  10.972  0.4920 -0.9118  1.1812
 4114TIP3    H233758   3.136   3.849  10.989  1.7699 -1.3236 -0.3530
 4115TIP3   OH233759   3.257   1.829  13.094 -0.5654  0.0510 -0.0751
 4115TIP3    H133760   3.347   1.802  13.111 -0.8057 -0.9244 -0.2777
 4115TIP3    H233761   3.203   1.763  13.139 -1.1779  0.4856 -0.1525
 4116TIP3   OH233762   1.511   3.169  14.829  0.1818 -0.0462  0.0946
 4116TIP3    H133763   1.561   3.227  14.771 -0.3574 -0.6254 -0.9945
 4116TIP3    H233764   1.434   3.144  14.777 -0.4425 -0.4002  1.1612
 4117TIP3   OH233765   6.630   3.447  11.287  0.0448  0.1934  0.2493
 4117TIP3    H133766   6.666   3.497  11.213 -0.4402  1.0074  0.5525
 4117TIP3    H233767   6.701   3.444  11.351  0.3025 -0.0964 -0.0431
 4118TIP3   OH233768   5.073   6.486  12.142  0.4862 -0.3596  0.0521
 4118TIP3    H133769   5.082   6.540  12.221  2.4654  1.6856 -1.4462
 4118TIP3    H233770   4.983   6.501  12.113  0.0983 -0.2252  1.2363
 4119TIP3   OH233771   4.867   0.684  12.134 -0.0613 -0.2707 -0.4367
 4119TIP3    H133772   4.785   0.707  12.090  0.6592 -1.1789 -2.3646
 4119TIP3    H233773   4.854   0.593  12.162  0.0966 -0.2364 -0.2494
 4120TIP3   OH233774   1.390   5.768  11.025 -0.1809  0.3227 -0.2886
 4120TIP3    H133775   1.432   5.705  11.084 -0.1691  1.9266  1.5279
 4120TIP3    H233776   1.297   5.760  11.045 -0.2860  0.1489 -0.8345
 4121TIP3   OH233777   2.737   3.973   0.745 -0.0251  0.7938 -0.0155
 4121TIP3    H133778   2.761   3.991   0.835 -1.8875 -0.5381  0.8050
 4121TIP3    H233779   2.672   4.039   0.722 -1.2383 -0.2161  0.4238
 4122TIP3   OH233780   3.365   6.949   0.855 -0.3271 -0.3201  0.5390
 4122TIP3    H133781   3.312   6.902   0.919 -1.7645  0.6504  0.1411
 4122TIP3    H233782   3.319   6.934   0.771 -0.2873  0.9579  0.2628
 4123TIP3   OH233783   5.112   3.925   9.955 -0.7276 -0.0909 -0.3902
 4123TIP3    H133784   5.192   3.972   9.979 -1.6029  0.7196  1.0325
 4123TIP3    H233785   5.115   3.919   9.860  0.0697  1.6628 -0.4966
 4124TIP3   OH233786   0.667   4.146  11.690 -0.3156  0.4151 -0.2612
 4124TIP3    H133787   0.728   4.159  11.763  0.2699 -1.0902 -0.4530
 4124TIP3    H233788   0.608   4.221  11.695  0.1054  0.6768  1.3695
 4125TIP3   OH233789   1.559   3.369   1.977 -0.8155 -0.2047  0.1545
 4125TIP3    H133790   1.539   3.395   1.887 -0.1458 -0.4214 -0.0627
 4125TIP3    H233791   1.548   3.274   1.978  1.7050 -0.5794 -0.4128
 4126TIP3   OH233792   6.444   1.151   5.891  0.0219  0.4301 -0.1819
 4126TIP3    H133793   6.388   1.152   5.813  1.1420 -0.6144 -1.0311
 4126TIP3    H233794   6.529   1.120   5.860  0.7724  0.8829  1.2929
 4127TIP3   OH233795   6.691   4.687  10.636  0.2753 -0.0156 -0.2931
 4127TIP3    H133796   6.660   4.648  10.554 -1.7926  0.1870  0.3309
 4127TIP3    H233797   6.766   4.740  10.610  0.7526 -1.3262 -1.7606
 4128TIP3   OH233798   3.153   4.073   9.879  0.3194  0.0570  0.4969
 4128TIP3    H133799   3.065   4.091   9.844  0.5108 -0.3614 -0.2489
 4128TIP3    H233800   3.151   3.979   9.900  0.1883  0.3160  1.7134
 4129TIP3   OH233801   2.412   6.669  12.976  0.9158  0.0455  0.7507
 4129TIP3    H133802   2.495   6.652  12.932  1.3491  0.8491  1.2322
 4129TIP3    H233803   2.397   6.762  12.965  0.3805  0.0200  1.1930
 4130TIP3   OH233804   2.796   4.744  14.280 -0.3282  0.3703 -0.2366
 4130TIP3    H133805   2.785   4.674  14.215 -0.2891  0.1581 -0.0194
 4130TIP3    H233806   2.712   4.790  14.280 -0.4600  0.1311 -0.1608
 4131TIP3   OH233807   2.253   2.496  10.194  0.1044 -0.5631 -0.5425
 4131TIP3    H133808   2.278   2.588  10.193  0.7281 -0.6517  1.4930
 4131TIP3    H233809   2.159   2.497  10.211 -0.1290 -0.3122 -1.7662
 4132TIP3   OH233810   3.207   3.578  14.062 -0.1737 -0.2689  0.4080
 4132TIP3    H133811   3.275   3.645  14.059  0.1535 -0.5663  1.0924
 4132TIP3    H233812   3.146   3.603  13.992 -0.0554  0.7409  0.6458
 4133TIP3   OH233813   5.881   0.116  12.326 -0.0732  0.2391  0.2634
 4133TIP3    H133814   5.930   0.183  12.374  1.0009  0.0609 -0.5376
 4133TIP3    H233815   5.789   0.140  12.338  0.2546  1.3377  0.7360
 4134TIP3   OH233816   1.243   7.103  12.278  0.0392 -0.1774 -0.0815
 4134TIP3    H133817   1.190   7.181  12.295 -0.7865 -0.4656 -1.2620
 4134TIP3    H233818   1.236   7.052  12.359 -0.4787  0.3499  0.2168
 4135TIP3   OH233819   1.356   4.289  13.917 -0.2037  0.0945  0.0760
 4135TIP3    H133820   1.304   4.324  13.990 -1.4779 -0.0262 -0.7360
 4135TIP3    H233821   1.323   4.200  13.905  1.9015 -0.8868  1.0918
 4136TIP3   OH233822   6.366   5.924  13.225  0.3048 -0.0047 -0.1133
 4136TIP3    H133823   6.282   5.904  13.266  0.7516 -0.5673  0.5678
 4136TIP3    H233824   6.390   5.843  13.180  1.0115 -0.2423  0.6633
 4137TIP3   OH233825   3.553   3.242  14.319  0.2473 -0.6070 -0.4685
 4137TIP3    H133826   3.634   3.203  14.352  0.0274 -1.8782 -1.3929
 4137TIP3    H233827   3.492   3.235  14.393  0.2249 -1.9982 -0.5918
 4138TIP3   OH233828   4.124   1.281  10.938 -0.1321  0.1827  0.1043
 4138TIP3    H133829   4.073   1.357  10.966 -0.3391 -0.1915  0.7623
 4138TIP3    H233830   4.179   1.259  11.013  2.4784  1.7524 -1.1985
 4139TIP3   OH233831   2.315   0.753  14.459  0.0601 -0.2911  0.8643
 4139TIP3    H133832   2.243   0.811  14.433 -0.1029  0.8141  3.4615
 4139TIP3    H233833   2.291   0.667  14.425 -0.7299  0.7261 -1.3056
 4140TIP3   OH233834   2.760   3.322   1.753  0.6874  0.0544 -0.0914
 4140TIP3    H133835   2.706   3.278   1.819  1.2068 -0.4556 -0.0055
 4140TIP3    H233836   2.778   3.255   1.687 -0.0210  0.6151 -0.8857
 4141TIP3   OH233837   0.234   3.844   1.591  0.8099  0.1373 -0.1196
 4141TIP3    H133838   0.323   3.809   1.587  0.4871 -0.9230  1.1976
 4141TIP3    H233839   0.228   3.904   1.517  3.3533  1.9677  0.9900
 4142TIP3   OH233840   0.498   4.453   1.820 -0.0704 -0.4033 -0.7499
 4142TIP3    H133841   0.418   4.412   1.854  0.2633  0.4587  1.1891
 4142TIP3    H233842   0.559   4.380   1.809  0.4217 -0.6080  2.3705
 4143TIP3   OH233843   3.846   3.250   1.302  0.2864 -0.0900 -0.2559
 4143TIP3    H133844   3.832   3.333   1.257 -2.5278  0.3149  1.1865
 4143TIP3    H233845   3.827   3.268   1.393 -1.7799 -2.5769 -0.0789
 4144TIP3   OH233846   6.542   1.382  12.724 -0.1923  0.0652  0.0105
 4144TIP3    H133847   6.488   1.396  12.802  1.1802 -1.5389  1.3309
 4144TIP3    H233848   6.492   1.320  12.671 -0.3496 -0.2250  0.4866
 4145TIP3   OH233849   3.698   5.583   9.825  0.0687  0.5901  0.1739
 4145TIP3    H133850   3.704   5.668   9.868  0.0991  0.8804 -0.4039
 4145TIP3    H233851   3.697   5.603   9.732  1.5243 -0.1219 -0.0193
 4146TIP3   OH233852   3.843   0.095  13.108 -0.3476 -0.7132 -0.2921
 4146TIP3    H133853   3.849   0.006  13.144 -1.1153 -0.6264  0.0601
 4146TIP3    H233854   3.805   0.147  13.178  2.8851  0.6141  0.7056
 4147TIP3   OH233855   1.295   2.596  12.785  0.0020  0.4535  0.0996
 4147TIP3    H133856   1.225   2.602  12.850  0.0040 -2.4280  0.4666
 4147TIP3    H233857   1.253   2.620  12.703 -1.6852 -1.8056  0.2038
 4148TIP3   OH233858   1.084   0.156  11.533  0.1375  0.0173 -0.1286
 4148TIP3    H133859   1.126   0.076  11.564 -0.7667 -1.2136 -1.9007
 4148TIP3    H233860   1.107   0.222  11.598  1.9285 -1.3818  0.7371
 4149TIP3   OH233861   6.052   1.932  13.120  0.2720 -0.1685 -0.6976
 4149TIP3    H133862   5.991   1.953  13.049 -0.9090 -0.8736  0.0794
 4149TIP3    H233863   6.137   1.923  13.077 -0.3622 -0.2408 -1.9591
 4150TIP3   OH233864   3.456   0.774  10.394 -0.2079  0.8117  0.2058
 4150TIP3    H133865   3.485   0.735  10.476  1.0013  0.1391 -0.5034
 4150TIP3    H233866   3.531   0.826  10.364 -0.2218  0.1710 -0.9960
 4151TIP3   OH233867   2.754   2.076  11.986  0.6739 -0.0500  0.5681
 4151TIP3    H133868   2.716   2.066  11.899  1.6098  0.3150  0.1055
 4151TIP3    H233869   2.682   2.110  12.040  0.5498  1.4438 -0.4817
 4152TIP3   OH233870   3.891   6.714   4.024 -0.6811 -0.3020  0.3258
 4152TIP3    H133871   3.980   6.733   3.994 -0.1879  0.6246  2.1467
 4152TIP3    H233872   3.835   6.773   3.973  0.0587  0.9026  0.8531
 4153TIP3   OH233873   5.161   4.339   9.866 -0.1556 -0.2351 -0.5132
 4153TIP3    H133874   5.195   4.410   9.811  2.2103  0.4804  1.7052
 4153TIP3    H233875   5.233   4.276   9.871 -0.9104 -1.0513  0.4654
 4154TIP3   OH233876   1.345   1.465  11.368 -0.2852  0.0907  0.1120
 4154TIP3    H133877   1.349   1.432  11.458 -2.4556  0.4869  0.4082
 4154TIP3    H233878   1.253   1.490  11.356 -0.1745 -0.4832 -2.4165
 4155TIP3   OH233879   4.760   4.355   5.037 -0.4142 -0.1319 -0.0491
 4155TIP3    H133880   4.704   4.429   5.063 -0.0223  0.1396  0.0383
 4155TIP3    H233881   4.829   4.353   5.104  0.8543  0.8461 -1.2586
 4156TIP3   OH233882   0.098   7.152   1.122  0.1185  0.2085 -0.2855
 4156TIP3    H133883   0.129   7.071   1.162 -2.2593 -1.4631 -1.5277
 4156TIP3    H233884   0.036   7.187   1.186  2.2542  1.9718  0.9277
 4157TIP3   OH233885   6.220   4.805  10.469 -0.0447 -0.0964 -0.5327
 4157TIP3    H133886   6.265   4.861  10.405  0.6830  0.0478  0.0861
 4157TIP3    H233887   6.250   4.838  10.553 -1.7895  0.3972 -0.0586
 4158TIP3   OH233888   0.396   0.320   9.369 -0.3903  0.2947 -0.2075
 4158TIP3    H133889   0.307   0.335   9.402 -0.4606 -0.2533 -0.1334
 4158TIP3    H233890   0.409   0.387   9.302 -0.0841  1.7243  1.2329
 4159TIP3   OH233891   5.061   1.653   0.928  0.3222 -0.0795  0.2750
 4159TIP3    H133892   5.049   1.724   0.992 -1.3607  0.1419 -0.2448
 4159TIP3    H233893   5.019   1.577   0.969  1.6214 -0.6685  0.5784
 4160TIP3   OH233894   4.844   6.394   9.694  0.0483  0.8912  0.0228
 4160TIP3    H133895   4.901   6.437   9.758 -0.4060  2.6904 -0.6926
 4160TIP3    H233896   4.807   6.467   9.643 -1.4058 -0.3393 -0.7646
 4161TIP3   OH233897   5.238   2.120  12.083  0.1043  0.4226  0.5376
 4161TIP3    H133898   5.263   2.206  12.049 -0.9566  0.8811  0.8735
 4161TIP3    H233899   5.239   2.130  12.178 -0.6195  0.2551  0.5731
 4162TIP3   OH233900   3.993   6.573  12.041 -0.4402 -0.1183 -0.1890
 4162TIP3    H133901   4.020   6.489  12.002 -0.3691 -1.0195  1.6794
 4162TIP3    H233902   4.059   6.635  12.013 -0.5067 -0.6635 -1.6379
 4163TIP3   OH233903   3.729   2.272  11.466 -0.1183  0.2741 -0.1375
 4163TIP3    H133904   3.803   2.213  11.480  0.3397 -0.0340 -3.2130
 4163TIP3    H233905   3.653   2.215  11.461 -0.4403  0.4745  1.6828
 4164TIP3   OH233906   1.639   5.685  13.048  0.1585 -0.2633  0.5697
 4164TIP3    H133907   1.720   5.636  13.057  0.7478  0.6399  0.2142
 4164TIP3    H233908   1.613   5.705  13.139  1.0337  0.5716  0.6488
 4165TIP3   OH233909   0.110   1.481  14.057  0.0625  0.0218 -0.2024
 4165TIP3    H133910   0.167   1.457  13.984  3.6785 -0.3704  2.5063
 4165TIP3    H233911   0.143   1.565  14.088 -1.5489  0.3007  0.9170
 4166TIP3   OH233912   5.449   2.764  14.135 -0.2256 -0.2150 -0.0464
 4166TIP3    H133913   5.435   2.676  14.169 -1.6343  0.0184  0.0323
 4166TIP3    H233914   5.504   2.751  14.057 -2.0089 -1.3868 -1.1851
 4167TIP3   OH233915   1.407   6.128   9.730  0.5343  0.2086  0.0591
 4167TIP3    H133916   1.433   6.085   9.649  1.1277  0.1593  0.2740
 4167TIP3    H233917   1.442   6.071   9.799 -0.3213  0.0254  0.3547
 4168TIP3   OH233918   0.165   4.855  13.038  0.0390  0.0445 -0.5143
 4168TIP3    H133919   0.253   4.892  13.048  0.4305 -0.8781 -0.4575
 4168TIP3    H233920   0.140   4.877  12.948  0.2419  0.4912 -0.4639
 4169TIP3   OH233921   1.323   6.226  10.627  0.2385  0.0629  0.7065
 4169TIP3    H133922   1.298   6.307  10.583  0.1927 -0.7299 -0.7908
 4169TIP3    H233923   1.418   6.224  10.620  0.2291 -0.0780  0.6215
 4170TIP3   OH233924   2.542   3.379  15.058 -0.3412  0.4012 -0.1786
 4170TIP3    H133925   2.473   3.347  14.999 -1.1643 -0.9879  1.4482
 4170TIP3    H233926   2.498   3.445  15.112  0.1635  0.9798 -0.4564
 4171TIP3   OH233927   0.599   1.526  11.149  0.0619 -0.7139  0.1843
 4171TIP3    H133928   0.513   1.500  11.184 -0.4717  0.3727 -0.2666
 4171TIP3    H233929   0.583   1.539  11.055  0.5374  0.1870  0.2158
 4172TIP3   OH233930   5.192   5.339   9.462  0.6600 -0.0630  0.0629
 4172TIP3    H133931   5.192   5.385   9.546  0.0112 -1.3105  0.7643
 4172TIP3    H233932   5.113   5.285   9.464 -1.2672  2.2716 -2.7027
 4173TIP3   OH233933   6.978   1.452  13.225  0.6724  0.0877  0.2392
 4173TIP3    H133934   7.056   1.405  13.253  0.9927 -0.7698 -1.9018
 4173TIP3    H233935   6.915   1.384  13.203  0.5416  0.6698 -1.3034
 4174TIP3   OH233936   2.900   5.598  10.015  0.6945  0.5792  0.1305
 4174TIP3    H133937   2.976   5.589   9.958  1.0450  0.4676  0.6118
 4174TIP3    H233938   2.876   5.509  10.038 -1.1873  0.4168 -2.0787
 4175TIP3   OH233939   2.247   0.882  11.399  0.2524 -1.1598 -0.6485
 4175TIP3    H133940   2.286   0.798  11.423  1.0739 -0.2485  1.4412
 4175TIP3    H233941   2.312   0.924  11.342  2.2769  0.0760  2.2956
 4176TIP3   OH233942   5.912   2.933   2.994  0.1836 -0.0537 -0.3917
 4176TIP3    H133943   5.828   2.914   2.954 -0.9240 -0.4775  1.9740
 4176TIP3    H233944   5.921   3.028   2.987 -0.5668  0.0129 -0.4903
 4177TIP3   OH233945   6.373   5.152  12.081 -0.1288 -0.5386  0.1636
 4177TIP3    H133946   6.374   5.231  12.135 -0.7711 -1.1045  1.0314
 4177TIP3    H233947   6.280   5.133  12.068  0.0193 -0.9676 -0.3135
 4178TIP3   OH233948   6.240   5.051  13.303  0.2335  0.0487  0.0702
 4178TIP3    H133949   6.298   5.016  13.370  2.4585  0.0708 -1.7137
 4178TIP3    H233950   6.198   4.974  13.265  1.1258 -0.2440 -0.3509
 4179TIP3   OH233951   6.008   4.060   2.858  0.4026 -0.4496 -0.2200
 4179TIP3    H133952   6.049   3.976   2.877  0.2764 -0.5015 -0.1779
 4179TIP3    H233953   5.928   4.060   2.909  0.1269 -0.5340 -0.6478
 4180TIP3   OH233954   5.179   2.729  12.999 -0.5677  0.2835  0.5967
 4180TIP3    H133955   5.270   2.722  13.028 -0.5726 -3.9334  0.2787
 4180TIP3    H233956   5.184   2.775  12.915  1.1321  0.9596  1.0293
 4181TIP3   OH233957   1.179   4.365  12.094 -0.6286  0.2600 -0.1083
 4181TIP3    H133958   1.220   4.435  12.145 -0.3569 -0.8073  1.1876
 4181TIP3    H233959   1.155   4.407  12.011 -0.4274  1.8708  0.6031
 4182TIP3   OH233960   4.476   0.052  11.417  0.3878  0.2719  0.1922
 4182TIP3    H133961   4.501   0.038  11.508  1.0953  0.0664 -0.0279
 4182TIP3    H233962   4.558   0.073  11.372 -0.1674  2.0560 -0.0901
 4183TIP3   OH233963   0.639   0.371  10.587  0.1122 -0.3378 -0.2516
 4183TIP3    H133964   0.605   0.451  10.625  1.2747  0.0224  0.0943
 4183TIP3    H233965   0.716   0.399  10.537  1.1134 -1.3180  0.6653
 4184TIP3   OH233966   6.913   5.005  11.532 -1.0554 -0.4137  0.1351
 4184TIP3    H133967   6.856   5.052  11.592  0.8135  1.2067  0.7610
 4184TIP3    H233968   6.915   4.915  11.564  0.0898  0.4491  2.7419
 4185TIP3   OH233969   5.748   7.133   0.395  0.1572  0.2166  0.1193
 4185TIP3    H133970   5.756   7.053   0.343  1.0530 -0.1181  0.7426
 4185TIP3    H233971   5.682   7.111   0.462 -1.8070  1.0011 -1.4527
 4186TIP3   OH233972   3.409   2.551  12.410 -0.0974 -0.2659  0.7285
 4186TIP3    H133973   3.425   2.482  12.475 -0.8746 -1.1230  0.0256
 4186TIP3    H233974   3.440   2.515  12.328  0.2400  0.5477  0.4916
 4187TIP3   OH233975   1.599   2.154  11.298  0.3980 -0.2702  0.4309
 4187TIP3    H133976   1.658   2.168  11.372 -1.8146 -0.4841  2.3708
 4187TIP3    H233977   1.549   2.076  11.321  0.3909 -1.0258 -1.8652
 4188TIP3   OH233978   6.347   3.534  12.745  0.0831  0.7413 -0.0444
 4188TIP3    H133979   6.337   3.443  12.775 -2.5141  1.1555  0.5905
 4188TIP3    H233980   6.351   3.585  12.826  1.2092  1.2371 -0.4004
 4189TIP3   OH233981   5.303   6.926  14.409  0.0676  0.4507 -0.1921
 4189TIP3    H133982   5.369   6.871  14.368 -1.1381 -1.4439  0.2354
 4189TIP3    H233983   5.298   6.894  14.500 -1.5384  0.3622 -0.2701
 4190TIP3   OH233984   2.931   3.703   1.335 -0.0033 -0.0547  0.7930
 4190TIP3    H133985   2.957   3.663   1.418  0.4238 -1.1898  0.1442
 4190TIP3    H233986   3.012   3.703   1.283 -0.1237  1.1969  0.5807
 4191TIP3   OH233987   0.859   4.212  11.456  0.5171 -0.0550 -0.1366
 4191TIP3    H133988   0.793   4.163  11.507 -1.4939  0.6653 -1.8907
 4191TIP3    H233989   0.918   4.247  11.522 -1.2715 -0.1639  1.6451
 4192TIP3   OH233990   6.925   2.302  14.249 -0.4913  0.3362  0.1986
 4192TIP3    H133991   6.906   2.208  14.246 -1.6388  0.5552 -0.0567
 4192TIP3    H233992   6.870   2.340  14.181  0.4176  1.1342 -0.1197
 4193TIP3   OH233993   1.249   2.206   9.212 -0.2695  0.4826 -0.1248
 4193TIP3    H133994   1.176   2.146   9.231 -1.2615  1.2422 -1.3949
 4193TIP3    H233995   1.265   2.250   9.296 -1.1530  0.1833  0.2176
 4194TIP3   OH233996   3.121   5.883   1.765  0.2729  0.1686 -0.0807
 4194TIP3    H133997   3.184   5.812   1.762  0.0374 -0.0356 -0.2036
 4194TIP3    H233998   3.120   5.918   1.676  2.2144  1.9404  0.5109
 4195TIP3   OH233999   1.792   3.924  12.973 -0.1353 -0.4686  0.5867
 4195TIP3    H134000   1.699   3.906  12.982 -0.1090 -0.2035  1.5223
 4195TIP3    H234001   1.835   3.841  12.995 -0.1774 -1.1534 -1.7126
 4196TIP3   OH234002   6.645   0.299  13.939 -0.0747 -0.0785  0.1134
 4196TIP3    H134003   6.558   0.303  13.900  0.3124 -1.1565 -0.9314
 4196TIP3    H234004   6.703   0.336  13.872  0.5488 -1.5800 -0.2314
 4197TIP3   OH234005   2.785   0.377  10.158 -0.0271 -0.2004 -0.5874
 4197TIP3    H134006   2.783   0.454  10.101  0.5799 -0.2430 -0.6682
 4197TIP3    H234007   2.831   0.407  10.236 -1.2285 -0.0179  0.0726
 4198TIP3   OH234008   4.949   7.150  10.116  0.2897  0.1029  0.1149
 4198TIP3    H134009   5.000   7.070  10.108  0.2939  0.1284 -0.1131
 4198TIP3    H234010   4.965   7.198  10.035  2.0270  1.3709  1.1283
 4199TIP3   OH234011   0.663   4.372  13.086 -0.2259 -0.4613  0.4226
 4199TIP3    H134012   0.649   4.436  13.156 -0.4716  1.5403 -1.3456
 4199TIP3    H234013   0.617   4.294  13.115  1.3101 -0.4305  3.3754
 4200TIP3   OH234014   2.472   1.365  14.099 -0.1000 -0.0469 -0.8469
 4200TIP3    H134015   2.455   1.373  14.193 -0.4117  0.9661 -0.9710
 4200TIP3    H234016   2.397   1.317  14.065 -0.6408  0.7086 -0.7568
 4201TIP3   OH234017   0.006   3.913   1.431  0.3200 -0.3100 -0.5144
 4201TIP3    H134018  -0.055   3.843   1.406  0.1559 -0.1458 -0.5828
 4201TIP3    H234019   0.005   3.912   1.526 -1.4928  1.1205 -0.4593
 4202TIP3   OH234020   1.221   3.994  14.231 -0.0287  0.1549  0.0021
 4202TIP3    H134021   1.254   4.076  14.267 -1.7885  1.9671 -2.1963
 4202TIP3    H234022   1.198   3.941  14.308  1.5913  1.4892  1.4707
 4203TIP3   OH234023   1.658   5.729   9.683 -0.1770 -0.2667  0.4918
 4203TIP3    H134024   1.714   5.676   9.738 -0.9772 -1.6031  0.0611
 4203TIP3    H234025   1.672   5.696   9.594  0.7000  1.4975 -0.0824
 4204TIP3   OH234026   6.686   5.637  11.166 -0.2505 -0.3670  0.1215
 4204TIP3    H134027   6.650   5.551  11.143  0.3534 -1.2101  2.1608
 4204TIP3    H234028   6.609   5.691  11.182 -0.6862 -0.0009 -2.6635
 4205TIP3   OH234029   4.154   3.479   0.694 -0.1253 -0.5299 -0.1225
 4205TIP3    H134030   4.207   3.437   0.626 -0.2072 -1.1320  0.1851
 4205TIP3    H234031   4.090   3.413   0.719 -0.1668 -0.2724  0.4605
 4206TIP3   OH234032   0.173   2.272  10.261  0.0827  0.3493  0.2949
 4206TIP3    H134033   0.202   2.237  10.346 -0.6139 -0.3252  0.2628
 4206TIP3    H234034   0.119   2.348  10.284  0.7220  0.7774  0.4075
 4207TIP3   OH234035   4.373   0.579  10.012  0.4037 -0.2841  0.1081
 4207TIP3    H134036   4.319   0.644  10.057  1.3962  0.9976 -0.4744
 4207TIP3    H234037   4.463   0.612  10.023  0.9156 -1.4655 -0.3822
 4208TIP3   OH234038   4.670   2.983  13.579  0.0871 -0.1171  0.3154
 4208TIP3    H134039   4.641   3.003  13.667 -0.1656 -0.5298  0.3262
 4208TIP3    H234040   4.622   2.904  13.554  0.6299 -0.3722  0.0510
 4209TIP3   OH234041   4.007   5.646   9.954  0.0335  0.9978  0.9623
 4209TIP3    H134042   4.102   5.650   9.965  0.2430 -1.1297  0.4355
 4209TIP3    H234043   3.994   5.613   9.865 -1.1198 -0.2655  1.5579
 4210TIP3   OH234044   5.610   2.144  14.957 -1.1559 -0.3358  0.1676
 4210TIP3    H134045   5.627   2.077  14.892 -2.4373  1.0326 -1.6910
 4210TIP3    H234046   5.515   2.148  14.964 -1.0980  0.9144  0.6196
 4211TIP3   OH234047   3.557   0.734  15.274 -0.5027 -0.1576  0.4134
 4211TIP3    H134048   3.549   0.659  15.215 -3.5031  1.8357 -1.9858
 4211TIP3    H234049   3.643   0.771  15.255 -0.1281 -1.3537 -0.3514
 4212TIP3   OH234050   7.188   0.108  14.601  0.7433  0.7612  0.2063
 4212TIP3    H134051   7.167   0.192  14.559 -1.3563  0.4936  0.6047
 4212TIP3    H234052   7.184   0.044  14.530 -1.6895  0.4719  0.5225
 4213TIP3   OH234053   4.958   6.253  12.932  0.0356  0.1234 -0.2698
 4213TIP3    H134054   4.962   6.159  12.914 -0.8376 -0.0257  0.2670
 4213TIP3    H234055   4.969   6.294  12.846  2.2591 -0.3978 -0.2892
 4214TIP3   OH234056   1.023   7.166   9.741 -0.7667  0.4919  0.2395
 4214TIP3    H134057   1.045   7.207   9.657 -1.0918 -0.2145 -0.2016
 4214TIP3    H234058   1.024   7.072   9.723 -2.1132  0.3687  0.6968
 4215TIP3   OH234059   4.687   1.742   1.776 -0.0274 -0.4380 -0.1460
 4215TIP3    H134060   4.777   1.744   1.745  0.1596  1.0763  0.4137
 4215TIP3    H234061   4.637   1.707   1.702  1.0249 -1.5123 -0.3741
 4216TIP3   OH234062   3.678   6.816  11.396  0.0369 -0.3678  0.1874
 4216TIP3    H134063   3.681   6.721  11.387 -2.1291 -0.5675  0.9835
 4216TIP3    H234064   3.654   6.848  11.309  1.0167 -0.4968 -0.1450
 4217TIP3   OH234065   6.265   6.666  10.592 -0.4690  0.3002 -0.3317
 4217TIP3    H134066   6.354   6.660  10.559 -0.8935  1.2836 -1.7269
 4217TIP3    H234067   6.223   6.584  10.565 -0.4195  0.5053 -1.0463
 4218TIP3   OH234068   4.207   6.128  10.612 -0.1062  0.1854 -0.3162
 4218TIP3    H134069   4.150   6.147  10.687 -2.2909 -0.2968 -1.7764
 4218TIP3    H234070   4.183   6.039  10.586  0.5858  0.3558 -1.6011
 4219TIP3   OH234071   4.554   0.816  10.051  0.3276  0.1088  0.0297
 4219TIP3    H134072   4.618   0.752  10.020 -0.0703  0.6764 -2.1586
 4219TIP3    H234073   4.563   0.890   9.990 -0.0320  1.6620  1.7666
 4220TIP3   OH234074   5.682   1.681   0.353  0.5183  0.3549 -0.1238
 4220TIP3    H134075   5.778   1.681   0.343  0.9251  0.7970  2.8473
 4220TIP3    H234076   5.668   1.712   0.443 -2.5361  2.7089 -1.2455
 4221TIP3   OH234077   3.057   0.187  12.280 -0.0248 -0.1629  0.0138
 4221TIP3    H134078   3.020   0.213  12.365  1.7561  3.0308 -0.0350
 4221TIP3    H234079   3.128   0.127  12.302 -0.5567 -0.5938  0.6196
 4222TIP3   OH234080   2.249   2.918  14.325 -0.0937 -0.1110  0.0883
 4222TIP3    H134081   2.331   2.907  14.277  0.7496 -0.1274  1.4764
 4222TIP3    H234082   2.184   2.874  14.271  0.8933 -0.5553 -0.7885
 4223TIP3   OH234083   3.365   1.960  10.289 -0.3977  0.2388 -0.1257
 4223TIP3    H134084   3.282   1.911  10.293 -0.0944 -0.4810 -1.5818
 4223TIP3    H234085   3.340   2.046  10.256 -0.5110 -0.2844 -1.5175
 4224TIP3   OH234086   1.511   2.444  11.172 -0.3945  0.0710  0.0279
 4224TIP3    H134087   1.519   2.349  11.164  0.6748  0.2500 -1.5461
 4224TIP3    H234088   1.579   2.469  11.234  0.1533 -0.0955 -0.4930
 4225TIP3   OH234089   5.295   5.017  14.107 -0.2839  0.3404 -0.6747
 4225TIP3    H134090   5.273   5.100  14.150 -0.3746 -0.9642  2.0419
 4225TIP3    H234091   5.326   5.042  14.020  0.0883  3.2520  0.1836
 4226TIP3   OH234092   7.030   5.274  13.675  0.0708 -0.6504 -0.3810
 4226TIP3    H134093   7.009   5.365  13.697 -1.4834 -0.8320 -1.0038
 4226TIP3    H234094   7.095   5.248  13.741  1.8898  1.4199 -1.2332
 4227TIP3   OH234095   1.320   4.476   0.249  0.2939 -0.0081 -0.1115
 4227TIP3    H134096   1.265   4.441   0.319  0.3763  2.1899  1.1677
 4227TIP3    H234097   1.277   4.450   0.168 -2.5759  1.3913  0.8221
 4228TIP3   OH234098   5.755   1.284   2.235  0.2179  0.1721  0.2075
 4228TIP3    H134099   5.722   1.202   2.198  1.8981 -0.6247  0.3951
 4228TIP3    H234100   5.849   1.281   2.219  0.6502  0.9703  2.3313
 4229TIP3   OH234101   2.997   2.898   1.599 -0.3898  0.4723 -0.2231
 4229TIP3    H134102   2.957   2.838   1.537 -0.4313 -0.5184  0.7258
 4229TIP3    H234103   3.090   2.901   1.574  0.1583 -1.9624  1.1519
 4230TIP3   OH234104   4.715   2.313  10.532  0.1346  0.0458  0.1653
 4230TIP3    H134105   4.740   2.402  10.555  2.4778 -1.0259  2.2515
 4230TIP3    H234106   4.619   2.313  10.534  0.0574  2.5604 -0.3029
 4231TIP3   OH234107   6.421   5.175  13.668  0.2936  0.7944 -0.5097
 4231TIP3    H134108   6.510   5.186  13.634  1.6641 -1.9873  1.7582
 4231TIP3    H234109   6.394   5.088  13.638 -0.1387  0.0603  1.7922
 4232TIP3   OH234110   6.230   4.793  13.795 -0.4563  0.0937  0.0898
 4232TIP3    H134111   6.249   4.713  13.845  1.3893  1.6857  2.1534
 4232TIP3    H234112   6.245   4.864  13.857  1.3289  2.2084 -2.5358
 4233TIP3   OH234113   1.881   3.044   3.033 -0.2240  0.3164 -0.0831
 4233TIP3    H134114   1.822   3.058   2.959  0.1829  0.0469 -0.4662
 4233TIP3    H234115   1.866   2.954   3.060 -1.1663  0.7370  0.8871
 4234TIP3   OH234116   2.317   6.594  15.012 -0.2310  0.1950 -0.6006
 4234TIP3    H134117   2.322   6.527  14.943  0.1160 -0.2387 -0.1528
 4234TIP3    H234118   2.322   6.545  15.094  0.5930  0.8170 -0.2687
 4235TIP3   OH234119   2.439   2.547  14.004  0.0376  0.0558 -0.1346
 4235TIP3    H134120   2.347   2.569  13.989 -0.1112 -0.6017 -0.2169
 4235TIP3    H234121   2.484   2.580  13.926 -0.1621  0.1587 -0.2099
 4236TIP3   OH234122   3.435   5.759  10.170  0.0539 -0.0866 -0.0212
 4236TIP3    H134123   3.449   5.783  10.078 -1.5305 -0.3419 -0.3576
 4236TIP3    H234124   3.347   5.722  10.172  0.0827 -0.1369  1.5982
 4237TIP3   OH234125   2.319   4.342  11.751 -0.8195  0.5402  0.8471
 4237TIP3    H134126   2.404   4.386  11.751 -2.6483  4.5037  0.4028
 4237TIP3    H234127   2.326   4.276  11.682  1.5251  1.4989  0.0492
 4238TIP3   OH234128   5.928   6.371   9.738 -0.6751  0.3873  0.2635
 4238TIP3    H134129   6.005   6.360   9.793 -0.0931 -2.1937 -0.9044
 4238TIP3    H234130   5.962   6.408   9.656 -0.7055 -0.4042 -0.1172
 4239TIP3   OH234131   1.458   3.062  13.534 -0.0349  0.4790 -0.2753
 4239TIP3    H134132   1.503   3.032  13.455  2.0531  2.4695  0.0459
 4239TIP3    H234133   1.526   3.066  13.601 -1.0234  2.0471  0.7159
 4240TIP3   OH234134   2.263   2.207  14.133 -0.2527 -0.0614  0.6279
 4240TIP3    H134135   2.233   2.254  14.211  1.9318 -0.5674  1.8794
 4240TIP3    H234136   2.346   2.249  14.111 -0.7628 -0.0322 -1.3874
 4241TIP3   OH234137   5.562   6.300  14.944 -0.1562  0.1811 -0.0030
 4241TIP3    H134138   5.560   6.246  14.865 -3.7474 -0.2137  0.1905
 4241TIP3    H234139   5.590   6.240  15.013 -1.3861 -0.7686 -0.2803
 4242TIP3   OH234140   5.554   5.850  10.309  0.4764  0.1019  0.3912
 4242TIP3    H134141   5.600   5.927  10.275 -1.3061  0.6009 -1.0665
 4242TIP3    H234142   5.463   5.863  10.283  0.3995 -3.4896 -1.9290
 4243TIP3   OH234143   0.500   1.295  12.400  0.4379 -0.1109  0.0503
 4243TIP3    H134144   0.533   1.296  12.310 -0.9595 -0.3465 -0.4930
 4243TIP3    H234145   0.500   1.203  12.425  0.0629 -0.1234  0.0001
 4244TIP3   OH234146   6.910   6.005  13.777 -0.6929  0.1930 -0.4413
 4244TIP3    H134147   6.831   5.957  13.803 -0.7567  0.3560 -0.3274
 4244TIP3    H234148   6.925   5.980  13.686 -1.0321  0.3674 -0.5470
 4245TIP3   OH234149   3.001   3.888   3.313 -0.1438  0.1853  0.0187
 4245TIP3    H134150   2.924   3.927   3.272  0.4034  0.3355 -0.8832
 4245TIP3    H234151   3.065   3.882   3.243  1.1201  1.2452  1.0346
 4246TIP3   OH234152   2.191   3.054  10.399 -0.6039  0.3193  0.3817
 4246TIP3    H134153   2.224   2.987  10.458  2.6941  0.8882 -0.6399
 4246TIP3    H234154   2.161   3.124  10.456 -0.3496 -0.3748  1.3952
 4247TIP3   OH234155   4.341   0.637   2.750 -0.1241 -0.3117  0.6453
 4247TIP3    H134156   4.389   0.572   2.699 -0.6428  0.0039 -0.2666
 4247TIP3    H234157   4.409   0.683   2.800  0.4669 -0.2389 -0.2090
 4248TIP3   OH234158   0.109   0.899  10.815  0.5976 -0.1752  0.3094
 4248TIP3    H134159   0.193   0.946  10.823  0.7010 -0.0244 -1.3703
 4248TIP3    H234160   0.070   0.933  10.735 -1.7744  0.7888  1.7712
 4249TIP3   OH234161   6.677   3.000  14.440  0.2621  0.4537  0.0656
 4249TIP3    H134162   6.585   3.023  14.423  0.6288  1.4684 -0.6038
 4249TIP3    H234163   6.674   2.955  14.525 -0.8645  0.3707  0.0094
 4250TIP3   OH234164   5.540   3.831  10.145 -0.1885  0.0410 -0.4148
 4250TIP3    H134165   5.565   3.923  10.142  0.5605 -0.1270  0.2524
 4250TIP3    H234166   5.525   3.807  10.054 -2.4959  1.3615 -0.4723
 4251TIP3   OH234167   3.591   3.969   9.528  0.5429  0.2348  0.2084
 4251TIP3    H134168   3.511   3.964   9.477  1.9150 -0.9036 -1.9862
 4251TIP3    H234169   3.623   3.879   9.533  1.9554  0.7148  0.5129
 4252TIP3   OH234170   5.714   2.881  11.357 -0.1350 -1.0593  0.0210
 4252TIP3    H134171   5.625   2.894  11.322 -0.2142 -1.4332  0.0822
 4252TIP3    H234172   5.739   2.968  11.389 -0.6499 -1.0426  0.3943
 4253TIP3   OH234173   0.260   6.947  14.193  0.5188  0.5697 -0.2083
 4253TIP3    H134174   0.282   6.854  14.199  1.7749  0.9152  1.1602
 4253TIP3    H234175   0.170   6.953  14.225  0.1539 -0.2508 -1.0328
 4254TIP3   OH234176   7.163   4.261  11.058  0.2137  0.7224  0.0532
 4254TIP3    H134177   7.157   4.182  11.111  0.5522  1.3916  1.1176
 4254TIP3    H234178   7.074   4.296  11.056  0.3835  1.2679  1.1145
 4255TIP3   OH234179   3.959   0.941  13.646 -0.8370 -0.0546 -0.1885
 4255TIP3    H134180   4.003   0.863  13.610  1.1429  0.7506  0.3329
 4255TIP3    H234181   3.898   0.967  13.578 -0.9507 -1.5877 -0.7241
 4256TIP3   OH234182   3.998   0.954  11.769 -0.1129  0.2385 -0.0320
 4256TIP3    H134183   3.979   0.948  11.675 -0.3200 -1.2832  0.0850
 4256TIP3    H234184   4.077   1.009  11.774 -0.2659  0.5727 -1.0657
 4257TIP3   OH234185   1.025   1.153  11.179  0.3721  0.0035 -0.6889
 4257TIP3    H134186   0.929   1.160  11.175  0.1607 -0.1188  2.3845
 4257TIP3    H234187   1.042   1.067  11.217  1.6252  0.7158  0.4433
 4258TIP3   OH234188   0.104   0.983  11.436  0.0676  0.1656 -0.9130
 4258TIP3    H134189   0.129   0.932  11.359  0.9091  1.6621 -1.6947
 4258TIP3    H234190   0.128   0.928  11.510  1.7715 -0.2513 -1.7116
 4259TIP3   OH234191   1.034   1.297  13.553 -0.1607 -0.0812  0.1993
 4259TIP3    H134192   1.055   1.205  13.566  0.7412  0.1205  0.2685
 4259TIP3    H234193   1.088   1.323  13.478 -1.0700  0.1748 -0.3861
 4260TIP3   OH234194   3.767   1.563  11.206 -0.6323 -0.2691  0.2821
 4260TIP3    H134195   3.835   1.623  11.237  1.0023 -0.0745 -3.2243
 4260TIP3    H234196   3.802   1.475  11.224 -1.2227 -0.2086  1.8448
 4261TIP3   OH234197   7.141   5.242  12.353 -0.0151  0.0513 -0.2652
 4261TIP3    H134198   7.184   5.327  12.341  0.5252  0.4725  3.3663
 4261TIP3    H234199   7.082   5.256  12.427 -0.3494 -2.6180  0.0718
 4262TIP3   OH234200   1.077   6.840  13.648 -0.1753  0.5669 -0.1916
 4262TIP3    H134201   1.153   6.783  13.639  1.4025  2.3186  1.2200
 4262TIP3    H234202   1.047   6.855  13.559 -1.4542 -3.3120 -0.6254
 4263TIP3   OH234203   4.369   2.131  10.664 -0.0940  0.4529 -0.3570
 4263TIP3    H134204   4.405   2.215  10.637 -0.5443  0.7640 -0.0245
 4263TIP3    H234205   4.445   2.074  10.675  0.2270  0.8570 -0.4530
 4264TIP3   OH234206   0.923   3.872  11.406 -0.2979  0.2823  0.2417
 4264TIP3    H134207   0.936   3.879  11.501 -0.0296 -0.2287  0.2455
 4264TIP3    H234208   0.979   3.800  11.379  0.6793  1.2956 -0.5305
 4265TIP3   OH234209   3.879   3.718   2.846  0.6170  0.2299 -0.7799
 4265TIP3    H134210   3.805   3.659   2.859  1.7609 -1.1422 -0.1736
 4265TIP3    H234211   3.842   3.805   2.849 -0.9241 -0.4184 -0.1833
 4266TIP3   OH234212   6.482   0.384  14.900 -0.4534  0.0308  0.0033
 4266TIP3    H134213   6.521   0.392  14.813  0.3371 -1.6955  0.1621
 4266TIP3    H234214   6.475   0.290  14.915  0.9381  0.2179  2.4196
 4267TIP3   OH234215   0.290   5.774  10.926  0.0005 -0.1152  0.0409
 4267TIP3    H134216   0.301   5.790  11.020 -1.2175  0.4491  0.1027
 4267TIP3    H234217   0.330   5.850  10.884 -0.8565  0.4143  0.1636
 4268TIP3   OH234218   5.973   2.922  13.333  0.5847  0.2662  0.0250
 4268TIP3    H134219   5.980   2.945  13.426  1.1301  0.6207 -0.0975
 4268TIP3    H234220   5.881   2.935  13.312 -0.0282 -1.9600  1.0541
 4269TIP3   OH234221   6.082   4.183  13.585  0.0478  0.7086 -0.1547
 4269TIP3    H134222   6.010   4.206  13.526 -0.8555  2.0092  1.3966
 4269TIP3    H234223   6.044   4.122  13.648  0.6202  0.4677 -0.0378
 4270TIP3   OH234224   5.179   2.534  11.095 -0.0493  0.0595 -0.5153
 4270TIP3    H134225   5.103   2.536  11.154 -1.2633  4.6701 -1.7636
 4270TIP3    H234226   5.149   2.484  11.020 -1.2511  0.3809 -0.2742
 4271TIP3   OH234227   6.147   2.549   2.487 -0.3267  0.6892 -0.6909
 4271TIP3    H134228   6.107   2.539   2.400  0.3029  0.5217 -0.9722
 4271TIP3    H234229   6.094   2.494   2.545 -0.0455 -0.1540 -1.2072
 4272TIP3   OH234230   2.245   5.398  15.328 -0.3206  0.5555  0.3105
 4272TIP3    H134231   2.319   5.423  15.272  0.1477 -0.2787  0.5477
 4272TIP3    H234232   2.276   5.323  15.377 -1.3667  0.1253  0.3436
 4273TIP3   OH234233   1.594   6.789  11.494  0.6581  0.5159  0.2668
 4273TIP3    H134234   1.528   6.852  11.463  0.2567 -0.5119 -1.0259
 4273TIP3    H234235   1.678   6.829  11.470  0.4646  1.1325  0.5850
 4274TIP3   OH234236   2.335   1.747   9.893  0.0890 -0.0534 -0.8509
 4274TIP3    H134237   2.295   1.770   9.808 -1.0179  3.1920  0.3608
 4274TIP3    H234238   2.260   1.724   9.948  0.6692 -0.8556 -0.3896
 4275TIP3   OH234239   5.903   0.651  13.674  0.7588  0.2116  0.8082
 4275TIP3    H134240   5.924   0.735  13.632 -0.1449 -0.6735 -1.5727
 4275TIP3    H234241   5.820   0.666  13.718  0.9500  0.7394  1.0022
 4276TIP3   OH234242   1.835   2.825   0.343  0.0724  0.4190 -0.3207
 4276TIP3    H134243   1.823   2.750   0.285 -0.5668  0.7924 -0.6909
 4276TIP3    H234244   1.915   2.806   0.391 -1.1688 -1.4825  1.1266
 4277TIP3   OH234245   6.126   2.430   1.756 -0.2741  0.1716 -0.5577
 4277TIP3    H134246   6.092   2.518   1.740 -1.4144 -0.0243  0.5971
 4277TIP3    H234247   6.048   2.376   1.766  0.2937 -0.2719  2.3774
 4278TIP3   OH234248   4.904   4.522  10.243 -0.3790 -0.7237  0.6491
 4278TIP3    H134249   4.955   4.588  10.195 -0.8274  0.5993  1.9435
 4278TIP3    H234250   4.906   4.445  10.185  0.6942  0.1919 -0.6139
 4279TIP3   OH234251   2.914   0.907   9.455  0.1220 -0.0301 -0.5419
 4279TIP3    H134252   2.949   0.992   9.483 -0.2796  0.7222 -2.2308
 4279TIP3    H234253   2.959   0.889   9.372  1.4816 -2.3268  0.5938
 4280TIP3   OH234254   1.522   5.395  13.468  0.3421  0.1656 -0.5730
 4280TIP3    H134255   1.551   5.310  13.502 -0.1156  0.2995  0.1665
 4280TIP3    H234256   1.506   5.448  13.546  0.5297  0.9046 -1.0274
 4281TIP3   OH234257   6.273   6.236   0.074  0.0294  0.3037 -0.2623
 4281TIP3    H134258   6.207   6.174   0.103  1.2183 -0.5116  0.8126
 4281TIP3    H234259   6.293   6.289   0.151  1.0828  0.1002 -0.3720
 4282TIP3   OH234260   7.074   5.110  10.008  0.4566 -0.3925 -0.1486
 4282TIP3    H134261   7.044   5.145  10.092 -0.0116  2.2375 -1.3135
 4282TIP3    H234262   7.169   5.123  10.010  0.6323 -1.6254  0.4841
 4283TIP3   OH234263   0.345   7.138  12.186  0.1403 -0.1748 -0.0800
 4283TIP3    H134264   0.271   7.157  12.129 -0.6980  1.1240  1.3695
 4283TIP3    H234265   0.305   7.121  12.272  1.4190 -1.1483  0.3576
 4284TIP3   OH234266   2.588   4.729  12.123  0.3155 -0.5373  0.0310
 4284TIP3    H134267   2.523   4.673  12.166 -0.0457 -0.5064 -0.4778
 4284TIP3    H234268   2.669   4.713  12.173 -0.1798 -0.2050  0.9789
 4285TIP3   OH234269   4.526   5.194  10.576  0.8971  0.1010 -0.5434
 4285TIP3    H134270   4.448   5.250  10.581  0.8968  0.2398 -1.8132
 4285TIP3    H234271   4.589   5.236  10.635  0.1213  0.1420  0.2877
 4286TIP3   OH234272   2.161   2.540  13.365 -0.2705  0.4561  0.6071
 4286TIP3    H134273   2.066   2.550  13.376 -0.3388  1.8764 -0.9102
 4286TIP3    H234274   2.189   2.491  13.443 -2.6071 -2.4485 -0.1769
 4287TIP3   OH234275   0.767   4.320   1.724 -0.8587  0.1792  0.0947
 4287TIP3    H134276   0.791   4.239   1.769  0.8142  0.2335 -0.6128
 4287TIP3    H234277   0.828   4.385   1.760  0.4274  0.2537 -2.0830
 4288TIP3   OH234278   2.399   1.804  10.970 -0.0819 -0.2461  0.5956
 4288TIP3    H134279   2.445   1.777  10.891  0.4344 -0.7082  1.0481
 4288TIP3    H234280   2.309   1.775  10.956  0.7021 -3.6944  1.6774
 4289TIP3   OH234281   2.095   2.353   0.678  0.1111 -0.0137 -0.6989
 4289TIP3    H134282   2.159   2.423   0.686  0.0358 -0.1330  1.7405
 4289TIP3    H234283   2.012   2.398   0.666  0.2178  0.2754 -0.3821
 4290TIP3   OH234284   1.004   3.449  10.455 -0.3111  0.2699  0.0335
 4290TIP3    H134285   0.922   3.457  10.504 -2.3152  0.8420 -3.1419
 4290TIP3    H234286   1.032   3.540  10.440  1.0865  0.0817  1.2359
 4291TIP3   OH234287   6.705   4.228   1.717  0.7909 -0.3714  0.2194
 4291TIP3    H134288   6.623   4.271   1.741  0.5688  1.5469 -3.2325
 4291TIP3    H234289   6.739   4.193   1.799 -1.2457  2.6490  2.5846
 4292TIP3   OH234290   0.632   2.974  12.526  0.1372 -0.2129 -0.0884
 4292TIP3    H134291   0.536   2.971  12.522  0.0330  1.8849 -0.1790
 4292TIP3    H234292   0.651   3.006  12.614  0.7852 -0.8373  0.0081
 4293TIP3   OH234293   4.446   5.044   0.880  0.0975 -0.3978 -0.2408
 4293TIP3    H134294   4.421   5.133   0.903 -1.0199  0.0302 -2.8010
 4293TIP3    H234295   4.542   5.047   0.875  0.1009  0.5385  0.1219
 4294TIP3   OH234296   5.020   2.564  11.569 -0.4451  0.3035 -0.0960
 4294TIP3    H134297   4.979   2.584  11.653  1.5894  0.6276  0.8926
 4294TIP3    H234298   5.114   2.566  11.588  0.0331 -1.4531 -1.9728
 4295TIP3   OH234299   2.954   0.065  12.531 -0.8964 -0.4643 -0.3197
 4295TIP3    H134300   2.953   0.161  12.537  0.5893 -0.4595  0.3450
 4295TIP3    H234301   2.882   0.044  12.473 -0.3487  1.1616 -1.6845
 4296TIP3   OH234302   3.161   6.386  12.468  0.3633 -0.4619  0.1718
 4296TIP3    H134303   3.137   6.322  12.401  3.1697 -0.8595 -0.5946
 4296TIP3    H234304   3.091   6.380  12.533 -1.5949 -1.2837 -1.8587
 4297TIP3   OH234305   2.141   3.228  12.131  0.0890 -0.3409 -0.0190
 4297TIP3    H134306   2.077   3.182  12.185 -0.7082 -0.2578 -0.8743
 4297TIP3    H234307   2.142   3.179  12.048 -0.1412  0.6787 -0.6338
 4298TIP3   OH234308   4.685   2.413   1.987 -0.4920  0.1627  0.5439
 4298TIP3    H134309   4.670   2.501   2.021 -2.0772 -0.0513  0.5123
 4298TIP3    H234310   4.772   2.389   2.018  0.2184  1.9598  0.0493
 4299TIP3   OH234311   0.213   3.333  12.422 -0.0179  0.4154 -0.4767
 4299TIP3    H134312   0.197   3.252  12.472 -0.5895 -0.3733 -1.8628
 4299TIP3    H234313   0.276   3.382  12.475 -0.3706 -0.5061  0.8587
 4300TIP3   OH234314   2.723   7.106   9.634 -0.4147 -0.0170  0.5021
 4300TIP3    H134315   2.670   7.125   9.712 -1.8300  0.2141 -0.4731
 4300TIP3    H234316   2.751   7.015   9.645  1.8054  0.7852  2.5957
 4301TIP3   OH234317   4.164   2.722  12.910  0.0417 -0.1286  0.2811
 4301TIP3    H134318   4.087   2.759  12.952 -0.9755  1.0566 -2.4163
 4301TIP3    H234319   4.129   2.660  12.846  1.4485 -0.9820  0.2905
 4302TIP3   OH234320   3.944   3.794  10.480  0.1251  0.4026  0.2720
 4302TIP3    H134321   3.878   3.806  10.548 -0.7323 -1.3485 -0.1888
 4302TIP3    H234322   3.993   3.876  10.479 -1.2932  1.3087  1.4258
 4303TIP3   OH234323   0.224   4.969  13.352  0.0435 -0.3502  0.1589
 4303TIP3    H134324   0.158   5.029  13.317  0.0842 -0.8100 -0.7462
 4303TIP3    H234325   0.264   5.016  13.425 -1.8844 -0.3834  1.3155
 4304TIP3   OH234326   2.544   3.518  12.681 -0.8930 -0.0234 -0.2535
 4304TIP3    H134327   2.583   3.525  12.768  0.0314 -1.5319 -0.5120
 4304TIP3    H234328   2.474   3.454  12.691  0.5591 -1.7993 -1.0145
 4305TIP3   OH234329   0.587   5.616   0.736  0.1478 -0.0557 -0.1910
 4305TIP3    H134330   0.538   5.680   0.686 -1.0843 -0.0599  0.9670
 4305TIP3    H234331   0.616   5.662   0.815 -1.4204 -1.0736  1.0334
 4306TIP3   OH234332   3.660   3.812   5.238 -0.0541 -0.3798 -0.5324
 4306TIP3    H134333   3.756   3.810   5.235 -0.0847 -1.7854 -1.6070
 4306TIP3    H234334   3.639   3.803   5.331  0.8630 -1.1947 -0.3844
 4307TIP3   OH234335   2.175   6.432  11.933 -0.3652  0.1340 -0.1642
 4307TIP3    H134336   2.263   6.464  11.913  0.5116 -1.6939  0.5535
 4307TIP3    H234337   2.162   6.452  12.025  0.1135 -1.2790  0.2407
 4308TIP3   OH234338   4.400   6.944   0.139  0.3639 -0.2066 -0.2788
 4308TIP3    H134339   4.305   6.942   0.128  0.3305 -0.9176  0.0784
 4308TIP3    H234340   4.420   7.035   0.157 -0.2384 -0.0331 -0.4650
 4309TIP3   OH234341   2.395   4.261   1.644  0.2540  0.2086 -0.3645
 4309TIP3    H134342   2.485   4.261   1.674  0.0875 -0.4978  0.1611
 4309TIP3    H234343   2.391   4.332   1.580  1.6327 -0.8970 -1.7737
 4310TIP3   OH234344   2.512   7.206   0.229  0.0396 -0.3422 -0.2027
 4310TIP3    H134345   2.564   7.280   0.261  0.2520 -0.8673  0.7005
 4310TIP3    H234346   2.424   7.222   0.264  0.7429 -2.0700  2.7525
 4311TIP3   OH234347   3.319   2.619   9.843 -0.4062  0.0207  0.1660
 4311TIP3    H134348   3.388   2.665   9.890  0.3190  1.1697 -1.9106
 4311TIP3    H234349   3.359   2.537   9.815  0.1114  0.6460 -0.9577
 4312TIP3   OH234350   2.648   6.285   0.797  0.5809 -0.1722  0.5351
 4312TIP3    H134351   2.619   6.281   0.706 -0.6330 -0.8828  0.9258
 4312TIP3    H234352   2.743   6.277   0.792  0.5010 -0.6284 -0.6378
 4313TIP3   OH234353   2.010   6.524  11.017 -0.2225 -0.6286 -0.3093
 4313TIP3    H134354   2.073   6.496  10.952  1.3184 -0.5466  1.0891
 4313TIP3    H234355   1.970   6.603  10.980  0.5177 -0.6676 -1.2147
 4314TIP3   OH234356   1.923   1.117  14.247 -0.0391  0.3602 -0.6072
 4314TIP3    H134357   1.861   1.046  14.225 -0.1160 -0.0185  0.7582
 4314TIP3    H234358   1.994   1.107  14.184 -0.7670  0.0181 -1.4001
 4315TIP3   OH234359   1.406   3.764  11.278 -0.1307 -0.1312 -0.0384
 4315TIP3    H134360   1.448   3.699  11.335  1.7864  0.5219 -0.6350
 4315TIP3    H234361   1.467   3.774  11.204  0.4669  3.4768  0.7852
 4316TIP3   OH234362   6.698   6.838  10.726  0.0452 -0.1025  0.0177
 4316TIP3    H134363   6.650   6.888  10.659  0.7304 -1.0171 -1.2086
 4316TIP3    H234364   6.631   6.782  10.765 -0.4163  0.6232  0.2801
 4317TIP3   OH234365   0.646   2.438   2.566  0.3987 -0.3355  0.1099
 4317TIP3    H134366   0.567   2.389   2.589  0.5044 -0.1304  0.9666
 4317TIP3    H234367   0.613   2.519   2.525  0.2235 -1.0511 -1.2080
 4318TIP3   OH234368   6.525   3.953  12.414 -0.1115  0.5331 -0.3110
 4318TIP3    H134369   6.559   3.948  12.324 -0.8682  0.8446 -0.6248
 4318TIP3    H234370   6.461   3.882  12.419  0.3693  0.1240  0.1867
 4319TIP3   OH234371   1.581   3.968  12.763 -0.4065 -0.6160  0.3049
 4319TIP3    H134372   1.539   3.916  12.832  1.0332  0.0317  1.7161
 4319TIP3    H234373   1.669   3.986  12.796  0.5281 -0.7306 -1.9475
 4320TIP3   OH234374   2.323   4.817  14.653 -0.7047 -0.1092 -0.1890
 4320TIP3    H134375   2.319   4.732  14.608 -0.9842 -0.9679  1.3858
 4320TIP3    H234376   2.381   4.801  14.727 -0.3421  1.2428 -0.1607
 4321TIP3   OH234377   5.398   1.785  13.772 -0.0532  0.3269  0.0323
 4321TIP3    H134378   5.391   1.692  13.751  0.5150  0.4407 -0.7060
 4321TIP3    H234379   5.405   1.828  13.687 -1.7027  1.1848  0.2859
 4322TIP3   OH234380   6.010   7.196   0.391  0.4197 -0.2369  0.1900
 4322TIP3    H134381   5.917   7.212   0.372  0.7501  0.1538 -1.2073
 4322TIP3    H234382   6.026   7.242   0.473 -0.3794  0.5687 -0.0898
 4323TIP3   OH234383   2.345   4.907   9.635 -0.1039  0.0823 -0.2891
 4323TIP3    H134384   2.396   4.858   9.571 -0.0892  0.8247 -0.8468
 4323TIP3    H234385   2.315   4.985   9.589  1.6444  1.7192  1.1566
 4324TIP3   OH234386   0.285   5.350  12.293 -0.1583  0.8093  0.1058
 4324TIP3    H134387   0.215   5.382  12.236 -0.2766  1.0163  0.3634
 4324TIP3    H234388   0.332   5.286  12.240 -1.4714 -0.4697  0.4382
 4325TIP3   OH234389   2.591   3.441  11.763 -0.1567 -0.4060 -0.3854
 4325TIP3    H134390   2.540   3.362  11.743 -0.1652 -0.1804 -1.2806
 4325TIP3    H234391   2.553   3.509  11.708 -0.1234  0.2185  0.3613
 4326TIP3   OH234392   3.039   4.536   9.939  0.8055  0.3205 -0.1609
 4326TIP3    H134393   3.085   4.590   9.874  1.0557  0.1523 -0.1248
 4326TIP3    H234394   3.107   4.479   9.975  0.4451 -0.3946 -0.5807
 4327TIP3   OH234395   1.347   0.119   0.711  0.2167  0.1233  0.4927
 4327TIP3    H134396   1.427   0.089   0.755 -0.2964 -1.1871  0.5809
 4327TIP3    H234397   1.281   0.054   0.736 -1.0532  1.5453  0.9708
 4328TIP3   OH234398   2.963   1.056   0.292 -0.6383 -0.2910 -0.1018
 4328TIP3    H134399   3.049   1.044   0.332 -0.7358  0.7793  0.4562
 4328TIP3    H234400   2.980   1.051   0.198  0.0149 -0.1994  0.0062
 4329TIP3   OH234401   5.046   5.724   0.549  0.2377  0.3254  0.1487
 4329TIP3    H134402   5.087   5.643   0.581  1.2524 -0.5198 -2.9436
 4329TIP3    H234403   4.953   5.713   0.568  0.2564 -1.9183 -0.7644
 4330TIP3   OH234404   5.314   3.124  11.570 -0.1669 -0.1636  0.1726
 4330TIP3    H134405   5.400   3.143  11.533 -0.3495  1.6524  0.5717
 4330TIP3    H234406   5.259   3.196  11.539 -1.4743 -1.0937  0.2255
 4331TIP3   OH234407   0.424   5.681  12.967  0.5990  0.1618  0.0945
 4331TIP3    H134408   0.328   5.678  12.967  0.5817 -2.1078  1.7352
 4331TIP3    H234409   0.448   5.660  12.877 -0.3778  2.4453 -0.7711
 4332TIP3   OH234410   3.794   0.497  10.444 -0.4801 -0.0310  0.1275
 4332TIP3    H134411   3.816   0.538  10.528 -0.1209 -0.1491  0.0931
 4332TIP3    H234412   3.877   0.496  10.396 -0.3470 -1.3338  0.3594
 4333TIP3   OH234413   0.604   0.665  11.585 -0.3521  0.4119  0.1133
 4333TIP3    H134414   0.625   0.623  11.501  0.0364  1.1334 -0.1659
 4333TIP3    H234415   0.674   0.638  11.644 -0.0026  0.7859 -0.1158
 4334TIP3   OH234416   2.409   0.687  10.507  0.0312  0.0301  0.4658
 4334TIP3    H134417   2.367   0.714  10.426  0.0359 -2.9588 -0.6529
 4334TIP3    H234418   2.492   0.648  10.480 -0.3897 -1.9218  1.7272
 4335TIP3   OH234419   2.825   3.986  13.141 -0.3553 -0.5945 -0.6375
 4335TIP3    H134420   2.810   3.988  13.046 -0.2635 -0.5087 -0.6509
 4335TIP3    H234421   2.919   3.970  13.149 -0.3686 -0.6328 -0.5600
 4336TIP3   OH234422   4.789   1.663  11.468 -0.2302  0.1315 -0.0098
 4336TIP3    H134423   4.852   1.612  11.518 -0.6863 -1.0916 -0.6626
 4336TIP3    H234424   4.823   1.753  11.472  0.8508 -0.2904  0.7205
 4337TIP3   OH234425   0.141   6.117   2.680  0.5581 -0.5951 -0.4670
 4337TIP3    H134426   0.171   6.198   2.638  1.1464 -0.8603 -0.5722
 4337TIP3    H234427   0.209   6.053   2.659  0.1231 -1.1067 -0.3439
 4338TIP3   OH234428   1.782   3.944  10.376  0.0994 -0.7253  0.4404
 4338TIP3    H134429   1.864   3.965  10.331 -0.7141 -1.2729 -1.3724
 4338TIP3    H234430   1.733   4.026  10.375 -0.9340 -1.2838 -1.9955
 4339TIP3   OH234431   4.369   6.071  14.542  0.6881  0.0668 -0.1646
 4339TIP3    H134432   4.449   6.119  14.563  0.4693 -0.4661  2.1877
 4339TIP3    H234433   4.370   5.995  14.601 -1.4251 -0.0576 -0.1922
 4340TIP3   OH234434   3.640   3.967   2.365  0.3028 -0.1649 -0.5512
 4340TIP3    H134435   3.602   4.047   2.400  1.5832  0.0310  0.5046
 4340TIP3    H234436   3.677   3.993   2.280  1.6799  0.6920  0.2606
 4341TIP3   OH234437   2.800   0.660  13.541  0.1638 -0.3378  0.2216
 4341TIP3    H134438   2.824   0.688  13.453 -0.2460 -2.5062 -0.6471
 4341TIP3    H234439   2.767   0.739  13.584 -1.3641  0.4313 -2.1910
 4342TIP3   OH234440   1.502   0.099  13.769  0.9698 -0.3147  0.2338
 4342TIP3    H134441   1.596   0.114  13.759  1.0004  0.2593  1.2623
 4342TIP3    H234442   1.463   0.186  13.766  0.6456 -0.4014  1.3297
 4343TIP3   OH234443   1.602   1.503   3.038  0.4387  0.1939  0.0889
 4343TIP3    H134444   1.543   1.566   3.078 -0.2443  0.1821 -0.8745
 4343TIP3    H234445   1.545   1.432   3.007  1.0368 -0.1907 -0.1539
 4344TIP3   OH234446   6.702   6.215  14.368  0.8879  0.0900  0.7866
 4344TIP3    H134447   6.768   6.181  14.307  1.3284  0.1520  1.2179
 4344TIP3    H234448   6.666   6.292  14.324  1.5383  0.4112  0.7983
 4345TIP3   OH234449   3.121   2.820  13.438  0.3028  0.0772  0.7782
 4345TIP3    H134450   3.145   2.748  13.380  0.2735  0.9639 -0.3665
 4345TIP3    H234451   3.049   2.864  13.393  0.0018  0.5501  1.6954
 4346TIP3   OH234452   7.179   1.678  11.219 -0.2448  0.2499 -0.0946
 4346TIP3    H134453   7.206   1.587  11.212  0.0254  0.3676 -0.6199
 4346TIP3    H234454   7.241   1.717  11.281  0.1290  0.2645 -0.4772
 4347TIP3   OH234455   0.379   6.709  12.705  0.0601 -0.0389  0.4745
 4347TIP3    H134456   0.376   6.694  12.611  0.2807  1.2592  0.2461
 4347TIP3    H234457   0.290   6.692  12.735  0.0706 -0.8064  0.1034
 4348TIP3   OH234458   5.152   1.613  13.469  0.4007 -0.2674  0.7892
 4348TIP3    H134459   5.207   1.611  13.390 -0.9775  1.8847 -0.3459
 4348TIP3    H234460   5.214   1.605  13.541  2.0095  0.1305 -0.4748
 4349TIP3   OH234461   2.813   2.109   0.787 -0.4448  0.3282  0.2350
 4349TIP3    H134462   2.799   2.201   0.809  2.5925  0.8564  0.3818
 4349TIP3    H234463   2.743   2.088   0.725  1.5311  4.3240 -3.9599
 4350TIP3   OH234464   1.153   0.175   0.167 -0.2928 -0.1865 -0.3493
 4350TIP3    H134465   1.181   0.102   0.223  2.6569  0.8390 -0.2837
 4350TIP3    H234466   1.206   0.165   0.088 -1.5073  0.6266 -1.2835
 4351TIP3   OH234467   6.297   3.184   1.774  0.4350 -0.1198 -0.3074
 4351TIP3    H134468   6.304   3.188   1.869  0.9245  3.0759 -0.3850
 4351TIP3    H234469   6.208   3.214   1.755  0.7315  0.4300 -0.8688
 4352TIP3   OH234470   0.734   6.024  10.312  0.0558  0.8536 -0.0107
 4352TIP3    H134471   0.778   6.074  10.381 -2.8949  3.7576  0.0114
 4352TIP3    H234472   0.746   6.077  10.233  1.0880 -1.0679 -1.2091
 4353TIP3   OH234473   2.731   4.486  12.995  0.1148  0.0687 -0.2187
 4353TIP3    H134474   2.772   4.444  13.071  2.5232  0.8253 -0.9974
 4353TIP3    H234475   2.755   4.578  13.004 -1.7524  0.6229 -0.5902
 4354TIP3   OH234476   6.427   1.753  10.651 -0.1849  0.4489 -0.0161
 4354TIP3    H134477   6.471   1.801  10.582  0.7560 -3.1798 -2.2199
 4354TIP3    H234478   6.335   1.780  10.645  0.0533  0.9310 -2.0761
 4355TIP3   OH234479   2.112   1.296  13.823 -0.4091  0.2382  0.1268
 4355TIP3    H134480   2.102   1.252  13.908 -0.9524  1.5240  0.7440
 4355TIP3    H234481   2.166   1.235  13.772 -0.0893 -0.5732  1.3727
 4356TIP3   OH234482   6.587   3.077  13.221  0.4673 -0.1930  0.3744
 4356TIP3    H134483   6.606   3.047  13.132  0.0883  0.4398  0.0748
 4356TIP3    H234484   6.630   3.013  13.278 -0.2518 -1.2402 -0.2474
 4357TIP3   OH234485   0.379   3.286   1.474 -0.0012  0.4102 -0.0486
 4357TIP3    H134486   0.345   3.365   1.517 -0.0866  0.7970 -0.8009
 4357TIP3    H234487   0.310   3.221   1.485 -0.7677  1.0155 -1.0572
 4358TIP3   OH234488   6.507   2.470  11.167  0.2404  0.3204  0.4374
 4358TIP3    H134489   6.559   2.417  11.227 -0.9902 -0.0746  1.1893
 4358TIP3    H234490   6.539   2.560  11.180 -0.1741  0.2843  1.9075
 4359TIP3   OH234491   0.979   0.830  10.390 -0.4494 -0.6900  0.5565
 4359TIP3    H134492   1.067   0.801  10.413 -0.6852 -0.5170  1.7401
 4359TIP3    H234493   0.946   0.763  10.329  1.2728  0.3487 -1.6634
 4360TIP3   OH234494   5.782   4.524  13.876  0.3283 -0.6411  0.4059
 4360TIP3    H134495   5.756   4.447  13.826 -1.8778  0.9273 -1.0182
 4360TIP3    H234496   5.855   4.561  13.826  0.8910 -1.3514  0.6817
 4361TIP3   OH234497   4.332   4.342  11.921 -0.1614  0.7339  0.0517
 4361TIP3    H134498   4.282   4.416  11.884  0.0473  0.5212 -0.6822
 4361TIP3    H234499   4.411   4.339  11.867 -0.3626 -0.2869 -0.2013
 4362TIP3   OH234500   5.510   5.480   9.721  0.0415 -0.5255 -0.0091
 4362TIP3    H134501   5.467   5.561   9.747  1.9408  0.2962  0.7299
 4362TIP3    H234502   5.454   5.411   9.756  0.3242  0.5017  2.6942
 4363TIP3   OH234503   7.132   4.111   0.179 -0.1838 -0.3871 -0.4436
 4363TIP3    H134504   7.126   4.023   0.216 -0.6409  0.7022  2.3237
 4363TIP3    H234505   7.055   4.156   0.212  1.6467  1.9403  0.9976
 4364TIP3   OH234506   0.360   5.062  11.345  0.0307 -0.4868  0.0627
 4364TIP3    H134507   0.295   5.097  11.284 -1.8144 -0.9682  1.6464
 4364TIP3    H234508   0.444   5.080  11.304 -1.0661  0.7854 -1.7590
 4365TIP3   OH234509   4.713   0.671   2.066  0.0506 -0.1489 -0.2694
 4365TIP3    H134510   4.737   0.583   2.036  2.2689  0.2881  0.0433
 4365TIP3    H234511   4.692   0.719   1.986  1.3168 -0.3076 -0.7302
 4366TIP3   OH234512   2.538   7.107  11.762 -0.2068  0.2276 -0.1950
 4366TIP3    H134513   2.504   7.154  11.839  0.0132 -1.4236  0.9435
 4366TIP3    H234514   2.460   7.065  11.725  0.2305 -2.4344  1.6288
 4367TIP3   OH234515   3.185   3.548  13.565  0.3927  0.1950 -0.3269
 4367TIP3    H134516   3.131   3.523  13.640  1.4496 -0.8492  0.1292
 4367TIP3    H234517   3.247   3.476  13.555  0.1979  0.2353 -2.3138
 4368TIP3   OH234518   3.240   0.625  15.215 -0.2992 -0.4343 -0.0167
 4368TIP3    H134519   3.249   0.675  15.133 -0.5330 -0.0689  0.1745
 4368TIP3    H234520   3.297   0.549  15.203  0.3634  0.0707 -0.1678
 4369TIP3   OH234521   4.621   3.372   3.153  0.4861 -0.3919 -0.1209
 4369TIP3    H134522   4.649   3.400   3.065  0.4210  0.4905  0.1288
 4369TIP3    H234523   4.596   3.280   3.142 -0.0151 -0.1507 -1.1458
 4370TIP3   OH234524   1.116   5.226  11.001  1.1291  0.2542 -0.8368
 4370TIP3    H134525   1.182   5.293  10.985  2.3025 -0.6751 -0.1082
 4370TIP3    H234526   1.033   5.271  10.993  1.8885  2.2249  1.3092
 4371TIP3   OH234527   0.235   3.016  11.385 -0.3611  0.0288 -0.0617
 4371TIP3    H134528   0.271   3.053  11.466  0.0886 -0.2580 -0.1310
 4371TIP3    H234529   0.235   2.921  11.400 -0.4282 -0.0144 -0.3399
 4372TIP3   OH234530   5.969   0.828  12.074 -0.0784  0.0642 -0.3047
 4372TIP3    H134531   5.992   0.787  11.990  1.5512  0.5512 -0.1428
 4372TIP3    H234532   6.053   0.859  12.108 -1.0549  2.2652  0.2330
 4373TIP3   OH234533   1.981   3.404   4.381 -0.1196 -0.5243 -0.2535
 4373TIP3    H134534   2.057   3.394   4.324  0.7635 -2.1335  1.1053
 4373TIP3    H234535   1.920   3.337   4.350 -0.4701 -0.0718 -0.5492
 4374TIP3   OH234536   0.679   0.072  11.050 -0.0196  0.0779  0.0532
 4374TIP3    H134537   0.587   0.094  11.046 -0.8702 -3.0499 -0.5097
 4374TIP3    H234538   0.688   0.021  11.131  0.2784 -2.7929 -1.6323
 4375TIP3   OH234539   5.941   2.960  12.081  0.4440  0.2947 -0.4812
 4375TIP3    H134540   5.889   2.978  12.002 -0.3120 -0.4033 -0.1607
 4375TIP3    H234541   5.902   3.014  12.149  0.9420  0.7134 -0.5257
 4376TIP3   OH234542   7.145   4.527  12.253  0.1574 -0.2210 -0.2348
 4376TIP3    H134543   7.201   4.451  12.265  0.2780  0.0366  0.9058
 4376TIP3    H234544   7.124   4.527  12.160  1.1018 -0.9821 -0.4580
 4377TIP3   OH234545   5.370   5.632   1.079  0.2426 -0.2861 -0.2649
 4377TIP3    H134546   5.416   5.555   1.044 -0.8762 -1.2395  0.2666
 4377TIP3    H234547   5.410   5.706   1.034  0.1041 -1.3109 -2.1852
 4378TIP3   OH234548   0.642   7.048  13.099 -0.3993  0.4453  0.1385
 4378TIP3    H134549   0.736   7.040  13.117 -0.3410 -0.1826 -0.4249
 4378TIP3    H234550   0.632   7.138  13.067  0.4576 -0.2748 -2.3389
 4379TIP3   OH234551   4.617   4.862  13.227 -0.1780  0.5601  0.0851
 4379TIP3    H134552   4.641   4.797  13.162  1.0323  0.8365  0.2371
 4379TIP3    H234553   4.567   4.813  13.292  0.7773 -0.2506  0.2359
 4380TIP3   OH234554   5.827   5.163  13.293 -0.3271 -0.2664  0.4122
 4380TIP3    H134555   5.767   5.235  13.274  1.1078  0.1874 -3.1462
 4380TIP3    H234556   5.827   5.110  13.213  2.4192 -1.3816  1.0373
 4381TIP3   OH234557   4.889   1.274  10.396  0.0779 -0.6670 -0.4987
 4381TIP3    H134558   4.808   1.237  10.361  0.6116 -2.1351 -0.2572
 4381TIP3    H234559   4.956   1.208  10.377  0.7834 -0.5655  1.3974
 4382TIP3   OH234560   3.731   0.742  12.482 -0.2102 -0.2415 -0.1287
 4382TIP3    H134561   3.759   0.730  12.573  0.1949 -1.2033 -0.3668
 4382TIP3    H234562   3.812   0.733  12.431 -0.3172  0.9654 -0.5514
 4383TIP3   OH234563   2.317   3.289  14.924  0.3142 -0.8646  0.1323
 4383TIP3    H134564   2.338   3.212  14.977 -0.0304 -0.8296  0.3279
 4383TIP3    H234565   2.337   3.263  14.835  0.9756 -0.8997  0.2883
 4384TIP3   OH234566   6.221   5.498   9.514 -0.1930 -0.7717  0.4433
 4384TIP3    H134567   6.236   5.551   9.436 -0.5617  0.4819  1.1933
 4384TIP3    H234568   6.128   5.511   9.534  0.3647  0.6354  2.2834
 4385TIP3   OH234569   4.572   1.802  11.141  0.5003 -0.0505 -0.0574
 4385TIP3    H134570   4.477   1.803  11.154  0.6772 -1.0568  1.5900
 4385TIP3    H234571   4.607   1.856  11.212  1.1978 -0.2572 -0.2364
 4386TIP3   OH234572   2.076   5.632   2.302 -0.1214 -0.0676  0.6083
 4386TIP3    H134573   2.118   5.644   2.387  0.9539 -0.1069  0.1029
 4386TIP3    H234574   2.148   5.633   2.239 -0.6425 -2.2001 -0.1063
 4387TIP3   OH234575   4.945   0.921  14.375  0.3617 -0.3408  0.2565
 4387TIP3    H134576   4.935   0.951  14.285  1.0364  0.6400  0.4893
 4387TIP3    H234577   5.030   0.957  14.402 -0.0072 -0.3174  1.4040
 4388TIP3   OH234578   0.126   1.137  14.745 -0.0174 -0.0437  0.6962
 4388TIP3    H134579   0.157   1.171  14.829 -1.3670  0.4727  1.0122
 4388TIP3    H234580   0.206   1.117  14.696  0.8020  1.4639  1.3668
 4389TIP3   OH234581   0.263   2.880   9.672 -0.4924 -0.2786  0.6286
 4389TIP3    H134582   0.219   2.795   9.680  0.5904 -0.8705  0.4926
 4389TIP3    H234583   0.210   2.929   9.609 -0.4958 -1.2747 -0.1655
 4390TIP3   OH234584   0.835   6.107  12.012  0.3155 -0.0723 -0.3271
 4390TIP3    H134585   0.838   6.171  11.941  0.4639 -0.5622 -0.7665
 4390TIP3    H234586   0.753   6.059  11.997  0.2334 -0.0247 -0.0316
 4391TIP3   OH234587   4.511   3.788  14.244 -0.0459  0.4837 -0.4917
 4391TIP3    H134588   4.498   3.698  14.214 -0.0182  0.2591  0.1456
 4391TIP3    H234589   4.423   3.826  14.244 -0.1959  0.1643  0.1056
 4392TIP3   OH234590   2.770   3.657  11.013 -0.2310 -0.4283 -0.3000
 4392TIP3    H134591   2.814   3.740  11.029 -1.8493  0.5801 -0.8749
 4392TIP3    H234592   2.783   3.607  11.094 -2.6401  1.9655  1.7706
 4393TIP3   OH234593   3.447   0.165  13.738 -0.0920  0.3408  0.1048
 4393TIP3    H134594   3.446   0.248  13.689  0.5148  0.4533  0.2696
 4393TIP3    H234595   3.517   0.114  13.697 -0.5490 -0.1459 -0.0797
 4394TIP3   OH234596   6.028   5.318  10.148 -0.1716  0.5168 -0.0114
 4394TIP3    H134597   6.057   5.287  10.233  0.7775 -0.2735 -0.5945
 4394TIP3    H234598   6.058   5.409  10.144  0.9342  0.1662 -0.0003
 4395TIP3   OH234599   5.635   5.159  10.827  0.0091  0.0550 -0.1847
 4395TIP3    H134600   5.694   5.229  10.799  0.1183 -0.6153 -1.7539
 4395TIP3    H234601   5.635   5.097  10.754  1.2719 -2.4805  1.8026
 4396TIP3   OH234602   1.811   4.730  10.684  0.6281  0.0882 -0.4871
 4396TIP3    H134603   1.847   4.757  10.768  1.6394 -0.4278 -0.7351
 4396TIP3    H234604   1.886   4.734  10.624  0.9215 -3.1740 -0.5506
 4397TIP3   OH234605   1.657   2.923   9.643  0.1379 -0.9240 -0.1009
 4397TIP3    H134606   1.654   2.915   9.548 -0.1981 -2.1070 -0.0093
 4397TIP3    H234607   1.684   2.836   9.674 -0.9300 -0.9292  0.9191
 4398TIP3   OH234608   4.388   2.588  14.678  0.3081  0.3950 -0.1957
 4398TIP3    H134609   4.406   2.502  14.641 -0.4518 -0.2404  0.8365
 4398TIP3    H234610   4.344   2.636  14.608 -1.5392 -0.9378 -0.0356
 4399TIP3   OH234611   1.338   6.916   0.919  0.1642  0.0042 -0.7303
 4399TIP3    H134612   1.383   6.857   0.980 -0.8221  0.2212  0.2353
 4399TIP3    H234613   1.293   6.857   0.858 -0.5189 -0.2487  0.0064
 4400TIP3   OH234614   5.085   6.741  14.130  0.0226 -0.2085 -0.2966
 4400TIP3    H134615   5.163   6.766  14.082 -1.0617  1.0617 -1.4536
 4400TIP3    H234616   5.073   6.648  14.110  1.8799 -0.7553  0.8860
 4401TIP3   OH234617   1.625   1.924   1.721  0.2787 -0.2007 -0.0716
 4401TIP3    H134618   1.716   1.950   1.733  0.0199  1.1316 -0.7818
 4401TIP3    H234619   1.603   1.952   1.632 -1.2630  0.8983  0.6058
 4402TIP3   OH234620   4.381   7.154   1.137  0.1863 -0.1196 -0.4041
 4402TIP3    H134621   4.325   7.220   1.179 -1.1642 -0.5739 -1.4326
 4402TIP3    H234622   4.403   7.192   1.052 -0.5020 -0.9247 -0.9563
 4403TIP3   OH234623   1.009   4.675   0.128  0.2335 -0.2129 -0.5121
 4403TIP3    H134624   1.045   4.744   0.184 -1.0554 -0.3917  0.5854
 4403TIP3    H234625   0.950   4.721   0.068  0.7059 -0.1615 -0.9406
 4404TIP3   OH234626   4.949   2.904  10.542 -0.4119  0.0067  0.5013
 4404TIP3    H134627   4.869   2.949  10.567 -0.2289 -0.6001  2.2969
 4404TIP3    H234628   4.964   2.839  10.611  0.5803 -1.2335 -0.8001
 4405TIP3   OH234629   2.774   5.295  10.359  0.1528  0.5743 -0.1058
 4405TIP3    H134630   2.743   5.322  10.445 -2.2106 -1.0137 -0.3590
 4405TIP3    H234631   2.867   5.275  10.372  0.1866  1.7408  1.7018
 4406TIP3   OH234632   3.960   2.945  15.097  0.1875  0.4256 -0.4897
 4406TIP3    H134633   3.941   3.016  15.159 -3.2951 -0.5057 -0.2631
 4406TIP3    H234634   3.924   2.976  15.014  1.4079  0.1207 -1.1500
 4407TIP3   OH234635   6.917   0.618  12.613 -0.0027  0.1916 -0.1350
 4407TIP3    H134636   6.996   0.575  12.646  0.0980 -1.0601 -1.8673
 4407TIP3    H234637   6.901   0.689  12.675  1.6042 -0.4537  1.1073
 4408TIP3   OH234638   6.031   2.903  10.225 -0.7620 -0.4042  0.1602
 4408TIP3    H134639   6.066   2.988  10.252  0.3741 -1.2257  1.4298
 4408TIP3    H234640   5.970   2.879  10.295  1.0803 -1.8747  1.3892
 4409TIP3   OH234641   6.848   4.333  11.735 -0.0140 -0.6612 -0.2107
 4409TIP3    H134642   6.921   4.391  11.717 -0.0745  0.3335  2.3032
 4409TIP3    H234643   6.875   4.247  11.701  1.6744  0.0013 -0.6153
 4410TIP3   OH234644   2.095   2.846  12.684 -0.2281  0.0821 -0.3622
 4410TIP3    H134645   2.170   2.788  12.675 -0.1322  0.2899 -0.9221
 4410TIP3    H234646   2.129   2.920  12.735 -0.3485 -0.3379  0.3427
 4411TIP3   OH234647   2.998   2.730  10.498  0.0557 -0.1627 -0.0198
 4411TIP3    H134648   2.980   2.674  10.423 -0.5432  1.1012 -0.8476
 4411TIP3    H234649   2.948   2.810  10.481 -0.6139 -0.0840  2.0258
 4412TIP3   OH234650   0.935   6.617  10.481  0.4059 -0.1944 -0.1819
 4412TIP3    H134651   0.984   6.677  10.425  1.0325 -1.3080 -0.8623
 4412TIP3    H234652   0.929   6.663  10.565  2.3241  0.1494 -0.1733
 4413TIP3   OH234653   0.195   0.713  11.326 -0.3085 -0.2035  0.4625
 4413TIP3    H134654   0.155   0.626  11.334 -0.1838 -0.2129  1.0357
 4413TIP3    H234655   0.178   0.739  11.235  0.2763 -1.1263  0.0815
 4414TIP3   OH234656   0.344   2.574  10.673 -0.4066 -0.3996  0.2459
 4414TIP3    H134657   0.305   2.547  10.757 -0.8449 -0.6461 -0.0280
 4414TIP3    H234658   0.358   2.668  10.682 -0.7443 -0.3682  0.4901
 4415TIP3   OH234659   1.599   2.012   1.481  0.7816 -0.0111 -0.3372
 4415TIP3    H134660   1.683   2.030   1.439  0.1071  1.8078 -1.0354
 4415TIP3    H234661   1.535   2.053   1.423 -0.4378  0.0353  1.0009
 4416TIP3   OH234662   1.232   5.583  14.617 -0.4645 -0.2240 -0.3252
 4416TIP3    H134663   1.247   5.512  14.679 -0.5261  0.3476  0.3624
 4416TIP3    H234664   1.218   5.540  14.533  0.8098 -0.9609 -0.1835
 4417TIP3   OH234665   1.983   4.582  14.197 -1.1107 -0.0848 -0.5703
 4417TIP3    H134666   2.032   4.639  14.137  0.9239  0.6460  1.6448
 4417TIP3    H234667   2.035   4.501  14.200 -0.9170  0.0713  0.5369
 4418TIP3   OH234668   1.578   6.479  12.481 -0.1588 -0.5096  0.7072
 4418TIP3    H134669   1.557   6.515  12.395  0.0863 -1.3408  0.2876
 4418TIP3    H234670   1.589   6.556  12.537  0.2442  0.0575 -0.1331
 4419TIP3   OH234671   4.529   2.584  11.064  0.4478 -0.3976 -0.3256
 4419TIP3    H134672   4.478   2.639  11.123  0.4307 -1.4619  0.7058
 4419TIP3    H234673   4.614   2.574  11.108 -0.3687 -3.2074  0.8515
 4420TIP3   OH234674   2.299   4.492   9.929 -0.3267 -0.0773  0.2973
 4420TIP3    H134675   2.307   4.584   9.951 -2.1354  0.0819  0.4820
 4420TIP3    H234676   2.305   4.489   9.834  1.2892  0.0090  0.3746
 4421TIP3   OH234677   2.521   0.648  10.026  0.3430 -0.6593  0.1204
 4421TIP3    H134678   2.495   0.563  10.062  2.1279 -1.6795 -0.8698
 4421TIP3    H234679   2.616   0.650  10.035  0.2591  1.7801  1.1973
 4422TIP3   OH234680   4.799   3.995  10.656 -0.1639 -0.2562  0.1934
 4422TIP3    H134681   4.837   4.034  10.578  1.3864 -0.6971  0.6923
 4422TIP3    H234682   4.793   3.902  10.636 -4.2053  0.0918 -1.1395
 4423TIP3   OH234683   2.890   3.397   0.217 -0.1585  0.6521  0.0579
 4423TIP3    H134684   2.798   3.422   0.220 -0.8964 -1.6920 -0.3530
 4423TIP3    H234685   2.909   3.364   0.305  0.3287  1.2265  0.1721
 4424TIP3   OH234686   4.130   6.041  10.969 -0.1970  0.1878  0.8821
 4424TIP3    H134687   4.215   6.086  10.962 -0.3094  0.3377  0.4433
 4424TIP3    H234688   4.151   5.948  10.960  0.1299  0.0743  2.5503
 4425TIP3   OH234689   2.988   6.218  10.456  0.2342 -0.1626 -0.4781
 4425TIP3    H134690   2.966   6.125  10.467  0.9066 -0.2160  0.4035
 4425TIP3    H234691   2.924   6.249  10.391 -0.3596 -1.0987 -0.3607
 4426TIP3   OH234692   0.041   4.061  11.479 -0.2888 -0.3539  0.4008
 4426TIP3    H134693   0.129   4.039  11.448 -0.8230 -0.8915 -0.7919
 4426TIP3    H234694   0.013   3.984  11.529 -0.5804 -0.7196 -0.3215
 4427TIP3   OH234695   4.170   5.950  12.291  0.7163 -0.2346 -0.2437
 4427TIP3    H134696   4.151   5.895  12.215  2.4369 -0.2817 -0.6909
 4427TIP3    H234697   4.118   6.029  12.276 -1.6483 -1.5743  0.3154
 4428TIP3   OH234698   3.561   4.490  14.399 -0.2710  0.5406 -0.1488
 4428TIP3    H134699   3.511   4.458  14.323  0.6832  0.8602 -0.9281
 4428TIP3    H234700   3.494   4.527  14.457 -1.0503  0.0348 -0.6944
 4429TIP3   OH234701   6.930   0.339  11.530  0.4486 -0.2089  0.1772
 4429TIP3    H134702   6.918   0.316  11.438 -0.9586  0.2631  0.2141
 4429TIP3    H234703   6.952   0.433  11.528 -1.1310  0.2039  0.3566
 4430TIP3   OH234704   2.129   3.381  13.575  0.1257  0.0738  0.2173
 4430TIP3    H134705   2.058   3.349  13.631 -0.1963 -1.2543 -0.9040
 4430TIP3    H234706   2.197   3.314  13.582  0.4573  0.3548 -0.2589
 4431TIP3   OH234707   5.765   5.462  12.615 -0.5158  0.3673  0.0348
 4431TIP3    H134708   5.718   5.379  12.615  1.1543 -0.6332 -1.0975
 4431TIP3    H234709   5.804   5.467  12.702 -2.1174  0.9161  0.7691
 4432TIP3   OH234710   3.251   6.325  13.215  0.0174 -0.1818  0.1088
 4432TIP3    H134711   3.158   6.317  13.192 -0.2072  2.2418 -0.1441
 4432TIP3    H234712   3.260   6.274  13.295 -1.0306 -2.1561 -0.9610
 4433TIP3   OH234713   3.818   4.596  15.063 -0.1195 -0.1078 -0.2046
 4433TIP3    H134714   3.867   4.523  15.025  0.2581  0.0449 -0.0112
 4433TIP3    H234715   3.819   4.664  14.995  0.9970  0.3604  0.2598
 4434TIP3   OH234716   1.169   4.017  10.186  0.2178 -0.0155  0.3290
 4434TIP3    H134717   1.252   3.990  10.225  0.5361  0.1197 -0.2439
 4434TIP3    H234718   1.127   4.071  10.253  0.0638 -1.0189  1.0692
 4435TIP3   OH234719   2.251   4.143  10.210 -0.4284  0.1375 -0.2060
 4435TIP3    H134720   2.338   4.122  10.244 -1.5105 -0.3411  2.4728
 4435TIP3    H234721   2.260   4.134  10.115  2.4417  0.1990 -0.0211
 4436TIP3   OH234722   0.237   1.072   0.397  0.4262 -0.2453  0.3127
 4436TIP3    H134723   0.216   1.001   0.458  1.3244 -0.3396  0.5142
 4436TIP3    H234724   0.154   1.087   0.350  0.0819 -1.0713  0.6223
 4437TIP3   OH234725   4.591   2.540   0.603 -0.0417  0.1857 -0.1757
 4437TIP3    H134726   4.539   2.620   0.594  2.4338  1.9269 -0.2066
 4437TIP3    H234727   4.598   2.505   0.515  0.8176  1.3233 -0.5803
 4438TIP3   OH234728   6.853   0.260  12.532  0.7425  0.0825  0.5300
 4438TIP3    H134729   6.800   0.307  12.596  1.1034 -0.8385  1.5386
 4438TIP3    H234730   6.791   0.232  12.465  0.1784  0.1406  1.0270
 4439TIP3   OH234731   5.456   5.008  15.121  0.1280 -0.9397  0.4347
 4439TIP3    H134732   5.425   4.999  15.031  1.3152  1.0971 -0.2321
 4439TIP3    H234733   5.376   5.009  15.174 -0.6659 -0.7345 -0.7317
 4440TIP3   OH234734   5.408   1.935   2.592  0.0097 -0.1556  0.3829
 4440TIP3    H134735   5.339   1.880   2.554  0.2067 -0.8499  0.9891
 4440TIP3    H234736   5.361   2.011   2.627 -0.4083 -0.4379  0.4474
 4441TIP3   OH234737   5.763   4.153   0.211 -0.0177  0.1116 -0.2036
 4441TIP3    H134738   5.766   4.140   0.305  1.6841 -1.0037 -0.3844
 4441TIP3    H234739   5.851   4.181   0.187  0.9583 -3.7868 -1.9804
 4442TIP3   OH234740   4.832   7.021  13.630 -0.3002 -0.4057 -0.4753
 4442TIP3    H134741   4.870   6.941  13.668 -0.9691 -1.2152 -1.4521
 4442TIP3    H234742   4.744   7.025  13.667 -0.8628 -1.0562 -1.6789
 4443TIP3   OH234743   4.273   4.893  13.581 -0.2953 -0.3950 -0.0051
 4443TIP3    H134744   4.320   4.962  13.628  0.8987  0.5989 -2.4607
 4443TIP3    H234745   4.194   4.935  13.548 -0.4810 -0.7150  0.0274
 4444TIP3   OH234746   5.670   7.102  11.969 -0.1228  0.4175 -0.0007
 4444TIP3    H134747   5.765   7.115  11.970 -0.1992  1.0536  1.3377
 4444TIP3    H234748   5.634   7.190  11.958 -0.5611  0.4372  1.3714
 4445TIP3   OH234749   7.131   2.005  11.168  0.3057 -0.2974  0.0838
 4445TIP3    H134750   7.205   1.980  11.113 -0.7852 -0.1415 -1.5088
 4445TIP3    H234751   7.152   2.093  11.199  0.1846  0.3254 -1.5074
 4446TIP3   OH234752   6.580   5.550   9.437  0.1852  0.7299 -1.1727
 4446TIP3    H134753   6.663   5.588   9.465 -0.6428  2.0674 -0.4131
 4446TIP3    H234754   6.514   5.600   9.485 -1.0411 -0.6595 -1.3495
 4447TIP3   OH234755   0.157   6.338  12.385  0.1964  0.3150 -0.5412
 4447TIP3    H134756   0.190   6.260  12.340  0.3536  0.5400 -0.8189
 4447TIP3    H234757   0.141   6.401  12.314  0.8474  0.8180 -0.2525
 4448TIP3   OH234758   1.533   7.172   0.871  0.2207 -0.5091 -0.1721
 4448TIP3    H134759   1.517   7.139   0.959 -0.8095  2.1851  0.7478
 4448TIP3    H234760   1.603   7.116   0.837  2.7875  0.1107  3.4733
 4449TIP3   OH234761   1.582   2.614  10.970 -0.2577  0.7018 -0.2849
 4449TIP3    H134762   1.676   2.624  10.990  0.1565 -0.4012 -1.5537
 4449TIP3    H234763   1.550   2.555  11.038  0.4524 -0.5570 -0.9928
 4450TIP3   OH234764   6.588   5.815  10.752 -0.2527  0.0147  0.3609
 4450TIP3    H134765   6.640   5.760  10.811  0.7344 -1.1854 -1.5312
 4450TIP3    H234766   6.608   5.783  10.664 -0.6819  2.5287 -0.7664
 4451TIP3   OH234767   3.125   2.314  12.827  0.4905  0.0720 -0.1836
 4451TIP3    H134768   3.035   2.319  12.860  0.6468 -1.5442  0.5656
 4451TIP3    H234769   3.171   2.384  12.873 -0.4047  1.0765 -0.7458
 4452TIP3   OH234770   2.136   3.158  10.102  0.8079  0.2003  0.0122
 4452TIP3    H134771   2.166   3.248  10.098 -0.6210  0.7182  0.1630
 4452TIP3    H234772   2.121   3.142  10.195  0.8253 -0.1126 -0.0380
 4453TIP3   OH234773   4.250   3.514  12.189  0.4555 -0.1182 -0.2459
 4453TIP3    H134774   4.331   3.463  12.191  0.5451 -0.0820 -1.5662
 4453TIP3    H234775   4.243   3.553  12.276  1.3601 -0.8839  0.1848
 4454TIP3   OH234776   6.781   0.106  14.885  0.4131  0.3776  0.2241
 4454TIP3    H134777   6.807   0.167  14.816  1.3369 -0.6544 -0.3842
 4454TIP3    H234778   6.850   0.115  14.951 -0.0028  0.7252  0.6189
 4455TIP3   OH234779   2.498   1.611  13.468  0.4246  0.0184 -0.3933
 4455TIP3    H134780   2.574   1.593  13.413 -0.5949 -0.9012 -1.5461
 4455TIP3    H234781   2.457   1.688  13.428 -0.2418 -0.5699 -0.8799
 4456TIP3   OH234782   0.298   3.989   0.741 -0.2457  0.1141 -0.2939
 4456TIP3    H134783   0.317   3.940   0.820 -0.9540 -0.3576 -0.4024
 4456TIP3    H234784   0.308   3.926   0.670 -2.7871 -0.3851 -0.3073
 4457TIP3   OH234785   0.106   0.998   3.574 -0.4227  0.0833 -0.0002
 4457TIP3    H134786   0.072   1.087   3.562  0.7108  0.4853 -0.3954
 4457TIP3    H234787   0.071   0.971   3.659  0.7473  1.6720  1.0615
 4458TIP3   OH234788   6.832   3.030  14.733  0.9128  0.0953  0.0566
 4458TIP3    H134789   6.905   3.087  14.708  0.1621  1.3630  0.6463
 4458TIP3    H234790   6.754   3.074  14.699  0.3100 -0.5940  0.5079
 4459TIP3   OH234791   0.300   0.766  14.068 -0.2457  0.2923  0.5048
 4459TIP3    H134792   0.395   0.769  14.055 -0.5912  1.5279 -2.7424
 4459TIP3    H234793   0.280   0.843  14.120  0.3140  1.9159 -1.5519
 4460TIP3   OH234794   4.748   5.474  11.365 -0.0837 -0.9089 -0.2441
 4460TIP3    H134795   4.719   5.443  11.279 -0.3993  0.5634 -0.7043
 4460TIP3    H234796   4.754   5.569  11.354 -2.0213 -0.4653  1.9101
 4461TIP3   OH234797   0.707   6.043  14.774  0.0182 -0.1689  0.2305
 4461TIP3    H134798   0.614   6.028  14.787  0.1399 -0.3216  0.9530
 4461TIP3    H234799   0.748   5.959  14.795  0.3789  0.1057  0.6432
 4462TIP3   OH234800   0.160   3.008  11.134  0.6773  0.0088 -0.5109
 4462TIP3    H134801   0.171   2.989  11.228 -0.1081 -0.3214 -0.4777
 4462TIP3    H234802   0.214   3.086  11.119  1.0653 -0.1257  0.1447
 4463TIP3   OH234803   6.693   5.642  12.286  0.5995 -0.2289 -0.0021
 4463TIP3    H134804   6.662   5.624  12.374  1.9105  0.0624  0.5530
 4463TIP3    H234805   6.677   5.736  12.273  0.5436 -0.2409 -0.0200
 4464TIP3   OH234806   4.836   4.150  11.600 -0.6602  0.1502  0.9561
 4464TIP3    H134807   4.909   4.119  11.653 -0.0661  0.0885  0.1197
 4464TIP3    H234808   4.839   4.246  11.610 -0.2167  0.1756  0.6154
 4465TIP3   OH234809   3.921   3.995   9.807  0.0826  0.0499 -0.2110
 4465TIP3    H134810   3.947   3.932   9.739 -0.1714  0.6072 -0.8308
 4465TIP3    H234811   3.825   3.995   9.804  0.0064 -1.1571  1.2990
 4466TIP3   OH234812   1.186   1.452  11.027 -0.3945  0.1410 -0.6723
 4466TIP3    H134813   1.136   1.378  11.063 -1.6238  0.1070 -2.3396
 4466TIP3    H234814   1.265   1.412  10.991  1.0959  0.2211  2.1897
 4467TIP3   OH234815   1.978   4.890  11.188 -0.0485  0.1704  0.2077
 4467TIP3    H134816   1.973   4.949  11.113  0.4888  0.4309  0.3715
 4467TIP3    H234817   1.935   4.809  11.158 -0.6108  0.5706 -0.0831
 4468TIP3   OH234818   6.342   1.295   0.155 -0.5677  0.4334  0.6720
 4468TIP3    H134819   6.338   1.248   0.071 -2.4885 -0.4109  1.1741
 4468TIP3    H234820   6.387   1.234   0.214  1.0304  1.1388  0.2275
 4469TIP3   OH234821   0.682   6.381   3.794 -0.7386  0.1403 -0.1837
 4469TIP3    H134822   0.710   6.472   3.789  1.0976 -0.4391 -1.8818
 4469TIP3    H234823   0.679   6.352   3.703 -0.1886 -1.7845  0.3662
 4470TIP3   OH234824   5.467   1.192  14.727 -0.4111 -0.0332 -0.4734
 4470TIP3    H134825   5.472   1.111  14.676 -0.0883  1.4019 -2.9025
 4470TIP3    H234826   5.434   1.165  14.812 -2.3987 -2.4447 -1.8739
 4471TIP3   OH234827   6.824   1.515  11.549  0.5018  0.4523  0.1601
 4471TIP3    H134828   6.756   1.577  11.526 -0.4124 -0.6668 -0.2692
 4471TIP3    H234829   6.838   1.464  11.468  0.9224 -0.1693  0.6154
 4472TIP3   OH234830   4.479   2.406  10.677 -0.1749 -0.3166 -0.3124
 4472TIP3    H134831   4.529   2.470  10.727 -0.8525  0.0920 -0.1455
 4472TIP3    H234832   4.396   2.398  10.724  0.0738 -1.6741 -0.0684
 4473TIP3   OH234833   1.645   5.189  15.246  0.6436 -0.1819  0.5708
 4473TIP3    H134834   1.716   5.151  15.298  0.1771 -1.1168  0.5378
 4473TIP3    H234835   1.623   5.122  15.182 -2.5765 -1.3983  2.6918
 4474TIP3   OH234836   1.227   4.087  10.481  0.1067 -0.3081 -0.8176
 4474TIP3    H134837   1.227   4.183  10.474  2.1125 -0.2166 -0.2598
 4474TIP3    H234838   1.146   4.067  10.527 -0.0692  1.1790 -0.4017
 4475TIP3   OH234839   4.670   3.510   9.655  0.3317 -0.7117  0.2881
 4475TIP3    H134840   4.695   3.599   9.629  0.4352 -1.0477 -0.8476
 4475TIP3    H234841   4.581   3.520   9.689 -0.2492 -0.3669 -1.2360
 4476TIP3   OH234842   4.704   4.613   9.944  0.2502 -0.2872  0.2720
 4476TIP3    H134843   4.681   4.537   9.997  0.1099  1.9889  3.7755
 4476TIP3    H234844   4.794   4.596   9.916  0.4838 -1.4306  1.6064
 4477TIP3   OH234845   4.729   3.179  13.797  0.6091 -0.0632 -0.5676
 4477TIP3    H134846   4.808   3.152  13.750 -0.9469 -3.1992 -1.6492
 4477TIP3    H234847   4.674   3.220  13.731  0.5745  0.4899 -0.2063
 4478TIP3   OH234848   6.813   3.278  11.712 -0.2282 -0.5583 -0.7090
 4478TIP3    H134849   6.837   3.227  11.634 -1.0174 -0.9772 -0.6800
 4478TIP3    H234850   6.736   3.234  11.747  0.5816 -0.8722  0.7858
 4479TIP3   OH234851   0.963   4.084  12.285 -0.2956  0.3587 -0.3457
 4479TIP3    H134852   0.932   3.993  12.284  1.5963 -0.3763  1.1342
 4479TIP3    H234853   0.884   4.137  12.289 -1.4828 -1.1592 -2.0218
 4480TIP3   OH234854   0.234   0.246  10.165  0.1880 -0.3651  0.8488
 4480TIP3    H134855   0.208   0.197  10.243 -1.1409 -0.8243  0.1646
 4480TIP3    H234856   0.296   0.311  10.196 -0.2806 -0.5730  2.2781
 4481TIP3   OH234857   1.874   2.769   3.096  0.1287 -0.9658 -0.3191
 4481TIP3    H134858   1.859   2.742   3.186  0.4137 -0.0204  0.0126
 4481TIP3    H234859   1.786   2.772   3.057 -0.3251  1.4314  0.7422
 4482TIP3   OH234860   6.393   6.917  12.365 -0.3683  0.2321 -0.4591
 4482TIP3    H134861   6.389   6.825  12.392  0.3650  0.1822 -0.5095
 4482TIP3    H234862   6.302   6.945  12.364 -0.5586 -0.3412  0.0901
 4483TIP3   OH234863   5.630   0.688  14.329 -0.5079 -0.0852  0.2076
 4483TIP3    H134864   5.638   0.704  14.423 -1.2489 -2.3548  0.7410
 4483TIP3    H234865   5.538   0.709  14.310  0.2967  3.0954 -0.7041
 4484TIP3   OH234866   2.451   4.484  14.399  0.1564  0.7719 -0.8988
 4484TIP3    H134867   2.417   4.417  14.340  2.3236 -0.8252 -0.4510
 4484TIP3    H234868   2.535   4.449  14.429  1.9781  4.1675 -1.5218
 4485TIP3   OH234869   2.608   4.832   9.891  0.6378  0.0633  0.1309
 4485TIP3    H134870   2.636   4.821   9.800 -1.1902 -1.5934 -0.2955
 4485TIP3    H234871   2.680   4.797   9.943  0.0910 -2.9097 -0.8841
 4486TIP3   OH234872   4.694   0.130  11.282 -0.1224 -0.0859  0.2373
 4486TIP3    H134873   4.778   0.143  11.324  0.4206 -0.2679 -0.7570
 4486TIP3    H234874   4.646   0.211  11.299  0.7077  0.5110 -0.2003
 4487TIP3   OH234875   4.834   6.313   9.981 -0.2608 -0.3141  0.2344
 4487TIP3    H134876   4.804   6.230   9.945  0.9397 -1.3750  1.6018
 4487TIP3    H234877   4.926   6.319   9.956 -0.6352  1.2915 -0.9929
 4488TIP3   OH234878   6.086   6.810  11.876  0.0493 -0.1850 -0.3767
 4488TIP3    H134879   6.074   6.889  11.929 -1.7340 -0.9617  0.4853
 4488TIP3    H234880   6.005   6.760  11.890  0.7990 -1.7991 -1.5229
 4489TIP3   OH234881   4.072   0.271  11.505 -0.1418 -0.4348 -0.2600
 4489TIP3    H134882   4.015   0.296  11.577 -0.1967 -0.9631 -0.1180
 4489TIP3    H234883   4.054   0.179  11.490 -0.6869 -0.1524 -1.4623
 4490TIP3   OH234884   5.574   0.150  10.158 -0.1643 -0.6307  0.9096
 4490TIP3    H134885   5.583   0.056  10.144  0.0281 -0.6891  1.4036
 4490TIP3    H234886   5.623   0.167  10.239  1.0165  0.1217  0.0659
 4491TIP3   OH234887   4.499   2.079  12.682  0.4164  0.4362  0.3983
 4491TIP3    H134888   4.502   2.173  12.668  2.5044  0.3689  0.0129
 4491TIP3    H234889   4.490   2.041  12.595  1.3759  0.2686  0.3563
 4492TIP3   OH234890   1.058   1.099   9.308 -0.2578  0.1104  0.0604
 4492TIP3    H134891   0.973   1.064   9.284  0.7775 -0.8579 -2.5145
 4492TIP3    H234892   1.119   1.027   9.294  1.0979  0.9834  1.1481
 4493TIP3   OH234893   7.046   4.496  11.994 -0.4200 -0.3165  0.1236
 4493TIP3    H134894   6.982   4.566  11.979  0.4235  0.3908 -0.2926
 4493TIP3    H234895   6.998   4.415  11.976 -1.2664  0.1837  0.0841
 4494TIP3   OH234896   2.445   4.345   4.074 -0.6406  0.7381  0.6287
 4494TIP3    H134897   2.489   4.418   4.117  0.2852  1.1628 -0.9698
 4494TIP3    H234898   2.445   4.368   3.981 -1.9117 -0.4862  0.2888
 4495TIP3   OH234899   1.408   2.327   0.903  0.5217  0.8349  0.1834
 4495TIP3    H134900   1.331   2.329   0.845 -0.7025  0.1959  1.7278
 4495TIP3    H234901   1.451   2.411   0.887 -0.1516  0.9706 -1.1407
 4496TIP3   OH234902   2.091   1.282   5.098  0.4162  0.3120 -0.0960
 4496TIP3    H134903   2.015   1.225   5.108  0.8156 -0.7302 -2.4516
 4496TIP3    H234904   2.164   1.230   5.133  0.2665  0.8187  1.0095
 4497TIP3   OH234905   1.576   5.430  14.390  0.1570 -0.1144 -0.8729
 4497TIP3    H134906   1.504   5.390  14.341  0.0963 -0.9612 -0.1014
 4497TIP3    H234907   1.643   5.362  14.396  0.5966  0.3261 -0.6741
 4498TIP3   OH234908   0.265   6.465  14.585  0.4085  0.1608 -0.1210
 4498TIP3    H134909   0.338   6.512  14.545  0.7603 -0.6988 -0.5287
 4498TIP3    H234910   0.193   6.474  14.521 -0.0830  1.5963  0.5990
 4499TIP3   OH234911   5.756   5.902  13.581  0.9425 -0.2914  0.2523
 4499TIP3    H134912   5.670   5.867  13.559  0.8942  0.0389 -0.1055
 4499TIP3    H234913   5.812   5.879  13.507  1.0969 -0.2726  0.3604
 4500TIP3   OH234914   3.740   1.547  14.964 -0.5944 -0.8417  0.3873
 4500TIP3    H134915   3.674   1.574  14.901 -0.8114 -0.0088  0.9666
 4500TIP3    H234916   3.804   1.618  14.965  0.1047 -1.4542  0.1333
 4501TIP3   OH234917   6.521   3.902   9.862  0.2868  0.1277  0.5112
 4501TIP3    H134918   6.610   3.930   9.840  0.0846 -0.8917 -1.9443
 4501TIP3    H234919   6.509   3.821   9.813 -2.6147  1.2068 -0.7365
 4502TIP3   OH234920   3.365   1.932  14.112  0.1437 -0.0519  0.0477
 4502TIP3    H134921   3.312   2.009  14.091 -1.4693 -1.0104  0.3781
 4502TIP3    H234922   3.443   1.940  14.056  0.2577  2.0388  0.4444
 4503TIP3   OH234923   4.785   5.130  12.354 -0.5457 -0.1476  0.1953
 4503TIP3    H134924   4.762   5.121  12.446 -0.2328  0.3436  0.3255
 4503TIP3    H234925   4.823   5.218  12.347  0.2420 -0.5166 -0.2287
 4504TIP3   OH234926   7.060   3.050   9.932  0.2093  0.0179 -0.2932
 4504TIP3    H134927   7.010   2.976   9.897 -0.4275  0.8188 -1.1403
 4504TIP3    H234928   7.132   3.010   9.980  0.1132 -1.1504 -1.0872
 4505TIP3   OH234929   0.674   5.434   1.556 -0.4344  0.1340  0.6862
 4505TIP3    H134930   0.714   5.465   1.475  0.9612  1.3768  1.7776
 4505TIP3    H234931   0.664   5.340   1.544  1.0857  0.0789 -0.3919
 4506TIP3   OH234932   0.678   4.920   1.351 -0.1193 -0.7405 -0.0418
 4506TIP3    H134933   0.765   4.889   1.326  1.7367  1.7548  2.7145
 4506TIP3    H234934   0.659   4.988   1.287  1.1920  0.4692  0.7958
 4507TIP3   OH234935   5.816   3.412  12.375  0.5435  0.2670  0.0074
 4507TIP3    H134936   5.832   3.467  12.451  0.4339  0.7538 -0.3184
 4507TIP3    H234937   5.755   3.345  12.406  1.3945 -0.2239  0.6462
 4508TIP3   OH234938   5.828   2.996  11.794 -0.4510 -0.4767 -0.2988
 4508TIP3    H134939   5.734   2.979  11.802 -0.0215 -2.4089  1.4261
 4508TIP3    H234940   5.858   2.932  11.730 -0.3058  0.2044 -0.9221
 4509TIP3   OH234941   0.307   4.918  14.535  0.1096 -0.4234  0.7694
 4509TIP3    H134942   0.274   5.008  14.541  0.8761 -0.1076  0.4138
 4509TIP3    H234943   0.242   4.866  14.581 -1.8991 -0.1160 -1.5189
 4510TIP3   OH234944   2.471   2.116  10.886  0.1938  0.0287  0.2776
 4510TIP3    H134945   2.427   2.137  10.968  0.2221  0.1860  0.2517
 4510TIP3    H234946   2.495   2.023  10.895 -0.4446 -0.1536  0.1578
 4511TIP3   OH234947   5.951   6.671  11.602 -0.0814 -0.6104 -0.1821
 4511TIP3    H134948   5.866   6.633  11.582 -0.2741 -0.5739  0.5662
 4511TIP3    H234949   5.945   6.700  11.693  0.0334  1.2728 -0.7275
 4512TIP3   OH234950   5.932   6.869  12.952  0.6240 -0.7452  0.4798
 4512TIP3    H134951   5.952   6.865  12.858 -3.3477  0.3097 -0.6343
 4512TIP3    H234952   5.903   6.780  12.973 -2.2121 -0.1551 -0.4740
 4513TIP3   OH234953   1.013   0.085  12.381 -0.0412 -0.0446  0.2009
 4513TIP3    H134954   0.968   0.140  12.445 -1.1062 -1.8034  1.0546
 4513TIP3    H234955   1.025   0.002  12.426  0.2927 -0.9399 -1.4773
 4514TIP3   OH234956   4.298   0.252  11.352  0.0091  0.1373  0.3111
 4514TIP3    H134957   4.219   0.248  11.406  0.4702 -0.3084  0.9625
 4514TIP3    H234958   4.349   0.175  11.379  0.0694 -0.3184 -1.0320
 4515TIP3   OH234959   6.760   3.031  11.564 -0.4703 -0.3334 -0.0690
 4515TIP3    H134960   6.809   2.957  11.600  0.6670  0.2124 -0.4501
 4515TIP3    H234961   6.780   3.031  11.471  1.0388  1.5031  0.1965
 4516TIP3   OH234962   2.412   0.425   9.806  0.0413  0.1818 -0.2609
 4516TIP3    H134963   2.502   0.404   9.784  0.0263 -0.6274  0.3987
 4516TIP3    H234964   2.403   0.398   9.898 -0.6697  0.9007 -0.1062
 4517TIP3   OH234965   3.053   2.625  12.241  0.0068 -0.0854 -0.2360
 4517TIP3    H134966   3.091   2.616  12.154 -1.1574  1.0993 -0.9055
 4517TIP3    H234967   2.959   2.617  12.226 -0.2437  0.6998  0.8256
 4518TIP3   OH234968   4.654   4.874  11.107  0.2291  0.7368 -0.2510
 4518TIP3    H134969   4.700   4.927  11.042  0.9245  0.4778  0.0165
 4518TIP3    H234970   4.609   4.807  11.055  1.8201 -0.2642 -0.4314
 4519TIP3   OH234971   6.903   6.796  14.506 -0.3899  0.1743 -0.1774
 4519TIP3    H134972   6.936   6.883  14.531  0.7786 -0.0883 -0.7559
 4519TIP3    H234973   6.903   6.746  14.588  2.2267 -0.3015 -0.3969
 4520TIP3   OH234974   7.152   4.838  10.020 -0.3055 -0.0414 -0.6081
 4520TIP3    H134975   7.138   4.818  10.113 -0.2117  0.1293 -0.5571
 4520TIP3    H234976   7.137   4.932  10.014 -0.0030 -0.0006 -0.7102
 4521TIP3   OH234977   3.286   1.359   4.648  0.6269 -0.2511  0.2274
 4521TIP3    H134978   3.312   1.448   4.624 -1.4642  0.5760  0.8716
 4521TIP3    H234979   3.266   1.317   4.564 -1.1184  0.8148  0.0686
 4522TIP3   OH234980   3.683   1.124  15.316 -0.4670 -0.4659  0.0568
 4522TIP3    H134981   3.622   1.114  15.389 -1.3093 -0.2378 -0.6043
 4522TIP3    H234982   3.730   1.040  15.314 -0.2046 -0.3568  1.0531
 4523TIP3   OH234983   0.653   3.194  12.301 -0.5590 -0.5297 -0.2090
 4523TIP3    H134984   0.560   3.219  12.298 -0.4143 -0.0365 -0.7302
 4523TIP3    H234985   0.654   3.113  12.351 -0.9547  0.8791  2.2139
 4524TIP3   OH234986   1.964   3.158  11.280 -0.2592  0.3494  0.3301
 4524TIP3    H134987   1.978   3.077  11.231 -0.1442  1.4857 -1.6134
 4524TIP3    H234988   1.869   3.170  11.280 -0.1929  0.9293 -0.6300
 4525TIP3   OH234989   4.689   4.311  13.939 -0.1781  0.2095  0.1278
 4525TIP3    H134990   4.739   4.268  14.008  0.2258 -0.7428 -0.7286
 4525TIP3    H234991   4.755   4.343  13.878 -0.5725 -0.1557 -0.4989
 4526TIP3   OH234992   7.006   7.118  12.953  0.5362 -0.1066 -0.1271
 4526TIP3    H134993   7.010   7.211  12.929 -4.1267  0.6836  1.0346
 4526TIP3    H234994   6.968   7.075  12.877 -1.5040 -0.1080  0.8169
 4527TIP3   OH234995   4.697   3.212  11.856 -0.1926 -0.0014  0.5866
 4527TIP3    H134996   4.756   3.239  11.785  1.1764  3.5544  2.7949
 4527TIP3    H234997   4.617   3.183  11.811  1.4182 -0.1662 -2.4069
 4528TIP3   OH234998   5.022   6.982   9.781  0.1567 -0.1316  0.0196
 4528TIP3    H134999   5.044   6.974   9.689 -1.8078  1.3142 -0.6317
 4528TIP3    H235000   5.086   7.044   9.816  2.3282 -2.3549  0.2456
 4529TIP3   OH235001   4.881   3.740  11.392  0.3876  0.2315  0.1535
 4529TIP3    H135002   4.921   3.703  11.471 -0.2967  0.9130  0.8363
 4529TIP3    H235003   4.799   3.778  11.423 -0.5682 -0.6974 -1.1182
 4530TIP3   OH235004   6.623   7.077  13.965  0.1647  0.1495  0.1756
 4530TIP3    H135005   6.678   7.022  13.909 -0.6244 -0.7442  0.2601
 4530TIP3    H235006   6.640   7.166  13.935  0.9543 -0.1861 -0.4147
 4531TIP3   OH235007   6.251   2.093  11.119  0.1716 -0.9511  0.0875
 4531TIP3    H135008   6.156   2.102  11.127  0.1227  0.0570 -1.3089
 4531TIP3    H235009   6.283   2.104  11.209 -0.7824  2.5927  0.1365
 4532TIP3   OH235010   3.548   2.438  11.610 -0.5676  0.4185  0.4609
 4532TIP3    H135011   3.614   2.385  11.566  1.1078  1.0181  2.1332
 4532TIP3    H235012   3.500   2.377  11.665 -1.7357 -0.0826 -1.0277
 4533TIP3   OH235013   4.554   6.568   9.672  0.1869  0.2159  0.2455
 4533TIP3    H135014   4.564   6.518   9.753 -0.1766  0.0230  0.1720
 4533TIP3    H235015   4.505   6.511   9.614  0.9926  0.1015 -0.3444
 4534TIP3   OH235016   1.969   1.692   3.621  0.2932 -0.6090 -0.1989
 4534TIP3    H135017   1.937   1.602   3.613  2.3037 -1.5118  1.2114
 4534TIP3    H235018   2.058   1.683   3.656  0.1826  1.9623  0.9484
 4535TIP3   OH235019   4.190   1.670   9.907 -0.3472 -0.0141 -0.6178
 4535TIP3    H135020   4.155   1.757   9.925  1.3580  0.3002  1.7027
 4535TIP3    H235021   4.264   1.686   9.847 -1.2945 -0.1624 -1.8731
 4536TIP3   OH235022   2.140   1.125  14.073 -0.0102 -0.3428 -0.3631
 4536TIP3    H135023   2.176   1.166  14.152 -0.1994  0.1733 -0.5385
 4536TIP3    H235024   2.218   1.098  14.023  0.1648  0.9763 -0.8446
 4537TIP3   OH235025   2.886   0.737  12.982 -0.0747 -0.3502 -0.2157
 4537TIP3    H135026   2.793   0.748  13.002  0.0846  1.7603 -0.4754
 4537TIP3    H235027   2.889   0.726  12.887 -0.0478 -0.3021 -0.2201
 4538TIP3   OH235028   0.769   1.909  11.316 -0.0421  0.3397 -0.0868
 4538TIP3    H135029   0.754   2.003  11.331 -1.3761 -0.0788  1.3704
 4538TIP3    H235030   0.862   1.904  11.291  0.3138  1.9328  0.7524
 4539TIP3   OH235031   5.441   1.487  13.624  0.2950 -0.8742  0.0454
 4539TIP3    H135032   5.414   1.409  13.673  0.7816 -0.2523  1.3642
 4539TIP3    H235033   5.522   1.516  13.668 -0.6693  1.2154  0.5807
 4540TIP3   OH235034   6.894   2.460  12.743  0.1617 -0.1726 -0.4966
 4540TIP3    H135035   6.864   2.424  12.826  0.8406  1.2433  0.3920
 4540TIP3    H235036   6.824   2.438  12.681 -0.7804 -0.4566  0.6372
 4541TIP3   OH235037   1.655   3.280  11.534  0.4643  0.0638 -0.4476
 4541TIP3    H135038   1.702   3.322  11.606 -2.6403 -0.0149  1.8274
 4541TIP3    H235039   1.655   3.187  11.557  0.1278 -0.0777 -1.0106
 4542TIP3   OH235040   5.887   2.541  10.056 -0.6616 -0.2910 -0.0773
 4542TIP3    H135041   5.937   2.559   9.977  2.5750  0.1607  1.8934
 4542TIP3    H235042   5.914   2.453  10.082 -1.1605 -0.1783  0.8796
 4543TIP3   OH235043   0.467   2.725   2.193  0.1837 -0.2508 -0.2384
 4543TIP3    H135044   0.494   2.801   2.141  0.7352 -0.5448 -0.3851
 4543TIP3    H235045   0.436   2.662   2.128 -0.4387 -0.0901 -0.1043
 4544TIP3   OH235046   6.853   6.748  11.972  0.1812 -0.3175  0.5733
 4544TIP3    H135047   6.797   6.744  11.894  0.6911 -0.3574  0.2051
 4544TIP3    H235048   6.807   6.808  12.030  0.1142  0.2208 -0.0197
 4545TIP3   OH235049   2.737   2.286  13.545 -0.4983 -0.3614  0.2478
 4545TIP3    H135050   2.665   2.256  13.490 -0.0353  0.1685 -0.6608
 4545TIP3    H235051   2.816   2.267  13.495 -0.1295  1.2480  0.1519
 4546TIP3   OH235052   2.535   1.676  14.588  0.2371  0.0551 -0.0647
 4546TIP3    H135053   2.498   1.633  14.511 -0.1881 -0.9624  0.6683
 4546TIP3    H235054   2.579   1.753  14.554 -0.9490  0.2797 -1.1983
 4547TIP3   OH235055   0.948   0.321  12.497 -0.0905  0.4722  0.1870
 4547TIP3    H135056   0.858   0.292  12.511 -0.3163 -0.1862 -2.1827
 4547TIP3    H235057   0.950   0.348  12.405  2.1578  0.4265  0.1727
 4548TIP3   OH235058   6.965   6.549  11.419  0.0733  0.0063 -0.7646
 4548TIP3    H135059   6.991   6.457  11.412 -1.6407 -0.5118 -0.8198
 4548TIP3    H235060   7.033   6.597  11.370  1.3373 -1.1315 -0.1957
 4549TIP3   OH235061   4.634   5.882  10.282 -0.2170  0.1083  0.0277
 4549TIP3    H135062   4.614   5.836  10.201  0.2079 -1.3378  0.7013
 4549TIP3    H235063   4.597   5.826  10.351 -1.9722  2.0829  0.7952
 4550TIP3   OH235064   0.359   3.905  14.742  0.3301  0.4307  0.4695
 4550TIP3    H135065   0.397   3.855  14.814 -1.3284  0.9105  1.7394
 4550TIP3    H235066   0.272   3.929  14.773 -0.3683  0.8301 -1.6345
 4551TIP3   OH235067   3.496   5.442  12.500 -0.2126  0.1833 -0.0479
 4551TIP3    H135068   3.481   5.411  12.410 -0.1350  0.1856 -0.0623
 4551TIP3    H235069   3.529   5.366  12.547 -2.3886 -0.4324  0.5611
 4552TIP3   OH235070   0.105   0.802  12.925  0.1179 -0.0150 -0.0129
 4552TIP3    H135071   0.132   0.731  12.866 -0.6092 -1.0302  0.8474
 4552TIP3    H235072   0.014   0.820  12.901 -0.8819 -1.8523  2.0856
 4553TIP3   OH235073   6.806   2.036  14.379  0.4491 -0.0259 -0.1219
 4553TIP3    H135074   6.892   2.003  14.405  0.7612  1.2718  0.5912
 4553TIP3    H235075   6.774   2.082  14.456 -0.4614  0.3269 -0.6937
 4554TIP3   OH235076   6.520   4.446  11.247  0.0228  0.1746  0.0469
 4554TIP3    H135077   6.496   4.366  11.294 -0.7416  0.1315 -0.4048
 4554TIP3    H235078   6.440   4.473  11.203  0.5237  0.6627 -0.5817
 4555TIP3   OH235079   6.273   6.685   3.091  0.6934 -0.1157  0.2243
 4555TIP3    H135080   6.252   6.705   3.182 -0.1460  1.7267 -0.3144
 4555TIP3    H235081   6.355   6.731   3.074  0.0947  0.7687 -0.3327
 4556TIP3   OH235082   5.461   5.531  12.839 -0.0720 -0.3959  0.0678
 4556TIP3    H135083   5.484   5.614  12.799  1.2798  0.2113  1.9851
 4556TIP3    H235084   5.468   5.467  12.768  0.4345  0.8770 -1.0601
 4557TIP3   OH235085   5.165   4.008  12.657 -0.0976  0.1745 -0.0089
 4557TIP3    H135086   5.149   3.919  12.625 -1.9590 -0.1308  1.5579
 4557TIP3    H235087   5.162   4.063  12.579 -3.5259 -0.6305 -0.6254
 4558TIP3   OH235088   7.137   0.634  13.345 -0.2433  0.2085 -0.1667
 4558TIP3    H135089   7.100   0.684  13.272 -1.0518  0.6939  0.5544
 4558TIP3    H235090   7.212   0.685  13.374 -0.2689  0.3141 -0.2892
 4559TIP3   OH235091   3.688   6.838  10.463 -0.0974 -0.0301  0.0692
 4559TIP3    H135092   3.781   6.861  10.469  0.1633 -1.2750  1.4057
 4559TIP3    H235093   3.649   6.874  10.543 -0.5572 -0.4271  0.0281
 4560TIP3   OH235094   4.134   7.173   1.376  0.0931 -0.1239 -0.2061
 4560TIP3    H135095   4.174   7.135   1.454  0.6697  1.4486  0.3138
 4560TIP3    H235096   4.188   7.142   1.303  1.1178  0.4233  0.3002
 4561TIP3   OH235097   4.480   7.145   9.582 -0.1983 -0.0048 -0.5200
 4561TIP3    H135098   4.396   7.101   9.573 -0.2658 -0.9866  3.1629
 4561TIP3    H235099   4.545   7.075   9.578  0.1827  0.3249 -0.2081
 4562TIP3   OH235100   6.901   4.871  12.451 -0.2498  0.1742  0.1487
 4562TIP3    H135101   6.895   4.847  12.359  1.1026 -0.5421  0.2201
 4562TIP3    H235102   6.844   4.809  12.496 -0.6324  0.2977 -0.1533
 4563TIP3   OH235103   5.293   3.939  14.258  0.5169  0.6774  0.0760
 4563TIP3    H135104   5.351   3.929  14.334  0.5513 -0.2720 -0.0579
 4563TIP3    H235105   5.265   4.030  14.261 -0.0694  0.4909  1.6576
 4564TIP3   OH235106   4.706   7.141   2.954 -0.5327  0.3798 -0.0921
 4564TIP3    H135107   4.734   7.217   3.005 -0.0899 -0.8271  1.5571
 4564TIP3    H235108   4.788   7.101   2.924 -0.6502 -0.5135  0.7182
 4565TIP3   OH235109   3.667   5.764  10.673  0.3528  0.0953 -0.4140
 4565TIP3    H135110   3.663   5.678  10.633 -0.7907 -0.3974  0.7077
 4565TIP3    H235111   3.610   5.819  10.619  0.4637 -0.0365 -0.6676
 4566TIP3   OH235112   0.726   3.098   0.685  0.0533 -0.6776 -0.1635
 4566TIP3    H135113   0.760   3.148   0.759 -3.0212 -0.9097  1.5785
 4566TIP3    H235114   0.714   3.010   0.719  0.3301 -1.2698 -1.5415
 4567TIP3   OH235115   0.685   6.503  10.326  0.4672  0.2753 -0.4478
 4567TIP3    H135116   0.677   6.505  10.231  2.0562 -0.4279 -0.6334
 4567TIP3    H235117   0.779   6.509  10.342  0.3009 -0.5708  1.0370
 4568TIP3   OH235118   1.515   6.752   9.771  0.5244  0.2048 -0.6965
 4568TIP3    H135119   1.607   6.727   9.767  0.9797  1.5223  0.6642
 4568TIP3    H235120   1.468   6.678   9.733  2.1459 -0.4446 -1.4966
 4569TIP3   OH235121   5.601   4.387   0.282 -0.5216  0.3895 -0.1006
 4569TIP3    H135122   5.641   4.310   0.241 -1.2263 -0.1859  0.2722
 4569TIP3    H235123   5.635   4.461   0.232  0.7881 -0.0985  0.0367
 4570TIP3   OH235124   3.588   1.046  13.204  0.6307 -0.2528  0.1784
 4570TIP3    H135125   3.619   0.971  13.254 -1.0953 -0.9619  0.2787
 4570TIP3    H235126   3.651   1.057  13.133  0.5211 -2.2839 -0.2741
 4571TIP3   OH235127   5.327   4.287  12.783  0.2030 -0.6415  0.0912
 4571TIP3    H135128   5.319   4.236  12.863 -2.5179 -0.4137  0.0767
 4571TIP3    H235129   5.244   4.336  12.778  1.1643  0.9386 -1.7877
 4572TIP3   OH235130   4.509   3.424  10.319 -0.1133  0.0242 -0.5490
 4572TIP3    H135131   4.496   3.415  10.224  3.8401  1.2030 -1.3913
 4572TIP3    H235132   4.513   3.334  10.351  1.8147 -0.5467 -2.1708
 4573TIP3   OH235133   5.075   3.519   2.386  0.5765  0.1983 -0.5123
 4573TIP3    H135134   5.094   3.589   2.325 -0.4942  0.5154 -0.5062
 4573TIP3    H235135   4.979   3.512   2.386  0.5387  0.2686  1.1781
 4574TIP3   OH235136   6.755   0.484  11.166 -0.4938  0.4810  0.3928
 4574TIP3    H135137   6.708   0.565  11.186 -1.2820  0.6306 -1.8060
 4574TIP3    H235138   6.832   0.512  11.118  0.0103 -0.0017  0.9033
 4575TIP3   OH235139   7.201   1.967  14.358 -0.0325 -0.0915  0.0607
 4575TIP3    H135140   7.127   1.953  14.299 -0.4546 -3.4774  1.1781
 4575TIP3    H235141   7.160   1.991  14.441  0.4732  2.8880 -0.4501
 4576TIP3   OH235142   5.303   5.300   9.976 -0.3667  0.5130  0.0890
 4576TIP3    H135143   5.300   5.216   9.930  0.1280  0.3016  0.4443
 4576TIP3    H235144   5.236   5.293  10.044 -2.5291  1.5523 -1.7987
 4577TIP3   OH235145   1.041   1.907  11.716  0.1773  0.0466 -0.8320
 4577TIP3    H135146   1.090   1.827  11.732 -1.3961 -1.2591 -2.1222
 4577TIP3    H235147   1.010   1.934  11.802  0.7865 -0.6843 -0.3693
 4578TIP3   OH235148   5.443   4.644  13.423  0.1501  0.0456  0.0127
 4578TIP3    H135149   5.521   4.638  13.368 -0.3344  0.3626 -0.7257
 4578TIP3    H235150   5.379   4.690  13.368 -0.5771 -0.2781  0.5786
 4579TIP3   OH235151   6.027   4.574  12.044  0.0285 -0.0924  0.4800
 4579TIP3    H135152   5.944   4.545  12.082 -0.2990 -0.1518 -0.2697
 4579TIP3    H235153   6.094   4.528  12.094 -0.4559 -1.4993 -0.1385
 4580TIP3   OH235154   4.957   0.846  11.642 -0.7633  0.1467  0.0835
 4580TIP3    H135155   4.994   0.933  11.622 -0.4534 -0.1661 -0.7473
 4580TIP3    H235156   5.004   0.817  11.720  0.1072  0.1520 -0.4254
 4581TIP3   OH235157   3.950   4.025   0.362  0.5338 -0.0220  0.2990
 4581TIP3    H135158   3.865   4.023   0.406  0.2702  1.0606 -0.1387
 4581TIP3    H235159   3.936   3.975   0.282 -0.0888  1.2607 -0.4235
 4582TIP3   OH235160   3.783   3.590  13.084 -0.1160  0.2452  0.7243
 4582TIP3    H135161   3.864   3.572  13.132 -0.8569 -0.3505  1.8069
 4582TIP3    H235162   3.739   3.505  13.078 -0.1748  0.3597 -0.7949
 4583TIP3   OH235163   6.744   7.165   0.653 -0.1436  0.1817 -0.1019
 4583TIP3    H135164   6.761   7.155   0.559  0.3613 -0.4466  0.0492
 4583TIP3    H235165   6.818   7.121   0.695  1.0264  2.6068  0.6040
 4584TIP3   OH235166   3.039   5.820   9.724  0.6591 -0.1812  0.0672
 4584TIP3    H135167   3.121   5.837   9.770  1.4796 -0.9915 -1.0458
 4584TIP3    H235168   3.017   5.903   9.682  1.6366 -0.3121 -0.7321
 4585TIP3   OH235169   3.610   7.053  12.052 -1.1996 -0.1109 -0.1623
 4585TIP3    H135170   3.616   7.143  12.085 -0.7308 -0.5360  0.9757
 4585TIP3    H235171   3.516   7.036  12.049 -1.2753  0.0128  0.8421
 4586TIP3   OH235172   1.819   4.465   0.807 -0.1868 -0.5270 -0.0902
 4586TIP3    H135173   1.768   4.472   0.888  0.3551 -0.2381  0.2355
 4586TIP3    H235174   1.809   4.551   0.766  0.9579 -0.0701  0.5458
 4587TIP3   OH235175   6.171   6.988  11.338 -0.2983 -0.6824 -0.1344
 4587TIP3    H135176   6.215   7.072  11.327 -1.8786 -0.1244 -3.4067
 4587TIP3    H235177   6.151   6.983  11.432  1.6325  1.5989  0.4776
 4588TIP3   OH235178   1.796   5.296  11.106  0.0475 -0.7470  0.5328
 4588TIP3    H135179   1.783   5.205  11.132 -2.2340 -0.7784 -0.4355
 4588TIP3    H235180   1.755   5.347  11.175 -0.0707 -0.5390  0.3105
 4589TIP3   OH235181   2.427   4.144  11.593  0.1602 -0.0607 -0.1357
 4589TIP3    H135182   2.414   4.062  11.640  0.3185 -0.4297 -0.7367
 4589TIP3    H235183   2.517   4.170  11.614  0.4316 -0.5264 -0.6916
 4590TIP3   OH235184   2.764   0.393  10.603 -0.8523  0.0919  0.1118
 4590TIP3    H135185   2.841   0.435  10.566  0.2790 -1.6910  0.3721
 4590TIP3    H235186   2.690   0.440  10.563  0.2896  2.8368  0.9923
 4591TIP3   OH235187   3.153   3.551  14.333  0.0251  0.1740 -0.6884
 4591TIP3    H135188   3.162   3.549  14.238 -0.2355 -0.3723 -0.7067
 4591TIP3    H235189   3.233   3.510  14.365 -1.3657 -2.8802 -0.7930
 4592TIP3   OH235190   2.806   0.601  10.017 -0.1140 -0.0975  0.2795
 4592TIP3    H135191   2.891   0.639  10.039 -0.1081  0.0472  0.0184
 4592TIP3    H235192   2.803   0.604   9.921  0.5449 -2.1656  0.1432
 4593TIP3   OH235193   7.091   3.777  14.600 -0.1476  0.2129 -0.3931
 4593TIP3    H135194   7.057   3.689  14.586  0.9285 -1.1180  3.8211
 4593TIP3    H235195   7.020   3.836  14.574 -2.3488 -2.0677  0.1200
 4594TIP3   OH235196   0.910   3.888   1.230  0.7092  0.7578 -0.2208
 4594TIP3    H135197   0.838   3.907   1.290  0.1234 -2.3994  0.2631
 4594TIP3    H235198   0.867   3.855   1.151  1.4923 -2.2043  0.4679
 4595TIP3   OH235199   2.117   1.538  11.291  0.2688  0.8894 -0.5080
 4595TIP3    H135200   2.113   1.582  11.375 -0.6742  1.1831 -0.7020
 4595TIP3    H235201   2.198   1.570  11.251  0.4878  1.0886  0.0835
 4596TIP3   OH235202   5.694   6.559  12.041  0.4510 -0.0510  0.3615
 4596TIP3    H135203   5.744   6.624  11.992  0.4099 -0.0514  0.3183
 4596TIP3    H235204   5.747   6.540  12.118 -0.1155  0.9657  1.0219
 4597TIP3   OH235205   6.926   4.985  14.554  0.1915 -0.3714 -0.0310
 4597TIP3    H135206   6.950   4.986  14.646  0.7806  1.4124 -0.1761
 4597TIP3    H235207   7.007   5.005  14.508 -0.2932 -0.3145 -0.8817
 4598TIP3   OH235208   1.226   2.273  12.915  0.1350  0.0334  0.1112
 4598TIP3    H135209   1.169   2.266  12.838  0.7817 -0.2720 -0.3480
 4598TIP3    H235210   1.224   2.186  12.954 -2.1769  0.7659  1.9226
 4599TIP3   OH235211   3.423   0.561  14.210 -0.1214  0.6132 -0.2736
 4599TIP3    H135212   3.511   0.562  14.173 -1.2045  2.3642 -3.2007
 4599TIP3    H235213   3.373   0.622  14.155 -3.4233 -1.0182  0.6182
 4600TIP3   OH235214   1.664   0.812  13.703 -0.6360 -0.3486 -0.1040
 4600TIP3    H135215   1.723   0.803  13.778 -0.6628 -1.6444 -0.2207
 4600TIP3    H235216   1.668   0.905  13.680  0.5735 -0.2287  0.5238
 4601TIP3   OH235217   0.772   4.863  13.293  0.2205 -0.1458 -0.7647
 4601TIP3    H135218   0.718   4.924  13.243 -0.3834  0.9317  1.0799
 4601TIP3    H235219   0.842   4.918  13.330  0.6573 -0.8975 -0.4392
 4602TIP3   OH235220   5.864   2.300  10.798  0.2020 -0.7173 -0.4015
 4602TIP3    H135221   5.788   2.243  10.808  0.6281 -0.9823  1.9538
 4602TIP3    H235222   5.840   2.381  10.841  1.1770 -0.7606  0.2627
 4603TIP3   OH235223   0.671   3.741  13.261 -0.7239  0.4317 -0.2198
 4603TIP3    H135224   0.680   3.693  13.179 -0.9151 -0.9934  0.5758
 4603TIP3    H235225   0.741   3.806  13.258 -1.6898  1.4915 -2.2107
 4604TIP3   OH235226   3.330   5.115   0.522 -0.2873 -0.7574 -0.4887
 4604TIP3    H135227   3.306   5.133   0.613 -1.4481 -0.0710 -0.9123
 4604TIP3    H235228   3.386   5.189   0.497 -0.0587 -0.8889 -0.3689
 4605TIP3   OH235229   1.000   0.377  11.277 -0.0329  0.0665 -0.0329
 4605TIP3    H135230   1.004   0.287  11.309 -0.7891 -0.2309 -0.7367
 4605TIP3    H235231   1.039   0.373  11.189 -1.9606 -0.0213 -0.9368
 4606TIP3   OH235232   3.750   0.341  14.260 -0.3291  0.1930 -0.6557
 4606TIP3    H135233   3.686   0.311  14.324  1.5395  0.1238  1.2751
 4606TIP3    H235234   3.753   0.436  14.272  0.4557  0.1169 -0.1873
 4607TIP3   OH235235   7.188   1.725  12.348 -0.6923 -0.7585  0.0543
 4607TIP3    H135236   7.281   1.736  12.369 -0.9218  1.3328  0.1971
 4607TIP3    H235237   7.175   1.776  12.268 -1.8137 -0.5323  0.3546
 4608TIP3   OH235238   1.578   1.032  12.578  0.3651  0.0073  0.2815
 4608TIP3    H135239   1.535   1.014  12.662 -0.7539  0.0816 -0.2579
 4608TIP3    H235240   1.542   1.116  12.551 -1.3396 -1.2144 -1.5296
 4609TIP3   OH235241   1.853   5.091   0.050  0.1784 -0.0011 -0.0065
 4609TIP3    H135242   1.899   5.172   0.069 -2.7372  1.5097  1.2976
 4609TIP3    H235243   1.920   5.032   0.017  2.8597  2.1483  1.2356
 4610TIP3   OH235244   4.584   2.710  11.428 -0.0379  0.4380  0.8933
 4610TIP3    H135245   4.507   2.668  11.465  0.2637 -1.9764 -0.9713
 4610TIP3    H235246   4.550   2.786  11.381 -1.2474 -0.3273  0.4918
 4611TIP3   OH235247   4.971   4.327   0.983  0.1307  0.1163  0.5476
 4611TIP3    H135248   4.884   4.295   0.959 -0.9219  2.1896  1.3495
 4611TIP3    H235249   5.027   4.299   0.911 -0.9840 -1.9833  0.4049
 4612TIP3   OH235250   2.341   3.199  13.566 -0.1383  0.0118 -0.2325
 4612TIP3    H135251   2.358   3.132  13.500  0.3162  0.6465 -0.7818
 4612TIP3    H235252   2.428   3.233  13.588 -0.4819  1.9785 -1.6582
 4613TIP3   OH235253   1.055   2.653  12.596 -0.0846  0.0458  0.2509
 4613TIP3    H135254   1.051   2.564  12.560  0.9262 -0.7368  1.9706
 4613TIP3    H235255   0.972   2.663  12.642 -1.2688  0.9544 -1.9190
 4614TIP3   OH235256   6.400   1.178  11.565 -0.7595 -0.4575 -0.0453
 4614TIP3    H135257   6.417   1.105  11.624  0.8462  0.6394  0.8952
 4614TIP3    H235258   6.416   1.257  11.617 -1.9327  0.5951 -1.1874
 4615TIP3   OH235259   3.265   5.241  11.594 -0.5104  0.1356 -0.0450
 4615TIP3    H135260   3.171   5.246  11.575 -0.4137  1.8395 -0.1671
 4615TIP3    H235261   3.292   5.158  11.553 -2.0063 -0.5651  0.2995
 4616TIP3   OH235262   7.127   1.139  13.803 -0.7848 -0.6788  0.3551
 4616TIP3    H135263   7.048   1.183  13.835 -0.2273 -0.1930  1.1044
 4616TIP3    H235264   7.185   1.137  13.879  1.3077  2.1110 -0.9956
 4617TIP3   OH235265   5.061   3.281   1.050  0.4315 -0.5812 -0.2173
 4617TIP3    H135266   5.059   3.313   0.960 -0.4195 -1.1632 -0.4206
 4617TIP3    H235267   5.063   3.185   1.041  0.1439 -0.6492  0.3870
 4618TIP3   OH235268   1.841   0.982   9.957  0.1753  0.2656  0.5395
 4618TIP3    H135269   1.930   0.955   9.935 -0.0196  0.3016 -0.3148
 4618TIP3    H235270   1.799   0.902   9.990  0.3906  0.1478  0.5285
 4619TIP3   OH235271   1.767   6.337  11.084  0.1429  0.6270  0.2098
 4619TIP3    H135272   1.815   6.407  11.040  0.7696 -0.3917 -0.8007
 4619TIP3    H235273   1.683   6.332  11.039  1.6530 -2.0035 -2.7287
 4620TIP3   OH235274   1.366   1.104  13.872 -0.2613 -0.2317 -0.5002
 4620TIP3    H135275   1.373   1.096  13.777  0.2617  1.7986 -0.6795
 4620TIP3    H235276   1.348   1.197  13.887 -1.8669 -0.7566  1.3236
 4621TIP3   OH235277   4.731   2.456  11.515 -0.0275  0.0529  0.1058
 4621TIP3    H135278   4.679   2.530  11.483 -1.0156 -0.0936  1.2906
 4621TIP3    H235279   4.771   2.489  11.596  3.3438  0.8075 -1.6881
 4622TIP3   OH235280   6.914   4.045  13.933  0.2724  0.0566 -0.1519
 4622TIP3    H135281   6.886   4.102  14.004  1.4200  0.9797 -0.4150
 4622TIP3    H235282   6.962   3.974  13.976 -0.8088 -0.5359  0.1367
 4623TIP3   OH235283   2.598   3.423  13.226  0.7848 -0.0635 -0.8902
 4623TIP3    H135284   2.549   3.398  13.304  1.3694 -1.7277 -1.0029
 4623TIP3    H235285   2.562   3.508  13.201 -2.6933 -1.5391 -1.4810
 4624TIP3   OH235286   6.844   3.181  11.117  0.9882  0.4942  0.0400
 4624TIP3    H135287   6.929   3.222  11.101 -0.3637  3.2423 -0.7045
 4624TIP3    H235288   6.816   3.151  11.031  0.6201  0.8131  0.0497
 4625TIP3   OH235289   2.977   4.162  12.821 -0.4361  0.0197  0.1500
 4625TIP3    H135290   3.042   4.170  12.751  1.6898 -0.8289  1.9427
 4625TIP3    H235291   2.907   4.223  12.795  0.1892 -0.3482 -2.7329
 4626TIP3   OH235292   3.290   6.294  10.835  0.7007 -0.0481 -0.4249
 4626TIP3    H135293   3.286   6.228  10.766  2.3454  1.2103 -1.7977
 4626TIP3    H235294   3.204   6.291  10.877 -0.3654 -0.8177 -2.5594
 4627TIP3   OH235295   6.051   6.161   0.188  0.4605  0.8577 -0.5491
 4627TIP3    H135296   5.986   6.096   0.161  1.1745 -0.7499  1.3261
 4627TIP3    H235297   6.006   6.245   0.182 -1.8242 -0.2035  0.6835
 4628TIP3   OH235298   2.700   0.435  13.439  0.4107 -0.2291  0.1116
 4628TIP3    H135299   2.745   0.506  13.484  2.1026 -0.8020 -0.5569
 4628TIP3    H235300   2.704   0.361  13.500  1.2998 -0.5525 -0.3059
 4629TIP3   OH235301   4.471   3.930  12.401  0.0908  0.2856  0.1554
 4629TIP3    H135302   4.422   3.896  12.326 -1.1513  0.3354  0.9264
 4629TIP3    H235303   4.543   3.868  12.412  0.1856  0.1741 -0.9508
 4630TIP3   OH235304   0.105   6.706  14.471 -0.5525  0.1733 -0.1472
 4630TIP3    H135305   0.138   6.715  14.382 -1.6799  0.1215 -0.5926
 4630TIP3    H235306   0.182   6.687  14.524  0.3403  1.5399 -0.8884
 4631TIP3   OH235307   6.994   5.605  11.140  0.8236 -0.3293 -0.7349
 4631TIP3    H135308   6.905   5.598  11.173  0.7809 -0.7609 -0.9238
 4631TIP3    H235309   7.049   5.574  11.212  0.6443 -2.7075 -1.5084
 4632TIP3   OH235310   1.066   1.576  11.376  0.4277 -0.0439  1.2367
 4632TIP3    H135311   1.113   1.655  11.401 -1.3773  0.9682  1.5670
 4632TIP3    H235312   0.977   1.588  11.409 -0.5322 -1.1807 -0.6924
 4633TIP3   OH235313   6.117   2.980   0.501 -0.4853  0.0963  0.2055
 4633TIP3    H135314   6.210   2.973   0.521 -0.2254 -0.3150 -1.0546
 4633TIP3    H235315   6.099   3.074   0.503 -0.6253  0.0843  2.8181
 4634TIP3   OH235316   5.739   5.941   9.966  0.5285 -0.1804  0.4586
 4634TIP3    H135317   5.712   6.004  10.034 -0.6380 -0.6684  0.4631
 4634TIP3    H235318   5.777   5.995   9.897 -0.1236  0.4973  0.6251
 4635TIP3   OH235319   1.226   2.413   9.013  0.4136 -0.4714 -0.2719
 4635TIP3    H135320   1.255   2.335   9.060  1.0797  0.5371  1.0868
 4635TIP3    H235321   1.144   2.387   8.972  0.9990 -2.0908 -0.4790
 4636TIP3   OH235322   6.555   6.074  10.345 -0.2415  0.0723 -0.1400
 4636TIP3    H135323   6.464   6.082  10.319 -1.2630  0.4608  3.0644
 4636TIP3    H235324   6.560   6.120  10.429  3.0108  0.3860 -0.3575
 4637TIP3   OH235325   3.675   6.706  12.813 -0.3169 -0.1437  0.4657
 4637TIP3    H135326   3.752   6.659  12.845 -0.4166 -0.4777  0.2155
 4637TIP3    H235327   3.698   6.730  12.723  0.1725  1.2525  0.9431
 4638TIP3   OH235328   2.603   0.935  10.263 -0.0843 -0.9863  0.1009
 4638TIP3    H135329   2.657   0.983  10.200 -1.0671  0.9418  0.6517
 4638TIP3    H235330   2.514   0.944  10.230 -0.3969 -1.6860  0.7199
 4639TIP3   OH235331   3.466   2.859  12.110 -0.2739 -0.2153  0.7677
 4639TIP3    H135332   3.527   2.932  12.099  0.9597 -1.2497  0.4791
 4639TIP3    H235333   3.460   2.847  12.205  1.3954 -1.2029  0.7943
 4640TIP3   OH235334   0.503   2.585  14.884 -0.0640 -0.3574  0.5275
 4640TIP3    H135335   0.474   2.548  14.801  3.1027 -0.4288 -0.6842
 4640TIP3    H235336   0.585   2.630  14.863  1.2013 -0.8969  3.7020
 4641TIP3   OH235337   1.989   4.191  10.965  0.2224  0.2716  0.4277
 4641TIP3    H135338   1.987   4.099  10.939 -0.5911  0.4184 -0.0662
 4641TIP3    H235339   1.988   4.190  11.060 -3.0062 -0.2109  0.4743
 4642TIP3   OH235340   7.103   2.317  14.453  0.2966 -0.1875  0.1188
 4642TIP3    H135341   7.045   2.338  14.380  0.0954 -0.3335  0.2354
 4642TIP3    H235342   7.044   2.290  14.523  0.5478 -1.2354 -0.0615
 4643TIP3   OH235343   1.956   3.318  10.602 -0.8261  0.0740  1.0295
 4643TIP3    H135344   1.876   3.350  10.561 -0.4084 -0.6119 -0.3874
 4643TIP3    H235345   1.934   3.308  10.694 -2.3681 -0.1036  0.6612
 4644TIP3   OH235346   2.041   4.326   9.809 -0.6712 -0.3761  0.0739
 4644TIP3    H135347   1.994   4.373   9.740 -1.1415 -1.4182 -0.3543
 4644TIP3    H235348   2.072   4.394   9.869  2.2967  0.8985 -2.6342
 4645TIP3   OH235349   0.723   5.508   9.859 -0.2538  0.9414  0.2131
 4645TIP3    H135350   0.672   5.431   9.884 -1.4806  1.4847 -0.5204
 4645TIP3    H235351   0.657   5.574   9.837  0.7388  2.6582  2.0515
 4646TIP3   OH235352   7.208   3.450  14.271  0.1942 -0.0528  0.9970
 4646TIP3    H135353   7.257   3.488  14.344 -0.2918  0.9289  0.8289
 4646TIP3    H235354   7.257   3.478  14.193  0.2173 -0.3544  0.9037
 4647TIP3   OH235355   6.064   4.462  11.171 -0.3590 -0.6327 -0.2293
 4647TIP3    H135356   6.029   4.436  11.256 -2.3320 -1.2078 -1.1538
 4647TIP3    H235357   6.046   4.556  11.165 -0.0133 -0.5469  0.0763
 4648TIP3   OH235358   1.339   5.515  11.501 -0.8630 -0.3266 -0.6950
 4648TIP3    H135359   1.389   5.562  11.568  0.0149 -3.3795  0.9986
 4648TIP3    H235360   1.364   5.556  11.419  1.7024  0.5977  0.4330
 4649TIP3   OH235361   5.461   7.198   9.261 -0.3705  0.0463 -0.5416
 4649TIP3    H135362   5.392   7.152   9.212 -0.4258  0.0582 -0.4752
 4649TIP3    H235363   5.423   7.283   9.282 -1.1684 -0.7364  1.3998
 4650TIP3   OH235364   6.248   6.330  12.062 -0.0412  0.0273  0.2355
 4650TIP3    H135365   6.323   6.368  12.016 -0.4567 -0.0528 -0.5329
 4650TIP3    H235366   6.239   6.243  12.023 -1.2105  0.4499 -0.4739
 4651TIP3   OH235367   5.656   1.574  14.895  0.0980  0.5086 -0.2770
 4651TIP3    H135368   5.669   1.511  14.824 -0.8370  3.2685 -3.1285
 4651TIP3    H235369   5.597   1.529  14.956  3.0605 -2.9832  0.3520
 4652TIP3   OH235370   4.494   0.598  12.106 -0.1572  0.3436  0.0369
 4652TIP3    H135371   4.426   0.543  12.066  0.3472  0.3148 -0.7892
 4652TIP3    H235372   4.473   0.687  12.078 -0.1848  0.4099  0.2630
 4653TIP3   OH235373   3.279   1.167  14.407 -0.6130 -0.4262  0.6899
 4653TIP3    H135374   3.269   1.203  14.318 -0.6262 -1.5421  0.2229
 4653TIP3    H235375   3.284   1.072  14.394 -1.7604 -0.6983  1.9813
 4654TIP3   OH235376   4.474   6.576  12.569 -0.6507 -0.4228  0.8376
 4654TIP3    H135377   4.391   6.590  12.524  0.2430 -1.8298 -1.3907
 4654TIP3    H235378   4.531   6.646  12.536 -0.7077  0.1355  1.8583
 4655TIP3   OH235379   6.938   3.740   9.682 -0.5179 -0.1206 -0.1630
 4655TIP3    H135380   7.016   3.740   9.738  0.5339  0.7499 -1.5368
 4655TIP3    H235381   6.897   3.825   9.698  1.0365  1.1401 -2.2269
 4656TIP3   OH235382   2.392   4.228  13.773 -0.4121  0.0155 -0.5855
 4656TIP3    H135383   2.329   4.295  13.749 -0.8293  0.4058  1.3783
 4656TIP3    H235384   2.338   4.152  13.797 -0.2687  0.5490  1.7031
 4657TIP3   OH235385   3.782   5.934  14.392  0.3758  0.7522 -0.1249
 4657TIP3    H135386   3.765   6.025  14.368 -0.6165  0.2940 -1.2835
 4657TIP3    H235387   3.723   5.917  14.466 -0.3391  0.7104 -0.6948
 4658TIP3   OH235388   1.390   6.413  14.067  0.7475 -0.1292 -0.4221
 4658TIP3    H135389   1.402   6.482  14.132 -0.8926  0.3577 -0.5826
 4658TIP3    H235390   1.468   6.358  14.075  1.7475  1.3306  0.2047
 4659TIP3   OH235391   3.872   1.715  13.453  0.2162  0.2001 -0.5573
 4659TIP3    H135392   3.829   1.746  13.373  0.3858  2.9089  0.2773
 4659TIP3    H235393   3.875   1.793  13.509  1.5044 -1.2283  1.4779
 4660TIP3   OH235394   1.919   0.522  10.601  0.2124 -0.7246  0.0891
 4660TIP3    H135395   1.854   0.535  10.532  1.6334  2.7445 -0.7805
 4660TIP3    H235396   1.893   0.582  10.671 -1.0766 -3.9965  2.7172
 4661TIP3   OH235397   1.928   6.227  10.132 -0.0710 -0.1739 -0.0501
 4661TIP3    H135398   1.972   6.293  10.077 -0.3171  1.0490  1.1538
 4661TIP3    H235399   1.935   6.146  10.082  0.7795  0.6370 -1.3237
 4662TIP3   OH235400   7.154   0.575  14.957  0.6878  0.2102 -0.1400
 4662TIP3    H135401   7.213   0.650  14.960 -0.6329  1.3520 -1.3933
 4662TIP3    H235402   7.142   0.557  14.864 -1.0164  0.1112  0.0559
 4663TIP3   OH235403   0.819   0.690  11.980 -0.5313  0.6904 -0.1419
 4663TIP3    H135404   0.804   0.717  12.070  1.8026 -1.3452  0.9758
 4663TIP3    H235405   0.734   0.655  11.951 -0.5915 -1.7836  2.5197
 4664TIP3   OH235406   0.807   1.310  11.787  0.2253 -0.3498  0.2508
 4664TIP3    H135407   0.746   1.370  11.830  1.2434  0.5247  0.4986
 4664TIP3    H235408   0.756   1.230  11.774 -0.7264  0.0841  1.1833
 4665TIP3   OH235409   2.777   6.264  11.723  0.4968 -0.1014  0.0402
 4665TIP3    H135410   2.840   6.301  11.785  0.6068  0.2455 -0.2743
 4665TIP3    H235411   2.710   6.332  11.714  0.4100 -0.2080 -0.1131
 4666TIP3   OH235412   6.391   2.937  11.674 -0.5788 -0.5713  0.1965
 4666TIP3    H135413   6.409   2.960  11.582 -2.2633  0.4219  0.0737
 4666TIP3    H235414   6.447   2.862  11.691 -0.5345 -1.0454 -1.7883
 4667TIP3   OH235415   5.630   3.354   0.039 -0.8717 -0.0990  0.0153
 4667TIP3    H135416   5.702   3.415   0.025 -2.1857  1.5740  0.1957
 4667TIP3    H235417   5.646   3.317   0.126 -0.5900  0.7554  0.3325
 4668TIP3   OH235418   6.157   0.087   2.506  0.1706  0.7280  0.4128
 4668TIP3    H135419   6.119   0.173   2.522  2.0636  1.6043  0.5008
 4668TIP3    H235420   6.122   0.031   2.575 -3.0762  0.6993 -1.0862
 4669TIP3   OH235421   4.558   0.380  13.297 -0.1153  0.2499  0.6077
 4669TIP3    H135422   4.604   0.448  13.248 -0.1071  0.8240  1.4072
 4669TIP3    H235423   4.616   0.304  13.292 -0.2747  0.1882 -0.5711
 4670TIP3   OH235424   5.304   0.691  12.932  0.6248 -0.0210  0.3517
 4670TIP3    H135425   5.305   0.778  12.892 -0.2565  0.1089  0.5941
 4670TIP3    H235426   5.267   0.705  13.019  3.5578 -0.0980  1.7620
 4671TIP3   OH235427   4.656   5.546  10.137 -0.5785 -0.4632 -0.5948
 4671TIP3    H135428   4.635   5.625  10.088 -2.1241 -2.7070 -3.8820
 4671TIP3    H235429   4.746   5.559  10.166 -0.9790  2.6893 -0.4290
 4672TIP3   OH235430   5.494   0.030  13.154 -0.2756  0.0733 -0.2128
 4672TIP3    H135431   5.576   0.079  13.157 -1.4999  2.6856 -3.0849
 4672TIP3    H235432   5.444   0.061  13.229  0.9770 -0.8965  1.0605
 4673TIP3   OH235433   6.385   2.005   9.120 -0.1611 -0.3623  0.5123
 4673TIP3    H135434   6.324   2.041   9.055  0.5566 -0.8608 -0.4696
 4673TIP3    H235435   6.333   1.940   9.168 -0.2404 -1.3062 -0.7911
 4674TIP3   OH235436   4.920   3.196  11.653 -0.0109 -0.5801  0.1952
 4674TIP3    H135437   4.996   3.192  11.711 -0.0829  1.0805  0.4560
 4674TIP3    H235438   4.939   3.133  11.584  2.8092  1.4975 -1.1198
 4675TIP3   OH235439   6.041   3.645  14.041  0.1183 -0.2132  0.1399
 4675TIP3    H135440   6.052   3.720  14.099 -0.8211 -0.0749  0.1559
 4675TIP3    H235441   5.946   3.635  14.032  0.2390 -0.6915 -0.7775
 4676TIP3   OH235442   3.882   1.021  10.958  0.1025 -0.3456  0.1327
 4676TIP3    H135443   3.795   1.000  10.992  0.6218  2.1900  3.5596
 4676TIP3    H235444   3.943   0.980  11.020  1.2541  0.8620 -0.1467
 4677TIP3   OH235445   6.820   1.361  14.116  0.4271 -0.4150 -0.4007
 4677TIP3    H135446   6.901   1.409  14.099 -0.1004 -0.3407 -3.0284
 4677TIP3    H235447   6.841   1.270  14.094  0.1932 -0.6634  0.3714
 4678TIP3   OH235448   3.135   4.034  14.382  0.0074 -0.2517  0.1231
 4678TIP3    H135449   3.218   4.037  14.333 -0.9440 -1.9256 -1.7248
 4678TIP3    H235450   3.134   3.947  14.421 -0.9167 -0.2679  0.0731
 4679TIP3   OH235451   0.349   3.370  11.963 -0.6309  0.3846  0.0035
 4679TIP3    H135452   0.284   3.312  11.924 -0.3032  0.0935 -0.1145
 4679TIP3    H235453   0.432   3.345  11.922 -0.0561 -0.7996  1.7676
 4680TIP3   OH235454   0.138   2.931  14.600  0.6973 -0.0241  0.5541
 4680TIP3    H135455   0.064   2.909  14.658 -0.6262  0.6991 -0.8152
 4680TIP3    H235456   0.156   2.849  14.553  0.1324  0.0533  0.2010
 4681TIP3   OH235457   7.081   5.382  11.869  0.3733 -0.1988 -0.1179
 4681TIP3    H135458   7.082   5.291  11.897 -2.0585 -0.3454 -0.2784
 4681TIP3    H235459   6.995   5.394  11.828  1.2696  1.7345 -1.6130
 4682TIP3   OH235460   2.813   1.421  12.916  0.5827 -0.5425  0.4090
 4682TIP3    H135461   2.817   1.485  12.844  0.5968  0.1813  1.0351
 4682TIP3    H235462   2.847   1.469  12.992 -2.2978 -0.2454  1.6419
 4683TIP3   OH235463   6.991   0.825  11.057 -0.0415 -0.0475  0.0457
 4683TIP3    H135464   6.931   0.876  11.111 -2.4959 -3.2963  0.7671
 4683TIP3    H235465   6.991   0.738  11.099  0.6733 -1.7546 -3.1843
 4684TIP3   OH235466   0.279   0.801  13.700  0.0999 -0.7396 -0.1608
 4684TIP3    H135467   0.209   0.832  13.756  0.2090 -1.2738  0.2798
 4684TIP3    H235468   0.334   0.747  13.757  2.9961  2.5446  0.5650
 4685TIP3   OH235469   4.281   0.323  10.116 -0.1575 -0.0351 -0.1819
 4685TIP3    H135470   4.221   0.273  10.060 -3.0484  1.4122  1.3856
 4685TIP3    H235471   4.317   0.390  10.059  0.4934 -1.2891 -1.3045
 4686TIP3   OH235472   5.744   5.071   9.419  0.2716  0.5933  0.0466
 4686TIP3    H135473   5.705   5.158   9.432  0.2085  0.6987 -0.7654
 4686TIP3    H235474   5.783   5.075   9.332  0.3149 -0.1771  0.0212
 4687TIP3   OH235475   6.192   1.129  11.390  0.4035 -0.2425  0.3552
 4687TIP3    H135476   6.261   1.158  11.449  0.5808 -3.4177  1.8894
 4687TIP3    H235477   6.235   1.068  11.331 -0.6468 -0.4581 -0.2109
 4688TIP3   OH235478   0.949   0.734  15.033 -0.7012 -0.2948  0.1888
 4688TIP3    H135479   0.943   0.770  15.121 -2.1929  1.2906 -0.5024
 4688TIP3    H235480   0.902   0.650  15.038 -0.0815 -0.6054  1.0610
 4689TIP3   OH235481   2.608   2.924  12.446  0.0895  0.8663  0.0101
 4689TIP3    H135482   2.622   2.998  12.388  2.2092  1.8957  1.7151
 4689TIP3    H235483   2.514   2.922  12.461 -0.1517  2.3567 -1.1494
 4690TIP3   OH235484   3.491   0.142  14.348 -0.7163  0.0157 -0.5544
 4690TIP3    H135485   3.410   0.155  14.298 -0.8816 -0.6407 -0.4702
 4690TIP3    H235486   3.472   0.178  14.435  0.4325  3.6293 -1.6128
 4691TIP3   OH235487   6.129   6.634  11.356 -0.1078  0.1542 -0.9366
 4691TIP3    H135488   6.140   6.545  11.323  1.1024  0.5167 -1.5699
 4691TIP3    H235489   6.086   6.623  11.441 -1.3593 -0.9180 -1.6727
 4692TIP3   OH235490   6.884   1.142  12.085  0.1178 -0.1193 -0.4359
 4692TIP3    H135491   6.911   1.066  12.136 -2.2551  0.4002  1.8476
 4692TIP3    H235492   6.961   1.199  12.085  0.7461 -0.9011  1.1710
 4693TIP3   OH235493   6.218   1.152  11.962 -0.1657  0.7971 -0.2919
 4693TIP3    H135494   6.292   1.149  11.902  2.0586  0.1916  2.2725
 4693TIP3    H235495   6.140   1.143  11.906  1.7528 -0.5567 -2.9376
 4694TIP3   OH235496   3.481   1.944  14.697 -0.0399 -0.1185  0.1717
 4694TIP3    H135497   3.429   1.991  14.632  0.2061 -0.5133 -0.3214
 4694TIP3    H235498   3.569   1.981  14.688 -0.1741  0.3567  0.8115
 4695TIP3   OH235499   2.058   0.250   9.797  0.2143 -0.4722  1.2400
 4695TIP3    H135500   1.977   0.226   9.752 -0.2124  0.1697  1.6454
 4695TIP3    H235501   2.121   0.265   9.727 -0.2366 -0.2187  0.8805
 4696TIP3   OH235502   1.618   3.203  11.879  0.2839  0.3335 -0.1685
 4696TIP3    H135503   1.547   3.197  11.815 -0.3855 -0.7635  0.6459
 4696TIP3    H235504   1.638   3.112  11.902  2.3042  0.5939 -0.7337
 4697TIP3   OH235505   6.501   3.524  14.354 -0.4902  0.6114 -0.2280
 4697TIP3    H135506   6.520   3.543  14.446  1.5033  0.9091 -0.6491
 4697TIP3    H235507   6.578   3.556  14.307 -1.6610  0.8819 -2.0650
 4698TIP3   OH235508   4.532   5.516   1.430 -0.2998 -0.1585  0.4275
 4698TIP3    H135509   4.618   5.552   1.409 -0.5543 -0.1171 -0.5891
 4698TIP3    H235510   4.487   5.588   1.474  0.5472 -0.5309  1.9855
 4699TIP3   OH235511   4.861   1.806  11.854  0.1626  0.4296 -0.2024
 4699TIP3    H135512   4.800   1.877  11.833 -0.2025  0.2943  0.3604
 4699TIP3    H235513   4.943   1.851  11.876 -0.4799  0.8095  1.6408
 4700TIP3   OH235514   0.492   5.685   2.486  0.2015 -0.2156 -0.0540
 4700TIP3    H135515   0.453   5.753   2.541 -1.6026 -0.4437 -0.9921
 4700TIP3    H235516   0.432   5.611   2.492  0.6620 -0.7208 -1.2965
 4701TIP3   OH235517   4.374   4.568  11.618  0.0661  0.2167  0.0766
 4701TIP3    H135518   4.390   4.641  11.559 -0.2640  0.0686 -0.1977
 4701TIP3    H235519   4.435   4.582  11.691  0.4924  0.3847 -0.3074
 4702TIP3   OH235520   3.762   2.554  12.684 -0.6445  0.1945 -0.3064
 4702TIP3    H135521   3.753   2.644  12.715  0.3749  0.7326 -1.4402
 4702TIP3    H235522   3.702   2.503  12.737 -1.7732  1.6691 -0.1126
 4703TIP3   OH235523   3.961   6.201  12.442  0.1956 -0.2797  0.5593
 4703TIP3    H135524   4.030   6.148  12.481  2.2175  1.2081 -0.8480
 4703TIP3    H235525   3.975   6.196  12.348  0.5617  2.7415  0.3409
 4704TIP3   OH235526   6.457   6.466  10.036 -0.3183 -0.1291 -0.3148
 4704TIP3    H135527   6.527   6.528  10.015  0.3757 -0.3184  1.2792
 4704TIP3    H235528   6.438   6.423   9.953 -1.0999  2.4475 -1.5647
 4705TIP3   OH235529   1.412   0.003  10.369 -0.3069 -0.0443  0.3761
 4705TIP3    H135530   1.445  -0.082  10.397  0.2468 -0.2482 -0.8141
 4705TIP3    H235531   1.423   0.060  10.445  2.1878 -0.2788  0.2529
 4706TIP3   OH235532   0.812   5.450  12.546  0.3137  0.0976  0.0672
 4706TIP3    H135533   0.845   5.532  12.510 -1.5624 -0.3782 -3.0565
 4706TIP3    H235534   0.719   5.448  12.523  0.1205 -2.5571  0.6809
 4707TIP3   OH235535   2.723   4.714  11.416 -0.2517 -0.1830  0.0045
 4707TIP3    H135536   2.649   4.763  11.380 -1.6792 -0.9199  1.7618
 4707TIP3    H235537   2.762   4.670  11.340 -1.0853  0.8911 -1.0883
 4708TIP3   OH235538   1.693   1.191   0.419  0.0341 -0.3003  0.0285
 4708TIP3    H135539   1.688   1.168   0.511 -0.1279 -1.5233 -0.2785
 4708TIP3    H235540   1.688   1.108   0.372 -0.6829  0.3558 -1.1166
 4709TIP3   OH235541   2.234   0.293   9.586 -0.1175  0.1861  0.2857
 4709TIP3    H135542   2.249   0.361   9.521  0.4566  1.0232  1.2610
 4709TIP3    H235543   2.320   0.254   9.601 -0.4560 -0.8570 -0.3453
 4710TIP3   OH235544   1.172   5.898  11.406  0.3334 -0.5489 -0.2322
 4710TIP3    H135545   1.118   5.969  11.442  1.9391 -0.0384  1.3096
 4710TIP3    H235546   1.166   5.828  11.471  1.1270 -0.6731 -0.2845
 4711TIP3   OH235547   6.206   1.031  14.785  0.3938 -0.1560  0.5740
 4711TIP3    H135548   6.195   0.984  14.702  0.9142  0.3755  0.1943
 4711TIP3    H235549   6.300   1.029  14.802  0.2886 -0.2693  1.1607
 4712TIP3   OH235550   6.414   2.202   1.302  0.1074 -0.3058  0.9796
 4712TIP3    H135551   6.393   2.114   1.271  0.2314 -0.3068  0.9012
 4712TIP3    H235552   6.328   2.241   1.321 -0.0202 -0.0085 -0.1682
 4713TIP3   OH235553   5.060   6.995  10.623 -0.0055 -0.3900  0.3350
 4713TIP3    H135554   5.042   7.035  10.708  1.3374 -1.0472  0.9560
 4713TIP3    H235555   5.139   7.039  10.592  0.7934 -1.6878  0.4731
 4714TIP3   OH235556   2.116   6.067  13.366  0.4339 -1.2702 -0.3559
 4714TIP3    H135557   2.126   6.107  13.452  0.1664  0.8145 -1.2366
 4714TIP3    H235558   2.205   6.042  13.341  0.4709 -2.2239  0.6269
 4715TIP3   OH235559   0.402   2.570  10.280 -0.2481 -0.0586 -0.5507
 4715TIP3    H135560   0.383   2.570  10.186  1.3908 -0.5450 -0.9171
 4715TIP3    H235561   0.496   2.556  10.285 -0.1668  0.8274  1.1514
 4716TIP3   OH235562   2.869   4.521  11.552 -0.1869 -0.0288  0.0241
 4716TIP3    H135563   2.942   4.583  11.549 -0.9659  0.8899 -1.3881
 4716TIP3    H235564   2.800   4.563  11.500 -1.2319 -1.4828  0.1767
 4717TIP3   OH235565   0.232   0.914  13.403  0.4602  0.0963  0.3360
 4717TIP3    H135566   0.158   0.926  13.344  0.2107 -0.6523  0.4801
 4717TIP3    H235567   0.195   0.927  13.490  0.5403 -0.0627  0.3951
 4718TIP3   OH235568   3.010   6.065   2.597  0.5225 -0.2764  0.4846
 4718TIP3    H135569   2.971   6.056   2.684 -0.0389  0.8602  0.3640
 4718TIP3    H235570   3.004   5.978   2.558 -0.7270 -0.4172  0.9645
 4719TIP3   OH235571   3.492   4.821  11.808  0.1023 -0.1314 -0.0966
 4719TIP3    H135572   3.560   4.832  11.874  1.2535  1.9168 -1.5366
 4719TIP3    H235573   3.539   4.800  11.728 -0.6557  3.0868 -1.5459
 4720TIP3   OH235574   4.005   5.952   9.405 -0.2080  0.2105  0.1017
 4720TIP3    H135575   4.057   5.951   9.324 -1.8301  1.8476 -1.0526
 4720TIP3    H235576   4.067   5.979   9.472  0.6667  1.2188 -1.0561
 4721TIP3   OH235577   0.791   6.867  11.325  0.3156  0.4785  0.0536
 4721TIP3    H135578   0.783   6.880  11.420  1.3014  0.6695  0.1247
 4721TIP3    H235579   0.751   6.945  11.287 -0.9481 -0.0373  0.2747
 4722TIP3   OH235580   6.255   0.441  14.507 -0.3151 -0.2254  0.1644
 4722TIP3    H135581   6.324   0.393  14.552  0.0634  1.3500  1.3674
 4722TIP3    H235582   6.178   0.384  14.513  0.1978 -0.8429  1.2214
 4723TIP3   OH235583   3.717   0.636  14.278  0.2322 -0.3173 -0.0156
 4723TIP3    H135584   3.748   0.671  14.362 -0.3693 -1.7803  0.8370
 4723TIP3    H235585   3.719   0.712  14.219 -1.8384  1.4185  1.9663
 4724TIP3   OH235586   1.541   4.274   0.290  0.4405  0.2954 -0.3872
 4724TIP3    H135587   1.479   4.342   0.265 -0.3849 -0.6487 -0.9598
 4724TIP3    H235588   1.588   4.252   0.210  1.3225  0.7905 -0.0215
 4725TIP3   OH235589   2.573   0.513   4.348  0.6965  0.5267 -0.8041
 4725TIP3    H135590   2.626   0.452   4.296  1.7091  0.3079  0.4265
 4725TIP3    H235591   2.623   0.525   4.429 -2.2268 -1.5815  1.5390
 4726TIP3   OH235592   3.415   0.059  12.513 -0.3977  0.0779 -0.3372
 4726TIP3    H135593   3.343  -0.003  12.519 -0.4416  0.2041  0.8107
 4726TIP3    H235594   3.493   0.009  12.540 -0.1730  0.1145 -0.9141
 4727TIP3   OH235595   1.493   0.703  13.190 -0.0299  0.1495  0.6104
 4727TIP3    H135596   1.467   0.611  13.183 -0.5810  0.3981 -0.8429
 4727TIP3    H235597   1.438   0.738  13.260  1.1198 -0.9146  2.1319
 4728TIP3   OH235598   4.068   3.570  13.875 -0.1699  0.2380 -0.2394
 4728TIP3    H135599   4.059   3.489  13.925  1.1200 -0.6555 -1.3982
 4728TIP3    H235600   4.146   3.612  13.911 -1.0971  1.2641  0.6855
 4729TIP3   OH235601   0.381   0.610   1.873  0.8401 -0.5068 -0.4635
 4729TIP3    H135602   0.401   0.650   1.788 -1.8458  1.1852 -0.4054
 4729TIP3    H235603   0.358   0.519   1.851  0.5862 -0.2145 -1.4982
 4730TIP3   OH235604   3.836   3.527  14.281 -0.0832 -0.4353  0.5156
 4730TIP3    H135605   3.835   3.477  14.362 -0.9263 -1.1409  0.0807
 4730TIP3    H235606   3.780   3.603  14.298 -0.5168 -0.7483  0.4939
 4731TIP3   OH235607   2.991   5.523   0.233 -0.1347 -0.2081  0.5319
 4731TIP3    H135608   2.944   5.532   0.316  0.2774 -1.2181  0.8921
 4731TIP3    H235609   3.077   5.488   0.257  0.1209 -0.1742 -0.2860
 4732TIP3   OH235610   6.849   2.356  10.898  0.2193  0.0747 -0.5933
 4732TIP3    H135611   6.767   2.404  10.883 -0.4697 -1.1542 -0.8731
 4732TIP3    H235612   6.871   2.374  10.989 -1.1204 -0.6800 -0.0918
 4733TIP3   OH235613   6.077   1.909  12.348  0.2630  0.1290  0.1514
 4733TIP3    H135614   6.048   1.991  12.388  1.4425  1.1295 -0.9786
 4733TIP3    H235615   6.007   1.847  12.368 -0.1556  1.1177  1.9391
 4734TIP3   OH235616   3.756   0.973  13.442  0.1421 -0.1938  0.8326
 4734TIP3    H135617   3.734   0.887  13.407 -1.2456  0.7263 -0.6796
 4734TIP3    H235618   3.682   0.995  13.498 -1.0027  1.2134 -1.1125
 4735TIP3   OH235619   0.450   3.450  10.250 -0.1405 -0.3830 -0.6280
 4735TIP3    H135620   0.541   3.420  10.253 -0.3066 -0.7864  1.7722
 4735TIP3    H235621   0.402   3.388  10.305 -1.6769  0.5173 -0.8928
 4736TIP3   OH235622   7.008   5.604  10.783  0.6314 -0.4070 -0.1689
 4736TIP3    H135623   7.017   5.615  10.688  0.9650  0.2459 -0.0712
 4736TIP3    H235624   7.098   5.599  10.815  0.5990  1.1863  0.2889
 4737TIP3   OH235625   6.419   1.755   0.947 -0.6159 -0.9521 -0.5790
 4737TIP3    H135626   6.493   1.697   0.966  2.9679  2.8277 -1.5540
 4737TIP3    H235627   6.394   1.733   0.857 -1.2786 -2.7787  0.0158
 4738TIP3   OH235628   5.057   5.393   3.142  0.1570 -0.3607  0.0824
 4738TIP3    H135629   5.111   5.325   3.182  0.4949  0.6043  1.3281
 4738TIP3    H235630   5.068   5.469   3.199 -3.4420 -0.4279  1.0990
 4739TIP3   OH235631   3.852   2.018  10.434 -0.1421  0.0328 -0.1492
 4739TIP3    H135632   3.880   2.037  10.344  4.8881  2.2697  1.5050
 4739TIP3    H235633   3.820   2.102  10.467  2.2745  0.5050  1.2501
 4740TIP3   OH235634   5.744   3.815  11.459  0.1208 -0.0802  0.2050
 4740TIP3    H135635   5.734   3.811  11.363 -0.7974 -1.3118  0.3243
 4740TIP3    H235636   5.656   3.832  11.491  0.1214 -1.2869  0.8926
 4741TIP3   OH235637   1.255   0.456   5.102 -0.2975  0.3580 -0.0905
 4741TIP3    H135638   1.264   0.468   5.196 -2.2767  2.4489 -0.0601
 4741TIP3    H235639   1.202   0.531   5.074  2.7864  1.6005 -3.3668
 4742TIP3   OH235640   5.410   3.273   0.367  0.0291  0.2332  0.3482
 4742TIP3    H135641   5.451   3.344   0.415  1.5173 -0.2549 -0.1347
 4742TIP3    H235642   5.399   3.203   0.432  2.8083 -0.7374 -0.0915
 4743TIP3   OH235643   1.922   1.923   9.436 -0.1869 -0.4638  0.4646
 4743TIP3    H135644   1.972   1.962   9.507  0.3253 -0.3366  0.0343
 4743TIP3    H235645   1.914   1.992   9.371 -0.7839 -0.5342  0.4519
 4744TIP3   OH235646   0.886   2.624   2.585  0.5913  0.3713  0.9605
 4744TIP3    H135647   0.818   2.557   2.582 -0.1490  1.1387  0.3135
 4744TIP3    H235648   0.949   2.597   2.518  0.3723  0.2475  0.8037
 4745TIP3   OH235649   0.088   5.546  10.141 -0.0277  0.3970  0.2106
 4745TIP3    H135650   0.110   5.524  10.231  1.5953  1.2884  0.0568
 4745TIP3    H235651  -0.008   5.544  10.139 -0.0580 -0.9831  1.5862
 4746TIP3   OH235652   1.936   1.654   9.694 -0.0579  0.4902 -0.3387
 4746TIP3    H135653   1.942   1.666   9.599 -2.0920 -1.4891 -0.8093
 4746TIP3    H235654   1.933   1.559   9.706 -1.1128  0.7198  1.5898
 4747TIP3   OH235655   0.120   5.097   9.625  0.1517 -0.7000  0.0787
 4747TIP3    H135656   0.154   5.172   9.675 -0.0468 -0.6689  0.1690
 4747TIP3    H235657   0.183   5.085   9.554 -0.0621 -0.1536 -0.2080
 4748TIP3   OH235658   6.824   7.193  11.134  0.4516 -0.1363 -0.4069
 4748TIP3    H135659   6.853   7.105  11.159 -1.1483 -0.7360 -0.5419
 4748TIP3    H235660   6.739   7.204  11.177  0.9439  1.6517  0.2014
 4749TIP3   OH235661   2.701   0.126  10.554 -0.0105  0.9906  0.3497
 4749TIP3    H135662   2.702   0.218  10.580  0.6086  0.5934  1.8202
 4749TIP3    H235663   2.792   0.098  10.559 -0.3130  0.0516  0.8782
 4750TIP3   OH235664   0.681   1.376  12.858  0.0723 -0.1923 -0.4934
 4750TIP3    H135665   0.721   1.461  12.837 -0.3047  0.7034  2.0473
 4750TIP3    H235666   0.754   1.315  12.860  0.6853  0.5338 -0.1949
 4751TIP3   OH235667   0.135   7.171   0.454 -0.1259  0.3833  0.3927
 4751TIP3    H135668   0.049   7.198   0.423 -0.0090 -1.7004 -2.0656
 4751TIP3    H235669   0.193   7.183   0.379  0.8622 -1.9028  0.6894
 4752TIP3   OH235670   1.611   2.282   2.947  1.0353  0.7756  0.1414
 4752TIP3    H135671   1.675   2.216   2.975  0.0167 -0.7473 -1.0001
 4752TIP3    H235672   1.580   2.320   3.029  1.5201 -0.2822  0.8475
 4753TIP3   OH235673   6.263   5.599  11.624  0.0723 -0.3942 -0.6347
 4753TIP3    H135674   6.244   5.554  11.706  0.4899 -1.2844 -1.0240
 4753TIP3    H235675   6.281   5.530  11.562  1.3200  0.3229 -1.0990
 4754TIP3   OH235676   1.268   4.210   0.656 -0.5115  0.0052  0.2000
 4754TIP3    H135677   1.275   4.262   0.576  3.3351  1.0108  0.9882
 4754TIP3    H235678   1.217   4.264   0.716  0.1791  1.1706 -0.2353
 4755TIP3   OH235679   3.544   2.965  11.768 -0.3744 -0.1302  0.3792
 4755TIP3    H135680   3.589   3.031  11.821  0.9615 -1.4884  1.0439
 4755TIP3    H235681   3.537   3.004  11.681  3.3500 -0.2472 -0.1342
 4756TIP3   OH235682   6.309   6.374  14.024  0.1973 -0.1585  0.4113
 4756TIP3    H135683   6.351   6.456  13.999 -0.3019 -0.0170  0.0207
 4756TIP3    H235684   6.217   6.385  13.997 -0.3174 -0.0913  2.1181
 4757TIP3   OH235685   7.191   1.817  15.168  0.2553 -0.3254 -0.2674
 4757TIP3    H135686   7.117   1.756  15.177  1.8709 -2.2677  0.6906
 4757TIP3    H235687   7.152   1.904  15.179 -1.9992 -1.2267 -0.6744
 4758TIP3   OH235688   5.605   3.087  13.717 -0.2978  0.0767 -0.1928
 4758TIP3    H135689   5.550   3.164  13.723  0.9326  1.0102 -0.5511
 4758TIP3    H235690   5.589   3.040  13.799  0.1297  1.5432  0.7676
 4759TIP3   OH235691   5.188   6.307  13.072  0.1232  0.4272 -0.5203
 4759TIP3    H135692   5.109   6.280  13.025 -0.9087  2.0774  0.1693
 4759TIP3    H235693   5.211   6.392  13.035  1.8396 -0.1953 -0.9663
 4760TIP3   OH235694   3.774   1.561  14.303  0.1337 -0.5642  0.1573
 4760TIP3    H135695   3.681   1.540  14.296 -0.2516  0.7927  0.8041
 4760TIP3    H235696   3.807   1.504  14.372 -0.3894 -0.5591  0.4152
 4761TIP3   OH235697   6.797   5.846  11.384  0.3460  0.3677  0.3007
 4761TIP3    H135698   6.702   5.844  11.383  0.3014  1.6368  0.8364
 4761TIP3    H235699   6.823   5.823  11.295 -0.4770  0.7279 -0.0352
 4762TIP3   OH235700   5.746   0.056  14.755  0.9046 -0.0408  0.2483
 4762TIP3    H135701   5.687  -0.006  14.799  0.1042 -0.5749 -1.4820
 4762TIP3    H235702   5.709   0.142  14.774 -0.0873 -0.3301 -0.2717
 4763TIP3   OH235703   6.585   0.501  13.343 -0.1573 -0.1594 -0.6587
 4763TIP3    H135704   6.582   0.578  13.401  0.8132  0.6848 -1.6933
 4763TIP3    H235705   6.645   0.441  13.387 -0.0852  0.1178 -0.3690
 4764TIP3   OH235706   3.268   4.981  12.252  0.1880 -0.3005 -0.6064
 4764TIP3    H135707   3.224   5.036  12.188 -0.2449  1.5731  1.1896
 4764TIP3    H235708   3.198   4.945  12.306  0.5108 -2.2349 -1.4038
 4765TIP3   OH235709   4.404   3.713  15.045 -0.6689 -0.0318 -0.6139
 4765TIP3    H135710   4.476   3.654  15.071 -1.0193 -0.6628 -1.0510
 4765TIP3    H235711   4.344   3.711  15.119  0.4310  1.6357  0.3846
 4766TIP3   OH235712   6.751   0.441   0.321 -0.1090  0.1012 -0.1318
 4766TIP3    H135713   6.707   0.526   0.325 -2.5317 -1.1103  1.2477
 4766TIP3    H235714   6.747   0.415   0.229 -2.6416 -0.0865 -0.0153
 4767TIP3   OH235715   0.513   5.119   0.410  0.3993  0.7135 -0.0199
 4767TIP3    H135716   0.435   5.100   0.462  0.3216  2.0488  0.3957
 4767TIP3    H235717   0.561   5.036   0.408 -1.4524 -0.3969 -1.0872
 4768TIP3   OH235718   1.475   1.909  11.381  0.1769 -0.1437  0.4565
 4768TIP3    H135719   1.406   1.919  11.448  0.1739  0.3948  0.3734
 4768TIP3    H235720   1.471   1.816  11.357 -0.0016 -0.2859  1.0124
 4769TIP3   OH235721   2.829   2.869  14.339 -0.5136  0.5457  0.3605
 4769TIP3    H135722   2.749   2.920  14.326 -0.9840 -0.1766  0.3456
 4769TIP3    H235723   2.875   2.913  14.410 -1.7349  0.0184  1.5172
 4770TIP3   OH235724   4.411   7.058  12.813  0.7832 -0.2922  0.0442
 4770TIP3    H135725   4.484   6.996  12.811  2.1551  1.2657 -0.3090
 4770TIP3    H235726   4.370   7.050  12.727  2.9205  1.4548 -1.2484
 4771TIP3   OH235727   5.253   5.697  12.563 -0.1314 -0.5287  0.1479
 4771TIP3    H135728   5.247   5.603  12.548  0.5614 -0.2897 -2.1946
 4771TIP3    H235729   5.209   5.736  12.487 -0.7061  1.0567  1.2353
 4772TIP3   OH235730   4.177   2.448  10.688 -1.3434 -0.1637  0.0567
 4772TIP3    H135731   4.232   2.474  10.762  0.0156  2.0923 -1.5941
 4772TIP3    H235732   4.091   2.483  10.707 -0.6418  1.7228 -0.0180
 4773TIP3   OH235733   6.357   1.651  13.023 -0.1869  0.6322 -0.5291
 4773TIP3    H135734   6.376   1.567  12.982 -1.5177 -1.6122  2.9917
 4773TIP3    H235735   6.443   1.686  13.048  0.3440 -2.2669  2.3676
 4774TIP3   OH235736   4.307   5.635  10.253 -0.4949 -0.1024 -0.2244
 4774TIP3    H135737   4.385   5.616  10.305  0.3379 -0.8088 -1.6773
 4774TIP3    H235738   4.324   5.720  10.214 -0.6350 -0.0717 -0.2182
 4775TIP3   OH235739   1.567   2.834  13.650 -0.5590 -0.4935 -0.1642
 4775TIP3    H135740   1.625   2.837  13.574  1.7443  0.9468  1.5280
 4775TIP3    H235741   1.624   2.814  13.724 -2.3206  0.4079  1.5389
 4776TIP3   OH235742   5.871   0.123   9.610 -0.0148 -0.5818 -0.0154
 4776TIP3    H135743   5.889   0.057   9.543 -3.5047  0.1108 -1.8945
 4776TIP3    H235744   5.952   0.173   9.617  1.6740 -2.9916 -0.9022
 4777TIP3   OH235745   2.945   1.799  11.767  0.4912 -0.1435 -0.0880
 4777TIP3    H135746   2.987   1.737  11.827 -1.2419 -0.4183  0.9300
 4777TIP3    H235747   2.868   1.829  11.814  0.7103  2.0198 -0.9965
 4778TIP3   OH235748   0.034   3.216  12.957  1.0217  0.2170  0.3533
 4778TIP3    H135749   0.020   3.284  12.891  0.3996  0.4293  0.6952
 4778TIP3    H235750   0.045   3.135  12.907 -0.4287  0.2091 -0.0048
 4779TIP3   OH235751   1.314   0.738  11.489 -0.0359  0.7507  0.4557
 4779TIP3    H135752   1.240   0.678  11.476 -1.1932  2.0570  0.7940
 4779TIP3    H235753   1.333   0.772  11.402 -1.7345  2.5406  0.7190
 4780TIP3   OH235754   5.059   3.587  14.652  0.7786 -0.2803  0.4106
 4780TIP3    H135755   4.974   3.585  14.697  1.2987 -1.0324  1.3763
 4780TIP3    H235756   5.046   3.532  14.575 -0.2061  1.2527 -0.5712
 4781TIP3   OH235757   0.909   6.124   1.883 -0.7100 -0.1773 -0.2809
 4781TIP3    H135758   0.837   6.094   1.827 -0.6837  0.2312 -0.5419
 4781TIP3    H235759   0.970   6.050   1.885 -1.5018 -0.8333  0.6041
 4782TIP3   OH235760   6.781   1.946   9.524  0.0504 -0.1728  0.4948
 4782TIP3    H135761   6.867   1.905   9.514  0.1849  0.4157 -1.1731
 4782TIP3    H235762   6.790   2.030   9.478 -1.5652 -0.3557 -0.2111
 4783TIP3   OH235763   1.473   0.147   0.246 -0.1325  0.7860 -0.3729
 4783TIP3    H135764   1.495   0.064   0.287  0.3117  0.7668 -0.6511
 4783TIP3    H235765   1.462   0.208   0.319  0.6598  0.7557 -0.2290
 4784TIP3   OH235766   1.310   6.238  11.870  0.0244 -0.1404 -0.1566
 4784TIP3    H135767   1.288   6.145  11.870 -0.1642 -0.0963 -0.7825
 4784TIP3    H235768   1.400   6.242  11.838  0.8088 -0.2696  1.8464
 4785TIP3   OH235769   6.287   7.050  14.100  0.4489 -0.0171 -0.3157
 4785TIP3    H135770   6.227   7.016  14.166  0.9921 -0.3030  0.0346
 4785TIP3    H235771   6.241   7.038  14.017 -0.5533  1.0250  0.0685
 4786TIP3   OH235772   4.563   5.135  11.004  0.1719  0.5623  0.2010
 4786TIP3    H135773   4.531   5.168  10.920 -0.6079  1.0998  0.6977
 4786TIP3    H235774   4.487   5.093  11.044  0.6040  0.0792  0.5255
 4787TIP3   OH235775   2.916   5.827  13.507  0.0240  0.1067  0.0010
 4787TIP3    H135776   2.898   5.907  13.557 -2.6278  0.2787 -1.0871
 4787TIP3    H235777   2.914   5.855  13.415  1.5111 -0.8115 -0.3488
 4788TIP3   OH235778   1.343   2.175  10.190 -0.0139  0.0532  0.2659
 4788TIP3    H135779   1.277   2.174  10.121  0.0689  1.3862  0.1286
 4788TIP3    H235780   1.308   2.236  10.255  1.3050  1.2312 -0.0740
 4789TIP3   OH235781   6.369   0.870  11.609 -0.2581  0.2020  0.4139
 4789TIP3    H135782   6.422   0.791  11.618 -2.6558 -1.7822 -1.3768
 4789TIP3    H235783   6.399   0.928  11.678  1.3121 -2.4681  2.1167
 4790TIP3   OH235784   6.274   3.303  10.306 -0.2512 -0.3163  0.3592
 4790TIP3    H135785   6.289   3.394  10.281  0.1382 -0.6958 -0.8783
 4790TIP3    H235786   6.285   3.301  10.401  2.3567  0.4288  0.1287
 4791TIP3   OH235787   5.848   0.293  13.648  0.2732 -0.7741 -0.0891
 4791TIP3    H135788   5.907   0.339  13.708  0.4366 -0.6471 -0.3450
 4791TIP3    H235789   5.856   0.341  13.565 -2.0675  0.8107  0.4969
 4792TIP3   OH235790   5.424   5.101  12.861  0.2265 -0.0618  0.5827
 4792TIP3    H135791   5.376   5.075  12.782  0.2106  1.5878 -0.0154
 4792TIP3    H235792   5.463   5.021  12.894 -0.6850 -0.9750 -0.4897
 4793TIP3   OH235793   0.822   4.356  14.129 -0.3229 -0.4762 -0.2931
 4793TIP3    H135794   0.841   4.412  14.205 -0.0857 -1.4326  0.3665
 4793TIP3    H235795   0.843   4.268  14.159  1.8735 -0.6596 -2.1742
 4794TIP3   OH235796   4.562   4.847  11.687 -0.3268  0.0971  0.9799
 4794TIP3    H135797   4.556   4.865  11.593 -0.4109 -0.6987  0.8267
 4794TIP3    H235798   4.643   4.797  11.697  0.4346  1.3687  1.5350
 4795TIP3   OH235799   3.012   2.579  13.753  0.1388  0.4191  0.5452
 4795TIP3    H135800   2.976   2.587  13.841  0.7891  0.8963  0.7817
 4795TIP3    H235801   3.020   2.485  13.739  0.5586  0.3409  1.2271
 4796TIP3   OH235802   7.141   4.910  11.772  0.5016  0.2402  0.0585
 4796TIP3    H135803   7.061   4.863  11.750  0.4904  0.2813  0.0097
 4796TIP3    H235804   7.211   4.845  11.762  0.6271  0.5300 -1.1915
 4797TIP3   OH235805   4.227   6.743  11.078 -0.5143  0.6131  0.2696
 4797TIP3    H135806   4.240   6.672  11.015 -0.6063 -0.5246  1.5073
 4797TIP3    H235807   4.280   6.816  11.043 -0.1085 -0.1764 -0.8107
 4798TIP3   OH235808   6.215   3.777  13.810  0.0770  0.1364  0.4458
 4798TIP3    H135809   6.295   3.825  13.788  2.0022 -2.6568  0.7677
 4798TIP3    H235810   6.219   3.766  13.905 -0.3769 -0.5089  0.3989
 4799TIP3   OH235811   7.063   5.035  10.419 -0.4840  0.0129  0.4854
 4799TIP3    H135812   7.095   5.126  10.413 -3.2072  0.9994 -0.7104
 4799TIP3    H235813   7.137   4.982  10.390 -0.0609  2.1672 -2.8746
 4800TIP3   OH235814   4.200   6.023   9.626 -0.1436 -0.0508  0.2570
 4800TIP3    H135815   4.221   5.931   9.646  0.4036  0.5855  3.0364
 4800TIP3    H235816   4.284   6.061   9.600  0.6453  0.5637  3.3037
 4801TIP3   OH235817   4.738   3.546  10.277  0.0799 -0.4289 -0.6875
 4801TIP3    H135818   4.646   3.528  10.297 -0.1359 -0.1815 -1.4248
 4801TIP3    H235819   4.744   3.537  10.182  1.1860 -2.0396 -0.4925
 4802TIP3   OH235820   5.364   5.252  10.866  0.3084  0.2207  0.0283
 4802TIP3    H135821   5.456   5.230  10.851 -0.0381 -0.8325 -0.6404
 4802TIP3    H235822   5.346   5.324  10.806  1.1793  1.7537  1.5123
 4803TIP3   OH235823   1.226   2.262  13.967  0.3091 -0.1463 -0.1867
 4803TIP3    H135824   1.278   2.226  13.895  0.3315 -0.2867 -0.1004
 4803TIP3    H235825   1.158   2.314  13.923 -0.7411 -1.6317 -0.4035
 4804TIP3   OH235826   5.002   2.361  11.833  0.1011 -0.1799  0.2468
 4804TIP3    H135827   4.925   2.408  11.866 -0.2153 -0.4618 -0.0790
 4804TIP3    H235828   4.966   2.291  11.779  0.5444 -1.3057  1.3808
 4805TIP3   OH235829   2.240   2.699   9.875  0.1435  0.2431 -0.1751
 4805TIP3    H135830   2.191   2.773   9.911  2.5933  2.3259 -0.8246
 4805TIP3    H235831   2.262   2.725   9.786 -0.8074 -2.2936 -1.2419
 4806TIP3   OH235832   4.403   3.429  13.284  0.0565  0.0077  0.9000
 4806TIP3    H135833   4.454   3.473  13.352  0.2468  1.6084 -0.2278
 4806TIP3    H235834   4.312   3.446  13.307  0.0688 -0.7523  1.5591
 4807TIP3   OH235835   0.382   3.516  10.662  0.0709  0.2043 -0.0395
 4807TIP3    H135836   0.287   3.513  10.669  0.1527 -0.2565  1.0110
 4807TIP3    H235837   0.405   3.439  10.610  0.0129 -1.0546  1.7091
 4808TIP3   OH235838   1.203   1.263   0.006 -0.3020  0.0675  0.0598
 4808TIP3    H135839   1.182   1.344  -0.040  1.4812 -0.2719 -1.4997
 4808TIP3    H235840   1.129   1.205  -0.013 -1.5212  1.2586  1.0761
 4809TIP3   OH235841   5.688   5.873  13.995  0.1094 -0.1687  0.5614
 4809TIP3    H135842   5.755   5.838  14.054  1.7376 -1.8371 -2.0245
 4809TIP3    H235843   5.605   5.845  14.032  1.1595 -2.9124  1.0777
 4810TIP3   OH235844   1.313   4.580  12.927  0.4230 -0.5854 -0.6073
 4810TIP3    H135845   1.298   4.672  12.906  2.9998  0.3062  0.9648
 4810TIP3    H235846   1.319   4.536  12.843 -2.5274  0.3089 -1.3825
 4811TIP3   OH235847   4.098   0.234  12.413  0.2128  0.0700 -0.0220
 4811TIP3    H135848   4.010   0.241  12.449  0.0759 -0.0888 -0.3213
 4811TIP3    H235849   4.099   0.149  12.370  1.1258 -0.7989  1.6239
 4812TIP3   OH235850   3.748   6.775   0.566 -0.5699 -1.0380  0.0962
 4812TIP3    H135851   3.715   6.761   0.654  0.7829 -0.6410  0.6997
 4812TIP3    H235852   3.694   6.846   0.531 -2.1298 -2.2140  0.0004
 4813TIP3   OH235853   3.531   0.523  11.735 -0.2980  0.0904  0.1837
 4813TIP3    H135854   3.546   0.527  11.641 -0.3132  1.7156  0.2288
 4813TIP3    H235855   3.456   0.581  11.750 -0.7693 -0.7237  1.1068
 4814TIP3   OH235856   3.989   6.390  11.265 -0.1981 -0.4574 -0.0473
 4814TIP3    H135857   3.963   6.461  11.206  0.8507 -0.3319 -0.3805
 4814TIP3    H235858   4.000   6.432  11.350  2.2711  0.2076 -0.6250
 4815TIP3   OH235859   0.879   5.031  10.198 -0.9908  0.1377 -0.0453
 4815TIP3    H135860   0.830   4.999  10.122  0.0941  0.6645 -1.0017
 4815TIP3    H235861   0.919   4.953  10.236  0.8013  0.1224 -1.7565
 4816TIP3   OH235862   4.251   3.206  14.814  0.1424  0.0733 -0.6138
 4816TIP3    H135863   4.343   3.231  14.802 -0.3550  1.0553 -2.9975
 4816TIP3    H235864   4.244   3.120  14.773 -0.3435  0.8105 -2.1393
 4817TIP3   OH235865   1.967   0.122  10.832  0.0657  0.2186 -0.7240
 4817TIP3    H135866   2.014   0.206  10.828 -0.3324  0.4410 -0.8519
 4817TIP3    H235867   1.994   0.083  10.915 -1.1661  1.3397  0.2690
 4818TIP3   OH235868   1.777   6.713   9.739  0.5936  0.7046  0.7880
 4818TIP3    H135869   1.859   6.663   9.734 -0.6241 -1.6339  2.2981
 4818TIP3    H235870   1.805   6.805   9.737  3.2000  0.0034  0.7827
 4819TIP3   OH235871   0.179   1.224  11.986  0.1626 -0.2059  0.2381
 4819TIP3    H135872   0.202   1.140  12.026  0.9901 -0.3564 -0.5213
 4819TIP3    H235873   0.231   1.227  11.906 -1.6139 -0.0168 -0.9521
 4820TIP3   OH235874   4.426   3.358  11.717  0.0016  0.3972 -0.3565
 4820TIP3    H135875   4.434   3.269  11.684  2.2659 -0.8452  3.0293
 4820TIP3    H235876   4.351   3.356  11.776  0.3364  0.5905  0.0836
 4821TIP3   OH235877   4.752   1.649   9.958  0.1577 -0.4977 -0.2682
 4821TIP3    H135878   4.675   1.662  10.014  0.6932 -1.0818  0.6244
 4821TIP3    H235879   4.782   1.738   9.938 -0.8187 -0.2583 -0.7444
 4822TIP3   OH235880   6.118   2.459  11.003  0.3445  0.0375 -0.1304
 4822TIP3    H135881   6.180   2.407  10.951 -0.2438 -0.4863 -0.3127
 4822TIP3    H235882   6.152   2.455  11.092 -0.4164 -1.8186  0.1305
 4823TIP3   OH235883   6.992   1.061  10.341 -0.2007  0.5051 -0.9110
 4823TIP3    H135884   7.016   1.043  10.250  0.0326  1.3023 -1.0192
 4823TIP3    H235885   6.897   1.059  10.342 -0.2279  1.2459 -1.3445
 4824TIP3   OH235886   1.493   4.149   2.698  0.6937 -0.0653  0.8902
 4824TIP3    H135887   1.442   4.095   2.638  2.2000 -0.4033 -0.1557
 4824TIP3    H235888   1.575   4.101   2.710  0.8748  0.5480  2.3545
 4825TIP3   OH235889   7.081   3.054   4.034  0.8976  0.1766  0.7733
 4825TIP3    H135890   7.015   3.050   4.104 -1.1989 -1.4848 -1.1614
 4825TIP3    H235891   7.086   3.147   4.011 -1.8293  0.2336  0.0948
 4826TIP3   OH235892   1.925   1.547  11.029 -0.0156 -0.1788 -0.0421
 4826TIP3    H135893   1.837   1.537  10.992  0.2973 -0.8598 -0.6228
 4826TIP3    H235894   1.911   1.560  11.122 -0.7294 -0.4333 -0.1115
 4827TIP3   OH235895   0.733   6.714   9.503 -0.0818  0.1315 -0.1795
 4827TIP3    H135896   0.748   6.639   9.446  0.4067  0.5497 -0.6088
 4827TIP3    H235897   0.759   6.684   9.590 -1.1498 -0.6177 -0.0982
 4828TIP3   OH235898   6.469   3.304  12.396 -0.1784 -0.2219  0.1033
 4828TIP3    H135899   6.437   3.279  12.309  0.0302  0.3265 -0.1417
 4828TIP3    H235900   6.553   3.348  12.378  0.3989 -1.0642  0.6735
 4829TIP3   OH235901   1.625   1.542  12.510 -0.0176 -0.6518 -0.1783
 4829TIP3    H135902   1.653   1.535  12.601 -1.2698 -1.6398  0.1554
 4829TIP3    H235903   1.705   1.558  12.461  0.7121 -0.4118  1.0580
 4830TIP3   OH235904   2.333   1.816  13.352  0.3916  0.2045  0.1446
 4830TIP3    H135905   2.351   1.871  13.428  1.8014 -0.2057  0.1427
 4830TIP3    H235906   2.361   1.868  13.277 -0.0507  0.2189 -0.0110
 4831TIP3   OH235907   5.261   5.114  12.569  0.0320  0.1516  0.2414
 4831TIP3    H135908   5.214   5.031  12.557 -1.3689  1.1087 -1.3882
 4831TIP3    H235909   5.327   5.115  12.500 -0.3297  0.6057 -0.1115
 4832TIP3   OH235910   0.379   3.087  14.489 -0.1717  0.5458  0.1521
 4832TIP3    H135911   0.304   3.052  14.537 -0.4786  1.9234  0.7167
 4832TIP3    H235912   0.385   3.178  14.517  1.3347  0.6327 -0.3581
 4833TIP3   OH235913   7.211   4.606  12.528  0.5364  0.3820 -0.0457
 4833TIP3    H135914   7.129   4.584  12.572  0.7517  1.3997  0.9265
 4833TIP3    H235915   7.193   4.595  12.435 -0.2668 -0.7587  0.2225
 4834TIP3   OH235916   5.304   3.184  12.931  0.0910  0.6010  0.8746
 4834TIP3    H135917   5.352   3.267  12.934 -0.2690  0.8445  0.1231
 4834TIP3    H235918   5.213   3.209  12.914  0.1248  0.0110 -0.2635
 4835TIP3   OH235919   1.952   2.035  10.551 -0.0372 -0.1733 -0.2028
 4835TIP3    H135920   2.027   1.976  10.539 -1.8716 -2.5157 -0.8580
 4835TIP3    H235921   1.976   2.088  10.627  2.5190 -0.3991 -0.7539
 4836TIP3   OH235922   0.853   6.318  13.121 -0.9174 -0.1681  0.2417
 4836TIP3    H135923   0.839   6.324  13.027  0.2108 -1.2526 -0.0204
 4836TIP3    H235924   0.769   6.287  13.156 -0.5647 -2.4171 -0.7499
 4837TIP3   OH235925   4.921   3.227  12.932  0.2145  0.1260  0.5178
 4837TIP3    H135926   4.883   3.275  12.859 -1.3948 -0.4940  0.8952
 4837TIP3    H235927   4.912   3.286  13.007  1.0591  0.4210  0.3923
 4838TIP3   OH235928   1.971   4.583   1.342 -0.3385 -0.0308  0.7341
 4838TIP3    H135929   2.022   4.662   1.324 -1.2465  0.6203  0.9452
 4838TIP3    H235930   1.929   4.600   1.426  0.4719 -1.2781  1.4101
 4839TIP3   OH235931   0.329   0.687   0.205  0.7953 -0.4113 -0.0629
 4839TIP3    H135932   0.399   0.625   0.186  2.9369  1.5964  0.8139
 4839TIP3    H235933   0.374   0.768   0.228 -1.8439  1.0432  0.3831
 4840TIP3   OH235934   5.470   4.388  12.003  0.0970 -0.1343 -0.1119
 4840TIP3    H135935   5.420   4.468  11.987  1.3335  0.7624  0.3961
 4840TIP3    H235936   5.533   4.385  11.931  0.9339  0.0720  0.6043
 4841TIP3   OH235937   5.914   6.131  13.459 -0.0848 -0.3111 -0.5420
 4841TIP3    H135938   5.894   6.129  13.365 -2.7205 -0.1785 -0.0552
 4841TIP3    H235939   5.839   6.089  13.500  0.8293  0.0024  1.5501
 4842TIP3   OH235940   5.181   1.114   9.756  0.2168  0.2043 -0.9876
 4842TIP3    H135941   5.111   1.118   9.822  0.4980  1.6556 -0.7529
 4842TIP3    H235942   5.174   1.026   9.720 -1.5485  0.2141 -0.7625
 4843TIP3   OH235943   6.516   6.839  13.637 -0.3599  0.5058 -0.0561
 4843TIP3    H135944   6.494   6.749  13.613 -1.7286  0.3174  1.6768
 4843TIP3    H235945   6.587   6.831  13.700  1.2051  0.8282 -1.7029
 4844TIP3   OH235946   3.424   2.965   9.744  0.2906  0.2903  0.1185
 4844TIP3    H135947   3.456   2.888   9.695 -0.3971 -0.7493  1.2423
 4844TIP3    H235948   3.457   3.040   9.695 -1.5605 -0.6281 -2.8190
 4845TIP3   OH235949   5.740   5.037  11.567  0.9168  0.8174  0.1914
 4845TIP3    H135950   5.682   4.974  11.523  2.4764 -0.4988 -0.0840
 4845TIP3    H235951   5.694   5.058  11.648  0.9314 -1.8118  0.9718
 4846TIP3   OH235952   3.152   1.272  11.893 -0.1712 -0.6024  0.3128
 4846TIP3    H135953   3.243   1.296  11.913 -0.4992  0.7400  0.2878
 4846TIP3    H235954   3.151   1.261  11.797  0.0428 -1.0350  0.3547
 4847TIP3   OH235955   2.907   5.011  14.780 -0.1218  0.5398 -0.2158
 4847TIP3    H135956   2.996   4.999  14.813  0.0531  0.3304 -0.7571
 4847TIP3    H235957   2.915   5.001  14.685 -0.7462  0.3828 -0.2560
 4848TIP3   OH235958   6.499   2.846   1.044  0.0480  0.3774  0.0632
 4848TIP3    H135959   6.453   2.874   1.123  0.5497 -0.5220  0.6986
 4848TIP3    H235960   6.542   2.764   1.069  3.7151  2.1384  0.1933
 4849TIP3   OH235961   1.611   4.791  11.804  0.2532  0.0594  0.6869
 4849TIP3    H135962   1.570   4.833  11.728 -0.6074 -1.2995  0.3512
 4849TIP3    H235963   1.653   4.862  11.852 -0.3941  1.1471 -0.3144
 4850TIP3   OH235964   2.795   1.350  11.323 -0.1820  0.5214  0.2180
 4850TIP3    H135965   2.862   1.417  11.314 -0.2901  0.4671 -1.1162
 4850TIP3    H235966   2.719   1.396  11.358  0.2089  0.7929  0.7130
 4851TIP3   OH235967   0.088   3.273  10.863  0.1899 -0.2179  0.5458
 4851TIP3    H135968   0.043   3.304  10.784 -0.8313 -0.5717  0.9826
 4851TIP3    H235969   0.085   3.177  10.856 -1.1964 -0.2921  1.7066
 4852TIP3   OH235970   3.515   0.479  10.526 -0.0316 -0.3038 -0.0833
 4852TIP3    H135971   3.494   0.468  10.433  0.8976  0.4355 -0.3970
 4852TIP3    H235972   3.610   0.487  10.528 -0.1028  0.5049  0.8425
 4853TIP3   OH235973   6.525   4.565   0.245 -0.2486 -0.5650  0.2556
 4853TIP3    H135974   6.492   4.475   0.238 -0.6109 -0.8518  3.6573
 4853TIP3    H235975   6.620   4.556   0.242 -0.3014 -0.7400 -1.6575
 4854TIP3   OH235976   6.001   5.820  10.086  0.1991  0.1387 -0.0061
 4854TIP3    H135977   6.013   5.912  10.063 -0.1918 -0.0235 -0.8967
 4854TIP3    H235978   5.948   5.784  10.015  0.8909 -0.9215 -0.0092
 4855TIP3   OH235979   6.440   0.965   0.089 -0.7636  0.0098 -0.7097
 4855TIP3    H135980   6.515   0.927   0.042 -0.7269  0.5505 -1.0926
 4855TIP3    H235981   6.400   1.025   0.027  0.2150  1.9414  0.4526
 4856TIP3   OH235982   7.014   1.703   0.590 -0.0190  0.4251  0.6168
 4856TIP3    H135983   6.942   1.733   0.535  0.0655  1.9863  1.2951
 4856TIP3    H235984   7.018   1.609   0.576 -2.4000  0.2496  0.8007
 4857TIP3   OH235985   6.472   7.040   9.796 -0.1465  0.2598  0.2949
 4857TIP3    H135986   6.391   6.998   9.824 -0.8293  1.6734  0.4799
 4857TIP3    H235987   6.502   7.088   9.873  0.6709  0.0683  0.1063
 4858TIP3   OH235988   0.619   1.533   1.358 -0.2380 -0.6652 -0.3186
 4858TIP3    H135989   0.527   1.509   1.371 -0.4334  0.8142  1.4079
 4858TIP3    H235990   0.616   1.626   1.333  0.8518  0.3189  2.8089
 4859TIP3   OH235991   5.705   6.619  14.932  0.3927  0.0918  0.3744
 4859TIP3    H135992   5.784   6.663  14.964 -0.2069  1.0633  0.5565
 4859TIP3    H235993   5.738   6.554  14.870  1.4037 -0.2266  1.2227
 4860TIP3   OH235994   6.717   3.751   1.417  0.6053  0.1564  0.0778
 4860TIP3    H135995   6.754   3.673   1.458 -0.8637 -1.6184 -1.7445
 4860TIP3    H235996   6.780   3.774   1.348  0.2962 -0.3839 -0.3904
 4861TIP3   OH235997   1.871   4.151  14.650 -0.0271 -0.4449  0.5566
 4861TIP3    H135998   1.820   4.087  14.601  0.8888 -0.8695  0.1562
 4861TIP3    H235999   1.945   4.173  14.593  0.0308  0.4787  0.9599
 4862TIP3   OH236000   1.983   1.528  11.888 -0.4489  0.0727  0.3389
 4862TIP3    H136001   2.045   1.600  11.903  0.3636 -0.4883 -0.2304
 4862TIP3    H236002   1.897   1.568  11.901  0.0178  0.8964  1.0374
 4863TIP3   OH236003   2.894   3.593  12.294  0.2581 -0.3173  0.0052
 4863TIP3    H136004   2.966   3.628  12.347  0.1026  0.0256 -0.0101
 4863TIP3    H236005   2.912   3.624  12.206  1.6138 -2.5283 -0.5676
 4864TIP3   OH236006   1.472   3.371  11.132 -0.2434  0.9256 -0.2005
 4864TIP3    H136007   1.391   3.419  11.148 -0.6536  0.1258  0.1837
 4864TIP3    H236008   1.467   3.344  11.041 -1.2219 -0.5747  0.2660
 4865TIP3   OH236009   5.861   0.909   0.529 -0.0031  0.5386  0.1964
 4865TIP3    H136010   5.879   0.849   0.602  2.8367  0.2062 -0.6514
 4865TIP3    H236011   5.925   0.980   0.540 -2.0915  2.5360  0.1379
 4866TIP3   OH236012   4.296   1.716  14.181 -0.5367 -0.2994 -0.0263
 4866TIP3    H136013   4.320   1.630  14.148 -2.2642 -0.3708 -1.2258
 4866TIP3    H236014   4.342   1.778  14.123 -1.6327 -0.4387 -1.0900
 4867TIP3   OH236015   5.177   1.358   9.957 -0.2299 -0.4087 -0.7802
 4867TIP3    H136016   5.136   1.272   9.941 -2.5694  0.6338 -0.8761
 4867TIP3    H236017   5.109   1.421   9.934  1.1588  1.4763  0.0381
 4868TIP3   OH236018   4.282   3.028  14.630 -0.0915 -0.3988  0.4086
 4868TIP3    H136019   4.360   2.987  14.591 -0.8987 -0.0198 -1.7593
 4868TIP3    H236020   4.214   2.960  14.622 -0.3577 -0.1841  0.8592
 4869TIP3   OH236021   2.406   5.857  10.192  0.2915  0.1986  0.0853
 4869TIP3    H136022   2.330   5.836  10.137  0.7226 -1.1087 -0.0595
 4869TIP3    H236023   2.378   5.932  10.244 -0.3782  1.0280 -1.4060
 4870TIP3   OH236024   6.783   6.026  10.214 -0.7202  0.5206  0.2602
 4870TIP3    H136025   6.779   6.094  10.146 -0.6540  0.9212  0.6564
 4870TIP3    H236026   6.708   6.044  10.270 -1.3565 -0.4138 -0.2660
 4871TIP3   OH236027   3.387   5.836   1.571 -0.0002  0.5705 -0.5507
 4871TIP3    H136028   3.359   5.756   1.526 -1.6171 -0.2845  1.7580
 4871TIP3    H236029   3.322   5.901   1.545 -0.0814  0.4824 -0.5706
 4872TIP3   OH236030   2.363   2.748   2.995 -0.1344  0.9330  0.7811
 4872TIP3    H136031   2.334   2.834   3.027 -2.5005  0.2974  0.5154
 4872TIP3    H236032   2.370   2.760   2.900 -2.5358  0.3610  0.4682
 4873TIP3   OH236033   2.583   6.230  10.618 -0.3588  0.5672 -0.0319
 4873TIP3    H136034   2.642   6.303  10.638  0.2042 -0.0262  0.5152
 4873TIP3    H236035   2.506   6.246  10.672 -0.5780  1.1739 -0.5086
 4874TIP3   OH236036   0.244   2.310  12.329 -0.0560  0.5671  0.1150
 4874TIP3    H136037   0.191   2.238  12.365 -0.4382  0.2124 -1.0861
 4874TIP3    H236038   0.323   2.312  12.383 -0.3496 -0.3164  0.5920
 4875TIP3   OH236039   4.710   1.761   9.620  0.2980 -0.4211  0.3639
 4875TIP3    H136040   4.793   1.727   9.590  0.8382  1.0906  0.0397
 4875TIP3    H236041   4.732   1.818   9.694 -0.1687  1.5661 -0.9467
 4876TIP3   OH236042   5.134   4.695  10.836  1.2125  0.5873 -0.2044
 4876TIP3    H136043   5.058   4.637  10.832 -0.1136  2.2382  0.3046
 4876TIP3    H236044   5.199   4.652  10.781 -0.5820 -0.1363 -1.8870
 4877TIP3   OH236045   2.241   2.366  12.457 -0.6144 -0.3748 -0.0056
 4877TIP3    H136046   2.201   2.301  12.400  0.0723  0.7277 -1.8203
 4877TIP3    H236047   2.167   2.403  12.506 -1.5280 -0.0421 -1.5489
 4878TIP3   OH236048   1.426   6.745   1.105 -0.0023  0.4520 -0.0360
 4878TIP3    H136049   1.440   6.650   1.098 -1.9975  0.0830  0.4954
 4878TIP3    H236050   1.452   6.766   1.195  0.4649  0.4274 -0.1613
 4879TIP3   OH236051   2.585   4.916  12.385  0.6448  0.2030 -0.7297
 4879TIP3    H136052   2.498   4.932  12.348  0.6348  0.2331 -0.6931
 4879TIP3    H236053   2.586   4.823  12.406  1.5562 -0.4374 -3.2021
 4880TIP3   OH236054   1.222   0.029  11.766  0.2011  0.1642  0.0400
 4880TIP3    H136055   1.289   0.084  11.808 -0.8650 -0.5140  2.8935
 4880TIP3    H236056   1.143   0.044  11.817 -1.1890 -0.9739 -1.6500
 4881TIP3   OH236057   1.519   2.370   1.604  0.1578 -0.3313 -0.0504
 4881TIP3    H136058   1.530   2.411   1.518  1.2048 -0.2394  0.1156
 4881TIP3    H236059   1.600   2.390   1.650  0.9638 -3.0479 -0.1521
 4882TIP3   OH236060   0.115   6.570   0.252  0.0817 -0.5461  0.4450
 4882TIP3    H136061   0.029   6.547   0.286 -0.5047  1.2291  0.2336
 4882TIP3    H236062   0.111   6.664   0.236  2.1101 -0.3790  0.5797
 4883TIP3   OH236063   1.937   3.654  13.722 -0.6101  0.1802 -0.0869
 4883TIP3    H136064   1.955   3.560  13.720  0.6578  0.3689  0.9956
 4883TIP3    H236065   2.008   3.692  13.670 -0.1492  0.6437  0.8527
 4884TIP3   OH236066   4.318   2.469   2.017 -0.5429  0.6978 -0.2210
 4884TIP3    H136067   4.324   2.535   2.086 -1.5870 -0.7104  1.3047
 4884TIP3    H236068   4.373   2.397   2.049 -1.7227 -0.3209 -0.3969
 4885TIP3   OH236069   4.482   1.999  13.214 -0.4405 -0.4009 -0.2928
 4885TIP3    H136070   4.567   2.042  13.201  0.2636 -1.5160  0.4668
 4885TIP3    H236071   4.437   2.010  13.130 -0.4936  2.1706 -0.0283
 4886TIP3   OH236072   1.209   5.345  10.737  0.0120  0.1086 -0.0867
 4886TIP3    H136073   1.204   5.256  10.773 -0.1325  0.1003 -0.1295
 4886TIP3    H236074   1.226   5.332  10.644  1.4286  0.1325  0.1364
 4887TIP3   OH236075   4.676   4.458  11.480  0.0397  0.0006  0.3001
 4887TIP3    H136076   4.650   4.494  11.395 -1.0805  1.1475  1.0786
 4887TIP3    H236077   4.763   4.495  11.496 -0.7081  1.7274  0.6692
 4888TIP3   OH236078   5.051   0.365  13.274  0.1961  0.7864  0.2813
 4888TIP3    H136079   5.114   0.416  13.326  0.3447 -0.2899  1.1828
 4888TIP3    H236080   5.101   0.288  13.245 -0.4769  0.3394  0.3027
 4889TIP3   OH236081   3.528   5.383  12.219 -0.0548 -0.2141 -0.7015
 4889TIP3    H136082   3.580   5.374  12.139 -1.5223  1.1828 -1.8932
 4889TIP3    H236083   3.438   5.364  12.192 -0.4594 -0.7081  0.8706
 4890TIP3   OH236084   3.924   1.785  12.411  0.3095 -0.1137  0.9695
 4890TIP3    H136085   3.981   1.739  12.473 -0.0348  0.3461  1.6448
 4890TIP3    H236086   3.953   1.756  12.325 -0.2418 -2.0126  1.3736
 4891TIP3   OH236087   3.711   5.731   0.775 -0.3954 -0.4414 -0.0754
 4891TIP3    H136088   3.740   5.753   0.686 -0.2725 -1.2512 -0.2458
 4891TIP3    H236089   3.622   5.765   0.780  0.1895  1.1540  0.0976
 4892TIP3   OH236090   6.819   5.436  13.392  0.1085 -0.3529  0.3988
 4892TIP3    H136091   6.772   5.473  13.467  2.0966  1.2703  0.9495
 4892TIP3    H236092   6.911   5.436  13.419  1.0194  1.1304 -2.2905
 4893TIP3   OH236093   5.821   3.031  11.104  0.3267  0.1167  0.0273
 4893TIP3    H136094   5.798   2.949  11.061  1.2522 -0.1177 -0.0406
 4893TIP3    H236095   5.743   3.086  11.094 -1.0324 -1.3455  1.6223
 4894TIP3   OH236096   0.033   0.469  10.163  0.8582 -0.0667 -0.3470
 4894TIP3    H136097  -0.044   0.429  10.203  0.7440 -0.6159 -1.0778
 4894TIP3    H236098   0.091   0.395  10.144  2.4605  0.4829  1.9510
 4895TIP3   OH236099   4.364   5.126  10.061  0.2129 -0.9961 -0.6880
 4895TIP3    H136100   4.363   5.121   9.966 -1.2942 -1.0270 -0.6971
 4895TIP3    H236101   4.402   5.043  10.090 -1.5260 -2.0225 -1.2407
 4896TIP3   OH236102   3.881   6.804  13.932 -0.6696 -0.1664 -0.2046
 4896TIP3    H136103   3.906   6.842  14.017  1.2116 -0.0686 -0.7465
 4896TIP3    H236104   3.833   6.873  13.887  0.2217  0.5805 -0.0487
 4897TIP3   OH236105   4.564   1.668  10.425  0.5708  0.0440  0.1387
 4897TIP3    H136106   4.514   1.749  10.417  1.1102  0.6592  2.3423
 4897TIP3    H236107   4.637   1.690  10.482  1.5148 -1.6802 -0.3148
 4898TIP3   OH236108   3.492   0.088   9.588  0.0140 -0.1769 -0.0456
 4898TIP3    H136109   3.523   0.030   9.657 -1.9438 -0.5935  0.5391
 4898TIP3    H236110   3.450   0.160   9.634  0.6306  0.6866 -0.7923
 4899TIP3   OH236111   0.250   5.917  13.310 -0.4476  0.0503  0.2282
 4899TIP3    H136112   0.330   5.886  13.354  0.5361  0.8199 -0.9435
 4899TIP3    H236113   0.280   5.945  13.223 -2.0814 -0.0601 -0.4120
 4900TIP3   OH236114   0.753   5.502  11.920  0.0181  0.9094  0.1193
 4900TIP3    H136115   0.662   5.532  11.922  0.2037  1.4613  0.5648
 4900TIP3    H236116   0.771   5.475  12.011  0.1029  0.1965 -0.1049
 4901TIP3   OH236117   3.444   7.101  13.205 -0.0042 -0.5221 -0.4382
 4901TIP3    H136118   3.355   7.137  13.203 -0.2249 -1.0919 -2.0011
 4901TIP3    H236119   3.437   7.019  13.157  1.4020 -0.5328 -0.6505
 4902TIP3   OH236120   7.058   1.361  14.643  0.0108  0.3079  0.0642
 4902TIP3    H136121   6.980   1.417  14.641 -0.8839 -0.7643  2.3388
 4902TIP3    H236122   7.025   1.273  14.628  1.0701  0.0193 -0.7656
 4903TIP3   OH236123   3.301   6.472  14.542 -0.0038 -0.1245  0.8822
 4903TIP3    H136124   3.339   6.395  14.500  1.4394 -0.1119  2.0843
 4903TIP3    H236125   3.314   6.542  14.479 -0.6183 -0.6954  0.1032
 4904TIP3   OH236126   2.011   0.462  13.741  0.2172 -0.4130  0.0901
 4904TIP3    H136127   1.978   0.374  13.760 -2.8060  0.5438 -0.1126
 4904TIP3    H236128   2.081   0.476  13.804  1.1028 -3.0839 -0.1760
 4905TIP3   OH236129   4.409   3.063  11.206  0.2423  0.0960  0.8199
 4905TIP3    H136130   4.367   3.073  11.121  0.7233  0.0545  0.5708
 4905TIP3    H236131   4.352   3.109  11.268 -0.9226 -1.1968  0.7357
 4906TIP3   OH236132   2.240   1.330  10.428  0.7954 -0.1356 -0.0759
 4906TIP3    H136133   2.312   1.309  10.368  1.1122 -0.3390  0.3687
 4906TIP3    H236134   2.180   1.255  10.421 -1.3801  1.6704 -3.3389
 4907TIP3   OH236135   0.591   3.714  12.850  0.6565 -0.3331  0.2536
 4907TIP3    H136136   0.563   3.799  12.883 -0.8761  0.0113 -1.7123
 4907TIP3    H236137   0.514   3.679  12.806  0.9885 -3.1598  1.6830
 4908TIP3   OH236138   5.753   5.520  13.897 -0.4208 -1.0345 -0.1311
 4908TIP3    H136139   5.705   5.546  13.818 -2.0788 -1.7556  0.5906
 4908TIP3    H236140   5.845   5.526  13.872 -0.6800  3.1698 -0.7131
 4909TIP3   OH236141   4.827   6.436  10.881 -0.1394 -0.3530 -0.0754
 4909TIP3    H136142   4.861   6.396  10.801 -1.0161 -1.5417  0.1155
 4909TIP3    H236143   4.905   6.460  10.931  0.4421  1.5084 -1.7715
 4910TIP3   OH236144   6.461   1.058   0.969 -0.3492 -0.4812  0.2179
 4910TIP3    H136145   6.531   1.107   1.012 -0.8033 -0.0938  0.5356
 4910TIP3    H236146   6.435   0.992   1.034 -0.5696 -0.3420  0.2733
 4911TIP3   OH236147   3.040   3.234  14.667  0.0885  0.3547 -0.0037
 4911TIP3    H136148   3.039   3.194  14.754 -0.2737 -0.5270 -0.3937
 4911TIP3    H236149   3.107   3.301  14.671 -0.0958  0.4798  1.0282
 4912TIP3   OH236150   2.177   0.895  13.104 -0.1162 -0.0248  0.9374
 4912TIP3    H136151   2.172   0.834  13.178 -0.8214 -1.3099 -0.1193
 4912TIP3    H236152   2.111   0.863  13.042 -1.4063  2.5652  0.8339
 4913TIP3   OH236153   1.531   4.295  12.241  0.1245  0.1288 -0.0250
 4913TIP3    H136154   1.536   4.378  12.289  0.4910  0.0036  0.1574
 4913TIP3    H236155   1.499   4.320  12.154 -0.5292  0.3583  0.2733
 4914TIP3   OH236156   2.597   6.649  10.114 -0.1047  0.4718  0.3763
 4914TIP3    H136157   2.611   6.736  10.152  0.6597 -0.6478  2.7928
 4914TIP3    H236158   2.504   6.648  10.091 -0.3364  1.6154  1.1635
 4915TIP3   OH236159   3.676   1.670   0.366  0.1391 -0.1078 -0.2628
 4915TIP3    H136160   3.664   1.575   0.359 -0.4492  0.0322 -1.3756
 4915TIP3    H236161   3.603   1.700   0.419  1.4297 -0.4878  1.8394
 4916TIP3   OH236162   6.474   2.697  11.396 -0.2578 -0.2431  0.4268
 4916TIP3    H136163   6.409   2.723  11.461 -1.5963 -2.9956  0.3707
 4916TIP3    H236164   6.538   2.647  11.445  1.1881  1.3666  0.2628
 4917TIP3   OH236165   7.133   6.741  11.282 -0.3724 -0.2047 -0.5444
 4917TIP3    H136166   7.224   6.750  11.312  0.1882 -1.4939 -1.6968
 4917TIP3    H236167   7.124   6.807  11.214  0.2239 -1.0627 -1.4875
 4918TIP3   OH236168   0.499   1.058   1.270 -0.1366 -0.1251 -0.2906
 4918TIP3    H136169   0.548   0.985   1.309 -1.9549 -1.5926 -0.5713
 4918TIP3    H236170   0.524   1.057   1.177 -0.6866 -0.8871 -0.4408
 4919TIP3   OH236171   3.471   6.152  10.609 -0.2191  0.1037  0.0760
 4919TIP3    H136172   3.412   6.171  10.536  0.4746  0.2688 -0.4606
 4919TIP3    H236173   3.532   6.226  10.610  1.2671 -1.0653 -0.7322
 4920TIP3   OH236174   0.791   3.996   0.845 -0.3415  0.1906  0.0881
 4920TIP3    H136175   0.829   3.910   0.825 -0.6454 -0.3069  1.5523
 4920TIP3    H236176   0.802   4.046   0.764  3.8689  0.2404  0.4406
 4921TIP3   OH236177   3.360   6.051   0.235 -0.2012  0.0719 -0.1722
 4921TIP3    H136178   3.317   6.030   0.152 -0.9722  1.1476 -0.0623
 4921TIP3    H236179   3.406   5.971   0.259 -1.9950 -1.0728 -0.3808
 4922TIP3   OH236180   7.144   6.728  10.561 -0.1314 -0.2948  0.0526
 4922TIP3    H136181   7.059   6.701  10.527  0.5673  0.9597 -3.0776
 4922TIP3    H236182   7.133   6.729  10.656 -3.3496 -0.8599 -0.2009
 4923TIP3   OH236183   2.665   1.650  10.616  0.2229 -0.2581  0.2370
 4923TIP3    H136184   2.653   1.601  10.535  0.4409 -0.9404  0.6094
 4923TIP3    H236185   2.580   1.645  10.660 -0.9567  2.8075 -1.3491
 4924TIP3   OH236186   2.077   2.468   9.960  0.5730  0.1474  0.4692
 4924TIP3    H136187   2.096   2.463  10.054  2.6978  0.2824  0.0954
 4924TIP3    H236188   2.128   2.544   9.929 -1.8598  1.5277 -0.4423
 4925TIP3   OH236189   5.795   0.509  10.808  0.4212 -0.1000  0.3076
 4925TIP3    H136190   5.757   0.553  10.884  0.1568 -0.2036  0.2359
 4925TIP3    H236191   5.845   0.577  10.763  0.8195 -0.1077  0.7335
 4926TIP3   OH236192   3.047   2.652  14.675 -0.0388 -0.2738  0.2995
 4926TIP3    H136193   2.968   2.668  14.726 -0.1864 -2.3134  0.7793
 4926TIP3    H236194   3.015   2.627  14.588  0.1787  1.3133 -0.2798
 4927TIP3   OH236195   4.217   2.038  12.524  0.0126 -0.3493 -0.2476
 4927TIP3    H136196   4.196   2.097  12.597  0.0354  0.3703 -0.8070
 4927TIP3    H236197   4.293   2.078  12.482  0.8295 -1.4777  0.1266
 4928TIP3   OH236198   3.452   4.492  11.929 -0.3148  0.0886 -0.6052
 4928TIP3    H136199   3.525   4.482  11.990 -0.8138 -0.0435 -0.0125
 4928TIP3    H236200   3.396   4.559  11.969 -0.6107  0.0564 -0.9543
 4929TIP3   OH236201   0.404   2.306   0.095  0.1209  0.2692 -0.2749
 4929TIP3    H136202   0.479   2.340   0.144  0.6538  0.3004 -1.1044
 4929TIP3    H236203   0.349   2.383   0.081 -0.1694  0.2136  0.4935
 4930TIP3   OH236204   2.410   6.553  11.894  0.5338 -0.5832  0.0803
 4930TIP3    H136205   2.457   6.632  11.869 -1.7117  0.9722  0.4905
 4930TIP3    H236206   2.454   6.522  11.973  0.9850  0.7111  0.3526
 4931TIP3   OH236207   1.304   6.790   1.992  0.5118  0.5832  0.4560
 4931TIP3    H136208   1.235   6.735   2.029 -1.2122  2.3528  0.0829
 4931TIP3    H236209   1.346   6.736   1.925 -0.2119 -0.6984  1.0146
 4932TIP3   OH236210   0.198   4.193  10.339  0.5466  0.0064  0.2636
 4932TIP3    H136211   0.268   4.222  10.281  3.0168  0.4197  3.1718
 4932TIP3    H236212   0.163   4.115  10.298  1.6687  0.6397 -2.0660
 4933TIP3   OH236213   4.421   0.186  13.829  0.0433 -0.3052 -0.3268
 4933TIP3    H136214   4.514   0.208  13.829  0.0213 -0.1869  0.3993
 4933TIP3    H236215   4.410   0.128  13.904 -0.9115  1.6732  1.1536
 4934TIP3   OH236216   2.621   3.006  10.853  0.5515 -0.1700  0.1088
 4934TIP3    H136217   2.670   2.951  10.914  0.2938 -1.4594 -0.8017
 4934TIP3    H236218   2.688   3.049  10.801  0.7647  0.6689  1.0378
 4935TIP3   OH236219   2.843   0.340  12.811 -0.0234 -0.0576 -0.4843
 4935TIP3    H136220   2.927   0.386  12.808 -0.2673  0.4600  0.3226
 4935TIP3    H236221   2.866   0.248  12.802  0.8713 -0.1468  1.9066
 4936TIP3   OH236222   5.541   3.278  12.138 -0.4629 -0.3735  0.0247
 4936TIP3    H136223   5.619   3.252  12.089 -0.3976  0.7480 -0.5249
 4936TIP3    H236224   5.488   3.326  12.074 -1.8114 -1.4510  0.2746
 4937TIP3   OH236225   1.313   3.468  13.607 -0.8604  0.5603  0.1472
 4937TIP3    H136226   1.372   3.422  13.666 -2.5850 -1.0352  0.7335
 4937TIP3    H236227   1.252   3.514  13.665 -1.4451  0.5030 -0.4038
 4938TIP3   OH236228   7.199   4.288   0.793  0.2842 -0.0323  0.6012
 4938TIP3    H136229   7.144   4.334   0.857 -1.3177  0.8433 -1.2929
 4938TIP3    H236230   7.257   4.356   0.760  1.0174 -0.4534  1.0077
 4939TIP3   OH236231   2.055   2.403  13.097 -0.2225 -0.4066  0.1286
 4939TIP3    H136232   2.091   2.382  13.011 -0.2053 -2.4500  0.6003
 4939TIP3    H236233   2.101   2.483  13.122 -1.1354  0.9932 -2.2573
 4940TIP3   OH236234   3.616   2.376  12.864  0.2066 -0.2800 -0.4989
 4940TIP3    H136235   3.646   2.294  12.825  0.6886 -0.6542  0.6102
 4940TIP3    H236236   3.537   2.352  12.913 -0.2392  0.1311 -0.9954
 4941TIP3   OH236237   2.080   3.147   3.950 -0.3886 -0.3598 -0.3789
 4941TIP3    H136238   2.172   3.121   3.959 -0.2716  0.3067  0.6197
 4941TIP3    H236239   2.039   3.117   4.032 -0.2541  2.3982  0.8099
 4942TIP3   OH236240   2.193   6.660  13.762 -0.0897  0.6695  0.3978
 4942TIP3    H136241   2.167   6.695  13.677  1.7592  0.6066 -0.2300
 4942TIP3    H236242   2.208   6.738  13.816 -0.8894  0.7134  0.5772
 4943TIP3   OH236243   0.913   5.052  12.237  0.1659  0.2134  0.0484
 4943TIP3    H136244   0.919   5.136  12.281  0.5484 -0.1435  0.6834
 4943TIP3    H236245   0.926   4.987  12.306  5.0102 -0.3979 -1.0818
 4944TIP3   OH236246   2.687   1.679   0.625  0.0670 -0.1672 -0.6150
 4944TIP3    H136247   2.661   1.736   0.553  1.4120 -1.2317 -1.9889
 4944TIP3    H236248   2.780   1.700   0.640 -0.0321 -0.3919  0.4102
 4945TIP3   OH236249   1.339   0.823  10.876 -0.3109  0.6040  0.2678
 4945TIP3    H136250   1.342   0.738  10.920 -1.7235  0.3996 -0.0082
 4945TIP3    H236251   1.426   0.860  10.891  0.9924 -1.6296 -1.1038
 4946TIP3   OH236252   0.390   7.194   9.529  0.1287  0.0449 -0.4474
 4946TIP3    H136253   0.444   7.232   9.459  0.7881 -0.5849 -0.2893
 4946TIP3    H236254   0.331   7.134   9.483 -0.2618  0.5354 -0.5916
 4947TIP3   OH236255   5.408   5.421   9.305  0.3466 -0.0527  0.5632
 4947TIP3    H136256   5.343   5.391   9.369 -0.7407 -0.5866 -0.7469
 4947TIP3    H236257   5.442   5.341   9.265 -0.5157  0.3111 -0.9782
 4948TIP3   OH236258   4.053   4.112  12.440  0.6390  0.2621 -0.4436
 4948TIP3    H136259   4.102   4.032  12.422 -0.9634 -0.3567 -2.3754
 4948TIP3    H236260   4.092   4.178  12.383  1.6733  0.8143  0.8346
 4949TIP3   OH236261   1.189   6.259   9.898  0.1338  0.2099 -0.2340
 4949TIP3    H136262   1.198   6.351   9.875 -0.4766  0.8009  1.7151
 4949TIP3    H236263   1.275   6.221   9.877  1.2536  1.7825  1.1940
 4950TIP3   OH236264   6.820   6.134  11.312 -0.4540 -0.0406 -0.6685
 4950TIP3    H136265   6.835   6.042  11.336 -0.2796  0.4406  1.2140
 4950TIP3    H236266   6.888   6.153  11.248  3.3717  0.2666  2.9996
 4951TIP3   OH236267   0.819   0.970  11.071  0.0459  0.6664  0.0713
 4951TIP3    H136268   0.827   1.047  11.015 -0.6096  0.9694  0.3935
 4951TIP3    H236269   0.725   0.953  11.075  0.2707 -1.6374 -2.0195
 4952TIP3   OH236270   0.341   3.302  13.547  0.3384 -0.3616 -0.2240
 4952TIP3    H136271   0.266   3.277  13.493 -0.3843 -1.9016  1.3678
 4952TIP3    H236272   0.411   3.320  13.485 -1.4502  1.6493 -1.8076
 4953TIP3   OH236273   4.177   1.549  10.336 -0.5487  0.4561 -0.2293
 4953TIP3    H136274   4.126   1.523  10.412  0.4550 -0.5834  0.1152
 4953TIP3    H236275   4.133   1.507  10.262 -0.3082 -0.2892  0.0423
 4954TIP3   OH236276   2.357   0.627  11.753  0.1831  0.4034  0.1977
 4954TIP3    H136277   2.293   0.679  11.705 -1.0033 -2.4436 -1.5869
 4954TIP3    H236278   2.306   0.583  11.821  0.3334 -1.1995 -0.6714
 4955TIP3   OH236279   2.077   0.844   0.166  0.3571 -0.2945 -0.0888
 4955TIP3    H136280   1.988   0.871   0.143 -0.4274 -2.4758  0.1536
 4955TIP3    H236281   2.133   0.914   0.132 -1.4063  0.9369 -0.5972
 4956TIP3   OH236282   5.969   7.110  12.461  0.2760 -0.5857 -0.0153
 4956TIP3    H136283   6.061   7.137  12.458 -0.0090  0.3255 -0.8013
 4956TIP3    H236284   5.923   7.173  12.406 -1.2725  0.7642  2.6070
 4957TIP3   OH236285   1.894   5.794  12.111  0.5984 -0.0004  0.7342
 4957TIP3    H136286   1.801   5.779  12.092  0.7470  0.8330 -0.8620
 4957TIP3    H236287   1.937   5.713  12.083  0.5307  0.3097 -0.3366
 4958TIP3   OH236288   1.233   1.824  14.651  0.0793 -0.1162  0.3820
 4958TIP3    H136289   1.245   1.871  14.734 -1.4325 -0.3119  0.7290
 4958TIP3    H236290   1.313   1.772  14.642 -0.1115 -0.7941  2.1845
 4959TIP3   OH236291   5.385   1.376  14.542  0.2481  0.1875 -0.0033
 4959TIP3    H136292   5.421   1.322  14.612  0.4170  0.3963  0.0716
 4959TIP3    H236293   5.458   1.429  14.512  0.4382 -0.6667 -1.0848
 4960TIP3   OH236294   4.176   2.066  13.030  0.1347 -0.7823  0.4212
 4960TIP3    H136295   4.258   2.093  12.989  0.1121 -0.2418  0.7264
 4960TIP3    H236296   4.112   2.067  12.958  0.0979  0.1522  0.4544
 4961TIP3   OH236297   6.234   4.508  12.260 -0.0488 -0.0920  0.4556
 4961TIP3    H136298   6.219   4.434  12.319 -0.7661  1.5098  2.3986
 4961TIP3    H236299   6.235   4.584  12.318  0.8677  1.4093 -1.4496
 4962TIP3   OH236300   1.187   0.329  10.280  0.7067  0.0213  0.7215
 4962TIP3    H136301   1.239   0.257  10.245  1.7743  1.3288 -0.4737
 4962TIP3    H236302   1.163   0.382  10.204 -2.5536 -0.5805  1.1931
 4963TIP3   OH236303   6.813   1.013  13.417  0.3426 -0.0611 -0.0795
 4963TIP3    H136304   6.718   1.009  13.430  0.2036 -0.0504 -0.9690
 4963TIP3    H236305   6.846   0.933  13.456 -0.1690 -0.6018 -0.7284
 4964TIP3   OH236306   1.789   2.416  10.040  0.5197  0.3262  0.3820
 4964TIP3    H136307   1.828   2.443   9.956  0.3467 -1.9167 -0.4916
 4964TIP3    H236308   1.743   2.334  10.020 -2.0619  1.2217  2.0400
 4965TIP3   OH236309   0.515   0.710  14.400  0.3367 -0.2674 -0.0305
 4965TIP3    H136310   0.451   0.647  14.366  2.7140 -3.4201  0.8749
 4965TIP3    H236311   0.600   0.673  14.378  1.9189  2.5011  0.9173
 4966TIP3   OH236312   0.842   1.627  14.803  0.5004  0.1310  0.4364
 4966TIP3    H136313   0.851   1.587  14.716  0.3721 -0.3874  0.6553
 4966TIP3    H236314   0.923   1.604  14.848  0.8235  0.9091  0.2535
 4967TIP3   OH236315   3.108   4.744  11.340 -0.0601  0.4228 -0.1869
 4967TIP3    H136316   3.164   4.677  11.303 -1.7932 -1.2612  0.0805
 4967TIP3    H236317   3.022   4.727  11.302 -1.1132  0.8563  1.8533
 4968TIP3   OH236318   4.345   0.660  13.441  0.4786  0.1432 -0.0554
 4968TIP3    H136319   4.365   0.702  13.357  0.9983 -1.7230 -0.9161
 4968TIP3    H236320   4.329   0.568  13.418 -1.1542 -0.0447  1.6803
 4969TIP3   OH236321   3.481   6.779  11.794  0.9991  0.5789  0.1323
 4969TIP3    H136322   3.485   6.864  11.838 -1.8241  0.9922 -0.2619
 4969TIP3    H236323   3.489   6.715  11.865  4.9543  0.9971  0.2750
 4970TIP3   OH236324   4.768   6.202  13.171 -0.0569  0.2544  0.4061
 4970TIP3    H136325   4.706   6.274  13.159 -0.9116 -0.6097 -0.5858
 4970TIP3    H236326   4.837   6.219  13.106  0.0316  0.4604  0.5505
 4971TIP3   OH236327   4.202   5.675   1.727 -0.5855 -0.0899  0.1506
 4971TIP3    H136328   4.153   5.593   1.726 -0.9845  0.1510 -0.2549
 4971TIP3    H236329   4.258   5.670   1.650 -2.0041  0.8414 -0.9969
 4972TIP3   OH236330   6.920   3.532  12.095 -0.0600  0.0346  0.0232
 4972TIP3    H136331   6.954   3.532  12.185 -0.0097  1.5516  0.0347
 4972TIP3    H236332   6.941   3.445  12.061  0.5379 -0.3200  1.2528
 4973TIP3   OH236333   1.338   0.925   0.184 -0.1789 -0.1795  0.6678
 4973TIP3    H136334   1.319   0.918   0.091  0.7791  0.3402  0.4251
 4973TIP3    H236335   1.256   0.955   0.223 -0.1502  1.1957 -0.2386
 4974TIP3   OH236336   3.840   2.956  11.735  0.0837 -0.2084 -0.1023
 4974TIP3    H136337   3.762   2.922  11.778 -0.0962 -1.1433 -1.1283
 4974TIP3    H236338   3.847   3.046  11.767  1.3116 -1.4590  3.7388
 4975TIP3   OH236339   1.156   6.267  11.185 -0.1193  0.2338  0.2403
 4975TIP3    H136340   1.226   6.333  11.184  1.3657 -1.0813  3.3139
 4975TIP3    H236341   1.203   6.183  11.185 -1.7748 -0.7222  0.5618
 4976TIP3   OH236342   0.853   4.709   9.838 -0.2447  0.3131 -0.1622
 4976TIP3    H136343   0.776   4.663   9.805 -1.1881  1.5335  0.2603
 4976TIP3    H236344   0.904   4.729   9.760 -0.3554 -0.4994 -0.4528
 4977TIP3   OH236345   3.915   4.231  11.741  0.1079 -0.4166 -0.2717
 4977TIP3    H136346   3.945   4.140  11.748  0.5595 -0.3090 -0.7176
 4977TIP3    H236347   3.915   4.263  11.832  4.1272  0.4333 -0.3698
 4978TIP3   OH236348   0.784   6.468  12.903 -0.1932 -0.6178 -0.1116
 4978TIP3    H136349   0.844   6.531  12.942  0.2110 -1.3921  0.5437
 4978TIP3    H236350   0.698   6.494  12.936 -0.2708  0.6319 -1.2346
 4979TIP3   OH236351   5.061   1.194  11.758 -0.7271 -0.5064  0.1067
 4979TIP3    H136352   5.098   1.271  11.801  0.1050 -1.7380  1.6714
 4979TIP3    H236353   5.029   1.227  11.674  2.2385  0.9897 -0.5515
 4980TIP3   OH236354   3.040   4.393  11.989 -0.4373 -0.1055 -0.0503
 4980TIP3    H136355   3.060   4.485  11.974 -2.2622  0.4762  0.7648
 4980TIP3    H236356   3.001   4.363  11.906 -3.2720  0.9509  0.7688
 4981TIP3   OH236357   6.239   1.686  13.586 -0.1946  0.1178 -0.2154
 4981TIP3    H136358   6.264   1.634  13.663 -0.2184 -1.9761 -1.5302
 4981TIP3    H236359   6.149   1.658  13.567 -0.6150  1.4819 -0.3482
 4982TIP3   OH236360   6.639   6.379  13.164 -0.0146 -0.1199  0.2708
 4982TIP3    H136361   6.679   6.341  13.242  0.0334 -1.0090 -0.1762
 4982TIP3    H236362   6.611   6.304  13.112 -0.5969  0.4678 -0.2912
 4983TIP3   OH236363   0.770   4.875   0.176  0.0829 -0.5115  0.1033
 4983TIP3    H136364   0.849   4.918   0.208 -1.2296  2.6290 -0.4788
 4983TIP3    H236365   0.749   4.922   0.095 -3.0269 -0.3562  0.8877
 4984TIP3   OH236366   0.972   6.433   2.229 -0.4097  0.5842  0.0659
 4984TIP3    H136367   0.966   6.337   2.227 -0.2385  0.5761 -1.6854
 4984TIP3    H236368   1.053   6.450   2.277  1.3224 -0.3270 -2.3095
 4985TIP3   OH236369   6.430   6.381   1.325  0.2586  0.6428 -0.1797
 4985TIP3    H136370   6.377   6.390   1.404  0.7356 -1.1533  0.3866
 4985TIP3    H236371   6.381   6.430   1.258  0.1191  2.6574  1.2918
 4986TIP3   OH236372   5.967   1.014  11.515  0.2900 -0.4514 -0.0774
 4986TIP3    H136373   6.042   1.048  11.465  0.2368  2.3247  1.5257
 4986TIP3    H236374   5.894   1.017  11.453  0.7046  0.5996 -0.5428
 4987TIP3   OH236375   6.872   1.524  14.583  0.0824 -0.5211  0.3368
 4987TIP3    H136376   6.795   1.472  14.607  0.6170 -1.7059 -0.4859
 4987TIP3    H236377   6.836   1.599  14.535 -0.4892 -1.7422 -1.2018
 4988TIP3   OH236378   4.597   0.048  13.999  0.0961  0.0569  0.1503
 4988TIP3    H136379   4.610  -0.019  13.932 -0.1463 -0.5733  0.7347
 4988TIP3    H236380   4.684   0.086  14.012  0.1533  0.1652 -0.4902
 4989TIP3   OH236381   6.066   4.283   2.010  0.1960 -0.3624 -0.4935
 4989TIP3    H136382   6.152   4.321   1.996  0.7748 -0.8609  1.3482
 4989TIP3    H236383   6.004   4.351   1.983  1.1698  0.2192 -1.2815
 4990TIP3   OH236384   4.199   2.188  13.593 -0.2619  0.1233  1.3555
 4990TIP3    H136385   4.178   2.166  13.684  0.4517 -0.1803  1.4522
 4990TIP3    H236386   4.152   2.123  13.542  1.6788 -1.6227  1.6332
 4991TIP3   OH236387   6.718   0.430  10.065 -0.4969 -0.0063  0.1283
 4991TIP3    H136388   6.694   0.341  10.039  0.4381  0.1842 -1.4960
 4991TIP3    H236389   6.802   0.446  10.022  1.0285  0.4947  2.9973
 4992TIP3   OH236390   7.098   5.319  11.105 -0.1237 -0.1384 -0.0025
 4992TIP3    H136391   7.156   5.325  11.180 -1.2096  1.9156  0.7545
 4992TIP3    H236392   7.090   5.409  11.073 -0.1174 -0.8753 -2.2812
 4993TIP3   OH236393   2.805   1.613  13.626 -0.2409  0.0539 -0.0017
 4993TIP3    H136394   2.898   1.597  13.611 -0.2171  0.2437 -0.0645
 4993TIP3    H236395   2.771   1.639  13.541 -0.5705 -1.0203 -0.2109
 4994TIP3   OH236396   6.465   2.953  14.045 -0.1063 -0.3322  0.0692
 4994TIP3    H136397   6.547   2.979  14.003 -0.9572  0.9793 -0.8619
 4994TIP3    H236398   6.427   3.035  14.076 -0.9454 -0.9531  0.7327
 4995TIP3   OH236399   6.691   0.829  11.540  0.4979  0.7398  0.1054
 4995TIP3    H136400   6.716   0.810  11.631 -0.9032  0.0454  0.3667
 4995TIP3    H236401   6.680   0.923  11.537  2.2612  0.9878  0.1871
 4996TIP3   OH236402   3.153   5.043  11.969  0.7547  0.9795  0.0472
 4996TIP3    H136403   3.182   5.131  11.988 -0.6775  1.4735  0.1079
 4996TIP3    H236404   3.064   5.054  11.933  0.9544 -0.3515 -0.9613
 4997TIP3   OH236405   0.875   4.201  12.599 -0.0443  0.4648  0.5725
 4997TIP3    H136406   0.843   4.153  12.523  0.6461 -1.4165  1.3971
 4997TIP3    H236407   0.932   4.138  12.645 -1.1345  1.1738  3.0968
 4998TIP3   OH236408   6.104   3.428  13.524  0.3658  0.5373  0.6394
 4998TIP3    H136409   6.068   3.461  13.606 -0.6159  0.7331  0.1468
 4998TIP3    H236410   6.093   3.500  13.462 -1.7708 -0.5944 -0.4473
 4999TIP3   OH236411   1.711   6.487   9.971  0.0593 -0.0737  0.4717
 4999TIP3    H136412   1.697   6.399  10.007  0.7939 -0.0715  0.7993
 4999TIP3    H236413   1.804   6.487   9.947  0.3879  1.0299  1.6592
 5000TIP3   OH236414   0.265   7.054  11.772  0.2802  0.2200  0.0450
 5000TIP3    H136415   0.203   7.117  11.810  0.1262 -0.5897  1.2113
 5000TIP3    H236416   0.223   6.969  11.785  0.9787 -0.2144 -0.5048
 5001TIP3   OH236417   0.719   5.466   0.159  0.0773 -0.2948  0.4668
 5001TIP3    H136418   0.803   5.500   0.128  0.4792 -1.9065 -0.3135
 5001TIP3    H236419   0.741   5.411   0.234 -0.3455 -0.3594  0.5463
 5002TIP3   OH236420   6.191   3.431   2.883 -0.1249 -0.0250  0.1546
 5002TIP3    H136421   6.138   3.507   2.860  1.3924  0.9078 -0.3971
 5002TIP3    H236422   6.280   3.455   2.859  0.8439 -0.9117  2.4960
 5003TIP3   OH236423   3.593   3.583  11.616  0.1750 -0.1000  0.1543
 5003TIP3    H136424   3.526   3.643  11.584 -0.6513 -0.2075  1.6117
 5003TIP3    H236425   3.676   3.624  11.592 -0.3864  0.3717 -1.0685
 5004TIP3   OH236426   1.882   3.814  11.232  0.1876  0.0381 -0.3220
 5004TIP3    H136427   1.801   3.796  11.185  1.4013 -0.7076 -2.2692
 5004TIP3    H236428   1.873   3.769  11.316 -1.1304 -0.5822 -0.7830
 5005TIP3   OH236429   1.146   6.797  11.563 -0.0877  0.2075  0.1976
 5005TIP3    H136430   1.239   6.817  11.569  0.1051  0.1580 -1.9472
 5005TIP3    H236431   1.141   6.727  11.497 -1.7501  1.2248 -0.8296
 5006TIP3   OH236432   5.250   7.090  10.323 -0.0553 -0.7048  0.0970
 5006TIP3    H136433   5.175   7.100  10.263  0.8174  0.6363 -0.8299
 5006TIP3    H236434   5.234   7.156  10.391  0.9731  0.6048 -0.8879
 5007TIP3   OH236435   2.007   5.563  14.930 -0.4564 -0.6277 -0.0883
 5007TIP3    H136436   2.035   5.646  14.969  1.8592 -1.1863 -0.4285
 5007TIP3    H236437   2.008   5.579  14.836  1.0851 -1.3085 -0.2150
 5008TIP3   OH236438   6.335   0.816   9.675  0.1840  0.4640 -0.2748
 5008TIP3    H136439   6.365   0.728   9.653  1.3512  0.5872  0.7311
 5008TIP3    H236440   6.239   0.810   9.673  0.2559 -0.6127 -1.0077
 5009TIP3   OH236441   0.230   6.833   9.842  0.2487 -0.0527  0.4052
 5009TIP3    H136442   0.222   6.927   9.825  1.4613  0.0565  0.2922
 5009TIP3    H236443   0.143   6.797   9.826  0.2562  0.7309 -1.7777
 5010TIP3   OH236444   0.577   6.040  10.606  0.2925 -0.4184  0.5091
 5010TIP3    H136445   0.586   5.960  10.658 -1.1385 -0.5296  0.6115
 5010TIP3    H236446   0.491   6.074  10.628 -0.9779 -1.1633 -2.6996
 5011TIP3   OH236447   7.165   2.494  10.965  0.8133 -0.1095 -0.3761
 5011TIP3    H136448   7.089   2.458  11.010  0.0052 -1.8736 -2.9281
 5011TIP3    H236449   7.240   2.458  11.014  0.1006  1.1964  1.8248
 5012TIP3   OH236450   5.587   4.400  11.419  0.0968 -0.1198 -1.0223
 5012TIP3    H136451   5.508   4.380  11.368  0.0962 -0.9987 -0.6953
 5012TIP3    H236452   5.556   4.460  11.488 -0.4095 -0.8881 -0.5638
 5013TIP3   OH236453   2.812   1.936  10.924 -0.2761 -0.1536  0.1502
 5013TIP3    H136454   2.735   1.907  10.973 -0.6688 -0.2140 -0.4907
 5013TIP3    H236455   2.785   1.932  10.833  0.7174 -0.8336 -0.1253
 5014TIP3   OH236456   6.278   4.709  10.903  0.2416  0.3898 -0.8364
 5014TIP3    H136457   6.309   4.722  10.813 -0.0277  0.2897 -0.9459
 5014TIP3    H236458   6.209   4.775  10.914 -0.0012  0.1345 -0.8378
 5015TIP3   OH236459   2.030   2.468  11.214  0.3463 -0.1212  0.2812
 5015TIP3    H136460   2.016   2.470  11.308  0.0602 -0.6896  0.2510
 5015TIP3    H236461   2.090   2.395  11.200 -1.6017 -1.6792 -0.2272
 5016TIP3   OH236462   4.513   4.157  12.551  0.9027 -0.6121  0.0678
 5016TIP3    H136463   4.443   4.148  12.616 -0.4001 -1.3422 -1.3558
 5016TIP3    H236464   4.485   4.101  12.478  1.5951  1.2086 -1.6902
 5017TIP3   OH236465   2.521   6.916  10.810 -0.2224  0.3988  0.1712
 5017TIP3    H136466   2.491   6.845  10.753  0.6453 -1.2737  1.7194
 5017TIP3    H236467   2.610   6.934  10.781  0.1622 -0.3438  0.8400
 5018TIP3   OH236468   1.692   6.480   0.657  0.1684  0.2496 -0.6545
 5018TIP3    H136469   1.611   6.514   0.696  0.7085  0.7384  0.0841
 5018TIP3    H236470   1.680   6.491   0.563 -0.3964  0.8592 -0.5187
 5019TIP3   OH236471   3.989   0.683   1.287 -0.5488  0.2280  0.0501
 5019TIP3    H136472   3.991   0.628   1.365  0.0042  0.9930  0.5852
 5019TIP3    H236473   3.994   0.773   1.320  2.2854  0.5228 -0.9350
 5020TIP3   OH236474   2.551   2.204  10.319  0.1866 -0.0880  0.2968
 5020TIP3    H136475   2.455   2.194  10.325  0.0252  1.3914  0.6103
 5020TIP3    H236476   2.581   2.190  10.409  0.3021 -0.8392  0.1439
 5021TIP3   OH236477   0.643   6.347  11.014  0.0881 -0.3155  0.0383
 5021TIP3    H136478   0.594   6.360  10.933  0.6936 -0.1776 -0.3055
 5021TIP3    H236479   0.715   6.409  11.009  0.8442 -1.1693  0.1047
 5022TIP3   OH236480   1.749   2.082  13.410  0.2838 -0.3427 -0.6112
 5022TIP3    H136481   1.777   1.994  13.387 -1.0443 -0.8521 -0.3600
 5022TIP3    H236482   1.808   2.139  13.360  0.7893 -1.3686 -1.2289
 5023TIP3   OH236483   3.624   3.992  12.662  0.2535 -0.0936  0.1405
 5023TIP3    H136484   3.664   4.002  12.576 -0.8678  0.5264 -0.3383
 5023TIP3    H236485   3.662   4.062  12.715  1.1257 -0.6267  0.2313
 5024TIP3   OH236486   0.235   2.864   1.357  0.0312 -0.1287 -0.5453
 5024TIP3    H136487   0.248   2.899   1.270  0.3343 -2.0728 -1.3354
 5024TIP3    H236488   0.313   2.888   1.406  0.2050  0.3026 -1.0410
 5025TIP3   OH236489   4.299   5.789  14.254 -0.4514  0.1389  0.1408
 5025TIP3    H136490   4.215   5.747  14.238  0.1876 -1.7287  1.3157
 5025TIP3    H236491   4.361   5.741  14.199 -0.0836  1.3020 -0.4917
 5026TIP3   OH236492   0.159   1.626   0.030 -0.3744  0.1125 -0.3290
 5026TIP3    H136493   0.093   1.692   0.009 -1.6377 -0.9108  0.2869
 5026TIP3    H236494   0.123   1.579   0.105  0.9682 -0.6222 -0.1120
 5027TIP3   OH236495   4.591   3.720  14.801  0.2560  0.1202  0.1312
 5027TIP3    H136496   4.621   3.811  14.805 -1.6610  0.8165 -0.1396
 5027TIP3    H236497   4.528   3.712  14.873  0.6517 -1.0986  0.3614
 5028TIP3   OH236498   5.842   6.486  11.251  0.2516 -0.2841 -0.0573
 5028TIP3    H136499   5.927   6.446  11.268  1.6031  2.4212  0.1250
 5028TIP3    H236500   5.783   6.447  11.316  1.5739 -1.4738  0.4695
 5029TIP3   OH236501   2.996   4.839   1.678  0.0613 -0.1873 -0.1146
 5029TIP3    H136502   2.981   4.904   1.747 -2.2159 -1.2976  0.5479
 5029TIP3    H236503   2.914   4.837   1.629  0.4797 -1.7471 -0.8111
 5030TIP3   OH236504   1.351   4.405  11.640 -0.3271 -0.7044 -0.3319
 5030TIP3    H136505   1.331   4.389  11.548  1.6658 -2.7518 -0.4880
 5030TIP3    H236506   1.445   4.422  11.643 -0.4386 -0.1147  1.2812
 5031TIP3   OH236507   3.753   4.055  11.010  0.3493  0.2052 -0.5295
 5031TIP3    H136508   3.810   4.111  10.957 -0.1904 -1.0996 -2.6047
 5031TIP3    H236509   3.741   3.976  10.958 -2.1290 -0.2152  0.5197
 5032TIP3   OH236510   5.616   2.729  14.560 -0.5263 -0.5948 -0.2667
 5032TIP3    H136511   5.651   2.663  14.620  0.3360  0.3290  0.2938
 5032TIP3    H236512   5.568   2.789  14.618 -0.4988 -0.2231 -0.6258
 5033TIP3   OH236513   3.850   2.408  11.114 -0.1372 -0.9404 -0.1908
 5033TIP3    H136514   3.884   2.336  11.168  0.2581 -0.3072  0.4230
 5033TIP3    H236515   3.777   2.443  11.164  0.3986 -0.1803  0.0726
 5034TIP3   OH236516   4.469   4.735  13.413  0.5949  0.4115 -0.2033
 5034TIP3    H136517   4.490   4.654  13.461 -1.4524 -1.0093 -1.5409
 5034TIP3    H236518   4.412   4.783  13.473 -1.8252 -1.2871 -0.9618
 5035TIP3   OH236519   6.452   6.225  11.541 -0.0724 -0.6895 -0.4681
 5035TIP3    H136520   6.436   6.309  11.497 -1.3122 -0.5204  0.2647
 5035TIP3    H236521   6.365   6.187  11.553  0.4216 -1.7517 -0.1360
 5036TIP3   OH236522   5.202   3.478  11.115  0.6746 -0.0231  0.5570
 5036TIP3    H136523   5.121   3.508  11.073  0.5356  1.9319  2.0525
 5036TIP3    H236524   5.250   3.432  11.047 -1.3447 -0.5587 -0.5767
 5037TIP3   OH236525   5.975   2.090  13.407 -0.2832 -0.0906 -0.2326
 5037TIP3    H136526   5.982   2.086  13.311  0.0118 -0.0802 -0.2111
 5037TIP3    H236527   5.912   2.161  13.423 -1.5184 -1.0919 -0.4560
 5038TIP3   OH236528   0.666   3.010  10.580 -0.2822 -0.3269 -0.2602
 5038TIP3    H136529   0.690   3.028  10.489  1.0910 -0.6521  0.0068
 5038TIP3    H236530   0.623   2.924  10.577 -1.1350  0.1030 -0.7143
 5039TIP3   OH236531   5.908   3.457  12.808 -0.3922 -0.5417 -0.3894
 5039TIP3    H136532   5.881   3.387  12.748  0.3507 -0.8058 -0.4288
 5039TIP3    H236533   6.004   3.453  12.808 -0.2003  1.7181 -1.9060
 5040TIP3   OH236534   2.148   5.030  12.372  0.3152  0.1316 -0.1527
 5040TIP3    H136535   2.061   4.994  12.388 -0.1744  1.2787 -0.1296
 5040TIP3    H236536   2.205   4.983  12.433 -0.0341 -1.5426 -1.0540
 5041TIP3   OH236537   0.933   5.318  10.042 -0.2141 -0.3724 -0.2483
 5041TIP3    H136538   0.991   5.383  10.002 -0.4080  0.1564  0.3046
 5041TIP3    H236539   0.889   5.276   9.968  1.1859 -1.0979 -0.7072
 5042TIP3   OH236540   2.443   0.943  10.643  0.4005  0.2587 -0.4846
 5042TIP3    H136541   2.444   0.848  10.631  0.3139  0.1734  0.1582
 5042TIP3    H236542   2.446   0.978  10.554  0.5706 -0.3439 -0.7228
 5043TIP3   OH236543   5.819   2.495  11.566 -0.1682 -0.5816 -0.2951
 5043TIP3    H136544   5.794   2.406  11.587 -0.0592 -0.2920  1.1984
 5043TIP3    H236545   5.817   2.499  11.471 -1.1354 -1.8890 -0.3589
 5044TIP3   OH236546   0.886   5.007  10.568  0.3997  0.3204  0.4346
 5044TIP3    H136547   0.952   4.949  10.531  0.1546 -0.3659  1.0705
 5044TIP3    H236548   0.837   5.038  10.492  2.6520  2.4243 -0.3179
 5045TIP3   OH236549   2.134   5.443  10.609  0.0218  0.1774 -0.0401
 5045TIP3    H136550   2.078   5.517  10.587 -1.1012 -0.9132 -1.0501
 5045TIP3    H236551   2.221   5.467  10.576 -0.5637  0.6250 -1.3454
 5046TIP3   OH236552   2.008   2.052  12.030 -0.1062 -0.6801  0.3297
 5046TIP3    H136553   1.915   2.030  12.043 -0.4663  1.1736  1.2775
 5046TIP3    H236554   2.052   1.967  12.027 -1.7963 -1.6002  0.1645
 5047TIP3   OH236555   1.826   2.809  12.635 -0.2411 -0.2483 -0.0497
 5047TIP3    H136556   1.919   2.828  12.644 -0.2962  0.2636 -0.5098
 5047TIP3    H236557   1.805   2.753  12.710  0.6272 -1.1049 -0.4301
 5048TIP3   OH236558   1.966   3.690  11.003 -0.7658 -0.0041  0.3147
 5048TIP3    H136559   2.040   3.630  11.011  0.1174  1.0467  0.2586
 5048TIP3    H236560   1.945   3.715  11.093 -0.7999  0.0112  0.3026
 5049TIP3   OH236561   6.361   6.537  11.002  0.2158  0.5691  0.7879
 5049TIP3    H136562   6.292   6.503  10.945  0.6049 -0.3413  0.8432
 5049TIP3    H236563   6.346   6.493  11.085  0.6463  0.6486  0.9050
 5050TIP3   OH236564   0.906   6.687   2.117 -0.1653 -0.2845 -0.1711
 5050TIP3    H136565   0.952   6.754   2.168 -1.0224  0.5753 -0.4817
 5050TIP3    H236566   0.924   6.605   2.162  1.6890  0.0161 -0.3184
 5051TIP3   OH236567   6.805   7.170   0.364  0.6797 -0.0421 -0.3618
 5051TIP3    H136568   6.733   7.233   0.358  2.2697  1.7574 -1.7761
 5051TIP3    H236569   6.781   7.100   0.304 -0.4741 -0.1522  0.1891
 5052TIP3   OH236570   3.854   5.905  11.730  0.0779  0.0142  0.0407
 5052TIP3    H136571   3.804   5.835  11.687  0.8957 -0.4824 -0.1402
 5052TIP3    H236572   3.914   5.936  11.662  0.2931  0.3195  0.3682
 5053TIP3   OH236573   2.997   2.993   1.986 -0.8452 -0.1920  0.0115
 5053TIP3    H136574   3.035   2.928   2.045 -2.7638 -1.7337 -0.3682
 5053TIP3    H236575   2.915   2.954   1.956 -1.1943  1.6551 -1.6556
 5054TIP3   OH236576   4.811   5.403  14.006 -0.0054 -0.1242 -0.1803
 5054TIP3    H136577   4.816   5.327  13.949  0.5370 -0.2339  0.0124
 5054TIP3    H236578   4.761   5.373  14.082 -0.2614 -0.1320 -0.3524
 5055TIP3   OH236579   2.810   6.669   3.590 -0.5773  0.0288 -0.0534
 5055TIP3    H136580   2.858   6.717   3.523  0.4332 -3.2992 -1.9614
 5055TIP3    H236581   2.730   6.640   3.546 -0.2816 -1.5243  0.3673
 5056TIP3   OH236582   4.280   4.043  12.157 -0.4480 -0.1732 -0.3053
 5056TIP3    H136583   4.375   4.049  12.170  0.0455 -4.0391 -0.9897
 5056TIP3    H236584   4.268   4.053  12.063 -0.5092 -1.0015 -0.3966
 5057TIP3   OH236585   2.861   6.609  10.047 -0.0559 -0.0514 -0.6444
 5057TIP3    H136586   2.770   6.639  10.041 -1.2499 -3.3761 -1.1657
 5057TIP3    H236587   2.884   6.582   9.958  0.3925 -1.8779 -0.0236
 5058TIP3   OH236588   6.017   4.375  10.588 -0.0634 -0.6921  0.0502
 5058TIP3    H136589   6.025   4.341  10.677  1.0325  0.1574  0.3019
 5058TIP3    H236590   5.953   4.446  10.595 -0.1774 -0.8021  0.1139
 5059TIP3   OH236591   4.240   0.184   0.855 -0.1673 -0.6008 -0.3577
 5059TIP3    H136592   4.319   0.139   0.884  0.5959  0.2356 -1.0678
 5059TIP3    H236593   4.212   0.137   0.776 -1.5508 -2.1236  0.9638
 5060TIP3   OH236594   0.633   6.484  13.388  0.3835  0.3151 -0.7850
 5060TIP3    H136595   0.711   6.524  13.349  0.2993  1.0310 -0.2472
 5060TIP3    H236596   0.587   6.557  13.429  0.0359 -0.2822 -0.0879
 5061TIP3   OH236597   2.008   3.491  10.098 -0.1852 -0.2680 -0.5455
 5061TIP3    H136598   2.046   3.553  10.160 -1.6088 -1.3397  1.5160
 5061TIP3    H236599   2.084   3.447  10.058  0.7887  0.2454  0.6676
 5062TIP3   OH236600   0.741   1.047  13.446 -0.0657  0.0319 -0.4041
 5062TIP3    H136601   0.816   1.036  13.387 -0.6039  0.3381 -1.1662
 5062TIP3    H236602   0.773   1.021  13.532  0.0245 -3.1434 -1.2583
 5063TIP3   OH236603   7.143   4.082  12.993 -0.0842 -0.2372  0.0982
 5063TIP3    H136604   7.171   4.067  13.083 -0.1549 -3.5331 -0.3339
 5063TIP3    H236605   7.220   4.062  12.940 -0.9865 -1.8081 -0.6957
 5064TIP3   OH236606   3.222   0.965  14.765 -0.3037  0.0220  0.3390
 5064TIP3    H136607   3.271   1.035  14.807 -1.1340  0.3312  0.8237
 5064TIP3    H236608   3.204   0.903  14.835 -0.0084 -0.4339  0.0168
 5065TIP3   OH236609   2.045   4.271  15.124 -0.5090  0.0076 -0.2732
 5065TIP3    H136610   1.977   4.317  15.173  0.9618  0.5576  1.3553
 5065TIP3    H236611   2.065   4.194  15.179 -0.5441 -0.7301 -1.2669
 5066TIP3   OH236612   6.509   6.151  10.962  0.2508  0.0028  0.0384
 5066TIP3    H136613   6.586   6.137  10.907  0.9264  2.2060  0.3238
 5066TIP3    H236614   6.452   6.077  10.942  2.6212 -2.0003  0.2046
 5067TIP3   OH236615   0.731   4.806  11.592  0.1291 -0.1884 -0.3819
 5067TIP3    H136616   0.670   4.761  11.650 -1.8372  0.2193 -2.0240
 5067TIP3    H236617   0.751   4.888  11.637 -1.9407  0.4585 -0.5222
 5068TIP3   OH236618   6.353   4.999   9.801  0.1918 -0.8878  0.0508
 5068TIP3    H136619   6.368   5.011   9.707  1.0944 -0.2436  0.2595
 5068TIP3    H236620   6.331   4.906   9.810 -0.9892 -0.7394 -0.9129
 5069TIP3   OH236621   0.268   2.804  12.377  0.0365  0.1449 -0.5635
 5069TIP3    H136622   0.316   2.723  12.395  0.4593  1.0499  3.0072
 5069TIP3    H236623   0.183   2.773  12.343  0.4130 -1.7914  0.1095
 5070TIP3   OH236624   6.042   3.570   9.875 -0.3288 -0.2151  0.4686
 5070TIP3    H136625   6.041   3.481   9.912 -0.2169 -1.2119 -1.7599
 5070TIP3    H236626   6.120   3.573   9.821 -1.7850  0.1880 -1.7657
 5071TIP3   OH236627   2.237   7.153  10.867 -0.1579 -0.1241 -0.4175
 5071TIP3    H136628   2.204   7.230  10.821  1.0530  1.1677  0.7729
 5071TIP3    H236629   2.321   7.181  10.903 -0.0992 -1.7294  0.8080
 5072TIP3   OH236630   3.016   4.509  12.235 -0.5571 -0.6700  0.1049
 5072TIP3    H136631   3.033   4.437  12.175 -3.7643 -2.3293  0.9482
 5072TIP3    H236632   3.096   4.519  12.286  0.3269 -2.9007 -0.7542
 5073TIP3   OH236633   3.244   4.544  11.229 -0.0725  0.0757  1.0288
 5073TIP3    H136634   3.250   4.450  11.241 -0.3400 -0.1742 -0.5170
 5073TIP3    H236635   3.240   4.556  11.134 -2.0009  1.5105  1.2198
 5074TIP3   OH236636   2.040   5.333  11.880  0.3675  0.0686  0.3327
 5074TIP3    H136637   2.088   5.286  11.812  0.4202 -0.5159  0.7525
 5074TIP3    H236638   2.068   5.289  11.961  0.3979  0.8282  0.7353
 5075TIP3   OH236639   3.827   5.736  11.941  0.3786 -0.6502  0.1752
 5075TIP3    H136640   3.755   5.683  11.908 -0.2838 -1.2090  2.3494
 5075TIP3    H236641   3.813   5.823  11.903 -1.5960 -0.6932  0.7082
 5076TIP3   OH236642   0.669   6.332   0.759  0.1871 -0.0980  0.3468
 5076TIP3    H136643   0.675   6.319   0.854  0.0374  0.5309  0.4517
 5076TIP3    H236644   0.641   6.248   0.725  2.3982 -1.0026  0.6111
 5077TIP3   OH236645   5.852   6.241  14.403 -0.7347  0.6916  0.5394
 5077TIP3    H136646   5.909   6.304  14.359 -1.5456  0.6000 -0.6893
 5077TIP3    H236647   5.766   6.256  14.365 -1.2890 -0.0062  1.4770
 5078TIP3   OH236648   2.494   2.490  11.398  0.3876  0.1550  0.1429
 5078TIP3    H136649   2.434   2.431  11.353  0.8538  0.9173 -1.5311
 5078TIP3    H236650   2.438   2.549  11.448 -0.2264  0.5174 -0.9687
 5079TIP3   OH236651   0.675   6.876   2.008  0.2271  0.0404 -0.1120
 5079TIP3    H136652   0.608   6.870   2.076  0.4826 -1.2173  0.0559
 5079TIP3    H236653   0.733   6.802   2.025  1.6350  1.0573 -0.2918
 5080TIP3   OH236654   3.160   2.528  10.615 -0.5840  0.3589 -1.0769
 5080TIP3    H136655   3.105   2.601  10.589 -0.0222  0.2102 -2.8077
 5080TIP3    H236656   3.218   2.514  10.540 -1.1062 -2.2740 -1.0698
 5081TIP3   OH236657   4.202   3.506  10.116 -0.5984  0.4988 -0.1795
 5081TIP3    H136658   4.132   3.542  10.170 -0.1890  0.8323  0.1284
 5081TIP3    H236659   4.239   3.435  10.169 -0.1542  0.8684  0.0117
 5082TIP3   OH236660   4.439   3.472  11.264  0.7562  0.4211  0.7159
 5082TIP3    H136661   4.404   3.561  11.252  1.9396  1.0564  1.7589
 5082TIP3    H236662   4.492   3.456  11.186 -0.9088 -0.1351 -0.3679
 5083TIP3   OH236663   1.047   4.089  14.525  0.0749  0.1182  0.4630
 5083TIP3    H136664   1.084   4.046  14.601  0.1450  2.0465  1.6000
 5083TIP3    H236665   0.954   4.102  14.547 -0.6375 -1.8714 -1.0423
 5084TIP3   OH236666   6.022   2.349  14.354 -0.3177  0.1032  0.3156
 5084TIP3    H136667   6.102   2.360  14.302 -0.0721 -1.2857  0.3592
 5084TIP3    H236668   6.011   2.432  14.399  1.4453  0.1336  0.7548
 5085TIP3   OH236669   1.620   6.837  12.941  0.0322  0.9016 -0.5228
 5085TIP3    H136670   1.652   6.755  12.977  0.2568  0.4859 -1.6430
 5085TIP3    H236671   1.699   6.885  12.915 -0.1377  0.0482 -2.9097
 5086TIP3   OH236672   3.301   2.619  11.267  0.4742 -0.0055 -0.4218
 5086TIP3    H136673   3.301   2.676  11.190 -0.0645  1.3441  0.5183
 5086TIP3    H236674   3.349   2.670  11.333  1.4206 -1.3784 -0.0197
 5087TIP3   OH236675   0.112   0.587  13.949  0.0618 -0.4127  0.0986
 5087TIP3    H136676   0.144   0.673  13.977  0.6981 -1.0346  1.3681
 5087TIP3    H236677   0.043   0.565  14.012  0.1118 -0.9682 -0.0368
 5088TIP3   OH236678   2.411   5.243  11.095  0.1324 -0.2808 -0.2749
 5088TIP3    H136679   2.380   5.243  11.004 -1.4095 -2.6085  0.1587
 5088TIP3    H236680   2.391   5.155  11.127  2.5455 -0.1982  1.7245
 5089TIP3   OH236681   4.725   0.304   9.913  0.0656  0.1971  0.0337
 5089TIP3    H136682   4.664   0.285   9.842  0.5936 -0.6060 -0.2312
 5089TIP3    H236683   4.723   0.225   9.967  0.5532  0.3273  0.2456
 5090TIP3   OH236684   3.442   1.995  12.463 -0.2745 -0.2248 -0.2725
 5090TIP3    H136685   3.458   2.067  12.402  0.0115  0.5266  0.6680
 5090TIP3    H236686   3.380   2.030  12.526 -0.1981 -0.8368  0.1491
 5091TIP3   OH236687   5.419   1.519   1.333  0.0279 -0.1973 -0.4735
 5091TIP3    H136688   5.396   1.603   1.372 -1.2065 -1.3433  1.4634
 5091TIP3    H236689   5.500   1.535   1.284  0.2272  1.9266  0.4767
 5092TIP3   OH236690   6.840   3.745  10.331 -0.1908  0.7384  0.2127
 5092TIP3    H136691   6.861   3.664  10.285 -0.0752 -0.1017  1.6635
 5092TIP3    H236692   6.809   3.804  10.263  1.1991  0.0070 -1.1244
 5093TIP3   OH236693   1.361   5.796   4.346  0.0688  0.0841 -0.1030
 5093TIP3    H136694   1.333   5.887   4.336 -0.1601  0.1480  1.0578
 5093TIP3    H236695   1.353   5.760   4.258  1.8285  1.6362 -0.9745
 5094TIP3   OH236696   5.148   4.827  11.729  0.0109  0.7207 -0.2370
 5094TIP3    H136697   5.105   4.842  11.645  0.9697  0.6098 -0.7671
 5094TIP3    H236698   5.200   4.748  11.716 -0.3930  0.2791  0.6958
 5095TIP3   OH236699   6.926   6.347  11.055 -0.6738  0.3685 -0.1332
 5095TIP3    H136700   6.990   6.418  11.059 -0.7443  0.3974  0.7599
 5095TIP3    H236701   6.951   6.296  10.978  1.5177 -0.6417  1.1799
 5096TIP3   OH236702   0.525   0.150  12.250 -0.2428  0.2876 -0.5519
 5096TIP3    H136703   0.495   0.085  12.186  0.2531  0.7380 -1.2497
 5096TIP3    H236704   0.524   0.233  12.202  0.7993  0.5214 -0.1904
 5097TIP3   OH236705   1.739   3.508   0.078  0.2722  0.4615 -0.4396
 5097TIP3    H136706   1.703   3.451   0.145 -1.0553  0.9993 -0.6546
 5097TIP3    H236707   1.674   3.506   0.007  0.2252  2.1311 -0.4906
 5098TIP3   OH236708   5.578   3.488  10.414 -0.2562 -0.1738 -0.3049
 5098TIP3    H136709   5.564   3.396  10.437  0.3600 -0.1603  0.1471
 5098TIP3    H236710   5.621   3.526  10.491  0.6034  0.1935 -0.9480
 5099TIP3   OH236711   5.064   0.456   1.859 -0.1654 -0.4374  0.2193
 5099TIP3    H136712   5.043   0.454   1.766 -0.5602 -1.2916  0.3204
 5099TIP3    H236713   5.143   0.510   1.864  0.3032 -1.0055 -0.7009
 5100TIP3   OH236714   2.455   4.298  12.666 -0.2027  0.3852  0.3029
 5100TIP3    H136715   2.422   4.370  12.720  0.1676 -0.5293  1.7817
 5100TIP3    H236716   2.378   4.268  12.618 -0.6454  0.9124  0.6667
 5101TIP3   OH236717   0.865   3.023  12.383  0.5134  0.5719 -0.3540
 5101TIP3    H136718   0.794   3.005  12.444  0.0447  1.6300 -0.5630
 5101TIP3    H236719   0.836   3.100  12.334  0.4515 -0.7790 -2.5951
 5102TIP3   OH236720   6.607   5.984  12.575  0.0815 -0.4354 -0.0081
 5102TIP3    H136721   6.672   6.007  12.642  0.5109 -2.2948  0.2699
 5102TIP3    H236722   6.657   5.980  12.494  0.0394 -0.5385 -0.0283
 5103TIP3   OH236723   0.818   3.209  14.382 -0.0809 -0.3317  0.1914
 5103TIP3    H136724   0.857   3.122  14.377 -0.6099 -0.4892 -1.8978
 5103TIP3    H236725   0.739   3.204  14.329  0.0294  1.4974 -0.2117
 5104TIP3   OH236726   5.761   6.572  14.349 -0.6187  0.3478  0.3094
 5104TIP3    H136727   5.826   6.573  14.419  0.8211 -2.2551 -0.8055
 5104TIP3    H236728   5.807   6.609  14.274 -0.9342 -0.0901 -0.1018
 5105TIP3   OH236729   6.479   6.070  13.495 -0.0481  0.2033 -0.1755
 5105TIP3    H136730   6.554   6.021  13.529  0.0640  0.6955  0.3010
 5105TIP3    H236731   6.429   6.005  13.444  0.4597 -0.2339 -0.1291
 5106TIP3   OH236732   3.686   4.631  12.542  0.7024  0.5305  0.1586
 5106TIP3    H136733   3.722   4.544  12.527 -0.3651  0.1619 -0.3802
 5106TIP3    H236734   3.756   4.691  12.515  0.5522 -0.1575 -2.0058
 5107TIP3   OH236735   3.422   2.826  12.388 -0.4462  0.1097  0.5153
 5107TIP3    H136736   3.341   2.841  12.437 -0.4598 -0.6408  0.7367
 5107TIP3    H236737   3.434   2.732  12.392  0.4034  0.2131  0.4151
 5108TIP3   OH236738   1.018   0.819   0.568  0.2306  0.5500  0.5076
 5108TIP3    H136739   0.985   0.872   0.641  1.5701  0.6610  1.0600
 5108TIP3    H236740   0.973   0.735   0.577 -1.5444  1.3818 -0.0826
 5109TIP3   OH236741   0.394   6.575   2.452 -0.1597  0.6196 -0.2865
 5109TIP3    H136742   0.426   6.526   2.527  0.1408 -0.9977 -1.4053
 5109TIP3    H236743   0.315   6.619   2.483  0.3178  0.5346  1.1214
 5110TIP3   OH236744   2.993   3.122  10.117 -0.4464 -0.1421  0.5283
 5110TIP3    H136745   3.063   3.150  10.177  0.2013 -0.6986  0.0488
 5110TIP3    H236746   3.000   3.183  10.043  1.0622 -1.5827 -0.5849
 5111TIP3   OH236747   6.313   0.010  14.426 -0.0633 -0.5546 -0.0273
 5111TIP3    H136748   6.385   0.036  14.369 -0.6358 -1.7419 -1.3515
 5111TIP3    H236749   6.240   0.068  14.401 -0.4870 -1.4542 -0.9615
 5112TIP3   OH236750   2.642   4.143  11.124 -0.2735  0.0740  0.1086
 5112TIP3    H136751   2.573   4.080  11.144  1.2624 -1.1196  1.9452
 5112TIP3    H236752   2.719   4.090  11.107  0.7626  1.4335  0.4313
 5113TIP3   OH236753   0.015   3.366  12.223 -0.2324 -0.4387  0.1166
 5113TIP3    H136754   0.072   3.405  12.291 -2.3578 -1.3442  2.5896
 5113TIP3    H236755   0.038   3.414  12.143  2.3791  0.7647  1.4326
 5114TIP3   OH236756   0.650   4.170  15.111 -0.3371 -0.7086  0.3116
 5114TIP3    H136757   0.686   4.257  15.095 -0.1795 -1.0131 -1.1713
 5114TIP3    H236758   0.585   4.183  15.180 -0.4405  0.6208 -0.0073
 5115TIP3   OH236759   3.669   0.104   0.071 -0.8355  0.6494  0.2435
 5115TIP3    H136760   3.715   0.187   0.058 -1.7073  1.0388 -0.4350
 5115TIP3    H236761   3.725   0.038   0.030 -0.1612  0.8922  0.7506
 5116TIP3   OH236762   2.271   5.342   9.716  0.0090  0.5564 -0.0961
 5116TIP3    H136763   2.281   5.267   9.658 -0.3864  0.3185  0.1335
 5116TIP3    H236764   2.211   5.400   9.670 -2.5358 -0.8626  1.1971
 5117TIP3   OH236765   2.323   5.709  11.537 -0.5352 -0.9431  0.9391
 5117TIP3    H136766   2.386   5.771  11.575 -0.2453 -0.0012 -0.9590
 5117TIP3    H236767   2.274   5.675  11.612 -0.9037  1.8168  2.0609
 5118TIP3   OH236768   6.304   1.294  10.244  0.0307 -0.0019  0.4210
 5118TIP3    H136769   6.391   1.292  10.204 -0.4048  0.5665 -0.6016
 5118TIP3    H236770   6.251   1.237  10.189 -0.4534  0.3784  0.4856
 5119TIP3   OH236771   6.268   4.326   0.885  0.2705 -0.2209  0.4433
 5119TIP3    H136772   6.214   4.249   0.905  0.8102 -0.8553 -0.4602
 5119TIP3    H236773   6.313   4.346   0.968 -0.1176 -0.6834  0.7715
 5120TIP3   OH236774   3.718   6.583  11.204 -0.6156  0.1277 -0.6110
 5120TIP3    H136775   3.811   6.587  11.179 -0.2287  1.2264  0.7876
 5120TIP3    H236776   3.719   6.544  11.291 -1.4064  0.6120 -0.3710
 5121TIP3   OH236777   1.941   4.465  13.557  0.2148  0.4418  0.5054
 5121TIP3    H136778   2.027   4.430  13.531  0.6972  1.1486  1.1213
 5121TIP3    H236779   1.917   4.413  13.633 -1.4078 -1.9424 -1.4726
 5122TIP3   OH236780   3.761   1.294  10.199  0.2547  0.2146  0.3240
 5122TIP3    H136781   3.846   1.304  10.243  0.5623 -2.3474  0.4324
 5122TIP3    H236782   3.715   1.228  10.250 -0.9527  0.0086 -0.9684
 5123TIP3   OH236783   0.170   4.286  15.204  0.3508 -0.1220  0.5043
 5123TIP3    H136784   0.168   4.198  15.240  0.0949 -0.0161  0.7502
 5123TIP3    H236785   0.263   4.303  15.187  0.4984 -0.0956  1.3049
 5124TIP3   OH236786   0.095   6.952  13.944  0.2165  0.1686 -1.1360
 5124TIP3    H136787   0.098   7.026  14.004  1.3804 -0.4793 -0.3430
 5124TIP3    H236788   0.187   6.934  13.924 -0.0587 -0.8868 -1.5053
 5125TIP3   OH236789   3.173   4.537  10.756 -0.2252 -0.2757 -0.1232
 5125TIP3    H136790   3.101   4.574  10.808  0.8719  0.6222  0.8218
 5125TIP3    H236791   3.167   4.582  10.672  0.9238  2.0405  0.9118
 5126TIP3   OH236792   0.202   5.254  10.808 -0.0819  0.3700 -0.4598
 5126TIP3    H136793   0.213   5.181  10.747 -0.9496  0.5139 -0.8027
 5126TIP3    H236794   0.127   5.230  10.862  1.8006 -0.6246  1.8689
 5127TIP3   OH236795   3.913   1.611  14.565 -0.0232  0.7919 -0.6004
 5127TIP3    H136796   3.913   1.700  14.530  1.4625  0.7569 -0.7475
 5127TIP3    H236797   3.985   1.567  14.520 -1.5876 -0.9360 -1.5730
 5128TIP3   OH236798   0.305   7.031  11.124 -0.2963 -0.1805 -0.0411
 5128TIP3    H136799   0.253   6.951  11.119 -0.0148 -0.3439 -0.3324
 5128TIP3    H236800   0.384   7.012  11.073  1.6315 -1.1223  3.0266
 5129TIP3   OH236801   3.304   3.917   9.439 -0.3942 -0.2095  0.1947
 5129TIP3    H136802   3.255   3.837   9.422 -0.9236  0.4842 -1.8017
 5129TIP3    H236803   3.258   3.984   9.389  1.8560  0.7180 -0.7520
 5130TIP3   OH236804   5.800   3.747   0.345 -0.8007  0.0379  0.6621
 5130TIP3    H136805   5.714   3.767   0.382 -1.0212  1.0277 -0.2903
 5130TIP3    H236806   5.783   3.740   0.251  0.3737  1.7870  0.2669
 5131TIP3   OH236807   5.331   4.752  15.040  0.3652 -0.0287 -0.0305
 5131TIP3    H136808   5.284   4.685  14.991 -1.0319  0.0973  1.0544
 5131TIP3    H236809   5.423   4.732  15.027 -0.0082 -1.5328 -0.5724
 5132TIP3   OH236810   3.189   2.858  10.329  0.1824 -0.0592  0.6647
 5132TIP3    H136811   3.210   2.951  10.315  1.7674 -0.4933 -0.0122
 5132TIP3    H236812   3.157   2.854  10.419  0.8057  1.0346  0.9561
 5133TIP3   OH236813   4.884   2.020  10.413  0.1724  0.3071  0.3272
 5133TIP3    H136814   4.820   1.993  10.347 -1.5341 -0.7231  2.2980
 5133TIP3    H236815   4.883   1.949  10.477  0.2764  2.1505  2.4609
 5134TIP3   OH236816   0.405   4.188  12.431 -0.5458  0.1214  0.4245
 5134TIP3    H136817   0.340   4.252  12.459 -0.2914  0.5823 -0.0186
 5134TIP3    H236818   0.400   4.188  12.335  0.9963  1.1450  0.2993
 5135TIP3   OH236819   1.810   2.609   3.330  0.0993 -0.5126 -0.4037
 5135TIP3    H136820   1.766   2.525   3.318  0.0968 -0.2975 -2.1112
 5135TIP3    H236821   1.879   2.590   3.394 -0.9502 -1.3980  0.5226
 5136TIP3   OH236822   0.277   5.623  13.870  0.1306  0.3201 -0.6491
 5136TIP3    H136823   0.344   5.653  13.809  0.0627  1.4132 -0.2049
 5136TIP3    H236824   0.318   5.551  13.917  0.4004 -0.1172 -1.5383
 5137TIP3   OH236825   5.687   4.946  10.174 -0.4351 -0.0557  0.2407
 5137TIP3    H136826   5.703   4.854  10.196  1.2302  0.4166  1.1698
 5137TIP3    H236827   5.665   4.944  10.080 -1.1770 -1.4634  0.4124
 5138TIP3   OH236828   3.173   5.667  10.169  0.2053 -0.2720  0.1882
 5138TIP3    H136829   3.124   5.596  10.126 -0.7560 -0.3276  1.3408
 5138TIP3    H236830   3.108   5.712  10.222  1.3418 -0.1453  1.5175
 5139TIP3   OH236831   1.301   3.286  12.035  0.0728 -0.1949 -0.2545
 5139TIP3    H136832   1.250   3.307  11.956  1.6184  0.3066 -1.1643
 5139TIP3    H236833   1.350   3.366  12.054  3.1008 -1.5965 -1.4561
 5140TIP3   OH236834   1.963   0.986  11.806  0.7149  0.1547 -0.3084
 5140TIP3    H136835   2.000   1.029  11.730 -0.2095 -1.6972 -1.8932
 5140TIP3    H236836   1.869   0.981  11.788  0.2763  0.7725  1.5512
 5141TIP3   OH236837   1.274   0.652   9.346 -0.2647 -0.5714  0.1144
 5141TIP3    H136838   1.273   0.558   9.362  0.7132 -0.3721  1.6535
 5141TIP3    H236839   1.351   0.666   9.290  0.5449 -0.5577  1.1853
 5142TIP3   OH236840   5.366   6.162  14.255 -0.0889 -0.2767 -0.0204
 5142TIP3    H136841   5.406   6.083  14.291  0.0626 -0.4194 -0.5038
 5142TIP3    H236842   5.434   6.229  14.263 -1.2324  0.6731  3.3783
 5143TIP3   OH236843   0.456   5.852   0.625  0.2778 -0.0394 -0.0192
 5143TIP3    H136844   0.516   5.926   0.630  1.3938 -0.7037 -2.0807
 5143TIP3    H236845   0.399   5.873   0.550 -0.3461 -0.6062  0.2871
 5144TIP3   OH236846   4.857   6.127  15.048 -0.2010 -0.3536  0.1137
 5144TIP3    H136847   4.796   6.112  15.120  0.9741 -0.0271  1.2373
 5144TIP3    H236848   4.861   6.223  15.039 -0.8018 -0.4108 -0.8088
 5145TIP3   OH236849   4.754   1.997   2.578  0.2220  0.3515  0.4106
 5145TIP3    H136850   4.730   1.915   2.620  2.0851 -0.5595 -0.1883
 5145TIP3    H236851   4.754   2.062   2.649 -0.2815 -0.3666  1.0792
 5146TIP3   OH236852   3.193   6.019  15.317 -0.6524  0.4794  0.5779
 5146TIP3    H136853   3.129   5.951  15.297 -0.6825  0.3460  1.1039
 5146TIP3    H236854   3.142   6.099  15.327 -0.6944  0.4498  0.5987
 5147TIP3   OH236855   2.157   1.611  12.326 -0.3271 -1.1326 -0.4860
 5147TIP3    H136856   2.142   1.541  12.390 -1.4785 -0.7204 -0.2987
 5147TIP3    H236857   2.170   1.565  12.243 -0.5996 -1.5864 -0.2784
 5148TIP3   OH236858   1.628   2.946  11.605 -0.3826 -0.0636 -0.3278
 5148TIP3    H136859   1.581   2.949  11.523 -0.8958  0.8479 -0.0134
 5148TIP3    H236860   1.661   2.857  11.611 -1.4846 -0.5162 -0.8770
 5149TIP3   OH236861   5.721   2.820   9.805  0.0168 -0.0304 -0.0181
 5149TIP3    H136862   5.645   2.764   9.785  0.6246 -0.9080  0.0487
 5149TIP3    H236863   5.794   2.778   9.758 -0.0060  2.2941 -2.3427
 5150TIP3   OH236864   5.233   6.240  10.954  0.7296 -0.1582 -0.3501
 5150TIP3    H136865   5.253   6.297  11.028 -0.2893  0.3289 -0.4229
 5150TIP3    H236866   5.231   6.152  10.990 -0.5470  0.1432  0.4017
 5151TIP3   OH236867   2.700   4.779  13.325 -0.1521  0.1107 -0.6318
 5151TIP3    H136868   2.772   4.716  13.328  0.2896  0.6399  0.2106
 5151TIP3    H236869   2.622   4.729  13.348  0.1017 -0.2444 -0.5528
 5152TIP3   OH236870   6.028   0.796  13.105 -0.2815  0.5127  0.2173
 5152TIP3    H136871   6.046   0.838  13.190  0.3382 -1.7046  1.2527
 5152TIP3    H236872   5.983   0.864  13.055  1.9076  2.8991  1.2220
 5153TIP3   OH236873   3.854   5.525  14.045 -0.5649 -0.1208  0.4042
 5153TIP3    H136874   3.847   5.551  13.953 -1.1761 -0.6568  0.2919
 5153TIP3    H236875   3.851   5.608  14.093  1.0159  0.2633 -0.0995
 5154TIP3   OH236876   3.654   4.948   2.157 -0.4086 -0.6184 -0.4627
 5154TIP3    H136877   3.745   4.928   2.179  0.1078 -2.7468 -3.8110
 5154TIP3    H236878   3.659   4.984   2.068 -2.7615  0.5315 -0.1834
 5155TIP3   OH236879   2.002   1.262  11.926 -0.2367  0.1244  0.3485
 5155TIP3    H136880   2.002   1.357  11.928 -0.7655  0.1280  2.6451
 5155TIP3    H236881   2.078   1.239  11.873  0.0002  1.8128 -0.0838
 5156TIP3   OH236882   1.187   4.109  11.538 -0.1668 -0.1145 -0.3933
 5156TIP3    H136883   1.170   4.191  11.585  0.0248  0.3514 -1.1260
 5156TIP3    H236884   1.100   4.069  11.528 -0.3972  0.4921 -0.9163
 5157TIP3   OH236885   0.204   4.390  14.887  0.2793 -0.3347  0.3297
 5157TIP3    H136886   0.172   4.337  14.815  0.9872  0.3193 -0.5009
 5157TIP3    H236887   0.234   4.327  14.952  1.4619 -0.9859 -0.7905
 5158TIP3   OH236888   1.497   6.184  13.195 -0.0416  0.2754  0.0524
 5158TIP3    H136889   1.446   6.242  13.138 -0.5172 -0.7285 -0.5710
 5158TIP3    H236890   1.574   6.235  13.218  0.5181  0.4830 -2.0754
 5159TIP3   OH236891   6.262   2.040  13.410  0.4181  0.0689 -0.2216
 5159TIP3    H136892   6.272   1.953  13.373  1.7909 -0.1817  0.6483
 5159TIP3    H236893   6.168   2.051  13.422  0.2563 -1.4609  0.0463
 5160TIP3   OH236894   6.297   3.569  10.246 -0.1602 -0.0040 -0.0031
 5160TIP3    H136895   6.224   3.614  10.289 -0.1254 -0.1812  0.2471
 5160TIP3    H236896   6.298   3.604  10.157 -0.7123 -0.1857 -0.0880
 5161TIP3   OH236897   5.409   7.018   3.146 -0.1299 -0.3358 -0.2726
 5161TIP3    H136898   5.432   7.070   3.068 -1.5456 -0.5432 -0.8601
 5161TIP3    H236899   5.433   6.928   3.122 -0.6894 -0.4200 -0.5395
 5162TIP3   OH236900   4.127   7.115  11.104  0.0978  0.2155 -0.1293
 5162TIP3    H136901   4.054   7.054  11.097  0.2218 -0.1107  1.0977
 5162TIP3    H236902   4.092   7.198  11.073 -0.9102  0.1367  0.7298
 5163TIP3   OH236903   6.549   5.571  14.531  0.0460  0.0718  0.3829
 5163TIP3    H136904   6.574   5.548  14.620 -3.1811 -0.5768  1.2377
 5163TIP3    H236905   6.555   5.489  14.482  2.1472  0.4952 -0.1619
 5164TIP3   OH236906   2.394   5.510  13.681 -0.4556 -0.2259  0.2753
 5164TIP3    H136907   2.366   5.439  13.739  1.5082 -0.2477  1.2895
 5164TIP3    H236908   2.321   5.522  13.621 -1.0234 -2.8447  0.3099
 5165TIP3   OH236909   4.658   2.017  13.966 -0.1307  0.1465 -0.4327
 5165TIP3    H136910   4.731   1.960  13.992 -1.4592 -1.2031  0.4888
 5165TIP3    H236911   4.689   2.061  13.887  1.4837 -0.7615 -0.3503
 5166TIP3   OH236912   7.054   1.431  13.995 -0.0509 -0.4063  0.1452
 5166TIP3    H136913   7.073   1.456  13.905 -1.6417  1.0058  0.1704
 5166TIP3    H236914   7.134   1.452  14.043 -0.6230  2.9776 -0.1874
 5167TIP3   OH236915   0.980   5.398   0.563  0.2042  0.3314 -0.7254
 5167TIP3    H136916   0.986   5.321   0.619  2.0837  1.6803  1.1193
 5167TIP3    H236917   0.967   5.363   0.475 -3.1239 -1.8876  0.4595
 5168TIP3   OH236918   6.123   3.694   9.568 -0.2848  0.2781  0.1891
 5168TIP3    H136919   6.161   3.619   9.615  1.1410  0.0680 -1.1829
 5168TIP3    H236920   6.062   3.654   9.506 -1.2955  0.4617  1.0488
 5169TIP3   OH236921   1.823   4.586  11.474 -0.5265  0.1199 -0.2262
 5169TIP3    H136922   1.878   4.553  11.545  0.1023 -0.1829 -0.8374
 5169TIP3    H236923   1.734   4.558  11.497 -0.2168 -0.6791  0.0387
 5170TIP3   OH236924   4.355   6.624  10.846 -0.5882 -0.1560  0.2066
 5170TIP3    H136925   4.439   6.604  10.887 -0.6000 -0.5057  0.0674
 5170TIP3    H236926   4.341   6.552  10.783 -1.8073 -1.0642  1.4573
 5171TIP3   OH236927   4.326   2.789  12.199 -0.3335  0.1536  0.1783
 5171TIP3    H136928   4.356   2.815  12.112 -0.8324  0.1848  0.0150
 5171TIP3    H236929   4.256   2.727  12.183 -2.1886  2.0412  0.5060
 5172TIP3   OH236930   5.529   5.787  10.907  0.0762  0.8914  0.4701
 5172TIP3    H136931   5.499   5.781  10.816 -1.6587  0.4603  1.0271
 5172TIP3    H236932   5.570   5.873  10.913  1.5681  0.3345 -1.0694
 5173TIP3   OH236933   4.710   4.455   3.949  0.4971 -0.1841 -0.1540
 5173TIP3    H136934   4.620   4.440   3.979  0.3254 -0.5616 -0.8470
 5173TIP3    H236935   4.743   4.524   4.008 -0.1150 -0.3019  0.3452
 5174TIP3   OH236936   3.154   0.237   2.150  0.2209  0.3389 -0.0955
 5174TIP3    H136937   3.077   0.226   2.094  0.0547  0.8809  0.0224
 5174TIP3    H236938   3.226   0.256   2.090  0.3788 -0.6901 -0.2496
 5175TIP3   OH236939   4.249   4.342  12.672 -0.3691  0.3678 -0.5593
 5175TIP3    H136940   4.279   4.262  12.715 -0.2005  1.9037  2.4233
 5175TIP3    H236941   4.224   4.313  12.584  0.4886 -2.7725  0.0780
 5176TIP3   OH236942   3.109   5.587   9.855 -0.2815 -0.4249 -0.2565
 5176TIP3    H136943   3.183   5.568   9.798  0.2024  0.3354  0.1052
 5176TIP3    H236944   3.076   5.671   9.825  2.7072  2.3367  3.1985
 5177TIP3   OH236945   6.500   0.588  11.689 -0.4218 -0.5080 -0.0272
 5177TIP3    H136946   6.514   0.582  11.594  1.7646 -0.5382  0.2481
 5177TIP3    H236947   6.499   0.498  11.719  1.0237 -0.4695  0.2093
 5178TIP3   OH236948   4.954   5.061   0.606  0.1765 -0.4092  0.1964
 5178TIP3    H136949   4.999   5.061   0.521  0.7832 -0.4504  0.5094
 5178TIP3    H236950   4.974   4.975   0.644 -1.9110 -1.2814 -0.5378
 5179TIP3   OH236951   6.187   2.703   9.998  0.2683 -0.1342 -0.5571
 5179TIP3    H136952   6.199   2.752   9.917  0.9050  1.5203  0.4891
 5179TIP3    H236953   6.149   2.766  10.059  0.1980 -1.2192  0.5538
 5180TIP3   OH236954   0.267   1.229  13.962  0.5124  0.9744 -0.0671
 5180TIP3    H136955   0.237   1.257  14.048  1.0710  0.3323  0.3423
 5180TIP3    H236956   0.345   1.282  13.946 -0.1943  1.8729 -0.6657
 5181TIP3   OH236957   2.036   5.605  10.330 -0.1586  0.6356  0.2671
 5181TIP3    H136958   2.024   5.651  10.413  0.8975  1.8611 -0.2350
 5181TIP3    H236959   1.992   5.521  10.343  0.0726  0.7606  2.1070
 5182TIP3   OH236960   5.260   2.734   0.222  0.5481  0.5707  0.3913
 5182TIP3    H136961   5.260   2.826   0.247 -0.0986  1.1753 -1.5891
 5182TIP3    H236962   5.187   2.726   0.160  1.1602 -1.0605 -0.1784
 5183TIP3   OH236963   1.024   2.995  14.328 -0.1830 -0.1043 -0.1357
 5183TIP3    H136964   1.104   2.947  14.305 -0.2223 -0.3014  0.1305
 5183TIP3    H236965   1.056   3.082  14.354  0.0483 -0.5066  0.9624
 5184TIP3   OH236966   5.453   5.916  13.521  0.4246  0.5114 -0.1102
 5184TIP3    H136967   5.464   5.842  13.461  0.8206  2.4773 -2.6231
 5184TIP3    H236968   5.362   5.909  13.551  0.0344 -0.2314 -1.4040
 5185TIP3   OH236969   0.365   4.073   9.673  0.4657 -0.0616  0.2938
 5185TIP3    H136970   0.341   3.983   9.695 -2.2321  0.0591 -1.6630
 5185TIP3    H236971   0.411   4.066   9.590  2.1449  0.2524  1.1566
 5186TIP3   OH236972   2.045   0.489  12.347  0.8882  0.6194 -0.0039
 5186TIP3    H136973   2.009   0.403  12.325  0.6472  0.7424 -0.0907
 5186TIP3    H236974   2.010   0.547  12.280  0.5403  0.9044  0.4194
 5187TIP3   OH236975   1.202   2.126  11.067  0.2331 -0.8050  0.3072
 5187TIP3    H136976   1.295   2.148  11.066 -0.1490  1.1113 -2.0134
 5187TIP3    H236977   1.159   2.204  11.033 -2.0060 -2.5440 -1.1267
 5188TIP3   OH236978   2.808   2.588  12.142  0.0177 -0.0728  0.1778
 5188TIP3    H136979   2.803   2.513  12.083 -1.4441  1.3688 -1.6364
 5188TIP3    H236980   2.721   2.593  12.182  0.9798 -1.0425  2.5996
 5189TIP3   OH236981   5.369   2.066  13.328  0.2833 -0.3897  0.0368
 5189TIP3    H136982   5.293   2.124  13.326  0.5168 -0.1044 -0.4788
 5189TIP3    H236983   5.353   2.002  13.259  0.3981 -0.4797  0.0917
 5190TIP3   OH236984   2.981   6.857  11.271 -0.2760 -0.2393  0.2833
 5190TIP3    H136985   3.028   6.913  11.333 -0.8744 -1.3840  1.8300
 5190TIP3    H236986   3.050   6.803  11.231  0.0628  0.1782  0.2938
 5191TIP3   OH236987   5.725   5.730   9.678  0.6095  0.3767 -0.3866
 5191TIP3    H136988   5.776   5.810   9.682  0.9475  0.1316  0.4750
 5191TIP3    H236989   5.758   5.684   9.601  2.5668 -0.3352  0.8067
 5192TIP3   OH236990   0.796   0.346  13.779  0.6027 -0.1460  0.2486
 5192TIP3    H136991   0.796   0.432  13.823  0.8097 -0.0479  0.0623
 5192TIP3    H236992   0.886   0.315  13.788  1.3721  1.0458 -2.3535
 5193TIP3   OH236993   5.163   5.712  10.442 -0.1541  0.7512  0.0329
 5193TIP3    H136994   5.183   5.627  10.402  1.9758  0.6618  1.1704
 5193TIP3    H236995   5.092   5.693  10.503 -0.3497 -0.0014 -0.4102
 5194TIP3   OH236996   2.180   3.041   0.894 -0.4672 -0.3357 -0.2423
 5194TIP3    H136997   2.141   2.995   0.968 -1.9518 -0.5926 -1.1384
 5194TIP3    H236998   2.216   3.122   0.932 -0.0224 -1.0663  0.9460
 5195TIP3   OH236999   1.984   0.410  12.037  0.0563  0.4130  0.2071
 5195TIP3    H137000   1.915   0.354  12.003  0.9108  0.3792 -1.6395
 5195TIP3    H237001   1.938   0.479  12.085 -1.0631 -1.1834  1.5204
 5196TIP3   OH237002   5.898   3.210  13.173 -0.0981  0.3180  0.4889
 5196TIP3    H137003   5.974   3.199  13.231 -1.4401 -1.7817  2.0118
 5196TIP3    H237004   5.934   3.207  13.085  1.4962 -3.1275  1.0630
 5197TIP3   OH237005   4.244   0.392   2.527 -0.1720 -0.7254  0.3849
 5197TIP3    H137006   4.253   0.322   2.591  1.7158  1.7446  3.0598
 5197TIP3    H237007   4.333   0.406   2.493  0.1630  2.1638  2.1238
 5198TIP3   OH237008   4.024   1.547  10.087 -0.2839 -0.0825  0.2885
 5198TIP3    H137009   4.014   1.481  10.018  2.9987  0.2182 -0.6770
 5198TIP3    H237010   4.087   1.610  10.050 -0.1702  1.3479  2.7212
 5199TIP3   OH237011   5.308   0.861   2.348 -0.7912  0.2006  0.2714
 5199TIP3    H137012   5.220   0.882   2.378 -0.7454 -2.4124  2.6838
 5199TIP3    H237013   5.301   0.773   2.313  0.7961  0.1488  0.0177
 5200TIP3   OH237014   0.621   5.459  13.322 -0.4475 -0.4472  0.2768
 5200TIP3    H137015   0.677   5.537  13.324  0.7772 -1.1541 -2.1823
 5200TIP3    H237016   0.602   5.440  13.414  0.1444  2.0789  0.9837
 5201TIP3   OH237017   6.544   5.376  11.119  0.2368 -0.5012  0.0458
 5201TIP3    H137018   6.480   5.409  11.182 -0.1675 -0.6754 -0.2708
 5201TIP3    H237019   6.548   5.282  11.137  0.4623 -0.4820  0.1088
 5202TIP3   OH237020   3.478   6.039  10.875 -0.6276 -0.9478  0.2976
 5202TIP3    H137021   3.486   6.132  10.896  0.0999 -1.3847  2.1305
 5202TIP3    H237022   3.461   6.037  10.781 -1.8180  1.0822  0.4119
 5203TIP3   OH237023   6.052   2.062  11.507 -0.3057 -0.0315 -0.5591
 5203TIP3    H137024   6.110   2.059  11.583 -0.7107  0.3291 -0.2291
 5203TIP3    H237025   5.979   2.005  11.531  1.2966 -3.0096 -2.1788
 5204TIP3   OH237026   1.009   3.564  11.517 -0.3677  0.2343  0.1520
 5204TIP3    H137027   1.054   3.597  11.595 -0.6264  1.2651 -0.1258
 5204TIP3    H237028   0.916   3.579  11.535 -0.4710 -0.1193 -0.0858
 5205TIP3   OH237029   5.640   2.316  10.116  0.2603 -0.2876 -0.0939
 5205TIP3    H137030   5.722   2.290  10.158  1.4613  1.1001 -1.4295
 5205TIP3    H237031   5.574   2.308  10.185  1.4135 -1.8752  0.8990
 5206TIP3   OH237032   3.539   6.893  14.135 -0.2701  0.0204 -0.1312
 5206TIP3    H137033   3.507   6.907  14.046  2.4242  0.0141 -1.1703
 5206TIP3    H237034   3.521   6.976  14.180 -1.6799  0.0137 -0.6333
 5207TIP3   OH237035   6.628   4.068  15.111 -0.1748 -0.2382 -0.2443
 5207TIP3    H137036   6.669   3.989  15.077  0.5579 -0.8303  1.8445
 5207TIP3    H237037   6.672   4.140  15.066 -1.1092 -0.9514 -2.4584
 5208TIP3   OH237038   6.569   0.105  11.127 -0.0980  0.2880  0.4834
 5208TIP3    H137039   6.575   0.190  11.083 -1.2631  0.5922  0.8825
 5208TIP3    H237040   6.560   0.042  11.055 -0.7268  0.6561  0.2357
 5209TIP3   OH237041   4.785   3.979  14.616 -0.1002 -0.5268 -0.1703
 5209TIP3    H137042   4.870   3.941  14.598 -0.6294 -1.4796 -0.7431
 5209TIP3    H237043   4.736   3.969  14.535 -0.5596  0.5683 -0.0399
 5210TIP3   OH237044   6.506   4.026   0.769  0.3145 -0.5428  0.0003
 5210TIP3    H137045   6.469   4.046   0.855  2.1040  0.2840  0.6287
 5210TIP3    H237046   6.455   3.951   0.737 -1.0362 -0.2219  1.3282
 5211TIP3   OH237047   7.112   7.088  10.766 -0.2606 -0.2344 -0.0313
 5211TIP3    H137048   7.025   7.080  10.805 -0.0636 -1.6533  0.1448
 5211TIP3    H237049   7.162   7.140  10.830  0.5735 -3.9036  2.6641
 5212TIP3   OH237050   1.056   4.588  10.920  0.0725  0.4042  0.4732
 5212TIP3    H137051   1.039   4.666  10.973  0.9879  0.4760  0.6849
 5212TIP3    H237052   1.009   4.603  10.838 -2.9955 -0.5317  1.8879
 5213TIP3   OH237053   6.915   0.233  14.278  0.0588 -0.1174  0.0962
 5213TIP3    H137054   6.910   0.312  14.224  0.4429  0.7505  1.2813
 5213TIP3    H237055   7.007   0.205  14.271  0.1136  0.0069  0.3030
 5214TIP3   OH237056   6.515   5.052  14.028 -0.1017  0.0600 -0.2194
 5214TIP3    H137057   6.461   5.102  14.090  0.2027  0.9883 -0.6692
 5214TIP3    H237058   6.491   4.961  14.043 -1.3374  0.4032  0.0245
 5215TIP3   OH237059   3.673   2.598   1.633  0.5354  0.2524  0.0412
 5215TIP3    H137060   3.646   2.620   1.722  0.7586 -1.3218  0.5382
 5215TIP3    H237061   3.742   2.661   1.612  0.4452  0.6710  0.9581
 5216TIP3   OH237062   1.205   6.528   9.845 -0.1867  0.0042 -0.2033
 5216TIP3    H137063   1.293   6.507   9.815 -0.0222 -0.8117  0.7933
 5216TIP3    H237064   1.218   6.592   9.916 -0.1587 -2.0369  1.7482
 5217TIP3   OH237065   4.742   3.729  13.566 -0.4434 -0.1984 -0.0067
 5217TIP3    H137066   4.751   3.676  13.645  0.0930  0.2659  0.2551
 5217TIP3    H237067   4.819   3.708  13.513 -0.0890  0.4963  0.2170
 5218TIP3   OH237068   5.905   1.727  12.429  0.0982 -0.5444 -0.5140
 5218TIP3    H137069   5.937   1.637  12.436 -0.9195 -1.0204 -1.5769
 5218TIP3    H237070   5.813   1.722  12.453  0.6602  0.7497  2.2233
 5219TIP3   OH237071   4.037   1.678  15.251  0.4895  0.9316  0.0504
 5219TIP3    H137072   4.101   1.662  15.321  0.3233  0.3874  0.0849
 5219TIP3    H237073   3.952   1.671  15.295  0.3886  0.6919 -0.1807
 5220TIP3   OH237074   4.780   0.636   1.317 -0.0251  0.8303  0.6567
 5220TIP3    H137075   4.763   0.662   1.407  0.2029  1.0983  0.6236
 5220TIP3    H237076   4.855   0.577   1.322 -0.2858  0.4982  0.6879
 5221TIP3   OH237077   3.868   4.552  14.252  0.1487  0.5544  0.1965
 5221TIP3    H137078   3.818   4.620  14.299 -0.1825  0.2830  0.2362
 5221TIP3    H237079   3.959   4.569  14.277  0.3540  2.4236 -1.6011
 5222TIP3   OH237080   1.451   6.255   9.207  0.4372  0.1668 -0.4360
 5222TIP3    H137081   1.509   6.180   9.216 -0.0424 -0.0635  0.8608
 5222TIP3    H237082   1.496   6.326   9.253  0.3800  0.3797 -0.7062
 5223TIP3   OH237083   4.639   5.840  13.820 -0.2872 -0.2064  0.6115
 5223TIP3    H137084   4.588   5.881  13.750 -0.9191 -0.5080  0.8842
 5223TIP3    H237085   4.701   5.907  13.848 -0.9882  0.4014  0.7311
 5224TIP3   OH237086   5.014   1.782   9.693  0.9407 -0.0643  0.2061
 5224TIP3    H137087   5.000   1.688   9.692  3.5767 -0.6193  2.6562
 5224TIP3    H237088   5.070   1.799   9.618  1.3692 -0.6502  0.3900
 5225TIP3   OH237089   3.706   4.163  13.737  0.4964  0.0237  0.6628
 5225TIP3    H137090   3.772   4.114  13.787  0.3461  0.8088  1.6804
 5225TIP3    H237091   3.715   4.131  13.648 -0.2055 -2.5024  1.4263
 5226TIP3   OH237092   6.908   5.052  13.587 -0.4012  0.4129  0.0778
 5226TIP3    H137093   6.834   5.024  13.641  0.1970  0.5952  1.0310
 5226TIP3    H237094   6.939   5.133  13.629 -1.6392  2.1746 -2.1814
 5227TIP3   OH237095   2.042   0.146  12.488 -0.0957  0.2247 -0.3417
 5227TIP3    H137096   2.035   0.177  12.398  1.9164 -1.9620 -1.3542
 5227TIP3    H237097   2.136   0.143  12.506 -0.2417 -2.7942  0.4921
 5228TIP3   OH237098   0.087   6.674  13.457  0.1791  0.5302  0.1403
 5228TIP3    H137099   0.131   6.627  13.528 -0.0261  1.7814  1.1340
 5228TIP3    H237100   0.011   6.715  13.498 -2.2801 -1.9275 -1.6254
 5229TIP3   OH237101   6.377   1.549  11.945  0.2189  0.3993 -0.1021
 5229TIP3    H137102   6.426   1.632  11.949  0.7365  0.0991 -0.1684
 5229TIP3    H237103   6.369   1.521  12.036  2.8308 -1.0815 -0.2222
 5230TIP3   OH237104   0.290   0.407  10.629 -0.0809  0.0459  0.0485
 5230TIP3    H137105   0.271   0.368  10.543  0.8987  1.2243 -0.7282
 5230TIP3    H237106   0.208   0.397  10.678 -0.4459 -1.2605 -0.7658
 5231TIP3   OH237107   6.159   3.841  11.436  0.4027  0.3752  0.3641
 5231TIP3    H137108   6.089   3.871  11.377 -3.5179  1.0891  4.7539
 5231TIP3    H237109   6.188   3.921  11.481 -0.6902 -0.6062  3.0255
 5232TIP3   OH237110   6.004   3.970  13.770 -0.4558 -0.1902 -0.2946
 5232TIP3    H137111   5.920   3.925  13.776 -0.3828 -0.2470  0.3312
 5232TIP3    H237112   6.065   3.904  13.738 -0.1107 -0.8664  1.6515
 5233TIP3   OH237113   5.566   4.938   9.914 -0.3373  0.2478 -0.0735
 5233TIP3    H137114   5.616   4.999   9.860  0.3137  0.2585  0.5158
 5233TIP3    H237115   5.475   4.967   9.906 -0.1151  0.9018 -0.3073
 5234TIP3   OH237116   3.110   3.923  13.108 -0.0097 -0.0534 -0.3476
 5234TIP3    H137117   3.193   3.932  13.060 -0.1049 -0.2285 -0.5465
 5234TIP3    H237118   3.095   3.829  13.112 -0.8210  0.0121 -1.3879
 5235TIP3   OH237119   5.471   2.220   0.154  0.2625 -0.6065  0.0765
 5235TIP3    H137120   5.536   2.251   0.092  0.5835 -0.2063  0.6118
 5235TIP3    H237121   5.399   2.282   0.147  0.1838 -0.7147 -0.0863
 5236TIP3   OH237122   0.919   5.862  15.237 -0.0430  0.1319  0.0658
 5236TIP3    H137123   0.833   5.901  15.253 -0.4984 -1.0987  0.7837
 5236TIP3    H237124   0.964   5.867  15.322 -0.0182 -0.6491  0.1072
 5237TIP3   OH237125   0.191   4.122   1.292  0.0094  0.0013  0.1588
 5237TIP3    H137126   0.115   4.066   1.307  0.7009 -1.6192 -1.9030
 5237TIP3    H237127   0.263   4.080   1.339  0.2517 -0.1301 -0.3214
 5238TIP3   OH237128   2.764   1.073  10.061 -0.1990  0.4544  0.3846
 5238TIP3    H137129   2.853   1.038  10.063  0.2015  1.4468  0.5062
 5238TIP3    H237130   2.732   1.052   9.973  0.9703  1.9941 -0.4598
 5239TIP3   OH237131   4.200   6.808  10.419 -0.1967  0.3558  0.3435
 5239TIP3    H137132   4.287   6.803  10.379 -0.5059  0.5707 -0.3602
 5239TIP3    H237133   4.139   6.788  10.348 -0.7067 -0.4168  0.9742
 5240TIP3   OH237134   1.562   3.254  13.375  0.1974  0.1022  0.0376
 5240TIP3    H137135   1.491   3.315  13.357  0.0222  0.0319  0.4752
 5240TIP3    H237136   1.539   3.215  13.460  1.3167  0.8918  0.7210
 5241TIP3   OH237137   6.894   1.981   0.210 -0.3408 -0.1216  0.1098
 5241TIP3    H137138   6.960   1.938   0.263  0.6925  2.4870  1.1163
 5241TIP3    H237139   6.822   1.918   0.204  2.0936 -3.0087 -0.9406
 5242TIP3   OH237140   4.235   0.275  10.386  0.2007 -0.4332 -0.4181
 5242TIP3    H137141   4.250   0.292  10.293 -1.3045  2.2049 -0.2902
 5242TIP3    H237142   4.261   0.357  10.429  2.8013 -2.2659  1.7901
 5243TIP3   OH237143   3.027   4.872  13.171 -0.5233 -0.1193 -0.5393
 5243TIP3    H137144   2.992   4.788  13.200  1.8771 -0.8745  0.4066
 5243TIP3    H237145   3.033   4.863  13.076 -1.1353 -0.6557 -0.5376
 5244TIP3   OH237146   4.997   2.039  11.977  0.1080 -0.0196  0.3571
 5244TIP3    H137147   4.940   2.103  12.018  0.8724 -0.4274  2.1406
 5244TIP3    H237148   5.085   2.077  11.982  0.3257 -0.4421 -0.1402
 5245TIP3   OH237149   4.267   3.613   5.297 -0.3557  0.2788  0.0656
 5245TIP3    H137150   4.212   3.659   5.360 -0.3955 -0.2797  0.4541
 5245TIP3    H237151   4.273   3.672   5.222 -1.0246  0.5851  0.2436
 5246TIP3   OH237152   2.546   5.394   1.297  0.1244 -0.4727 -0.0051
 5246TIP3    H137153   2.599   5.377   1.220 -1.3121 -1.8364 -0.7506
 5246TIP3    H237154   2.591   5.348   1.368  0.8563 -0.1508 -0.2550
 5247TIP3   OH237155   3.352   0.580  12.666  0.5173  0.6582  0.2729
 5247TIP3    H137156   3.409   0.531  12.606  0.4264  1.2641 -0.3280
 5247TIP3    H237157   3.333   0.661  12.619 -2.7175 -0.4487 -0.5470
 5248TIP3   OH237158   2.130   1.560  10.572  0.0482  0.1416 -0.3751
 5248TIP3    H137159   2.052   1.523  10.613 -0.0939  0.1685 -0.6207
 5248TIP3    H237160   2.163   1.490  10.515  0.3631  0.0306 -0.0642
 5249TIP3   OH237161   5.142   4.862  12.500  0.1550  0.0319  0.5303
 5249TIP3    H137162   5.055   4.828  12.480 -0.0942 -0.6577  2.5269
 5249TIP3    H237163   5.202   4.806  12.449 -0.5523  1.0496 -1.5169
 5250TIP3   OH237164   0.024   3.344  13.651  0.2172 -0.1510 -0.0726
 5250TIP3    H137165  -0.060   3.348  13.606  0.5022 -1.2710 -0.7766
 5250TIP3    H237166   0.025   3.257  13.691  1.2572 -0.3806 -0.5551
 5251TIP3   OH237167   3.985   4.739  10.207  0.6902  0.1618  0.5759
 5251TIP3    H137168   4.080   4.745  10.216  0.6437  1.9527  0.1280
 5251TIP3    H237169   3.963   4.657  10.251  2.5187 -0.7234 -0.0392
 5252TIP3   OH237170   1.726   6.068   0.426 -0.6567  0.2042  0.3904
 5252TIP3    H137171   1.765   6.052   0.340  0.3372 -0.9524  1.0358
 5252TIP3    H237172   1.695   6.158   0.421  1.7183  1.0591 -0.2981
 5253TIP3   OH237173   3.140   1.841   0.782  0.4188 -1.1004  0.4726
 5253TIP3    H137174   3.216   1.817   0.835  0.8206 -1.3397 -0.1972
 5253TIP3    H237175   3.161   1.927   0.747  0.1615 -0.9483  0.6923
 5254TIP3   OH237176   5.239   1.024  10.950  0.3738  0.0443  0.0083
 5254TIP3    H137177   5.226   1.027  10.855 -1.1520  1.2132  0.2029
 5254TIP3    H237178   5.215   0.935  10.975 -1.1464  0.2831 -0.5031
 5255TIP3   OH237179   1.967   2.014  13.076 -0.3122 -0.1550 -0.5690
 5255TIP3    H137180   2.051   2.046  13.043  1.1935 -2.3456  0.8498
 5255TIP3    H237181   1.929   1.967  13.002  0.5411 -0.6051 -0.7330
 5256TIP3   OH237182   5.060   2.999  12.877 -0.0830  0.4371  0.2786
 5256TIP3    H137183   5.007   2.933  12.834  0.2293  0.4924 -0.1917
 5256TIP3    H237184   4.996   3.055  12.922 -0.3619 -0.0196  0.4614
 5257TIP3   OH237185   0.417   6.544  10.284  0.4253  0.3535 -0.4200
 5257TIP3    H137186   0.399   6.619  10.228  1.9374  3.1767  2.5605
 5257TIP3    H237187   0.512   6.543  10.295  0.2690 -0.6407  1.3065
 5258TIP3   OH237188   6.723   4.423  11.970  0.1668  0.5862 -0.3736
 5258TIP3    H137189   6.674   4.505  11.964 -0.3810  0.3123  0.2358
 5258TIP3    H237190   6.761   4.412  11.883 -0.5845  0.9776 -0.7679
 5259TIP3   OH237191   4.776   5.819  12.408  0.3468  0.1545  0.7072
 5259TIP3    H137192   4.862   5.776  12.404  0.3467  0.2394 -0.9035
 5259TIP3    H237193   4.752   5.817  12.500  1.4583 -1.1078  0.9897
 5260TIP3   OH237194   4.492   6.016  13.070 -0.6496  0.1279 -0.6628
 5260TIP3    H137195   4.430   5.943  13.058 -2.9075  2.0074 -1.0951
 5260TIP3    H237196   4.506   6.019  13.165 -0.9824 -0.5168 -0.5864
 5261TIP3   OH237197   1.071   4.184   1.752  0.1266 -0.2283  1.0458
 5261TIP3    H137198   1.135   4.206   1.820  1.4043 -0.5250 -0.0181
 5261TIP3    H237199   1.103   4.102   1.714 -1.1121 -0.5917  0.7406
 5262TIP3   OH237200   3.707   0.007  11.494 -0.6690  0.5249  0.2283
 5262TIP3    H137201   3.712  -0.088  11.488 -1.6843  0.5040 -0.5701
 5262TIP3    H237202   3.634   0.024  11.554 -0.1112  0.8091  0.8418
 5263TIP3   OH237203   2.874   2.963  12.544  0.5148  0.2801 -0.1693
 5263TIP3    H137204   2.784   2.979  12.513  0.7619 -0.6722 -1.4830
 5263TIP3    H237205   2.863   2.919  12.628 -0.3937 -2.6104 -1.6557
 5264TIP3   OH237206   4.263   2.776  14.867 -0.0996  0.1530  0.4062
 5264TIP3    H137207   4.307   2.704  14.821  0.2042  0.7347 -0.2397
 5264TIP3    H237208   4.330   2.813  14.924 -0.8629 -1.4857  2.4766
 5265TIP3   OH237209   2.559   2.691  13.334 -0.0440 -0.9223  0.0818
 5265TIP3    H137210   2.635   2.650  13.375  0.7798  0.1867 -0.3113
 5265TIP3    H237211   2.584   2.782  13.320 -1.2316 -0.6709 -0.5952
 5266TIP3   OH237212   6.018   1.701  12.127 -0.0263 -0.6330 -0.7347
 5266TIP3    H137213   6.029   1.759  12.203  0.5370 -1.5833 -0.0671
 5266TIP3    H237214   6.031   1.613  12.163  1.3539 -1.0410 -2.1295
 5267TIP3   OH237215   3.169   3.799   4.092 -0.1802  0.5345  0.2973
 5267TIP3    H137216   3.203   3.871   4.144 -0.9632 -0.5374  2.4409
 5267TIP3    H237217   3.242   3.772   4.036  0.8984  1.4034  1.2514
 5268TIP3   OH237218   6.137   0.697   9.353  0.4936  0.5154 -0.1455
 5268TIP3    H137219   6.075   0.631   9.321  0.4602  0.7587 -0.5860
 5268TIP3    H237220   6.207   0.647   9.394  0.9141  0.1657 -1.2578
 5269TIP3   OH237221   0.722   3.675  11.615  0.3005  0.8160 -0.8693
 5269TIP3    H137222   0.704   3.765  11.586  2.5960  2.1125  1.3576
 5269TIP3    H237223   0.654   3.656  11.680  1.3530  2.0736  0.6720
 5270TIP3   OH237224   3.270   0.291  10.312 -0.2122 -0.8212 -0.6447
 5270TIP3    H137225   3.268   0.278  10.407  2.6623 -1.2132 -0.5500
 5270TIP3    H237226   3.264   0.386  10.302  2.1427 -0.4988  0.1969
 5271TIP3   OH237227   0.420   4.926  11.575  0.7195  0.3526 -0.1626
 5271TIP3    H137228   0.502   4.969  11.552  0.3581  0.4786 -1.2863
 5271TIP3    H237229   0.367   4.931  11.495  0.3127 -1.3675 -0.0364
 5272TIP3   OH237230   0.719   5.072  12.485  0.5698 -0.1678  0.2285
 5272TIP3    H137231   0.775   5.148  12.474  1.3735 -0.9364 -1.2705
 5272TIP3    H237232   0.760   5.022  12.556  1.3116 -0.2885 -0.2708
 5273TIP3   OH237233   4.128   5.612  13.501 -0.4607 -0.2056  0.0998
 5273TIP3    H137234   4.130   5.694  13.550  0.3373 -0.5980  0.7558
 5273TIP3    H237235   4.035   5.591  13.494 -0.6394  0.3832  0.5554
 5274TIP3   OH237236   2.725   3.331  10.335 -0.7360 -0.0651  0.2191
 5274TIP3    H137237   2.734   3.297  10.246 -0.5330 -0.3335  0.3409
 5274TIP3    H237238   2.718   3.253  10.390  0.4834  0.0520  0.5816
 5275TIP3   OH237239   3.514   1.495  11.044  0.2673 -0.1954  0.2611
 5275TIP3    H137240   3.603   1.494  11.077 -1.2674 -0.1500  5.1626
 5275TIP3    H237241   3.498   1.588  11.023  1.6542 -0.4027 -2.0105
 5276TIP3   OH237242   4.848   4.004  14.964 -0.5093 -0.2887  0.2941
 5276TIP3    H137243   4.810   4.042  15.043 -0.9169  0.8604 -0.4420
 5276TIP3    H237244   4.811   4.055  14.892  1.8194  0.3688 -0.5068
 5277TIP3   OH237245   3.180   0.696   0.312  0.6771  0.5256 -0.5869
 5277TIP3    H137246   3.229   0.679   0.232  0.1078  0.6083 -0.9602
 5277TIP3    H237247   3.245   0.733   0.372  1.3576 -0.5610 -0.6207
 5278TIP3   OH237248   0.024   7.172  11.817  0.0632  0.0644  0.1646
 5278TIP3    H137249  -0.048   7.126  11.860  0.1581  0.8926  1.2665
 5278TIP3    H237250  -0.019   7.239  11.764 -0.0123  1.2957  1.6826
 5279TIP3   OH237251   4.939   1.250   9.537 -0.5891 -0.2484  0.0231
 5279TIP3    H137252   4.900   1.168   9.567  0.1953 -0.2279  1.1420
 5279TIP3    H237253   5.033   1.235   9.540 -0.4577 -0.0733 -2.0231
 5280TIP3   OH237254   5.018   3.917  13.546 -0.6541  0.3256 -0.2521
 5280TIP3    H137255   5.102   3.872  13.555 -0.4574  1.0105  1.8394
 5280TIP3    H237256   4.971   3.867  13.479  0.0560 -2.2138  1.0161
 5281TIP3   OH237257   3.992   1.443  11.717 -0.3039  0.3140  0.4836
 5281TIP3    H137258   3.935   1.422  11.643 -1.5235  2.5046  0.7224
 5281TIP3    H237259   4.080   1.440  11.681 -0.6349 -1.5174 -0.3010
 5282TIP3   OH237260   2.317   1.362   3.788 -0.0160 -0.1693  0.3312
 5282TIP3    H137261   2.353   1.305   3.720 -0.8810 -2.8828  2.0209
 5282TIP3    H237262   2.372   1.345   3.865 -0.4712  1.1160  0.9619
 5283TIP3   OH237263   0.536   6.044  13.406  0.5001 -0.3576 -0.4023
 5283TIP3    H137264   0.601   6.112  13.424  1.0331 -0.5398 -1.5152
 5283TIP3    H237265   0.536   6.037  13.310 -0.8549 -0.6661 -0.3937
 5284TIP3   OH237266   7.017   3.582  12.342 -0.3251 -0.4181  0.4376
 5284TIP3    H137267   7.003   3.619  12.429 -0.0263 -0.9026  0.6964
 5284TIP3    H237268   7.103   3.614  12.315 -0.9796  0.8101 -0.2457
 5285TIP3   OH237269   0.572   4.965  14.625 -0.4705  0.4010  1.0069
 5285TIP3    H137270   0.573   4.926  14.712  0.2787  0.4795  1.0396
 5285TIP3    H237271   0.480   4.961  14.598 -0.7497  0.5905  1.8960
 5286TIP3   OH237272   1.283   2.229  11.888 -0.0138 -0.1049  0.5844
 5286TIP3    H137273   1.358   2.244  11.831 -0.0134 -0.2951  0.5340
 5286TIP3    H237274   1.215   2.287  11.855 -0.0517 -0.2985  0.3176
 5287TIP3   OH237275   4.803   6.539  12.412 -0.1547  0.6074  0.1811
 5287TIP3    H137276   4.840   6.452  12.396 -1.6140  0.1055 -0.6951
 5287TIP3    H237277   4.873   6.588  12.454  0.6021 -1.0885  0.9942
 5288TIP3   OH237278   3.760   0.317  10.858 -0.4345  0.3545 -0.3088
 5288TIP3    H137279   3.675   0.362  10.863 -0.4472  0.3255 -0.2675
 5288TIP3    H237280   3.808   0.348  10.934 -1.1680 -1.1977  0.8431
 5289TIP3   OH237281   5.723   2.198  13.758  0.9318 -0.0778 -0.4661
 5289TIP3    H137282   5.806   2.151  13.753  0.1056 -1.5756 -0.9780
 5289TIP3    H237283   5.657   2.128  13.757 -0.3304  1.0738 -0.1131
 5290TIP3   OH237284   6.778   1.488   0.228 -0.5229 -0.3336 -0.0957
 5290TIP3    H137285   6.705   1.463   0.171 -0.5861 -0.9662  0.2537
 5290TIP3    H237286   6.745   1.474   0.317  0.0482 -0.7086  0.0643
 5291TIP3   OH237287   3.053   2.257   2.437 -0.2706 -0.3476 -0.0184
 5291TIP3    H137288   3.067   2.291   2.526  0.3142 -0.2843 -0.1308
 5291TIP3    H237289   3.140   2.231   2.407  0.3018  3.3639 -2.1091
 5292TIP3   OH237290   2.597   5.223   0.103  0.1961 -0.0966  0.0817
 5292TIP3    H137291   2.670   5.245   0.045  0.0534  1.6584  0.5321
 5292TIP3    H237292   2.627   5.144   0.149  1.2755 -0.1408 -0.6520
 5293TIP3   OH237293   6.853   0.214  10.961  0.1332  0.0752 -0.3442
 5293TIP3    H137294   6.888   0.171  10.883  0.6630 -1.3277  0.6206
 5293TIP3    H237295   6.811   0.143  11.010 -0.1457  0.9156  0.6620
 5294TIP3   OH237296   4.982   2.231  10.590 -0.0954 -0.3190  0.4243
 5294TIP3    H137297   4.975   2.182  10.509  2.4712 -0.4599  0.2146
 5294TIP3    H237298   4.917   2.300  10.582  0.3958 -0.0610 -1.9869
 5295TIP3   OH237299   6.703   1.783  14.086  0.0127  0.1495  0.0275
 5295TIP3    H137300   6.776   1.722  14.082 -0.5243 -0.5540  0.7548
 5295TIP3    H237301   6.630   1.735  14.047 -0.4946  0.1862  0.9035
 5296TIP3   OH237302   0.681   2.303  11.110  0.4237  0.5766 -0.4105
 5296TIP3    H137303   0.738   2.293  11.186  1.7512 -1.0184 -1.5257
 5296TIP3    H237304   0.710   2.234  11.050 -2.1542  0.2372 -1.3934
 5297TIP3   OH237305   5.118   2.439   9.970 -0.1871  0.1404 -0.1335
 5297TIP3    H137306   5.123   2.395   9.886 -0.5536 -1.0194  0.4255
 5297TIP3    H237307   5.125   2.532   9.949  3.5000 -0.1869 -1.1480
 5298TIP3   OH237308   0.012   0.041  10.949 -0.7731 -0.6278  0.5276
 5298TIP3    H137309  -0.011   0.096  11.024 -0.8684 -0.1095  0.1199
 5298TIP3    H237310   0.107   0.030  10.955 -0.7550 -0.4231  0.6087
 5299TIP3   OH237311   7.009   5.982  10.375  0.2841 -0.4901 -0.4255
 5299TIP3    H137312   6.993   5.893  10.408  0.9237 -0.9522 -1.3071
 5299TIP3    H237313   6.948   5.992  10.303 -0.0299 -0.0745 -0.1043
 5300TIP3   OH237314   6.238   0.175  10.871  0.4526 -0.3659  0.1738
 5300TIP3    H137315   6.188   0.173  10.953 -1.4528  0.8396 -0.8963
 5300TIP3    H237316   6.282   0.089  10.868 -0.1347 -0.7772  1.9974
 5301TIP3   OH237317   4.889   2.089  11.239 -0.7939 -0.2954 -0.3100
 5301TIP3    H137318   4.926   2.160  11.292 -0.7629 -0.2636 -0.3738
 5301TIP3    H237319   4.817   2.129  11.192 -0.7809 -0.3076 -0.3405
 5302TIP3   OH237320   3.044   5.983   9.476 -0.2845  0.4762 -0.4891
 5302TIP3    H137321   2.952   5.970   9.454 -0.2469  0.3515 -0.5777
 5302TIP3    H237322   3.091   5.928   9.414 -0.2341 -0.9305  0.7237
 5303TIP3   OH237323   3.696   4.201  11.452 -0.3677 -0.1377  0.6788
 5303TIP3    H137324   3.651   4.266  11.399  0.6358 -0.3551 -0.4833
 5303TIP3    H237325   3.719   4.248  11.533 -2.2607  0.0756  1.1298
 5304TIP3   OH237326   3.725   1.432  12.500  0.4534 -0.0153 -0.4935
 5304TIP3    H137327   3.773   1.434  12.582 -1.6392 -0.7723  0.8259
 5304TIP3    H237328   3.698   1.341  12.489 -2.0060  0.6165 -0.3039
 5305TIP3   OH237329   6.359   3.291  11.297  0.2184 -0.4035 -0.6741
 5305TIP3    H137330   6.294   3.359  11.279  0.7379  0.2012 -0.2979
 5305TIP3    H237331   6.435   3.338  11.331  0.6427 -1.1586 -0.5467
 5306TIP3   OH237332   4.203   5.055  11.057 -0.6834 -0.3585  0.1180
 5306TIP3    H137333   4.202   5.148  11.081 -1.2514  0.1176 -1.5814
 5306TIP3    H237334   4.202   5.009  11.141  0.2068  1.1514  1.0224
 5307TIP3   OH237335   5.321   1.690   9.970  0.2528  0.3472  0.5297
 5307TIP3    H137336   5.384   1.618   9.969 -2.0974 -1.8928  1.7697
 5307TIP3    H237337   5.319   1.721   9.879 -0.0966 -2.5412 -0.5405
 5308TIP3   OH237338   2.746   5.327  11.501  0.3551  0.4136 -0.4208
 5308TIP3    H137339   2.681   5.316  11.432 -1.6322 -1.5687  1.6140
 5308TIP3    H237340   2.711   5.396  11.557  2.5568  2.9006 -1.8724
 5309TIP3   OH237341   5.537   5.011   1.327  0.1163  0.3592 -0.1089
 5309TIP3    H137342   5.585   5.093   1.318  1.8127 -0.5926 -0.1729
 5309TIP3    H237343   5.584   4.949   1.270 -0.7995 -0.7941  0.3445
 5310TIP3   OH237344   2.705   0.051  12.171 -0.2051  0.7145 -0.1713
 5310TIP3    H137345   2.609   0.054  12.174 -0.2404  1.2392 -1.4152
 5310TIP3    H237346   2.730   0.138  12.139  0.7453  0.9081  1.0175
 5311TIP3   OH237347   3.617   4.177  14.375  0.1827 -0.3483 -0.0644
 5311TIP3    H137348   3.558   4.253  14.384  0.8146  0.1225  0.2032
 5311TIP3    H237349   3.683   4.206  14.312  0.8277 -0.4219  0.5737
 5312TIP3   OH237350   3.863   5.646  13.490 -0.0942  0.1785 -0.3202
 5312TIP3    H137351   3.811   5.612  13.417 -1.8452  1.1808  0.4041
 5312TIP3    H237352   3.836   5.738  13.497 -2.1300 -0.5272  3.3264
 5313TIP3   OH237353   4.807   0.871  14.770  0.2937 -0.3795  0.5574
 5313TIP3    H137354   4.850   0.804  14.718  1.0108  0.2636  0.2998
 5313TIP3    H237355   4.734   0.901  14.716  0.5182 -0.3207  0.2854
 5314TIP3   OH237356   5.329   6.593  11.705 -0.7115 -0.2367 -0.2023
 5314TIP3    H137357   5.316   6.595  11.610 -0.4551  0.3031 -0.2355
 5314TIP3    H237358   5.292   6.510  11.733  0.1314 -0.8719 -0.9124
 5315TIP3   OH237359   0.012   5.590   2.491  0.4226 -0.0122  0.1582
 5315TIP3    H137360   0.041   5.677   2.518  1.2330 -0.1511 -0.2261
 5315TIP3    H237361   0.015   5.538   2.571 -1.0971  0.5596  0.6145
 5316TIP3   OH237362   2.972   6.150  11.903  1.0221  0.8740  1.3025
 5316TIP3    H137363   3.015   6.236  11.904 -1.1982  2.0678  0.8786
 5316TIP3    H237364   2.942   6.140  11.812 -0.1759  0.4264  1.7331
 5317TIP3   OH237365   6.762   6.867  13.802 -0.2781 -0.3733  0.1389
 5317TIP3    H137366   6.841   6.888  13.752  0.9426 -0.2145  2.0374
 5317TIP3    H237367   6.794   6.817  13.877 -1.8651  0.4533  1.4311
 5318TIP3   OH237368   1.304   3.634  10.290  0.0181  0.1106  0.3416
 5318TIP3    H137369   1.264   3.696  10.351 -2.2693 -1.9163  1.0482
 5318TIP3    H237370   1.258   3.649  10.207 -0.1520 -0.2459  0.3690
 5319TIP3   OH237371   2.440   3.992   1.631  0.3356  0.1262 -0.0507
 5319TIP3    H137372   2.408   4.081   1.617 -2.6530 -0.5308  1.6037
 5319TIP3    H237373   2.374   3.952   1.688  2.0803 -2.8539  0.0863
 5320TIP3   OH237374   5.114   5.961  14.076  0.2012  0.1049  0.1625
 5320TIP3    H137375   5.028   5.967  14.034  0.3778 -0.3458 -0.2732
 5320TIP3    H237376   5.176   5.962  14.004  0.4463 -2.4234  0.2351
 5321TIP3   OH237377   6.633   3.561  12.070 -0.0221  0.4582  0.2071
 5321TIP3    H137378   6.604   3.502  12.000  2.6575 -0.9288  0.1386
 5321TIP3    H237379   6.719   3.591  12.041 -1.0002  4.0186  0.5490
 5322TIP3   OH237380   2.909   2.135  14.381 -0.2501  0.1702 -0.3927
 5322TIP3    H137381   2.979   2.115  14.444  0.9924  1.4837 -1.2983
 5322TIP3    H237382   2.918   2.068  14.313  0.5848  0.7515 -0.8580
 5323TIP3   OH237383   2.499   5.246  12.572  0.2896  0.0775 -0.4576
 5323TIP3    H137384   2.570   5.181  12.572  0.4537  0.2174  1.0480
 5323TIP3    H237385   2.458   5.237  12.486 -0.4696 -2.9185  0.0836
 5324TIP3   OH237386   1.156   5.577   2.767  0.6719 -0.1797 -0.1715
 5324TIP3    H137387   1.210   5.644   2.809  1.2677 -0.3474 -0.6492
 5324TIP3    H237388   1.178   5.583   2.674 -0.8209  0.3602 -0.5109
 5325TIP3   OH237389   6.980   4.165  10.266 -0.1295 -0.0896  0.0931
 5325TIP3    H137390   6.936   4.117  10.337  0.7061 -0.6283  0.2575
 5325TIP3    H237391   6.966   4.257  10.287 -1.4684 -0.2411 -0.0430
 5326TIP3   OH237392   4.868   3.956  11.212  0.7658  0.2360 -0.0823
 5326TIP3    H137393   4.878   3.875  11.262  0.9096  1.7338  2.5327
 5326TIP3    H237394   4.935   3.951  11.143 -0.0551 -2.3463 -0.7796
 5327TIP3   OH237395   5.980   0.967  12.483  0.5362 -0.0474 -0.4494
 5327TIP3    H137396   6.044   0.897  12.472  0.8617  0.3779 -1.4652
 5327TIP3    H237397   5.948   0.984  12.394 -0.8237 -0.0904  0.0126
 5328TIP3   OH237398   1.693   6.100  11.451  0.1297 -0.5012  0.0826
 5328TIP3    H137399   1.724   6.015  11.482  0.6841 -0.3570 -0.0673
 5328TIP3    H237400   1.772   6.144  11.419  0.1634  0.7811  1.7963
 5329TIP3   OH237401   6.427   5.774  13.703  0.3885  0.1795  0.4034
 5329TIP3    H137402   6.402   5.683  13.686  2.6567 -0.6822  1.2811
 5329TIP3    H237403   6.349   5.813  13.742 -0.6942 -1.3242 -0.1346
 5330TIP3   OH237404   2.669   6.319   1.927 -0.4169 -0.0707  0.0539
 5330TIP3    H137405   2.725   6.389   1.961  0.0721 -0.2367 -0.3927
 5330TIP3    H237406   2.614   6.294   2.002 -0.0763  0.2706  0.4271
 5331TIP3   OH237407   4.753   5.021  11.486  0.8601  0.1602 -0.1563
 5331TIP3    H137408   4.770   5.088  11.420  1.0018  0.7693  0.5022
 5331TIP3    H237409   4.734   5.069  11.566 -1.5513 -0.5065 -0.2364
 5332TIP3   OH237410   4.852   6.839  10.639  0.6839 -1.0518 -0.2877
 5332TIP3    H137411   4.935   6.885  10.644  0.3577 -0.4579 -0.1894
 5332TIP3    H237412   4.832   6.816  10.730 -0.0914  0.3480 -0.0735
 5333TIP3   OH237413   0.918   3.439  11.029 -0.6010 -0.2099 -0.1539
 5333TIP3    H137414   0.891   3.418  10.939  1.0932 -0.3624 -0.6559
 5333TIP3    H237415   0.959   3.525  11.022 -1.2254  0.1658  0.6501
 5334TIP3   OH237416   1.112   3.996   0.061  0.0076 -0.4457 -0.0842
 5334TIP3    H137417   1.189   4.018   0.115 -0.0024  1.0848 -0.6521
 5334TIP3    H237418   1.117   4.057  -0.013 -1.2635 -0.9507 -0.5966
 5335TIP3   OH237419   4.276   6.240   2.267 -0.3675 -0.2336 -0.1626
 5335TIP3    H137420   4.325   6.159   2.279 -0.6134 -0.3380  0.1569
 5335TIP3    H237421   4.186   6.211   2.251 -0.2447 -0.0673 -1.2734
 5336TIP3   OH237422   3.213   5.114   9.972  0.7342 -0.6835 -0.7610
 5336TIP3    H137423   3.198   5.175  10.044  5.3584 -1.2962  1.1142
 5336TIP3    H237424   3.234   5.169   9.897  0.9103  0.0225 -0.2081
 5337TIP3   OH237425   6.430   3.859  10.281  0.2362 -0.2273  0.0587
 5337TIP3    H137426   6.367   3.820  10.342 -0.7253 -0.0812 -0.8066
 5337TIP3    H237427   6.395   3.947  10.263  1.5124  0.4462  0.7361
 5338TIP3   OH237428   0.333   5.464  10.682  0.2883  0.2973 -0.2553
 5338TIP3    H137429   0.324   5.405  10.756 -1.5335  2.2089  1.1371
 5338TIP3    H237430   0.425   5.456  10.656  0.6666 -1.3022  1.4106
 5339TIP3   OH237431   7.100   6.169  10.561 -0.4639  0.0296 -0.3785
 5339TIP3    H137432   7.066   6.097  10.507  0.1485 -0.5950  0.0480
 5339TIP3    H237433   7.124   6.237  10.498  2.4321 -1.5585 -1.1983
 5340TIP3   OH237434   5.896   3.504  13.162  0.0889 -0.4824 -0.3544
 5340TIP3    H137435   5.840   3.568  13.118  0.2513 -0.7233 -0.9227
 5340TIP3    H237436   5.857   3.419  13.142  1.9987 -0.9087 -2.9536
 5341TIP3   OH237437   6.287   6.443  13.214 -0.0442 -0.2334 -0.1834
 5341TIP3    H137438   6.298   6.425  13.307  0.5918 -0.3579 -0.2777
 5341TIP3    H237439   6.325   6.367  13.170 -1.0573 -0.5452 -0.5431
 5342TIP3   OH237440   5.947   1.318  10.026 -0.0771  0.2956 -0.4523
 5342TIP3    H137441   5.911   1.360  10.105  0.1929  0.1961 -0.2761
 5342TIP3    H237442   5.974   1.392   9.971  0.2233  0.3588 -0.2228
 5343TIP3   OH237443   3.411   4.612   9.338 -0.4883 -0.4132 -0.3015
 5343TIP3    H137444   3.504   4.620   9.359 -0.7931  0.7987  0.7089
 5343TIP3    H237445   3.403   4.651   9.251 -0.1658  0.2706 -0.0382
 5344TIP3   OH237446   4.198   3.156   9.672  0.2321 -0.2707 -0.1587
 5344TIP3    H137447   4.207   3.230   9.613  2.8115 -0.5544 -0.2401
 5344TIP3    H237448   4.137   3.096   9.628  0.4089  0.4944 -1.4870
 5345TIP3   OH237449   2.000   3.351  15.230 -0.1979 -0.2848 -0.2708
 5345TIP3    H137450   1.990   3.421  15.165  0.8764  0.0566 -0.0782
 5345TIP3    H237451   1.928   3.366  15.292 -1.7526 -1.1137 -1.7928
 5346TIP3   OH237452   5.080   2.365  10.874  0.6031 -0.0797 -0.9673
 5346TIP3    H137453   5.002   2.320  10.907  0.3260  1.0398 -0.0266
 5346TIP3    H237454   5.101   2.321  10.791 -0.2191 -1.2752 -0.5608
 5347TIP3   OH237455   4.083   6.972  15.011 -0.2451 -0.2243  0.4351
 5347TIP3    H137456   4.176   6.957  15.030  0.3648  0.6514 -1.5424
 5347TIP3    H237457   4.066   6.918  14.934 -0.8897  0.9786 -0.2879
 5348TIP3   OH237458   0.019   0.202  12.847 -0.3368 -0.5195 -0.0510
 5348TIP3    H137459  -0.031   0.206  12.929  0.7353 -0.0844  0.5949
 5348TIP3    H237460   0.101   0.247  12.866  0.3910 -1.3636 -1.0440
 5349TIP3   OH237461   0.410   1.939  13.863 -0.4440 -0.0249 -0.0882
 5349TIP3    H137462   0.326   1.983  13.875 -0.1146  0.7663 -0.6238
 5349TIP3    H237463   0.389   1.862  13.811 -1.4905 -2.1128  3.1254
 5350TIP3   OH237464   7.178   4.513  11.380 -0.0187  0.0882 -0.3136
 5350TIP3    H137465   7.204   4.550  11.464 -1.5698  0.7781 -0.0891
 5350TIP3    H237466   7.259   4.479  11.341  0.6637 -0.6073  1.6183
 5351TIP3   OH237467   4.294   3.081  12.138  0.3838  0.3040 -0.5095
 5351TIP3    H137468   4.282   3.054  12.229 -0.2509  3.1862  0.3652
 5351TIP3    H237469   4.207   3.071  12.098 -0.0119  1.6182 -0.0045
 5352TIP3   OH237470   2.004   3.289  14.165 -0.3875  0.0125  0.0443
 5352TIP3    H137471   2.053   3.234  14.225 -0.4297  0.2144  0.2661
 5352TIP3    H237472   1.921   3.306  14.210 -0.8349 -0.6758 -0.5118
 5353TIP3   OH237473   0.676   3.241  13.000  0.0144  0.1626  0.3577
 5353TIP3    H137474   0.741   3.208  13.062 -1.3414 -2.4147  0.5263
 5353TIP3    H237475   0.639   3.318  13.044 -0.2351 -1.0286  2.3742
 5354TIP3   OH237476   4.329   6.379  12.815 -0.1997  0.0609 -0.2122
 5354TIP3    H137477   4.317   6.443  12.745 -0.3794  0.3911  0.1182
 5354TIP3    H237478   4.257   6.317  12.803 -0.5862  0.4490  0.0326
 5355TIP3   OH237479   3.280   0.736   0.591 -0.4516  0.1298  0.7235
 5355TIP3    H137480   3.259   0.650   0.626  1.2386 -0.8462 -0.4864
 5355TIP3    H237481   3.362   0.723   0.543 -1.0694  2.0162 -0.9938
 5356TIP3   OH237482   6.950   0.500   9.918  0.3350  0.4742  0.0852
 5356TIP3    H137483   6.931   0.514   9.825 -1.9798  3.0355  0.8263
 5356TIP3    H237484   7.046   0.492   9.922  0.4537 -0.3231 -2.5441
 5357TIP3   OH237485   3.197   3.350   0.147  0.0460  0.0700  0.8181
 5357TIP3    H137486   3.156   3.423   0.193 -0.1934 -0.2419  1.1034
 5357TIP3    H237487   3.160   3.353   0.059 -0.5409 -0.1658  1.0513
 5358TIP3   OH237488   4.781   3.575  11.689 -0.4466  0.3962 -0.6195
 5358TIP3    H137489   4.843   3.527  11.634  2.2269 -0.4300  2.7182
 5358TIP3    H237490   4.747   3.509  11.750  0.7661  1.9761  1.9563
 5359TIP3   OH237491   2.338   1.356  13.469 -0.1997  0.3103 -0.0235
 5359TIP3    H137492   2.361   1.311  13.551  0.1023  0.1767 -0.1777
 5359TIP3    H237493   2.390   1.436  13.472  1.1597 -0.5015 -0.8838
 5360TIP3   OH237494   6.651   0.347  12.686  0.4750  0.5217  0.0640
 5360TIP3    H137495   6.576   0.334  12.628 -0.1271 -0.5156  1.0271
 5360TIP3    H237496   6.639   0.435  12.722 -1.0092 -0.0836  1.1627
 5361TIP3   OH237497   0.267   4.861  12.217  0.0791  0.2621 -0.0984
 5361TIP3    H137498   0.274   4.766  12.216  0.8016  0.2302  2.0788
 5361TIP3    H237499   0.183   4.880  12.174 -0.1691 -1.3470 -0.3793
 5362TIP3   OH237500   6.646   3.696  10.516  0.1104 -0.6037 -0.1290
 5362TIP3    H137501   6.727   3.716  10.468 -1.3217  4.0399 -1.0310
 5362TIP3    H237502   6.672   3.703  10.609  0.8800  0.1780 -0.3871
 5363TIP3   OH237503   2.223   5.814  10.402 -0.1791 -0.7980 -0.3137
 5363TIP3    H137504   2.185   5.838  10.486  2.6053  1.9573  0.3448
 5363TIP3    H237505   2.149   5.807  10.342 -1.9008  2.0552  1.3086
 5364TIP3   OH237506   3.139   5.766  14.807 -0.1862 -0.1949  0.0033
 5364TIP3    H137507   3.190   5.789  14.729  0.6680 -0.5453  0.4553
 5364TIP3    H237508   3.177   5.684  14.838 -1.6152 -0.9530 -0.1693
 5365TIP3   OH237509   4.344   2.775  13.133  0.1447  0.0315  0.0834
 5365TIP3    H137510   4.302   2.750  13.050 -1.1500 -1.5210  1.1430
 5365TIP3    H237511   4.276   2.822  13.181  0.8739  0.8799  0.2886
 5366TIP3   OH237512   1.310   1.885  13.703  0.2200 -0.3330 -0.1047
 5366TIP3    H137513   1.337   1.872  13.794 -0.2800 -0.0706  0.0816
 5366TIP3    H237514   1.231   1.938  13.708  0.1093 -0.4320 -0.6896
 5367TIP3   OH237515   2.959   4.991   1.914 -0.1647  0.1603  0.3274
 5367TIP3    H137516   2.952   5.081   1.880  1.8900  0.4146  0.4532
 5367TIP3    H237517   2.992   5.002   2.003  0.0865 -0.7390  0.3458
 5368TIP3   OH237518   1.376   5.158  12.476 -0.1689  0.1422  0.7380
 5368TIP3    H137519   1.371   5.074  12.521  1.8608 -1.5762 -1.9643
 5368TIP3    H237520   1.438   5.210  12.528 -1.1060 -0.1145  2.1835
 5369TIP3   OH237521   4.964   5.700  11.287  0.5552  0.4302  0.3188
 5369TIP3    H137522   4.941   5.707  11.194  1.3048 -0.4702  0.0455
 5369TIP3    H237523   4.886   5.728  11.333  0.7624  2.6720 -0.5756
 5370TIP3   OH237524   2.817   5.617   4.036  0.0485 -0.2760 -0.4302
 5370TIP3    H137525   2.775   5.611   4.122 -3.4544 -1.5331 -2.0460
 5370TIP3    H237526   2.820   5.526   4.005  1.8143  0.0814 -1.4613
 5371TIP3   OH237527   0.931   1.544   5.359  0.0312 -0.0807  0.0493
 5371TIP3    H137528   0.848   1.524   5.403 -0.1453 -1.0507 -0.7092
 5371TIP3    H237529   0.915   1.626   5.313 -0.5015 -0.2543 -0.0769
 5372TIP3   OH237530   0.851   5.484  11.520 -0.3940 -0.1957  0.3915
 5372TIP3    H137531   0.770   5.456  11.563  0.3126 -2.2945  0.4506
 5372TIP3    H237532   0.835   5.468  11.427 -0.3792  0.3159  0.2969
 5373TIP3   OH237533   4.673   1.212  12.692 -0.5246 -0.1970 -0.2205
 5373TIP3    H137534   4.608   1.169  12.747  0.2254 -0.8273  0.1987
 5373TIP3    H237535   4.753   1.160  12.704  0.3974  1.2641  0.2435
 5374TIP3   OH237536   2.315   6.161  10.184 -0.1508  0.4692 -0.2668
 5374TIP3    H137537   2.390   6.203  10.227  0.8197  1.3639 -2.6591
 5374TIP3    H237538   2.253   6.232  10.168 -2.8584 -0.5963  3.8832
 5375TIP3   OH237539   5.559   1.603  14.489 -0.1126 -0.9199  0.9249
 5375TIP3    H137540   5.628   1.550  14.448  1.3757  2.0395 -0.6636
 5375TIP3    H237541   5.604   1.654  14.556  0.2958  3.6008 -2.3284
 5376TIP3   OH237542   4.721   6.811  10.897 -0.2180  0.5817  0.4645
 5376TIP3    H137543   4.678   6.896  10.905  1.3446  1.4552  0.0293
 5376TIP3    H237544   4.655   6.754  10.856 -0.9987  1.8058 -0.0277
 5377TIP3   OH237545   5.329   7.154  12.613  0.4868  0.1727  0.0858
 5377TIP3    H137546   5.415   7.171  12.575  1.1014 -1.0140  0.8788
 5377TIP3    H237547   5.347   7.130  12.704 -0.6124 -0.7171  0.0947
 5378TIP3   OH237548   1.669   2.641  10.163  0.2706  0.3259  0.0310
 5378TIP3    H137549   1.702   2.692  10.089 -1.3805  1.2792 -0.0950
 5378TIP3    H237550   1.672   2.550  10.133 -0.5322  0.7104 -1.3097
 5379TIP3   OH237551   3.989   1.044  11.511 -0.0571 -0.1471 -0.0421
 5379TIP3    H137552   4.072   1.084  11.486 -0.6817  0.6417 -0.9028
 5379TIP3    H237553   3.938   1.039  11.430 -0.4734 -1.5791  0.2751
 5380TIP3   OH237554   6.942   5.386   9.924 -0.3176  0.7528 -0.7617
 5380TIP3    H137555   6.850   5.404   9.945  0.3877  1.9115  1.6544
 5380TIP3    H237556   6.960   5.301   9.964  0.1925  1.4986  0.6345
 5381TIP3   OH237557   5.441   6.090   9.940  0.4005 -0.1227  0.3014
 5381TIP3    H137558   5.418   6.061  10.029  0.9545 -1.5263  0.0006
 5381TIP3    H237559   5.402   6.025   9.882  1.0968  0.0973 -0.4326
 5382TIP3   OH237560   4.672   3.158  13.196  0.0567 -0.2087 -0.4627
 5382TIP3    H137561   4.732   3.232  13.186  1.5873 -1.4933 -1.4222
 5382TIP3    H237562   4.586   3.194  13.176  0.7671  1.2767 -1.0486
 5383TIP3   OH237563   5.720   5.416  11.136 -0.1292  0.0591 -0.2467
 5383TIP3    H137564   5.685   5.327  11.137  0.5068 -0.2150 -1.0065
 5383TIP3    H237565   5.649   5.470  11.169  0.1994 -0.9764  2.4082
 5384TIP3   OH237566   1.432   6.608  10.957  0.0039 -0.1383  0.1889
 5384TIP3    H137567   1.502   6.663  10.992 -1.4254  0.9958  1.3943
 5384TIP3    H237568   1.446   6.608  10.862  1.8260 -0.2534  0.4255
 5385TIP3   OH237569   6.184   3.956  11.849 -0.1018 -0.1159  0.0531
 5385TIP3    H137570   6.186   3.860  11.850  0.4512 -0.1100  1.2435
 5385TIP3    H237571   6.092   3.978  11.837 -0.1014 -0.7772 -1.3946
 5386TIP3   OH237572   0.702   3.177  13.996 -0.6641 -0.7009  0.3394
 5386TIP3    H137573   0.677   3.208  14.083 -1.0154 -0.6513  0.2239
 5386TIP3    H237574   0.798   3.176  13.997 -0.6696 -1.7584  1.0934
 5387TIP3   OH237575   3.751   4.225  12.750  0.1558  0.3800  0.4440
 5387TIP3    H137576   3.783   4.237  12.839  0.8973  3.0335 -0.0835
 5387TIP3    H237577   3.811   4.278  12.696 -1.2492  0.1706 -1.4163
 5388TIP3   OH237578   5.747   1.525  12.093  0.4290 -0.0544  0.3222
 5388TIP3    H137579   5.732   1.574  12.012 -0.8056 -0.8514  0.0348
 5388TIP3    H237580   5.819   1.571  12.136  0.1760  1.2296 -0.5581
 5389TIP3   OH237581   2.266   1.187  10.991 -0.4107  0.9174 -0.2052
 5389TIP3    H137582   2.273   1.202  10.897  0.0277  0.2684 -0.2849
 5389TIP3    H237583   2.176   1.213  11.014 -0.6950  0.5567 -0.9011
 5390TIP3   OH237584   6.666   5.795  11.860 -0.0554  0.3649 -0.7792
 5390TIP3    H137585   6.640   5.818  11.770  0.6758 -0.3050 -1.1787
 5390TIP3    H237586   6.585   5.768  11.902 -1.0157  3.5965 -0.2464
 5391TIP3   OH237587   2.378   6.901   9.783 -0.2611  0.6757 -0.4294
 5391TIP3    H137588   2.296   6.853   9.769 -0.2896  0.0541  1.5211
 5391TIP3    H237589   2.372   6.932   9.874  1.1274  1.7107 -0.6647
 5392TIP3   OH237590   5.283   1.295   4.610  0.1395  1.0645 -0.0194
 5392TIP3    H137591   5.337   1.245   4.548  0.1200  0.5362  0.3794
 5392TIP3    H237592   5.327   1.284   4.694 -1.4042 -0.7097  0.6397
 5393TIP3   OH237593   6.300   3.091  13.149 -0.3984  0.2672  0.3941
 5393TIP3    H137594   6.253   3.169  13.180  0.3795  0.6786  0.5689
 5393TIP3    H237595   6.378   3.087  13.205  0.5026  0.4184 -0.8215
 5394TIP3   OH237596   1.467   0.884   2.499 -0.1266 -0.0529  0.4355
 5394TIP3    H137597   1.493   0.968   2.461 -0.2333 -0.3291 -0.2699
 5394TIP3    H237598   1.473   0.822   2.426  0.1864 -0.7066  0.9989
 5395TIP3   OH237599   4.040   3.470  11.110  0.0514 -0.0417 -0.0295
 5395TIP3    H137600   4.076   3.507  11.030 -1.8414  0.8407 -0.5316
 5395TIP3    H237601   3.973   3.533  11.138 -1.3116 -1.6883  0.6517
 5396TIP3   OH237602   2.150   0.866  13.814  0.1453 -0.3104 -1.0592
 5396TIP3    H137603   2.215   0.921  13.859  0.0649 -0.8523 -0.2609
 5396TIP3    H237604   2.149   0.899  13.724  0.7862  0.3711 -0.8276
 5397TIP3   OH237605   4.775   5.518   1.821 -0.2499 -0.1443  0.2751
 5397TIP3    H137606   4.806   5.432   1.793  0.2471  0.0629  0.1713
 5397TIP3    H237607   4.842   5.548   1.882 -0.6017  0.0189  0.5865
 5398TIP3   OH237608   5.866   4.322  11.599  0.1586 -0.1278  0.4624
 5398TIP3    H137609   5.856   4.382  11.673  1.0652  1.2728 -0.5135
 5398TIP3    H237610   5.852   4.377  11.522  2.1567 -0.8941 -0.5050
 5399TIP3   OH237611   5.162   3.108  13.697 -0.2822  0.3222 -0.2608
 5399TIP3    H137612   5.160   3.184  13.755 -0.4935  0.4747 -0.4664
 5399TIP3    H237613   5.193   3.036  13.752  0.0246  0.5812 -0.0946
 5400TIP3   OH237614   1.217   2.295  13.361  0.5386  0.3962  0.0039
 5400TIP3    H137615   1.125   2.268  13.358  0.7090 -0.4773  1.3267
 5400TIP3    H237616   1.218   2.371  13.420  0.7504 -0.1262  0.6950
 5401TIP3   OH237617   0.421   1.059  11.607  0.2985  0.1736  0.1552
 5401TIP3    H137618   0.472   1.043  11.686 -1.4350 -0.7081  1.1769
 5401TIP3    H237619   0.414   0.973  11.565 -0.3314  0.2733  0.0461
 5402TIP3   OH237620   1.379   3.876   1.515 -0.3414 -0.8684 -0.5194
 5402TIP3    H137621   1.313   3.881   1.584 -1.4684 -0.1063 -1.6169
 5402TIP3    H237622   1.462   3.862   1.562 -0.9945  0.1795  1.0237
 5403TIP3   OH237623   3.168   3.762   9.861  0.2639 -0.0109 -1.0303
 5403TIP3    H137624   3.085   3.762   9.813 -0.6705 -1.3686  0.4809
 5403TIP3    H237625   3.219   3.691   9.821  0.6566  0.7192 -1.8532
 5404TIP3   OH237626   3.358   0.769  13.504 -0.2307 -0.7349 -0.6300
 5404TIP3    H137627   3.331   0.858  13.481  0.4975 -0.6797 -1.3058
 5404TIP3    H237628   3.449   0.763  13.475  0.3447 -1.0934  1.0953
 5405TIP3   OH237629   6.362   4.637  12.830  0.5720  0.6388 -0.3707
 5405TIP3    H137630   6.448   4.610  12.863  0.9786  1.4932 -0.7176
 5405TIP3    H237631   6.378   4.663  12.739 -0.2078  0.0521 -0.6945
 5406TIP3   OH237632   1.372   1.694  13.524 -0.4614 -0.0508 -0.2280
 5406TIP3    H137633   1.362   1.748  13.602  2.4759 -2.0030  1.7299
 5406TIP3    H237634   1.459   1.718  13.490 -0.3761 -1.3889 -1.0309
 5407TIP3   OH237635   6.279   1.488  10.440  0.5956  0.4009 -0.1333
 5407TIP3    H137636   6.278   1.440  10.522 -0.7182  0.1368 -0.2716
 5407TIP3    H237637   6.265   1.422  10.373 -1.2144  0.9209 -0.3283
 5408TIP3   OH237638   3.889   3.700  15.052  0.6343  0.1096  0.4006
 5408TIP3    H137639   3.983   3.716  15.047  1.1006 -1.8774  1.5096
 5408TIP3    H237640   3.879   3.610  15.020 -1.1424  0.8498 -1.3127
 5409TIP3   OH237641   0.626   4.866   0.434  0.1808 -0.2631 -0.2328
 5409TIP3    H137642   0.684   4.872   0.510 -0.1432 -0.4311  0.0344
 5409TIP3    H237643   0.680   4.893   0.360  0.9553 -1.5803 -0.1746
 5410TIP3   OH237644   0.839   3.915  12.991  0.2837  0.1818 -0.5036
 5410TIP3    H137645   0.901   3.847  13.017 -2.2376 -0.9134  3.4590
 5410TIP3    H237646   0.888   3.997  13.002  1.7858 -0.7132 -0.1361
 5411TIP3   OH237647   2.793   5.544  11.131  0.7808  0.3701  0.0847
 5411TIP3    H137648   2.862   5.479  11.145  1.1466  1.0377  1.6396
 5411TIP3    H237649   2.746   5.547  11.214 -0.1240  1.0675 -0.4306
 5412TIP3   OH237650   1.112   4.605   1.194  0.5870  0.2062  0.5194
 5412TIP3    H137651   1.144   4.527   1.240 -1.3156  0.0532  1.6598
 5412TIP3    H237652   1.078   4.571   1.111  0.2779 -0.0906  0.7676
 5413TIP3   OH237653   4.233   4.631  12.308 -0.2875  0.1488 -0.0878
 5413TIP3    H137654   4.304   4.693  12.322  0.2199 -0.5400  0.4388
 5413TIP3    H237655   4.276   4.555  12.267 -0.6061 -0.5128  0.7888
 5414TIP3   OH237656   4.204   5.601   3.552  0.0362 -0.0980  0.2424
 5414TIP3    H137657   4.172   5.628   3.466  1.7120 -2.6108 -1.3164
 5414TIP3    H237658   4.171   5.512   3.563 -0.5628  0.3268  2.5194
 5415TIP3   OH237659   5.849   3.635  12.561  0.2009 -0.2446  0.1535
 5415TIP3    H137660   5.856   3.714  12.615 -0.7515 -0.2792  0.3382
 5415TIP3    H237661   5.757   3.612  12.564 -0.4252  1.1196 -3.4400
 5416TIP3   OH237662   4.710   2.885  10.859 -0.1669 -0.5593 -0.3529
 5416TIP3    H137663   4.630   2.908  10.812 -0.3058 -0.3015  0.0038
 5416TIP3    H237664   4.691   2.906  10.950 -0.1369 -1.6624 -0.0749
 5417TIP3   OH237665   3.361   6.325  11.132  0.4368  0.1940  0.4260
 5417TIP3    H137666   3.281   6.304  11.083 -0.9759  3.5364  1.0464
 5417TIP3    H237667   3.429   6.331  11.065 -0.6017  0.7164 -0.6269
 5418TIP3   OH237668   1.950   0.662   9.966  0.0504  0.2980 -0.0174
 5418TIP3    H137669   1.871   0.675  10.019  0.0309  0.4706 -0.0860
 5418TIP3    H237670   1.919   0.666   9.875 -0.1445 -1.4124 -0.0535
 5419TIP3   OH237671   4.085   1.951   9.896  0.1003  1.0522  0.2426
 5419TIP3    H137672   4.085   1.965   9.802 -0.6163 -0.8341 -0.0712
 5419TIP3    H237673   3.992   1.950   9.920  0.2471  0.6157  0.8211
 5420TIP3   OH237674   0.745   7.138  13.502 -0.2190 -0.4179  0.0450
 5420TIP3    H137675   0.786   7.062  13.462 -0.5278 -2.1334  2.7033
 5420TIP3    H237676   0.658   7.107  13.529 -1.4605  1.7263 -1.2095
 5421TIP3   OH237677   3.302   4.294  12.034 -0.1474  0.1056  0.6836
 5421TIP3    H137678   3.348   4.368  11.995 -1.8808  0.2533 -1.2326
 5421TIP3    H237679   3.210   4.318  12.031 -0.6169 -1.3703  1.7488
 5422TIP3   OH237680   4.070   0.655  13.034 -0.1919 -0.3459  0.0976
 5422TIP3    H137681   4.056   0.737  12.987  0.0224  0.0743  0.7643
 5422TIP3    H237682   4.165   0.645  13.038 -0.1486  0.3725  1.6963
 5423TIP3   OH237683   4.225   5.462   2.013 -0.0449 -0.0586 -0.1578
 5423TIP3    H137684   4.275   5.528   1.965  0.0252 -1.6365 -2.4653
 5423TIP3    H237685   4.143   5.506   2.038  0.7196  1.3555 -0.0761
 5424TIP3   OH237686   1.219   6.595  12.215 -0.2246 -0.0073  0.1582
 5424TIP3    H137687   1.133   6.576  12.252 -0.2836 -0.6525 -0.3042
 5424TIP3    H237688   1.201   6.646  12.136 -0.0690  2.0573  1.3828
 5425TIP3   OH237689   1.600   6.294  14.176  0.3821 -0.5391  0.4779
 5425TIP3    H137690   1.689   6.327  14.191  0.2061  0.2566 -0.1509
 5425TIP3    H237691   1.559   6.295  14.262  0.8277 -0.4324  0.6917
 5426TIP3   OH237692   6.369   1.584  10.885  0.2525  0.1966 -0.2927
 5426TIP3    H137693   6.314   1.662  10.874  0.8919  0.5976 -0.6764
 5426TIP3    H237694   6.438   1.593  10.820  0.1525 -0.8609 -0.5697
 5427TIP3   OH237695   1.218   3.107  11.533  0.2789 -0.1954  0.4502
 5427TIP3    H137696   1.148   3.074  11.588 -0.2436 -0.4087 -0.3236
 5427TIP3    H237697   1.177   3.174  11.478  0.6482 -0.3851 -0.0743
 5428TIP3   OH237698   6.707   0.842  12.730  0.0695  0.0008  0.3230
 5428TIP3    H137699   6.727   0.927  12.690 -0.6987 -0.0592 -0.2169
 5428TIP3    H237700   6.674   0.864  12.817  2.9276  0.0713  1.4809
 5429TIP3   OH237701   0.208   6.578  13.684  0.3113 -0.2047  0.1976
 5429TIP3    H137702   0.159   6.549  13.761 -1.2068  3.6260  0.8798
 5429TIP3    H237703   0.266   6.647  13.717 -0.2142  1.3802 -1.9738
 5430TIP3   OH237704   2.397   6.497  10.443  0.2336  0.4943 -0.6247
 5430TIP3    H137705   2.328   6.474  10.381  0.6948 -0.9745 -0.6261
 5430TIP3    H237706   2.478   6.466  10.401  0.4959 -1.0530  0.9381
 5431TIP3   OH237707   1.875   4.536  12.785 -0.9465  0.1917 -0.4254
 5431TIP3    H137708   1.910   4.551  12.873  1.4141  0.4512 -1.3464
 5431TIP3    H237709   1.780   4.546  12.796 -0.6599  1.1395  1.8990
 5432TIP3   OH237710   3.743   2.148  13.350 -0.5336 -0.4193  0.0034
 5432TIP3    H137711   3.746   2.240  13.376 -0.4750 -0.6731  0.9219
 5432TIP3    H237712   3.669   2.112  13.399  0.1121 -1.1130  0.4827
 5433TIP3   OH237713   4.743   3.145  12.381  0.1572 -0.2738  0.5390
 5433TIP3    H137714   4.789   3.229  12.387 -0.4318  0.1171 -0.2950
 5433TIP3    H237715   4.704   3.145  12.294  0.2299 -1.4638  0.4950
 5434TIP3   OH237716   3.588   6.000  14.721  0.1646 -0.4296  0.1859
 5434TIP3    H137717   3.618   6.090  14.735 -1.3388 -0.1157  1.7656
 5434TIP3    H237718   3.663   5.946  14.747  0.5944  0.3608  0.6412
 5435TIP3   OH237719   2.443   5.325  14.356 -0.0518 -0.3934 -0.0084
 5435TIP3    H137720   2.481   5.331  14.444 -2.5020 -1.0770  1.1833
 5435TIP3    H237721   2.483   5.247  14.318  2.7595  1.1406 -0.4839
 5436TIP3   OH237722   7.066   4.517  11.678  0.0267  0.3715 -0.0361
 5436TIP3    H137723   7.113   4.559  11.750 -0.0432  1.6113 -0.6866
 5436TIP3    H237724   7.132   4.463  11.635  1.1220  2.6088 -1.3413
 5437TIP3   OH237725   3.644   3.895  11.444  0.0269  0.2512 -0.5145
 5437TIP3    H137726   3.641   3.970  11.503 -1.5137 -0.1972  0.0177
 5437TIP3    H237727   3.582   3.916  11.373  1.4994  0.5767 -1.7615
 5438TIP3   OH237728   3.648   1.862   1.974 -0.2236 -0.4396  0.1898
 5438TIP3    H137729   3.594   1.790   1.941  0.3822 -0.4295 -0.8461
 5438TIP3    H237730   3.673   1.835   2.062 -0.4226 -1.2659 -0.0026
 5439TIP3   OH237731   6.515   2.245  13.949 -0.7856  0.4095 -0.5348
 5439TIP3    H137732   6.577   2.240  14.021 -1.4356  0.3200  0.0247
 5439TIP3    H237733   6.565   2.219  13.872 -0.4504 -0.9079  0.1074
 5440TIP3   OH237734   0.466   4.865  12.029 -0.2568 -0.1161 -0.2995
 5440TIP3    H137735   0.384   4.824  12.056 -0.4085 -0.0495 -0.6599
 5440TIP3    H237736   0.440   4.934  11.968  0.0217  0.3085  0.0545
 5441TIP3   OH237737   6.873   1.323  10.386 -0.4954  0.2080 -0.2080
 5441TIP3    H137738   6.921   1.250  10.349 -1.2838 -0.2094 -0.4326
 5441TIP3    H237739   6.786   1.287  10.405 -0.0684  0.3300  2.2763
 5442TIP3   OH237740   6.176   1.673  11.667 -0.2658 -0.9961 -0.3027
 5442TIP3    H137741   6.154   1.590  11.711 -0.4772 -1.6390 -1.5942
 5442TIP3    H237742   6.271   1.678  11.672 -0.3717 -0.0700  1.9590
 5443TIP3   OH237743   2.297   4.645  10.234 -0.0049  0.0770 -0.5884
 5443TIP3    H137744   2.245   4.572  10.200  1.8315 -0.4937 -2.3913
 5443TIP3    H237745   2.374   4.603  10.273  0.4375  0.9816 -0.4728
 5444TIP3   OH237746   3.051   5.925  10.050 -0.6993  0.1664 -0.1957
 5444TIP3    H137747   3.024   5.842  10.089 -0.2808  0.3699  0.5275
 5444TIP3    H237748   3.144   5.915  10.033 -0.2978  1.0261  1.3122
 5445TIP3   OH237749   3.953   5.234  12.275 -0.3173  0.0318  0.0013
 5445TIP3    H137750   3.999   5.233  12.359 -1.4836 -1.3662  0.6679
 5445TIP3    H237751   4.003   5.295  12.221  0.3638  1.0833  1.7518
 5446TIP3   OH237752   1.279   4.878  11.387 -0.5530 -0.1313  0.1491
 5446TIP3    H137753   1.222   4.934  11.334 -1.3082 -0.7782  0.2517
 5446TIP3    H237754   1.245   4.789  11.372 -0.7784 -0.3352  1.7043
 5447TIP3   OH237755   4.171   5.611  12.661  0.1294 -0.0127 -0.2502
 5447TIP3    H137756   4.191   5.590  12.570  1.0990 -0.1474 -0.0086
 5447TIP3    H237757   4.090   5.662  12.656 -0.7765 -1.4669 -1.0542
 5448TIP3   OH237758   4.788   4.708  11.735 -0.0887  0.5022  0.2542
 5448TIP3    H137759   4.863   4.738  11.683  0.8936 -0.9886  0.7704
 5448TIP3    H237760   4.793   4.759  11.816  0.5149  0.2391  0.3864
 5449TIP3   OH237761   1.600   5.520   0.665 -0.1704  0.5652  0.4927
 5449TIP3    H137762   1.646   5.439   0.688 -0.3187 -0.1049 -1.3330
 5449TIP3    H237763   1.507   5.495   0.665 -0.1919  0.5783 -0.5086
 5450TIP3   OH237764   3.031   6.497  11.583  0.5531 -0.2654 -0.0504
 5450TIP3    H137765   3.110   6.551  11.588  1.0900 -1.0321  0.0250
 5450TIP3    H237766   3.053   6.419  11.634 -1.1561  0.5756  2.1124
 5451TIP3   OH237767   3.898   0.690  14.516 -0.0631 -0.4029  0.1661
 5451TIP3    H137768   3.897   0.601  14.551  1.5167 -0.8245 -0.7559
 5451TIP3    H237769   3.855   0.743  14.583  4.3499 -0.8306  3.8298
 5452TIP3   OH237770   3.844   2.441  13.374  0.5200 -0.1630 -0.7186
 5452TIP3    H137771   3.917   2.491  13.337 -0.8071  1.0581 -1.7498
 5452TIP3    H237772   3.797   2.504  13.428 -0.3734 -0.6661 -0.8942
 5453TIP3   OH237773   0.885   5.534  13.111 -0.1114 -0.8057  0.0050
 5453TIP3    H137774   0.981   5.534  13.117  0.0054 -3.1854 -0.7210
 5453TIP3    H237775   0.864   5.447  13.078 -2.4988 -0.0413 -0.6531
 5454TIP3   OH237776   6.138   5.664  14.765 -0.8557  0.6791  0.2461
 5454TIP3    H137777   6.172   5.742  14.809 -0.4720  0.7793 -0.2211
 5454TIP3    H237778   6.060   5.695  14.719 -0.9339  0.7004  0.3936
 5455TIP3   OH237779   6.584   6.170  14.615 -0.1763 -0.1517 -0.0280
 5455TIP3    H137780   6.609   6.198  14.527 -0.4048  2.4284  0.6504
 5455TIP3    H237781   6.665   6.176  14.665 -0.8854  3.1428  0.9681
 5456TIP3   OH237782   6.620   7.066   0.873 -0.2271 -0.4001  0.0442
 5456TIP3    H137783   6.666   7.123   0.811  0.3794 -1.1287 -0.1930
 5456TIP3    H237784   6.532   7.102   0.878  0.3805  1.0504  0.5411
 5457TIP3   OH237785   7.198   5.652  11.611  0.5868  0.1122 -0.1953
 5457TIP3    H137786   7.232   5.630  11.698  1.7569  1.2783 -0.3287
 5457TIP3    H237787   7.112   5.691  11.628 -0.2399 -1.7783  0.2339
 5458TIP3   OH237788   3.481   6.292  11.466  0.1160 -0.0246 -0.3259
 5458TIP3    H137789   3.509   6.305  11.375  0.3832 -1.1286 -0.4133
 5458TIP3    H237790   3.541   6.225  11.500 -0.6616 -0.3927  0.3348
 5459TIP3   OH237791   2.951   1.050  12.566  0.8756  0.4230 -0.0508
 5459TIP3    H137792   3.001   1.129  12.547  0.8965  0.8390  1.5816
 5459TIP3    H237793   2.875   1.081  12.614 -0.5735 -0.2961 -1.7678
 5460TIP3   OH237794   1.495   4.193  10.230 -0.5058  0.4579 -0.4020
 5460TIP3    H137795   1.589   4.202  10.249 -0.1167  0.7864 -2.2419
 5460TIP3    H237796   1.481   4.099  10.225 -0.3692  0.3963  0.2646
 5461TIP3   OH237797   3.281   2.817  12.673 -0.1203 -0.0306 -0.0011
 5461TIP3    H137798   3.198   2.770  12.670 -0.3782  0.5000 -1.5651
 5461TIP3    H237799   3.338   2.760  12.725 -1.2375 -0.7370  0.4835
 5462TIP3   OH237800   3.317   5.346  12.961  0.0952 -0.0065  0.3539
 5462TIP3    H137801   3.256   5.273  12.967  1.9996 -1.7669 -0.3216
 5462TIP3    H237802   3.332   5.358  12.867  0.0548  1.0864  0.4648
 5463TIP3   OH237803   7.057   6.985  11.916  0.0191  0.2263 -0.7265
 5463TIP3    H137804   7.133   6.933  11.892  0.1002  1.1832 -2.7418
 5463TIP3    H237805   6.991   6.921  11.942  0.8794 -0.7223 -0.8271
 5464TIP3   OH237806   2.330   4.323   0.843  0.2637  0.5861 -0.5919
 5464TIP3    H137807   2.329   4.320   0.939  2.3987  2.5469 -0.4187
 5464TIP3    H237808   2.242   4.353   0.819 -1.5421 -3.2267  0.4062
 5465TIP3   OH237809   0.746   2.319   1.900  0.1184 -0.0215 -0.3352
 5465TIP3    H137810   0.738   2.311   1.805 -2.2629 -0.2176 -0.1759
 5465TIP3    H237811   0.711   2.237   1.934  0.2891  0.3290  0.7344
 5466TIP3   OH237812   2.690   6.624   0.368  0.6607  0.1324 -0.3127
 5466TIP3    H137813   2.640   6.701   0.397  1.5800  0.3278  0.8649
 5466TIP3    H237814   2.625   6.554   0.361  0.3751 -0.1266  3.0100
 5467TIP3   OH237815   2.040   2.885  11.350  0.4717  0.5538 -0.3307
 5467TIP3    H137816   1.988   2.856  11.426 -0.7710  1.4474 -0.8094
 5467TIP3    H237817   2.003   2.837  11.276 -0.2674  1.8117 -0.8074
 5468TIP3   OH237818   6.798   0.186   9.979 -0.1934 -0.4344 -0.4288
 5468TIP3    H137819   6.818   0.178   9.886 -0.2285 -0.7795 -0.4094
 5468TIP3    H237820   6.883   0.176  10.022 -0.5760 -4.1802 -0.2178
 5469TIP3   OH237821   2.076   3.225   3.246 -0.6594 -0.3145  0.2199
 5469TIP3    H137822   2.013   3.275   3.194 -1.5195  0.6748  2.1043
 5469TIP3    H237823   2.117   3.291   3.302  0.5934 -1.2697  0.4616
 5470TIP3   OH237824   5.182   0.279  15.149 -0.3479  0.4814  0.0195
 5470TIP3    H137825   5.181   0.372  15.129 -0.3582  0.8065  1.3805
 5470TIP3    H237826   5.211   0.274  15.241 -1.8420 -0.7279  0.4830
 5471TIP3   OH237827   1.002   1.738  13.682  0.2981  0.6358  0.0772
 5471TIP3    H137828   0.931   1.783  13.727  0.4104  1.6540 -0.7399
 5471TIP3    H237829   0.989   1.757  13.589 -0.0826 -1.6506 -0.4013
 5472TIP3   OH237830   0.830   0.086   1.006 -0.0902 -0.7898  0.2036
 5472TIP3    H137831   0.853   0.046   0.922 -0.1082  0.3877 -0.3815
 5472TIP3    H237832   0.898   0.152   1.021 -1.0421  0.2113  0.2410
 5473TIP3   OH237833   2.539   4.318  10.489 -0.4167  0.4470 -0.2539
 5473TIP3    H137834   2.472   4.249  10.490  0.1391 -0.1259  1.2308
 5473TIP3    H237835   2.588   4.303  10.409  1.2072 -2.4714  1.1315
 5474TIP3   OH237836   7.097   5.832  10.985 -0.1971 -0.0948  0.3366
 5474TIP3    H137837   7.091   5.807  10.893 -0.9415 -0.3636  0.4503
 5474TIP3    H237838   7.069   5.755  11.034 -2.7771  0.9502  0.6760
 5475TIP3   OH237839   4.095   6.217   1.535 -0.3710 -0.2133  0.1338
 5475TIP3    H137840   4.095   6.159   1.611 -0.5206  0.2562  0.4924
 5475TIP3    H237841   4.079   6.158   1.461 -0.6053 -0.6204  0.5001
 5476TIP3   OH237842   1.204   7.146   0.838 -0.4506  0.2503 -0.0426
 5476TIP3    H137843   1.150   7.158   0.916 -1.0521 -1.4238 -0.1600
 5476TIP3    H237844   1.270   7.082   0.864 -1.0498 -0.8165 -1.0685
 5477TIP3   OH237845   3.044   2.105  10.266 -0.8089  0.0429  0.1483
 5477TIP3    H137846   2.996   2.044  10.324 -1.5864 -0.5754 -1.0940
 5477TIP3    H237847   2.976   2.165  10.235  0.2344  2.7995  2.7681
 5478TIP3   OH237848   1.664   0.007  11.488 -0.2328 -0.1558 -0.1437
 5478TIP3    H137849   1.675   0.101  11.473  0.2780  0.0648  1.4673
 5478TIP3    H237850   1.660  -0.002  11.583 -0.7536 -1.7256 -0.2851
 5479TIP3   OH237851   0.165   6.200  14.023  0.4239  0.1408 -0.3029
 5479TIP3    H137852   0.178   6.226  14.114 -0.8842 -0.9602  0.2402
 5479TIP3    H237853   0.248   6.159  13.997  0.5137 -0.3231  0.6884
 5480TIP3   OH237854   1.792   3.563  13.449  0.6745 -0.1082 -0.2359
 5480TIP3    H137855   1.732   3.563  13.524 -0.4181  0.8484 -1.0763
 5480TIP3    H237856   1.879   3.569  13.488  0.1692 -0.3315  0.9775
 5481TIP3   OH237857   2.843   5.913  13.228  0.5622 -0.0837 -0.0513
 5481TIP3    H137858   2.854   5.899  13.134 -1.4343 -0.2396 -0.3041
 5481TIP3    H237859   2.810   6.003  13.235  1.5783  0.2553  0.5918
 5482TIP3   OH237860   0.551   5.382  12.108  0.5621 -0.4869  0.0117
 5482TIP3    H137861   0.641   5.384  12.141  1.0478 -0.8597 -1.2394
 5482TIP3    H237862   0.553   5.321  12.035 -0.8613 -0.9793  0.3509
 5483TIP3   OH237863   3.425   6.064  10.219 -0.5530 -0.4106  0.3819
 5483TIP3    H137864   3.382   6.095  10.299  1.5355 -0.3336  1.5438
 5483TIP3    H237865   3.430   5.969  10.230  1.7699 -0.2227  1.5026
 5484TIP3   OH237866   5.666   5.796   2.437 -0.1876 -0.1972  0.0800
 5484TIP3    H137867   5.589   5.839   2.399  0.9469  0.0273 -2.1360
 5484TIP3    H237868   5.670   5.829   2.526 -1.6896  1.0921 -0.2740
 5485TIP3   OH237869   2.592   2.051   0.607 -0.7863 -0.1699  0.2800
 5485TIP3    H137870   2.515   2.104   0.587 -1.1828 -0.7453  0.2636
 5485TIP3    H237871   2.625   2.022   0.522 -1.1376 -0.7410  0.3350
 5486TIP3   OH237872   6.672   3.351   1.003 -0.1470  0.3808 -0.5164
 5486TIP3    H137873   6.600   3.395   0.956 -2.0719 -1.2304  0.7441
 5486TIP3    H237874   6.671   3.261   0.970 -0.2462 -0.2524  1.1248
 5487TIP3   OH237875   4.049   1.749   0.701 -0.0547 -0.4912  0.1569
 5487TIP3    H137876   4.095   1.832   0.711 -1.9049  0.7182 -0.8727
 5487TIP3    H237877   4.024   1.746   0.608 -1.3396 -1.4577  0.5019
 5488TIP3   OH237878   6.425   3.700   4.830 -0.1295  0.0051  0.5440
 5488TIP3    H137879   6.365   3.773   4.812 -0.3734 -0.8120 -2.5349
 5488TIP3    H237880   6.508   3.727   4.790  0.1256 -0.8830  0.4535
 5489TIP3   OH237881   0.629   4.798  11.350 -0.2116  0.4680  0.5966
 5489TIP3    H137882   0.657   4.780  11.439 -1.3365  0.5253  0.9712
 5489TIP3    H237883   0.533   4.803  11.355 -0.2982  0.3524 -0.6275
 5490TIP3   OH237884   4.619   3.409   0.035 -0.2358 -0.3495  0.3325
 5490TIP3    H137885   4.695   3.448   0.078 -1.0431  0.0048  1.5191
 5490TIP3    H237886   4.617   3.319   0.067 -0.0841 -0.4805 -0.0242
 5491TIP3   OH237887   1.632   1.695  13.241 -0.0059  0.1087 -0.0790
 5491TIP3    H137888   1.701   1.758  13.260  0.9681 -0.7991 -0.4612
 5491TIP3    H237889   1.665   1.646  13.165 -0.7305 -0.8305  0.1847
 5492TIP3   OH237890   0.888   0.782  13.664 -0.5542  0.1927 -0.1610
 5492TIP3    H137891   0.912   0.871  13.640  3.6612 -0.4078  1.0973
 5492TIP3    H237892   0.910   0.775  13.757 -2.6220 -1.6902  0.2831
 5493TIP3   OH237893   5.862   6.743   1.343  0.1438 -0.4143  0.0498
 5493TIP3    H137894   5.839   6.689   1.268  0.4413 -1.4622  0.7010
 5493TIP3    H237895   5.950   6.775   1.324 -0.4293  0.7298 -0.8161
 5494TIP3   OH237896   6.985   6.389   0.727  0.4280  0.3073  0.0052
 5494TIP3    H137897   6.937   6.460   0.685 -3.0210 -2.4218 -1.1337
 5494TIP3    H237898   6.923   6.349   0.787  2.1446 -1.8628  0.4955
 5495TIP3   OH237899   4.519   5.539  13.743 -0.3869  0.0646 -0.2479
 5495TIP3    H137900   4.513   5.509  13.834  1.8869  0.4608  0.0843
 5495TIP3    H237901   4.478   5.469  13.693  0.6799 -1.4578  0.8889
 5496TIP3   OH237902   4.488   2.210   0.595 -0.5269  0.2677  0.2913
 5496TIP3    H137903   4.578   2.177   0.601 -0.3093  0.7231 -0.3542
 5496TIP3    H237904   4.499   2.304   0.577 -1.1324  0.4914  1.0131
 5497TIP3   OH237905   7.042   0.329  10.325 -0.2694  0.0803 -0.1984
 5497TIP3    H137906   7.063   0.261  10.261  0.5668 -0.4314  0.5928
 5497TIP3    H237907   6.946   0.335  10.324 -0.2546  1.8859 -3.3081
 5498TIP3   OH237908   5.194   6.900  11.931 -0.4000  0.6273 -0.4686
 5498TIP3    H137909   5.239   6.815  11.934 -0.9036  0.2352 -2.3711
 5498TIP3    H237910   5.255   6.961  11.973  0.0066 -0.6429  0.8700
 5499TIP3   OH237911   1.640   5.214  10.359  0.0676 -0.2311 -0.3327
 5499TIP3    H137912   1.607   5.284  10.303  0.4418  0.0552 -0.2039
 5499TIP3    H237913   1.563   5.164  10.385 -0.0587 -0.6242 -1.4464
 5500TIP3   OH237914   4.663   3.113   3.679  0.2683 -0.3579 -0.0995
 5500TIP3    H137915   4.577   3.143   3.649  0.6850 -0.4056 -1.4043
 5500TIP3    H237916   4.668   3.022   3.650  0.5451 -0.5280  0.4646
 5501TIP3   OH237917   4.613   0.135   0.294  0.0433  0.0302  0.1587
 5501TIP3    H137918   4.561   0.194   0.239 -0.4915 -1.5522 -1.0918
 5501TIP3    H237919   4.549   0.086   0.345  0.3220 -1.2605 -0.6917
 5502TIP3   OH237920   5.686   1.768  12.586  0.6160 -0.1915 -0.1866
 5502TIP3    H137921   5.758   1.815  12.628  1.9977 -2.4785  0.2096
 5502TIP3    H237922   5.644   1.719  12.657  0.0922 -0.5918 -0.7554
 5503TIP3   OH237923   3.427   3.664  12.234  0.9833  0.5351  0.2112
 5503TIP3    H137924   3.353   3.605  12.217  2.6973 -1.5821 -0.3758
 5503TIP3    H237925   3.403   3.710  12.315 -1.6626  1.1762 -0.8577
 5504TIP3   OH237926   4.325   4.732   0.609  0.2473 -0.7987  0.5809
 5504TIP3    H137927   4.380   4.775   0.543 -0.9987 -1.2701 -0.8078
 5504TIP3    H237928   4.352   4.772   0.692  1.5775  0.0949 -0.2411
 5505TIP3   OH237929   0.648   3.916  14.901  0.0618  0.1473 -0.0114
 5505TIP3    H137930   0.683   3.924  14.990 -1.1219 -1.8032  0.6880
 5505TIP3    H237931   0.605   4.000  14.885  1.7573  1.1799  0.5471
 5506TIP3   OH237932   1.053   2.439  11.913 -0.8691 -0.0722 -0.3981
 5506TIP3    H137933   1.126   2.476  11.962 -0.0606 -2.5040  0.3775
 5506TIP3    H237934   0.975   2.477  11.954 -0.1287 -0.0718  1.0843
 5507TIP3   OH237935   0.070   2.518  14.257  0.0207  0.1239 -0.7293
 5507TIP3    H137936   0.062   2.446  14.321  1.5315 -0.1000 -0.7551
 5507TIP3    H237937   0.155   2.504  14.215 -0.8039  0.4443 -2.6075
 5508TIP3   OH237938   1.236   3.803  13.542 -0.1650 -0.1368 -0.1726
 5508TIP3    H137939   1.260   3.752  13.464 -0.1643  0.6694 -0.7146
 5508TIP3    H237940   1.172   3.748  13.588  0.4323 -0.9768 -0.3084
 5509TIP3   OH237941   6.744   1.119  11.591 -0.7457 -0.3158 -0.0244
 5509TIP3    H137942   6.838   1.102  11.585 -0.0950  1.9007  2.1540
 5509TIP3    H237943   6.726   1.118  11.685 -3.0560 -1.2181 -0.4255
 5510TIP3   OH237944   5.019   4.970  10.018  0.0581 -0.4106 -0.0955
 5510TIP3    H137945   5.002   4.939  10.107  1.0825 -0.0977  0.2261
 5510TIP3    H237946   4.933   4.990   9.983 -0.5543 -2.4836  0.0809
 5511TIP3   OH237947   2.493   6.305  14.678 -0.1061  0.6019 -0.0450
 5511TIP3    H137948   2.536   6.364  14.740  0.1292  0.4408 -0.0495
 5511TIP3    H237949   2.511   6.217  14.713 -1.0644  0.5600  0.3556
 5512TIP3   OH237950   1.201   0.695  14.896  0.1734 -0.4345 -0.1285
 5512TIP3    H137951   1.270   0.662  14.954  0.0320 -1.9870 -0.8141
 5512TIP3    H237952   1.121   0.690  14.949  0.3920  0.3034  0.2872
 5513TIP3   OH237953   0.147   0.809  11.695 -0.1520 -0.3178  0.0325
 5513TIP3    H137954   0.144   0.902  11.717  1.8155 -0.3925  0.7770
 5513TIP3    H237955   0.223   0.775  11.742  1.4892 -1.5201 -3.2071
 5514TIP3   OH237956   2.915   4.464  10.372 -0.2476  0.1082 -0.1909
 5514TIP3    H137957   2.997   4.426  10.340 -0.2307  1.0603 -1.3513
 5514TIP3    H237958   2.848   4.402  10.345 -0.1903  0.6915 -1.8340
 5515TIP3   OH237959   3.956   2.137  11.517  0.1785 -0.3213 -0.4166
 5515TIP3    H137960   3.984   2.047  11.531  2.7054  0.2896 -1.0000
 5515TIP3    H237961   3.978   2.182  11.599 -0.4543 -0.0910 -0.3686
 5516TIP3   OH237962   4.119   2.804  11.231  0.3599  0.1458  0.2326
 5516TIP3    H137963   4.070   2.798  11.149 -0.9714 -2.0451  1.0924
 5516TIP3    H237964   4.103   2.892  11.263 -0.3329  0.5318 -1.1251
 5517TIP3   OH237965   5.039   2.503   1.650  0.8477  0.0854 -0.2629
 5517TIP3    H137966   5.028   2.576   1.710  1.5963 -1.5439  1.9660
 5517TIP3    H237967   5.033   2.543   1.563  1.0185  2.7388  0.8448
 5518TIP3   OH237968   4.066   5.445   9.650 -0.4206  0.3214  0.5795
 5518TIP3    H137969   4.104   5.406   9.729 -0.0253  1.4167  0.9490
 5518TIP3    H237970   4.138   5.496   9.612 -1.0331  0.9888  0.3121
 5519TIP3   OH237971   4.718   5.328  10.719  0.7161 -0.2017  0.2405
 5519TIP3    H137972   4.806   5.290  10.719  0.3888 -1.3094  3.6632
 5519TIP3    H237973   4.725   5.406  10.775 -0.2237  0.4469 -0.5191
 5520TIP3   OH237974   4.752   6.184  12.141 -0.2457 -0.1625  0.0577
 5520TIP3    H137975   4.682   6.161  12.079  0.1265 -0.6858 -0.1687
 5520TIP3    H237976   4.708   6.189  12.226 -1.0018  1.7089 -0.3884
 5521TIP3   OH237977   4.615   6.289  13.843 -0.0251  0.2252  0.3122
 5521TIP3    H137978   4.547   6.317  13.904  1.1979  1.0141  1.3503
 5521TIP3    H237979   4.572   6.293  13.757 -1.5485 -0.1850  1.0130
 5522TIP3   OH237980   1.868   0.759   2.184 -0.1665 -0.4713 -0.2219
 5522TIP3    H137981   1.947   0.710   2.203  0.0876  0.4172  1.0937
 5522TIP3    H237982   1.889   0.809   2.104 -0.3487 -2.2402 -1.4311
 5523TIP3   OH237983   6.715   6.184  11.580  0.1488  0.5060 -0.1211
 5523TIP3    H137984   6.625   6.206  11.558  0.3413  0.2273 -1.3052
 5523TIP3    H237985   6.753   6.155  11.497  1.2180  0.2489  0.4364
 5524TIP3   OH237986   1.113   1.253  10.505 -0.1081  0.1664  0.2709
 5524TIP3    H137987   1.152   1.185  10.450 -0.3265  1.8397 -2.0716
 5524TIP3    H237988   1.018   1.242  10.492 -0.1653  0.5726  0.3537
 5525TIP3   OH237989   2.081   3.781  12.832  0.2584 -0.6978 -0.1252
 5525TIP3    H137990   2.116   3.729  12.760  1.7564  0.9450 -0.6491
 5525TIP3    H237991   2.090   3.725  12.909  0.0063 -1.9125 -0.9418
 5526TIP3   OH237992   5.764   1.541  10.871 -0.6437  0.0068 -0.1424
 5526TIP3    H137993   5.781   1.537  10.965 -0.7107  0.2913 -0.1184
 5526TIP3    H237994   5.669   1.555  10.864 -0.8043 -1.0751 -0.2665
 5527TIP3   OH237995   6.750   1.044   0.257  0.1915  0.2146  0.3973
 5527TIP3    H137996   6.828   0.991   0.241  1.2672  1.8799 -0.1544
 5527TIP3    H237997   6.748   1.056   0.352  0.0966 -0.5462  0.5004
 5528TIP3   OH237998   5.078   4.002   0.867 -0.0722 -0.2779 -0.3352
 5528TIP3    H137999   5.159   4.051   0.886 -0.9269  1.3249 -0.6164
 5528TIP3    H238000   5.082   3.926   0.925  2.0150 -0.6867 -0.9290
 5529TIP3   OH238001   5.275   5.643   9.633 -0.3972  0.0125  0.8124
 5529TIP3    H138002   5.224   5.674   9.558 -0.1351 -0.1974  0.5477
 5529TIP3    H238003   5.216   5.583   9.679 -0.6752  0.3945  0.9651
 5530TIP3   OH238004   0.018   0.441   0.871 -0.6416 -0.1066 -0.0711
 5530TIP3    H138005  -0.025   0.494   0.938  1.1686  2.1791 -0.5865
 5530TIP3    H238006  -0.002   0.485   0.788  2.3194  0.9725 -0.3516
 5531TIP3   OH238007   5.282   0.635  12.018 -0.0265 -0.2394 -0.1840
 5531TIP3    H138008   5.299   0.592  11.934  1.1074  0.3224 -0.2532
 5531TIP3    H238009   5.293   0.566  12.083 -1.5879 -0.8462 -0.5224
 5532TIP3   OH238010   1.144   6.075  14.155  0.3238 -0.1155  0.3031
 5532TIP3    H138011   1.072   6.014  14.142  0.1770 -0.3090  1.8223
 5532TIP3    H238012   1.102   6.158  14.178  0.5635  0.0869  0.0215
 5533TIP3   OH238013   4.132   5.023  10.175 -0.5550  0.1578 -0.5660
 5533TIP3    H138014   4.182   4.942  10.187 -1.6685 -0.3844  0.6922
 5533TIP3    H238015   4.175   5.067  10.101 -0.1695 -1.7672 -1.5688
 5534TIP3   OH238016   2.203   3.534   1.986  0.6925 -0.1895  0.0122
 5534TIP3    H138017   2.166   3.489   1.910  0.0954 -1.1174  0.8199
 5534TIP3    H238018   2.127   3.568   2.033  1.0200 -0.0541  0.4541
 5535TIP3   OH238019   1.149   3.204  13.719  0.0266 -0.4283 -0.3846
 5535TIP3    H138020   1.104   3.270  13.667  1.0350  0.3155 -0.3383
 5535TIP3    H238021   1.182   3.141  13.655 -0.0453 -0.3344 -0.5137
 5536TIP3   OH238022   2.008   2.269   4.177  0.2545 -0.7273 -0.0307
 5536TIP3    H138023   2.026   2.253   4.084 -1.1216 -1.1177 -0.2477
 5536TIP3    H238024   2.063   2.207   4.224  1.4817 -0.0641 -0.5385
 5537TIP3   OH238025   0.711   7.146  11.303  0.1935  0.6078 -0.2345
 5537TIP3    H138026   0.644   7.132  11.370  1.7256 -0.1542  1.2093
 5537TIP3    H238027   0.776   7.202  11.345  1.8604 -0.9785 -0.5709
 5538TIP3   OH238028   0.798   3.839   9.682 -0.5782  0.2742 -0.5484
 5538TIP3    H138029   0.830   3.915   9.634 -0.1413  0.8751  0.6333
 5538TIP3    H238030   0.744   3.791   9.620  2.1391 -0.4978 -2.5064
 5539TIP3   OH238031   2.487   6.471   2.387  0.1331 -0.0232  0.2293
 5539TIP3    H138032   2.555   6.494   2.450 -1.0339  1.1619  1.1036
 5539TIP3    H238033   2.485   6.376   2.388  0.8889 -0.0471  1.1438
 5540TIP3   OH238034   6.551   6.265  12.712  0.0683 -0.0454  0.4474
 5540TIP3    H138035   6.606   6.332  12.753 -1.3244  1.1371  0.4736
 5540TIP3    H238036   6.575   6.268  12.619  1.9477 -1.4772  0.8258
 5541TIP3   OH238037   0.283   0.168   1.023  0.4515  0.8772  0.1638
 5541TIP3    H138038   0.298   0.248   0.974 -0.8251 -0.5076 -2.7430
 5541TIP3    H238039   0.288   0.195   1.115  4.5686  3.3327 -0.5337
 5542TIP3   OH238040   1.848   2.315  13.657 -0.2940  0.5214  0.0487
 5542TIP3    H138041   1.814   2.288  13.742  0.3323 -0.2952  0.0484
 5542TIP3    H238042   1.774   2.358  13.614 -0.0889  2.9133  1.8243
 5543TIP3   OH238043   3.161   4.078  12.611  0.2361  0.1952  0.0743
 5543TIP3    H138044   3.145   4.088  12.517 -1.1022 -0.7311  0.1754
 5543TIP3    H238045   3.096   4.013  12.639  2.8129 -2.2270  0.9568
 5544TIP3   OH238046   5.328   0.164  10.796  0.2642 -0.2877  0.2975
 5544TIP3    H138047   5.233   0.157  10.787  0.2570 -1.1791  0.9195
 5544TIP3    H238048   5.355   0.225  10.728 -0.6931 -0.4787 -0.2612
 5545TIP3   OH238049   3.471   4.047   1.819  0.1835  0.8384 -0.1316
 5545TIP3    H138050   3.529   4.104   1.768  1.0224 -0.2918 -0.4893
 5545TIP3    H238051   3.529   4.001   1.879 -0.2515 -0.6696 -0.8254
 5546TIP3   OH238052   2.296   4.957  11.459  0.2842 -0.6125  0.5497
 5546TIP3    H138053   2.333   4.969  11.547  1.6975 -0.1686 -0.0760
 5546TIP3    H238054   2.366   4.914  11.410 -0.0075  0.2797 -0.6830
 5547TIP3   OH238055   1.691   4.559  14.147  0.5898  0.2333  1.2804
 5547TIP3    H138056   1.757   4.607  14.197 -1.3936 -0.0738  4.4784
 5547TIP3    H238057   1.618   4.620  14.141  0.6733  0.1618 -1.1941
 5548TIP3   OH238058   4.275   0.207  13.611 -0.1518 -0.4892  0.5508
 5548TIP3    H138059   4.334   0.216  13.685 -0.4984 -0.4915  0.8289
 5548TIP3    H238060   4.243   0.116  13.616  2.1930 -1.5167 -1.3932
 5549TIP3   OH238061   6.613   1.854  12.581 -0.0108  0.3160 -0.2481
 5549TIP3    H138062   6.698   1.846  12.537  0.4601  0.1443  0.6733
 5549TIP3    H238063   6.580   1.940  12.555  0.8799  0.7840  0.1425
 5550TIP3   OH238064   3.610   7.010  14.945 -0.4688 -0.1061 -0.1589
 5550TIP3    H138065   3.615   7.057  15.028  2.6181 -1.9611  0.8944
 5550TIP3    H238066   3.548   6.939  14.961  1.1478 -1.2983  1.1465
 5551TIP3   OH238067   6.581   2.682   9.780  0.6542  0.0664  0.0812
 5551TIP3    H138068   6.648   2.657   9.716  0.5617  0.2595 -0.0941
 5551TIP3    H238069   6.539   2.759   9.741  1.0880  0.6367  0.7121
 5552TIP3   OH238070   5.792   5.266  10.022 -0.0997  0.4413 -0.5500
 5552TIP3    H138071   5.871   5.306  10.061  0.9154  0.1541 -2.2214
 5552TIP3    H238072   5.768   5.197  10.084  0.3675  1.1797  0.4851
 5553TIP3   OH238073   5.964   4.509  13.020 -0.0626  0.0276 -0.1769
 5553TIP3    H138074   5.920   4.457  12.952  0.0863  0.3845 -0.5439
 5553TIP3    H238075   5.927   4.476  13.102  0.0235 -0.6613 -0.4053
 5554TIP3   OH238076   1.700   5.122  12.428  0.1402  0.3566 -0.3772
 5554TIP3    H138077   1.710   5.204  12.477 -2.0931  0.1238  0.5736
 5554TIP3    H238078   1.635   5.142  12.361  2.6698  0.4894 -3.0445
 5555TIP3   OH238079   7.080   1.703  14.928  0.8063  0.3317  0.3645
 5555TIP3    H138080   7.073   1.794  14.957 -3.4290  0.5208 -0.6448
 5555TIP3    H238081   7.117   1.709  14.840 -2.1556  1.5374 -0.9299
 5556TIP3   OH238082   7.205   6.858  10.125  0.0335 -0.1893 -0.4551
 5556TIP3    H138083   7.109   6.859  10.120  0.0364  0.2727 -0.4648
 5556TIP3    H238084   7.233   6.855  10.033  0.0315  0.2125 -0.4694
 5557TIP3   OH238085   5.542   6.333  11.971  0.4914 -0.4074 -0.6817
 5557TIP3    H138086   5.589   6.406  12.011 -1.8809  0.7212  0.2382
 5557TIP3    H238087   5.560   6.258  12.028  1.8483 -0.2251 -0.8589
 5558TIP3   OH238088   4.803   6.974  11.659  0.0711 -0.1443 -0.5386
 5558TIP3    H138089   4.852   7.024  11.594 -3.0588 -0.4212 -3.3712
 5558TIP3    H238090   4.803   6.884  11.625  0.9215 -0.9954  1.5417
 5559TIP3   OH238091   1.296   1.837  14.210  0.0355 -0.5985 -0.1911
 5559TIP3    H138092   1.272   1.930  14.208  0.1505 -0.5112  1.5202
 5559TIP3    H238093   1.321   1.817  14.119 -2.1213  0.4443 -1.0749
 5560TIP3   OH238094   3.347   6.825  11.286 -0.2555  0.6028 -0.4702
 5560TIP3    H138095   3.326   6.879  11.363  0.9039  1.2110 -0.5543
 5560TIP3    H238096   3.326   6.736  11.314 -1.9699  1.0406 -0.2390
 5561TIP3   OH238097   1.468   4.132  13.104 -0.1353  0.3371 -0.2350
 5561TIP3    H138098   1.442   4.144  13.196 -2.6619  0.7775 -0.9133
 5561TIP3    H238099   1.498   4.218  13.076  0.3185  0.2830  0.0730
 5562TIP3   OH238100   2.740   2.536  13.898  0.0927 -0.1601 -0.5243
 5562TIP3    H138101   2.764   2.563  13.810 -0.3320 -0.3791 -0.7105
 5562TIP3    H238102   2.701   2.450  13.887  0.6193 -0.4643 -0.0412
 5563TIP3   OH238103   0.188   0.352  11.650 -0.2050  0.0842  0.2242
 5563TIP3    H138104   0.279   0.339  11.624  0.4407  3.8129  0.0958
 5563TIP3    H238105   0.192   0.376  11.743 -1.0452  0.5084  0.1665
 5564TIP3   OH238106   1.214   5.481  14.340  0.3748  0.2241  0.2076
 5564TIP3    H138107   1.198   5.567  14.302 -3.1907 -1.4906 -2.8772
 5564TIP3    H238108   1.289   5.446  14.292  2.1474  1.6450  1.8061
 5565TIP3   OH238109   5.664   4.623  11.093  0.3348 -0.2428 -0.2790
 5565TIP3    H138110   5.613   4.687  11.043 -0.0059  0.1439  0.5530
 5565TIP3    H238111   5.599   4.574  11.143  0.5784 -1.3804 -1.0513
 5566TIP3   OH238112   2.486   1.479   2.855 -0.4440 -0.1520  1.0325
 5566TIP3    H138113   2.578   1.469   2.880  0.7986 -1.4077 -3.0858
 5566TIP3    H238114   2.489   1.540   2.781 -2.9408 -0.2372  0.7912
 5567TIP3   OH238115   1.940   2.810  11.596 -0.0771  0.0631 -0.2373
 5567TIP3    H138116   1.929   2.750  11.670 -2.9899  0.8689  0.1071
 5567TIP3    H238117   1.942   2.897  11.636  4.1846  0.4234 -0.7194
 5568TIP3   OH238118   2.773   0.352  11.563 -0.1601 -0.1967  0.3029
 5568TIP3    H138119   2.830   0.306  11.625 -0.6008 -1.4165 -0.1819
 5568TIP3    H238120   2.697   0.377  11.615  0.2932  0.4348  0.6828
 5569TIP3   OH238121   5.949   5.120  11.413  0.3993 -0.5500 -0.4969
 5569TIP3    H138122   5.913   5.209  11.414 -0.0562 -0.6902 -2.1507
 5569TIP3    H238123   5.875   5.064  11.436  1.0818 -0.4616  2.3932
 5570TIP3   OH238124   0.910   0.128  14.146  0.5777 -0.1851 -0.2208
 5570TIP3    H138125   0.868   0.066  14.086 -1.9247  0.8760  0.3213
 5570TIP3    H238126   0.847   0.140  14.216  2.7590 -0.1446  1.8586
 5571TIP3   OH238127   1.034   2.398  12.490 -0.0630  0.1917  0.0095
 5571TIP3    H138128   1.117   2.419  12.448 -0.3058  0.3141 -0.4090
 5571TIP3    H238129   1.055   2.325  12.549  0.0954 -0.5611 -0.9596
 5572TIP3   OH238130   0.557   6.515   9.791  0.2222 -0.4138 -0.9346
 5572TIP3    H138131   0.571   6.508   9.697  0.5706  1.1069 -1.0120
 5572TIP3    H238132   0.462   6.506   9.803  0.1826 -0.6444 -1.4178
 5573TIP3   OH238133   1.785   5.957  10.159 -0.1312 -0.5331  0.0415
 5573TIP3    H138134   1.711   5.949  10.219 -1.1206  1.0513 -0.8741
 5573TIP3    H238135   1.745   5.954  10.072  0.9307 -0.1358 -0.4740
 5574TIP3   OH238136   3.802   5.351   9.924 -0.2857  0.1280  0.0400
 5574TIP3    H138137   3.772   5.439   9.899 -2.6625 -0.1528  1.6061
 5574TIP3    H238138   3.770   5.294   9.854  1.5646  0.4693 -1.1645
 5575TIP3   OH238139   6.108   0.462  10.507 -0.1127  0.3342 -0.0527
 5575TIP3    H138140   6.192   0.496  10.540 -0.3113  0.2889  0.5031
 5575TIP3    H238141   6.071   0.535  10.457  0.0721  0.4890  0.0348
 5576TIP3   OH238142   0.979   5.392  13.664  0.4941  0.7038 -0.5131
 5576TIP3    H138143   0.994   5.303  13.696 -1.2950  0.2585 -0.8322
 5576TIP3    H238144   1.065   5.422  13.636  1.0207 -1.1734 -1.0082
 5577TIP3   OH238145   5.579   6.455  14.066  0.5967 -0.4305  0.3277
 5577TIP3    H138146   5.650   6.423  14.010  1.1378 -2.0208  1.8152
 5577TIP3    H238147   5.499   6.423  14.025  1.0096 -1.9091  0.6093
 5578TIP3   OH238148   0.151   0.246   9.894  0.1555 -0.0560 -0.1734
 5578TIP3    H138149   0.204   0.236   9.974 -0.4718 -1.7174  0.0531
 5578TIP3    H238150   0.209   0.217   9.824  0.8557  1.8027 -0.4176
 5579TIP3   OH238151   1.386   5.601  10.442 -0.5135 -0.3571  0.3455
 5579TIP3    H138152   1.475   5.567  10.439 -0.7661 -1.1831  1.5619
 5579TIP3    H238153   1.338   5.548  10.379 -0.1254  0.2066 -0.4426
 5580TIP3   OH238154   6.927   5.783  11.904  0.1152  0.1722 -0.3831
 5580TIP3    H138155   6.837   5.785  11.872 -0.2441 -0.1810  0.5791
 5580TIP3    H238156   6.943   5.692  11.926 -0.0992  0.5839  1.6390
 5581TIP3   OH238157   3.846   6.294   9.884 -0.8467  0.1168  0.0600
 5581TIP3    H138158   3.790   6.222   9.854  0.2412 -1.2024  1.0361
 5581TIP3    H238159   3.876   6.337   9.804 -0.4320 -1.3981 -0.6302
 5582TIP3   OH238160   2.182   1.461  12.089 -0.1571 -0.0003  0.1320
 5582TIP3    H138161   2.261   1.430  12.044 -0.7394 -2.1117  0.4567
 5582TIP3    H238162   2.118   1.391  12.077 -0.9388  0.1697  2.6692
 5583TIP3   OH238163   5.346   0.755  10.094 -0.5996  0.1639  0.1142
 5583TIP3    H138164   5.414   0.717  10.150  0.7440  1.2592 -0.7075
 5583TIP3    H238165   5.349   0.703  10.014 -1.8304 -0.7623  0.6374
 5584TIP3   OH238166   4.456   4.276  14.564  0.2541 -0.3375 -0.7807
 5584TIP3    H138167   4.458   4.233  14.479  1.1264 -1.6747 -0.1208
 5584TIP3    H238168   4.524   4.343  14.559 -0.0819 -0.0265 -1.3125
 5585TIP3   OH238169   5.344   5.858  12.750  0.0286 -0.4921  0.6236
 5585TIP3    H138170   5.436   5.849  12.726  0.6529 -1.2096  3.0328
 5585TIP3    H238171   5.298   5.802  12.688  1.0926  0.3952 -1.0539
 5586TIP3   OH238172   5.311   6.443   2.358  0.1890 -0.3049 -0.3934
 5586TIP3    H138173   5.317   6.504   2.285 -1.9944 -0.2886 -0.6065
 5586TIP3    H238174   5.331   6.497   2.435 -1.8326  0.7696 -0.5612
 5587TIP3   OH238175   5.880   4.830  12.889  0.4660 -0.3870  0.0133
 5587TIP3    H138176   5.873   4.743  12.927 -1.8109  0.1629  1.0222
 5587TIP3    H238177   5.852   4.820  12.798  0.1948 -0.6967  0.1334
 5588TIP3   OH238178   0.509   2.331  13.202  0.0495 -0.3819  0.2597
 5588TIP3    H138179   0.495   2.257  13.260  0.6020 -0.0445  0.8319
 5588TIP3    H238180   0.424   2.374  13.197 -0.2001 -0.8842  0.1555
 5589TIP3   OH238181   3.428   1.907   9.857 -0.5332  0.5443 -0.3544
 5589TIP3    H138182   3.518   1.930   9.834 -0.2181  0.4244  0.6824
 5589TIP3    H238183   3.431   1.812   9.871 -0.8742  0.5059 -0.5368
 5590TIP3   OH238184   3.375   5.074  15.095 -0.7708  0.0951  0.0913
 5590TIP3    H138185   3.394   4.988  15.057 -1.1750 -0.1957  0.5284
 5590TIP3    H238186   3.399   5.065  15.187 -1.3100  0.2853  0.2518
 5591TIP3   OH238187   2.138   5.925  13.815 -0.2856 -0.0190  0.5106
 5591TIP3    H138188   2.216   5.904  13.866  2.2698  2.2988 -2.0347
 5591TIP3    H238189   2.111   6.011  13.847  1.8699  1.8770 -2.2292
 5592TIP3   OH238190   1.602   1.333  13.854  0.2393  0.0044  0.1336
 5592TIP3    H138191   1.632   1.375  13.774 -1.2015  0.9926  0.0582
 5592TIP3    H238192   1.506   1.338  13.849  0.0908 -0.9012  1.4058
 5593TIP3   OH238193   5.820   2.145   3.651 -0.4710  0.4146  0.5720
 5593TIP3    H138194   5.885   2.146   3.721 -0.2402 -0.0445  0.3653
 5593TIP3    H238195   5.740   2.179   3.691  0.3184  2.6398  0.4128
 5594TIP3   OH238196   2.112   6.585   0.447  0.0625 -0.1820  0.0141
 5594TIP3    H138197   2.078   6.593   0.536 -0.9095 -1.1645 -0.2513
 5594TIP3    H238198   2.054   6.522   0.404 -1.3346  2.4036 -2.2175
 5595TIP3   OH238199   7.101   3.321   9.897 -1.0849 -0.1003  0.4560
 5595TIP3    H138200   7.079   3.228   9.901  0.1605 -0.3872  1.2788
 5595TIP3    H238201   7.106   3.348   9.989 -0.9903  0.6712  0.2351
 5596TIP3   OH238202   7.077   2.330  14.973 -0.7736  0.4173 -0.4076
 5596TIP3    H138203   7.065   2.289  15.059  1.4939 -1.2600 -0.7894
 5596TIP3    H238204   6.988   2.347  14.943 -1.6390  1.3887  2.3725
 5597TIP3   OH238205   5.928   5.062  10.535 -0.3117 -0.2083  0.4039
 5597TIP3    H138206   5.985   5.031  10.605 -0.2228  0.0941  0.4681
 5597TIP3    H238207   5.989   5.087  10.465 -0.4203 -4.2116 -1.4347
 5598TIP3   OH238208   1.777   4.813  14.917  0.3844 -0.2912 -0.6284
 5598TIP3    H138209   1.769   4.724  14.882  1.8080 -0.5681 -0.3328
 5598TIP3    H238210   1.827   4.860  14.850 -2.1077  0.9245 -1.7742
 5599TIP3   OH238211   0.774   4.381  11.238  0.3580  0.3981  0.1883
 5599TIP3    H138212   0.805   4.347  11.321 -0.5993  0.0649  0.4294
 5599TIP3    H238213   0.679   4.387  11.249 -0.0224 -1.5081 -1.5340
 5600TIP3   OH238214   5.612   7.204  14.514 -0.1779 -0.4374 -0.5026
 5600TIP3    H138215   5.664   7.202  14.594  2.1298  1.4510 -1.8017
 5600TIP3    H238216   5.673   7.180  14.444 -2.0581 -1.8543 -1.7638
 5601TIP3   OH238217   1.459   5.965   3.687 -0.5642 -0.5493  0.2509
 5601TIP3    H138218   1.404   6.039   3.660  0.3238 -0.1067 -0.3975
 5601TIP3    H238219   1.549   5.998   3.681 -0.1515 -1.6495  0.0225
 5602TIP3   OH238220   5.108   4.351  10.778 -0.1693 -0.4376 -0.0268
 5602TIP3    H138221   5.020   4.377  10.751  0.2422  1.3059  0.1861
 5602TIP3    H238222   5.117   4.261  10.747 -1.5050 -0.1613 -1.3339
 5603TIP3   OH238223   7.103   2.031  15.338 -0.2986  0.9690 -0.0835
 5603TIP3    H138224   7.096   2.106  15.279 -2.1126  1.0093  0.1152
 5603TIP3    H238225   7.012   2.010  15.361  0.0626 -1.9017 -0.8826
 5604TIP3   OH238226   1.341   3.803  11.991  0.0321 -0.5507 -0.1968
 5604TIP3    H138227   1.356   3.832  12.081 -1.4344  0.7558 -0.3257
 5604TIP3    H238228   1.265   3.853  11.962  1.1867 -0.0365 -2.5890
 5605TIP3   OH238229   2.580   2.985  11.570 -0.2712  0.1392 -0.4171
 5605TIP3    H138230   2.590   3.076  11.597  1.3753  0.3654 -1.6470
 5605TIP3    H238231   2.537   2.990  11.484 -2.5783 -0.4209  0.6154
 5606TIP3   OH238232   4.194   6.859  11.580 -0.1647 -0.3717  0.3821
 5606TIP3    H138233   4.169   6.918  11.652  0.0600  0.9733 -0.5971
 5606TIP3    H238234   4.253   6.796  11.620 -0.5527 -0.0457  1.5137
 5607TIP3   OH238235   4.459   1.162  11.811  0.3784 -0.3463  0.6788
 5607TIP3    H138236   4.461   1.103  11.735  3.4814 -1.2345  1.2806
 5607TIP3    H238237   4.477   1.249  11.774  1.0426 -0.6421  0.2805
 5608TIP3   OH238238   6.177   6.975   0.411 -0.3920 -0.3707  0.1935
 5608TIP3    H138239   6.121   7.052   0.412 -0.6848 -0.5255 -1.4624
 5608TIP3    H238240   6.186   6.950   0.503  0.2184  1.9908  0.8395
 5609TIP3   OH238241   1.010   3.097   0.222  0.5114  0.1292 -0.5484
 5609TIP3    H138242   1.050   3.168   0.171  0.7278 -0.9813 -2.0050
 5609TIP3    H238243   0.931   3.136   0.259  0.4421  1.0539 -1.5988
 5610TIP3   OH238244   3.280   3.310  10.527 -0.5265 -0.5917 -0.1924
 5610TIP3    H138245   3.260   3.393  10.571  0.7711  0.2652 -1.1592
 5610TIP3    H238246   3.375   3.304  10.529 -0.4028 -0.5572 -2.7826
 5611TIP3   OH238247   6.430   1.873   9.700  1.0295  0.6200  0.3165
 5611TIP3    H138248   6.419   1.782   9.727 -2.1084  0.9632  0.5555
 5611TIP3    H238249   6.425   1.870   9.604  2.3030  0.4430  0.2373
 5612TIP3   OH238250   6.630   1.315   2.235 -0.4346 -0.1974  0.0312
 5612TIP3    H138251   6.559   1.253   2.215 -0.6872 -0.4874  1.7051
 5612TIP3    H238252   6.620   1.385   2.171 -1.0600 -1.1602 -0.9589
 5613TIP3   OH238253   3.329   6.666   3.895 -0.2993 -0.3360  0.3079
 5613TIP3    H138254   3.307   6.574   3.914  0.5937 -0.4512  0.8291
 5613TIP3    H238255   3.259   6.696   3.837 -2.2135 -0.4825  2.4288
 5614TIP3   OH238256   4.634   6.441   5.827 -0.2774  0.0671 -0.7713
 5614TIP3    H138257   4.714   6.392   5.810 -0.6573 -0.4509 -1.1064
 5614TIP3    H238258   4.576   6.418   5.754 -0.7192  0.4549 -0.5479
 5615TIP3   OH238259   3.390   2.811   0.140  0.2297 -0.0701 -0.9563
 5615TIP3    H138260   3.409   2.873   0.070 -2.7277  0.9797 -0.9491
 5615TIP3    H238261   3.327   2.750   0.101  0.1667 -0.7562  0.1855
 5616TIP3   OH238262   2.726   2.408  13.156 -0.2649 -0.6919 -0.3919
 5616TIP3    H138263   2.759   2.496  13.177 -0.7390 -0.8797  1.3210
 5616TIP3    H238264   2.630   2.417  13.157 -0.3434 -0.7983 -2.3530
 5617TIP3   OH238265   2.810   3.954  14.834 -0.5302 -0.3934 -0.0751
 5617TIP3    H138266   2.893   3.953  14.882 -1.1675  1.9915  1.2441
 5617TIP3    H238267   2.743   3.963  14.901 -1.8377 -1.3469 -1.1838
 5618TIP3   OH238268   0.388   3.191  11.223  0.4001  0.7938 -0.0665
 5618TIP3    H138269   0.369   3.123  11.288  0.3039  1.3934  0.5365
 5618TIP3    H238270   0.421   3.142  11.147 -0.5400  0.0059  0.0190
 5619TIP3   OH238271   2.257   2.630  11.118 -0.0305  0.0550 -0.1107
 5619TIP3    H138272   2.284   2.698  11.179  1.7882 -1.0698  0.4034
 5619TIP3    H238273   2.173   2.599  11.152  1.0176 -0.6794  2.0226
 5620TIP3   OH238274   5.175   4.809  13.824 -0.1381 -0.5485 -0.0069
 5620TIP3    H138275   5.231   4.735  13.800 -0.9751 -1.0068 -0.5750
 5620TIP3    H238276   5.098   4.800  13.769 -0.2817  0.7292 -0.0497
 5621TIP3   OH238277   2.107   6.005  11.055 -0.7657 -0.6701  0.1843
 5621TIP3    H138278   2.193   5.986  11.093 -1.5055  2.7576  4.3861
 5621TIP3    H238279   2.126   6.060  10.979  0.8253  0.3547  1.2618
 5622TIP3   OH238280   1.049   2.095   0.870  0.6318  0.7085  0.1405
 5622TIP3    H138281   1.099   2.105   0.951  3.2795 -1.1256 -1.1252
 5622TIP3    H238282   1.010   2.009   0.877 -0.1445  1.0411 -0.0470
 5623TIP3   OH238283   6.079   3.095  10.961 -0.3751 -0.0627  0.2422
 5623TIP3    H138284   5.997   3.080  11.008 -0.4433  0.6798  0.3790
 5623TIP3    H238285   6.095   3.189  10.971  0.1744 -0.0937 -0.3049
 5624TIP3   OH238286   1.327   6.851   9.425  0.3206  0.2616  0.4084
 5624TIP3    H138287   1.351   6.900   9.346  2.1085  1.2375  1.4976
 5624TIP3    H238288   1.399   6.789   9.438 -0.0067  0.0387  1.2123
 5625TIP3   OH238289   4.083   0.729  13.888  0.6212  1.0633  0.9999
 5625TIP3    H138290   4.053   0.645  13.854  0.6894  1.2565  0.4559
 5625TIP3    H238291   4.066   0.791  13.817  0.3309  1.5569  1.4904
 5626TIP3   OH238292   0.432   1.223  13.717 -0.0575  0.5099 -0.1381
 5626TIP3    H138293   0.499   1.272  13.763  0.1602  0.5807 -0.5329
 5626TIP3    H238294   0.479   1.174  13.649 -0.1985 -0.5900  0.5183
 5627TIP3   OH238295   4.330   6.598  14.466  0.0490 -0.1466 -0.3671
 5627TIP3    H138296   4.260   6.663  14.460 -0.9270 -1.0284  0.9701
 5627TIP3    H238297   4.293   6.529  14.520  2.2727 -0.2303  1.1406
 5628TIP3   OH238298   1.385   6.708  10.262  0.5966 -0.5974  0.3682
 5628TIP3    H138299   1.454   6.647  10.286 -0.6488 -2.2381 -0.0846
 5628TIP3    H238300   1.387   6.712  10.167  1.6378  1.2905  0.4145
 5629TIP3   OH238301   1.629   0.294   0.601 -0.1590 -0.1097  0.0712
 5629TIP3    H138302   1.676   0.300   0.518 -0.0763  1.2552  0.2039
 5629TIP3    H238303   1.540   0.269   0.576  0.1583 -0.8937 -0.3206
 5630TIP3   OH238304   1.435   1.178   0.114 -0.2638  0.1197 -0.1902
 5630TIP3    H138305   1.348   1.185   0.076 -1.4020 -0.9909  2.0074
 5630TIP3    H238306   1.432   1.097   0.167  1.9496  0.2768  0.2802
 5631TIP3   OH238307   6.390   0.576   9.502 -0.1454 -0.5998 -0.7220
 5631TIP3    H138308   6.467   0.540   9.546 -0.3797 -1.1406 -0.7442
 5631TIP3    H238309   6.315   0.540   9.551 -0.3830  1.1116  0.2424
 5632TIP3   OH238310   6.545   0.869  10.275 -0.7993 -0.4842 -0.3228
 5632TIP3    H138311   6.615   0.806  10.253  1.7697  1.4820  1.5787
 5632TIP3    H238312   6.493   0.824  10.341  1.1072 -0.6666  1.1591
 5633TIP3   OH238313   6.074   3.444  10.676  0.5331 -0.2202 -0.2232
 5633TIP3    H138314   6.138   3.377  10.653  0.1603 -0.2484 -1.2247
 5633TIP3    H238315   6.126   3.515  10.715  0.8090 -1.5529  2.0150
 5634TIP3   OH238316   2.462   7.211  15.040  0.4129 -0.6754 -0.1348
 5634TIP3    H138317   2.486   7.194  15.131 -0.0465  0.2773  0.1777
 5634TIP3    H238318   2.381   7.262  15.046  1.2193  0.7926 -1.0248
 5635TIP3   OH238319   3.182   5.325  13.356 -0.2264 -0.0715 -0.2342
 5635TIP3    H138320   3.225   5.354  13.276  2.5617  0.0995  1.1988
 5635TIP3    H238321   3.101   5.376  13.360  1.1890  2.4492 -1.2703
 5636TIP3   OH238322   3.039   3.192  14.943 -0.5725  0.5490 -0.5362
 5636TIP3    H138323   3.119   3.236  14.971 -1.2114  0.2793  2.0055
 5636TIP3    H238324   3.066   3.100  14.931 -0.8127 -0.0531  2.5903
 5637TIP3   OH238325   4.292   4.327  11.498 -0.3651 -0.5462 -0.0290
 5637TIP3    H138326   4.337   4.411  11.510 -0.4695 -0.7590  2.2868
 5637TIP3    H238327   4.351   4.262  11.536 -0.5320 -1.4774 -1.3040
 5638TIP3   OH238328   0.638   5.787  12.328 -0.4886  0.5718  0.4728
 5638TIP3    H138329   0.639   5.878  12.296 -1.8281  0.5273  0.2251
 5638TIP3    H238330   0.575   5.743  12.270 -0.4240 -0.3303  1.0782
 5639TIP3   OH238331   3.027   1.512  11.322 -0.4434 -0.5725 -0.4370
 5639TIP3    H138332   3.006   1.602  11.348 -0.4277 -0.9128  0.7988
 5639TIP3    H238333   3.106   1.520  11.269 -0.7281  0.1834 -0.7724
 5640TIP3   OH238334   5.291   1.407  11.194  0.0545  0.8580  0.0436
 5640TIP3    H138335   5.295   1.502  11.198 -1.5133  0.9716 -0.5679
 5640TIP3    H238336   5.345   1.384  11.118  2.2507  1.0561  1.4662
 5641TIP3   OH238337   5.564   3.571  11.052  0.7454  0.0068  0.1071
 5641TIP3    H138338   5.489   3.630  11.057  2.2899  1.9628  1.7711
 5641TIP3    H238339   5.564   3.539  10.962  0.0621  2.9225 -1.0375
 5642TIP3   OH238340   1.003   4.439  12.398  0.2565  0.1512 -0.2123
 5642TIP3    H138341   0.968   4.384  12.329  3.1817  0.0341 -1.7404
 5642TIP3    H238342   0.983   4.529  12.370  3.1900  0.2286 -2.4236
 5643TIP3   OH238343   0.055   6.947  12.200  0.2627  0.2555 -0.1475
 5643TIP3    H138344   0.113   6.944  12.124 -1.3801 -0.2842 -1.4331
 5643TIP3    H238345   0.015   6.860  12.204  1.3000 -0.2187  2.2002
 5644TIP3   OH238346   1.597   0.581  12.901 -0.0560 -0.2078 -0.3476
 5644TIP3    H138347   1.560   0.527  12.970  0.5274  0.5514  0.5850
 5644TIP3    H238348   1.525   0.593  12.838 -0.9407  0.0095  0.6790
 5645TIP3   OH238349   5.932   0.186  12.034  0.5302 -1.4507  0.4702
 5645TIP3    H138350   5.944   0.097  12.000  2.2776 -1.7725  1.7658
 5645TIP3    H238351   5.910   0.173  12.127 -0.2945 -0.5389  0.4159
 5646TIP3   OH238352   0.712   5.751  10.522  0.4007  0.3545  0.2872
 5646TIP3    H138353   0.745   5.667  10.555 -1.2960  0.2796  2.0085
 5646TIP3    H238354   0.791   5.801  10.502  1.5257 -0.7364  1.6796
 5647TIP3   OH238355   4.977   4.861  10.278 -0.7825 -0.4489  0.2892
 5647TIP3    H138356   4.996   4.925  10.346  0.5762  0.8001 -1.1925
 5647TIP3    H238357   4.883   4.843  10.288 -1.5120  2.6628  0.0493
 5648TIP3   OH238358   4.280   4.153  11.035 -0.2122  0.2007  0.2821
 5648TIP3    H138359   4.342   4.188  11.099 -1.8523  2.0424  0.9906
 5648TIP3    H238360   4.319   4.170  10.950  0.2054  1.4634  0.7124
 5649TIP3   OH238361   1.102   4.471   0.951 -0.1551  0.4505 -0.0359
 5649TIP3    H138362   1.014   4.495   0.923 -0.4983  0.8777  1.3695
 5649TIP3    H238363   1.103   4.375   0.947  0.8385  0.4213 -4.4764
 5650TIP3   OH238364   3.205   6.265  11.599 -0.2096 -0.4553  0.2944
 5650TIP3    H138365   3.258   6.341  11.624  0.2984 -0.2821 -1.1796
 5650TIP3    H238366   3.226   6.252  11.507 -2.7014 -0.4268 -0.3472
 5651TIP3   OH238367   3.249   4.445  10.341  0.2992 -0.4795 -0.6881
 5651TIP3    H138368   3.285   4.391  10.412  1.7278  1.0449 -0.1986
 5651TIP3    H238369   3.278   4.534  10.361 -1.9124  0.5041 -1.5345
 5652TIP3   OH238370   4.030   1.311  12.765 -0.3026  0.3624  0.5001
 5652TIP3    H138371   3.982   1.390  12.788  0.8392  1.2937 -0.2198
 5652TIP3    H238372   4.120   1.340  12.750  0.1871 -1.0980  0.3846
 5653TIP3   OH238373   6.343   3.713  10.957 -0.3287  0.2614 -0.0348
 5653TIP3    H138374   6.366   3.621  10.970 -0.5094  0.0758 -0.9254
 5653TIP3    H238375   6.327   3.747  11.045  2.0215  0.0538  0.5378
 5654TIP3   OH238376   0.654   0.125  10.472 -0.3089  0.2849 -0.3554
 5654TIP3    H138377   0.652   0.150  10.380 -1.3288  1.0916 -0.1345
 5654TIP3    H238378   0.629   0.205  10.519 -2.0596 -0.7043  0.4840
 5655TIP3   OH238379   2.196   6.525  11.567  0.6331 -0.2556 -0.4274
 5655TIP3    H138380   2.260   6.596  11.558  1.1076 -0.5995  0.1370
 5655TIP3    H238381   2.147   6.526  11.485  1.3763  0.0001 -0.8781
 5656TIP3   OH238382   0.410   6.962  10.856 -0.1375  0.0942  0.3186
 5656TIP3    H138383   0.491   6.935  10.812  0.3405  2.2623 -0.2173
 5656TIP3    H238384   0.399   7.054  10.833 -1.6942  0.3976  2.0244
 5657TIP3   OH238385   1.967   1.102  10.742 -0.5388 -0.0459  0.5650
 5657TIP3    H138386   1.875   1.103  10.713 -0.0675 -1.3453 -1.1468
 5657TIP3    H238387   1.974   1.177  10.801 -3.2749 -1.2434  2.6749
 5658TIP3   OH238388   5.814   3.965  12.610 -0.2600  0.3850  0.4878
 5658TIP3    H138389   5.770   4.042  12.575  0.0980  0.8196  0.9904
 5658TIP3    H238390   5.907   3.986  12.607 -0.2637  1.2238  3.4518
 5659TIP3   OH238391   2.947   6.638   2.255  0.4214 -0.1925 -0.7871
 5659TIP3    H138392   3.017   6.641   2.189  2.0631 -0.3828  0.8624
 5659TIP3    H238393   2.960   6.718   2.306 -0.3839 -0.3879 -0.2722
 5660TIP3   OH238394   0.525   0.588   0.520 -0.6546  0.5582  0.6629
 5660TIP3    H138395   0.432   0.599   0.539 -0.3481  2.2961  1.2970
 5660TIP3    H238396   0.554   0.673   0.487  0.9686  0.4291  1.6289
 5661TIP3   OH238397   4.171   0.573  14.201  0.1595 -0.0576  0.0934
 5661TIP3    H138398   4.108   0.633  14.239  0.2657 -1.1611  2.1325
 5661TIP3    H238399   4.227   0.629  14.147 -0.8369  1.3712  0.4755
 5662TIP3   OH238400   5.836   1.784  14.209  0.1193  0.1474 -0.3175
 5662TIP3    H138401   5.763   1.846  14.205  1.6756  2.0632 -0.6557
 5662TIP3    H238402   5.828   1.732  14.130 -0.6414  0.6019 -0.5468
 5663TIP3   OH238403   4.093   4.582  12.740 -0.8435 -0.0969 -0.2200
 5663TIP3    H138404   4.120   4.490  12.738 -0.3851 -0.1455  2.9054
 5663TIP3    H238405   4.025   4.586  12.807  0.1706  2.0372  0.7789
 5664TIP3   OH238406   5.642   7.189  14.055  0.6407 -0.5497 -0.3003
 5664TIP3    H138407   5.552   7.157  14.046  0.2851  0.4361 -0.3173
 5664TIP3    H238408   5.661   7.230  13.971  0.5101  0.7047  0.2589
 5665TIP3   OH238409   1.293   1.695   0.066 -0.2873 -0.8469  0.8278
 5665TIP3    H138410   1.254   1.624   0.116  0.7144 -1.2815  1.0149
 5665TIP3    H238411   1.288   1.771   0.124 -2.1946 -0.5062  0.2816
 5666TIP3   OH238412   0.194   2.278   3.202  0.2051 -0.1528  0.0322
 5666TIP3    H138413   0.278   2.313   3.231  0.9888 -1.3893 -0.6601
 5666TIP3    H238414   0.197   2.186   3.226 -0.2215 -0.6067 -1.5277
 5667TIP3   OH238415   5.386   0.461  12.407  0.2767 -0.1052  0.5762
 5667TIP3    H138416   5.330   0.386  12.388 -0.6028  0.4615  0.8552
 5667TIP3    H238417   5.329   0.523  12.452  1.1268  0.5075  0.8478
 5668TIP3   OH238418   4.594   0.803  13.990  0.4424 -0.0881  0.3167
 5668TIP3    H138419   4.511   0.759  13.971  0.0622  0.8002 -0.1414
 5668TIP3    H238420   4.603   0.796  14.085  0.1411 -0.7152  0.3038
 5669TIP3   OH238421   6.600   5.620  14.971 -0.2869 -0.5954 -0.5949
 5669TIP3    H138422   6.533   5.687  14.985 -0.1752 -0.2596 -1.6035
 5669TIP3    H238423   6.673   5.648  15.026 -0.6329 -0.4673 -0.1951
 5670TIP3   OH238424   2.324   3.152  11.326 -0.3467 -0.0959  0.2595
 5670TIP3    H138425   2.403   3.137  11.275 -0.2350  0.7010  0.1806
 5670TIP3    H238426   2.257   3.096  11.285  0.6993 -2.6137  1.7564
 5671TIP3   OH238427   0.306   5.205  14.553  0.3777  0.2466  0.0321
 5671TIP3    H138428   0.244   5.274  14.532  0.7570  1.0409  1.3418
 5671TIP3    H238429   0.310   5.205  14.649  2.2534  0.1306  0.0011
 5672TIP3   OH238430   6.207   2.407  10.048  0.7565  0.1528  0.1200
 5672TIP3    H138431   6.176   2.497  10.036  0.8184  0.1380 -0.1601
 5672TIP3    H238432   6.248   2.407  10.134  1.1567  0.5024 -0.0703
 5673TIP3   OH238433   5.090   1.165  12.541  0.3348 -0.5328 -0.6426
 5673TIP3    H138434   5.109   1.076  12.570  1.3729  0.2252  1.1449
 5673TIP3    H238435   5.050   1.207  12.617 -0.7386  0.3662 -1.6701
 5674TIP3   OH238436   4.126   0.615   0.998 -0.2220 -0.8480  0.2916
 5674TIP3    H138437   4.117   0.546   0.933  1.7467  0.6179 -1.6686
 5674TIP3    H238438   4.216   0.606   1.030  0.5586  1.5335 -0.9989
 5675TIP3   OH238439   4.745   2.853  15.098 -0.0804  0.1480 -0.3081
 5675TIP3    H138440   4.673   2.805  15.140  1.7782 -1.5597  1.0915
 5675TIP3    H238441   4.785   2.904  15.169  0.2582  0.9203 -1.0276
 5676TIP3   OH238442   7.203   4.298  11.580 -0.4230  0.0013  0.5758
 5676TIP3    H138443   7.281   4.278  11.631  0.3676 -1.4687 -1.1134
 5676TIP3    H238444   7.196   4.226  11.517 -2.1160  1.0386 -0.5054
 5677TIP3   OH238445   1.786   1.142  13.957  0.3988 -0.1159 -0.3256
 5677TIP3    H138446   1.720   1.190  13.907  0.2313  0.5632  0.5324
 5677TIP3    H238447   1.843   1.210  13.993 -0.9964 -0.3485  2.5909
 5678TIP3   OH238448   1.643   6.210  10.081 -0.1887  0.4221  0.2307
 5678TIP3    H138449   1.647   6.189  10.175 -0.9267  0.5786  0.3024
 5678TIP3    H238450   1.687   6.137  10.038  1.1156  0.8672  0.7645
 5679TIP3   OH238451   1.957   2.539   9.502 -0.2245  0.4326 -0.5773
 5679TIP3    H138452   1.974   2.461   9.554 -1.1753 -0.1279 -1.0869
 5679TIP3    H238453   2.044   2.575   9.484  0.1397  0.4032  1.0113
 5680TIP3   OH238454   3.016   3.266   1.954  0.0496 -0.1026 -0.3807
 5680TIP3    H138455   3.099   3.281   1.909  0.1245 -0.8813 -0.5079
 5680TIP3    H238456   3.002   3.171   1.950 -0.0483 -0.1786  1.0417
 5681TIP3   OH238457   5.281   5.036  14.533 -0.8493  0.3229  0.6135
 5681TIP3    H138458   5.254   4.968  14.596 -1.2881 -1.3436 -1.2758
 5681TIP3    H238459   5.304   4.987  14.454  1.8694  2.1640  0.1370
 5682TIP3   OH238460   5.355   3.537  11.365 -0.0431 -0.4459 -0.2789
 5682TIP3    H138461   5.297   3.555  11.291 -0.8875  0.2782  0.5265
 5682TIP3    H238462   5.431   3.493  11.327  0.6095  1.9367 -1.9292
 5683TIP3   OH238463   3.823   4.955  11.581 -0.4687  0.8219  0.8169
 5683TIP3    H138464   3.831   5.043  11.545 -1.2669  0.2047 -1.0518
 5683TIP3    H238465   3.732   4.931  11.567  0.0741 -0.8769 -0.2725
 5684TIP3   OH238466   2.548   2.241   1.482 -0.1551 -1.0319 -0.2290
 5684TIP3    H138467   2.638   2.209   1.489  0.7517  1.1416 -0.9645
 5684TIP3    H238468   2.510   2.192   1.409  1.5176  0.1830 -2.0321
 5685TIP3   OH238469   0.950   4.125  13.111 -0.3118  0.2352 -0.2259
 5685TIP3    H138470   1.031   4.141  13.064  2.2291 -1.6996  2.9985
 5685TIP3    H238471   0.927   4.209  13.151  1.0680  0.4966  0.0630
 5686TIP3   OH238472   1.475   6.301  11.358 -0.1439  0.5678 -0.6315
 5686TIP3    H138473   1.521   6.219  11.342  0.7290  0.6911  1.0854
 5686TIP3    H238474   1.463   6.339  11.271  0.1062 -1.0077 -1.3782
 5687TIP3   OH238475   1.047   0.484  15.319  0.4682 -0.2066  0.4343
 5687TIP3    H138476   1.020   0.438  15.399  1.9304  0.1437  1.1707
 5687TIP3    H238477   1.129   0.528  15.343 -0.8701  2.9119 -0.1745
 5688TIP3   OH238478   7.195   6.289  12.596 -0.8967 -0.2156  0.0659
 5688TIP3    H138479   7.249   6.280  12.518 -1.7293 -0.0621 -0.5352
 5688TIP3    H238480   7.124   6.348  12.570 -2.0772 -1.4185  0.4385
 5689TIP3   OH238481   5.260   3.898   0.155  0.1452  0.2957 -0.7589
 5689TIP3    H138482   5.234   3.909   0.063 -0.2304 -0.0764 -0.6976
 5689TIP3    H238483   5.202   3.957   0.203 -0.3798 -0.2932 -0.6558
 5690TIP3   OH238484   3.030   4.444  13.950  0.2122 -0.0890  0.7258
 5690TIP3    H138485   2.969   4.460  13.877 -0.3909 -2.1793  0.6953
 5690TIP3    H238486   3.115   4.431  13.908 -0.1896 -1.5975  0.3011
 5691TIP3   OH238487   2.480   4.119   4.644 -0.3671  0.1678  0.5233
 5691TIP3    H138488   2.511   4.164   4.566 -0.0878  3.5137  2.3646
 5691TIP3    H238489   2.391   4.152   4.656  0.7634  2.6684  3.4032
 5692TIP3   OH238490   4.148   4.591  14.339 -0.3381 -0.2039  0.5804
 5692TIP3    H138491   4.139   4.507  14.384 -0.6564  0.3680  1.6195
 5692TIP3    H238492   4.150   4.569  14.246  1.6618 -1.5388  0.8951
 5693TIP3   OH238493   0.072   3.112  10.204  0.4946  0.4024  0.0044
 5693TIP3    H138494   0.037   3.047  10.265 -1.3236  0.8542 -0.5021
 5693TIP3    H238495   0.109   3.061  10.132  1.9588 -0.1129  1.0720
 5694TIP3   OH238496   2.657   6.055  12.784 -0.1073  0.2069 -0.8078
 5694TIP3    H138497   2.733   6.024  12.734 -0.3300 -0.7923 -0.5450
 5694TIP3    H238498   2.669   6.018  12.871 -0.8690  0.0872 -0.7511
 5695TIP3   OH238499   6.597   3.291  13.401 -0.1350 -0.2103  0.0468
 5695TIP3    H138500   6.579   3.372  13.354  0.0963  0.2025  0.6586
 5695TIP3    H238501   6.563   3.222  13.344 -1.0142  0.3602 -0.1436
 5696TIP3   OH238502   5.295   6.241  10.570 -0.1230 -0.5475 -0.3177
 5696TIP3    H138503   5.240   6.163  10.567 -1.1448  0.1633 -0.5327
 5696TIP3    H238504   5.247   6.305  10.517  1.3614 -0.1889 -1.2881
 5697TIP3   OH238505   5.692   2.075  12.297  0.5995  0.0294 -0.0143
 5697TIP3    H138506   5.759   2.023  12.252 -0.9224 -1.3731 -0.7551
 5697TIP3    H238507   5.610   2.031  12.276 -0.4565  1.0216  1.8435
 5698TIP3   OH238508   0.982   4.727  14.826 -0.1184  0.5393 -0.1917
 5698TIP3    H138509   0.998   4.702  14.917 -2.1590 -0.4848 -0.0656
 5698TIP3    H238510   0.887   4.731  14.818 -0.0958 -1.4815 -2.7925
 5699TIP3   OH238511   5.760   2.956   9.560  0.1721  0.9881  0.5073
 5699TIP3    H138512   5.705   2.941   9.637  0.4228  0.1276  0.5304
 5699TIP3    H238513   5.697   2.971   9.489 -0.0609  1.6727  0.8497
 5700TIP3   OH238514   4.915   6.759  11.369  0.0732 -0.3367 -0.3592
 5700TIP3    H138515   4.894   6.735  11.459 -0.2708 -0.9747 -0.5989
 5700TIP3    H238516   4.953   6.679  11.331 -0.7115 -0.3970 -1.0649
 5701TIP3   OH238517   5.651   2.814  12.162  0.5528 -0.4160 -0.1934
 5701TIP3    H138518   5.680   2.757  12.091 -0.0917 -1.8051  0.6093
 5701TIP3    H238519   5.558   2.792  12.174  0.3926  0.5437  0.3916
 5702TIP3   OH238520   6.158   5.726  13.891  0.1433  0.3011 -0.3802
 5702TIP3    H138521   6.205   5.781  13.955 -1.4975  1.3890 -0.0564
 5702TIP3    H238522   6.085   5.780  13.862  0.2973 -0.5414 -2.4986
 5703TIP3   OH238523   1.525   1.530  14.305 -0.2713  0.4172  0.3372
 5703TIP3    H138524   1.545   1.436  14.299  0.4475  0.4850  1.4035
 5703TIP3    H238525   1.602   1.573  14.269 -0.8523  0.6023 -0.7111
 5704TIP3   OH238526   3.227   5.261  13.673 -0.7890  0.3644  0.0372
 5704TIP3    H138527   3.280   5.341  13.678  1.7503 -1.2229  0.1760
 5704TIP3    H238528   3.251   5.222  13.589 -0.1413 -1.4366  1.0236
 5705TIP3   OH238529   0.562   3.647  10.815 -0.6385 -0.6715 -0.3151
 5705TIP3    H138530   0.542   3.741  10.821 -1.4235 -0.8261 -0.3385
 5705TIP3    H238531   0.509   3.617  10.741 -1.9748 -1.5255  0.9538
 5706TIP3   OH238532   3.951   0.006   9.601 -0.2805  0.3378 -0.7873
 5706TIP3    H138533   3.967  -0.089   9.601  2.3874  0.6953 -0.5860
 5706TIP3    H238534   3.933   0.027   9.692  3.5720  0.4899  0.1431
 5707TIP3   OH238535   5.616   0.049   9.710  0.4730 -0.1804 -0.1187
 5707TIP3    H138536   5.589   0.118   9.770 -0.5134 -0.4953 -0.1898
 5707TIP3    H238537   5.693   0.085   9.665  0.3615  0.6091  0.3061
 5708TIP3   OH238538   2.980   4.940   9.972  0.3565 -0.5476 -0.7916
 5708TIP3    H138539   3.043   5.011   9.986 -0.3413  0.4500 -2.4650
 5708TIP3    H238540   2.989   4.918   9.879  1.0627 -3.1943 -0.1927
 5709TIP3   OH238541   0.827   6.786   9.871 -0.3620 -0.2332 -0.0384
 5709TIP3    H138542   0.742   6.792   9.827 -1.5289 -1.7758  1.8136
 5709TIP3    H238543   0.805   6.761   9.961  2.1226 -2.0277  0.1666
 5710TIP3   OH238544   6.421   6.852  12.056  0.0887  0.0113 -0.6012
 5710TIP3    H138545   6.394   6.832  12.146 -0.3262  0.9458 -0.5149
 5710TIP3    H238546   6.404   6.771  12.008  0.4685 -0.5540  0.1897
 5711TIP3   OH238547   5.583   2.571  15.136  0.0811  0.3096  0.4895
 5711TIP3    H138548   5.591   2.520  15.055 -0.0316  0.1858  0.5559
 5711TIP3    H238549   5.651   2.638  15.129  0.7072 -0.2962  0.7313
 5712TIP3   OH238550   6.911   0.588  10.601  0.3172  0.1972  0.4498
 5712TIP3    H138551   6.973   0.603  10.530  0.3596 -1.5773  0.0739
 5712TIP3    H238552   6.827   0.576  10.557 -0.1528  1.6533  0.8969
 5713TIP3   OH238553   2.533   4.077  13.282  0.4154 -0.0282 -0.2209
 5713TIP3    H138554   2.572   4.070  13.195  1.9242 -0.0224  0.4296
 5713TIP3    H238555   2.607   4.075  13.342 -0.6800 -2.0999  1.2010
 5714TIP3   OH238556   5.170   0.760  12.251 -0.3910 -0.5188  0.5965
 5714TIP3    H138557   5.209   0.729  12.333  0.3201  0.2118  0.5456
 5714TIP3    H238558   5.234   0.737  12.184 -0.0936  0.5773  0.4920
 5715TIP3   OH238559   2.269   4.833  12.749 -0.2581  0.1319  0.0092
 5715TIP3    H138560   2.342   4.772  12.737 -1.8799 -1.6652 -1.5427
 5715TIP3    H238561   2.305   4.904  12.802  3.2706  0.5635 -2.6099
 5716TIP3   OH238562   3.732   5.891  13.476 -0.3522  0.3421 -0.1339
 5716TIP3    H138563   3.643   5.860  13.493 -0.2568  0.4750  0.6336
 5716TIP3    H238564   3.733   5.909  13.382 -1.0696  0.1296 -0.1905
 5717TIP3   OH238565   6.994   0.748  10.103  0.3840  0.0967  0.1625
 5717TIP3    H138566   7.044   0.719  10.179  1.3418 -0.3052 -0.5997
 5717TIP3    H238567   7.053   0.735  10.029 -1.8658 -3.4826 -1.2622
 5718TIP3   OH238568   4.076   1.126  14.203  0.0613  0.3990  0.3540
 5718TIP3    H138569   4.030   1.189  14.147 -0.1514 -1.3212 -1.5219
 5718TIP3    H238570   4.007   1.068  14.235  0.6496 -1.3030 -1.2825
 5719TIP3   OH238571   6.283   2.385  12.551  0.5342  0.3002  0.9763
 5719TIP3    H138572   6.300   2.296  12.519 -1.5327  0.4834 -0.8520
 5719TIP3    H238573   6.199   2.379  12.596 -0.7328  1.6380 -1.0289
 5720TIP3   OH238574   5.554   2.019  10.057 -0.3686  0.0223  0.8411
 5720TIP3    H138575   5.540   1.997  10.149  0.4158 -0.6211  0.8284
 5720TIP3    H238576   5.638   2.064  10.056  0.4199 -1.3859  0.2759
 5721TIP3   OH238577   1.062   4.969   0.144 -0.8739  0.0623  0.6400
 5721TIP3    H138578   1.129   4.960   0.212 -0.3292 -1.1904 -0.0245
 5721TIP3    H238579   1.066   5.062   0.120  1.2678 -0.1167  0.0318
 5722TIP3   OH238580   1.515   2.690  13.884 -0.0087 -0.6388  0.7647
 5722TIP3    H138581   1.609   2.679  13.873  0.1883  1.5600 -0.3586
 5722TIP3    H238582   1.502   2.695  13.978  1.0398 -0.6248  0.9170
 5723TIP3   OH238583   4.139   1.170  12.068  0.1920  0.0126  0.0507
 5723TIP3    H138584   4.121   1.218  12.149 -0.7322 -0.3294  0.0550
 5723TIP3    H238585   4.234   1.174  12.059  0.0972  2.8109 -0.5442
 5724TIP3   OH238586   3.485   6.181  11.801 -0.4710  0.1734 -0.1775
 5724TIP3    H138587   3.449   6.123  11.733  0.8392 -1.0831  0.1527
 5724TIP3    H238588   3.414   6.241  11.821 -1.6729 -0.9179 -1.0010
 5725TIP3   OH238589   2.545   3.379  12.196 -0.3356  0.0344  0.1966
 5725TIP3    H138590   2.602   3.443  12.154  0.6144 -0.9273 -0.0289
 5725TIP3    H238591   2.460   3.423  12.203  0.2642  1.2633 -0.0415
 5726TIP3   OH238592   2.547   2.561  12.532 -0.0360 -0.1795 -0.5359
 5726TIP3    H138593   2.597   2.480  12.539  0.4310  0.2451  1.9882
 5726TIP3    H238594   2.521   2.565  12.440 -1.4223 -3.9505 -0.4695
 5727TIP3   OH238595   4.651   2.157  11.087  0.4953  0.2075 -0.2203
 5727TIP3    H138596   4.607   2.114  11.014  1.4213 -1.4468  0.1492
 5727TIP3    H238597   4.580   2.196  11.138 -0.2584  0.3313 -1.3181
 5728TIP3   OH238598   5.343   1.799   9.659  0.4443  0.2422 -0.2225
 5728TIP3    H138599   5.372   1.713   9.631  0.9146  0.4310 -0.3196
 5728TIP3    H238600   5.317   1.843   9.578 -0.2371  0.0335 -0.1250
 5729TIP3   OH238601   1.415   4.842  13.937  0.4106 -0.0004  0.3988
 5729TIP3    H138602   1.371   4.803  14.013 -2.5143  3.0957  0.5114
 5729TIP3    H238603   1.500   4.870  13.971  1.1529 -2.8553  1.1700
 5730TIP3   OH238604   5.525   6.876   2.114 -0.3114 -0.2618 -0.5535
 5730TIP3    H138605   5.575   6.953   2.141  0.1993 -0.0959 -1.8595
 5730TIP3    H238606   5.587   6.824   2.064 -1.2201 -0.4478 -1.5309
 5731TIP3   OH238607   4.400   3.790   2.556 -0.2926  0.2398 -0.1099
 5731TIP3    H138608   4.347   3.727   2.604 -0.9364  0.5114 -0.4480
 5731TIP3    H238609   4.410   3.864   2.616  1.1811 -0.5186  0.6066
 5732TIP3   OH238610   1.709   1.118   0.115 -0.2736  0.4849 -0.5024
 5732TIP3    H138611   1.704   1.084   0.025 -0.9797 -1.5200  0.2383
 5732TIP3    H238612   1.618   1.118   0.145 -0.1360  1.8552  0.0100
 5733TIP3   OH238613   0.315   6.088  10.712 -0.2226 -0.5752 -0.0604
 5733TIP3    H138614   0.349   6.073  10.801  0.6493 -0.9867 -0.4569
 5733TIP3    H238615   0.280   6.177  10.715 -1.4006 -1.0383  1.0608
 5734TIP3   OH238616   0.154   3.988  13.651 -0.5229  0.6240  0.4320
 5734TIP3    H138617   0.152   4.033  13.567  2.1356 -0.6321 -0.4191
 5734TIP3    H238618   0.223   4.032  13.700  0.2696 -0.7154  0.6012
 5735TIP3   OH238619   0.997   5.897  10.245 -0.0361 -0.4366 -0.0499
 5735TIP3    H138620   0.910   5.935  10.237 -0.6205 -1.3868  1.3895
 5735TIP3    H238621   0.999   5.861  10.334  1.9635 -0.0906  0.0936
 5736TIP3   OH238622   2.488   4.428  13.095 -0.0843 -0.3190 -0.1591
 5736TIP3    H138623   2.565   4.456  13.045  1.3870  0.6118  2.4277
 5736TIP3    H238624   2.416   4.480  13.058  1.0071  0.6082 -1.0718
 5737TIP3   OH238625   6.965   3.449  15.198 -0.1587  0.1010  0.2010
 5737TIP3    H138626   6.948   3.542  15.184  0.6667  0.2156 -0.0875
 5737TIP3    H238627   6.890   3.405  15.159 -1.3926  0.6898  1.8161
 5738TIP3   OH238628   5.580   7.162  12.522 -0.3004  0.5497 -0.1856
 5738TIP3    H138629   5.622   7.167  12.436  0.6995 -0.4537  0.2233
 5738TIP3    H238630   5.600   7.074  12.553 -0.3822  1.0035  1.2036
 5739TIP3   OH238631   2.321   0.361  10.507  0.8565  0.3331 -0.4591
 5739TIP3    H138632   2.400   0.414  10.499  0.9484  0.5512  1.3929
 5739TIP3    H238633   2.339   0.302  10.580 -0.4925  0.0241 -0.3437
 5740TIP3   OH238634   5.094   3.548  13.253 -0.3298 -0.1780 -0.2957
 5740TIP3    H138635   5.114   3.455  13.252  1.0917  0.0856  0.3182
 5740TIP3    H238636   5.150   3.583  13.323  0.5839  1.4195 -1.7508
 5741TIP3   OH238637   0.168   2.044  13.949  0.2487  0.0193 -0.1168
 5741TIP3    H138638   0.218   2.061  14.029 -1.5219 -0.8783  1.2616
 5741TIP3    H238639   0.080   2.075  13.969 -0.1147  0.2625 -1.9426
 5742TIP3   OH238640   3.266   0.130  10.898 -0.6131 -0.2344 -0.2869
 5742TIP3    H138641   3.181   0.154  10.935 -1.0523 -1.0251 -0.7493
 5742TIP3    H238642   3.330   0.157  10.964 -1.2955 -0.5358  0.5119
 5743TIP3   OH238643   2.288   2.785  11.336  0.6057 -0.0876  0.4144
 5743TIP3    H138644   2.212   2.840  11.355 -0.0480 -0.2531 -1.5757
 5743TIP3    H238645   2.303   2.737  11.418 -2.2615 -1.0523  0.5035
 5744TIP3   OH238646   0.715   1.538  13.479  0.1937  0.6179  0.8053
 5744TIP3    H138647   0.808   1.555  13.463  1.0734 -2.8439  1.3812
 5744TIP3    H238648   0.714   1.476  13.551 -2.5618  0.1289  0.4702
 5745TIP3   OH238649   5.071   6.091  12.559 -0.3835  0.0115  0.3403
 5745TIP3    H138650   5.073   6.071  12.465  0.8595 -0.0958  0.3629
 5745TIP3    H238651   5.004   6.034  12.595  0.1032 -0.9686 -0.2748
 5746TIP3   OH238652   7.086   7.047  12.416 -0.0885 -0.2809 -0.1932
 5746TIP3    H138653   7.139   7.000  12.351 -2.1031 -0.2145 -1.9963
 5746TIP3    H238654   7.066   7.131  12.374 -0.0778  0.4519  1.2204
 5747TIP3   OH238655   6.956   0.126  13.903 -0.3338  0.1980 -0.0961
 5747TIP3    H138656   6.895   0.176  13.847  1.6588  0.0362 -2.5921
 5747TIP3    H238657   6.985   0.189  13.969 -0.4884  1.3345 -1.0778
 5748TIP3   OH238658   2.925   2.466  10.929  0.0508  0.2520  0.1539
 5748TIP3    H138659   2.885   2.379  10.923 -1.6453  0.8147  2.0723
 5748TIP3    H238660   2.989   2.458  10.999 -0.3249  0.5893  0.5456
 5749TIP3   OH238661   3.156   1.392  10.161 -0.1618 -0.0338  0.2687
 5749TIP3    H138662   3.124   1.449  10.231 -1.7952 -0.7329  0.1446
 5749TIP3    H238663   3.221   1.336  10.203  1.1879  1.5975  0.4839
 5750TIP3   OH238664   6.446   3.654  11.368  0.0216  0.6586  0.4217
 5750TIP3    H138665   6.527   3.615  11.334  0.6960  0.4415  2.1606
 5750TIP3    H238666   6.476   3.731  11.418 -0.8847  0.8274  0.7261
 5751TIP3   OH238667   5.613   6.123  12.140  0.1892 -0.3082  0.2058
 5751TIP3    H138668   5.707   6.111  12.151  0.0604 -0.4498  1.3281
 5751TIP3    H238669   5.574   6.072  12.211 -0.7210 -0.0608 -0.1014
 5752TIP3   OH238670   4.799   6.676  11.631 -0.1875  0.2207  0.2265
 5752TIP3    H138671   4.800   6.580  11.632  1.6711  0.1907  1.6785
 5752TIP3    H238672   4.764   6.701  11.716  1.6523  0.7705  0.8609
 5753TIP3   OH238673   7.006   0.151  13.421  0.2352 -0.0283  0.5469
 5753TIP3    H138674   6.984   0.096  13.346 -2.0953 -0.9960  1.8007
 5753TIP3    H238675   7.095   0.125  13.445 -0.0424 -1.7865 -0.1544
 5754TIP3   OH238676   5.751   1.436  12.591 -0.0211  0.4912  0.4162
 5754TIP3    H138677   5.708   1.515  12.560 -0.5182  0.8942  2.0406
 5754TIP3    H238678   5.680   1.372  12.601  0.4554 -0.4367 -1.5256
 5755TIP3   OH238679   6.384   0.144  11.655  0.2977 -0.1791  0.1724
 5755TIP3    H138680   6.290   0.136  11.637  0.0359  2.3150  0.1616
 5755TIP3    H238681   6.421   0.183  11.575  0.6592  2.3707  1.4955
 5756TIP3   OH238682   0.585   3.189   2.110 -0.9317  0.3387  0.1517
 5756TIP3    H138683   0.644   3.158   2.042  0.0234  2.7339 -0.2131
 5756TIP3    H238684   0.498   3.162   2.081 -0.5273  1.1881 -1.9872
 5757TIP3   OH238685   0.344   1.423  11.233 -0.2704  0.1178 -0.1995
 5757TIP3    H138686   0.263   1.452  11.192  0.2933 -0.5694 -1.9288
 5757TIP3    H238687   0.318   1.351  11.291 -0.9940  0.4888 -0.0625
 5758TIP3   OH238688   2.817   2.110   0.291  0.5125 -0.6486  0.2037
 5758TIP3    H138689   2.793   2.177   0.227  0.5193 -0.2221  0.6455
 5758TIP3    H238690   2.884   2.057   0.246  0.4294 -0.4312 -0.1830
 5759TIP3   OH238691   0.522   3.222   3.491  0.5916 -0.3625 -0.0711
 5759TIP3    H138692   0.537   3.203   3.398  1.1132  0.8823 -0.2654
 5759TIP3    H238693   0.494   3.138   3.528 -0.1044 -0.7745 -1.4397
 5760TIP3   OH238694   0.005   5.968  12.168 -0.5110  0.3803 -0.1970
 5760TIP3    H138695  -0.006   5.956  12.073 -1.6220  0.1190 -0.0557
 5760TIP3    H238696   0.034   5.883  12.199 -0.2487  0.4358 -0.2892
 5761TIP3   OH238697   3.488   4.411   9.947  0.4177 -0.2604 -0.2571
 5761TIP3    H138698   3.497   4.503   9.972  0.2132 -0.1903 -0.4389
 5761TIP3    H238699   3.551   4.398   9.876 -2.5366  0.9017 -3.3667
 5762TIP3   OH238700   3.441   4.197  14.852 -0.4602  0.1239 -0.1072
 5762TIP3    H138701   3.439   4.205  14.757 -0.8370  0.7902 -0.0521
 5762TIP3    H238702   3.534   4.191  14.874 -0.3198  0.8594 -0.4580
 5763TIP3   OH238703   3.384   5.358  10.585  0.3914 -0.0843  0.9286
 5763TIP3    H138704   3.410   5.323  10.500 -2.1574  0.0274  0.0041
 5763TIP3    H238705   3.401   5.287  10.647  0.9946 -0.6767  0.0919
 5764TIP3   OH238706   7.193   2.602  11.486 -0.6488  0.1688 -0.3760
 5764TIP3    H138707   7.142   2.655  11.547 -0.0869 -0.9264  1.1152
 5764TIP3    H238708   7.127   2.554  11.436 -1.1903 -1.4239  1.6987
 5765TIP3   OH238709   7.146   5.718  15.295 -0.1451 -0.2931  0.0409
 5765TIP3    H138710   7.173   5.806  15.322  2.3161 -1.4025  1.6129
 5765TIP3    H238711   7.052   5.715  15.311 -0.2743  2.0366 -0.0380
 5766TIP3   OH238712   2.616   1.863  13.849  0.4154  0.0450  0.1707
 5766TIP3    H138713   2.633   1.891  13.758 -2.5523 -0.1258 -0.5290
 5766TIP3    H238714   2.537   1.911  13.874  0.1738 -1.2483  2.0531
 5767TIP3   OH238715   2.310   4.526  14.154 -0.7653 -0.6962  0.3584
 5767TIP3    H138716   2.388   4.487  14.116  1.3752  1.8585  1.7805
 5767TIP3    H238717   2.282   4.591  14.090  0.6591  1.0502  1.4146
 5768TIP3   OH238718   0.095   3.542  10.651  0.0113  0.0618  0.6715
 5768TIP3    H138719   0.056   3.473  10.597  0.6620  0.7904 -0.7918
 5768TIP3    H238720   0.027   3.564  10.715 -1.4433  0.3194 -0.9073
 5769TIP3   OH238721   2.956   0.793  12.409  0.0544  0.2260  0.0355
 5769TIP3    H138722   2.990   0.818  12.323 -2.0653  0.0449 -0.8953
 5769TIP3    H238723   2.925   0.875  12.448 -1.2024 -0.0161 -0.4152
 5770TIP3   OH238724   7.097   0.895  12.776 -0.0756  0.1680  0.0869
 5770TIP3    H138725   7.139   0.897  12.691  0.9035 -0.7512  0.5222
 5770TIP3    H238726   7.077   0.986  12.796 -0.9437  0.3337 -1.4149
 5771TIP3   OH238727   1.217   2.725  14.825  0.6358  0.4222 -0.5454
 5771TIP3    H138728   1.292   2.782  14.841  1.5715 -0.9455  0.1741
 5771TIP3    H238729   1.179   2.757  14.743  1.5624  1.5884 -0.5424
 5772TIP3   OH238730   1.496   5.667   2.473  0.6233 -0.3630  0.7064
 5772TIP3    H138731   1.499   5.735   2.405 -0.8541 -0.0793  0.8818
 5772TIP3    H238732   1.468   5.588   2.426 -0.0864 -0.2415  0.9110
 5773TIP3   OH238733   3.555   2.714   9.677 -0.0530  0.2684 -0.9396
 5773TIP3    H138734   3.493   2.641   9.674 -0.9553  0.8714  1.0987
 5773TIP3    H238735   3.639   2.672   9.696 -0.3374 -0.3355 -0.9816
 5774TIP3   OH238736   2.162   6.976  10.617  0.7325  0.0873  0.0749
 5774TIP3    H138737   2.162   6.893  10.665 -2.7438  0.2764  0.6281
 5774TIP3    H238738   2.194   7.040  10.680  0.9749 -0.4256  0.4825
 5775TIP3   OH238739   2.773   6.307   9.951  0.5657  0.0928 -0.1140
 5775TIP3    H138740   2.684   6.331   9.925  0.6638  0.7267  0.1023
 5775TIP3    H238741   2.817   6.391   9.964  0.7128 -0.1943  1.4044
 5776TIP3   OH238742   3.346   4.270  14.319 -0.3241 -0.0439  0.2568
 5776TIP3    H138743   3.270   4.322  14.294  0.1144  0.4345 -0.0960
 5776TIP3    H238744   3.324   4.237  14.407 -2.1450 -2.2502 -0.9014
 5777TIP3   OH238745   4.976   5.617  14.035  0.0749 -0.4933 -0.7187
 5777TIP3    H138746   4.998   5.650  13.947  1.0909 -3.0570 -1.5246
 5777TIP3    H238747   4.911   5.549  14.019 -1.1033  0.2284  0.7538
 5778TIP3   OH238748   1.497   4.096  10.565  0.3953  0.2835  0.4802
 5778TIP3    H138749   1.527   4.168  10.510 -1.5580  0.0423 -0.9751
 5778TIP3    H238750   1.418   4.064  10.523 -0.9831 -0.2169  3.2036
 5779TIP3   OH238751   1.308   1.406  10.598 -0.5325 -0.5586  0.7150
 5779TIP3    H138752   1.223   1.367  10.581 -0.3500 -1.1072  1.0332
 5779TIP3    H238753   1.345   1.354  10.670  0.5214 -1.0151 -0.1273
 5780TIP3   OH238754   2.723   7.150  10.932 -0.6094 -0.0787 -0.1520
 5780TIP3    H138755   2.764   7.092  10.996 -0.7459  0.0648  0.0668
 5780TIP3    H238756   2.787   7.221  10.920 -0.0035 -0.7623 -1.1553
 5781TIP3   OH238757   2.904   0.624  13.807 -0.3296  0.4821 -0.3358
 5781TIP3    H138758   2.998   0.638  13.817 -0.5520  2.2679 -0.4110
 5781TIP3    H238759   2.883   0.658  13.720 -0.5858 -2.8480 -1.7231
 5782TIP3   OH238760   5.911   7.130  14.590  0.5072 -0.1387 -0.0370
 5782TIP3    H138761   5.869   7.188  14.654  1.4038  1.2499 -0.6719
 5782TIP3    H238762   6.003   7.131  14.613  0.8655  0.4840 -1.4022
 5783TIP3   OH238763   5.071   4.034   0.306 -0.0907  0.5532  0.0418
 5783TIP3    H138764   5.039   4.106   0.252  1.7132  1.4418  0.0868
 5783TIP3    H238765   5.055   4.062   0.396  1.1825  1.2103  0.0788
 5784TIP3   OH238766   2.035   3.126  14.660 -0.1981 -0.4079 -0.1206
 5784TIP3    H138767   2.045   3.176  14.579  1.5222 -0.0471  0.2711
 5784TIP3    H238768   2.118   3.080  14.671 -0.2050 -0.0905  1.6610
 5785TIP3   OH238769   2.755   4.887   1.600  0.0740  0.2983  0.3799
 5785TIP3    H138770   2.700   4.854   1.528  1.0337 -0.9225  0.1732
 5785TIP3    H238771   2.714   4.970   1.625 -2.7810 -1.2085  1.2321
 5786TIP3   OH238772   1.877   4.999  13.426  0.0339  0.2596 -0.4984
 5786TIP3    H138773   1.924   4.976  13.345 -0.7164 -1.1601 -0.5688
 5786TIP3    H238774   1.866   4.916  13.471 -3.9415  0.1289 -1.3289
 5787TIP3   OH238775   4.178   5.597  12.157 -0.2349  0.2745  0.0912
 5787TIP3    H138776   4.170   5.661  12.087 -0.8970 -0.8409 -0.8930
 5787TIP3    H238777   4.206   5.516  12.113  1.0475 -0.0156  1.3578
 5788TIP3   OH238778   1.913   1.389  14.128  0.1185  0.5123 -0.2840
 5788TIP3    H138779   1.933   1.304  14.166  2.6488  1.2777  0.3382
 5788TIP3    H238780   1.890   1.444  14.203  0.1707  0.7994 -0.4764
 5789TIP3   OH238781   2.690   5.702  10.546 -0.0292 -0.3965 -0.1162
 5789TIP3    H138782   2.671   5.720  10.454 -2.9305 -0.8517  0.3081
 5789TIP3    H238783   2.662   5.782  10.592  0.4680 -0.5549  0.4755
 5790TIP3   OH238784   2.180   3.444   3.480 -0.2995 -0.4299 -0.1573
 5790TIP3    H138785   2.270   3.417   3.464 -0.8000 -0.9757 -2.3872
 5790TIP3    H238786   2.138   3.365   3.516 -0.3308 -0.8069 -0.9916
 5791TIP3   OH238787   4.442   3.169  12.822 -0.2549 -0.5837 -0.1313
 5791TIP3    H138788   4.468   3.197  12.909  2.7234 -2.0979 -0.4086
 5791TIP3    H238789   4.445   3.073  12.825 -1.9024 -0.7442 -1.4521
 5792TIP3   OH238790   3.276   5.741  14.572 -0.6776 -0.1618 -0.3453
 5792TIP3    H138791   3.308   5.802  14.505  0.8980 -0.9681 -0.3796
 5792TIP3    H238792   3.348   5.679  14.583 -1.2028 -0.4701  1.5877
 5793TIP3   OH238793   5.202   2.201  12.565  0.1281  0.1966  0.2475
 5793TIP3    H138794   5.149   2.234  12.638  1.2247 -0.7732  1.5477
 5793TIP3    H238795   5.282   2.169  12.607 -0.0374 -2.2643 -1.1297
 5794TIP3   OH238796   4.362   6.426  10.665 -0.7166  0.1569 -0.3563
 5794TIP3    H138797   4.374   6.502  10.608 -0.4983  0.6296  0.3129
 5794TIP3    H238798   4.429   6.364  10.637  1.1502  1.4084  1.0664
 5795TIP3   OH238799   4.056   1.561   9.562 -0.5649  0.6699  0.0499
 5795TIP3    H138800   4.006   1.507   9.500 -0.8315  1.4097 -0.4008
 5795TIP3    H238801   4.015   1.545   9.647 -0.8883  0.4620 -0.1443
 5796TIP3   OH238802   2.636   4.209  13.659  0.4149  0.0509  0.3816
 5796TIP3    H138803   2.543   4.188  13.669  0.1876  0.2941 -1.1341
 5796TIP3    H238804   2.681   4.133  13.697 -0.4113 -1.1460 -0.9573
 5797TIP3   OH238805   4.343   6.430   2.606 -0.1261 -0.1533  0.5830
 5797TIP3    H138806   4.386   6.459   2.526 -0.2579  0.4534  0.7285
 5797TIP3    H238807   4.343   6.334   2.600  0.0131 -0.1163 -0.0619
 5798TIP3   OH238808   3.159   6.836  14.722  0.0550  0.3831 -0.2431
 5798TIP3    H138809   3.085   6.884  14.687 -1.1951 -0.6078  0.9484
 5798TIP3    H238810   3.213   6.816  14.645 -3.3498 -3.1069 -2.0560
 5799TIP3   OH238811   5.365   6.660  14.933 -0.1685 -0.0593 -0.6204
 5799TIP3    H138812   5.379   6.658  15.028 -0.0953 -1.0968 -0.6340
 5799TIP3    H238813   5.270   6.670  14.923  0.0580  3.0624 -0.4942
 5800TIP3   OH238814   1.866   4.748  13.498 -0.3381 -0.2664  0.1698
 5800TIP3    H138815   1.841   4.681  13.561 -0.7907 -0.4972 -0.2468
 5800TIP3    H238816   1.789   4.758  13.442 -0.4522  0.9352  0.5145
 5801TIP3   OH238817   2.077   6.401  12.229  0.0312 -0.0905  0.5699
 5801TIP3    H138818   1.982   6.396  12.237 -0.0301 -0.8495 -0.3840
 5801TIP3    H238819   2.109   6.317  12.265  0.1023 -1.1434 -1.7523
 5802TIP3   OH238820   3.181   7.110  12.541 -0.0444 -0.1608  0.0645
 5802TIP3    H138821   3.102   7.164  12.546  1.1423  1.5873  1.6037
 5802TIP3    H238822   3.152   7.022  12.562 -1.7427  0.2391 -0.4783
 5803TIP3   OH238823   3.536   1.998  13.928  0.3686  0.1539  0.0518
 5803TIP3    H138824   3.616   1.980  13.878 -0.5440 -1.3534 -0.9230
 5803TIP3    H238825   3.514   2.088  13.905  1.2561  0.2714 -0.4011
 5804TIP3   OH238826   3.854   0.859  13.097  0.0630 -0.0446 -0.4179
 5804TIP3    H138827   3.836   0.941  13.052 -2.4118  0.0966  0.7118
 5804TIP3    H238828   3.887   0.885  13.183 -1.4023 -0.1750  0.2088
 5805TIP3   OH238829   2.724   6.787  11.329  0.1676 -0.3376  0.6171
 5805TIP3    H138830   2.809   6.816  11.296 -0.1159 -1.2770 -1.0371
 5805TIP3    H238831   2.739   6.770  11.422  1.8304 -0.6824  0.3159
 5806TIP3   OH238832   1.938   5.474  10.910  0.3297 -0.4990  0.2748
 5806TIP3    H138833   1.859   5.517  10.879  0.2569 -0.2890  0.7393
 5806TIP3    H238834   1.907   5.415  10.979  0.3853 -1.5318 -0.5550
 5807TIP3   OH238835   2.463   3.798   0.458  0.4509  0.0442  0.2711
 5807TIP3    H138836   2.523   3.728   0.484 -0.8842 -0.6488  1.6607
 5807TIP3    H238837   2.498   3.830   0.375  1.6303 -1.6219  0.0695
 5808TIP3   OH238838   3.226   0.505   0.725  0.4715 -0.2910 -0.4723
 5808TIP3    H138839   3.213   0.514   0.819  0.4666  0.9839 -0.5783
 5808TIP3    H238840   3.141   0.475   0.692 -0.0857  0.9646 -0.2605
 5809TIP3   OH238841   4.470   0.270   4.829 -0.6165  0.0744 -0.4473
 5809TIP3    H138842   4.526   0.306   4.898  0.9751 -0.2561 -1.4945
 5809TIP3    H238843   4.508   0.185   4.809 -1.2014  0.0528 -1.5462
 5810TIP3   OH238844   4.465   3.123   2.209  0.3138 -0.3903 -0.6328
 5810TIP3    H138845   4.452   3.140   2.303 -0.7355 -1.0820 -0.6455
 5810TIP3    H238846   4.499   3.206   2.175 -0.5348  0.2900  0.1164
 5811TIP3   OH238847   3.466   3.628  10.990  0.2789 -0.5701 -0.8444
 5811TIP3    H138848   3.444   3.537  10.971 -0.1646 -0.5360 -0.5072
 5811TIP3    H238849   3.507   3.626  11.076 -0.5846 -0.3419 -0.4164
 5812TIP3   OH238850   2.533   6.819  14.584 -0.3715 -0.2718  0.9916
 5812TIP3    H138851   2.453   6.785  14.623  0.5053 -2.2151  1.1963
 5812TIP3    H238852   2.553   6.760  14.512 -0.7096  1.9478 -1.0647
 5813TIP3   OH238853   5.798   2.043  11.334 -0.1067  0.1883  0.2423
 5813TIP3    H138854   5.829   1.955  11.314 -1.2905 -0.0261 -0.7803
 5813TIP3    H238855   5.839   2.098  11.267  1.0847  0.5299  1.2213
 5814TIP3   OH238856   1.731   4.703  12.416  0.0328 -0.9120 -0.0453
 5814TIP3    H138857   1.762   4.791  12.394  0.3855 -0.8778  0.5910
 5814TIP3    H238858   1.804   4.662  12.462 -0.0039 -1.6645 -0.6422
 5815TIP3   OH238859   1.448   1.256  11.596 -0.2102 -1.2182 -0.5002
 5815TIP3    H138860   1.429   1.195  11.667 -1.4419  0.8383  1.0812
 5815TIP3    H238861   1.435   1.343  11.636  4.3271  0.2925 -1.6851
 5816TIP3   OH238862   2.417   2.144  11.149 -0.0149  0.1051 -0.3557
 5816TIP3    H138863   2.511   2.146  11.168  0.0790  0.6652 -0.8585
 5816TIP3    H238864   2.389   2.057  11.179  0.2319  0.7105  1.7263
 5817TIP3   OH238865   2.063   4.472  10.595  0.2253 -0.0691 -0.0667
 5817TIP3    H138866   2.013   4.459  10.675  0.0802 -0.8415 -0.2744
 5817TIP3    H238867   2.114   4.392  10.585  0.7592  0.3013 -0.3878
 5818TIP3   OH238868   4.764   0.657  11.722 -0.1781  0.0910 -0.3894
 5818TIP3    H138869   4.704   0.632  11.652  0.1312  0.9029 -0.9521
 5818TIP3    H238870   4.816   0.728  11.686  1.7543 -1.1665 -0.2526
 5819TIP3   OH238871   6.873   0.751  12.365  0.2078  0.0746  0.4746
 5819TIP3    H138872   6.832   0.686  12.307  1.0179  0.4738 -0.5713
 5819TIP3    H238873   6.853   0.720  12.453 -0.9735 -0.6011 -0.0119
 5820TIP3   OH238874   4.237   5.013  11.597  0.4170 -0.6776  0.2597
 5820TIP3    H138875   4.283   4.976  11.521  2.5158 -2.4446  2.2373
 5820TIP3    H238876   4.264   5.105  11.599 -0.7978 -0.1947 -1.8331
 5821TIP3   OH238877   7.039   5.902  13.560  0.0066  0.1857 -0.4488
 5821TIP3    H138878   7.008   5.812  13.553  0.0368 -0.0607  1.8016
 5821TIP3    H238879   7.128   5.899  13.526 -0.8520 -0.0471 -2.7943
 5822TIP3   OH238880   6.466   1.003  11.109  0.3589  0.3866 -0.2759
 5822TIP3    H138881   6.539   1.060  11.132  0.2673  0.0814  0.8185
 5822TIP3    H238882   6.454   0.947  11.186  0.2278 -0.8780 -1.1690
 5823TIP3   OH238883   0.191   4.399   3.106  0.1258 -0.3078 -0.1652
 5823TIP3    H138884   0.122   4.407   3.041 -1.1066 -0.3011  1.0806
 5823TIP3    H238885   0.190   4.307   3.131  0.6642 -0.3348 -0.2330
 5824TIP3   OH238886   6.372   5.281   9.600  0.3052  0.4516 -0.7794
 5824TIP3    H138887   6.367   5.192   9.563 -1.6481 -0.7291  1.9680
 5824TIP3    H238888   6.318   5.334   9.541 -0.6103 -0.7784 -1.0951
 5825TIP3   OH238889   6.436   4.748   0.593  0.4149  0.0588  0.3771
 5825TIP3    H138890   6.357   4.802   0.600 -0.4861 -1.2458  0.5955
 5825TIP3    H238891   6.480   4.780   0.514  0.0141  1.2437  0.6203
 5826TIP3   OH238892   1.201   2.521  13.072 -0.7367  0.3577 -0.1486
 5826TIP3    H138893   1.213   2.431  13.040  1.1206  0.5518 -0.1210
 5826TIP3    H238894   1.106   2.535  13.070 -1.0324 -1.4418 -0.5834
 5827TIP3   OH238895   0.587   0.602  11.158  0.2191 -0.4703  0.5411
 5827TIP3    H138896   0.635   0.682  11.178  0.2014 -0.5811  1.0422
 5827TIP3    H238897   0.612   0.580  11.069  0.1831  0.1232  0.3833
 5828TIP3   OH238898   6.877   4.745  13.953  0.0259 -0.1778  0.2739
 5828TIP3    H138899   6.955   4.797  13.930 -0.5071 -0.0426 -1.4151
 5828TIP3    H238900   6.896   4.711  14.040  1.7344  0.3132  0.1433
 5829TIP3   OH238901   3.655   2.420  10.130 -0.5029  0.0438 -0.0600
 5829TIP3    H138902   3.631   2.362  10.058  0.3610 -0.9361  0.4127
 5829TIP3    H238903   3.659   2.507  10.091  0.1426 -0.4967 -1.2602
 5830TIP3   OH238904   4.159   7.207  12.318 -1.1544 -0.1778  0.0654
 5830TIP3    H138905   4.130   7.246  12.235 -0.6984 -2.4307 -1.2606
 5830TIP3    H238906   4.182   7.117  12.294  2.9198  0.2118  1.8062
 5831TIP3   OH238907   0.797   2.937  10.309  0.0705 -0.1611 -0.4957
 5831TIP3    H138908   0.872   2.990  10.280 -0.4992  1.1308  0.2918
 5831TIP3    H238909   0.733   2.945  10.238  0.4432 -0.7647 -0.9005
 5832TIP3   OH238910   5.314   4.703   9.146  0.3257 -0.1444 -0.0672
 5832TIP3    H138911   5.222   4.723   9.125  0.0696 -0.8190  0.3726
 5832TIP3    H238912   5.311   4.616   9.185  1.3523 -0.8733 -1.5150
 5833TIP3   OH238913   6.996   3.367  12.833 -0.4788  0.2779 -0.1214
 5833TIP3    H138914   7.009   3.282  12.875  0.6384 -0.2853 -1.5115
 5833TIP3    H238915   6.909   3.361  12.793 -0.3169 -0.3104 -0.4007
 5834TIP3   OH238916   0.022   6.364   2.911 -0.5095  0.3193 -0.0550
 5834TIP3    H138917   0.092   6.305   2.940 -1.3865 -0.3112  0.8670
 5834TIP3    H238918  -0.014   6.400   2.992 -1.8162 -0.0550 -0.4319
 5835TIP3   OH238919   3.124   4.053  12.323 -0.3465  0.7742  0.2067
 5835TIP3    H138920   3.063   4.059  12.249  0.5470 -1.3854 -0.7774
 5835TIP3    H238921   3.204   4.094  12.291 -0.7243  2.1118  0.9127
 5836TIP3   OH238922   6.833   0.455  14.136 -0.2580  0.0948 -0.6582
 5836TIP3    H138923   6.755   0.402  14.120 -1.7412  2.1173 -0.4755
 5836TIP3    H238924   6.808   0.543  14.108  1.3411  1.1832  1.1228
 5837TIP3   OH238925   5.954   3.702  11.243 -0.1804  0.1466 -0.8050
 5837TIP3    H138926   5.867   3.691  11.206  0.8146 -0.1835 -3.2320
 5837TIP3    H238927   5.984   3.787  11.210 -0.6604  1.7742  2.5364
 5838TIP3   OH238928   3.463   4.193  13.002  0.1799 -0.5233  0.2657
 5838TIP3    H138929   3.558   4.196  13.013  0.1924  0.0364 -0.0007
 5838TIP3    H238930   3.448   4.206  12.909 -0.0217 -3.7053 -0.2491
 5839TIP3   OH238931   4.422   6.645   0.612 -0.2833  0.1623 -0.0736
 5839TIP3    H138932   4.436   6.738   0.630 -1.3778  0.1460  0.9170
 5839TIP3    H238933   4.375   6.644   0.529 -2.1278  0.6249  0.9129
 5840TIP3   OH238934   0.675   3.017  11.331 -0.2238 -0.3455  0.1339
 5840TIP3    H138935   0.635   2.936  11.362  0.5508 -0.7347  0.1328
 5840TIP3    H238936   0.720   2.993  11.250 -2.7522  0.7856 -1.7387
 5841TIP3   OH238937   5.683   2.133  12.596  0.3309 -0.2751 -0.0196
 5841TIP3    H138938   5.738   2.063  12.630 -0.3421 -0.4141  0.8051
 5841TIP3    H238939   5.674   2.113  12.503 -0.3498 -1.6473  0.3173
 5842TIP3   OH238940   1.480   5.728   9.404  0.0026 -0.3724  0.2232
 5842TIP3    H138941   1.496   5.644   9.361  0.6152 -0.5664  0.8119
 5842TIP3    H238942   1.403   5.712   9.459  0.2467 -0.6117  0.4970
 5843TIP3   OH238943   0.840   5.473  10.480 -0.1486  0.5375  0.2624
 5843TIP3    H138944   0.746   5.463  10.493 -0.0533  1.5253  1.9968
 5843TIP3    H238945   0.870   5.386  10.452 -1.2561 -0.3874  1.8425
 5844TIP3   OH238946   3.652   6.612   2.531 -0.4963  0.1996  0.3320
 5844TIP3    H138947   3.723   6.547   2.537 -0.7451 -0.5566 -2.9602
 5844TIP3    H238948   3.584   6.578   2.588 -1.5511 -3.9414 -2.9119
 5845TIP3   OH238949   5.101   1.460  14.130 -0.1343  0.1849  0.7296
 5845TIP3    H138950   5.101   1.554  14.151  1.7426  0.1403  1.1215
 5845TIP3    H238951   5.162   1.422  14.193  1.1074 -0.8857 -1.0264
 5846TIP3   OH238952   4.119   3.468  15.232  0.0847 -0.2105  0.6375
 5846TIP3    H138953   4.121   3.403  15.162  0.0790  1.0114 -0.5380
 5846TIP3    H238954   4.036   3.452  15.277 -1.0780  0.4946 -1.1550
 5847TIP3   OH238955   4.554   2.011  11.337  0.1731  0.3638  0.4475
 5847TIP3    H138956   4.524   2.079  11.277  1.4743  0.8396  0.3037
 5847TIP3    H238957   4.594   2.058  11.409  0.5444 -0.2391  0.6445
 5848TIP3   OH238958   2.186   5.563  12.683  0.0618 -0.1448 -0.3465
 5848TIP3    H138959   2.168   5.469  12.673  1.4801 -0.4013 -0.6527
 5848TIP3    H238960   2.179   5.598  12.595  1.4340 -0.3381 -0.5552
 5849TIP3   OH238961   2.121   1.040   0.939  0.5275  0.3447 -0.1187
 5849TIP3    H138962   2.131   1.130   0.970  0.8037  0.0461  0.7030
 5849TIP3    H238963   2.183   1.032   0.866  1.0415  0.6101  0.2838
 5850TIP3   OH238964   1.408   1.493   1.648  0.6239 -1.2056  0.1523
 5850TIP3    H138965   1.323   1.519   1.683  0.9533 -0.0044  0.1105
 5850TIP3    H238966   1.403   1.398   1.639 -1.0311 -1.0608 -0.6861
 5851TIP3   OH238967   3.086   3.788  12.369 -0.3661  0.3713 -0.6448
 5851TIP3    H138968   3.090   3.776  12.274  0.5458 -1.1975 -0.4420
 5851TIP3    H238969   3.085   3.883  12.381 -1.7521  0.6096 -2.2391
 5852TIP3   OH238970   7.116   2.504   1.005 -0.0418  0.7713  0.0434
 5852TIP3    H138971   7.167   2.570   1.052  1.6654  0.3001 -1.0476
 5852TIP3    H238972   7.076   2.551   0.932  0.8249  0.7059 -0.4857
 5853TIP3   OH238973   1.358   1.854  13.043  0.6879 -0.1435 -0.9370
 5853TIP3    H138974   1.356   1.938  13.090  0.7110 -0.4407 -0.3907
 5853TIP3    H238975   1.266   1.826  13.040  0.9064 -1.2213  0.9792
 5854TIP3   OH238976   3.467   5.447  11.543 -0.3541 -0.2413  0.1973
 5854TIP3    H138977   3.404   5.389  11.586 -0.7251 -0.0031 -0.0212
 5854TIP3    H238978   3.550   5.429  11.587  0.0277 -2.5189 -1.2822
 5855TIP3   OH238979   5.682   1.344  14.725  0.3509 -0.1707  0.3777
 5855TIP3    H138980   5.614   1.284  14.754 -2.1536  2.2362 -0.1416
 5855TIP3    H238981   5.711   1.310  14.641 -2.1383  0.0924 -0.6633
 5856TIP3   OH238982   2.853   6.520   9.765 -0.1333  0.1410  0.2057
 5856TIP3    H138983   2.766   6.546   9.733 -0.4200 -0.1310  0.7649
 5856TIP3    H238984   2.907   6.518   9.686 -0.2056  1.9953  0.0652
 5857TIP3   OH238985   1.959   1.513  13.874 -0.4749  0.0618  0.1391
 5857TIP3    H138986   1.933   1.463  13.952 -3.6746 -0.4340 -1.0601
 5857TIP3    H238987   2.027   1.460  13.833  1.6416  0.5636  2.7052
 5858TIP3   OH238988   3.107   5.558   2.064  0.0909 -0.0372 -0.5674
 5858TIP3    H138989   3.102   5.584   2.156 -2.5317  1.1338 -0.9471
 5858TIP3    H238990   3.167   5.622   2.024  1.7315 -0.9219  0.3669
 5859TIP3   OH238991   5.227   5.453  10.388 -0.1090  0.6547  0.1548
 5859TIP3    H138992   5.211   5.448  10.483 -0.8822 -0.1139 -0.0117
 5859TIP3    H238993   5.278   5.375  10.368  1.6791  1.7603  0.2312
 5860TIP3   OH238994   2.479   4.333  12.295  0.2165 -0.1528 -0.3508
 5860TIP3    H138995   2.413   4.265  12.311  0.9948 -0.9883 -0.6297
 5860TIP3    H238996   2.542   4.321  12.366 -0.5304  1.4434  0.6427
 5861TIP3   OH238997   1.618   0.597   0.647 -0.3708 -0.0408 -0.3870
 5861TIP3    H138998   1.592   0.517   0.603 -0.0901 -0.5456  0.3428
 5861TIP3    H238999   1.665   0.567   0.725  1.5226  0.8300 -1.1530
 5862TIP3   OH239000   1.087   1.415  12.193  0.2724 -0.0728 -0.1138
 5862TIP3    H139001   1.064   1.502  12.158  0.5096 -0.0447 -0.2064
 5862TIP3    H239002   1.052   1.354  12.128  1.7259  0.0148 -1.0248
 5863TIP3   OH239003   0.746   3.456  11.261 -0.2369 -0.4706  0.0267
 5863TIP3    H139004   0.819   3.431  11.203  0.3967 -0.7573  0.9294
 5863TIP3    H239005   0.703   3.528  11.215 -0.0933 -1.0529 -1.0721
 5864TIP3   OH239006   1.000   4.736  11.980  0.2885  0.6540 -0.2096
 5864TIP3    H139007   0.952   4.788  11.915 -0.2000  1.6872  0.9436
 5864TIP3    H239008   1.066   4.796  12.015  0.1244  0.3213  0.7073
 5865TIP3   OH239009   2.184   3.776  11.588  0.2091  0.1286 -0.0925
 5865TIP3    H139010   2.154   3.707  11.647 -0.4797  2.1813  2.1081
 5865TIP3    H239011   2.234   3.835  11.644  0.8616  1.3782 -1.9183
 5866TIP3   OH239012   6.351   5.676  12.340  0.1209 -0.2830 -0.8846
 5866TIP3    H139013   6.389   5.754  12.299  1.6313 -0.0742  0.7642
 5866TIP3    H239014   6.427   5.620  12.359 -0.6766 -1.0269  0.2030
 5867TIP3   OH239015   4.656   2.423   0.363 -0.2285  0.1124 -0.3317
 5867TIP3    H139016   4.653   2.393   0.272  0.7080 -0.1693 -0.2852
 5867TIP3    H239017   4.725   2.369   0.403 -0.1039  0.7628  0.3455
 5868TIP3   OH239018   3.855   2.114  11.928  0.3980  0.3419  0.3041
 5868TIP3    H139019   3.773   2.090  11.970 -0.5575  1.3846 -0.9055
 5868TIP3    H239020   3.864   2.054  11.854  1.8556 -1.1900  1.6086
 5869TIP3   OH239021   1.174   3.974  14.770 -0.0229 -0.2320 -0.1808
 5869TIP3    H139022   1.150   3.957  14.861  0.1058 -2.0509 -0.4441
 5869TIP3    H239023   1.230   3.900  14.746  1.0794  0.9220 -1.3368
 5870TIP3   OH239024   0.546   5.386  14.995  0.7234 -0.3868 -0.5488
 5870TIP3    H139025   0.552   5.433  15.078  0.2157 -1.3168  0.0275
 5870TIP3    H239026   0.594   5.442  14.933 -0.6660  1.3773 -0.1302
 5871TIP3   OH239027   4.558   6.972   1.223 -0.1099  0.2049 -0.3698
 5871TIP3    H139028   4.492   7.037   1.198  0.7193  0.7013 -1.3072
 5871TIP3    H239029   4.551   6.904   1.157  0.1895  0.1583 -0.3529
 5872TIP3   OH239030   3.951   4.761  11.904  0.3655  0.3490  0.4505
 5872TIP3    H139031   3.978   4.848  11.875  1.7668 -0.6132 -1.3893
 5872TIP3    H239032   4.016   4.702  11.865  0.5753 -1.3930  3.1955
 5873TIP3   OH239033   3.992   5.800  10.183 -0.3059 -0.0354 -0.5592
 5873TIP3    H139034   4.003   5.747  10.104 -0.6890  0.1606 -0.7458
 5873TIP3    H239035   3.901   5.789  10.207 -0.4598  0.7381 -0.7470
 5874TIP3   OH239036   2.090   0.807  15.167 -0.0892  0.1732  0.1849
 5874TIP3    H139037   2.071   0.820  15.260 -1.4648 -1.0117  0.1133
 5874TIP3    H239038   2.164   0.865  15.149  0.0706  0.5833  1.9609
 5875TIP3   OH239039   0.629   6.903  10.717 -0.1832  0.1715 -0.1322
 5875TIP3    H139040   0.632   6.820  10.669  1.4542 -0.9031  1.6785
 5875TIP3    H239041   0.661   6.968  10.654  1.4571 -1.1056 -0.7080
 5876TIP3   OH239042   0.259   7.015   5.489  0.1092 -0.2150 -0.4993
 5876TIP3    H139043   0.233   6.923   5.489  1.2532 -0.5762  1.0227
 5876TIP3    H239044   0.321   7.023   5.561 -1.3502  2.1582  0.6250
 5877TIP3   OH239045   6.845   4.204  13.704  0.9341  0.2277  0.1028
 5877TIP3    H139046   6.872   4.165  13.787 -1.3133 -1.6747  0.0368
 5877TIP3    H239047   6.798   4.283  13.729 -1.3229 -1.2613  0.8746
 5878TIP3   OH239048   6.530   6.933  10.537 -0.5432  0.3187  0.2666
 5878TIP3    H139049   6.617   6.927  10.496 -0.7435 -0.6322 -0.0359
 5878TIP3    H239050   6.470   6.904  10.469 -1.0617  0.5386  0.6279
 5879TIP3   OH239051   2.756   5.658  14.179  0.3323 -0.8302  0.5985
 5879TIP3    H139052   2.844   5.622  14.190  0.7213 -0.5599 -1.3003
 5879TIP3    H239053   2.722   5.615  14.101 -0.6231  0.2160  0.4184
 5880TIP3   OH239054   6.728   4.080  14.722  0.3126 -0.3994 -0.1370
 5880TIP3    H139055   6.728   4.103  14.815 -1.0286  1.8029 -0.6124
 5880TIP3    H239056   6.775   4.152  14.679  0.5395 -1.1677 -1.2208
 5881TIP3   OH239057   1.660   2.771   0.544  0.3126  0.4214  0.8347
 5881TIP3    H139058   1.577   2.743   0.505 -0.6386  0.5265  2.6220
 5881TIP3    H239059   1.713   2.801   0.471 -0.3634 -1.7381 -0.6257
 5882TIP3   OH239060   1.410   0.778  14.576  0.0192 -0.3780  0.1172
 5882TIP3    H139061   1.380   0.688  14.589 -3.0032  0.5434  0.4743
 5882TIP3    H239062   1.488   0.771  14.522  0.7777 -3.2636  1.4047
 5883TIP3   OH239063   3.677   6.567   9.892 -0.0798 -0.7574  0.8618
 5883TIP3    H139064   3.692   6.662   9.882  0.5012 -0.6391  2.5836
 5883TIP3    H239065   3.699   6.531   9.806 -0.5177  0.6799  0.1028
 5884TIP3   OH239066   6.938   6.980   1.939  0.5026 -0.0334  0.1904
 5884TIP3    H139067   6.998   6.926   1.888 -0.0919 -0.4519 -0.0895
 5884TIP3    H239068   6.970   6.975   2.029  0.3818 -0.9772  0.1902
 5885TIP3   OH239069   3.397   0.303   9.721 -0.1086 -0.9877 -0.2142
 5885TIP3    H139070   3.338   0.331   9.790 -0.1029 -1.7666  0.1213
 5885TIP3    H239071   3.435   0.384   9.687  0.2500 -0.6100  1.0165
 5886TIP3   OH239072   4.494   2.794   0.576  0.0913  0.1492 -0.0288
 5886TIP3    H139073   4.529   2.867   0.627  0.1395 -0.6936  1.1846
 5886TIP3    H239074   4.406   2.823   0.551  0.7082  1.2769 -0.9822
 5887TIP3   OH239075   2.651   7.160  11.287  0.3085 -0.2277  0.2478
 5887TIP3    H139076   2.562   7.195  11.293  0.0838 -0.6228 -0.5560
 5887TIP3    H239077   2.666   7.117  11.372 -0.6261 -0.9590  0.0715
 5888TIP3   OH239078   0.612   0.916   3.272  0.5954  0.4572  0.0883
 5888TIP3    H139079   0.579   0.979   3.336  0.0283  0.6813 -0.4115
 5888TIP3    H239080   0.675   0.966   3.220  0.7861  0.3755  0.2415
 5889TIP3   OH239081   3.264   3.768  13.428 -0.3675 -0.0215  0.3381
 5889TIP3    H139082   3.251   3.697  13.491 -0.3642  0.3221  0.7285
 5889TIP3    H239083   3.183   3.771  13.377  0.8253 -2.5424 -1.9888
 5890TIP3   OH239084   0.765   4.750  10.344  0.2909 -0.7185  0.1773
 5890TIP3    H139085   0.842   4.740  10.289  0.0334 -0.1846 -0.2905
 5890TIP3    H239086   0.691   4.740  10.284 -0.0060  1.9122 -0.0133
 5891TIP3   OH239087   4.932   1.460   9.907  0.1356  0.1529  0.0960
 5891TIP3    H139088   4.873   1.535   9.916 -0.9085 -0.2555 -2.4570
 5891TIP3    H239089   4.891   1.391   9.959 -0.0889  0.7065  0.6669
 5892TIP3   OH239090   5.680   4.157  11.323 -0.1445 -0.4128 -0.4620
 5892TIP3    H139091   5.624   4.090  11.362 -2.2209  1.4936  0.0342
 5892TIP3    H239092   5.639   4.240  11.347  1.9092  1.0452 -1.6567
 5893TIP3   OH239093   0.927   6.386   0.517  0.8225 -0.5883  0.0375
 5893TIP3    H139094   0.918   6.476   0.546 -0.7183 -1.1476  1.4964
 5893TIP3    H239095   1.004   6.353   0.563  1.9632  0.1849 -1.2195
 5894TIP3   OH239096   2.914   0.342  12.497  0.3043  0.4954  0.5179
 5894TIP3    H139097   2.844   0.406  12.488  0.4448  0.5088 -0.5888
 5894TIP3    H239098   2.988   0.392  12.531 -0.9238 -0.0093  4.5294
 5895TIP3   OH239099   0.984   1.995  13.476 -0.2541 -0.4378  0.5418
 5895TIP3    H139100   1.063   1.942  13.465 -0.3635 -0.9500  2.0730
 5895TIP3    H239101   1.012   2.069  13.530 -0.3807  0.4671 -0.5913
 5896TIP3   OH239102   1.414   3.526  12.493 -0.7343 -0.3456  0.1871
 5896TIP3    H139103   1.474   3.494  12.425 -1.8922  0.2984 -1.1756
 5896TIP3    H239104   1.471   3.543  12.568  1.1049  1.7776 -1.5455
 5897TIP3   OH239105   6.720   5.128   1.386  0.5385  0.3381  0.2730
 5897TIP3    H139106   6.795   5.186   1.399  2.0490 -1.1917 -1.0775
 5897TIP3    H239107   6.725   5.066   1.459  0.4780  0.3295  0.2702
 5898TIP3   OH239108   1.421   2.280  11.636  0.4358 -0.2269 -0.2377
 5898TIP3    H139109   1.512   2.251  11.643  0.9333  1.1528 -0.6514
 5898TIP3    H239110   1.396   2.260  11.546  0.4761 -0.2104 -0.2527
 5899TIP3   OH239111   1.326   2.806  11.839 -0.2774 -0.5687  0.7883
 5899TIP3    H139112   1.334   2.891  11.796 -0.2184 -1.0533 -0.1756
 5899TIP3    H239113   1.398   2.804  11.902 -0.1514  0.0083  0.6665
 5900TIP3   OH239114   3.695   5.581  11.080 -0.0829  0.3535 -0.1215
 5900TIP3    H139115   3.696   5.512  11.013 -1.1225  0.7391 -0.5427
 5900TIP3    H239116   3.656   5.657  11.036 -3.0791 -0.0710  1.5410
 5901TIP3   OH239117   2.321   3.465  13.009  0.1825 -0.0614  0.0048
 5901TIP3    H139118   2.368   3.548  13.001 -2.3253  1.6758  1.8288
 5901TIP3    H239119   2.229   3.489  13.003 -0.6598 -2.6834  1.0444
 5902TIP3   OH239120   6.652   1.337  14.907  0.4847  0.2349 -0.0652
 5902TIP3    H139121   6.677   1.286  14.830  0.4895  1.2343 -0.7492
 5902TIP3    H239122   6.678   1.427  14.886  0.4887  0.5240  1.1124
 5903TIP3   OH239123   4.664   5.221  13.619 -0.3288  0.2164  0.4021
 5903TIP3    H139124   4.688   5.304  13.576  0.1405  1.8969  3.5939
 5903TIP3    H239125   4.570   5.229  13.634 -0.4143 -0.1574  0.0487
 5904TIP3   OH239126   2.345   1.891  12.055 -0.4879 -0.1547  0.2031
 5904TIP3    H139127   2.437   1.885  12.081 -0.2781  0.2631 -0.4016
 5904TIP3    H239128   2.336   1.980  12.021 -1.0446 -0.2875 -0.0049
 5905TIP3   OH239129   2.130   0.406  12.920  0.4898 -0.2841 -0.2935
 5905TIP3    H139130   2.129   0.471  12.849 -1.8551 -1.2979 -1.3086
 5905TIP3    H239131   2.076   0.445  12.988  0.2225 -0.5790 -0.3348
 5906TIP3   OH239132   0.992   4.195  10.316 -0.1718  0.5742  0.1183
 5906TIP3    H139133   0.980   4.162  10.405 -0.4588  0.6169  0.0988
 5906TIP3    H239134   0.969   4.288  10.322  3.2814  1.5054  0.7622
 5907TIP3   OH239135   3.724   3.685   1.234 -0.3000  0.0263  0.4321
 5907TIP3    H139136   3.689   3.754   1.178 -1.5215  0.1875  1.3349
 5907TIP3    H239137   3.793   3.727   1.285  0.6950 -0.0784 -0.7812
 5908TIP3   OH239138   1.602   6.755   2.115  0.2633 -0.5190 -0.0696
 5908TIP3    H139139   1.624   6.847   2.104 -0.5875 -0.4076 -1.0335
 5908TIP3    H239140   1.510   6.755   2.141  0.2045 -1.1008 -0.2650
 5909TIP3   OH239141   5.337   6.026  10.174 -0.0844  0.0596 -0.1309
 5909TIP3    H139142   5.296   5.943  10.151  0.4044  0.0674 -1.0519
 5909TIP3    H239143   5.268   6.091  10.162 -0.1633 -0.0819 -0.4408
 5910TIP3   OH239144   0.058   6.378  11.712 -0.1293  0.0003  0.4246
 5910TIP3    H139145   0.005   6.448  11.673 -0.9420 -0.3341  0.8942
 5910TIP3    H239146   0.055   6.307  11.648  1.4348  0.6919 -0.4570
 5911TIP3   OH239147   5.489   5.989   8.700  0.1540 -0.1088  0.0008
 5911TIP3    H139148   5.463   5.973   8.609  1.7648  1.6267 -0.8348
 5911TIP3    H239149   5.552   5.919   8.720 -0.2016 -0.4920 -0.2096
 5912TIP3   OH239150   4.757   6.465  14.437 -0.0588 -0.2513  0.7680
 5912TIP3    H139151   4.709   6.407  14.497 -0.0265 -0.8804  0.1967
 5912TIP3    H239152   4.837   6.488  14.485 -0.1352 -0.5765  1.0543
 5913TIP3   OH239153   4.809   6.238  11.465 -0.2266  0.3269  0.1778
 5913TIP3    H139154   4.787   6.290  11.387  0.0512  0.1981  0.0124
 5913TIP3    H239155   4.780   6.149  11.444 -0.0959  0.2794  0.1975
 5914TIP3   OH239156   5.304   6.753  12.712 -0.2625  0.1223 -0.7933
 5914TIP3    H139157   5.224   6.731  12.760  0.8486  0.1796  1.2100
 5914TIP3    H239158   5.345   6.668  12.694  0.4396  0.1910  0.4244
 5915TIP3   OH239159   6.960   2.911  12.806 -0.0667  0.0942 -0.0499
 5915TIP3    H139160   6.949   2.825  12.845 -1.9003  1.0473  1.7158
 5915TIP3    H239161   6.928   2.901  12.716  1.3530 -1.4119 -0.4327
 5916TIP3   OH239162   3.363   4.569   9.626  0.2291  0.2969 -0.1335
 5916TIP3    H139163   3.434   4.544   9.685 -0.9959 -0.7905  0.9440
 5916TIP3    H239164   3.395   4.547   9.538  1.6627  0.9576  0.1874
 5917TIP3   OH239165   2.721   4.327  14.418 -0.3479 -0.3938 -0.0949
 5917TIP3    H139166   2.816   4.334  14.409 -0.4470  1.0482 -0.1776
 5917TIP3    H239167   2.706   4.330  14.512 -0.3609  0.3159 -0.1130
 5918TIP3   OH239168   4.480   2.936   9.462 -0.0270 -0.0386  0.2421
 5918TIP3    H139169   4.441   2.900   9.382 -0.6751  1.6335 -0.2547
 5918TIP3    H239170   4.448   2.880   9.532 -1.0436 -0.3791 -0.4694
 5919TIP3   OH239171   1.096   4.585  10.439 -0.1831  0.1170  0.3491
 5919TIP3    H139172   1.078   4.679  10.440  1.3934  0.4544 -0.2151
 5919TIP3    H239173   1.060   4.554  10.355  0.5131  0.4951 -0.0972
 5920TIP3   OH239174   2.882   5.922  14.896 -0.2406 -0.4343  0.0980
 5920TIP3    H139175   2.939   5.863  14.848  1.0521 -0.8968  2.0620
 5920TIP3    H239176   2.911   6.010  14.871 -0.7175 -0.6359 -1.1969
 5921TIP3   OH239177   2.504   2.473  11.099 -0.0187 -0.4284 -0.1886
 5921TIP3    H139178   2.427   2.524  11.122 -0.1436 -0.1768 -1.1309
 5921TIP3    H239179   2.542   2.519  11.025  0.5646 -1.0226 -0.2694
 5922TIP3   OH239180   2.463   6.983  10.031  0.2016  0.0704 -0.6772
 5922TIP3    H139181   2.495   6.930  10.105  2.4917  1.3314 -0.6700
 5922TIP3    H239182   2.446   7.069  10.069  0.6190  0.5081 -1.4710
 5923TIP3   OH239183   5.287   5.901  13.823 -0.4133 -0.0677 -0.4677
 5923TIP3    H139184   5.366   5.852  13.801 -0.1617  0.0434  0.1507
 5923TIP3    H239185   5.216   5.853  13.781 -0.1475 -0.8359 -0.0511
 5924TIP3   OH239186   1.625   7.041  10.490 -0.6028  0.3411  0.1338
 5924TIP3    H139187   1.643   6.972  10.426  0.3936  0.8513 -0.1678
 5924TIP3    H239188   1.677   7.116  10.459 -1.5261  1.1780  0.5402
 5925TIP3   OH239189   4.837   1.861  12.208  0.2715  0.4916  0.1601
 5925TIP3    H139190   4.887   1.937  12.177  0.1940 -0.0792 -1.4551
 5925TIP3    H239191   4.806   1.887  12.295  1.9798  1.5030  0.5249
 5926TIP3   OH239192   0.617   3.326  15.082 -0.1635  0.1284 -0.1405
 5926TIP3    H139193   0.530   3.296  15.106 -0.1148 -0.5685 -0.7983
 5926TIP3    H239194   0.615   3.420  15.098 -1.1739  0.1920 -0.5573
 5927TIP3   OH239195   5.099   1.719  13.116 -0.2369 -0.1967 -0.1194
 5927TIP3    H139196   5.083   1.624  13.113  0.1664 -0.3751  1.9082
 5927TIP3    H239197   5.017   1.756  13.150  0.6200 -0.1910  2.0635
 5928TIP3   OH239198   4.039   5.336  14.815  0.3531 -0.9909  0.2118
 5928TIP3    H139199   3.975   5.357  14.883  1.1429 -2.8028  1.5876
 5928TIP3    H239200   3.985   5.306  14.742 -0.4562 -0.1997  0.4503
 5929TIP3   OH239201   2.616   0.283   3.664  0.0243  0.3353  0.3439
 5929TIP3    H139202   2.561   0.260   3.738 -0.7851  0.4428 -0.2084
 5929TIP3    H239203   2.630   0.200   3.617  1.0526  0.1510  0.9352
 5930TIP3   OH239204   6.574   2.352  10.194 -0.7553  0.4575  0.8620
 5930TIP3    H139205   6.654   2.402  10.184 -0.0513 -0.8118 -0.1644
 5930TIP3    H239206   6.506   2.418  10.212  0.4246  1.5802  1.3304
 5931TIP3   OH239207   4.007   1.995   2.158  0.4368 -0.3604  0.1494
 5931TIP3    H139208   3.918   1.963   2.174  0.4337 -0.3102  0.2369
 5931TIP3    H239209   4.004   2.087   2.186  0.7228 -0.5717  0.8908
 5932TIP3   OH239210   6.742   3.604   9.528  0.3201 -0.2943 -0.0127
 5932TIP3    H139211   6.651   3.628   9.543  0.3246 -0.5459  0.4773
 5932TIP3    H239212   6.792   3.669   9.577  0.2884 -2.2354  2.9099
 5933TIP3   OH239213   0.708   1.458  13.197  0.1528  0.3226 -0.5519
 5933TIP3    H139214   0.698   1.491  13.287  0.5212 -0.3244 -0.2673
 5933TIP3    H239215   0.675   1.368  13.201  0.1118  0.3104 -1.0833
 5934TIP3   OH239216   6.281   0.406  11.727  0.2467  0.2622  0.5901
 5934TIP3    H139217   6.328   0.330  11.761  0.8431  0.5500  0.4275
 5934TIP3    H239218   6.207   0.416  11.785 -0.5751 -1.2166 -0.1355
 5935TIP3   OH239219   3.190   5.558  13.797 -0.4653 -0.2584  0.0128
 5935TIP3    H139220   3.135   5.636  13.790  0.3117  0.1551 -2.9373
 5935TIP3    H239221   3.278   5.592  13.814 -0.5244 -0.7117  1.3563
 5936TIP3   OH239222   2.338   2.795  12.290  0.4040 -0.1077  0.2057
 5936TIP3    H139223   2.339   2.757  12.377  1.5833  2.6328  1.5299
 5936TIP3    H239224   2.250   2.777  12.256  0.0351 -1.5221  1.8054
 5937TIP3   OH239225   1.414   7.078  13.677 -0.3006  0.2953  0.5280
 5937TIP3    H139226   1.342   7.112  13.623  0.8920  0.2284 -1.1913
 5937TIP3    H239227   1.446   7.155  13.725 -1.6242  0.2828  1.5111
 5938TIP3   OH239228   1.714   4.426   0.082 -0.1160  0.3034 -0.6249
 5938TIP3    H139229   1.767   4.384   0.014  1.7642  1.5202  0.0272
 5938TIP3    H239230   1.746   4.516   0.086  0.1903  0.1527  2.1997
 5939TIP3   OH239231   5.922   2.347   0.476 -0.0313  0.7624 -0.4023
 5939TIP3    H139232   5.831   2.337   0.504  0.4280  1.5748  1.5667
 5939TIP3    H239233   5.920   2.422   0.416 -0.6457  0.8883 -0.2346
 5940TIP3   OH239234   6.568   5.120  11.245  0.2686 -0.1884 -0.0135
 5940TIP3    H139235   6.663   5.133  11.233  0.6402 -2.5510 -0.0151
 5940TIP3    H239236   6.549   5.038  11.200 -1.3801 -0.8429  1.7653
 5941TIP3   OH239237   4.299   5.389  14.830  0.1873 -0.0129  0.0074
 5941TIP3    H139238   4.312   5.399  14.924 -0.0978  2.3308 -0.1478
 5941TIP3    H239239   4.204   5.381  14.819  0.2082 -0.1140 -0.1102
 5942TIP3   OH239240   6.461   4.391   9.447  0.1364 -0.1956 -0.1794
 5942TIP3    H139241   6.545   4.423   9.479  0.3817  0.8423 -1.7066
 5942TIP3    H239242   6.409   4.471   9.432  0.6490 -0.3428 -3.7775
 5943TIP3   OH239243   6.931   3.655   0.138  0.0439 -0.1479 -0.4123
 5943TIP3    H139244   6.874   3.581   0.157  1.3511 -0.9149  0.6862
 5943TIP3    H239245   6.911   3.678   0.047 -0.5525 -1.7056 -0.7093
 5944TIP3   OH239246   0.537   5.391  11.348  0.9675 -0.3098  0.1080
 5944TIP3    H139247   0.457   5.355  11.387  0.5021 -0.0983 -0.6197
 5944TIP3    H239248   0.553   5.471  11.397 -1.4388  1.6955 -2.0954
 5945TIP3   OH239249   4.470   1.407  14.280 -0.2537 -0.2480  0.6273
 5945TIP3    H139250   4.524   1.331  14.258 -0.4267 -0.1952  0.0116
 5945TIP3    H239251   4.441   1.441  14.196 -0.1389  0.5308  0.8994
 5946TIP3   OH239252   5.031   1.590  14.638 -0.2586  0.3714  0.3312
 5946TIP3    H139253   5.012   1.502  14.671 -0.3727  0.1483 -0.2984
 5946TIP3    H239254   4.944   1.628  14.622 -0.2293 -0.0749 -1.0805
 5947TIP3   OH239255   5.139   5.893  13.436  0.4020 -0.4292 -0.7059
 5947TIP3    H139256   5.055   5.935  13.417  0.0612 -0.3930  0.7037
 5947TIP3    H239257   5.199   5.927  13.370 -0.5733 -0.0729 -1.4328
 5948TIP3   OH239258   3.938   1.197  14.618 -0.3304  0.2846 -0.2903
 5948TIP3    H139259   4.022   1.207  14.662 -2.1640  2.1513  3.2221
 5948TIP3    H239260   3.922   1.102  14.618 -0.0853  0.1208  3.1314
 5949TIP3   OH239261   1.341   5.757  13.589 -0.1684 -0.8675  0.5141
 5949TIP3    H139262   1.410   5.801  13.639 -0.0824  0.3543 -0.6034
 5949TIP3    H239263   1.374   5.756  13.499 -0.2890 -3.0468  0.4382
 5950TIP3   OH239264   6.037   3.330  10.132  0.3692 -0.1865 -0.1837
 5950TIP3    H139265   6.066   3.261  10.072  0.5686 -1.3719  1.2185
 5950TIP3    H239266   6.114   3.349  10.185  0.1655  0.7705 -0.2137
 5951TIP3   OH239267   0.313   1.131  10.187 -0.1467  0.9384  0.1986
 5951TIP3    H139268   0.303   1.044  10.148 -2.2070  0.9402  0.6226
 5951TIP3    H239269   0.359   1.182  10.120  1.9075 -0.6797  0.3001
 5952TIP3   OH239270   2.033   1.286  10.988  0.6280 -0.6551  0.0072
 5952TIP3    H139271   1.994   1.243  11.064  0.1933  1.0346  0.7856
 5952TIP3    H239272   2.008   1.378  10.997  3.7216  0.3144 -0.1282
 5953TIP3   OH239273   5.052   4.145  13.174  0.1053  0.0509 -0.1298
 5953TIP3    H139274   5.068   4.238  13.190  1.5691 -0.4360  1.5689
 5953TIP3    H239275   4.981   4.121  13.233 -0.5774  0.1548 -0.8861
 5954TIP3   OH239276   0.383   4.705  11.725  0.2914  0.2582 -0.4708
 5954TIP3    H139277   0.407   4.782  11.673 -2.2088  2.9335  1.9326
 5954TIP3    H239278   0.419   4.723  11.812 -0.5535 -1.1728  0.1993
 5955TIP3   OH239279   3.681   6.173  12.461 -0.0046  0.6681 -0.1852
 5955TIP3    H139280   3.680   6.140  12.551  0.5893  0.4327 -0.2562
 5955TIP3    H239281   3.773   6.166  12.434 -0.4238 -0.8075 -1.3663
 5956TIP3   OH239282   6.288   2.981  10.546 -0.3144  0.0187  0.9934
 5956TIP3    H139283   6.211   3.034  10.525 -1.5561 -0.8021  3.1056
 5956TIP3    H239284   6.308   2.935  10.465 -2.8651 -0.6670  0.6458
 5957TIP3   OH239285   3.328   4.269  10.516 -0.2928  0.1432  0.0165
 5957TIP3    H139286   3.325   4.308  10.604  1.0908  0.7802 -0.1951
 5957TIP3    H239287   3.369   4.184  10.529 -0.3573  0.1148  0.0323
 5958TIP3   OH239288   2.936   6.225   3.208  0.0762  0.4106 -0.1230
 5958TIP3    H139289   2.959   6.189   3.122  1.0622 -0.0977  0.3359
 5958TIP3    H239290   3.020   6.234   3.254 -0.3389  1.5458  0.4658
 5959TIP3   OH239291   1.256   6.869   9.741 -0.6043 -0.6530  0.6979
 5959TIP3    H139292   1.197   6.860   9.667 -0.2397  0.2967  0.2816
 5959TIP3    H239293   1.200   6.859   9.818 -1.3010  0.2302  0.3087
 5960TIP3   OH239294   5.844   1.525  11.134 -0.3864 -0.1852  0.2111
 5960TIP3    H139295   5.908   1.456  11.117  0.3761  0.4690  0.3371
 5960TIP3    H239296   5.898   1.601  11.157 -1.1530  0.7864 -1.0863
 5961TIP3   OH239297   4.523   2.980  14.441  0.2514  0.0386 -0.2545
 5961TIP3    H139298   4.605   2.932  14.446  0.7370  0.8293 -0.4793
 5961TIP3    H239299   4.540   3.051  14.379 -0.6769  0.0655 -0.5040
 5962TIP3   OH239300   5.276   3.656  13.039 -0.2710  0.0256  0.5472
 5962TIP3    H139301   5.196   3.612  13.010  0.9749 -0.4808 -2.4919
 5962TIP3    H239302   5.271   3.654  13.135 -1.7215 -4.0354  0.5676
 5963TIP3   OH239303   6.725   3.803   1.964 -0.0038  0.2803  0.0733
 5963TIP3    H139304   6.795   3.763   2.015  1.1825  1.1735 -0.7886
 5963TIP3    H239305   6.769   3.870   1.912 -1.4922  0.7835 -0.5895
 5964TIP3   OH239306   6.594   6.605  14.668 -0.1833 -0.1750  0.1582
 5964TIP3    H139307   6.635   6.540  14.611 -0.7406 -1.2511  0.9460
 5964TIP3    H239308   6.657   6.618  14.739  0.2434  0.7023 -0.3723
 5965TIP3   OH239309   3.327   3.326  14.059 -0.2918  0.2957  0.4315
 5965TIP3    H139310   3.267   3.400  14.053 -0.3991  0.1489 -0.3425
 5965TIP3    H239311   3.286   3.268  14.124 -2.2791 -0.9341 -1.7398
 5966TIP3   OH239312   6.392   0.872  11.326  0.0579 -0.1859  0.0594
 5966TIP3    H139313   6.365   0.889  11.416 -0.7996  1.6466 -0.5014
 5966TIP3    H239314   6.379   0.778  11.314  0.1744 -0.4538  1.8192
 5967TIP3   OH239315   5.242   2.634   2.353  0.0195  0.3046  0.1041
 5967TIP3    H139316   5.271   2.650   2.443  1.0124  0.7289 -0.2848
 5967TIP3    H239317   5.159   2.682   2.347 -1.0316 -1.2327  1.3343
 5968TIP3   OH239318   4.854   0.371  11.675  0.1387  0.0281 -0.4033
 5968TIP3    H139319   4.923   0.323  11.720  0.5140  0.4055 -0.5664
 5968TIP3    H239320   4.821   0.434  11.740  1.2237  1.1242 -0.8590
 5969TIP3   OH239321   3.267   2.817  10.671  0.6940  0.6892 -0.5357
 5969TIP3    H139322   3.221   2.886  10.622  1.6945  2.2202  0.5762
 5969TIP3    H239323   3.355   2.852  10.684  1.3889 -1.0353 -0.3285
 5970TIP3   OH239324   4.185   2.072  10.104  0.4321  0.1708  0.1949
 5970TIP3    H139325   4.163   2.021  10.181  2.0383 -2.3366 -0.8867
 5970TIP3    H239326   4.151   2.021  10.030  3.6156 -0.4170 -1.0508
 5971TIP3   OH239327   7.111   1.724   1.073  0.5454  0.0179  0.5773
 5971TIP3    H139328   7.107   1.812   1.037  0.6299  0.4870  1.6548
 5971TIP3    H239329   7.194   1.688   1.040 -1.1931 -1.1660 -3.0333
 5972TIP3   OH239330   4.418   6.436   0.813  0.0243 -0.2927  0.1254
 5972TIP3    H139331   4.420   6.509   0.752 -0.3811 -0.5412 -0.1901
 5972TIP3    H239332   4.464   6.468   0.891  0.3256  0.1085 -0.2170
 5973TIP3   OH239333   3.557   0.826  13.790 -0.1448  0.0099 -0.4046
 5973TIP3    H139334   3.588   0.884  13.720 -0.1597  0.3065 -0.1695
 5973TIP3    H239335   3.535   0.885  13.862 -1.3329 -0.1831 -0.5910
 5974TIP3   OH239336   3.419   2.169  13.272  0.5396  0.2834  0.2945
 5974TIP3    H139337   3.451   2.234  13.335 -0.2248  0.7293  0.2282
 5974TIP3    H239338   3.399   2.092  13.326  2.0895 -0.1605  0.2881
 5975TIP3   OH239339   0.657   5.048  12.181 -0.0732 -0.0921 -0.2548
 5975TIP3    H139340   0.629   4.963  12.215 -0.1112  0.1304  0.2733
 5975TIP3    H239341   0.743   5.063  12.221 -0.4304  0.4962  0.3134
 5976TIP3   OH239342   6.923   1.670  14.022 -0.5218  0.2593 -0.9278
 5976TIP3    H139343   6.915   1.676  13.927  1.6235 -0.0457 -1.1627
 5976TIP3    H239344   6.958   1.582  14.038 -1.7225 -0.0423  0.2301
 5977TIP3   OH239345   1.100   1.265   4.720  0.2939 -0.2106 -0.0039
 5977TIP3    H139346   1.042   1.338   4.745  0.2852  0.6423 -2.2645
 5977TIP3    H239347   1.188   1.300   4.733  0.3432  1.1061 -3.0719
 5978TIP3   OH239348   7.150   6.932   1.781 -0.5139  0.3817 -0.3811
 5978TIP3    H139349   7.151   6.960   1.689 -0.8931  0.3120 -0.4100
 5978TIP3    H239350   7.141   6.837   1.776 -1.2500  0.4362 -0.2712
 5979TIP3   OH239351   4.149   4.836   0.989 -0.2119  0.1743  0.8187
 5979TIP3    H139352   4.176   4.748   0.962 -0.0249  0.1916  0.9448
 5979TIP3    H239353   4.142   4.885   0.907 -0.8735 -0.1098  0.7006
 5980TIP3   OH239354   3.306   0.444  12.276 -0.2301 -0.0344  0.4299
 5980TIP3    H139355   3.360   0.513  12.316 -0.6144  0.5276 -0.0042
 5980TIP3    H239356   3.216   0.476  12.286 -0.2758  1.4318 -3.1221
 5981TIP3   OH239357   3.972   0.598  10.232 -0.1254 -0.0336 -0.0314
 5981TIP3    H139358   4.051   0.650  10.213  0.1473  0.1732  1.5124
 5981TIP3    H239359   3.906   0.664  10.254 -0.2374 -0.2699  0.3441
 5982TIP3   OH239360   2.955   0.506   0.661 -0.2880 -0.2931  0.0466
 5982TIP3    H139361   2.898   0.532   0.589 -1.0843 -1.5536  0.2045
 5982TIP3    H239362   2.933   0.568   0.731 -1.2756 -0.5875  0.0144
 5983TIP3   OH239363   4.010   3.755   5.064  0.1127 -0.0380 -0.5703
 5983TIP3    H139364   3.964   3.677   5.032 -0.0299 -1.1797  2.1520
 5983TIP3    H239365   3.969   3.773   5.149  0.3286  2.8937 -0.9820
 5984TIP3   OH239366   4.596   3.904  11.195 -0.5954 -0.1850 -0.2481
 5984TIP3    H139367   4.685   3.900  11.229 -1.1539  2.9893  1.9734
 5984TIP3    H239368   4.604   3.953  11.113 -0.2468 -0.3941 -0.3416
 5985TIP3   OH239369   0.381   5.108  12.161 -0.0062 -0.5625 -0.1999
 5985TIP3    H139370   0.476   5.102  12.164  0.2076  1.9975  2.8183
 5985TIP3    H239371   0.350   5.022  12.190  1.3529 -1.1953 -0.5384
 5986TIP3   OH239372   6.636   3.380  10.052  0.4176  0.2249 -0.5560
 5986TIP3    H139373   6.588   3.323  10.113 -0.0855  1.0474 -0.1749
 5986TIP3    H239374   6.600   3.357   9.966 -0.3889  0.5550 -0.3141
 5987TIP3   OH239375   4.923   0.729  11.390  0.0589  0.8004  0.2066
 5987TIP3    H139376   4.950   0.789  11.460 -0.0719  0.3622  0.6332
 5987TIP3    H239377   4.995   0.668  11.381 -0.3932  0.1826  0.7232
 5988TIP3   OH239378   0.969   4.825  13.830 -0.0910 -0.3475  0.6807
 5988TIP3    H139379   1.054   4.809  13.790 -0.5557 -0.5076 -0.2666
 5988TIP3    H239380   0.983   4.901  13.887 -0.1398  2.0375 -2.2830
 5989TIP3   OH239381   1.294   1.157  12.972  0.6675 -0.2379  0.6787
 5989TIP3    H139382   1.384   1.153  13.005  0.7474  1.7191  0.7970
 5989TIP3    H239383   1.266   1.065  12.967  2.6211 -0.8720  0.7389
 5990TIP3   OH239384   3.209   5.968  11.000  0.1318  0.2375 -0.1415
 5990TIP3    H139385   3.287   6.004  10.957 -0.1595  0.0133 -0.8827
 5990TIP3    H239386   3.213   5.874  10.982 -0.9283  0.3698 -1.2568
 5991TIP3   OH239387   3.942   4.881  14.710 -0.7945  0.1982 -0.1453
 5991TIP3    H139388   4.032   4.914  14.709 -1.3899  1.9301 -0.6762
 5991TIP3    H239389   3.949   4.791  14.677  0.6636  0.5370 -0.8563
 5992TIP3   OH239390   3.367   6.628  10.514  0.2597 -0.5018  0.2054
 5992TIP3    H139391   3.418   6.698  10.472 -1.5198  1.7463  1.5725
 5992TIP3    H239392   3.383   6.640  10.608 -1.2889 -0.9249  0.5416
 5993TIP3   OH239393   3.817   1.892  11.019 -0.2775 -0.3736 -0.1930
 5993TIP3    H139394   3.811   1.815  10.962 -0.6144 -0.1679 -0.4354
 5993TIP3    H239395   3.786   1.964  10.965 -0.1279 -0.0943  0.0939
 5994TIP3   OH239396   4.112   5.873  10.600  0.1009  0.0490 -0.1942
 5994TIP3    H139397   4.035   5.867  10.656  0.4973  0.1601  0.3828
 5994TIP3    H239398   4.100   5.806  10.534 -0.2317 -0.3001  0.2140
 5995TIP3   OH239399   5.561   3.026  10.793  0.2832 -1.0147  0.3064
 5995TIP3    H139400   5.503   2.950  10.784  0.1082 -0.9573  0.9488
 5995TIP3    H239401   5.591   3.043  10.704  0.1350 -1.6901  0.1185
 5996TIP3   OH239402   1.357   4.830  12.102 -0.2874 -0.3677  0.3101
 5996TIP3    H139403   1.415   4.873  12.165  1.7257  2.0675 -2.8901
 5996TIP3    H239404   1.287   4.892  12.086  0.0990 -0.2130 -0.9416
 5997TIP3   OH239405   6.836   4.910   0.812  0.3618  0.1499  0.4433
 5997TIP3    H139406   6.904   4.968   0.846  0.2550  0.6466 -0.1790
 5997TIP3    H239407   6.817   4.943   0.724  0.2918 -0.8255  0.0822
 5998TIP3   OH239408   2.888   3.223   3.432  0.4815 -0.2949  0.2175
 5998TIP3    H139409   2.843   3.289   3.380 -0.0569  0.0255  1.0580
 5998TIP3    H239410   2.818   3.174   3.475  0.8532 -1.9229 -0.9712
 5999TIP3   OH239411   1.767   7.106  14.270 -0.5273  0.2416  0.1008
 5999TIP3    H139412   1.843   7.048  14.273 -0.4051  0.4194  1.3586
 5999TIP3    H239413   1.803   7.192  14.250 -0.3952  0.3136  0.6313
 6000TIP3   OH239414   0.273   6.807  12.048 -0.3309  0.2088 -0.0472
 6000TIP3    H139415   0.366   6.799  12.025 -0.1952  0.3138  0.4644
 6000TIP3    H239416   0.271   6.807  12.143 -0.8567  0.2373 -0.0525
 6001TIP3   OH239417   7.186   2.136  11.650 -0.1015 -0.1675  0.4334
 6001TIP3    H139418   7.265   2.168  11.606  0.1359 -1.8379 -0.4594
 6001TIP3    H239419   7.171   2.198  11.720  1.8178  0.4007  0.4165
 6002TIP3   OH239420   6.903   1.696   9.734 -0.0472 -0.4530 -0.1859
 6002TIP3    H139421   6.936   1.736   9.654 -0.1835  1.1466  0.5078
 6002TIP3    H239422   6.928   1.757   9.803  1.0093 -2.2993  1.1614
 6003TIP3   OH239423   5.121   6.732   0.401  0.4555  0.2493 -0.1506
 6003TIP3    H139424   5.117   6.748   0.495 -2.2369  3.6459 -0.6482
 6003TIP3    H239425   5.211   6.756   0.377 -0.1681  4.6251  0.9921
 6004TIP3   OH239426   4.735   2.482  12.415  0.2150  0.1194  0.7194
 6004TIP3    H139427   4.826   2.498  12.387  0.3002  1.3951  1.6207
 6004TIP3    H239428   4.684   2.496  12.335  0.7189  0.5868  0.4643
 6005TIP3   OH239429   3.354   4.248  12.317  0.2551 -0.0060 -0.3789
 6005TIP3    H139430   3.447   4.232  12.335  0.5707  1.4616 -0.5257
 6005TIP3    H239431   3.350   4.259  12.222  0.0306  0.4306 -0.3224
 6006TIP3   OH239432   2.117   1.855  12.816 -0.2169 -0.5096 -0.9650
 6006TIP3    H139433   2.044   1.865  12.755  0.2073 -0.7080 -1.5163
 6006TIP3    H239434   2.166   1.937  12.807 -1.1073  0.2105  0.4174
 6007TIP3   OH239435   2.240   4.563  12.532 -0.1102  0.2023 -0.5812
 6007TIP3    H139436   2.250   4.469  12.512  0.1211  0.0273  0.3298
 6007TIP3    H239437   2.162   4.589  12.484  0.9269  0.0207 -2.5012
 6008TIP3   OH239438   2.122   5.935  14.232  0.4450 -0.1562 -0.1773
 6008TIP3    H139439   2.183   5.929  14.158 -0.4926  0.1213 -0.9914
 6008TIP3    H239440   2.097   5.844  14.250  1.6007 -0.3340  0.6048
 6009TIP3   OH239441   1.933   1.287   0.025  0.6404 -0.1422  0.2600
 6009TIP3    H139442   1.861   1.239   0.067  0.3026  0.3182  0.2155
 6009TIP3    H239443   1.929   1.261  -0.067 -0.1818  0.7208  0.0322
 6010TIP3   OH239444   6.601   5.253  11.467 -0.2010  0.6414 -0.1579
 6010TIP3    H139445   6.654   5.197  11.522 -1.5683 -1.2119 -0.6169
 6010TIP3    H239446   6.562   5.194  11.402 -3.1468  1.7575  0.4135
 6011TIP3   OH239447   3.636   6.253  14.816  0.1648  0.0651  0.0777
 6011TIP3    H139448   3.608   6.224  14.903  3.1339 -0.7608  0.8748
 6011TIP3    H239449   3.573   6.322  14.793 -2.1006 -1.2712  1.8038
 6012TIP3   OH239450   6.348   3.110  11.030  0.3892 -0.4889  0.2260
 6012TIP3    H139451   6.267   3.160  11.041  0.4593 -0.3500  0.1082
 6012TIP3    H239452   6.406   3.143  11.100 -0.0608 -1.4104  1.0597
 6013TIP3   OH239453   0.840   5.286  15.225 -0.4960 -0.4297  0.3467
 6013TIP3    H139454   0.903   5.272  15.296 -0.8925 -0.4023  0.7068
 6013TIP3    H239455   0.803   5.372  15.243  0.0449 -0.0274 -0.3974
 6014TIP3   OH239456   6.341   2.024  13.915  0.0482  0.5981 -0.6526
 6014TIP3    H139457   6.392   2.105  13.915  0.0788  0.6015 -2.2540
 6014TIP3    H239458   6.358   1.985  13.830 -0.7111 -0.6317 -0.2610
 6015TIP3   OH239459   2.216   2.239  10.976 -0.4453 -0.0770  0.1499
 6015TIP3    H139460   2.242   2.330  10.961 -2.5059  1.3220  3.6636
 6015TIP3    H239461   2.281   2.205  11.037 -1.2550  0.0793  1.1247
 6016TIP3   OH239462   0.910   1.858  11.984 -0.6495  0.3233  1.0043
 6016TIP3    H139463   0.925   1.952  11.993 -0.9726  0.4610  0.1989
 6016TIP3    H239464   0.818   1.846  12.003 -0.8746  0.3413  0.0130
 6017TIP3   OH239465   6.437   1.714  11.608  0.5481  0.5990  0.0566
 6017TIP3    H139466   6.526   1.687  11.586 -0.3010 -0.8477 -1.9458
 6017TIP3    H239467   6.428   1.801  11.570  1.2317  0.9452  0.6723
 6018TIP3   OH239468   3.037   5.768  13.793 -0.0158  0.1981  0.3105
 6018TIP3    H139469   2.956   5.755  13.843  0.3931 -1.7086  0.5645
 6018TIP3    H239470   3.007   5.801  13.708 -1.2570 -1.9378 -0.1693
 6019TIP3   OH239471   0.778   6.446  12.045 -0.3164 -0.1911  0.4506
 6019TIP3    H139472   0.826   6.398  11.978  0.3204  0.4783  0.4122
 6019TIP3    H239473   0.700   6.479  12.000 -0.6976 -1.0640  0.4500
 6020TIP3   OH239474   6.577   0.443  12.369  0.4350  0.4899  0.6992
 6020TIP3    H139475   6.611   0.359  12.337  0.5872  1.2592 -1.3017
 6020TIP3    H239476   6.649   0.504  12.355  0.2377  1.0374  1.9160
 6021TIP3   OH239477   2.085   1.384  13.263 -0.4430  0.3249  0.0388
 6021TIP3    H139478   2.028   1.341  13.200  1.1563  0.0193 -1.2916
 6021TIP3    H239479   2.044   1.469  13.279 -2.2925 -0.6430  0.7235
 6022TIP3   OH239480   0.720   2.599  11.353  0.0042 -0.2195  0.2857
 6022TIP3    H139481   0.732   2.620  11.445  1.5749 -2.0814  0.5655
 6022TIP3    H239482   0.635   2.555  11.349 -0.2117  0.1446  0.7657
 6023TIP3   OH239483   2.392   1.811   4.654  0.0021  0.0156 -0.4758
 6023TIP3    H139484   2.358   1.893   4.691 -0.1222  0.3369 -1.2936
 6023TIP3    H239485   2.369   1.745   4.719 -2.0272  0.2526 -0.8941
 6024TIP3   OH239486   3.132   2.135   0.767  0.1364  0.2663  0.2215
 6024TIP3    H139487   3.140   2.230   0.772 -0.8423  0.3977 -0.4447
 6024TIP3    H239488   3.082   2.119   0.687  0.9519 -0.8520 -0.0909
 6025TIP3   OH239489   0.185   4.307  14.233 -0.0937  0.3407 -0.1250
 6025TIP3    H139490   0.092   4.321  14.215 -0.4317 -0.5532  0.7955
 6025TIP3    H239491   0.212   4.240  14.170  0.4108  1.8976 -1.6081
 6026TIP3   OH239492   2.936   6.122  11.344  0.0781  0.1295  0.4648
 6026TIP3    H139493   2.910   6.096  11.433  0.5049  0.2787  0.6384
 6026TIP3    H239494   3.031   6.118  11.345  0.0692 -0.4791 -0.1772
 6027TIP3   OH239495   6.008   0.273  14.488  0.0819 -0.0548  0.3158
 6027TIP3    H139496   5.923   0.300  14.520  0.0805  1.5382 -0.9059
 6027TIP3    H239497   5.994   0.255  14.395  1.0658  0.2411  0.0978
 6028TIP3   OH239498   5.324   2.486  12.385 -0.7821 -0.2862 -0.1593
 6028TIP3    H139499   5.329   2.410  12.443 -0.7624  1.0632  1.6998
 6028TIP3    H239500   5.414   2.514  12.374 -0.9244  0.8194  1.1309
 6029TIP3   OH239501   3.203   2.521  13.014 -0.0610 -0.2292 -0.0533
 6029TIP3    H139502   3.144   2.543  13.086  1.5600 -0.9018  1.5275
 6029TIP3    H239503   3.277   2.476  13.055  1.4087  0.2572 -2.0098
 6030TIP3   OH239504   4.944   6.659   9.794 -0.7792  0.1306  0.3078
 6030TIP3    H139505   4.894   6.731   9.757 -0.4288 -0.0414 -0.5098
 6030TIP3    H239506   4.985   6.697   9.872  0.6228  1.2838 -0.9218
 6031TIP3   OH239507   3.011   4.654   3.892  0.0840 -0.1255 -0.1036
 6031TIP3    H139508   3.046   4.657   3.803  0.6601 -1.5853  0.0511
 6031TIP3    H239509   2.929   4.703   3.887  0.7497  0.9504 -1.1207
 6032TIP3   OH239510   3.332   4.570  14.551  0.3947 -0.4498 -0.6070
 6032TIP3    H139511   3.310   4.502  14.615  1.8834  1.3648  2.0626
 6032TIP3    H239512   3.248   4.609  14.527 -0.2852 -1.7886 -0.4958
 6033TIP3   OH239513   6.494   0.671   2.143 -0.6769  0.3168  0.6300
 6033TIP3    H139514   6.517   0.632   2.227  0.3512  0.5010  0.4452
 6033TIP3    H239515   6.564   0.733   2.125 -0.9470  0.3674 -0.3092
 6034TIP3   OH239516   2.426   3.431  14.075  0.2253  0.3903 -0.9235
 6034TIP3    H139517   2.504   3.486  14.083 -0.7204  1.6788 -0.1179
 6034TIP3    H239518   2.446   3.372  14.003  2.3615 -0.0457 -0.0537
 6035TIP3   OH239519   1.167   5.488  13.089  0.0991  0.2438  0.1025
 6035TIP3    H139520   1.237   5.511  13.028  1.3880 -0.3303  1.3090
 6035TIP3    H239521   1.197   5.407  13.130 -0.6853  0.6543  1.5519
 6036TIP3   OH239522   3.679   7.148  10.266  0.3164  0.1624 -0.3679
 6036TIP3    H139523   3.712   7.132  10.354  0.5840  2.2923 -0.0174
 6036TIP3    H239524   3.643   7.237  10.270  0.7234  0.4838 -2.4991
 6037TIP3   OH239525   6.972   1.333  10.974 -0.3458 -0.3061  0.0694
 6037TIP3    H139526   6.900   1.363  10.920  1.4015  1.2593 -1.5415
 6037TIP3    H239527   6.984   1.241  10.951 -2.7344 -1.0604  1.5257
 6038TIP3   OH239528   0.382   6.050  13.964 -0.5686 -0.0122  0.0009
 6038TIP3    H139529   0.335   5.990  14.021 -1.0807 -0.6145 -1.0297
 6038TIP3    H239530   0.469   6.012  13.956  0.5553  1.6564  2.7729
 6039TIP3   OH239531   6.911   0.657  11.470 -0.3805  0.5326  0.5494
 6039TIP3    H139532   6.840   0.721  11.464  0.3894  1.4898  1.3487
 6039TIP3    H239533   6.952   0.674  11.555 -0.1631 -1.0410  0.7997
 6040TIP3   OH239534   5.125   6.686  10.137 -0.7242  0.7814  0.2307
 6040TIP3    H139535   5.158   6.618  10.078 -1.0587  0.4511  0.4200
 6040TIP3    H239536   5.042   6.651  10.170 -0.4195  0.8556  1.0889
 6041TIP3   OH239537   3.268   2.487  11.753 -0.4782 -0.5428  0.1431
 6041TIP3    H139538   3.203   2.417  11.758 -0.6267 -0.3653  0.6964
 6041TIP3    H239539   3.276   2.505  11.659 -0.6457 -1.1063  0.0202
 6042TIP3   OH239540   2.469   3.644  11.110 -0.5257 -0.4362 -0.5177
 6042TIP3    H139541   2.462   3.549  11.119  0.8319 -0.5612 -0.4491
 6042TIP3    H239542   2.542   3.657  11.049 -0.1628  0.5590  0.0943
 6043TIP3   OH239543   6.718   1.082  12.596 -0.2525 -0.0920 -0.0619
 6043TIP3    H139544   6.637   1.132  12.591  0.2516  0.7516 -0.0210
 6043TIP3    H239545   6.783   1.137  12.553  0.5687 -0.2007  0.9834
 6044TIP3   OH239546   6.818   4.578  12.319  0.8050  0.5003 -0.4965
 6044TIP3    H139547   6.821   4.611  12.229 -0.3492  0.1829 -0.6730
 6044TIP3    H239548   6.775   4.648  12.368 -2.7160 -1.0028 -1.0858
 6045TIP3   OH239549   3.288   7.190  12.880  0.1803 -0.4413  0.8488
 6045TIP3    H139550   3.242   7.138  12.947  0.0127 -1.3895  0.0296
 6045TIP3    H239551   3.239   7.272  12.876 -0.5833 -0.8745  1.0070
 6046TIP3   OH239552   0.277   2.468  14.106 -0.3667 -0.8095 -0.3229
 6046TIP3    H139553   0.331   2.547  14.116 -2.6011  0.8744 -0.8253
 6046TIP3    H239554   0.340   2.400  14.083  1.7433  0.6579  0.7086
 6047TIP3   OH239555   0.606   5.419  10.667  0.0882  0.5401 -0.4977
 6047TIP3    H139556   0.652   5.489  10.713 -0.1844  0.6476 -0.3817
 6047TIP3    H239557   0.653   5.339  10.691  1.0794  0.7963 -1.5170
 6048TIP3   OH239558   6.905   4.401  11.105  0.4700 -0.4468  0.1518
 6048TIP3    H139559   6.927   4.455  11.029 -1.1168 -1.6057 -1.2218
 6048TIP3    H239560   6.823   4.357  11.080 -1.9312  1.4970  3.7400
 6049TIP3   OH239561   1.887   6.098  11.180 -0.5282  0.3656  0.6184
 6049TIP3    H139562   1.959   6.071  11.123  0.9183 -0.1278  2.5844
 6049TIP3    H239563   1.840   6.165  11.130  0.9165  0.2427 -0.9632
 6050TIP3   OH239564   2.054   3.726   0.811 -0.4805  0.1139  1.0221
 6050TIP3    H139565   2.089   3.761   0.893  0.3142 -1.4464  1.3878
 6050TIP3    H239566   2.095   3.778   0.743  1.3250 -0.6176  1.5104
 6051TIP3   OH239567   1.133   4.339  10.550 -1.0826  0.1423 -0.0616
 6051TIP3    H139568   1.069   4.332  10.622 -0.6545  0.7727  0.3922
 6051TIP3    H239569   1.118   4.427  10.515  2.9598  2.6005  3.4313
 6052TIP3   OH239570   0.111   3.806  13.871 -0.0250  0.8496  0.1635
 6052TIP3    H139571   0.111   3.860  13.792 -2.5051  0.8341  0.0766
 6052TIP3    H239572   0.192   3.831  13.917  1.0676  1.4303 -1.9544
 6053TIP3   OH239573   2.970   0.968  13.928 -0.0801  0.0671 -0.4214
 6053TIP3    H139574   3.044   0.931  13.880  1.0759  0.4862  0.9610
 6053TIP3    H239575   2.894   0.921  13.894  1.0179 -1.6496 -0.6380
 6054TIP3   OH239576   1.331   1.934  12.385  0.3756  0.4301  0.0992
 6054TIP3    H139577   1.278   1.904  12.459  1.5926 -0.0344  0.8135
 6054TIP3    H239578   1.289   2.014  12.356  0.2826  1.0321  1.7917
 6055TIP3   OH239579   2.992   6.562  12.681  0.1580 -0.0580  0.1468
 6055TIP3    H139580   2.967   6.575  12.772  0.3263  1.6388 -0.0250
 6055TIP3    H239581   2.927   6.610  12.631  0.3236 -0.6077 -0.6185
 6056TIP3   OH239582   6.391   6.493  12.884 -0.1470 -0.4218 -0.0740
 6056TIP3    H139583   6.365   6.580  12.914  1.7254 -0.2618  1.2235
 6056TIP3    H239584   6.407   6.444  12.964 -1.5326 -2.1255 -0.7709
 6057TIP3   OH239585   2.835   0.385   2.280 -0.0818  0.6659 -0.2478
 6057TIP3    H139586   2.896   0.352   2.215  0.6835 -0.7619  1.1178
 6057TIP3    H239587   2.754   0.335   2.264  0.1507  0.2100 -0.0368
 6058TIP3   OH239588   4.407   3.953   0.155  0.4339 -0.7915 -0.1432
 6058TIP3    H139589   4.399   4.008   0.077  0.5176  1.2768  1.2361
 6058TIP3    H239590   4.333   3.892   0.149 -1.5924  1.5502 -0.2046
 6059TIP3   OH239591   4.065   3.324  13.075 -0.3421  0.0776  0.3645
 6059TIP3    H139592   4.058   3.267  12.999 -0.1468 -2.0158  1.8156
 6059TIP3    H239593   3.985   3.309  13.125 -0.5006  1.4578  0.5744
 6060TIP3   OH239594   2.952   3.009  14.559  0.0286  0.5167  0.2410
 6060TIP3    H139595   2.951   3.096  14.598  0.0739  0.6055  0.0413
 6060TIP3    H239596   3.044   2.994  14.536 -0.0166  0.5064  0.0687
 6061TIP3   OH239597   0.396   5.530   3.810  0.8595 -0.5329  0.5653
 6061TIP3    H139598   0.443   5.557   3.888  0.7844  0.4031  0.2973
 6061TIP3    H239599   0.458   5.475   3.762  1.1290 -0.5788  0.9619
 6062TIP3   OH239600   3.553   2.498  12.164 -0.0137  0.0584  0.3098
 6062TIP3    H139601   3.630   2.538  12.124 -0.1012 -0.9547 -0.9437
 6062TIP3    H239602   3.519   2.439  12.097 -2.4344  1.1246  0.4702
 6063TIP3   OH239603   3.219   3.644   1.284  0.3146  0.0661  0.2621
 6063TIP3    H139604   3.195   3.552   1.277 -1.0022  0.5360 -2.8982
 6063TIP3    H239605   3.315   3.643   1.296  0.1319 -1.6438  2.3155
 6064TIP3   OH239606   6.604   3.110  11.766  0.0467  0.4114  0.4485
 6064TIP3    H139607   6.645   3.071  11.689  2.0072  1.5381  0.8426
 6064TIP3    H239608   6.574   3.036  11.818  0.7407 -0.4309 -0.3264
 6065TIP3   OH239609   6.204   5.510   2.334 -0.2103 -0.1488  0.2431
 6065TIP3    H139610   6.257   5.430   2.326 -1.1376 -0.9289  1.4848
 6065TIP3    H239611   6.181   5.532   2.244 -0.6469 -1.8146 -0.1013
 6066TIP3   OH239612   6.826   4.605  10.240  0.0571 -0.6540 -0.4961
 6066TIP3    H139613   6.742   4.592  10.283  1.1537 -1.0162  1.6915
 6066TIP3    H239614   6.811   4.578  10.149 -2.1298 -0.8058 -0.1511
 6067TIP3   OH239615   4.557   4.791   9.533 -0.1246  0.2217 -0.0621
 6067TIP3    H139616   4.490   4.723   9.535 -2.0677  2.0349  1.1190
 6067TIP3    H239617   4.640   4.744   9.543 -1.0404 -2.2017 -2.5507
 6068TIP3   OH239618   5.625   1.770  11.687 -0.1987 -0.2477 -0.0325
 6068TIP3    H139619   5.548   1.759  11.631 -1.1705 -1.3060  1.4476
 6068TIP3    H239620   5.612   1.708  11.758  0.3128  2.0142  2.1525
 6069TIP3   OH239621   6.347   4.409  10.698 -0.4840 -0.2802  0.5595
 6069TIP3    H139622   6.397   4.328  10.686  0.3711  0.4463 -1.1035
 6069TIP3    H239623   6.257   4.385  10.678 -0.0671 -0.6051 -1.0967
 6070TIP3   OH239624   1.894   4.875  11.454 -0.0180 -0.0790  0.0701
 6070TIP3    H139625   1.938   4.858  11.371 -2.6980 -1.4760 -1.1902
 6070TIP3    H239626   1.836   4.800  11.467 -2.9592  2.1103  0.8844
 6071TIP3   OH239627   0.454   4.485   0.393  0.4858 -0.1361  0.0149
 6071TIP3    H139628   0.449   4.399   0.350 -0.3730 -0.9938  1.7048
 6071TIP3    H239629   0.530   4.478   0.451  0.5854  0.3583 -0.0558
 6072TIP3   OH239630   1.690   2.730  14.381 -0.3851 -0.3404  0.3064
 6072TIP3    H139631   1.669   2.685  14.463  0.4099 -0.3414  0.5209
 6072TIP3    H239632   1.778   2.766  14.396  0.1506 -1.1134 -0.8620
 6073TIP3   OH239633   1.597   3.809  15.330 -0.0682 -0.0010 -0.9093
 6073TIP3    H139634   1.615   3.822  15.237  1.2318  0.7328 -0.5714
 6073TIP3    H239635   1.584   3.714  15.338  0.5592 -0.1685 -1.7189
 6074TIP3   OH239636   3.567   5.468   3.155  0.2706  0.0482 -0.3142
 6074TIP3    H139637   3.563   5.372   3.159  0.4824  0.0677  1.0115
 6074TIP3    H239638   3.653   5.488   3.121  0.3218 -0.2415 -0.3551
 6075TIP3   OH239639   2.636   3.393   0.214 -0.1051 -0.2824  0.3110
 6075TIP3    H139640   2.636   3.355   0.126  0.6141 -0.0546  0.2102
 6075TIP3    H239641   2.591   3.328   0.268 -0.5676 -0.4159 -0.2282
 6076TIP3   OH239642   4.274   1.874   2.405  0.6461 -0.3580  0.1109
 6076TIP3    H139643   4.329   1.944   2.440 -0.2111  0.0129  0.7383
 6076TIP3    H239644   4.298   1.870   2.312  1.9656 -0.4385  0.4350
 6077TIP3   OH239645   5.762   4.483  13.215 -0.5142 -0.2258 -0.2831
 6077TIP3    H139646   5.771   4.388  13.219 -0.7820 -0.2603 -0.5260
 6077TIP3    H239647   5.763   4.511  13.306 -1.2931 -0.5395 -0.1755
 6078TIP3   OH239648   4.789   1.567  12.260 -0.1023 -0.0699 -0.3025
 6078TIP3    H139649   4.808   1.569  12.354  3.5639 -2.0720 -0.8189
 6078TIP3    H239650   4.793   1.659  12.233 -1.8771  0.6179  1.4839
 6079TIP3   OH239651   0.609   3.351  10.982  0.1655  0.7642 -0.2537
 6079TIP3    H139652   0.526   3.353  10.933 -1.8154 -0.8243  2.7311
 6079TIP3    H239653   0.605   3.429  11.038 -1.1339 -1.0348  2.3790
 6080TIP3   OH239654   1.341   5.581   1.069 -0.6637  0.3321 -0.1928
 6080TIP3    H139655   1.294   5.554   1.147 -1.6490  0.3659 -0.7583
 6080TIP3    H239656   1.277   5.630   1.017 -0.3984 -0.6970 -1.5617
 6081TIP3   OH239657   4.514   2.086  10.064 -0.2693  0.1223 -0.0603
 6081TIP3    H139658   4.498   2.071   9.971 -0.3021  0.4929 -0.1156
 6081TIP3    H239659   4.427   2.087  10.104 -0.2037 -1.1557  0.1547
 6082TIP3   OH239660   3.804   5.347  13.091  0.0278 -0.4680 -0.0197
 6082TIP3    H139661   3.742   5.389  13.030  1.0509  1.1038 -0.0437
 6082TIP3    H239662   3.760   5.351  13.176  0.1914  0.9618  0.0313
 6083TIP3   OH239663   2.134   6.668  13.015 -0.6395 -0.4856 -0.1730
 6083TIP3    H139664   2.228   6.650  13.002 -0.7706 -0.6590 -0.9268
 6083TIP3    H239665   2.105   6.702  12.930 -1.2132 -0.2199  0.1296
 6084TIP3   OH239666   6.712   4.211  14.071 -0.8513  0.1016 -0.0716
 6084TIP3    H139667   6.707   4.305  14.089  0.5236  0.3919 -1.0545
 6084TIP3    H239668   6.661   4.200  13.991 -1.0778 -0.0017  0.0874
 6085TIP3   OH239669   1.776   4.992   0.638  0.3335  0.7347 -0.0857
 6085TIP3    H139670   1.833   4.927   0.597  1.5101  2.1382 -0.7778
 6085TIP3    H239671   1.707   5.007   0.573 -0.4044 -0.3745  0.4125
 6086TIP3   OH239672   4.248   0.427   9.615  0.1099 -0.4919 -0.1139
 6086TIP3    H139673   4.287   0.375   9.545  0.2122 -0.0442 -0.3929
 6086TIP3    H239674   4.153   0.413   9.606  0.0356  0.5283 -1.1196
 6087TIP3   OH239675   3.856   2.726  10.416  0.8522  0.4174  0.4081
 6087TIP3    H139676   3.848   2.800  10.356 -0.7470  0.4128  0.5787
 6087TIP3    H239677   3.790   2.742  10.483 -0.4850 -1.8365 -0.2816
 6088TIP3   OH239678   1.162   5.512   0.227  0.5401  0.4291  0.0889
 6088TIP3    H139679   1.211   5.525   0.146  2.0616 -1.1989  0.6724
 6088TIP3    H239680   1.074   5.543   0.207  0.5612 -0.9408 -2.5673
 6089TIP3   OH239681   5.325   3.528   2.563 -0.3539  0.2361  0.5875
 6089TIP3    H139682   5.239   3.500   2.531 -0.1656 -0.8639  0.9843
 6089TIP3    H239683   5.312   3.544   2.656 -0.1638  0.2069  0.6204
 6090TIP3   OH239684   1.613   5.742  12.777  0.2985  0.4526  0.4801
 6090TIP3    H139685   1.623   5.739  12.872 -0.0870  0.9494  0.5429
 6090TIP3    H239686   1.699   5.720  12.743  0.5465  0.6727  0.9508
 6091TIP3   OH239687   3.482   4.565   0.344  0.3140 -0.0554  0.4078
 6091TIP3    H139688   3.552   4.579   0.280  0.7365 -0.7331  0.7047
 6091TIP3    H239689   3.528   4.560   0.428 -0.0440 -0.8437  0.5674
 6092TIP3   OH239690   3.305   6.714   9.676 -0.2134  0.4360  0.0322
 6092TIP3    H139691   3.367   6.786   9.665  0.9666 -0.6065 -0.4126
 6092TIP3    H239692   3.352   6.637   9.643 -1.5029 -0.5070  0.3249
 6093TIP3   OH239693   2.236   5.513  14.653  0.0108  0.1288  0.0313
 6093TIP3    H139694   2.314   5.492  14.601 -0.4677  1.4957 -1.3255
 6093TIP3    H239695   2.267   5.518  14.743  1.5161  0.7175 -0.4956
 6094TIP3   OH239696   5.306   1.324   1.503 -0.1200 -0.2793  0.0779
 6094TIP3    H139697   5.356   1.394   1.463 -0.1104  0.1784  0.8814
 6094TIP3    H239698   5.263   1.364   1.578  0.6410 -1.3426  1.1120
 6095TIP3   OH239699   3.801   6.860  14.206 -0.1041 -0.0451  0.1456
 6095TIP3    H139700   3.782   6.807  14.283  1.7160  0.9153  1.3296
 6095TIP3    H239701   3.716   6.891  14.176 -0.9550 -1.4780  1.0082
 6096TIP3   OH239702   3.062   2.048  12.182 -0.0658 -0.4833  0.5966
 6096TIP3    H139703   3.106   2.063  12.098 -0.1445  1.7731  0.9089
 6096TIP3    H239704   2.969   2.042  12.160 -0.1455  0.7077  0.5627
 6097TIP3   OH239705   3.062   6.470  13.835  0.0525 -0.1773 -0.0611
 6097TIP3    H139706   3.071   6.537  13.904  0.7469 -1.5980  1.3025
 6097TIP3    H239707   3.151   6.438  13.821  0.0328  0.5429 -2.1740
 6098TIP3   OH239708   1.741   4.217  10.310 -0.7025  0.3428 -0.0926
 6098TIP3    H139709   1.758   4.299  10.355 -1.3328  0.4374 -0.0194
 6098TIP3    H239710   1.826   4.190  10.276 -0.6014  1.3661 -0.6900
 6099TIP3   OH239711   6.193   1.797  10.870 -0.7168 -0.7924 -0.1772
 6099TIP3    H139712   6.098   1.787  10.859 -1.3520  1.4950  2.2112
 6099TIP3    H239713   6.214   1.880  10.827 -0.1848 -0.3489  0.9007
 6100TIP3   OH239714   1.935   5.385   0.776 -0.1288  0.8964 -0.2849
 6100TIP3    H139715   1.992   5.311   0.794 -1.8790 -0.5621 -0.3821
 6100TIP3    H239716   1.977   5.430   0.702  0.4778 -0.6053 -0.9062
 6101TIP3   OH239717   3.093   1.623  11.925 -0.8488  0.1142 -0.1000
 6101TIP3    H139718   3.052   1.537  11.922 -1.0492  0.1547  1.0692
 6101TIP3    H239719   3.179   1.610  11.884 -0.8691 -0.6432  0.0823
 6102TIP3   OH239720   6.384   1.618  11.336 -0.4132  0.2821 -0.2861
 6102TIP3    H139721   6.324   1.679  11.293 -0.0983  1.4007  0.8059
 6102TIP3    H239722   6.369   1.632  11.430  1.2540  0.2921  0.0111
 6103TIP3   OH239723   6.476   2.217   0.753 -0.0509 -0.2350 -0.2120
 6103TIP3    H139724   6.483   2.148   0.687 -0.4183  0.4739 -1.0295
 6103TIP3    H239725   6.392   2.259   0.734 -0.3781 -0.3003  1.0111
 6104TIP3   OH239726   1.346   5.794   0.030 -0.1253 -0.3371  0.3280
 6104TIP3    H139727   1.441   5.787   0.040 -0.2215 -0.8741  0.9450
 6104TIP3    H239728   1.327   5.749  -0.052  0.2497  0.6091 -0.2989
 6105TIP3   OH239729   2.900   5.466  12.672  0.4219  0.6198 -0.5663
 6105TIP3    H139730   2.923   5.551  12.636 -0.4890  0.5144 -1.4403
 6105TIP3    H239731   2.907   5.477  12.767  0.0908  1.7251 -0.6639
 6106TIP3   OH239732   5.628   0.365  11.443 -0.1270 -0.2581  0.6566
 6106TIP3    H139733   5.664   0.430  11.504 -1.1444  0.8521  0.1234
 6106TIP3    H239734   5.675   0.284  11.463  0.3575  0.3583  2.1285
 6107TIP3   OH239735   2.521   0.024  12.569  1.0608  0.9925  0.1293
 6107TIP3    H139736   2.474  -0.050  12.605  0.0591  1.3638 -0.3988
 6107TIP3    H239737   2.553   0.072  12.646 -0.0147  1.1108  0.5125
 6108TIP3   OH239738   4.033   5.534  14.517 -0.3821 -1.0207  0.1038
 6108TIP3    H139739   3.944   5.568  14.515 -0.4205 -0.8515  2.2677
 6108TIP3    H239740   4.088   5.610  14.537  0.3981 -0.9705 -1.9218
 6109TIP3   OH239741   3.290   3.645  10.651 -0.2416 -0.2087  0.1983
 6109TIP3    H139742   3.238   3.679  10.578 -0.5406 -1.0142  0.0209
 6109TIP3    H239743   3.224   3.621  10.717 -0.0666 -0.7312  0.1881
 6110TIP3   OH239744   1.397   5.362  14.174 -0.2977  0.1554  0.1456
 6110TIP3    H139745   1.484   5.376  14.137  0.0132 -1.1191  0.3567
 6110TIP3    H239746   1.337   5.376  14.101  0.2488 -1.3885 -0.6381
 6111TIP3   OH239747   1.502   2.944  14.516  0.3794 -0.0885  0.2395
 6111TIP3    H139748   1.559   2.878  14.477  0.4494  1.4110 -2.3853
 6111TIP3    H239749   1.523   3.025  14.471 -1.5613  1.2137  1.4882
 6112TIP3   OH239750   2.539   2.584  12.999  0.0560  0.1545 -0.1001
 6112TIP3    H139751   2.530   2.613  13.090 -1.2223 -1.7392  0.4614
 6112TIP3    H239752   2.547   2.664  12.948  1.5402  1.2424  1.7439
 6113TIP3   OH239753   7.036   3.250  13.178 -0.5934 -0.4521 -0.5203
 6113TIP3    H139754   7.008   3.188  13.110 -1.2957  1.2244 -1.8316
 6113TIP3    H239755   6.976   3.324  13.169 -0.3975  0.0359  1.6447
 6114TIP3   OH239756   2.416   2.348   1.831  0.7404 -0.1496  0.1703
 6114TIP3    H139757   2.415   2.260   1.868  0.5654  0.0130  0.5625
 6114TIP3    H239758   2.398   2.335   1.738  2.1702 -0.6392 -0.0523
 6115TIP3   OH239759   4.206   6.880   9.877  0.3526 -0.1100  0.3076
 6115TIP3    H139760   4.191   6.960   9.927  2.5349  0.8644 -0.4846
 6115TIP3    H239761   4.261   6.826   9.935 -0.1812 -0.5781  0.3901
 6116TIP3   OH239762   6.331   6.235  13.029  0.0329 -0.2686 -0.3919
 6116TIP3    H139763   6.288   6.176  12.968  0.1898 -0.6038 -0.1841
 6116TIP3    H239764   6.393   6.179  13.077 -1.1603 -0.3659  1.1469
 6117TIP3   OH239765   4.504   2.970  10.145 -0.2806 -0.6456  0.0132
 6117TIP3    H139766   4.567   2.898  10.139 -0.9524 -1.1487 -1.7551
 6117TIP3    H239767   4.526   3.026  10.071 -1.9616 -0.9170 -0.7326
 6118TIP3   OH239768   3.597   2.743  13.152 -0.2606  0.2733  0.0971
 6118TIP3    H139769   3.644   2.766  13.232  0.4980 -1.4109  0.1818
 6118TIP3    H239770   3.651   2.675  13.111 -1.8806 -0.6833 -0.5579
 6119TIP3   OH239771   4.978   2.234  12.363 -0.4574 -0.0778  0.4048
 6119TIP3    H139772   5.012   2.305  12.308 -0.4083 -0.0328  0.4934
 6119TIP3    H239773   5.052   2.209  12.418 -1.1471  1.5468  2.2068
 6120TIP3   OH239774   2.570   6.675  11.068 -0.1890  0.2335 -0.0488
 6120TIP3    H139775   2.478   6.647  11.071  0.0528 -0.8015 -1.5470
 6120TIP3    H239776   2.618   6.604  11.110  0.1126 -0.0898 -0.9375
 6121TIP3   OH239777   3.894   2.787  12.998 -0.2625  0.1486  0.1312
 6121TIP3    H139778   3.871   2.696  13.012 -1.0296  0.4621  0.9522
 6121TIP3    H239779   3.831   2.818  12.934 -0.1951  0.1891  0.0841
 6122TIP3   OH239780   2.574   2.889  13.047 -0.5826 -0.6858  0.0956
 6122TIP3    H139781   2.599   2.967  12.997  2.2313 -2.4411 -1.5200
 6122TIP3    H239782   2.587   2.913  13.138  2.0854  0.2549 -0.4401
 6123TIP3   OH239783   2.637   4.566  15.105 -0.3773  0.4532 -0.5349
 6123TIP3    H139784   2.688   4.485  15.100  0.6568  1.1720 -3.1328
 6123TIP3    H239785   2.684   4.620  15.168  0.4949  0.0561 -0.8329
 6124TIP3   OH239786   5.508   0.061  12.889 -0.0416  0.2969 -0.4219
 6124TIP3    H139787   5.486   0.049  12.982  0.3774  2.3865 -0.0034
 6124TIP3    H239788   5.569  -0.009  12.870  0.0943 -0.0011  0.9745
 6125TIP3   OH239789   3.485   2.825  10.355 -0.6829  0.1496 -0.1578
 6125TIP3    H139790   3.391   2.829  10.372 -0.5153  0.2092  0.8483
 6125TIP3    H239791   3.495   2.853  10.264 -1.4488  2.2546  0.3626
 6126TIP3   OH239792   0.552   0.140  14.924 -0.4391 -0.5561 -0.2116
 6126TIP3    H139793   0.469   0.148  14.970 -0.0378  1.2397  0.3040
 6126TIP3    H239794   0.569   0.228  14.889  0.6720 -1.1737 -1.3166
 6127TIP3   OH239795   4.415   2.691  10.130 -0.2695 -0.1780  0.7190
 6127TIP3    H139796   4.453   2.760  10.183 -2.7540  0.7309  1.4708
 6127TIP3    H239797   4.335   2.666  10.177 -0.8534 -1.6365 -0.9355
 6128TIP3   OH239798   4.333   2.775  14.481  0.6717  0.2967 -0.0556
 6128TIP3    H139799   4.404   2.838  14.466  0.1279  0.7282 -0.9076
 6128TIP3    H239800   4.298   2.757  14.394  0.5299 -0.8628  0.2223
 6129TIP3   OH239801   6.335   4.574  14.018  0.4801 -0.4538 -0.1293
 6129TIP3    H139802   6.329   4.516  14.094 -0.9192 -0.2549 -0.0486
 6129TIP3    H239803   6.302   4.521  13.946  0.8945 -0.3350 -0.4033
 6130TIP3   OH239804   2.227   1.080  13.623  0.2968  0.5406  0.0093
 6130TIP3    H139805   2.178   1.153  13.586  0.3800 -0.2496 -1.7812
 6130TIP3    H239806   2.199   1.004  13.572  2.2704 -0.1824 -0.0836
 6131TIP3   OH239807   1.136   2.461  10.546 -0.2142 -0.2095  0.1386
 6131TIP3    H139808   1.071   2.397  10.576  0.2782 -1.0622 -0.5421
 6131TIP3    H239809   1.220   2.422  10.572  0.0775  0.3335  0.0102
 6132TIP3   OH239810   2.530   7.198   2.001  0.6946  0.7641 -0.3149
 6132TIP3    H139811   2.566   7.110   2.003 -1.0465 -0.0291 -1.3139
 6132TIP3    H239812   2.435   7.185   1.995  0.1654  2.7042  2.0552
 6133TIP3   OH239813   4.954   6.842  12.329  0.7421 -0.4465  0.0485
 6133TIP3    H139814   5.013   6.823  12.403  0.9416  2.4148  0.7355
 6133TIP3    H239815   4.995   6.916  12.284 -0.3537 -0.9361 -1.8574
 6134TIP3   OH239816   2.885   6.777  11.926 -0.1014  0.0242 -0.1354
 6134TIP3    H139817   2.947   6.729  11.981  1.0990  1.0321 -0.5777
 6134TIP3    H239818   2.851   6.846  11.983  1.9706  1.7667 -0.8871
 6135TIP3   OH239819   4.079   4.720  13.889  0.1972  0.1618 -0.0085
 6135TIP3    H139820   4.087   4.666  13.810  0.1780  1.5836 -1.0210
 6135TIP3    H239821   4.017   4.789  13.864 -1.3069 -0.4208  1.8695
 6136TIP3   OH239822   5.710   2.334  13.195  0.6472 -0.0149 -0.4784
 6136TIP3    H139823   5.730   2.293  13.280  0.9203  0.6315 -0.2230
 6136TIP3    H239824   5.649   2.405  13.216  0.9159  0.3124 -0.7879
 6137TIP3   OH239825   5.108   0.168  14.680 -0.6332 -0.3339 -0.0239
 6137TIP3    H139826   5.168   0.093  14.674 -2.7553 -2.2032  0.8341
 6137TIP3    H239827   5.027   0.138  14.639 -2.2201  0.7049  2.1344
 6138TIP3   OH239828   6.689   1.260  12.294  0.3325 -0.4923  0.1542
 6138TIP3    H139829   6.702   1.188  12.232  0.9510 -0.4582  0.2427
 6138TIP3    H239830   6.769   1.262  12.346 -0.9038 -1.7364  2.2514
 6139TIP3   OH239831   1.115   3.693  11.301  0.2826 -0.0726  0.0741
 6139TIP3    H139832   1.198   3.731  11.329  0.8997 -0.8113 -0.6776
 6139TIP3    H239833   1.087   3.638  11.374  0.1526  0.6350  0.5623
 6140TIP3   OH239834   1.142   1.661   9.745 -0.3280 -0.0437 -0.4442
 6140TIP3    H139835   1.091   1.737   9.773  1.4831  0.7686  0.8515
 6140TIP3    H239836   1.233   1.688   9.757  0.4613 -1.2944 -3.0251
 6141TIP3   OH239837   6.057   4.117   3.426 -0.1184 -1.0916  0.2915
 6141TIP3    H139838   6.138   4.116   3.477 -0.3905 -1.9039  0.7180
 6141TIP3    H239839   5.993   4.158   3.483  0.4095  1.3790 -0.7515
 6142TIP3   OH239840   5.336   4.904  11.435 -0.1999 -0.1159  0.5857
 6142TIP3    H139841   5.328   4.825  11.488 -0.2692 -0.0490  0.6749
 6142TIP3    H239842   5.306   4.877  11.348  0.9559 -0.5138  0.2959
 6143TIP3   OH239843   0.631   2.267  12.941  0.2475 -1.0612 -0.5013
 6143TIP3    H139844   0.622   2.261  13.036 -2.9503 -0.6664 -0.6581
 6143TIP3    H239845   0.668   2.354  12.926 -1.1192 -0.2720  0.4068
 6144TIP3   OH239846   4.641   0.177  13.016 -0.0178  0.1856  1.3066
 6144TIP3    H139847   4.642   0.269  12.989  3.1796 -0.4606 -1.4110
 6144TIP3    H239848   4.717   0.169  13.074 -0.9761 -0.5620  2.5044
 6145TIP3   OH239849   2.156   2.490  12.052  0.2599 -0.2460  0.4114
 6145TIP3    H139850   2.072   2.452  12.030  0.6531 -1.1398  0.4117
 6145TIP3    H239851   2.136   2.561  12.113 -0.5994  0.4163 -0.6036
 6146TIP3   OH239852   1.125   0.371   9.653  0.2549  0.3287  0.7259
 6146TIP3    H139853   1.165   0.407   9.574 -2.1639  0.8820 -0.3578
 6146TIP3    H239854   1.146   0.277   9.650  0.1642  0.3289 -0.6355
 6147TIP3   OH239855   5.520   4.231   9.910 -0.5518 -0.1802  0.4671
 6147TIP3    H139856   5.595   4.212   9.854  0.8016 -0.0584  2.1785
 6147TIP3    H239857   5.491   4.318   9.882  1.0860  0.5639  0.9653
 6148TIP3   OH239858   4.522   5.666  12.426 -0.1335 -0.1349  0.6412
 6148TIP3    H139859   4.522   5.629  12.514  2.3107 -0.5420  0.5562
 6148TIP3    H239860   4.598   5.726  12.425  0.0927 -0.3773 -1.2555
 6149TIP3   OH239861   2.061   0.348  10.445  0.6234 -0.4626 -0.1693
 6149TIP3    H139862   2.140   0.319  10.488  0.6796  0.8368  0.6583
 6149TIP3    H239863   2.016   0.402  10.510 -0.6373 -0.6809 -0.8234
 6150TIP3   OH239864   4.214   7.124  14.023 -0.1819  0.4966 -0.5268
 6150TIP3    H139865   4.182   7.129  13.933 -2.4476  3.2686  0.2854
 6150TIP3    H239866   4.136   7.102  14.075  0.9160 -0.2697  0.8669
 6151TIP3   OH239867   3.472   6.487  10.301  0.1003 -0.4843  0.0593
 6151TIP3    H139868   3.428   6.533  10.229 -1.8080 -0.0719  1.4111
 6151TIP3    H239869   3.429   6.519  10.380  1.3168 -1.8202  1.3319
 6152TIP3   OH239870   5.396   4.054  10.900 -0.6254  0.1190  0.3280
 6152TIP3    H139871   5.483   4.032  10.932 -1.1176 -0.4235  1.3665
 6152TIP3    H239872   5.367   4.125  10.958 -0.0030  1.9050 -1.4585
 6153TIP3   OH239873   3.113   0.587  10.114 -0.1148 -0.2656  0.0812
 6153TIP3    H139874   3.183   0.551  10.168  0.3824 -1.7791 -1.4903
 6153TIP3    H239875   3.126   0.682  10.118  1.7334 -0.4893  0.2309
 6154TIP3   OH239876   6.159   1.537  14.492  0.2945  0.3899 -0.3278
 6154TIP3    H139877   6.119   1.623  14.480  0.2371  0.2562 -1.1154
 6154TIP3    H239878   6.122   1.506  14.575 -0.1998  0.8362 -0.3693
 6155TIP3   OH239879   6.228   1.255  12.726 -0.3794 -0.1009 -0.2528
 6155TIP3    H139880   6.270   1.192  12.668 -0.7447  0.5109 -1.1996
 6155TIP3    H239881   6.134   1.240  12.715 -0.4588  0.2224 -0.0452
 6156TIP3   OH239882   7.049   6.923  13.383 -0.1283 -0.3162 -0.4774
 6156TIP3    H139883   7.019   6.880  13.302  0.8002  1.1033 -1.6178
 6156TIP3    H239884   6.991   6.999  13.392 -0.1190 -0.3764  0.1234
 6157TIP3   OH239885   2.580   4.761   0.311 -0.1545 -0.5021 -0.5953
 6157TIP3    H139886   2.552   4.712   0.389 -1.7567  0.5193 -0.4557
 6157TIP3    H239887   2.624   4.838   0.347 -2.6103  0.9876 -0.5230
 6158TIP3   OH239888   1.342   2.961   1.601  0.2733  0.9087 -0.0523
 6158TIP3    H139889   1.407   3.030   1.616  2.9718 -1.1050 -1.5529
 6158TIP3    H239890   1.352   2.902   1.676  0.6435  0.3117 -0.5550
 6159TIP3   OH239891   6.060   6.270  10.672 -0.2312  0.6700 -0.0330
 6159TIP3    H139892   6.083   6.316  10.591  0.5858 -0.4400 -0.4428
 6159TIP3    H239893   5.967   6.248  10.661  0.0482 -0.0819 -0.9831
 6160TIP3   OH239894   6.695   1.909   4.445 -0.0192  0.3190 -0.0651
 6160TIP3    H139895   6.629   1.976   4.463 -0.4129  0.0627 -0.5353
 6160TIP3    H239896   6.777   1.957   4.438 -0.3525  0.8074 -0.7569
 6161TIP3   OH239897   6.123   6.085   0.853 -0.2484 -0.4306  0.4264
 6161TIP3    H139898   6.137   6.168   0.900 -0.2023 -0.6087  0.7334
 6161TIP3    H239899   6.094   6.111   0.766  0.8979 -0.0606  0.1268
 6162TIP3   OH239900   1.182   0.003   0.365 -0.3129 -0.4512 -0.2787
 6162TIP3    H139901   1.277   0.006   0.360 -0.2900 -1.1855 -0.4076
 6162TIP3    H239902   1.163  -0.057   0.438 -0.6598 -1.7764 -1.4156
 6163TIP3   OH239903   2.317   3.947  11.768 -0.2521 -0.5107 -0.1572
 6163TIP3    H139904   2.262   3.889  11.821  0.7621 -0.2357  1.2766
 6163TIP3    H239905   2.403   3.941  11.810  0.8461 -0.9770 -2.3498
 6164TIP3   OH239906   2.005   0.101  13.563 -0.0976 -0.3089  0.6759
 6164TIP3    H139907   2.062   0.145  13.500 -0.4027 -0.1194  0.5351
 6164TIP3    H239908   2.015   0.008  13.542 -0.1242 -0.2531  0.4125
 6165TIP3   OH239909   5.026   6.163  14.509 -0.4580 -0.1589 -0.7383
 6165TIP3    H139910   5.102   6.113  14.479 -0.1046 -0.4886  0.6536
 6165TIP3    H239911   4.953   6.103  14.499 -0.1861 -0.6221 -0.0178
 6166TIP3   OH239912   1.937   4.249  11.563 -0.1818  0.0264 -0.3260
 6166TIP3    H139913   1.946   4.310  11.636 -0.9495  0.2489 -0.4108
 6166TIP3    H239914   2.018   4.198  11.565  0.3350  0.8343 -0.0653
 6167TIP3   OH239915   6.192   4.882  11.692 -0.2599  0.5009 -0.0416
 6167TIP3    H139916   6.270   4.937  11.692  0.0030  0.1470  0.5260
 6167TIP3    H239917   6.214   4.811  11.753 -1.4704  1.0316  1.0520
 6168TIP3   OH239918   2.521   4.997  12.982  0.8135  0.6076 -0.2950
 6168TIP3    H139919   2.563   5.002  13.068  1.4555 -0.9902 -0.4891
 6168TIP3    H239920   2.573   5.055  12.927  0.6686  1.2971  0.2701
 6169TIP3   OH239921   3.150   5.928  13.228 -0.2205 -0.2746  0.1804
 6169TIP3    H139922   3.197   5.914  13.310 -0.6616 -1.5783  0.2343
 6169TIP3    H239923   3.081   5.990  13.250  0.8147  0.8500  0.3383
 6170TIP3   OH239924   2.176   5.498  13.267  0.1187  0.0306 -0.4302
 6170TIP3    H139925   2.114   5.446  13.216  0.9846 -2.3798  0.8168
 6170TIP3    H239926   2.226   5.548  13.202 -1.5418  0.2332 -1.5985
 6171TIP3   OH239927   4.073   2.128  13.854 -0.0925  0.2772 -0.3106
 6171TIP3    H139928   4.116   2.198  13.902  1.2153 -1.1818  0.7090
 6171TIP3    H239929   4.067   2.056  13.916 -0.7777 -0.7680 -1.5391
 6172TIP3   OH239930   5.274   5.028   9.877  0.9421  0.1355  0.2606
 6172TIP3    H139931   5.206   5.002   9.939  1.4208 -0.8946  0.3730
 6172TIP3    H239932   5.279   4.955   9.815  0.8092  0.9349 -0.7130
 6173TIP3   OH239933   1.111   0.177  13.202  0.4811 -0.0281  0.4622
 6173TIP3    H139934   1.036   0.231  13.177  0.3850 -0.1582  0.4688
 6173TIP3    H239935   1.155   0.158  13.119  0.8656  0.5679  0.5175
 6174TIP3   OH239936   4.426   2.148  11.952 -0.8970  0.0344  0.0986
 6174TIP3    H139937   4.457   2.112  12.035 -1.6677 -0.5287  0.1469
 6174TIP3    H239938   4.348   2.097  11.930 -1.5031  1.0830 -0.2836
 6175TIP3   OH239939   1.674   0.941  10.509 -0.2443  0.0501 -1.0909
 6175TIP3    H139940   1.742   0.947  10.441  0.6401 -0.1684 -0.2463
 6175TIP3    H239941   1.616   1.014  10.491  0.6809  0.7405 -1.3347
 6176TIP3   OH239942   1.524   6.534  12.202  0.0085 -0.1094 -0.9524
 6176TIP3    H139943   1.432   6.527  12.179  0.1891 -3.0330 -1.2268
 6176TIP3    H239944   1.570   6.493  12.128  1.2417 -1.7637  0.6548
 6177TIP3   OH239945   4.364   0.638  13.038  0.7009 -0.2260  0.1647
 6177TIP3    H139946   4.396   0.548  13.026 -2.0936 -1.2554 -0.2940
 6177TIP3    H239947   4.423   0.692  12.986  1.8311 -1.9155 -0.3866
 6178TIP3   OH239948   5.129   3.047  13.160  0.7138  0.2344 -0.5319
 6178TIP3    H139949   5.125   3.018  13.069  1.9148 -0.6689 -0.3341
 6178TIP3    H239950   5.064   2.993  13.205  1.3654 -0.6133 -0.5672
 6179TIP3   OH239951   5.007   2.101  11.696  0.4811  0.3048  0.6857
 6179TIP3    H139952   5.101   2.084  11.703  0.6673  1.5612  1.4270
 6179TIP3    H239953   4.967   2.047  11.764  1.0019  2.2000  2.5751
 6180TIP3   OH239954   0.148   0.637  12.609 -0.4931  0.1823 -0.2226
 6180TIP3    H139955   0.078   0.574  12.624  0.7407 -0.7632  1.9552
 6180TIP3    H239956   0.104   0.722  12.607 -1.7200 -0.3933  1.0864
 6181TIP3   OH239957   0.327   3.492  12.867  0.2033 -0.1469 -0.9394
 6181TIP3    H139958   0.362   3.437  12.796  1.3101  0.1202 -0.6188
 6181TIP3    H239959   0.312   3.430  12.938 -1.0873 -0.4461 -1.4534
 6182TIP3   OH239960   5.231   5.801  12.980  0.1454 -0.1833 -0.3687
 6182TIP3    H139961   5.138   5.808  12.959 -0.0304  0.8188  0.6095
 6182TIP3    H239962   5.276   5.833  12.902 -0.3987  1.1109 -0.1770
 6183TIP3   OH239963   6.399   2.951  14.985  0.2744  0.3358 -0.2725
 6183TIP3    H139964   6.318   2.981  15.025  0.6392  0.9414  0.0130
 6183TIP3    H239965   6.397   2.988  14.897  0.3868  0.5916 -0.1646
 6184TIP3   OH239966   6.497   7.128  12.245  0.2310  0.2567  0.3346
 6184TIP3    H139967   6.471   7.040  12.271 -0.6180 -0.1623 -1.7271
 6184TIP3    H239968   6.449   7.186  12.304  0.9326 -0.6030  1.8331
 6185TIP3   OH239969   2.178   0.014   1.520 -0.3103  0.2015  0.0504
 6185TIP3    H139970   2.111   0.046   1.459  2.0190  0.0984 -2.7796
 6185TIP3    H239971   2.212   0.093   1.562  2.2850  1.2416 -3.5561
 6186TIP3   OH239972   6.333   5.257  10.054 -0.0143  0.4783  0.2940
 6186TIP3    H139973   6.361   5.316  10.123 -1.5606  0.7667  0.7165
 6186TIP3    H239974   6.388   5.280   9.978  1.1993  0.6452  1.1965
 6187TIP3   OH239975   2.135   2.174  12.762 -0.1748 -0.3010  0.3389
 6187TIP3    H139976   2.174   2.129  12.687 -0.8217  0.5543 -0.5393
 6187TIP3    H239977   2.179   2.259  12.764 -1.8804  0.6352 -0.5971
 6188TIP3   OH239978   2.767   4.958  10.566 -0.3592 -0.0785  0.2489
 6188TIP3    H139979   2.798   4.878  10.525 -0.7242  0.2394 -0.6819
 6188TIP3    H239980   2.723   5.005  10.495 -0.1722  0.9288  0.7864
 6189TIP3   OH239981   3.060   5.145   9.316 -0.0797  0.5889 -0.1313
 6189TIP3    H139982   2.977   5.117   9.355 -0.6994 -0.6330 -2.1811
 6189TIP3    H239983   3.043   5.234   9.285  0.2014  1.3033  1.6175
 6190TIP3   OH239984   0.592   0.544  11.927  0.2241 -0.2429 -0.2981
 6190TIP3    H139985   0.655   0.520  11.859 -0.5934  0.9860 -1.5432
 6190TIP3    H239986   0.535   0.467  11.934  1.5624 -1.1995  0.5385
 6191TIP3   OH239987   5.810   6.243  11.856  0.2050 -0.6165 -0.1041
 6191TIP3    H139988   5.832   6.324  11.810  0.7663 -0.2509  0.7930
 6191TIP3    H239989   5.842   6.256  11.945  1.8826 -2.4802 -0.3630
 6192TIP3   OH239990   7.015   6.672  10.813 -0.3832  0.0896 -0.6188
 6192TIP3    H139991   7.091   6.614  10.805  0.4815  1.2576 -1.2286
 6192TIP3    H239992   6.940   6.615  10.801  0.1447 -1.7680  3.1680
 6193TIP3   OH239993   6.666   4.386  10.364  0.4266  0.5572 -0.0370
 6193TIP3    H139994   6.677   4.348  10.277 -1.2580  1.2636 -0.5948
 6193TIP3    H239995   6.623   4.318  10.416  0.0467  0.6644 -0.2063
 6194TIP3   OH239996   4.312   2.674  13.564 -0.1177  0.1689 -0.3997
 6194TIP3    H139997   4.303   2.582  13.539 -1.6314  0.1884 -0.0553
 6194TIP3    H239998   4.284   2.677  13.655 -1.3190  1.1479 -0.7735
 6195TIP3   OH239999   1.263   0.642   0.067 -0.1490  0.1977  0.2379
 6195TIP3    H140000   1.307   0.700   0.006  0.0048 -0.6519 -0.4912
 6195TIP3    H240001   1.329   0.621   0.133 -0.0611  0.4794  0.2375
 6196TIP3   OH240002   2.750   4.404  12.475  0.9368  0.0969 -0.5227
 6196TIP3    H140003   2.807   4.339  12.435 -1.2612 -2.6030  0.4754
 6196TIP3    H240004   2.781   4.411  12.565  1.0117  0.2607 -0.5602
 6197TIP3   OH240005   3.164   2.410   1.546  0.3131 -0.3695  0.7999
 6197TIP3    H140006   3.091   2.404   1.607 -0.5383  0.2292 -0.1242
 6197TIP3    H240007   3.232   2.458   1.593 -1.1898  2.1846  0.5401
 6198TIP3   OH240008   5.192   2.792  10.180  0.6365 -0.1509 -0.2377
 6198TIP3    H140009   5.233   2.767  10.263  0.8013  1.1356  0.0842
 6198TIP3    H240010   5.101   2.807  10.202  0.8688  1.1237 -0.0710
 6199TIP3   OH240011   5.786   6.078  10.710 -0.1966 -0.2225 -0.3913
 6199TIP3    H140012   5.749   6.107  10.793  0.2184 -0.2771 -0.1812
 6199TIP3    H240013   5.754   5.988  10.699 -1.5604  0.3270 -1.0916
 6200TIP3   OH240014   3.304   3.007   5.358  0.3603 -0.1208  0.1342
 6200TIP3    H140015   3.222   3.014   5.407  0.2862 -0.1182  0.0104
 6200TIP3    H240016   3.368   2.976   5.422  0.5914  1.2476  0.5882
 6201TIP3   OH240017   6.939   6.062  11.725  0.2121  0.0078  0.4310
 6201TIP3    H140018   6.863   6.113  11.698 -0.9106 -1.7739  0.1217
 6201TIP3    H240019   6.962   6.097  11.811 -1.6119 -0.1399  0.9993
 6202TIP3   OH240020   3.819   5.355   9.529 -0.2029 -0.0933  0.5867
 6202TIP3    H140021   3.882   5.408   9.578 -0.8663 -0.0851  1.4514
 6202TIP3    H240022   3.819   5.393   9.441 -0.3998  1.1341  1.0978
 6203TIP3   OH240023   6.910   0.546  13.525  0.2049  0.3522  0.0207
 6203TIP3    H140024   6.976   0.533  13.456  0.6935  0.8693  0.3873
 6203TIP3    H240025   6.918   0.638  13.549 -1.0030  0.5497 -0.2759
 6204TIP3   OH240026   5.432   3.880   9.605 -0.3331  0.1828 -0.0460
 6204TIP3    H140027   5.442   3.842   9.517 -0.5828  0.1081 -0.0408
 6204TIP3    H240028   5.513   3.929   9.618 -1.3882  2.4593 -1.4199
 6205TIP3   OH240029   2.058   6.582  13.378 -0.0486  0.5280 -0.1767
 6205TIP3    H140030   1.996   6.519  13.414  0.9741  0.4522  1.5604
 6205TIP3    H240031   2.059   6.564  13.284 -1.3874 -0.5626 -0.0165
 6206TIP3   OH240032   6.347   3.648  12.152  0.3188 -0.0521  0.1029
 6206TIP3    H140033   6.369   3.648  12.245  1.2422  0.7115 -0.0924
 6206TIP3    H240034   6.384   3.566  12.119  1.0330  0.2315  0.1868
 6207TIP3   OH240035   3.269   2.935  11.867  0.2689 -0.0231 -0.0061
 6207TIP3    H140036   3.361   2.964  11.871  0.5152 -0.6601 -0.7317
 6207TIP3    H240037   3.233   2.959  11.952  0.3194  2.7903 -0.6818
 6208TIP3   OH240038   3.850   0.690  11.544  0.0146  0.2710 -0.1514
 6208TIP3    H140039   3.770   0.723  11.502  1.3341  1.1608 -2.0713
 6208TIP3    H240040   3.921   0.738  11.503  1.6740 -1.4142  0.5910
 6209TIP3   OH240041   6.574   7.092  12.885 -0.1608  0.1192  0.2826
 6209TIP3    H140042   6.617   7.177  12.890 -1.0263  0.5638  0.2525
 6209TIP3    H240043   6.486   7.107  12.917 -0.9289 -0.3486 -1.4706
 6210TIP3   OH240044   5.292   1.612  10.412  0.0570 -0.3486 -0.1845
 6210TIP3    H140045   5.200   1.621  10.439 -0.8819 -2.5917 -2.2770
 6210TIP3    H240046   5.307   1.685  10.352 -1.5563 -1.7569 -2.4973
 6211TIP3   OH240047   4.771   5.167  10.414  0.0759  0.1110  0.3934
 6211TIP3    H140048   4.763   5.122  10.331  1.3682  0.0171  0.3015
 6211TIP3    H240049   4.684   5.161  10.454 -0.0105 -1.6496 -0.0171
 6212TIP3   OH240050   5.251   6.360  11.193 -0.0611 -0.2563 -0.0157
 6212TIP3    H140051   5.311   6.341  11.265  0.9205 -1.8177 -1.1567
 6212TIP3    H240052   5.168   6.380  11.235  0.9096  0.5976  1.5757
 6213TIP3   OH240053   7.202   1.478  15.058  0.1374  0.7900 -0.6325
 6213TIP3    H140054   7.171   1.547  14.999 -0.4294 -0.6359 -2.0958
 6213TIP3    H240055   7.258   1.424  15.003  0.8451  0.2713  0.5701
 6214TIP3   OH240056   2.165   6.541   1.974  0.5772 -0.1080  0.0775
 6214TIP3    H140057   2.250   6.563   2.012  0.3813  0.3569  0.2417
 6214TIP3    H240058   2.158   6.595   1.896 -0.7718  1.9563  1.5486
 6215TIP3   OH240059   3.389   0.629  11.300 -0.1082 -0.5611  1.0044
 6215TIP3    H140060   3.303   0.597  11.275  0.0604  0.0995 -0.5258
 6215TIP3    H240061   3.386   0.723  11.284  0.9975 -0.5801  0.5848
 6216TIP3   OH240062   2.409   1.237  10.219 -0.4099 -0.0684 -0.8624
 6216TIP3    H140063   2.463   1.265  10.145  0.3881 -2.5369 -1.2952
 6216TIP3    H240064   2.362   1.159  10.187 -1.8563  0.1801  0.5109
 6217TIP3   OH240065   1.176   4.958   5.074 -0.4073 -0.7759 -0.3864
 6217TIP3    H140066   1.236   4.886   5.056 -0.1542 -0.8658  0.7502
 6217TIP3    H240067   1.142   4.983   4.988  0.6231 -1.2747 -0.9604
 6218TIP3   OH240068   1.699   6.759   4.379  0.3121 -0.4601  0.3764
 6218TIP3    H140069   1.660   6.675   4.356 -1.4795  0.4400  0.0266
 6218TIP3    H240070   1.642   6.795   4.447  1.3232  0.2846  0.8673
 6219TIP3   OH240071   6.944   5.740  13.290 -0.6513 -0.3890  0.1509
 6219TIP3    H140072   7.020   5.791  13.264 -3.2139  3.8660  0.0481
 6219TIP3    H240073   6.965   5.710  13.378  1.4303 -0.1483 -0.1994
 6220TIP3   OH240074   2.737   0.586  14.512 -0.0003  0.2829  0.1088
 6220TIP3    H140075   2.664   0.643  14.490  0.9573  1.2511 -0.6207
 6220TIP3    H240076   2.701   0.497  14.502 -1.3859  0.7132  0.8749
 6221TIP3   OH240077   4.241   3.209  15.282 -0.1553 -0.4357 -0.3456
 6221TIP3    H140078   4.260   3.285  15.336 -2.4841  0.4110 -0.6152
 6221TIP3    H240079   4.265   3.236  15.193 -0.0010 -0.4111 -0.2970
 6222TIP3   OH240080   3.492   1.594  12.935  0.0748 -0.0837  0.3577
 6222TIP3    H140081   3.397   1.585  12.929 -0.1373  1.8076  0.2586
 6222TIP3    H240082   3.523   1.585  12.845 -0.2585  1.2883  0.0742
 6223TIP3   OH240083   5.784   3.651  12.945 -0.2403 -0.0346  0.1404
 6223TIP3    H140084   5.732   3.679  12.869 -0.5266 -0.5107  0.1529
 6223TIP3    H240085   5.835   3.577  12.913 -0.7630 -0.5807  0.5484
 6224TIP3   OH240086   2.601   3.748  13.156 -0.1269  0.1569 -0.2780
 6224TIP3    H140087   2.673   3.810  13.159  1.3307 -1.4651  0.1159
 6224TIP3    H240088   2.524   3.799  13.182  1.0465  1.7165  0.3033
 6225TIP3   OH240089   3.638   2.787  10.595 -0.1247  0.1717 -0.4735
 6225TIP3    H140090   3.589   2.784  10.513 -1.2352  0.1402  0.1625
 6225TIP3    H240091   3.583   2.840  10.653  1.6578  2.0205 -0.3792
 6226TIP3   OH240092   2.912   5.850  12.958  0.2986 -0.0383  0.9815
 6226TIP3    H140093   2.989   5.807  12.995  0.4687  0.5538  1.3379
 6226TIP3    H240094   2.848   5.780  12.947  1.6388 -0.9831 -1.4556
 6227TIP3   OH240095   0.305   4.536  11.042 -1.0031  0.5496  0.2250
 6227TIP3    H140096   0.358   4.616  11.037 -0.2799  0.1111  0.6911
 6227TIP3    H240097   0.233   4.551  10.981 -1.8670  2.2899  1.5890
 6228TIP3   OH240098   4.156   1.513  10.750  0.0638 -0.6560 -0.0299
 6228TIP3    H140099   4.106   1.466  10.816 -0.3344 -0.3317 -0.0969
 6228TIP3    H240100   4.100   1.514  10.673 -0.2796  0.6098  0.2077
 6229TIP3   OH240101   1.108   3.497   9.972 -0.3824  0.4667 -0.4685
 6229TIP3    H140102   1.071   3.558   9.908  1.1654  0.9875 -0.9037
 6229TIP3    H240103   1.200   3.491   9.948 -0.5087 -2.1670 -0.5316
 6230TIP3   OH240104   1.306   4.110   0.343  0.2174  0.5042  0.2783
 6230TIP3    H140105   1.356   4.038   0.305  0.4469  1.4133 -1.2524
 6230TIP3    H240106   1.350   4.189   0.312 -0.4340  1.3146  1.3423
 6231TIP3   OH240107   2.678   1.537  14.161 -0.3284  0.5588 -0.0743
 6231TIP3    H140108   2.600   1.505  14.116 -0.3119  2.3831 -1.4995
 6231TIP3    H240109   2.650   1.548  14.252 -0.9219 -1.3516  0.0199
 6232TIP3   OH240110   0.328   2.035  12.115  0.1724 -0.4198 -0.9578
 6232TIP3    H140111   0.410   2.075  12.144  0.8905 -1.4688 -1.5071
 6232TIP3    H240112   0.297   1.986  12.190 -0.9056  1.3993 -0.1527
 6233TIP3   OH240113   4.144   5.301   9.891  0.1948  0.2172  0.0789
 6233TIP3    H140114   4.090   5.294   9.970 -0.5040  0.5913 -0.3646
 6233TIP3    H240115   4.153   5.211   9.860 -0.5514  0.1992 -0.0963
 6234TIP3   OH240116   3.035   0.867   0.607  0.0721  0.3390  0.1071
 6234TIP3    H140117   2.993   0.794   0.653 -0.0760  0.1973 -0.2527
 6234TIP3    H240118   3.110   0.828   0.563 -1.5297 -0.1783 -2.3748
 6235TIP3   OH240119   2.214   2.608   9.511  0.3858 -0.2654 -0.2179
 6235TIP3    H140120   2.272   2.660   9.567 -0.4200  1.1191 -0.6324
 6235TIP3    H240121   2.234   2.517   9.534  1.8850  0.2095  0.4653
 6236TIP3   OH240122   4.222   4.265  12.313  0.0503  0.1474  0.6121
 6236TIP3    H140123   4.254   4.194  12.258 -1.1896  1.0539 -1.4162
 6236TIP3    H240124   4.270   4.342  12.283 -0.3682  0.5888  1.0615
 6237TIP3   OH240125   0.002   4.197   3.213  0.2712 -0.1181  0.3631
 6237TIP3    H140126   0.028   4.257   3.282 -1.1598  0.1121  0.7285
 6237TIP3    H240127   0.009   4.110   3.253 -0.8187  0.0291  0.9180
 6238TIP3   OH240128   1.065   1.730   4.042  0.1283  0.5427  0.0629
 6238TIP3    H140129   1.133   1.786   4.004 -0.4062  1.6693  0.7173
 6238TIP3    H240130   1.113   1.657   4.081  0.8750  0.7336 -0.4791
 6239TIP3   OH240131   1.876   5.449   9.779  0.0014 -0.3572 -0.1187
 6239TIP3    H140132   1.927   5.514   9.731  0.6318 -0.8292 -0.0918
 6239TIP3    H240133   1.933   5.422   9.851 -0.2762 -0.9123 -0.1050
 6240TIP3   OH240134   3.246   6.080  14.549 -0.3967  0.2032  0.0110
 6240TIP3    H140135   3.170   6.126  14.585 -1.1241 -1.7697  1.1557
 6240TIP3    H240136   3.305   6.069  14.624 -0.1673 -0.5654 -0.2710
 6241TIP3   OH240137   4.411   6.067  12.301  0.0085 -0.0129 -0.2211
 6241TIP3    H140138   4.327   6.024  12.313  0.6654 -0.8681  1.7040
 6241TIP3    H240139   4.442   6.038  12.215 -1.6952  0.4394 -1.0225
 6242TIP3   OH240140   2.968   1.538   0.970  0.3275 -0.4258  0.0969
 6242TIP3    H140141   2.882   1.521   1.008 -0.4351  2.0712 -0.2719
 6242TIP3    H240142   3.005   1.452   0.953 -1.0760 -1.5968  2.4744
 6243TIP3   OH240143   5.660   0.688   9.791  0.1368 -0.0702  0.2474
 6243TIP3    H140144   5.582   0.720   9.746  1.1498  1.0552 -0.7884
 6243TIP3    H240145   5.654   0.593   9.787  0.3935 -0.0529 -2.7389
 6244TIP3   OH240146   3.356   2.767  13.230  0.6197 -0.4207  0.6306
 6244TIP3    H140147   3.304   2.822  13.171 -0.7873 -0.2884  1.9263
 6244TIP3    H240148   3.442   2.762  13.189  0.2708  1.3116 -0.4045
 6245TIP3   OH240149   2.989   4.382  11.088 -0.4640 -0.3781  0.3081
 6245TIP3    H140150   3.054   4.335  11.141  0.9253  1.3145  0.2163
 6245TIP3    H240151   3.015   4.366  10.998 -0.1123  0.3567  0.2714
 6246TIP3   OH240152   5.675   0.893   1.174 -0.0120 -0.7614 -0.0593
 6246TIP3    H140153   5.656   0.827   1.241  1.6994 -0.3675  0.8704
 6246TIP3    H240154   5.657   0.848   1.091 -0.6885 -1.7739  0.6049
 6247TIP3   OH240155   1.378   0.304  14.625 -0.1371 -0.0789 -0.2121
 6247TIP3    H140156   1.290   0.273  14.644 -0.6461 -0.1207 -2.3593
 6247TIP3    H240157   1.435   0.229  14.644 -0.7398 -0.5382 -0.1909
 6248TIP3   OH240158   2.692   4.671   1.340 -0.1908  0.1371  0.0652
 6248TIP3    H140159   2.599   4.688   1.352 -0.4244 -1.2846  0.4216
 6248TIP3    H240160   2.717   4.618   1.415  0.1026 -2.3508 -1.6807
 6249TIP3   OH240161   1.151   2.449  11.643  0.1229  0.0059  0.5440
 6249TIP3    H140162   1.234   2.402  11.644 -0.4027 -1.0411 -0.7875
 6249TIP3    H240163   1.128   2.461  11.735  1.1520 -0.7790  0.9179
 6250TIP3   OH240164   3.561   1.341   0.071 -0.1450 -0.1614 -0.1704
 6250TIP3    H140165   3.564   1.418   0.014  0.7956  0.0973  0.1960
 6250TIP3    H240166   3.629   1.283   0.036  0.7251  0.1708  0.8865
 6251TIP3   OH240167   1.036   4.506  13.022  0.1029  0.3190 -0.7809
 6251TIP3    H140168   1.101   4.565  12.984  2.4704 -0.0372  2.2694
 6251TIP3    H240169   0.973   4.563  13.065  0.1782  0.6587 -1.1157
 6252TIP3   OH240170   3.892   6.558  12.898  0.2888 -0.4916 -0.8287
 6252TIP3    H140171   3.915   6.525  12.811  0.3709 -1.9020 -0.2910
 6252TIP3    H240172   3.976   6.571  12.942  0.2256 -0.2784 -0.7670
 6253TIP3   OH240173   1.313   1.066  10.429 -0.3539  0.8682 -0.1060
 6253TIP3    H140174   1.295   0.972  10.429  3.1637  0.0223 -1.8095
 6253TIP3    H240175   1.393   1.075  10.479  0.2321  2.7254 -1.2627
 6254TIP3   OH240176   2.478   6.244  13.219  0.5671  0.1206 -0.1055
 6254TIP3    H140177   2.433   6.288  13.147 -1.6366  0.4651  1.3902
 6254TIP3    H240178   2.533   6.312  13.258 -1.1494  1.0503  0.8344
 6255TIP3   OH240179   7.197   6.649  10.275 -0.0406  0.7528  0.0419
 6255TIP3    H140180   7.232   6.720  10.221  1.5789  0.0019  0.0517
 6255TIP3    H240181   7.169   6.692  10.356  0.8267  1.3953  0.0130
 6256TIP3   OH240182   5.272   0.801  14.800 -0.1610  0.2386  0.6034
 6256TIP3    H140183   5.295   0.723  14.749 -1.7589 -0.6432  1.1715
 6256TIP3    H240184   5.177   0.799  14.806 -0.3384  2.7271 -0.0914
 6257TIP3   OH240185   3.206   2.609   0.097 -0.6400 -0.0418 -0.3600
 6257TIP3    H140186   3.152   2.566   0.031 -1.9875 -1.4956  1.5747
 6257TIP3    H240187   3.159   2.595   0.179  1.9517 -0.0704  1.2342
 6258TIP3   OH240188   4.932   3.039   0.270 -0.5052 -0.2080  0.3155
 6258TIP3    H140189   5.011   3.094   0.264  0.3328 -1.5227 -2.3280
 6258TIP3    H240190   4.944   2.990   0.351  1.2136 -0.0545  0.2055
 6259TIP3   OH240191   4.150   3.378  10.735  0.4806 -0.6688 -0.0105
 6259TIP3    H140192   4.065   3.386  10.778  0.2285 -1.0929 -0.4235
 6259TIP3    H240193   4.173   3.286  10.746  1.1583 -0.4395  0.5965
 6260TIP3   OH240194   0.044   5.463  10.772  0.1053 -0.0888  0.1518
 6260TIP3    H140195  -0.035   5.409  10.774  0.2879 -0.3433  0.6996
 6260TIP3    H240196   0.116   5.402  10.788  0.4328  0.1115 -0.5480
 6261TIP3   OH240197   3.794   3.042  10.436  0.4403 -0.3439  0.8731
 6261TIP3    H140198   3.869   3.094  10.406 -2.2491  2.7723 -1.2552
 6261TIP3    H240199   3.769   2.990  10.360 -0.9190  0.5008  0.7105
 6262TIP3   OH240200   3.914   6.824  11.782 -0.3243  0.0445 -0.3248
 6262TIP3    H140201   3.995   6.873  11.799 -0.3957  0.2241 -0.4908
 6262TIP3    H240202   3.864   6.831  11.863  0.1411 -0.6894  0.0372
 6263TIP3   OH240203   1.096   5.643  11.521 -0.2518  0.6499 -0.0831
 6263TIP3    H140204   1.013   5.595  11.518 -0.0392  0.3216 -1.6229
 6263TIP3    H240205   1.163   5.575  11.524 -0.0002  0.9046  2.5975
 6264TIP3   OH240206   1.643   0.992  15.171  0.2280 -0.1087 -0.3610
 6264TIP3    H140207   1.665   0.959  15.084  1.5397 -1.8253  0.5592
 6264TIP3    H240208   1.598   0.919  15.214 -0.2007  0.6283  0.4699
 6265TIP3   OH240209   1.830   0.400  15.107  0.0004 -0.3112  0.1623
 6265TIP3    H140210   1.799   0.436  15.024  0.2297 -0.0941  0.1684
 6265TIP3    H240211   1.906   0.453  15.129 -1.1838  0.9486  1.4829
 6266TIP3   OH240212   3.108   3.255  11.848 -0.2508 -0.3484 -0.5408
 6266TIP3    H140213   3.195   3.268  11.885  0.0649 -1.0216 -1.0403
 6266TIP3    H240214   3.121   3.196  11.774 -1.4194 -2.4618  0.8313
 6267TIP3   OH240215   0.901   2.078  14.587  0.2844 -0.0946  0.0995
 6267TIP3    H140216   0.974   2.138  14.567 -0.7882  0.7132 -1.6216
 6267TIP3    H240217   0.889   2.085  14.681  0.0343  2.6630 -0.0646
 6268TIP3   OH240218   1.911   2.234  13.241 -0.3077  0.2530 -0.0258
 6268TIP3    H140219   1.940   2.321  13.213 -1.4087  1.0652  1.1910
 6268TIP3    H240220   1.895   2.186  13.160  2.4107  0.3931 -0.7410
 6269TIP3   OH240221   1.317   2.895  13.732  0.3884  0.4135 -0.3578
 6269TIP3    H140222   1.310   2.943  13.649  1.7189  2.5450  0.6744
 6269TIP3    H240223   1.403   2.854  13.729  0.0130 -0.3905 -0.4354
 6270TIP3   OH240224   0.316   1.177  11.387 -0.2825  0.4290  0.6168
 6270TIP3    H140225   0.345   1.191  11.477 -0.6099  2.1521  0.4793
 6270TIP3    H240226   0.235   1.127  11.395  0.8008 -1.3734  1.1413
 6271TIP3   OH240227   1.803   1.987  13.925 -0.1694 -0.1342 -0.4716
 6271TIP3    H140228   1.766   1.907  13.962 -0.8583  0.1730 -0.4971
 6271TIP3    H240229   1.874   1.956  13.868  1.5576 -0.5955  1.7494
 6272TIP3   OH240230   3.423   6.451   2.993  0.1694 -0.4818 -0.3332
 6272TIP3    H140231   3.440   6.518   3.059 -1.8309 -1.6562  1.5266
 6272TIP3    H240232   3.495   6.388   3.004 -0.7273 -1.2576  1.6687
 6273TIP3   OH240233   4.677   6.678  11.901  0.3704 -0.1291 -0.4264
 6273TIP3    H140234   4.671   6.585  11.882 -1.6844 -0.6838  2.2376
 6273TIP3    H240235   4.739   6.684  11.974 -1.6991  0.0809  1.4360
 6274TIP3   OH240236   4.244   5.107   0.614  0.0703  0.2178 -0.1691
 6274TIP3    H140237   4.176   5.051   0.577  1.4114 -0.8865 -1.0310
 6274TIP3    H240238   4.325   5.075   0.576  1.0412  1.8186  0.4701
 6275TIP3   OH240239   4.278   6.087  11.610  0.4002 -0.0956  0.2466
 6275TIP3    H140240   4.315   6.113  11.525  1.3592  0.6323  0.8589
 6275TIP3    H240241   4.349   6.038  11.652  0.1051 -0.0275  0.8261
 6276TIP3   OH240242   4.188   4.490  10.962  0.1705 -0.0747 -0.0329
 6276TIP3    H140243   4.246   4.545  10.910 -1.3333  2.2502  0.5806
 6276TIP3    H240244   4.153   4.426  10.900  1.3482  0.1620 -0.9727
 6277TIP3   OH240245   6.308   0.280  12.981 -0.3054 -0.0180 -0.2295
 6277TIP3    H140246   6.278   0.204  13.030 -0.2360 -0.7458 -1.2727
 6277TIP3    H240247   6.387   0.308  13.027 -1.3792  0.6357  1.3052
 6278TIP3   OH240248   3.424   3.388  11.686  0.5424 -0.9971  0.0951
 6278TIP3    H140249   3.404   3.383  11.593  2.9228 -0.3578 -0.5394
 6278TIP3    H240250   3.484   3.463  11.694  1.8580 -2.1393  1.8132
 6279TIP3   OH240251   0.227   3.752  11.515 -0.1112  0.1147  0.1237
 6279TIP3    H140252   0.216   3.783  11.425 -0.2325 -0.5261 -0.0871
 6279TIP3    H240253   0.283   3.675  11.508  0.0574  0.1832  0.6238
 6280TIP3   OH240254   1.013   5.745  12.156  0.3586 -0.1461  0.3346
 6280TIP3    H140255   1.020   5.841  12.162  0.8942 -0.0535 -1.3667
 6280TIP3    H240256   0.968   5.729  12.073  0.5315 -1.3864  0.4650
 6281TIP3   OH240257   2.717   4.968  11.078 -0.2248 -0.0987  0.0737
 6281TIP3    H140258   2.782   4.902  11.055  2.3756  2.4708 -0.5706
 6281TIP3    H240259   2.654   4.966  11.006  0.5676 -0.9334 -0.6196
 6282TIP3   OH240260   1.695   5.652  13.721 -0.4450 -0.0812 -0.9690
 6282TIP3    H140261   1.651   5.733  13.748 -0.1751 -0.1171 -0.4002
 6282TIP3    H240262   1.755   5.679  13.651  0.6723  0.4757  0.1637
 6283TIP3   OH240263   3.392   1.923  10.626 -0.4466 -0.6508  0.1118
 6283TIP3    H140264   3.447   2.002  10.628 -1.8443  0.4143 -0.9073
 6283TIP3    H240265   3.441   1.861  10.573  0.6512 -0.4468  0.8708
 6284TIP3   OH240266   4.751   4.219  14.203 -1.1239 -0.2891  0.1357
 6284TIP3    H140267   4.665   4.197  14.237 -1.7386  1.6242 -0.0481
 6284TIP3    H240268   4.799   4.136  14.201 -2.7883 -1.2973  0.6997
 6285TIP3   OH240269   2.357   1.062   0.781 -0.5830 -0.2897  0.2579
 6285TIP3    H140270   2.305   1.088   0.705 -0.1920  0.3030  0.1768
 6285TIP3    H240271   2.374   1.144   0.827  1.3030 -0.2469 -0.3909
 6286TIP3   OH240272   0.355   3.795   9.707  0.4815  0.1422 -0.3608
 6286TIP3    H140273   0.312   3.829   9.629  1.6665  2.7885  0.0350
 6286TIP3    H240274   0.412   3.725   9.674 -0.7062 -0.3361 -1.4910
 6287TIP3   OH240275   0.524   1.753  13.315  0.3702  0.0141 -0.1226
 6287TIP3    H140276   0.602   1.741  13.370 -0.4147 -0.8360  0.8377
 6287TIP3    H240277   0.452   1.717  13.366 -0.3768 -0.9746 -1.7810
 6288TIP3   OH240278   5.032   0.837  15.217  0.1059 -0.3719 -0.5717
 6288TIP3    H140279   5.004   0.747  15.236 -0.3099 -0.1467 -0.0827
 6288TIP3    H240280   4.989   0.858  15.134  0.2722 -0.6537 -0.7293
 6289TIP3   OH240281   1.612   4.034  13.764  0.0795  0.1396 -0.3431
 6289TIP3    H140282   1.603   4.059  13.856  0.1451 -1.0849  0.0190
 6289TIP3    H240283   1.646   3.944  13.767  0.5246  0.2460 -1.5675
 6290TIP3   OH240284   2.065   5.411  12.965  0.3528  0.0886  0.3356
 6290TIP3    H140285   2.065   5.372  12.878  0.4206  1.7172 -0.4177
 6290TIP3    H240286   2.150   5.454  12.973 -0.9019  2.8498 -0.1862
 6291TIP3   OH240287   1.121   6.213   1.254  0.0953  0.1140 -0.3952
 6291TIP3    H140288   1.109   6.119   1.245 -1.1712  0.3224 -1.1779
 6291TIP3    H240289   1.104   6.248   1.166  0.0976  1.1114 -0.0207
 6292TIP3   OH240290   0.158   0.013  12.030  1.0048  0.0146  0.2038
 6292TIP3    H140291   0.200   0.099  12.021 -0.6358  0.9766  1.1524
 6292TIP3    H240292   0.113  -0.001  11.947  0.7266  0.4137  0.2803
 6293TIP3   OH240293   7.123   6.583  11.637  0.2054  0.1934 -0.0221
 6293TIP3    H140294   7.115   6.662  11.690  2.1530  0.6055 -0.2490
 6293TIP3    H240295   7.089   6.607  11.551  2.4941  1.4475 -0.6515
 6294TIP3   OH240296   4.015   2.666   1.166  0.0345  0.1478 -0.0971
 6294TIP3    H140297   4.034   2.647   1.074  0.8280 -2.2160  0.4778
 6294TIP3    H240298   3.970   2.587   1.198 -0.2614  0.9291  1.5286
 6295TIP3   OH240299   4.801   5.018  13.330  0.7506  0.1601  0.1534
 6295TIP3    H140300   4.752   4.968  13.265  1.4862 -0.6013  0.1613
 6295TIP3    H240301   4.816   4.956  13.401 -0.5403  1.1422  1.3344
 6296TIP3   OH240302   3.652   6.161  12.731  0.5201  0.4505 -0.3191
 6296TIP3    H140303   3.659   6.085  12.789 -0.7904 -0.5919 -1.4510
 6296TIP3    H240304   3.739   6.202  12.733  1.5765 -1.6803 -0.4861
 6297TIP3   OH240305   4.324   0.749  14.897  0.8803 -0.3161 -0.4371
 6297TIP3    H140306   4.252   0.744  14.836  0.4177  0.7097  0.0007
 6297TIP3    H240307   4.360   0.660  14.900 -1.1872 -1.1819  0.3380
 6298TIP3   OH240308   1.269   3.259  10.712  0.4173 -0.0246 -0.2387
 6298TIP3    H140309   1.193   3.226  10.760  1.3827  1.2459  2.3355
 6298TIP3    H240310   1.261   3.354  10.716  1.3640  0.1279 -1.3115
 6299TIP3   OH240311   3.330   3.145  15.026  0.2522  0.3167 -0.1190
 6299TIP3    H140312   3.415   3.107  15.049  0.3829 -0.0155 -1.1141
 6299TIP3    H240313   3.351   3.233  14.995  0.3214  0.0074 -0.9874
 6300TIP3   OH240314   1.840   1.859  13.254 -0.7827  0.0277 -1.0834
 6300TIP3    H140315   1.927   1.849  13.294 -1.4036  0.4533  0.4329
 6300TIP3    H240316   1.857   1.911  13.175  0.3075  0.4437 -0.6087
 6301TIP3   OH240317   6.604   2.461  10.856 -0.2623 -0.2009 -0.3222
 6301TIP3    H140318   6.579   2.553  10.848  0.1747 -0.0642 -0.1695
 6301TIP3    H240319   6.529   2.420  10.899 -1.9231 -0.6200 -3.3768
 6302TIP3   OH240320   2.289   0.198  12.983  0.5421 -0.4645  0.0407
 6302TIP3    H140321   2.237   0.269  12.945  0.5159  0.5174  1.7876
 6302TIP3    H240322   2.228   0.125  12.992  0.5835 -0.7879 -1.8347
 6303TIP3   OH240323   4.729   3.084  11.119  1.0393  0.1098  0.3234
 6303TIP3    H140324   4.662   3.128  11.172  1.0703  1.1231 -0.4397
 6303TIP3    H240325   4.809   3.133  11.137  1.3370 -0.3964  0.3772
 6304TIP3   OH240326   1.216   0.598  13.228 -0.9613  0.6929 -0.9121
 6304TIP3    H140327   1.236   0.572  13.139 -1.5591  0.2582 -0.9239
 6304TIP3    H240328   1.135   0.552  13.249  0.5972 -1.4265  0.8350
 6305TIP3   OH240329   3.675   0.075   1.390  0.0587  0.3262 -0.1513
 6305TIP3    H140330   3.740   0.120   1.335  0.5930 -0.7538 -0.4228
 6305TIP3    H240331   3.639   0.007   1.333 -0.2024 -0.0761  0.4899
 6306TIP3   OH240332   1.870   2.423  12.890  0.5838 -0.4021 -0.3153
 6306TIP3    H140333   1.869   2.397  12.982  1.4115  0.8913  0.0904
 6306TIP3    H240334   1.794   2.380  12.852  0.6873 -1.6013  0.7883
 6307TIP3   OH240335   6.881   1.494  12.483  0.3238 -0.0846  0.1784
 6307TIP3    H140336   6.856   1.417  12.535 -1.7053 -1.0416 -2.0176
 6307TIP3    H240337   6.847   1.568  12.532  0.0896 -0.7939  1.1161
 6308TIP3   OH240338   3.691   2.289  14.176 -0.3672 -0.1562  0.0877
 6308TIP3    H140339   3.651   2.210  14.212 -0.6014  0.8365  2.1402
 6308TIP3    H240340   3.771   2.258  14.133 -0.1633 -1.4506  1.3345
 6309TIP3   OH240341   3.561   5.835  14.950 -0.2245 -0.1520  0.5341
 6309TIP3    H140342   3.515   5.832  15.034 -0.0325  0.3923  0.6645
 6309TIP3    H240343   3.556   5.926  14.923 -1.3210 -0.5362 -0.6479
 6310TIP3   OH240344   1.078   6.956   1.552 -0.0792  0.2711  0.5994
 6310TIP3    H140345   1.102   6.929   1.640 -0.1854 -0.7871  0.3194
 6310TIP3    H240346   1.014   7.026   1.564  0.3971  0.5844  1.3506
 6311TIP3   OH240347   0.382   5.441   0.587 -0.3647 -0.4011  0.1946
 6311TIP3    H140348   0.425   5.390   0.655  0.8295 -1.3469 -1.2081
 6311TIP3    H240349   0.448   5.505   0.559 -0.4258 -0.7570 -0.8215
 6312TIP3   OH240350   1.911   2.741  11.157  0.3300  0.1248  0.1117
 6312TIP3    H140351   1.926   2.650  11.133  3.9233  0.8102 -0.8326
 6312TIP3    H240352   1.925   2.790  11.076 -1.8615  1.5520  0.5223
 6313TIP3   OH240353   4.831   1.850  13.181  0.2868 -0.2370 -0.0666
 6313TIP3    H140354   4.738   1.844  13.157 -0.5078  1.0468  2.3271
 6313TIP3    H240355   4.842   1.784  13.250  0.0476  2.2025  2.4755
 6314TIP3   OH240356   2.447   4.751   1.421  0.1658  0.7635 -0.0364
 6314TIP3    H140357   2.474   4.839   1.392 -1.2742  0.8156 -1.3550
 6314TIP3    H240358   2.437   4.760   1.515  2.3798  1.3427  0.2103
 6315TIP3   OH240359   0.183   3.471   0.136 -0.1841  0.0347 -0.7179
 6315TIP3    H140360   0.250   3.473   0.067 -1.0577 -0.6494 -1.6150
 6315TIP3    H240361   0.104   3.504   0.093 -0.5116  0.5393  0.2453
 6316TIP3   OH240362   3.110   2.981  12.819 -0.1109  0.0287 -0.0360
 6316TIP3    H140363   3.154   2.915  12.766 -1.5425 -1.4709  0.5417
 6316TIP3    H240364   3.124   2.953  12.909 -1.7609 -0.2247  0.1782
 6317TIP3   OH240365   1.259   2.663  10.984  0.1576  0.4294  0.0011
 6317TIP3    H140366   1.279   2.609  10.908  1.0461 -0.0909  0.5813
 6317TIP3    H240367   1.271   2.753  10.954 -0.7102  0.2861 -0.8031
 6318TIP3   OH240368   1.216   6.490  14.711  0.3110 -0.0412 -0.1946
 6318TIP3    H140369   1.273   6.479  14.635 -1.1609 -1.0388 -1.2037
 6318TIP3    H240370   1.174   6.575  14.697  0.8802  0.2989  0.1114
 6319TIP3   OH240371   0.868   4.441  10.342  0.8315  0.4724 -0.4754
 6319TIP3    H140372   0.841   4.520  10.297  1.1362  0.7888 -0.1173
 6319TIP3    H240373   0.786   4.395  10.362  0.6455  0.7607 -0.5693
 6320TIP3   OH240374   5.656   4.037  11.051 -0.4209  0.0793 -0.1504
 6320TIP3    H140375   5.692   4.052  10.964 -0.8144 -0.1497 -0.3544
 6320TIP3    H240376   5.691   4.109  11.105 -0.1667  0.2100 -0.4915
 6321TIP3   OH240377   6.390   3.659  10.517  0.6250 -0.8049 -0.1764
 6321TIP3    H140378   6.333   3.648  10.442  0.9391  1.0005 -0.7270
 6321TIP3    H240379   6.477   3.676  10.479  1.0659 -1.2099  0.6142
 6322TIP3   OH240380   4.811   5.650  13.702 -0.7918 -0.2458 -0.4749
 6322TIP3    H140381   4.768   5.582  13.651  0.2693 -0.8475 -0.6013
 6322TIP3    H240382   4.741   5.688  13.756 -1.4466 -1.2747 -0.5677
 6323TIP3   OH240383   0.914   6.258  14.276 -0.1332 -0.7924  0.5185
 6323TIP3    H140384   0.913   6.350  14.249  0.3619 -1.3929 -1.7656
 6323TIP3    H240385   0.979   6.254  14.346 -0.2399  0.5992  0.7280
 6324TIP3   OH240386   6.437   2.711  10.114  0.5764  0.4783 -0.8397
 6324TIP3    H140387   6.364   2.705  10.052 -0.1458  1.8805 -0.1853
 6324TIP3    H240388   6.515   2.699  10.061 -0.1091 -1.4820 -1.4938
 6325TIP3   OH240389   6.998   6.613  13.477  0.0888 -0.7790 -0.1652
 6325TIP3    H140390   7.068   6.635  13.416  1.2322 -1.1123  0.9783
 6325TIP3    H240391   6.991   6.518  13.472  0.9691 -0.9212  1.0231
 6326TIP3   OH240392   0.934   4.324  13.613 -0.8475 -0.3065 -0.0976
 6326TIP3    H140393   0.920   4.412  13.578  0.7310  0.6331  1.5124
 6326TIP3    H240394   0.883   4.267  13.554 -1.8764  1.6399 -1.1993
 6327TIP3   OH240395   2.113   5.133   0.510 -0.8050 -0.3484 -0.1643
 6327TIP3    H140396   2.105   5.196   0.438 -3.4680 -1.2740 -0.8042
 6327TIP3    H240397   2.190   5.081   0.488 -0.8291  0.1978 -1.7060
 6328TIP3   OH240398   5.265   5.589  13.574  0.6074 -0.9219  0.2403
 6328TIP3    H140399   5.278   5.638  13.493 -0.2325 -1.5499 -0.2872
 6328TIP3    H240400   5.348   5.598  13.620  0.8221  0.1261 -0.3098
 6329TIP3   OH240401   5.531   6.533  13.713 -0.1306 -0.5635  0.0097
 6329TIP3    H140402   5.575   6.463  13.761 -1.0532 -1.1294  0.0594
 6329TIP3    H240403   5.570   6.529  13.625  1.8029  0.6996  0.7477
 6330TIP3   OH240404   2.052   7.192  11.060  0.2392 -0.1305 -0.1121
 6330TIP3    H140405   2.078   7.180  11.152  1.5112  0.7565 -0.3232
 6330TIP3    H240406   2.119   7.147  11.010 -0.4128 -0.5497 -0.6254
 6331TIP3   OH240407   6.043   4.445  14.859  0.0430 -0.4494  0.1680
 6331TIP3    H140408   6.088   4.505  14.919  0.8055 -0.3446 -0.4902
 6331TIP3    H240409   6.114   4.395  14.819 -0.1326  1.5678 -2.9472
 6332TIP3   OH240410   3.529   1.031  13.619 -0.7465 -0.5268 -0.0476
 6332TIP3    H140411   3.507   1.116  13.657  0.0843 -0.2306 -0.2033
 6332TIP3    H240412   3.470   1.022  13.544 -2.5682 -1.2307  1.4167
 6333TIP3   OH240413   0.998   5.710   1.462 -0.7908  0.0348 -0.3578
 6333TIP3    H140414   0.922   5.654   1.446 -1.0894  0.8817 -2.1274
 6333TIP3    H240415   0.963   5.782   1.515 -1.2162  0.3445 -1.0406
 6334TIP3   OH240416   2.583   2.849  10.311 -0.2187  0.4733  0.1520
 6334TIP3    H140417   2.586   2.928  10.365  1.5799  0.1806  0.5605
 6334TIP3    H240418   2.650   2.864  10.243  0.9912 -1.1313  0.9204
 6335TIP3   OH240419   6.026   0.185  13.147  0.1905  0.4870  0.9223
 6335TIP3    H140420   5.984   0.270  13.163 -1.8993 -0.0892 -1.0992
 6335TIP3    H240421   6.000   0.132  13.222  0.6546  1.2712  1.6733
 6336TIP3   OH240422   1.121   6.827  13.162 -0.0131  0.1483 -0.7389
 6336TIP3    H140423   1.194   6.874  13.122  0.1646 -0.2176 -0.8389
 6336TIP3    H240424   1.162   6.767  13.224 -0.1603 -0.8624 -1.6101
 6337TIP3   OH240425   4.428   6.313  13.068 -0.3152  0.1742 -0.0476
 6337TIP3    H140426   4.447   6.221  13.049  0.2133  0.5291 -1.3090
 6337TIP3    H240427   4.395   6.349  12.986 -0.8426  1.0414  0.5210
 6338TIP3   OH240428   0.312   2.030  10.508  0.3064 -0.2615 -0.6029
 6338TIP3    H140429   0.251   1.983  10.451  0.7302 -1.2072 -0.2903
 6338TIP3    H240430   0.272   2.025  10.595 -0.3472  1.1926 -0.7809
 6339TIP3   OH240431   5.148   6.917   0.603  0.0977 -0.4287  0.0477
 6339TIP3    H140432   5.093   6.961   0.539 -0.2235  0.6284  1.0089
 6339TIP3    H240433   5.235   6.916   0.563  0.3520  2.0480  0.3739
 6340TIP3   OH240434   0.455   0.214   0.672  0.2453 -0.4840 -0.0999
 6340TIP3    H140435   0.479   0.249   0.758  0.1168 -2.5891  0.8564
 6340TIP3    H240436   0.359   0.211   0.674  0.1352  1.1160 -1.0653
 6341TIP3   OH240437   6.458   0.503   9.241 -0.0210 -0.1074  1.1036
 6341TIP3    H140438   6.493   0.560   9.173 -1.1907 -0.1871  0.4133
 6341TIP3    H240439   6.456   0.558   9.320  1.7749 -0.1536  1.2216
 6342TIP3   OH240440   4.999   6.004   0.122 -0.1571 -0.0367  0.3421
 6342TIP3    H140441   4.954   5.934   0.171 -1.1961  0.9759  0.8820
 6342TIP3    H240442   4.989   6.082   0.177  0.9285  0.5705 -0.2833
 6343TIP3   OH240443   3.357   6.456   1.086 -0.4959  0.0215  0.5824
 6343TIP3    H140444   3.378   6.377   1.036  2.0208  0.7842  0.2920
 6343TIP3    H240445   3.351   6.525   1.021 -3.0733  0.0905  0.7896
 6344TIP3   OH240446   4.169   4.558  11.843 -0.1226  0.2902 -0.0663
 6344TIP3    H140447   4.165   4.539  11.749  1.5189 -0.8540  0.0416
 6344TIP3    H240448   4.218   4.641  11.848  0.2504  0.0844 -0.2192
 6345TIP3   OH240449   1.945   2.818  10.743 -0.4567 -0.1110  0.2348
 6345TIP3    H140450   1.933   2.855  10.831 -0.7895  0.9526 -0.2511
 6345TIP3    H240451   1.918   2.887  10.683  2.2294  0.1285 -0.8085
 6346TIP3   OH240452   1.355   3.021   9.345 -0.5078 -0.3795 -0.5881
 6346TIP3    H140453   1.306   2.980   9.275  0.8981 -1.1964 -1.1401
 6346TIP3    H240454   1.444   3.028   9.311 -0.4128  1.9991 -0.0418
 6347TIP3   OH240455   1.261   1.567  14.249 -0.6354  0.4554  0.2099
 6347TIP3    H140456   1.247   1.661  14.263  0.2110  1.1126 -2.7063
 6347TIP3    H240457   1.355   1.554  14.264 -0.1030  0.7986 -2.3527
 6348TIP3   OH240458   3.808   5.263  10.720 -0.3365 -0.1343 -0.1175
 6348TIP3    H140459   3.768   5.349  10.731 -0.4590 -0.3522  1.2326
 6348TIP3    H240460   3.815   5.253  10.625 -2.2738  0.4775 -0.3791
 6349TIP3   OH240461   1.405   6.056   9.975  0.3992  0.5763  0.3498
 6349TIP3    H140462   1.330   6.081  10.029  1.0166  0.5079  1.2630
 6349TIP3    H240463   1.475   6.116  10.001  1.6017 -1.3599  1.8605
 6350TIP3   OH240464   1.225   4.005   0.884  0.0228  0.5449 -0.3708
 6350TIP3    H140465   1.310   3.974   0.917 -0.0387  0.4531 -0.2994
 6350TIP3    H240466   1.177   3.925   0.863 -1.7750  0.3098  3.7656
 6351TIP3   OH240467   3.836   2.634   0.749 -0.5098 -0.0413  0.0077
 6351TIP3    H140468   3.773   2.641   0.821  2.1385  0.4368  2.4631
 6351TIP3    H240469   3.808   2.699   0.685 -1.6039  1.2660  1.7528
 6352TIP3   OH240470   2.838   5.262   1.832  0.4929  0.0674 -0.3365
 6352TIP3    H140471   2.912   5.289   1.887  0.3651  1.0945 -0.6461
 6352TIP3    H240472   2.872   5.266   1.743 -0.6082  3.2249 -0.7581
 6353TIP3   OH240473   4.486   6.148  10.640  0.1264  0.1584 -0.5209
 6353TIP3    H140474   4.392   6.152  10.626  0.2102  2.5571 -0.7462
 6353TIP3    H240475   4.523   6.133  10.553 -0.0183 -0.9552 -0.4081
 6354TIP3   OH240476   0.775   2.072  10.381 -0.7838 -0.3083  0.1566
 6354TIP3    H140477   0.751   2.153  10.336 -2.1588 -0.2681  0.9189
 6354TIP3    H240478   0.834   2.101  10.451  0.1196 -0.1904 -0.6371
 6355TIP3   OH240479   5.039   6.644  10.757  0.0540  0.0380 -0.2241
 6355TIP3    H140480   4.994   6.654  10.673  0.2051 -0.2157 -0.3370
 6355TIP3    H240481   5.130   6.667  10.738 -0.2188  1.5787  0.2429
 6356TIP3   OH240482   3.114   0.702   9.420 -0.3106 -0.4030 -0.0589
 6356TIP3    H140483   3.060   0.777   9.444  1.3574  0.5564  0.7687
 6356TIP3    H240484   3.096   0.636   9.488  0.8725  0.5765  1.2461
 6357TIP3   OH240485   2.372   3.522  11.426 -0.1330  0.4870 -0.0517
 6357TIP3    H140486   2.361   3.564  11.340  1.4908 -0.2938 -0.6747
 6357TIP3    H240487   2.285   3.486  11.446 -1.4975  3.6080  0.2843
 6358TIP3   OH240488   1.318   2.324   0.358 -0.4306 -0.2890  0.7537
 6358TIP3    H140489   1.378   2.291   0.424 -1.9487 -1.0583  1.8175
 6358TIP3    H240490   1.284   2.246   0.315  0.3215  0.1901 -0.7762
 6359TIP3   OH240491   1.497   5.890   2.300  0.0318 -0.0151 -0.3027
 6359TIP3    H140492   1.456   5.971   2.331 -1.3689 -1.0643  0.7016
 6359TIP3    H240493   1.550   5.917   2.225  2.0073  2.3048  1.7738
 6360TIP3   OH240494   6.903   1.013  13.118  0.0728  0.6293  0.5761
 6360TIP3    H140495   6.855   1.079  13.068  0.9974  1.3153  0.5591
 6360TIP3    H240496   6.873   1.025  13.208 -0.4257  0.4565  0.4379
 6361TIP3   OH240497   1.507   2.463   0.220 -0.1193  0.4775  0.1638
 6361TIP3    H140498   1.454   2.443   0.297  0.6517  0.7829  0.7844
 6361TIP3    H240499   1.470   2.409   0.151 -0.1651 -0.5843  0.9987
 6362TIP3   OH240500   4.740   0.396  10.777  0.3363  0.4031  0.5620
 6362TIP3    H140501   4.661   0.343  10.784  1.3745 -1.3972 -0.7337
 6362TIP3    H240502   4.788   0.359  10.703  1.2817  2.9657 -0.2177
 6363TIP3   OH240503   5.356   1.236  11.982 -0.1050  0.7019  0.3303
 6363TIP3    H140504   5.311   1.313  12.016  0.2131 -0.4290  3.6682
 6363TIP3    H240505   5.421   1.214  12.049  1.1747 -1.3225 -1.4407
 6364TIP3   OH240506   2.809   6.763   2.631  0.6019  0.2842 -0.0288
 6364TIP3    H140507   2.892   6.729   2.598  0.0756  0.5296 -1.7000
 6364TIP3    H240508   2.808   6.855   2.603 -2.0531 -0.6913 -4.1033
 6365TIP3   OH240509   6.567   0.268  10.253 -0.1021  0.5037  0.4593
 6365TIP3    H140510   6.509   0.219  10.312 -0.7517 -3.3408 -2.9700
 6365TIP3    H240511   6.509   0.305  10.187  0.9352  1.3822  0.0013
 6366TIP3   OH240512   6.484   6.272   2.927  0.2473 -0.2890  0.5874
 6366TIP3    H140513   6.399   6.308   2.954 -0.2058 -2.6745  2.7260
 6366TIP3    H240514   6.463   6.211   2.856  0.4563  0.4314 -0.1125
 6367TIP3   OH240515   1.010   3.094  13.946 -0.0931 -0.0215 -0.2568
 6367TIP3    H140516   1.030   3.123  13.856  0.2664  1.2901  0.2260
 6367TIP3    H240517   1.094   3.102  13.992 -0.8242  1.9354  0.8562
 6368TIP3   OH240518   5.402   0.232  11.508  0.5943  0.5612 -0.2158
 6368TIP3    H140519   5.421   0.196  11.594 -1.8800  0.9954  0.5773
 6368TIP3    H240520   5.470   0.297  11.494  1.4736 -0.0413  1.0485
 6369TIP3   OH240521   3.516   2.303   2.454  0.5874 -0.5024 -0.0369
 6369TIP3    H140522   3.480   2.214   2.456  0.9700 -0.6658 -0.2663
 6369TIP3    H240523   3.611   2.290   2.443  0.6740 -0.0722  0.1750
 6370TIP3   OH240524   6.402   5.448  13.718  0.5664 -0.0524  0.8075
 6370TIP3    H140525   6.407   5.456  13.813 -1.3486 -1.2924  1.0734
 6370TIP3    H240526   6.391   5.355  13.702  0.8530  0.1336 -0.6329
 6371TIP3   OH240527   1.950   4.772  13.881  0.5717  0.1005  0.0834
 6371TIP3    H140528   1.866   4.742  13.846  1.4258 -1.9644 -0.3594
 6371TIP3    H240529   1.927   4.827  13.956 -1.1627 -0.8455  0.2999
 6372TIP3   OH240530   0.775   4.079   1.370  0.3549 -0.1358  0.1367
 6372TIP3    H140531   0.833   4.149   1.400  1.9723 -0.6430 -1.5598
 6372TIP3    H240532   0.700   4.124   1.332 -0.4607  0.5401  2.4151
 6373TIP3   OH240533   7.160   2.041  14.677  0.0039  0.2075  0.1301
 6373TIP3    H140534   7.220   2.101  14.722 -0.0741 -0.6303  1.4012
 6373TIP3    H240535   7.075   2.084  14.682  0.5354  1.7879 -2.3802
 6374TIP3   OH240536   6.492   1.475   9.977 -0.0357 -0.0046 -0.5575
 6374TIP3    H140537   6.411   1.497  10.022  1.1296 -0.7157  2.1121
 6374TIP3    H240538   6.538   1.559   9.967  0.2498  0.0317  0.8597
 6375TIP3   OH240539   0.618   2.765   0.713 -0.3205 -0.2286  0.0965
 6375TIP3    H140540   0.622   2.678   0.753  0.0754 -1.3941 -2.2425
 6375TIP3    H240541   0.526   2.791   0.721 -0.0060  0.2376  2.8678
 6376TIP3   OH240542   6.992   3.268  14.954 -0.3385 -0.1879 -0.1680
 6376TIP3    H140543   6.916   3.319  14.982 -0.0139  1.0476 -1.4076
 6376TIP3    H240544   7.025   3.228  15.034 -0.0611  2.3446  1.0928
 6377TIP3   OH240545   4.324   4.268   0.763  0.1966 -0.4773 -0.0599
 6377TIP3    H140546   4.285   4.282   0.849  1.8784 -1.3036  0.8693
 6377TIP3    H240547   4.256   4.221   0.713 -1.8904  2.4160 -0.1950
 6378TIP3   OH240548   3.295   4.432   0.621 -0.0198 -0.0148  0.0179
 6378TIP3    H140549   3.305   4.357   0.679  0.8161 -0.3182 -0.4965
 6378TIP3    H240550   3.383   4.447   0.586 -0.2244  1.0510 -0.0779
 6379TIP3   OH240551   6.049   2.078  14.889  0.1754  0.2879 -0.1424
 6379TIP3    H140552   6.105   2.070  14.812  0.8993  1.8548  0.1829
 6379TIP3    H240553   6.033   1.987  14.916  1.1297 -0.2432 -1.2539
 6380TIP3   OH240554   4.553   0.441  12.329  0.3048  0.0289  0.1796
 6380TIP3    H140555   4.469   0.400  12.350 -0.2563 -0.5927 -2.8979
 6380TIP3    H240556   4.531   0.515  12.272  1.7209  1.3651  1.2669
 6381TIP3   OH240557   4.358   1.524   1.393 -0.0354 -0.0494 -0.1309
 6381TIP3    H140558   4.321   1.440   1.366  1.1674 -0.2984 -1.0427
 6381TIP3    H240559   4.399   1.559   1.315  1.0058  0.5737  0.6718
 6382TIP3   OH240560   5.145   7.055  13.301 -0.3043  0.3182  0.7229
 6382TIP3    H140561   5.168   7.033  13.391 -1.5867 -1.7895  0.5987
 6382TIP3    H240562   5.113   6.973  13.263 -1.1034  1.4581 -1.2523
 6383TIP3   OH240563   3.594   7.104  14.297  0.7005 -0.2540  0.0992
 6383TIP3    H140564   3.574   7.196  14.281 -1.3001 -0.4981  0.8354
 6383TIP3    H240565   3.661   7.104  14.364 -0.5925  0.6924  1.4351
 6384TIP3   OH240566   3.700   6.135   9.704  0.6561 -0.3576 -0.6323
 6384TIP3    H140567   3.715   6.104   9.615 -1.4032  3.1456 -2.4374
 6384TIP3    H240568   3.618   6.092   9.730 -0.6197  1.1377 -1.9405
 6385TIP3   OH240569   3.396   2.477   1.291 -0.1845 -0.0712  0.4619
 6385TIP3    H140570   3.365   2.393   1.259 -3.0675  0.1016  2.3450
 6385TIP3    H240571   3.459   2.455   1.359 -0.5852 -0.7243  0.6339
 6386TIP3   OH240572   1.368   0.653   2.038  0.2410  0.4356  0.0961
 6386TIP3    H140573   1.358   0.660   1.943 -1.3217  2.2286  0.3214
 6386TIP3    H240574   1.281   0.625   2.069 -0.2638  2.9080  1.1776
 6387TIP3   OH240575   1.433   6.968  12.530 -0.1150 -0.3919 -0.0714
 6387TIP3    H140576   1.497   6.993  12.463 -1.8114  0.8320 -1.3470
 6387TIP3    H240577   1.414   6.876  12.512  0.3359 -0.4007 -0.5112
 6388TIP3   OH240578   3.605   2.905   9.954 -0.1048  0.2022 -0.4835
 6388TIP3    H140579   3.686   2.936   9.914 -1.0234  3.0432 -0.3050
 6388TIP3    H240580   3.541   2.904   9.883 -0.4798  0.2331 -0.1500
 6389TIP3   OH240581   5.323   4.058  15.037 -0.0797 -0.0251 -0.4360
 6389TIP3    H140582   5.403   4.027  14.993 -0.5437 -1.2998 -0.4317
 6389TIP3    H240583   5.259   3.989  15.020 -1.0198  0.7138  0.0547
 6390TIP3   OH240584   3.436   6.531   2.248  0.2540 -0.2630  0.4618
 6390TIP3    H140585   3.368   6.465   2.255 -0.8172  0.5328 -1.4516
 6390TIP3    H240586   3.514   6.490   2.284 -0.4696 -2.4186 -0.2717
 6391TIP3   OH240587   7.137   1.275  12.114  0.1400  0.2671  0.9695
 6391TIP3    H140588   7.154   1.315  12.199  0.8649  1.4871  0.2772
 6391TIP3    H240589   7.224   1.252  12.081 -0.2235 -1.3612  1.0885
 6392TIP3   OH240590   1.707   3.428  12.001  0.0966  0.3594  0.0350
 6392TIP3    H140591   1.673   3.419  12.091 -0.3763  0.2496 -0.1526
 6392TIP3    H240592   1.672   3.352  11.955  1.0585 -0.0644 -0.0266
 6393TIP3   OH240593   1.760   6.619   5.048  0.3159  0.0343 -0.2491
 6393TIP3    H140594   1.745   6.698   5.099 -0.3536  1.1853 -2.1326
 6393TIP3    H240595   1.765   6.649   4.958 -2.9336 -2.3078 -1.4015
 6394TIP3   OH240596   5.713   6.352  13.826  0.1782  0.0233 -0.0821
 6394TIP3    H140597   5.807   6.372  13.828  0.2678 -0.4394  1.8577
 6394TIP3    H240598   5.709   6.261  13.795  0.4923 -0.4862  1.3360
 6395TIP3   OH240599   6.498   2.479   3.926  0.6868  0.5442  0.1707
 6395TIP3    H140600   6.540   2.556   3.886  1.0237  1.7610  2.6719
 6395TIP3    H240601   6.565   2.444   3.985 -0.1011 -0.5766  0.4185
 6396TIP3   OH240602   3.538   3.324   2.266 -0.6666  0.6778 -0.5982
 6396TIP3    H140603   3.569   3.318   2.175 -0.9904 -0.2146 -0.6579
 6396TIP3    H240604   3.587   3.397   2.303  2.1768 -1.1840 -0.4176
 6397TIP3   OH240605   2.028   4.092  13.461 -0.4912 -0.6785  0.4251
 6397TIP3    H140606   1.988   4.153  13.400  1.3410 -0.4982 -0.6520
 6397TIP3    H240607   1.987   4.112  13.545 -1.5404  0.4851 -0.3311
 6398TIP3   OH240608   0.439   0.416  11.242 -0.2580 -0.9030 -0.3485
 6398TIP3    H140609   0.483   0.499  11.224 -0.9476 -0.4203  0.1503
 6398TIP3    H240610   0.479   0.354  11.180  1.6241 -0.6590  0.5427
 6399TIP3   OH240611   4.012   0.566  10.687  0.0736 -0.0327 -0.4078
 6399TIP3    H140612   4.071   0.505  10.732  0.0666 -0.7237 -1.3069
 6399TIP3    H240613   3.934   0.569  10.742  0.9008  0.8648  0.7789
 6400TIP3   OH240614   2.621   2.355   0.531  0.0597  0.1567 -0.2212
 6400TIP3    H140615   2.549   2.327   0.588  0.4306  1.2946  0.8327
 6400TIP3    H240616   2.593   2.328   0.443 -1.3731  0.0422  0.2449
 6401TIP3   OH240617   5.420   3.066  15.088 -0.4629 -0.0619  0.5630
 6401TIP3    H140618   5.374   3.130  15.142 -1.4383 -1.9436  2.0968
 6401TIP3    H240619   5.449   2.999  15.150 -1.7362 -2.3850 -1.1840
 6402TIP3   OH240620   4.024   1.873   1.912  0.2374  0.2374 -0.2354
 6402TIP3    H140621   4.062   1.823   1.984 -0.2465  0.0680 -0.0879
 6402TIP3    H240622   4.013   1.962   1.948  0.2510  0.2218 -0.1925
 6403TIP3   OH240623   2.347   0.696   1.562  0.1315 -0.0490  0.4854
 6403TIP3    H140624   2.396   0.627   1.518 -1.3774 -1.6639  1.2289
 6403TIP3    H240625   2.390   0.705   1.647  1.5674  1.4088 -0.3273
 6404TIP3   OH240626   5.784   0.099  12.973  0.2150  0.4073 -0.6220
 6404TIP3    H140627   5.822   0.141  13.050 -1.2453 -0.6773  0.7631
 6404TIP3    H240628   5.697   0.137  12.965  0.4580  0.7425 -1.9720
 6405TIP3   OH240629   3.881   6.050  14.040 -0.0042 -0.2027  0.6184
 6405TIP3    H140630   3.789   6.070  14.052 -0.1376 -0.8082  0.6325
 6405TIP3    H240631   3.924   6.135  14.034 -0.3812  0.1111  1.9623
 6406TIP3   OH240632   3.106   2.047  14.606  0.0265  0.6770  0.0231
 6406TIP3    H140633   3.060   2.108  14.663 -0.0276  0.1157  0.5876
 6406TIP3    H240634   3.102   1.963  14.652  0.6223  0.3756 -0.4584
 6407TIP3   OH240635   1.496   6.552   2.841 -0.2765 -0.8468 -0.0267
 6407TIP3    H140636   1.528   6.462   2.831 -0.0941 -0.8994  0.9597
 6407TIP3    H240637   1.453   6.571   2.757 -1.9571 -2.5177  0.3857
 6408TIP3   OH240638   2.702   2.304  11.530  0.3609 -0.3613 -0.4580
 6408TIP3    H140639   2.784   2.342  11.498 -0.0284  0.2701 -0.7178
 6408TIP3    H240640   2.633   2.352  11.485 -0.1839  0.0005  0.7177
 6409TIP3   OH240641   6.710   2.948  12.631  0.5935  0.5058 -0.1096
 6409TIP3    H140642   6.696   2.857  12.606  1.5542  0.4978 -0.6786
 6409TIP3    H240643   6.632   2.994  12.599  0.4582  0.0072 -0.5100
 6410TIP3   OH240644   6.052   0.591  11.208 -0.5906 -0.9158  0.0210
 6410TIP3    H140645   6.018   0.502  11.199 -0.4875 -1.0857  1.1990
 6410TIP3    H240646   5.984   0.638  11.255  0.2333 -0.9504  1.3203
 6411TIP3   OH240647   0.542   5.318   9.936 -0.6157  0.2754  0.5801
 6411TIP3    H140648   0.542   5.224   9.920 -2.0275  0.3100  0.2990
 6411TIP3    H240649   0.450   5.343   9.935 -0.2198  1.9147 -0.9091
 6412TIP3   OH240650   5.942   6.171   4.300 -0.0821  0.5620 -0.2019
 6412TIP3    H140651   5.856   6.213   4.311 -0.4910 -0.3866  0.3369
 6412TIP3    H240652   5.949   6.157   4.205 -1.3972 -1.0738 -0.1065
 6413TIP3   OH240653   3.687   0.923   2.296 -0.3553  0.2971  0.0517
 6413TIP3    H140654   3.716   1.009   2.264 -0.3055 -0.4457 -2.0555
 6413TIP3    H240655   3.767   0.871   2.302 -0.5142  0.0795  0.3196
 6414TIP3   OH240656   3.053   2.485   9.826 -0.2583  0.3308 -0.8599
 6414TIP3    H140657   3.144   2.509   9.810  0.8744 -3.4037 -1.0205
 6414TIP3    H240658   3.054   2.389   9.827 -3.4841  0.0892  3.2549
 6415TIP3   OH240659   3.989   2.556   0.323 -0.1705 -0.4217 -0.5051
 6415TIP3    H140660   4.054   2.517   0.381  1.0201  1.5362 -0.4097
 6415TIP3    H240661   4.020   2.534   0.235 -0.0983 -0.6071 -0.4331
 6416TIP3   OH240662   0.035   5.101   2.268 -0.0142  0.2691  0.8474
 6416TIP3    H140663   0.077   5.117   2.184  0.9835  1.1894  1.5022
 6416TIP3    H240664  -0.022   5.026   2.252  0.9511 -0.2354 -0.3743
 6417TIP3   OH240665   7.046   6.313  15.137  0.0409 -0.4218  0.0677
 6417TIP3    H140666   7.078   6.257  15.208  1.9985  1.1655  0.5468
 6417TIP3    H240667   7.071   6.267  15.057 -0.1066 -1.1368  0.4252
 6418TIP3   OH240668   2.339   4.527   2.287 -0.4902  0.4000  0.1224
 6418TIP3    H140669   2.352   4.622   2.286  1.2855  0.2001 -0.8534
 6418TIP3    H240670   2.426   4.492   2.269 -1.7306 -1.3323 -3.2465
 6419TIP3   OH240671   1.893   3.044   0.085 -0.6821  0.2600  0.1720
 6419TIP3    H140672   1.810   3.067   0.043 -0.1637  1.4673 -0.2401
 6419TIP3    H240673   1.875   3.052   0.179 -0.7272  1.7414  0.0619
 6420TIP3   OH240674   6.879   1.198   2.102 -0.5673  0.0579  0.2899
 6420TIP3    H140675   6.873   1.221   2.010 -0.1918  0.5639  0.3832
 6420TIP3    H240676   6.796   1.228   2.139 -1.1114 -1.0034 -0.0531
 6421TIP3   OH240677   0.173   7.127  13.260 -0.1268 -0.4673 -0.6640
 6421TIP3    H140678   0.123   7.092  13.186 -0.9844 -0.5972 -0.0498
 6421TIP3    H240679   0.260   7.090  13.250 -0.0770 -0.0789 -1.8835
 6422TIP3   OH240680   0.857   5.477   1.067  0.1803 -0.0738 -0.3503
 6422TIP3    H140681   0.909   5.523   1.001  0.9931  0.7725  0.8376
 6422TIP3    H240682   0.771   5.465   1.027 -0.4404  3.4229 -0.3785
 6423TIP3   OH240683   3.112   0.126  13.288  0.3164 -0.0551  0.4631
 6423TIP3    H140684   3.180   0.192  13.270 -0.4885  0.8357  0.6026
 6423TIP3    H240685   3.044   0.175  13.334 -1.3215 -0.4654 -1.3954
 6424TIP3   OH240686   0.588   3.254  11.814  0.1792 -0.1800 -0.4055
 6424TIP3    H140687   0.628   3.213  11.737 -1.2224  1.2168 -1.9609
 6424TIP3    H240688   0.617   3.200  11.887  1.4886 -1.6429 -1.9045
 6425TIP3   OH240689   0.730   0.262  12.811  0.7531  0.0924  0.8578
 6425TIP3    H140690   0.658   0.317  12.781  0.6897 -0.6510 -0.4560
 6425TIP3    H240691   0.688   0.185  12.849  0.7325 -1.3903 -1.8744
 6426TIP3   OH240692   0.676   1.907   4.791  0.3519 -0.3262  0.0903
 6426TIP3    H140693   0.764   1.906   4.830  0.0072  0.7396  0.9481
 6426TIP3    H240694   0.674   1.987   4.738 -0.1915 -0.1879  0.3104
 6427TIP3   OH240695   0.324   5.150   0.610  0.3641  0.6132  0.1690
 6427TIP3    H140696   0.322   5.084   0.679  0.4397 -1.0797 -1.3918
 6427TIP3    H240697   0.235   5.184   0.607  0.6769  1.7943  2.0225
 6428TIP3   OH240698   2.722   0.895   0.404 -0.1447 -0.6280  0.5420
 6428TIP3    H140699   2.813   0.878   0.380 -0.1854 -0.3442  0.1807
 6428TIP3    H240700   2.713   0.990   0.399 -0.2988 -0.6053  1.1690
 6429TIP3   OH240701   3.388   7.058   4.632  0.1322  0.5070  0.1529
 6429TIP3    H140702   3.466   7.016   4.598  0.1514  0.4422  0.2775
 6429TIP3    H240703   3.367   7.126   4.568  0.0081  0.2036 -0.1298
 6430TIP3   OH240704   1.589   4.640  14.523 -0.0536  0.0595  0.3157
 6430TIP3    H140705   1.514   4.646  14.582 -0.4450  0.5195 -0.2146
 6430TIP3    H240706   1.635   4.723  14.535  2.2277 -1.3966  3.0083
 6431TIP3   OH240707   6.653   5.308  12.694 -0.0264 -0.0188  0.2411
 6431TIP3    H140708   6.689   5.231  12.651 -0.1275 -0.6723  1.3012
 6431TIP3    H240709   6.729   5.352  12.732 -0.1726 -0.5907  1.2025
 6432TIP3   OH240710   3.126   2.890  12.366  0.4039  0.3395 -0.6244
 6432TIP3    H140711   3.074   2.823  12.322  2.0621 -1.1319 -0.4696
 6432TIP3    H240712   3.077   2.911  12.445  0.4529 -1.7174  0.0176
 6433TIP3   OH240713   6.190   0.097  13.808 -0.2120  0.7731  0.2580
 6433TIP3    H140714   6.258   0.031  13.791 -1.0767 -0.6747  2.0761
 6433TIP3    H240715   6.108   0.053  13.786 -0.7919  1.3181  1.2672
 6434TIP3   OH240716   5.690   6.804  11.544  0.4393 -0.0010  0.0656
 6434TIP3    H140717   5.633   6.789  11.619 -0.5986 -1.6454 -0.9803
 6434TIP3    H240718   5.631   6.802  11.469  1.2796  2.6399 -0.7872
 6435TIP3   OH240719   2.546   6.398  11.685  0.4212  0.3359 -0.0336
 6435TIP3    H140720   2.548   6.469  11.749 -0.5134  1.6427 -1.3813
 6435TIP3    H240721   2.464   6.352  11.703 -0.6993  1.7286 -1.2636
 6436TIP3   OH240722   4.750   0.557   3.984 -0.1232  0.1819 -0.3558
 6436TIP3    H140723   4.830   0.562   4.035 -0.1722 -2.1693  0.0504
 6436TIP3    H240724   4.697   0.491   4.029 -1.5070  0.3398 -1.6735
 6437TIP3   OH240725   0.894   2.694  10.363  0.0176 -0.3150  0.2147
 6437TIP3    H140726   0.862   2.784  10.367  0.1330 -0.1425 -1.9333
 6437TIP3    H240727   0.972   2.694  10.419 -1.6306  0.1292  2.6601
 6438TIP3   OH240728   6.770   6.910  10.407  0.0034  0.3802  0.0016
 6438TIP3    H140729   6.849   6.860  10.425 -0.2117 -0.2555 -0.7824
 6438TIP3    H240730   6.717   6.853  10.351 -0.5001  1.2531 -0.4336
 6439TIP3   OH240731   2.829   5.407  11.829  0.3267  0.0453 -0.1204
 6439TIP3    H140732   2.885   5.468  11.878 -0.3116 -0.0337  0.7283
 6439TIP3    H240733   2.785   5.462  11.764 -0.0606  0.4573  0.4801
 6440TIP3   OH240734   4.407   3.380  14.352 -0.3587  0.4129 -0.1297
 6440TIP3    H140735   4.492   3.338  14.351 -0.3430  0.4491 -1.2938
 6440TIP3    H240736   4.355   3.329  14.414  0.5174  0.4331  0.6350
 6441TIP3   OH240737   2.898   4.716  13.795 -0.0871  0.1947 -0.9005
 6441TIP3    H140738   2.867   4.796  13.752  0.3432  1.4291  0.9956
 6441TIP3    H240739   2.971   4.687  13.741 -0.7907  0.5689 -2.1005
 6442TIP3   OH240740   1.280   5.529  12.627  0.2640  0.1178  0.7571
 6442TIP3    H140741   1.262   5.472  12.553  3.2921  0.4303 -0.3731
 6442TIP3    H240742   1.219   5.602  12.617 -0.7719 -0.8541 -0.2159
 6443TIP3   OH240743   4.485   5.140   3.420  0.3790 -0.1806 -0.1838
 6443TIP3    H140744   4.491   5.160   3.513  2.5236  2.5417 -0.7695
 6443TIP3    H240745   4.396   5.166   3.396 -0.0653 -0.5242  1.0166
 6444TIP3   OH240746   1.537   4.812  13.700 -0.1787 -0.4183  0.0526
 6444TIP3    H140747   1.515   4.848  13.786 -0.3066 -0.6842  0.1320
 6444TIP3    H240748   1.490   4.869  13.638 -2.0447 -1.6414  0.2647
 6445TIP3   OH240749   4.308   1.158  11.111  0.2072  0.3388  0.0052
 6445TIP3    H140750   4.354   1.173  11.029  1.3297 -0.0346  0.5482
 6445TIP3    H240751   4.349   1.080  11.148 -2.6719 -1.6713 -0.7531
 6446TIP3   OH240752   1.989   2.362   3.059  0.0465  0.2725 -0.0649
 6446TIP3    H140753   2.009   2.452   3.033 -0.8561  0.2758 -0.8025
 6446TIP3    H240754   2.067   2.312   3.033 -0.6420  0.3391 -2.5362
 6447TIP3   OH240755   5.047   2.316  14.856 -0.3331 -0.1860 -0.4085
 6447TIP3    H140756   5.044   2.233  14.808  0.2784 -0.0418 -0.7165
 6447TIP3    H240757   4.958   2.349  14.853 -0.3151 -0.2018 -1.4201
 6448TIP3   OH240758   4.741   3.250  11.398  0.0597  0.1438  0.1624
 6448TIP3    H140759   4.665   3.263  11.455 -0.6031 -1.3064 -0.3191
 6448TIP3    H240760   4.774   3.163  11.422  0.7352  0.1864 -0.5664
 6449TIP3   OH240761   1.735   5.768  10.866  0.1706 -0.2787 -0.6611
 6449TIP3    H140762   1.819   5.809  10.883 -0.5856  1.3133 -0.5737
 6449TIP3    H240763   1.698   5.750  10.952  0.2448 -0.5980 -0.6955
 6450TIP3   OH240764   4.419   3.537   1.058  0.5376 -0.1335  0.4565
 6450TIP3    H140765   4.513   3.524   1.071  0.5424  0.7944  1.5588
 6450TIP3    H240766   4.399   3.619   1.105 -0.6966  0.0452 -0.3165
 6451TIP3   OH240767   3.344   3.877   0.660 -0.3393  0.8200  0.1606
 6451TIP3    H140768   3.422   3.867   0.604 -1.2288  2.9385 -1.6121
 6451TIP3    H240769   3.313   3.788   0.674  1.7009  0.0156 -0.1127
 6452TIP3   OH240770   2.926   2.914  11.223  0.1672  0.3033 -0.1488
 6452TIP3    H140771   2.944   2.823  11.247 -1.8503  0.3033  1.6786
 6452TIP3    H240772   2.853   2.908  11.162  0.0493  0.6978 -0.0478
 6453TIP3   OH240773   6.288   0.646  13.851 -0.3227 -0.3511  0.1136
 6453TIP3    H140774   6.357   0.678  13.909 -0.4587  0.3546 -0.1118
 6453TIP3    H240775   6.218   0.620  13.910 -0.3492  0.0941  0.2825
 6454TIP3   OH240776   1.961   3.237  11.838  0.0129  0.1068  0.1283
 6454TIP3    H140777   1.977   3.225  11.744 -0.2824 -1.3904  0.2467
 6454TIP3    H240778   1.929   3.327  11.845 -0.0735  0.2085 -1.2161
 6455TIP3   OH240779   4.171   5.484  13.841  0.1733 -0.1318 -0.1476
 6455TIP3    H140780   4.217   5.559  13.879 -0.0248 -0.8397  1.5936
 6455TIP3    H240781   4.185   5.492  13.747  2.5699  0.5167  0.2093
 6456TIP3   OH240782   4.270   0.711   1.364 -0.1267  0.1505 -0.0197
 6456TIP3    H140783   4.188   0.732   1.320 -0.5246 -1.8639 -0.3329
 6456TIP3    H240784   4.328   0.683   1.293  0.2341 -0.1736  0.4020
 6457TIP3   OH240785   0.575   2.409   0.623  0.1191 -0.2324 -0.3752
 6457TIP3    H140786   0.662   2.438   0.593  0.2406 -1.2771 -1.1099
 6457TIP3    H240787   0.578   2.419   0.718  0.4541  1.2842 -0.5270
 6458TIP3   OH240788   5.015   5.293  11.904 -0.2075  0.7878 -0.4571
 6458TIP3    H140789   4.922   5.315  11.914 -0.9236 -1.1906 -2.1862
 6458TIP3    H240790   5.016   5.202  11.875  2.3263  0.5745  0.0450
 6459TIP3   OH240791   2.158   2.457  14.746 -0.7689  0.1293  0.2050
 6459TIP3    H140792   2.228   2.477  14.809 -0.7452  0.5340  0.0496
 6459TIP3    H240793   2.181   2.506  14.668  0.8353 -2.6838 -1.2334
 6460TIP3   OH240794   3.587   0.884   4.966  0.0308 -0.0169 -0.2152
 6460TIP3    H140795   3.582   0.806   5.021 -0.7927 -0.1002 -0.3929
 6460TIP3    H240796   3.564   0.957   5.024 -0.4208 -0.0531 -0.3513
 6461TIP3   OH240797   6.220   2.428   4.196 -0.1548 -0.0579  0.1553
 6461TIP3    H140798   6.272   2.348   4.183 -1.5420 -0.8593 -0.6906
 6461TIP3    H240799   6.205   2.431   4.290  0.0617 -0.7036  0.2196
 6462TIP3   OH240800   2.975   1.590   1.428  0.2365 -0.5631 -0.7003
 6462TIP3    H140801   3.014   1.595   1.515 -0.2472  1.3237 -0.5582
 6462TIP3    H240802   3.028   1.649   1.374 -1.2617  0.6158 -0.9411
 6463TIP3   OH240803   7.045   4.777  10.282  0.5027 -0.0665  0.0469
 6463TIP3    H140804   7.110   4.728  10.333  1.5320  2.1593  1.0555
 6463TIP3    H240805   6.969   4.719  10.277  1.7587 -1.8719  0.8139
 6464TIP3   OH240806   1.107   0.428  14.359  0.4513 -0.0953 -0.3057
 6464TIP3    H140807   1.160   0.353  14.332 -0.3037 -0.6620 -0.2618
 6464TIP3    H240808   1.069   0.461  14.277  0.1359 -0.2746 -0.2349
 6465TIP3   OH240809   2.379   0.380  10.902  0.0592  0.1336  0.2036
 6465TIP3    H140810   2.390   0.468  10.938 -0.2442 -0.3035  1.4347
 6465TIP3    H240811   2.344   0.329  10.975  2.7619 -1.6747  0.3942
 6466TIP3   OH240812   4.957   0.099  10.352  0.0099  0.3453  0.1965
 6466TIP3    H140813   5.030   0.160  10.340  0.9479 -0.9778 -1.1562
 6466TIP3    H240814   4.950   0.052  10.268 -2.7349  0.7584  0.0999
 6467TIP3   OH240815   4.401   3.246   3.754  0.1437 -0.1515 -0.0233
 6467TIP3    H140816   4.357   3.168   3.790 -1.7391  0.4048 -0.9685
 6467TIP3    H240817   4.333   3.289   3.703  1.4245  1.6240 -0.2957
 6468TIP3   OH240818   2.606   5.934   1.286 -0.2506 -0.2911 -0.8902
 6468TIP3    H140819   2.587   5.955   1.194 -1.6983  0.7329 -0.4020
 6468TIP3    H240820   2.547   5.861   1.306 -1.9122  1.1892 -0.0921
 6469TIP3   OH240821   6.956   0.319  11.785  0.5690 -0.1203 -0.1769
 6469TIP3    H140822   6.928   0.330  11.694 -0.6438  0.6438  0.2642
 6469TIP3    H240823   6.965   0.409  11.818 -1.9751 -0.3091  1.2920
 6470TIP3   OH240824   4.052   6.166  12.172 -0.8252  0.1172 -0.3629
 6470TIP3    H140825   4.008   6.141  12.091  0.6618 -0.3840 -1.0468
 6470TIP3    H240826   4.109   6.239  12.148  0.1364 -0.4678  0.0456
 6471TIP3   OH240827   3.932   2.681   1.619 -0.3367  0.0313 -1.1859
 6471TIP3    H140828   3.950   2.592   1.588  0.5350 -0.3656  0.3464
 6471TIP3    H240829   4.004   2.701   1.679 -0.1720  2.0292 -1.9490
 6472TIP3   OH240830   1.279   2.541   1.755 -0.4288 -0.0445  0.4214
 6472TIP3    H140831   1.296   2.457   1.712 -1.1885 -0.3241  0.6543
 6472TIP3    H240832   1.314   2.531   1.843 -0.4038 -0.0691  0.4086
 6473TIP3   OH240833   4.240   3.484  12.803  0.0598  0.2840 -0.4158
 6473TIP3    H140834   4.334   3.500  12.792 -0.1404  0.8550 -1.3972
 6473TIP3    H240835   4.217   3.532  12.883  0.1063  2.3748 -1.5793
 6474TIP3   OH240836   6.878   4.116  11.512 -0.1079  0.2121  0.2169
 6474TIP3    H140837   6.931   4.159  11.445 -1.1909  0.2100 -0.6683
 6474TIP3    H240838   6.805   4.078  11.464  0.3475 -1.9030  1.0779
 6475TIP3   OH240839   3.554   3.878  15.146  0.2471 -0.1314  0.0481
 6475TIP3    H140840   3.538   3.962  15.189  0.5639  0.0298 -0.1500
 6475TIP3    H240841   3.481   3.868  15.085 -0.2422 -0.3917  0.6638
 6476TIP3   OH240842   6.305   1.160  15.266  0.3385  0.7132 -0.3383
 6476TIP3    H140843   6.228   1.180  15.214  0.5407  2.9851  0.1638
 6476TIP3    H240844   6.379   1.170  15.206  0.4288  1.3037 -0.1316
 6477TIP3   OH240845   1.080   2.676  15.104 -0.0039 -0.0582  0.2607
 6477TIP3    H140846   1.090   2.667  15.009 -0.4844  2.8023 -0.1416
 6477TIP3    H240847   1.039   2.762  15.116 -0.9487 -0.7895  3.0331
 6478TIP3   OH240848   1.631   0.999  13.378 -0.2031 -0.1769  0.4035
 6478TIP3    H140849   1.720   1.031  13.362 -0.6315  0.7832 -0.1664
 6478TIP3    H240850   1.616   1.015  13.471  0.8326 -1.9851  0.9290
 6479TIP3   OH240851   4.390   6.285  12.503  0.4453 -0.3819 -1.1433
 6479TIP3    H140852   4.393   6.224  12.429  3.2201 -0.9235 -0.6779
 6479TIP3    H240853   4.456   6.351  12.483 -1.3072  1.5508 -0.8072
 6480TIP3   OH240854   4.650   1.073  13.920 -0.6540 -0.2369  0.5436
 6480TIP3    H140855   4.630   0.981  13.936  1.2878 -0.4716  2.0145
 6480TIP3    H240856   4.733   1.072  13.873 -1.9507  0.7563 -1.9333
 6481TIP3   OH240857   2.697   6.101  14.346  0.2152  0.2321 -0.3275
 6481TIP3    H140858   2.702   6.195  14.362  0.5993  0.4608 -1.6231
 6481TIP3    H240859   2.613   6.088  14.302  0.6135  0.1502 -1.0958
 6482TIP3   OH240860   7.075   2.958  10.373  0.0085  0.7525  0.0096
 6482TIP3    H140861   7.124   2.986  10.450 -0.0590 -1.0501  0.7490
 6482TIP3    H240862   7.034   3.038  10.340  0.6554  1.6837  1.3907
 6483TIP3   OH240863   2.609   0.833  12.368 -0.3094 -0.3331  0.6875
 6483TIP3    H140864   2.684   0.827  12.308 -1.1919 -1.4959 -0.3407
 6483TIP3    H240865   2.535   0.800  12.318 -2.0151  2.7606  0.9609
 6484TIP3   OH240866   6.199   1.302  13.161 -0.0491  0.3430 -0.5463
 6484TIP3    H140867   6.136   1.230  13.147  0.0998  0.2698 -0.8435
 6484TIP3    H240868   6.159   1.354  13.231 -1.1517  1.0979 -1.6915
 6485TIP3   OH240869   0.395   4.930   4.961 -0.2404 -0.1607  0.6452
 6485TIP3    H140870   0.401   4.969   4.874 -0.9076  0.3716  0.8272
 6485TIP3    H240871   0.383   5.004   5.020 -0.7189 -0.5815  1.0863
 6486TIP3   OH240872   3.761   0.047  10.896  0.4309  0.0930 -0.2690
 6486TIP3    H140873   3.751   0.139  10.869 -1.0754  1.2353  3.4727
 6486TIP3    H240874   3.827   0.050  10.965 -2.7868 -0.6184  3.1920
 6487TIP3   OH240875   2.904   3.712  10.777  0.0493  0.1013  0.0540
 6487TIP3    H140876   2.861   3.690  10.859 -1.7863 -0.9029 -1.1228
 6487TIP3    H240877   2.944   3.631  10.748 -0.0078  0.2493 -0.4468
 6488TIP3   OH240878   0.031   4.664  10.480 -0.1236 -0.4823 -0.5505
 6488TIP3    H140879   0.075   4.645  10.397  1.7767 -1.0013  0.5276
 6488TIP3    H240880   0.027   4.579  10.525 -0.1986 -0.0262  0.3187
 6489TIP3   OH240881   0.084   4.032  14.170 -0.4378  0.0775 -0.6127
 6489TIP3    H140882   0.011   4.031  14.109 -0.1579 -0.8881 -0.9508
 6489TIP3    H240883   0.152   3.979  14.127  0.4106  0.8448 -0.2500
 6490TIP3   OH240884   1.284   5.449   4.994 -0.2535  0.4799 -0.5266
 6490TIP3    H140885   1.226   5.467   5.069 -1.4447 -1.6474 -0.8502
 6490TIP3    H240886   1.252   5.507   4.925 -1.2552  0.1874 -0.3288
 6491TIP3   OH240887   6.350   5.396  11.484  0.1279  0.1449  0.6461
 6491TIP3    H140888   6.432   5.348  11.495 -0.0953 -0.6143 -0.7787
 6491TIP3    H240889   6.282   5.331  11.503 -0.1543  0.5449  1.0131
 6492TIP3   OH240890   1.132   7.206  10.568  0.5133  0.1788 -0.2029
 6492TIP3    H140891   1.226   7.209  10.589  0.4723  0.8488 -0.0969
 6492TIP3    H240892   1.125   7.134  10.505  0.9303 -0.5809  0.5861
 6493TIP3   OH240893   5.005   6.241   0.306 -0.1429 -0.4716 -0.0848
 6493TIP3    H140894   5.091   6.200   0.316  0.1586  0.1469 -0.0288
 6493TIP3    H240895   4.976   6.258   0.396 -0.9053 -1.8244 -0.0612
 6494TIP3   OH240896   2.996   0.641  14.575 -0.3854  0.8126  0.1319
 6494TIP3    H140897   2.989   0.717  14.518 -0.2174  0.3961 -0.4542
 6494TIP3    H240898   2.910   0.600  14.571  0.0240  0.0058 -0.9474
 6495TIP3   OH240899   4.583   0.362   4.092 -0.0024  0.5671 -0.1892
 6495TIP3    H140900   4.627   0.323   4.167  0.2399  1.1811 -0.0039
 6495TIP3    H240901   4.496   0.386   4.125 -0.4331 -0.4854 -0.5081
 6496TIP3   OH240902   6.731   2.983   1.978 -0.4729  0.1239  0.2749
 6496TIP3    H140903   6.788   2.949   1.909  0.6228  0.7335  0.8628
 6496TIP3    H240904   6.677   2.907   2.004  1.1707 -0.9142  0.8136
 6497TIP3   OH240905   3.636   5.158  14.386 -0.2387  0.0403  0.1042
 6497TIP3    H140906   3.726   5.178  14.360 -0.1399  1.3101  1.2878
 6497TIP3    H240907   3.589   5.241  14.376 -1.4887 -0.7791 -1.2063
 6498TIP3   OH240908   3.043   6.527  10.851 -0.7608 -0.2933 -0.1938
 6498TIP3    H140909   3.067   6.521  10.758  1.7027  2.6831  0.0876
 6498TIP3    H240910   3.121   6.497  10.897 -0.6589  1.4933  0.8569
 6499TIP3   OH240911   0.320   0.402   0.841 -0.1063  0.1429  0.0325
 6499TIP3    H140912   0.232   0.438   0.847 -0.8774 -1.1258 -2.1952
 6499TIP3    H240913   0.374   0.476   0.813 -0.8277  0.5504 -0.3226
 6500TIP3   OH240914   6.774   6.479   0.056  0.4311 -0.1163  0.4445
 6500TIP3    H140915   6.791   6.398   0.104 -0.7228  0.2139  1.4393
 6500TIP3    H240916   6.716   6.453  -0.015 -1.2434  0.0745  1.7012
 6501TIP3   OH240917   2.941   0.313   4.444 -0.8450  0.0316 -0.2536
 6501TIP3    H140918   2.914   0.223   4.428 -1.8689  0.5491 -1.6548
 6501TIP3    H240919   3.036   0.309   4.451 -0.8701 -1.1352 -0.4505
 6502TIP3   OH240920   4.837   1.723  10.535 -0.2168  0.2696  0.5358
 6502TIP3    H140921   4.824   1.680  10.619 -0.4195  0.7189  0.7358
 6502TIP3    H240922   4.880   1.657  10.480 -0.4498 -0.1554  0.8650
 6503TIP3   OH240923   0.887   1.593   2.466  0.6982  0.0863 -0.0065
 6503TIP3    H140924   0.885   1.688   2.451  0.2842  0.0474 -0.2323
 6503TIP3    H240925   0.803   1.574   2.508  0.6958 -0.2081 -0.1449
 6504TIP3   OH240926   6.261   7.102  10.866  0.2824 -1.2414  0.0628
 6504TIP3    H140927   6.168   7.094  10.845  0.0669 -1.2382  0.9824
 6504TIP3    H240928   6.289   7.013  10.889  0.5110 -1.2448 -0.2208
 6505TIP3   OH240929   0.174   2.171   3.681 -0.5257  0.3529 -0.1344
 6505TIP3    H140930   0.119   2.116   3.737  2.7628 -0.7345  2.3022
 6505TIP3    H240931   0.240   2.112   3.645  1.3421  2.1534  0.1493
 6506TIP3   OH240932   3.566   3.639  10.724 -0.0609  0.2463 -0.7651
 6506TIP3    H140933   3.480   3.643  10.681 -0.5957  0.4000  0.2715
 6506TIP3    H240934   3.545   3.631  10.817  1.0601  0.0354 -0.5188
 6507TIP3   OH240935   1.325   1.593   0.570 -0.0264 -0.0101  0.5088
 6507TIP3    H140936   1.359   1.621   0.655 -1.1627  0.4729  0.8103
 6507TIP3    H240937   1.296   1.503   0.584  0.5832 -0.2362  0.3879
 6508TIP3   OH240938   5.940   2.566  15.089  0.5593  0.3903 -0.2569
 6508TIP3    H140939   6.010   2.631  15.088  1.0699 -0.1041 -2.4494
 6508TIP3    H240940   5.981   2.487  15.055 -0.7011 -0.3347 -0.1363
 6509TIP3   OH240941   6.127   0.421   1.826 -0.2402 -0.3270 -0.3939
 6509TIP3    H140942   6.213   0.379   1.838  0.0431 -0.0601 -1.4374
 6509TIP3    H240943   6.132   0.463   1.741 -0.2620  2.4403  0.8684
 6510TIP3   OH240944   6.062   2.603   1.397 -0.6901 -0.5383 -0.0119
 6510TIP3    H140945   6.144   2.558   1.379 -0.1385  1.1068 -1.8961
 6510TIP3    H240946   6.073   2.638   1.486  1.8176  1.9453 -1.1601
 6511TIP3   OH240947   2.486   1.013  10.912 -0.3817  0.2179 -0.1399
 6511TIP3    H140948   2.426   1.068  10.962 -1.2059 -1.2421  0.5673
 6511TIP3    H240949   2.457   1.020  10.821  0.0244  1.5253 -0.1833
 6512TIP3   OH240950   5.558   0.615   1.664  0.3899 -0.0835 -0.4416
 6512TIP3    H140951   5.545   0.521   1.659  2.0941 -0.3659 -0.2830
 6512TIP3    H240952   5.616   0.636   1.591 -0.0155  0.8526 -0.5168
 6513TIP3   OH240953   5.587   5.601  10.170 -0.2795  0.0399  0.3347
 6513TIP3    H140954   5.517   5.640  10.223 -1.3990 -0.7578 -0.5085
 6513TIP3    H240955   5.581   5.646  10.086  2.6498  2.6038  1.2933
 6514TIP3   OH240956   5.675   4.854  13.916 -0.0874 -0.0387 -0.6021
 6514TIP3    H140957   5.719   4.933  13.885  1.6922 -0.2996  1.0621
 6514TIP3    H240958   5.701   4.786  13.854 -1.2073  0.5288 -1.7429
 6515TIP3   OH240959   1.857   3.810  11.977 -0.1675 -0.0649  0.0520
 6515TIP3    H140960   1.798   3.807  12.052 -0.5463  0.3666 -0.2171
 6515TIP3    H240961   1.799   3.800  11.901 -0.0762  1.5821 -0.2816
 6516TIP3   OH240962   5.983   6.882  14.862  0.0802  0.2194  0.0796
 6516TIP3    H140963   6.043   6.808  14.855  0.3065  0.3505  0.5696
 6516TIP3    H240964   6.038   6.959  14.851 -0.4199  0.3056 -2.1990
 6517TIP3   OH240965   1.534   3.780  10.657  0.6105 -0.0123 -0.4773
 6517TIP3    H140966   1.485   3.862  10.654 -0.0773 -0.4440 -1.2075
 6517TIP3    H240967   1.606   3.798  10.718  1.2954  1.5784 -1.6844
 6518TIP3   OH240968   0.075   4.903   1.669 -0.4077 -0.1109  0.0032
 6518TIP3    H140969   0.149   4.858   1.627  1.3287  0.8164  1.8875
 6518TIP3    H240970   0.107   4.992   1.684 -1.2500 -0.1443  2.3727
 6519TIP3   OH240971   5.121   1.384   4.232 -0.0610  0.3201 -0.1701
 6519TIP3    H140972   5.149   1.401   4.142 -1.2690  1.0597 -0.4324
 6519TIP3    H240973   5.026   1.397   4.231  0.0028  1.1714  1.3953
 6520TIP3   OH240974   0.881   3.218   5.789 -0.5667 -0.7981 -0.3481
 6520TIP3    H140975   0.961   3.270   5.779 -0.0611 -1.4527  0.2192
 6520TIP3    H240976   0.867   3.213   5.883 -1.1705 -0.8535 -0.4382
 6521TIP3   OH240977   6.484   1.354   0.469  0.1441 -0.1156 -0.0161
 6521TIP3    H140978   6.507   1.274   0.421  1.8228 -0.2131  0.8714
 6521TIP3    H240979   6.396   1.337   0.504  0.2188 -1.3169 -0.3788
 6522TIP3   OH240980   3.930   2.779   4.260 -0.8164  0.1094 -0.2700
 6522TIP3    H140981   3.837   2.756   4.269 -1.0819  1.8990  3.1974
 6522TIP3    H240982   3.973   2.728   4.329  0.8866 -0.7773 -1.9024
 6523TIP3   OH240983   6.968   5.550  12.288  0.5101 -0.2810  0.1184
 6523TIP3    H140984   6.873   5.546  12.283  0.4589  0.6908  0.2286
 6523TIP3    H240985   6.988   5.638  12.318  1.4538 -0.4340 -0.0030
 6524TIP3   OH240986   2.526   1.873  11.672  0.4965 -1.0060  0.0525
 6524TIP3    H140987   2.596   1.937  11.688 -0.2805 -0.4991  1.5796
 6524TIP3    H240988   2.558   1.793  11.713  0.3905 -0.8999  0.3460
 6525TIP3   OH240989   3.780   2.337   0.626  0.0056 -1.2545 -0.0453
 6525TIP3    H140990   3.704   2.389   0.651 -0.3547 -1.5392 -0.5517
 6525TIP3    H240991   3.801   2.365   0.537 -1.2997 -3.2235 -1.0481
 6526TIP3   OH240992   1.416   4.613   5.719 -0.4414 -1.1233 -0.0316
 6526TIP3    H140993   1.458   4.639   5.637  0.7871  0.3172  0.9886
 6526TIP3    H240994   1.322   4.612   5.699 -0.2639  0.4331 -1.1584
 6527TIP3   OH240995   2.891   6.653   4.253 -0.0304 -0.5761  0.0174
 6527TIP3    H140996   2.985   6.664   4.268 -0.1830 -1.7636  2.2225
 6527TIP3    H240997   2.881   6.563   4.223 -0.6174 -1.3513  2.2951
 6528TIP3   OH240998   0.306   3.967  11.662 -0.6757  0.4027  0.2661
 6528TIP3    H140999   0.271   3.884  11.629  1.3917  0.2086 -1.7390
 6528TIP3    H241000   0.401   3.953  11.666 -0.2749  2.6188 -0.0217
 6529TIP3   OH241001   3.662   1.270  14.091 -0.7053  0.5034 -0.1318
 6529TIP3    H141002   3.627   1.345  14.043 -0.2999  2.4564  2.4226
 6529TIP3    H241003   3.753   1.293  14.110 -0.5574 -0.6652  0.6947
 6530TIP3   OH241004   5.895   2.216   3.404  0.7104 -0.0197 -0.7220
 6530TIP3    H141005   5.935   2.155   3.343 -0.7285 -0.6807 -1.0612
 6530TIP3    H241006   5.906   2.175   3.490  1.1597  0.0322 -0.7544
 6531TIP3   OH241007   4.412   2.289   2.805 -0.3791  0.5247  0.1184
 6531TIP3    H141008   4.326   2.328   2.823 -0.2945  1.0635 -0.6107
 6531TIP3    H241009   4.463   2.360   2.767 -0.5903 -0.5422 -2.3224
 6532TIP3   OH241010   6.486   5.373  10.844 -0.1745  0.8876  0.0712
 6532TIP3    H141011   6.509   5.362  10.936  2.3056 -1.6254 -0.7062
 6532TIP3    H241012   6.505   5.465  10.825  0.8614  1.0428  1.6768
 6533TIP3   OH241013   1.755   5.450  13.342  0.3646  0.5656 -0.9722
 6533TIP3    H141014   1.664   5.466  13.365 -0.2258  0.2487 -2.9254
 6533TIP3    H241015   1.794   5.414  13.422 -1.5371 -0.5583 -0.5043
 6534TIP3   OH241016   3.172   2.179   1.944  0.3727 -0.6058  0.3640
 6534TIP3    H141017   3.242   2.245   1.946 -1.6623  1.7011  0.2283
 6534TIP3    H241018   3.176   2.143   1.856  0.8511  0.1329  0.0675
 6535TIP3   OH241019   2.360   2.256  11.598  0.7753 -0.7157  0.3227
 6535TIP3    H141020   2.442   2.254  11.648  0.1597  1.8913  1.5817
 6535TIP3    H241021   2.296   2.212  11.654  0.0766  2.2291  2.0482
 6536TIP3   OH241022   6.926   3.861  11.266  0.4434  0.3749  0.4975
 6536TIP3    H141023   7.010   3.893  11.233  0.0399 -0.1935 -1.2266
 6536TIP3    H241024   6.861   3.897  11.204 -0.6683  1.2819  2.1156
 6537TIP3   OH241025   0.709   3.814  11.950 -0.1036  0.0709  0.2099
 6537TIP3    H141026   0.795   3.788  11.984 -0.7265  0.4622  2.2183
 6537TIP3    H241027   0.723   3.827  11.857  1.7276 -1.0954  0.2786
 6538TIP3   OH241028   1.298   3.554   2.067 -0.5175  0.2269 -0.2631
 6538TIP3    H141029   1.311   3.473   2.117 -0.9690  0.3263  0.0244
 6538TIP3    H241030   1.346   3.620   2.116  0.2660  0.0398 -0.7700
 6539TIP3   OH241031   1.865   4.981   0.317  0.4251  1.0409  0.8721
 6539TIP3    H141032   1.883   5.062   0.366  0.1048  0.2961  2.2703
 6539TIP3    H241033   1.830   5.012   0.233 -0.6145  2.3636  1.7469
 6540TIP3   OH241034   2.442   0.901   1.381 -0.4973  0.3413  0.0104
 6540TIP3    H141035   2.479   0.869   1.299 -0.6251 -0.3182  0.2030
 6540TIP3    H241036   2.506   0.965   1.413 -0.5926  0.8184 -0.7445
 6541TIP3   OH241037   5.150   1.426  11.881  0.1719 -0.0382  0.3452
 6541TIP3    H141038   5.120   1.499  11.936 -0.0465  0.9600 -1.0317
 6541TIP3    H241039   5.193   1.469  11.807  0.8874 -1.3553 -0.0250
 6542TIP3   OH241040   6.275   1.831  10.243  0.4303  0.0277 -0.3110
 6542TIP3    H141041   6.208   1.882  10.287  0.6884 -0.6630  0.9309
 6542TIP3    H241042   6.288   1.876  10.159 -0.9703  0.6415 -0.2222
 6543TIP3   OH241043   0.343   5.765   1.394 -0.3504  0.5144 -0.0182
 6543TIP3    H141044   0.350   5.678   1.356 -0.9895  0.2836  0.3763
 6543TIP3    H241045   0.297   5.817   1.328  0.1322  0.5808 -0.3007
 6544TIP3   OH241046   6.677   0.855   1.770  0.6346  0.2382 -0.2572
 6544TIP3    H141047   6.613   0.802   1.817 -0.7007  1.1576 -0.9646
 6544TIP3    H241048   6.632   0.883   1.691  1.4552  2.0210 -0.1441
 6545TIP3   OH241049   7.099   4.830   0.477  0.2664  0.1981  0.2280
 6545TIP3    H141050   7.194   4.833   0.488  0.8330 -0.4255 -3.3259
 6545TIP3    H241051   7.073   4.743   0.508  1.0776 -0.1648 -0.1052
 6546TIP3   OH241052   0.003   4.992  13.640 -0.2479 -0.2442  0.2154
 6546TIP3    H141053  -0.075   5.027  13.596  0.5845  0.9181 -0.3955
 6546TIP3    H241054   0.071   5.058  13.623  1.0986 -1.6479 -0.0123
 6547TIP3   OH241055   7.097   0.547  14.086  0.4563 -0.0239  0.4308
 6547TIP3    H141056   7.014   0.540  14.134  1.2461  0.7244  1.9508
 6547TIP3    H241057   7.120   0.639  14.091  1.7122 -0.3340  0.5811
 6548TIP3   OH241058   4.885   7.112  11.413  0.0020  0.3970  0.1555
 6548TIP3    H141059   4.814   7.092  11.352 -0.6317 -1.9440  1.5281
 6548TIP3    H241060   4.962   7.122  11.356 -1.2282  2.3952 -1.3024
 6549TIP3   OH241061   4.597   0.865  15.136  0.4470 -0.4656 -0.4425
 6549TIP3    H141062   4.567   0.921  15.208 -0.1766 -2.5547  1.0335
 6549TIP3    H241063   4.536   0.883  15.064 -0.6506 -0.2795  0.4964
 6550TIP3   OH241064   1.857   4.146   1.315  0.1476  0.0462  0.1434
 6550TIP3    H141065   1.910   4.070   1.340  0.5162 -0.2375 -1.3616
 6550TIP3    H241066   1.921   4.210   1.282 -0.3214  0.2434 -0.3999
 6551TIP3   OH241067   0.084   3.819  14.404  0.0307  0.3624 -0.0220
 6551TIP3    H141068   0.015   3.846  14.464 -0.0635  1.0034 -0.4041
 6551TIP3    H241069   0.086   3.888  14.338  1.4706  0.7161  0.3359
 6552TIP3   OH241070   3.717   1.786  10.429 -0.7333 -0.3756  0.0590
 6552TIP3    H141071   3.763   1.733  10.365  0.7946 -1.4331  1.9228
 6552TIP3    H241072   3.764   1.869  10.431 -1.3125 -0.0208 -0.7736
 6553TIP3   OH241073   0.540   6.828   9.762 -0.1134  0.1269 -0.1183
 6553TIP3    H141074   0.523   6.919   9.737 -1.6736  0.3067  1.3886
 6553TIP3    H241075   0.462   6.802   9.811  0.6030 -1.8127  0.0705
 6554TIP3   OH241076   4.574   1.292  13.507  0.1657 -0.1884 -0.0153
 6554TIP3    H141077   4.655   1.254  13.539  0.2876  1.2730  1.5430
 6554TIP3    H241078   4.599   1.378  13.474 -0.8049  0.5290  1.0326
 6555TIP3   OH241079   5.327   6.863  13.883 -0.3382 -0.1382  0.3683
 6555TIP3    H141080   5.280   6.851  13.801  0.3612  0.7133 -0.1810
 6555TIP3    H241081   5.368   6.778  13.900  0.5195  0.0107 -0.8292
 6556TIP3   OH241082   1.960   4.484  11.707 -0.0366 -0.4372  0.3309
 6556TIP3    H141083   2.022   4.556  11.719 -1.2476  0.5612  0.8210
 6556TIP3    H241084   1.929   4.463  11.795 -1.0203 -0.3443  0.0224
 6557TIP3   OH241085   0.354   7.075   0.791 -0.2465 -0.1001  0.3629
 6557TIP3    H141086   0.449   7.061   0.794 -0.3233 -0.5057  1.3389
 6557TIP3    H241087   0.328   7.042   0.705  0.5936  0.7151 -0.2277
 6558TIP3   OH241088   0.910   4.278   3.828  0.1301 -0.1257 -0.6588
 6558TIP3    H141089   0.987   4.258   3.881  0.1685 -1.1031 -1.0565
 6558TIP3    H241090   0.944   4.295   3.741 -0.1630 -1.7274 -1.1234
 6559TIP3   OH241091   2.509   4.146   9.272 -0.0647  0.1719 -0.9837
 6559TIP3    H141092   2.507   4.054   9.298 -0.5654  0.5047  0.2307
 6559TIP3    H241093   2.430   4.157   9.218 -2.5037  0.8069  2.3830
 6560TIP3   OH241094   1.280   3.295   1.924 -0.3330  0.0743 -0.6748
 6560TIP3    H141095   1.362   3.247   1.936  0.9362  0.5818 -5.2200
 6560TIP3    H241096   1.304   3.386   1.941 -0.8325 -0.0709  0.9377
 6561TIP3   OH241097   2.857   0.502   0.113 -0.1616 -0.1878  0.1965
 6561TIP3    H141098   2.899   0.507   0.199 -0.6952  0.8376  0.4069
 6561TIP3    H241099   2.914   0.553   0.056 -0.9310  0.9444  0.4158
 6562TIP3   OH241100   5.470   6.139   1.141 -0.4522  0.7285  0.6698
 6562TIP3    H141101   5.397   6.083   1.167  0.4469  0.4741  2.7663
 6562TIP3    H241102   5.520   6.086   1.079 -0.5837 -0.1307  1.2835
 6563TIP3   OH241103   4.005   2.527  14.187  0.3785  0.3888  0.4097
 6563TIP3    H141104   4.051   2.607  14.162  0.3912 -0.0287 -0.9869
 6563TIP3    H241105   3.956   2.502  14.109  0.4116 -0.9954  0.8011
 6564TIP3   OH241106   6.323   0.438   0.651  0.2549 -0.7336 -0.4561
 6564TIP3    H141107   6.417   0.455   0.652  0.4177 -1.3186  1.8394
 6564TIP3    H241108   6.303   0.410   0.562  1.9538  0.8917 -1.3852
 6565TIP3   OH241109   6.550   4.911  12.605  0.5550  0.2476 -0.2223
 6565TIP3    H141110   6.569   4.967  12.680 -1.5226 -0.2131  0.7268
 6565TIP3    H241111   6.492   4.963  12.550 -1.9074 -1.0566  0.9751
 6566TIP3   OH241112   2.450   2.800  12.822 -0.5627 -0.2581 -0.2785
 6566TIP3    H141113   2.477   2.844  12.902  0.7112  1.6116 -1.6474
 6566TIP3    H241114   2.490   2.851  12.751 -0.8327 -2.3616 -2.0879
 6567TIP3   OH241115   3.840   4.299  14.223 -0.0090 -0.3100  0.2341
 6567TIP3    H141116   3.848   4.393  14.234 -0.7378 -0.2782  0.5670
 6567TIP3    H241117   3.921   4.263  14.259  0.2872  0.1873  0.0745
 6568TIP3   OH241118   0.667   1.785   0.132 -0.1844  0.3191  0.2821
 6568TIP3    H141119   0.580   1.750   0.116 -0.1820  1.2256 -2.1960
 6568TIP3    H241120   0.726   1.711   0.121 -0.2773  0.6031 -3.6914
 6569TIP3   OH241121   6.617   4.157  10.588  0.4961  0.0212  0.0498
 6569TIP3    H141122   6.656   4.225  10.643 -0.6503 -0.3776  1.4165
 6569TIP3    H241123   6.544   4.122  10.640  0.6962 -1.8694 -0.8348
 6570TIP3   OH241124   3.202   0.524  13.461 -1.1165  0.4810 -0.0599
 6570TIP3    H141125   3.234   0.613  13.481 -2.1260  0.6730  0.7636
 6570TIP3    H241126   3.160   0.533  13.375 -0.2661  0.5381 -0.4895
 6571TIP3   OH241127   6.956   2.679  11.317 -0.4207  0.2351  0.3451
 6571TIP3    H141128   7.011   2.742  11.270  0.9108 -0.3851  1.0166
 6571TIP3    H241129   6.937   2.721  11.400 -0.7159  0.3206  0.2359
 6572TIP3   OH241130   3.305   6.840  12.174 -0.1211 -0.1789  0.2622
 6572TIP3    H141131   3.300   6.900  12.100 -0.0283 -0.4652  0.0201
 6572TIP3    H241132   3.246   6.876  12.239  0.1916  0.3610  0.2520
 6573TIP3   OH241133   1.618   4.877   2.283 -0.6041  0.4830 -0.1630
 6573TIP3    H141134   1.553   4.862   2.352 -1.2004 -0.8669 -0.9671
 6573TIP3    H241135   1.574   4.849   2.203  0.1143  1.9190 -1.0924
 6574TIP3   OH241136   6.442   1.880  13.702 -0.1993  0.0809 -0.5223
 6574TIP3    H141137   6.514   1.837  13.748 -1.1310  0.0707  1.0083
 6574TIP3    H241138   6.383   1.808  13.678 -1.1089  0.3043  0.8701
 6575TIP3   OH241139   6.124   0.218   3.481 -0.2560  0.7395 -0.1922
 6575TIP3    H141140   6.075   0.285   3.529  0.4358 -0.3361  2.1742
 6575TIP3    H241141   6.061   0.148   3.465  0.1649 -0.1712  1.8728
 6576TIP3   OH241142   3.796   2.731  14.654 -0.0022 -0.8757 -0.1631
 6576TIP3    H141143   3.769   2.822  14.637  0.1281 -1.0844 -1.6197
 6576TIP3    H241144   3.736   2.700  14.722  0.3218  0.4733  0.7806
 6577TIP3   OH241145   2.705   5.642  13.531  0.7630 -0.1556  0.4647
 6577TIP3    H141146   2.726   5.612  13.619 -0.1836  1.2424  1.2010
 6577TIP3    H241147   2.785   5.683  13.500  0.9752 -0.3003  0.8173
 6578TIP3   OH241148   4.088   6.414   1.116 -0.0171 -0.0362 -0.1590
 6578TIP3    H141149   4.157   6.355   1.147  1.0167  1.2242  0.0338
 6578TIP3    H241150   4.134   6.495   1.093 -1.4478  0.8918  0.0913
 6579TIP3   OH241151   5.959   3.945   0.467 -0.0335  0.0120 -0.6990
 6579TIP3    H141152   5.928   3.930   0.378  0.1142  2.1461 -1.1790
 6579TIP3    H241153   5.895   4.007   0.504  0.7904  0.4019  0.1032
 6580TIP3   OH241154   0.441   0.896  12.994  0.1519  0.0475  0.3526
 6580TIP3    H141155   0.439   0.864  13.083 -2.0686 -0.2337  0.2542
 6580TIP3    H241156   0.363   0.950  12.986 -0.6062 -1.2444 -1.8721
 6581TIP3   OH241157   5.467   6.280  15.320 -0.1572 -0.4185  0.4500
 6581TIP3    H141158   5.538   6.244  15.267  0.2821  1.5547 -0.3594
 6581TIP3    H241159   5.503   6.286  15.408  0.5205  0.1254  0.1401
 6582TIP3   OH241160   0.653   0.845   4.082 -0.3620  0.8459  0.6465
 6582TIP3    H141161   0.700   0.905   4.140 -2.1567  1.2091  1.8115
 6582TIP3    H241162   0.573   0.892   4.057 -1.5984 -0.8291  1.2166
 6583TIP3   OH241163   5.982   3.186  12.923  0.2433 -0.0718  0.0563
 6583TIP3    H141164   6.059   3.230  12.887  0.3805 -0.7245 -0.4599
 6583TIP3    H241165   5.930   3.163  12.846  0.8544 -2.0929  0.1922
 6584TIP3   OH241166   2.413   5.882  10.831 -0.1685  0.5470  0.5070
 6584TIP3    H141167   2.437   5.791  10.814 -2.0455  0.1755 -0.5173
 6584TIP3    H241168   2.407   5.888  10.926  0.7614 -0.1786  0.6179
 6585TIP3   OH241169   5.646   4.174   0.751  0.3278  0.2391  0.1274
 6585TIP3    H141170   5.591   4.195   0.827 -0.8527 -3.4130  0.4689
 6585TIP3    H241171   5.714   4.117   0.787  0.3840 -0.6835 -1.3810
 6586TIP3   OH241172   5.104   0.463   1.340 -0.5520  0.1688  0.4479
 6586TIP3    H141173   5.197   0.486   1.344 -1.2926  3.6134  1.6330
 6586TIP3    H241174   5.078   0.455   1.432 -1.7153  0.7188  0.1793
 6587TIP3   OH241175   1.838   1.726   1.046 -0.2938  0.5697 -0.0929
 6587TIP3    H141176   1.772   1.736   1.115  0.7520  1.1746  0.8414
 6587TIP3    H241177   1.869   1.815   1.029  0.3330  0.2841 -0.4897
 6588TIP3   OH241178   2.781   5.701  12.402 -0.6855  0.0951  0.2387
 6588TIP3    H141179   2.704   5.652  12.431 -0.6177  0.3004  0.7704
 6588TIP3    H241180   2.748   5.790  12.385 -0.8518 -0.1708 -0.9248
 6589TIP3   OH241181   5.150   5.648  11.615 -0.4381 -0.2361  0.5207
 6589TIP3    H141182   5.115   5.736  11.600 -1.7369 -0.5178  1.7751
 6589TIP3    H241183   5.207   5.633  11.540 -0.5545  1.4876  0.0356
 6590TIP3   OH241184   6.522   4.935  12.966  0.2412 -0.2121  0.0852
 6590TIP3    H141185   6.544   4.985  13.044 -0.7611  1.3479 -0.5836
 6590TIP3    H241186   6.478   4.998  12.908 -0.2891 -1.6528 -1.1599
 6591TIP3   OH241187   2.828   1.873  13.191  0.1815 -0.3947 -0.2097
 6591TIP3    H141188   2.867   1.959  13.173 -0.0379 -0.2418  0.0276
 6591TIP3    H241189   2.738   1.881  13.160  0.6857 -1.1788 -1.9763
 6592TIP3   OH241190   0.153   2.944  15.103 -0.8776  0.4035  0.4405
 6592TIP3    H141191   0.196   2.879  15.047 -2.1235  0.6039 -0.8061
 6592TIP3    H241192   0.095   2.992  15.044 -1.9791  0.8721  1.8404
 6593TIP3   OH241193   3.570   0.376  14.479  0.2433  0.4845  0.4445
 6593TIP3    H141194   3.632   0.412  14.543 -0.5441  0.9775  0.9630
 6593TIP3    H241195   3.552   0.450  14.420 -1.4750  1.0421  1.5835
 6594TIP3   OH241196   0.927   4.661   0.606  0.4830  0.4708  0.6017
 6594TIP3    H141197   0.891   4.638   0.520  1.8960 -0.2875  0.1739
 6594TIP3    H241198   0.889   4.596   0.666  2.3093 -1.3896 -0.1281
 6595TIP3   OH241199   5.659   2.519  10.544 -0.7097  0.0845 -0.4253
 6595TIP3    H141200   5.659   2.537  10.450 -0.5375  3.3427  0.0547
 6595TIP3    H241201   5.671   2.425  10.551 -0.7862 -0.2778 -3.6510
 6596TIP3   OH241202   5.062   4.836   3.207  0.8453  0.0218  0.1161
 6596TIP3    H141203   5.042   4.864   3.297 -0.3804  1.8707 -0.6699
 6596TIP3    H241204   5.137   4.889   3.181  0.3342  0.4937 -0.4111
 6597TIP3   OH241205   4.512   5.094   2.787 -0.1974 -0.2696 -0.0881
 6597TIP3    H141206   4.416   5.092   2.786 -0.2021 -0.5324 -1.4115
 6597TIP3    H241207   4.536   5.121   2.698  0.9523  0.5631  0.4451
 6598TIP3   OH241208   0.978   4.039  10.559  0.2000 -0.3266 -0.5612
 6598TIP3    H141209   0.933   4.052  10.642  0.1845 -0.9196 -0.4743
 6598TIP3    H241210   0.916   3.988  10.506 -0.1007  0.6749 -1.2090
 6599TIP3   OH241211   4.077   4.017  11.647  0.1815 -0.2635 -0.0510
 6599TIP3    H141212   4.036   4.047  11.566 -1.6657 -3.4089 -0.4534
 6599TIP3    H241213   4.127   3.940  11.622  0.5550 -0.5918  1.5991
 6600TIP3   OH241214   1.220   1.688  11.865  0.2822 -0.2728  0.1540
 6600TIP3    H141215   1.234   1.781  11.880  1.3563 -0.4893  0.6303
 6600TIP3    H241216   1.259   1.645  11.942 -0.8282 -1.0807  0.2891
 6601TIP3   OH241217   1.750   5.077   1.218 -0.1539 -0.3418 -0.0660
 6601TIP3    H141218   1.781   4.994   1.181  0.4032 -0.2126  0.1051
 6601TIP3    H241219   1.823   5.108   1.272 -1.5093 -1.3347  2.5181
 6602TIP3   OH241220   1.152   5.776  12.579 -0.5861 -0.1962 -0.0141
 6602TIP3    H141221   1.150   5.872  12.582 -0.6670 -0.1928 -0.1453
 6602TIP3    H241222   1.097   5.754  12.504 -0.5472 -0.3450  0.0012
 6603TIP3   OH241223   1.142   4.974  12.075 -0.1033  0.0505  0.3896
 6603TIP3    H141224   1.080   5.033  12.118 -0.7095 -1.4981  1.7582
 6603TIP3    H241225   1.168   5.020  11.995 -1.3715  1.6684  0.8556
 6604TIP3   OH241226   0.972   0.277   0.672 -0.2059  0.4894  0.2517
 6604TIP3    H141227   0.960   0.203   0.613  1.7965  1.3280 -1.2898
 6604TIP3    H241228   0.894   0.331   0.658  0.9003  1.4689 -2.9048
 6605TIP3   OH241229   2.026   6.119  15.226 -0.4205  0.4636 -0.7071
 6605TIP3    H141230   2.093   6.137  15.160  1.6875 -0.0921  1.1144
 6605TIP3    H241231   2.075   6.080  15.299 -3.1679 -2.7303 -0.3294
 6606TIP3   OH241232   7.167   0.429   0.148  0.3921 -0.5506 -0.1287
 6606TIP3    H141233   7.240   0.438   0.087  0.9289 -1.0963  0.4181
 6606TIP3    H241234   7.174   0.340   0.181 -0.3926 -0.5349  0.0999
 6607TIP3   OH241235   2.041   0.346   0.939  0.3464 -0.0919  0.3456
 6607TIP3    H141236   2.050   0.442   0.942  1.0267 -0.1838  2.5274
 6607TIP3    H241237   2.020   0.321   1.029  1.2656 -2.0978  0.0568
 6608TIP3   OH241238   5.830   6.053  11.155 -0.2600  0.0427  0.0449
 6608TIP3    H141239   5.837   5.961  11.131 -0.5525 -0.4731  1.7605
 6608TIP3    H241240   5.749   6.058  11.206 -0.7957  1.4692 -0.8918
 6609TIP3   OH241241   1.771   6.118  13.844  0.2066  0.0464 -0.1245
 6609TIP3    H141242   1.825   6.135  13.922  0.6178 -1.9686  0.0884
 6609TIP3    H241243   1.832   6.127  13.771  0.8774 -2.0571  0.1058
 6610TIP3   OH241244   4.871   1.533   4.062 -0.3920 -0.4029 -0.1194
 6610TIP3    H141245   4.874   1.616   4.111  0.8980 -1.2025  1.2226
 6610TIP3    H241246   4.834   1.471   4.124  1.8766 -1.5913  0.1386
 6611TIP3   OH241247   4.142   6.968  11.826 -0.1180  0.6949  0.2062
 6611TIP3    H141248   4.104   6.990  11.911 -2.0970  1.8039 -0.8745
 6611TIP3    H241249   4.173   7.051  11.791  1.1413  0.1727  0.0349
 6612TIP3   OH241250   5.098   6.784  13.170  0.9241 -0.2082  0.3018
 6612TIP3    H141251   5.106   6.699  13.214  0.5528 -1.1758 -1.4310
 6612TIP3    H241252   5.068   6.763  13.082  1.2458  1.7076 -0.3055
 6613TIP3   OH241253   6.491   1.871   2.697  0.0243 -0.0159  0.2064
 6613TIP3    H141254   6.443   1.897   2.776 -0.2214  1.0990 -0.2848
 6613TIP3    H241255   6.578   1.910   2.707  0.1633 -0.3086  0.1596
 6614TIP3   OH241256   1.676   0.976   4.977  0.2001 -0.3283  0.0791
 6614TIP3    H141257   1.585   0.994   4.998 -0.2942 -2.2481 -0.2541
 6614TIP3    H241258   1.726   1.043   5.024 -1.2017 -0.9823  2.6502
 6615TIP3   OH241259   2.382   3.327  14.636 -0.1456 -0.1035  0.4414
 6615TIP3    H141260   2.328   3.335  14.558 -2.3521  0.8712  1.9825
 6615TIP3    H241261   2.456   3.386  14.620 -1.1666  0.9829 -0.4372
 6616TIP3   OH241262   6.942   3.370  14.317 -0.3376  0.2564  0.5457
 6616TIP3    H141263   7.020   3.391  14.267 -0.2692  0.5903  0.7876
 6616TIP3    H241264   6.947   3.426  14.395  0.1301 -1.0380  1.4874
 6617TIP3   OH241265   0.542   1.458   0.315 -0.3692 -0.2968  0.5404
 6617TIP3    H141266   0.506   1.474   0.403 -2.4696 -0.3353 -0.2550
 6617TIP3    H241267   0.520   1.537   0.266  1.5311  0.0879  0.2062
 6618TIP3   OH241268   6.672   6.154  13.710  0.0915  0.2793  0.2891
 6618TIP3    H141269   6.690   6.139  13.803 -1.7997 -0.6919  0.5454
 6618TIP3    H241270   6.599   6.217  13.710  0.0045  0.1914 -0.5414
 6619TIP3   OH241271   1.118   5.299   2.433 -0.5990 -0.4593  0.4625
 6619TIP3    H141272   1.115   5.273   2.341 -1.9674  0.8454  0.0921
 6619TIP3    H241273   1.208   5.328   2.447 -0.4023 -0.5676 -0.4859
 6620TIP3   OH241274   5.346   0.576   2.652  0.0640 -0.3109  0.1900
 6620TIP3    H141275   5.278   0.608   2.594  0.8513 -0.3301 -0.7626
 6620TIP3    H241276   5.427   0.586   2.603  0.7933 -0.0314  1.4004
 6621TIP3   OH241277   6.668   5.599  13.902  0.1897  0.5233 -0.1476
 6621TIP3    H141278   6.609   5.634  13.968  0.4007  0.3077  0.1540
 6621TIP3    H241279   6.744   5.568  13.951  1.1283  1.9653 -0.6388
 6622TIP3   OH241280   4.681   2.779  10.244  0.3725 -0.3663 -0.5947
 6622TIP3    H141281   4.776   2.790  10.240  0.1004  2.5464 -2.2150
 6622TIP3    H241282   4.658   2.795  10.336  1.3864 -0.1996 -0.3630
 6623TIP3   OH241283   3.357   2.092  12.148  0.1580  0.0966  0.2902
 6623TIP3    H141284   3.285   2.073  12.207  1.0738  0.2914  1.5024
 6623TIP3    H241285   3.389   2.178  12.175  1.9291 -0.7165  0.9224
 6624TIP3   OH241286   3.020   6.713  13.437  0.4040 -0.3416 -0.4460
 6624TIP3    H141287   3.065   6.777  13.382  0.3384 -0.2359 -0.3762
 6624TIP3    H241288   3.047   6.734  13.526 -2.1092  1.6484 -0.0571
 6625TIP3   OH241289   6.420   6.493  15.139  0.2870  0.2769 -0.0904
 6625TIP3    H141290   6.374   6.536  15.211  2.1770  1.4717  0.4866
 6625TIP3    H241291   6.432   6.403  15.169 -2.2480 -0.3140 -0.5933
 6626TIP3   OH241292   4.526   5.463  11.542 -0.2060  0.1343  0.5312
 6626TIP3    H141293   4.458   5.498  11.483 -1.0124  0.7770  1.7966
 6626TIP3    H241294   4.608   5.475  11.493 -0.7536  1.4034 -0.1492
 6627TIP3   OH241295   2.738   3.287  11.947  0.0055  0.2349  0.2320
 6627TIP3    H141296   2.699   3.199  11.941 -1.4234  0.8981 -0.8599
 6627TIP3    H241297   2.681   3.342  11.893  0.4937  1.9749  1.4019
 6628TIP3   OH241298   3.414   2.493  14.581 -0.3190  0.1766  0.5715
 6628TIP3    H141299   3.490   2.435  14.587 -1.0869 -0.8326  1.0570
 6628TIP3    H241300   3.356   2.450  14.518 -0.0751  1.4521 -0.5595
 6629TIP3   OH241301   4.264   3.989   2.710  0.2769  0.2533 -0.1132
 6629TIP3    H141302   4.210   3.910   2.704  0.3477  0.2828 -1.4036
 6629TIP3    H241303   4.207   4.059   2.678  1.0203  0.3054 -1.3882
 6630TIP3   OH241304   5.073   6.342  11.432 -0.3077 -0.9636 -0.2428
 6630TIP3    H141305   5.100   6.353  11.524 -1.0387  0.7211 -0.1906
 6630TIP3    H241306   4.978   6.330  11.437 -1.1705  3.8271 -0.9236
 6631TIP3   OH241307   4.312   1.335   2.853  0.3669 -0.4708  0.1626
 6631TIP3    H141308   4.272   1.389   2.921  0.5038 -1.0362  0.6986
 6631TIP3    H241309   4.369   1.275   2.901  0.3745 -0.9554 -0.4455
 6632TIP3   OH241310   3.059   5.566  11.666 -0.3600 -0.0391  0.2275
 6632TIP3    H141311   3.026   5.538  11.580 -1.0916 -2.3693  1.1717
 6632TIP3    H241312   3.126   5.631  11.646 -0.2838 -0.7347 -2.1333
 6633TIP3   OH241313   3.662   5.376  10.323 -0.0520 -0.5319 -0.4900
 6633TIP3    H141314   3.619   5.439  10.265  0.5138  1.9840  1.6475
 6633TIP3    H241315   3.756   5.390  10.308  0.1933  1.6921  2.3515
 6634TIP3   OH241316   4.441   2.378  12.134  0.1915 -0.2960 -0.3705
 6634TIP3    H141317   4.347   2.394  12.138  0.4098  1.1965 -0.5391
 6634TIP3    H241318   4.452   2.321  12.057 -0.5593 -0.4135 -0.3996
 6635TIP3   OH241319   5.010   4.049   3.879 -0.2197 -0.0627  0.7232
 6635TIP3    H141320   4.975   3.973   3.925 -0.3472 -0.0201  0.6944
 6635TIP3    H241321   4.938   4.082   3.826  0.5255 -1.4228 -1.2361
 6636TIP3   OH241322   0.362   0.670  12.862  0.1414  0.2372  0.1285
 6636TIP3    H141323   0.366   0.764  12.880  0.3464  0.0690  1.0290
 6636TIP3    H241324   0.353   0.629  12.949  0.6115 -0.6019 -0.1994
 6637TIP3   OH241325   1.407   7.007   0.118  0.3384 -0.4303  0.0206
 6637TIP3    H141326   1.427   7.042   0.205 -2.8749  0.0140  0.6953
 6637TIP3    H241327   1.368   6.922   0.135 -0.0565 -0.4629 -1.0095
 6638TIP3   OH241328   2.422   1.092  12.451 -0.3619 -0.0192  0.4357
 6638TIP3    H141329   2.385   1.148  12.519 -0.3023  0.3085  0.2024
 6638TIP3    H241330   2.512   1.121  12.443 -1.2539  2.4429 -2.2717
 6639TIP3   OH241331   2.859   5.027  10.191 -0.4192  0.1732  0.5804
 6639TIP3    H141332   2.764   5.032  10.199 -0.4558 -0.4866  0.6502
 6639TIP3    H241333   2.874   4.987  10.105 -0.2308 -0.4892  0.9132
 6640TIP3   OH241334   2.776   3.983  13.689  0.1601  0.1774 -0.3417
 6640TIP3    H141335   2.701   3.958  13.742 -1.4429  2.0864 -1.5870
 6640TIP3    H241336   2.837   4.024  13.750 -0.1593 -0.6334  0.5412
 6641TIP3   OH241337   2.165   6.174  13.599 -0.1473 -0.1067  0.7891
 6641TIP3    H141338   2.197   6.263  13.614 -0.1586 -0.1088  0.8237
 6641TIP3    H241339   2.229   6.118  13.642  0.5024 -0.1682 -0.2173
 6642TIP3   OH241340   5.734   0.753  11.529  0.2063  0.3032 -0.6747
 6642TIP3    H141341   5.681   0.829  11.550 -0.0401  0.4973 -1.9086
 6642TIP3    H241342   5.711   0.688  11.596  0.3203  1.2470  0.3044
 6643TIP3   OH241343   1.094   2.093  10.124  0.3247 -0.0711  0.1326
 6643TIP3    H141344   1.121   2.038  10.050  0.0919  0.3938 -0.3045
 6643TIP3    H241345   1.123   2.045  10.202  1.2543 -0.1989 -0.2788
 6644TIP3   OH241346   5.631   3.569  11.581  0.1881 -0.4128 -0.6538
 6644TIP3    H141347   5.718   3.594  11.551  0.5064  0.2856  0.7627
 6644TIP3    H241348   5.607   3.494  11.526  1.8275 -0.8492 -0.8171
 6645TIP3   OH241349   4.912   5.057  12.091  0.2590 -0.9419 -0.1131
 6645TIP3    H141350   4.826   5.088  12.119  0.3246 -0.1561 -0.7433
 6645TIP3    H241351   4.972   5.091  12.158  0.2995  0.1150 -0.6687
 6646TIP3   OH241352   3.415   3.771  11.864 -0.1361 -0.7599  0.1015
 6646TIP3    H141353   3.490   3.739  11.913  1.2575  0.7792 -0.9437
 6646TIP3    H241354   3.407   3.863  11.889 -1.1964 -0.6910 -0.4106
 6647TIP3   OH241355   1.601   6.763  11.796  0.4079  0.4927 -0.4261
 6647TIP3    H141356   1.565   6.819  11.728  0.3965  0.0979 -0.7432
 6647TIP3    H241357   1.695   6.783  11.796  0.6024 -0.4005 -1.3936
 6648TIP3   OH241358   3.558   2.882   3.660 -0.0489 -0.0660  0.1423
 6648TIP3    H141359   3.496   2.955   3.670  0.1980  0.3989 -1.4919
 6648TIP3    H241360   3.505   2.804   3.676 -0.3121  0.4273  1.9697
 6649TIP3   OH241361   1.034   5.587   1.904  0.2887 -0.3165 -0.0546
 6649TIP3    H141362   0.955   5.542   1.874  0.4719 -0.7987  0.1736
 6649TIP3    H241363   1.102   5.520   1.904  0.6071 -0.0005  0.1382
 6650TIP3   OH241364   4.356   1.804  10.280 -0.1616 -0.6051 -0.1487
 6650TIP3    H141365   4.303   1.878  10.311  0.4772  0.2725 -1.0576
 6650TIP3    H241366   4.309   1.726  10.310  0.9216  0.0960  3.9284
 6651TIP3   OH241367   4.473   0.408   3.812  0.3122 -0.4531 -0.2515
 6651TIP3    H141368   4.397   0.467   3.818  2.2725  2.1642  0.9213
 6651TIP3    H241369   4.470   0.357   3.893 -0.0905 -0.2257 -0.1177
 6652TIP3   OH241370   0.756   4.469  12.646  0.1108  0.3279  0.4201
 6652TIP3    H141371   0.835   4.444  12.597  0.4568 -0.8433  1.5127
 6652TIP3    H241372   0.694   4.496  12.579  1.7065  2.1417 -0.4277
 6653TIP3   OH241373   1.205   6.023  10.514 -0.6664 -0.0439  0.5007
 6653TIP3    H141374   1.234   6.110  10.542 -0.1896  0.3396 -1.1078
 6653TIP3    H241375   1.226   6.019  10.421 -2.5611 -1.1230  0.0655
 6654TIP3   OH241376   1.977   1.756   1.950 -0.3727  0.0823  0.0353
 6654TIP3    H141377   2.070   1.736   1.942 -0.7979 -1.6793 -1.1550
 6654TIP3    H241378   1.968   1.843   1.911  0.5990 -0.2603 -1.0226
 6655TIP3   OH241379   2.260   4.064   0.996  0.5222  0.0948 -0.1718
 6655TIP3    H141380   2.268   4.042   0.903  3.8372  0.3742 -0.0588
 6655TIP3    H241381   2.241   4.158   0.997  1.0271  0.2022 -0.5664
 6656TIP3   OH241382   0.383   1.379   2.363 -0.1140  1.1509 -0.3307
 6656TIP3    H141383   0.334   1.360   2.283  1.1419  0.1518 -0.8977
 6656TIP3    H241384   0.374   1.301   2.417  1.2533  0.7251 -0.6761
 6657TIP3   OH241385   5.498   3.201  14.519 -0.5113 -0.3067 -0.0971
 6657TIP3    H141386   5.515   3.180  14.611  1.8527 -0.4763 -0.5046
 6657TIP3    H241387   5.527   3.124  14.471  1.8756  1.1273 -1.1634
 6658TIP3   OH241388   5.647   2.888   3.698  0.8679 -0.1522  0.0628
 6658TIP3    H141389   5.625   2.974   3.664  1.4974  0.1304  0.3749
 6658TIP3    H241390   5.736   2.872   3.669  0.8789 -0.5489  0.3052
 6659TIP3   OH241391   1.740   4.526  14.881 -0.0722  0.3985  0.3927
 6659TIP3    H141392   1.700   4.482  14.806 -0.4992  1.5714 -0.0966
 6659TIP3    H241393   1.671   4.527  14.948  0.7003 -1.7748  1.3367
 6660TIP3   OH241394   1.188   5.081  10.797  0.4050  0.8333  0.0214
 6660TIP3    H141395   1.148   5.106  10.881 -0.0786  0.5041 -0.1058
 6660TIP3    H241396   1.130   5.012  10.763 -0.0746  1.7840 -1.1404
 6661TIP3   OH241397   1.597   1.958   3.213  0.0733  0.2311  0.0476
 6661TIP3    H141398   1.607   1.901   3.289  0.0789 -1.4106 -1.1467
 6661TIP3    H241399   1.677   1.946   3.163  0.3641  1.8134  0.0775
 6662TIP3   OH241400   0.185   3.727  13.004  0.2038  0.1307 -1.0471
 6662TIP3    H141401   0.231   3.652  12.966  0.0143 -1.1844  1.1664
 6662TIP3    H241402   0.251   3.770  13.059 -0.6620 -0.7551  0.7761
 6663TIP3   OH241403   4.364   6.297  11.878  0.1725  0.0965  0.4542
 6663TIP3    H141404   4.412   6.372  11.844 -0.6549  0.2748 -0.3448
 6663TIP3    H241405   4.300   6.276  11.810 -0.4259 -0.5689  1.1988
 6664TIP3   OH241406   3.223   2.947  14.475  0.2210 -0.3574  0.2215
 6664TIP3    H141407   3.273   2.987  14.404  0.7295 -0.9293  0.2465
 6664TIP3    H241408   3.280   2.878  14.508 -0.4833 -0.8465  0.4309
 6665TIP3   OH241409   5.692   5.720  14.677  0.1167 -0.1962  0.4281
 6665TIP3    H141410   5.717   5.728  14.769  4.3439 -0.0412 -0.5175
 6665TIP3    H241411   5.660   5.807  14.654 -1.4936 -0.3764  1.8091
 6666TIP3   OH241412   6.888   0.942   1.948  0.1177 -0.7423  0.2680
 6666TIP3    H141413   6.823   0.902   1.890 -1.0896 -0.4327  1.3435
 6666TIP3    H241414   6.862   1.034   1.951  1.1818 -0.4241 -0.0032
 6667TIP3   OH241415   6.916   2.827  13.959  0.1039  0.7640 -0.6360
 6667TIP3    H141416   6.941   2.860  14.045 -0.6994 -1.0029  0.3313
 6667TIP3    H241417   6.972   2.750  13.946 -0.9987 -0.0272 -0.8560
 6668TIP3   OH241418   2.636   3.779  13.491 -0.2046  0.5306  0.2190
 6668TIP3    H141419   2.631   3.817  13.403 -1.0070  0.7626  0.3636
 6668TIP3    H241420   2.577   3.832  13.544 -1.0858 -0.6889  0.5056
 6669TIP3   OH241421   4.540   1.375   3.568 -0.2041  1.5526  0.1613
 6669TIP3    H141422   4.449   1.401   3.577 -2.2140 -3.1196 -2.7547
 6669TIP3    H241423   4.557   1.319   3.644 -0.5157  0.8229 -0.2951
 6670TIP3   OH241424   1.983   2.471  10.226  0.0310  0.1039 -0.2583
 6670TIP3    H141425   1.959   2.391  10.271  0.0958 -0.3359 -0.9848
 6670TIP3    H241426   1.909   2.490  10.169 -0.4766  1.1948  0.7188
 6671TIP3   OH241427   0.055   6.440  10.041 -0.1747 -0.1339 -0.0679
 6671TIP3    H141428   0.016   6.429   9.954 -0.2403 -0.2243 -0.0267
 6671TIP3    H241429   0.108   6.519  10.034  0.3933 -0.5339 -0.4015
 6672TIP3   OH241430   6.825   3.231  12.631 -0.3964  0.4056  0.1565
 6672TIP3    H141431   6.844   3.256  12.541 -0.7136 -0.9631 -0.3171
 6672TIP3    H241432   6.814   3.136  12.628 -0.2908  0.3163  1.6660
 6673TIP3   OH241433   6.739   5.112  11.719  0.2539 -0.1582 -0.2753
 6673TIP3    H141434   6.789   5.076  11.792  0.4629  0.1867 -0.2475
 6673TIP3    H241435   6.659   5.146  11.759 -0.4978 -1.6145 -0.4407
 6674TIP3   OH241436   4.850   5.556  12.556  0.9400 -0.0216  0.3201
 6674TIP3    H141437   4.808   5.500  12.621 -1.9812  0.6281 -0.8475
 6674TIP3    H241438   4.854   5.642  12.598 -0.4719  0.2804 -0.1105
 6675TIP3   OH241439   6.384   1.630  12.522 -0.1616  0.0866  0.0538
 6675TIP3    H141440   6.428   1.573  12.459 -2.2200 -0.5865 -0.9043
 6675TIP3    H241441   6.381   1.715  12.479 -0.6256 -0.1164 -0.3422
 6676TIP3   OH241442   1.969   2.197  14.256  0.4350  0.0573  0.9208
 6676TIP3    H141443   2.044   2.256  14.270 -0.2625  1.9123 -2.1929
 6676TIP3    H241444   2.008   2.119  14.217  1.1717 -0.9585  3.5019
 6677TIP3   OH241445   2.691   6.398  14.445 -0.6309  0.4701  0.2158
 6677TIP3    H141446   2.598   6.377  14.447 -0.6600  0.4642 -0.7262
 6677TIP3    H241447   2.722   6.380  14.534 -1.2213 -0.9030  0.1645
 6678TIP3   OH241448   4.292   1.427   9.969  0.0961  0.6151  0.3467
 6678TIP3    H141449   4.275   1.370   9.894 -0.0337 -0.0844  0.8991
 6678TIP3    H241450   4.253   1.511   9.944  1.7178  0.9855 -1.1701
 6679TIP3   OH241451   6.540   3.334  13.014  0.5922 -0.0913  0.0146
 6679TIP3    H141452   6.511   3.252  12.973  0.9452  0.4934 -1.4887
 6679TIP3    H241453   6.579   3.383  12.942  0.4279  1.3834  0.9029
 6680TIP3   OH241454   0.934   5.252  12.422 -0.3541  0.3514 -0.0353
 6680TIP3    H141455   0.905   5.329  12.470 -0.5618  0.1377  0.1843
 6680TIP3    H241456   1.027   5.243  12.444 -0.5995 -0.1207  0.8438
 6681TIP3   OH241457   0.921   5.735  11.897 -0.3586  0.1857  0.4280
 6681TIP3    H141458   1.014   5.738  11.876 -0.9913  1.7975 -2.6873
 6681TIP3    H241459   0.890   5.654  11.856 -0.7573  1.0092 -0.9676
 6682TIP3   OH241460   4.914   6.392   1.572 -0.1407  0.5794 -0.1150
 6682TIP3    H141461   5.004   6.407   1.543  0.1141 -1.4771 -0.5671
 6682TIP3    H241462   4.923   6.349   1.658 -0.6349 -0.3845 -0.5262
 6683TIP3   OH241463   2.202   0.535  11.956 -0.4950  0.3221 -0.2522
 6683TIP3    H141464   2.129   0.474  11.967  0.3839 -0.9643 -1.2107
 6683TIP3    H241465   2.161   0.622  11.956 -2.1159 -0.3921 -1.4052
 6684TIP3   OH241466   1.185   6.328   9.289 -0.0953 -0.5120 -0.1622
 6684TIP3    H141467   1.106   6.287   9.254  0.6602 -2.5033  0.3597
 6684TIP3    H241468   1.255   6.300   9.230  0.3089  0.9905 -0.4471
 6685TIP3   OH241469   1.643   0.388  14.643  0.6245 -0.3100  0.2364
 6685TIP3    H141470   1.637   0.392  14.548  0.7060 -1.5613  0.1546
 6685TIP3    H241471   1.552   0.381  14.673  0.5532  0.7339  0.3101
 6686TIP3   OH241472   1.203   5.354  12.412  0.0816 -0.4171  0.7298
 6686TIP3    H141473   1.230   5.371  12.322 -2.0805 -0.5601  0.0074
 6686TIP3    H241474   1.259   5.281  12.440  1.6589  0.4533 -0.0055
 6687TIP3   OH241475   3.060   1.586   0.697  0.1287 -0.2582  0.0260
 6687TIP3    H141476   2.995   1.600   0.766  0.2415  0.1500  0.0497
 6687TIP3    H241477   3.064   1.670   0.651 -0.4154 -0.7081 -0.8717
 6688TIP3   OH241478   4.530   6.074  11.121  0.0362 -0.1598 -0.2098
 6688TIP3    H141479   4.497   6.011  11.057 -1.0602  1.9456 -1.8495
 6688TIP3    H241480   4.577   6.139  11.069  1.1231  0.4246  1.4098
 6689TIP3   OH241481   6.408   2.203   1.749 -0.2490 -0.3901 -0.6073
 6689TIP3    H141482   6.341   2.270   1.730 -0.4326 -0.6103 -0.7462
 6689TIP3    H241483   6.456   2.238   1.823 -0.2322 -0.0200 -0.7885
 6690TIP3   OH241484   1.554   0.958   0.338 -0.3471  0.1706 -0.2645
 6690TIP3    H141485   1.532   0.913   0.420  0.6066 -2.7764 -1.5023
 6690TIP3    H241486   1.488   0.928   0.276 -0.2312  1.2668 -0.9347
 6691TIP3   OH241487   0.967   2.644   1.203 -0.6379 -0.4960  0.3218
 6691TIP3    H141488   1.037   2.681   1.150 -1.8017 -1.3863 -1.9922
 6691TIP3    H241489   1.012   2.595   1.272  1.0060 -0.7033 -0.8346
 6692TIP3   OH241490   6.476   6.725   9.648 -0.3087 -0.1502  0.1266
 6692TIP3    H141491   6.436   6.646   9.611 -2.5376  0.5436  0.8492
 6692TIP3    H241492   6.414   6.795   9.625  1.9356  1.5709 -1.1312
 6693TIP3   OH241493   5.690   6.525   4.538  0.1198  0.1503  0.4870
 6693TIP3    H141494   5.603   6.499   4.507  1.2800 -1.1734 -1.9623
 6693TIP3    H241495   5.698   6.617   4.510  0.2293 -0.3292 -1.1912
 6694TIP3   OH241496   3.736   2.629  13.844 -0.0895 -0.0619  0.0536
 6694TIP3    H141497   3.684   2.616  13.923  0.2239 -3.3002 -0.1288
 6694TIP3    H241498   3.805   2.562  13.850 -0.8043 -1.3212 -3.4972
 6695TIP3   OH241499   4.890   6.318  14.698  0.7742  0.2253  0.2116
 6695TIP3    H141500   4.800   6.286  14.706  0.1803  1.4776 -1.1406
 6695TIP3    H241501   4.922   6.279  14.617  2.5586 -2.5985  2.0670
 6696TIP3   OH241502   1.893   2.030   9.831 -0.4429  0.5300  0.2465
 6696TIP3    H141503   1.941   2.040   9.913 -1.3786 -1.3789  1.0957
 6696TIP3    H241504   1.959   2.004   9.767 -0.2666 -2.7384  1.5438
 6697TIP3   OH241505   0.325   5.219  11.058 -0.0871 -0.4949 -0.4718
 6697TIP3    H141506   0.308   5.262  10.974  0.4914 -0.8821 -0.7995
 6697TIP3    H241507   0.312   5.126  11.041  2.6545 -0.8990 -0.8923
 6698TIP3   OH241508   6.581   0.692  13.554 -0.1999 -0.4034  0.5287
 6698TIP3    H141509   6.560   0.775  13.511  0.4115 -0.5404 -0.0507
 6698TIP3    H241510   6.615   0.717  13.640  1.4506  0.0511 -0.2174
 6699TIP3   OH241511   4.864   0.058  14.245  0.2014  0.3614 -0.5017
 6699TIP3    H141512   4.850  -0.024  14.197  0.5853  0.2299 -0.3943
 6699TIP3    H241513   4.920   0.110  14.187  1.3478 -0.1227  0.1375
 6700TIP3   OH241514   6.277   2.211   0.401 -0.4357 -0.0392  0.2456
 6700TIP3    H141515   6.245   2.157   0.328  1.1180 -1.3821  0.4922
 6700TIP3    H241516   6.214   2.196   0.471 -0.7279 -0.5166 -0.1130
 6701TIP3   OH241517   1.581   4.154  14.326  0.0810  0.6029 -0.2411
 6701TIP3    H141518   1.549   4.241  14.349  1.2945  0.6250  1.5620
 6701TIP3    H241519   1.543   4.096  14.392  0.9225  0.1119 -0.1627
 6702TIP3   OH241520   4.699   4.143  10.270 -0.1070  0.3138  0.1021
 6702TIP3    H141521   4.790   4.167  10.287 -0.3706  2.2796 -0.9036
 6702TIP3    H241522   4.653   4.163  10.351  0.1069  0.8530  0.0944
 6703TIP3   OH241523   5.516   4.960  14.322 -0.4049 -0.7812 -0.2983
 6703TIP3    H141524   5.575   4.989  14.252 -0.8695 -0.2931 -0.5018
 6703TIP3    H241525   5.561   4.983  14.403 -0.5233  0.0477 -0.4584
 6704TIP3   OH241526   2.245   4.269  12.477 -0.2360  0.3385  0.3319
 6704TIP3    H141527   2.224   4.176  12.483 -0.8259 -0.0763 -4.3771
 6704TIP3    H241528   2.166   4.309  12.442 -0.1197  2.8184  2.5951
 6705TIP3   OH241529   6.427   4.586  10.479 -0.4092  0.3044  0.7452
 6705TIP3    H141530   6.457   4.525  10.546  1.3509 -1.1040 -1.1977
 6705TIP3    H241531   6.364   4.643  10.524 -2.0865 -2.8459  2.6770
 6706TIP3   OH241532   6.618   0.364  10.966 -0.2425 -0.0388  0.0565
 6706TIP3    H141533   6.597   0.416  11.044 -1.9260  1.4111 -1.2835
 6706TIP3    H241534   6.711   0.341  10.978 -0.2854  0.6184  2.1805
 6707TIP3   OH241535   2.174   6.659  12.285  0.2136  0.0759 -0.1623
 6707TIP3    H141536   2.100   6.598  12.288  0.9042 -0.8671 -1.3278
 6707TIP3    H241537   2.138   6.737  12.243 -1.0111  1.0438  2.4853
 6708TIP3   OH241538   2.715   2.320  12.551  0.4108  0.5068  0.3849
 6708TIP3    H141539   2.707   2.225  12.551  1.2152  0.3789  2.6189
 6708TIP3    H241540   2.809   2.336  12.555  0.4060  1.4883 -1.7287
 6709TIP3   OH241541   2.431   4.421   9.316 -0.1076  0.1156 -0.0496
 6709TIP3    H141542   2.476   4.343   9.283  2.4946  2.2497 -1.9928
 6709TIP3    H241543   2.494   4.461   9.376 -0.9861  1.2089  0.1654
 6710TIP3   OH241544   6.729   0.112  14.106 -0.1355  0.0764  0.2592
 6710TIP3    H141545   6.807   0.159  14.137  0.1664  0.0408 -0.4302
 6710TIP3    H241546   6.696   0.166  14.034 -1.3847  0.6640  1.2202
 6711TIP3   OH241547   4.029   0.398  11.927 -0.1033  0.4042 -0.1849
 6711TIP3    H141548   3.962   0.441  11.981 -2.7303 -1.5200 -1.6686
 6711TIP3    H241549   4.041   0.457  11.853 -1.1904  0.2111 -0.5453
 6712TIP3   OH241550   2.683   3.716   1.498  0.3144  0.3188  0.3585
 6712TIP3    H141551   2.767   3.758   1.479  1.3005 -1.9320 -0.7127
 6712TIP3    H241552   2.674   3.649   1.430 -0.9436 -1.3891  2.0839
 6713TIP3   OH241553   6.852   5.519  14.099 -0.2057 -0.8291 -0.1314
 6713TIP3    H141554   6.881   5.428  14.105 -0.3991 -0.8503  0.5653
 6713TIP3    H241555   6.932   5.570  14.092 -0.0524 -0.9723  0.6005
 6714TIP3   OH241556   0.873   7.127  10.199  0.3640  0.1991 -0.1915
 6714TIP3    H141557   0.814   7.184  10.148 -0.2073 -0.0912  0.1415
 6714TIP3    H241558   0.908   7.185  10.267 -0.5138  0.0727  0.3846
 6715TIP3   OH241559   4.472   0.377   3.158 -0.5255  0.3905 -0.2850
 6715TIP3    H141560   4.499   0.414   3.242  1.4656 -0.9398 -0.2784
 6715TIP3    H241561   4.416   0.444   3.119 -0.5034  1.5458  1.5560
 6716TIP3   OH241562   0.867   1.137  12.833 -0.4478 -0.4004  0.5113
 6716TIP3    H141563   0.947   1.086  12.816 -0.3894 -0.8571  1.9728
 6716TIP3    H241564   0.832   1.098  12.913 -1.5875  0.4748  0.4465
 6717TIP3   OH241565   3.899   6.297  12.688 -0.6096 -0.4001 -0.4300
 6717TIP3    H141566   3.914   6.251  12.605 -1.9193 -0.6750 -0.5189
 6717TIP3    H241567   3.978   6.352  12.698  1.0717 -2.7011 -0.2295
 6718TIP3   OH241568   6.639   1.792  11.204 -0.0976 -0.1003  0.0114
 6718TIP3    H141569   6.552   1.829  11.220  0.6957  0.7260  3.3415
 6718TIP3    H241570   6.632   1.701  11.231  0.0280 -0.0419  0.2505
 6719TIP3   OH241571   5.841   4.717  14.572  0.2094 -0.1072 -0.0065
 6719TIP3    H141572   5.761   4.668  14.553  0.0423 -1.2784  3.0464
 6719TIP3    H241573   5.855   4.772  14.495 -2.5029 -1.1864 -1.4062
 6720TIP3   OH241574   4.899   0.690  14.522 -0.6079  0.0330 -0.0979
 6720TIP3    H141575   4.968   0.626  14.540 -1.2035 -0.5420  0.1624
 6720TIP3    H241576   4.940   0.753  14.463  0.4177  0.1918  0.7583
 6721TIP3   OH241577   1.703   0.856  12.102  0.1823 -0.3860  0.1953
 6721TIP3    H141578   1.738   0.944  12.090  1.4473 -0.6038  1.9483
 6721TIP3    H241579   1.630   0.851  12.040 -0.8243  2.3898  1.0009
 6722TIP3   OH241580   1.625   4.513  11.675  0.2793 -0.4578  0.6040
 6722TIP3    H141581   1.584   4.599  11.682 -0.6390 -0.7172 -1.1176
 6722TIP3    H241582   1.712   4.525  11.715  0.1567  1.2466  0.4404
 6723TIP3   OH241583   4.929   6.981  14.961 -0.3358  0.2214  0.1669
 6723TIP3    H141584   4.936   7.075  14.981 -1.8467  0.1781  1.0355
 6723TIP3    H241585   4.892   6.943  15.040 -0.5673 -0.9839 -0.5049
 6724TIP3   OH241586   5.887   0.175   1.007 -0.4136 -0.2110  0.0110
 6724TIP3    H141587   5.934   0.250   0.970 -1.6184  0.0550 -1.0722
 6724TIP3    H241588   5.796   0.202   1.007 -0.7807 -1.3855  0.3593
 6725TIP3   OH241589   5.375   3.203   2.636  0.1725  0.0223  0.0470
 6725TIP3    H141590   5.458   3.156   2.632  1.0108  1.5201 -1.0435
 6725TIP3    H241591   5.400   3.295   2.645 -1.3908  0.4240  0.5698
 6726TIP3   OH241592   1.663   1.036   0.656 -0.0329  0.5893  0.6336
 6726TIP3    H141593   1.586   1.077   0.696  0.2319  1.1717  0.5552
 6726TIP3    H241594   1.628   0.963   0.606 -0.8121  2.0839 -1.1412
 6727TIP3   OH241595   3.814   3.914   0.148 -0.3579  0.1460  0.0399
 6727TIP3    H141596   3.742   3.859   0.117  0.6535 -0.4281 -1.3736
 6727TIP3    H241597   3.780   4.004   0.141 -1.4884 -0.1793  0.9546
 6728TIP3   OH241598   0.436   5.575  14.725 -0.3371 -0.0707 -0.4340
 6728TIP3    H141599   0.471   5.641  14.664 -2.2296  1.9966  0.5700
 6728TIP3    H241600   0.466   5.604  14.811 -2.2349  0.2532  0.1553
 6729TIP3   OH241601   5.075   1.646  12.041 -0.7021 -0.0136  0.2033
 6729TIP3    H141602   4.997   1.681  12.084 -0.4896  0.7653 -0.0178
 6729TIP3    H241603   5.145   1.707  12.065 -0.1146 -0.8230  0.5705
 6730TIP3   OH241604   0.558   4.187  14.805  0.2282 -0.1572  0.7056
 6730TIP3    H141605   0.577   4.261  14.747 -0.0310  0.2206  1.1045
 6730TIP3    H241606   0.504   4.224  14.874 -0.7923 -0.9410  0.3376
 6731TIP3   OH241607   0.451   5.026  12.495 -0.3335 -0.1327  0.6058
 6731TIP3    H141608   0.455   4.972  12.574 -0.6617 -0.1857  0.5863
 6731TIP3    H241609   0.538   5.064  12.487  0.5216 -2.1905 -0.4707
 6732TIP3   OH241610   2.887   5.944  12.694  0.4510  0.5510 -0.4373
 6732TIP3    H141611   2.926   5.878  12.637  0.8848  0.3477  0.0887
 6732TIP3    H241612   2.918   5.922  12.782  0.3142  1.2462 -0.2067
 6733TIP3   OH241613   6.679   6.352   1.479 -0.7299  0.0336 -0.0924
 6733TIP3    H141614   6.610   6.376   1.417 -0.2654 -0.3876 -0.7904
 6733TIP3    H241615   6.684   6.257   1.473  0.6414  0.1315 -0.8697
 6734TIP3   OH241616   0.253   5.534  11.441 -0.1072 -0.8377 -0.2680
 6734TIP3    H141617   0.273   5.445  11.470  0.0680 -0.6836  0.0913
 6734TIP3    H241618   0.300   5.590  11.503 -2.7072 -0.4161  1.4870
 6735TIP3   OH241619   3.395   0.713  14.957 -0.4249  0.1147 -0.3138
 6735TIP3    H141620   3.485   0.687  14.978 -0.7605 -0.4144  0.5493
 6735TIP3    H241621   3.387   0.698  14.863 -0.0372 -1.2257 -0.1623
 6736TIP3   OH241622   4.579   4.408  10.089 -0.4475 -0.4146  0.5069
 6736TIP3    H141623   4.512   4.370  10.032  0.2106  0.2865 -0.7662
 6736TIP3    H241624   4.549   4.388  10.177 -1.5571 -1.4279 -0.0713
 6737TIP3   OH241625   3.563   2.604   0.138  0.3611  0.0342 -0.0005
 6737TIP3    H141626   3.525   2.666   0.200  1.4891  0.2142  0.5333
 6737TIP3    H241627   3.592   2.658   0.065 -0.6832 -0.1408 -0.5557
 6738TIP3   OH241628   2.484   1.270   0.451  0.4801 -0.8794 -0.2570
 6738TIP3    H141629   2.547   1.203   0.424  0.5982 -0.4577 -1.0395
 6738TIP3    H241630   2.492   1.339   0.386 -0.3688 -0.5500 -0.0296
 6739TIP3   OH241631   1.867   5.995   0.141 -0.0070  0.1009 -0.0846
 6739TIP3    H141632   1.850   6.024   0.052  0.3001  2.4907  0.5802
 6739TIP3    H241633   1.962   6.001   0.151 -0.1524  1.3302  0.8312
 6740TIP3   OH241634   1.915   4.704  15.131 -0.7898  0.8489 -0.5362
 6740TIP3    H141635   1.967   4.639  15.083 -1.0299  0.1341  0.1498
 6740TIP3    H241636   1.848   4.731  15.069 -1.8955 -1.0229 -0.2427
 6741TIP3   OH241637   6.866   6.501   1.966 -0.9027 -0.1738  0.2693
 6741TIP3    H141638   6.856   6.475   2.057  1.3624  0.1395  0.6768
 6741TIP3    H241639   6.847   6.594   1.965 -0.2174 -0.0207  0.5978
 6742TIP3   OH241640   1.845   2.307  10.717 -0.5084 -0.6552 -0.4473
 6742TIP3    H141641   1.940   2.298  10.717 -0.3958  0.1114  1.4070
 6742TIP3    H241642   1.813   2.224  10.754 -0.3667  0.0942  1.4740
 6743TIP3   OH241643   2.678   6.682  14.407  0.5175  0.0525  0.2722
 6743TIP3    H141644   2.725   6.710  14.328  0.2030 -1.1391 -0.3658
 6743TIP3    H241645   2.649   6.593  14.387 -0.7130  0.2134  1.2267
 6744TIP3   OH241646   1.093   5.616   2.506  0.1066  0.1606 -0.3468
 6744TIP3    H141647   1.120   5.581   2.421 -1.6115  0.7656 -1.1866
 6744TIP3    H241648   1.012   5.570   2.527 -0.1317  0.8822  0.3668
 6745TIP3   OH241649   6.332   1.321  14.807  0.5634 -0.5172  0.4716
 6745TIP3    H141650   6.328   1.416  14.796  2.3668 -0.3157  1.2203
 6745TIP3    H241651   6.352   1.288  14.720  3.8485  0.1700  0.8338
 6746TIP3   OH241652   2.472   4.537   4.942  0.2914  0.3994  0.7208
 6746TIP3    H141653   2.489   4.445   4.924  0.6727  0.6720 -0.4364
 6746TIP3    H241654   2.419   4.537   5.022  0.0739 -0.8269  0.5988
 6747TIP3   OH241655   0.812   3.809  14.479 -0.8396 -0.6863 -0.1663
 6747TIP3    H141656   0.826   3.903  14.488  2.8853 -0.9990 -1.2124
 6747TIP3    H241657   0.799   3.794  14.386  0.3812 -1.3537 -0.2473
 6748TIP3   OH241658   3.768   7.117   0.874 -0.1929  0.2601  1.0464
 6748TIP3    H141659   3.697   7.117   0.810  1.2761 -0.8134 -0.7129
 6748TIP3    H241660   3.741   7.053   0.940 -0.9071 -0.1031  0.4273
 6749TIP3   OH241661   3.189   0.531  11.584 -0.9200 -0.3647 -0.7087
 6749TIP3    H141662   3.234   0.609  11.551  1.4412 -1.8628 -1.2871
 6749TIP3    H241663   3.245   0.458  11.558 -1.9936 -2.1313  1.5692
 6750TIP3   OH241664   3.043   0.588  11.804 -0.2852 -0.1528  0.5373
 6750TIP3    H141665   3.068   0.585  11.712 -0.4315  0.1275  0.4860
 6750TIP3    H241666   2.948   0.604  11.802 -0.0071  1.7201  0.7441
 6751TIP3   OH241667   7.176   1.812   0.182  0.0818  0.2738  0.0234
 6751TIP3    H141668   7.173   1.876   0.111 -0.8744 -1.7430 -1.8988
 6751TIP3    H241669   7.094   1.764   0.174  0.6180 -1.0028  1.5874
 6752TIP3   OH241670   0.330   6.637   1.418  0.5228  0.1025  0.3595
 6752TIP3    H141671   0.287   6.718   1.392  1.7558  0.9667  0.9670
 6752TIP3    H241672   0.422   6.660   1.428  0.8022 -1.2314  1.1093
 6753TIP3   OH241673   4.113   2.524  11.233 -0.3951  0.1109  0.0529
 6753TIP3    H141674   4.133   2.609  11.273 -2.5454 -0.6767  3.1702
 6753TIP3    H241675   4.037   2.542  11.177 -0.4509  0.3819  0.2128
 6754TIP3   OH241676   1.561   2.492   3.122 -0.4610  0.0468  0.1275
 6754TIP3    H141677   1.558   2.586   3.107 -0.5260 -0.0390 -0.4264
 6754TIP3    H241678   1.470   2.467   3.138 -0.5759 -0.0737 -0.7065
 6755TIP3   OH241679   2.568   6.343  12.815  0.3610  0.1512  0.0850
 6755TIP3    H141680   2.559   6.248  12.806 -0.8190  0.2463  0.1502
 6755TIP3    H241681   2.636   6.366  12.751  0.8340 -0.7622  0.2438
 6756TIP3   OH241682   1.472   5.782   3.901 -0.0109  0.3971 -0.7910
 6756TIP3    H141683   1.530   5.837   3.955 -1.1591  1.5375 -0.6596
 6756TIP3    H241684   1.426   5.844   3.845 -0.7293 -0.5244 -1.2505
 6757TIP3   OH241685   5.857   5.707   0.323 -0.0517  0.3810  0.3062
 6757TIP3    H141686   5.765   5.728   0.338 -0.1791 -0.5381  0.9015
 6757TIP3    H241687   5.864   5.614   0.345  1.6650  1.1122  3.4297
 6758TIP3   OH241688   5.078   6.684  12.888 -0.8586  0.3910  0.4367
 6758TIP3    H141689   5.009   6.630  12.925 -1.1718  2.0653  2.5273
 6758TIP3    H241690   5.032   6.748  12.833 -1.0759  1.5886  1.9320
 6759TIP3   OH241691   4.898   6.486  10.444 -0.2248  0.1266  0.2754
 6759TIP3    H141692   4.904   6.468  10.350  2.2733  1.4650  0.0953
 6759TIP3    H241693   4.820   6.540  10.453 -0.0059  0.7350 -1.1784
 6760TIP3   OH241694   3.277   4.513   4.650  0.0882 -0.0853 -0.1877
 6760TIP3    H141695   3.319   4.524   4.735 -0.4763  0.7581  0.0063
 6760TIP3    H241696   3.327   4.445   4.606  0.9488  0.1084  0.4678
 6761TIP3   OH241697   6.719   1.999   9.791  0.0465 -0.1607  0.5405
 6761TIP3    H141698   6.792   2.044   9.834 -0.0669  0.0825  0.4781
 6761TIP3    H241699   6.755   1.971   9.707 -0.6231  2.1650 -0.6007
 6762TIP3   OH241700   4.563   4.838   0.565 -0.6046 -0.6081  0.3341
 6762TIP3    H141701   4.639   4.888   0.537 -1.6959  0.9720  0.0983
 6762TIP3    H241702   4.579   4.820   0.658  0.2205 -0.6216  0.1922
 6763TIP3   OH241703   3.588   5.229  15.262 -0.2937 -0.3203 -0.0588
 6763TIP3    H141704   3.567   5.309  15.214 -1.6168 -0.7815 -0.2859
 6763TIP3    H241705   3.638   5.176  15.200 -0.6234 -0.2417 -0.4000
 6764TIP3   OH241706   4.643   0.505  13.867  0.4568 -0.4143 -0.1448
 6764TIP3    H141707   4.642   0.518  13.962  1.0556  0.3125 -0.2329
 6764TIP3    H241708   4.553   0.477  13.847  0.5029 -1.2426  0.7142
 6765TIP3   OH241709   1.201   3.565  14.268  0.5259 -0.1389 -0.7155
 6765TIP3    H141710   1.138   3.576  14.196 -1.4720 -2.1443  0.5953
 6765TIP3    H241711   1.222   3.472  14.267  0.1431 -0.3008  1.4780
 6766TIP3   OH241712   4.200   6.712  13.629  0.4813 -0.0511  0.3683
 6766TIP3    H141713   4.206   6.639  13.690  1.3133  0.5482  1.0289
 6766TIP3    H241714   4.233   6.676  13.546 -0.1710 -0.7234  0.3925
 6767TIP3   OH241715   0.043   3.481  14.774 -0.2777 -0.0964 -0.3307
 6767TIP3    H141716   0.015   3.571  14.791  0.0831 -0.0057 -0.2041
 6767TIP3    H241717   0.080   3.452  14.858 -1.5415 -0.7944  0.0065
 6768TIP3   OH241718   1.515   7.056  11.140 -0.3538 -0.2048  0.0800
 6768TIP3    H141719   1.581   7.028  11.204 -0.9700  1.1729  1.3917
 6768TIP3    H241720   1.556   7.129  11.094 -0.9545  0.7000  0.9479
 6769TIP3   OH241721   6.261   0.109  10.160 -0.0561  0.2836 -0.4041
 6769TIP3    H141722   6.187   0.135  10.214 -1.3779 -4.1446  0.2877
 6769TIP3    H241723   6.230   0.118  10.070  0.3514  2.7918 -0.3779
 6770TIP3   OH241724   6.113   0.923  14.101  0.0082  0.0686  0.1580
 6770TIP3    H141725   6.037   0.980  14.108 -1.1702 -1.5417  1.4533
 6770TIP3    H241726   6.127   0.890  14.190  0.7021 -1.5086 -0.4845
 6771TIP3   OH241727   1.490   5.943   1.674 -0.1532 -0.1681 -0.7329
 6771TIP3    H141728   1.432   5.916   1.603 -0.2650  1.1959 -1.1821
 6771TIP3    H241729   1.577   5.918   1.645  0.0507  1.9840 -2.2418
 6772TIP3   OH241730   5.239   1.825  11.648 -0.4333 -0.1928 -1.0630
 6772TIP3    H141731   5.209   1.792  11.563  3.4389 -1.6549 -2.0443
 6772TIP3    H241732   5.260   1.917  11.632  0.1220 -0.4167 -1.6580
 6773TIP3   OH241733   2.678   0.637  15.115 -0.6266 -0.0327 -0.2944
 6773TIP3    H141734   2.597   0.588  15.132 -0.0178 -0.4884  1.5036
 6773TIP3    H241735   2.671   0.714  15.171  0.1910 -0.1066 -0.0829
 6774TIP3   OH241736   0.469   2.515  14.634  0.1809  0.0204  0.4684
 6774TIP3    H141737   0.458   2.481  14.545 -0.9165 -0.5389  0.8017
 6774TIP3    H241738   0.564   2.525  14.644  0.3228  0.0386 -0.7393
 6775TIP3   OH241739   0.053   0.055  12.601  0.6159  0.0508 -0.1942
 6775TIP3    H141740  -0.002   0.108  12.543  0.9179  0.0902 -0.4442
 6775TIP3    H241741   0.040   0.093  12.688  0.3763  0.1637 -0.2771
 6776TIP3   OH241742   3.817   3.464   1.134 -0.0908  0.4192 -0.2306
 6776TIP3    H141743   3.910   3.487   1.139  0.0546 -0.2879  0.6672
 6776TIP3    H241744   3.774   3.531   1.187 -0.1817  1.1072 -1.1453
 6777TIP3   OH241745   3.827   1.155   5.335 -0.2163  0.0664  0.5670
 6777TIP3    H141746   3.803   1.077   5.285 -0.5347  0.3036  0.3410
 6777TIP3    H241747   3.839   1.124   5.424  0.2226 -0.3400  0.3656
 6778TIP3   OH241748   2.619   1.207  10.699 -0.2804  0.1600  0.1588
 6778TIP3    H141749   2.596   1.206  10.606  3.9152  2.0627 -1.1387
 6778TIP3    H241750   2.643   1.116  10.719  1.9650  0.2464 -1.7118
 6779TIP3   OH241751   4.570   5.913  14.399 -0.1588  0.7450  0.2853
 6779TIP3    H141752   4.528   5.865  14.470 -0.0068 -0.5726 -0.4841
 6779TIP3    H241753   4.521   5.888  14.321  1.2787  0.1034 -0.4550
 6780TIP3   OH241754   1.072   0.797   2.695  0.0506 -0.4619 -0.1776
 6780TIP3    H141755   1.132   0.835   2.759  0.6906  0.7442 -1.4432
 6780TIP3    H241756   0.987   0.837   2.715 -0.3706 -2.0156  1.4840
 6781TIP3   OH241757   4.780   4.813  14.482  0.2673 -0.2368 -0.0907
 6781TIP3    H141758   4.811   4.723  14.487  1.3128 -0.0321 -1.9840
 6781TIP3    H241759   4.835   4.861  14.544 -0.1951 -0.8514  0.8133
 6782TIP3   OH241760   6.450   6.482  12.475 -0.3316 -0.0136 -0.2799
 6782TIP3    H141761   6.520   6.488  12.540 -0.4552  3.7148 -0.2997
 6782TIP3    H241762   6.377   6.442  12.523  0.7710 -0.9261  0.6896
 6783TIP3   OH241763   2.936   2.628  11.590 -0.2065  0.0233  0.0724
 6783TIP3    H141764   2.853   2.677  11.587 -0.1269  0.2126  0.7638
 6783TIP3    H241765   2.968   2.642  11.679  0.8249  0.3713 -0.3414
 6784TIP3   OH241766   0.877   2.764  13.228  0.0036 -0.3611  0.1079
 6784TIP3    H141767   0.799   2.711  13.212  0.0318 -0.5218  0.4832
 6784TIP3    H241768   0.882   2.823  13.152 -1.3492  0.7127  0.7961
 6785TIP3   OH241769   6.581   2.178   0.993  0.4438  0.6756 -0.2553
 6785TIP3    H141770   6.674   2.169   0.975  0.5974  2.8759 -0.8260
 6785TIP3    H241771   6.542   2.194   0.906 -0.8569 -2.4654 -0.3911
 6786TIP3   OH241772   3.473   5.721  14.225  0.3207  0.5759 -0.0528
 6786TIP3    H141773   3.478   5.786  14.295  0.3939  1.3719 -0.7710
 6786TIP3    H241774   3.542   5.658  14.246 -0.6402 -0.0374  1.3834
 6787TIP3   OH241775   5.906   2.688  11.266  0.0776 -0.0716  1.1479
 6787TIP3    H141776   5.892   2.594  11.270  0.6314 -0.1171  2.6485
 6787TIP3    H241777   5.818   2.726  11.260 -0.1312 -0.6751  0.2760
 6788TIP3   OH241778   6.681   3.566   0.253 -0.2494  0.0683  0.0401
 6788TIP3    H141779   6.620   3.598   0.186  1.2118 -0.7688 -1.7900
 6788TIP3    H241780   6.645   3.481   0.279  0.5126 -0.8724 -1.7268
 6789TIP3   OH241781   6.261   1.568  13.842  0.1350  0.7885  0.0725
 6789TIP3    H141782   6.265   1.473  13.850  2.4276  0.7544 -0.6975
 6789TIP3    H241783   6.327   1.600  13.903  0.0177  1.8339 -0.3192
 6790TIP3   OH241784   2.234   3.940  14.650 -0.0467  0.6294 -1.0581
 6790TIP3    H141785   2.162   3.957  14.590 -1.0044 -0.4635 -0.2582
 6790TIP3    H241786   2.255   4.026  14.687 -0.1035  1.1508 -2.1980
 6791TIP3   OH241787   0.531   6.522   0.192  0.4922 -0.2256 -0.1969
 6791TIP3    H141788   0.578   6.475   0.261  1.0840  0.5845 -0.0380
 6791TIP3    H241789   0.439   6.513   0.216  0.7555  1.8871  1.9474
 6792TIP3   OH241790   1.726   5.539  11.808 -0.0699  0.4934 -0.4420
 6792TIP3    H141791   1.821   5.536  11.812 -0.0912 -1.0536 -0.2753
 6792TIP3    H241792   1.698   5.550  11.899 -0.0441 -0.6443 -0.2729
 6793TIP3   OH241793   7.205   6.180  13.178 -0.3337 -0.1116  0.0662
 6793TIP3    H141794   7.179   6.270  13.156  2.5795  1.4672  2.2625
 6793TIP3    H241795   7.274   6.159  13.115  1.4265  0.6655  1.6595
 6794TIP3   OH241796   4.908   4.356  14.929  0.5188  0.1237 -0.7355
 6794TIP3    H141797   4.911   4.448  14.902 -1.6507  0.4229 -0.1886
 6794TIP3    H241798   4.867   4.310  14.856  0.8247 -0.2511 -0.6732
 6795TIP3   OH241799   4.262   1.443  12.725 -0.6890  0.4023  0.5451
 6795TIP3    H141800   4.307   1.454  12.808  0.6081  1.8116 -0.2934
 6795TIP3    H241801   4.330   1.453  12.659 -2.2027  2.8084 -0.8098
 6796TIP3   OH241802   2.042   1.314  11.404 -0.4025  0.3092 -0.9289
 6796TIP3    H141803   2.005   1.348  11.485  2.0370  0.6933  0.0864
 6796TIP3    H241804   2.047   1.390  11.346 -4.2521 -0.3357 -2.4609
 6797TIP3   OH241805   2.635   6.930   0.361 -0.5897 -0.1941 -0.1171
 6797TIP3    H141806   2.729   6.918   0.371 -0.4864 -0.8920 -1.6272
 6797TIP3    H241807   2.625   7.004   0.302 -1.0744  1.2929  1.7271
 6798TIP3   OH241808   4.081   6.160   4.689 -0.5031 -0.4455  0.0828
 6798TIP3    H141809   4.157   6.183   4.636 -1.1483  1.6009 -0.0476
 6798TIP3    H241810   4.041   6.085   4.644 -0.8972  1.0600 -2.2238
 6799TIP3   OH241811   0.633   2.305  14.923 -0.4475  0.3072 -0.3923
 6799TIP3    H141812   0.573   2.260  14.863  0.8878 -0.4969 -1.1586
 6799TIP3    H241813   0.600   2.395  14.926 -0.6455  0.3224 -2.2017
 6800TIP3   OH241814   1.515   2.688  12.950  0.5114  0.0279 -0.4247
 6800TIP3    H141815   1.534   2.776  12.918  1.1985 -0.0081 -0.1416
 6800TIP3    H241816   1.434   2.663  12.905 -0.9112  1.6269  1.1175
 6801TIP3   OH241817   0.203   6.130   0.950  0.2276 -0.8322  0.2943
 6801TIP3    H141818   0.289   6.141   0.908 -1.1073  2.4085 -2.0218
 6801TIP3    H241819   0.197   6.204   1.011 -1.3120 -0.3726 -0.3815
 6802TIP3   OH241820   4.838   6.560  13.708  0.0938 -0.3101 -0.2525
 6802TIP3    H141821   4.752   6.524  13.728  0.8211 -0.8227  2.3435
 6802TIP3    H241822   4.858   6.617  13.782  2.5558 -1.3059 -0.0449
 6803TIP3   OH241823   2.256   3.956   9.347  0.5182 -0.5655 -0.0737
 6803TIP3    H141824   2.245   4.037   9.297  0.8528 -0.2311  0.3958
 6803TIP3    H241825   2.173   3.946   9.395 -0.3797 -1.6255 -1.7340
 6804TIP3   OH241826   7.014   4.298  11.330 -0.2621  0.4638 -0.2513
 6804TIP3    H141827   7.066   4.373  11.359 -0.5612  0.3126  0.7409
 6804TIP3    H241828   6.946   4.336  11.275 -1.9409  1.3016  2.2391
 6805TIP3   OH241829   5.813   1.654  15.125 -0.3037 -0.0921  0.2445
 6805TIP3    H141830   5.819   1.655  15.220 -3.3284  1.0468  0.5427
 6805TIP3    H241831   5.728   1.614  15.107  0.2215 -0.3576 -2.0098
 6806TIP3   OH241832   4.628   4.222  12.920  0.4228  0.9276 -0.3772
 6806TIP3    H141833   4.543   4.249  12.952  1.2614  1.2303  1.7174
 6806TIP3    H241834   4.656   4.294  12.862 -0.0923  1.5332  0.1201
 6807TIP3   OH241835   5.229   0.536  11.072  0.0974  0.8625 -0.4154
 6807TIP3    H141836   5.310   0.488  11.089 -1.4130 -1.8140 -0.1470
 6807TIP3    H241837   5.194   0.555  11.159 -0.7073 -0.1854 -0.4869
 6808TIP3   OH241838   1.702   2.035   2.067 -0.6064 -0.3670 -0.2755
 6808TIP3    H141839   1.701   1.958   2.124 -1.1392 -1.3792 -1.5830
 6808TIP3    H241840   1.710   1.999   1.979 -2.3329  0.9779 -1.0455
 6809TIP3   OH241841   6.685   5.546  13.183  0.3041  0.0590  0.1689
 6809TIP3    H141842   6.727   5.496  13.253 -0.8511 -0.9972  0.1299
 6809TIP3    H241843   6.661   5.629  13.224  1.0172  0.0578  0.6005
 6810TIP3   OH241844   5.268   0.687  10.733  0.4882  0.1296  0.6694
 6810TIP3    H141845   5.214   0.612  10.709 -0.1014  1.1056 -1.3031
 6810TIP3    H241846   5.221   0.728  10.806  1.2940 -1.8549  2.3990
 6811TIP3   OH241847   4.224   5.392   0.497  0.7128 -0.6250  0.7212
 6811TIP3    H141848   4.226   5.312   0.549  1.2832 -0.0726  1.5752
 6811TIP3    H241849   4.154   5.444   0.536  0.1380 -0.8234 -0.0247
 6812TIP3   OH241850   0.592   3.199  13.733  0.5188 -0.0689 -0.6270
 6812TIP3    H141851   0.551   3.285  13.741 -1.5645 -1.0904  0.3140
 6812TIP3    H241852   0.638   3.187  13.816  1.9823  0.6703 -1.2997
 6813TIP3   OH241853   4.896   1.395   1.059 -0.2036  0.1821  0.1130
 6813TIP3    H141854   4.853   1.310   1.052  0.0147 -0.3033  3.0840
 6813TIP3    H241855   4.837   1.447   1.114 -0.0589  1.7891 -1.1759
 6814TIP3   OH241856   0.787   1.685  12.831 -0.2379 -0.1393 -0.1933
 6814TIP3    H141857   0.721   1.652  12.891 -2.0848 -0.6030 -2.3509
 6814TIP3    H241858   0.787   1.779  12.845 -3.0606  0.1754 -1.6561
 6815TIP3   OH241859   1.459   4.955  12.309 -0.0147  0.2473  0.2845
 6815TIP3    H141860   1.520   4.912  12.370  0.2875  0.0614 -0.1409
 6815TIP3    H241861   1.429   5.033  12.356 -0.2752 -0.2260  0.9169
 6816TIP3   OH241862   6.340   6.337  13.482 -0.2298 -0.2520 -0.2781
 6816TIP3    H141863   6.258   6.292  13.503  0.4330 -0.9292  0.9760
 6816TIP3    H241864   6.404   6.267  13.475  0.8751  0.4278  1.9453
 6817TIP3   OH241865   3.224   7.058  11.391  0.7404  0.4507 -0.4506
 6817TIP3    H141866   3.234   7.147  11.357  1.0625  0.4591 -0.3397
 6817TIP3    H241867   3.299   7.047  11.450  0.9466 -0.0478 -0.8013
 6818TIP3   OH241868   2.666   1.738  12.757 -0.3325 -0.0682 -0.2649
 6818TIP3    H141869   2.731   1.702  12.698  0.2664 -0.5415  0.6501
 6818TIP3    H241870   2.697   1.827  12.776 -1.7931  1.0046 -2.4969
 6819TIP3   OH241871   0.627   3.466  12.119  0.4136  0.2806 -0.7919
 6819TIP3    H141872   0.553   3.507  12.075 -1.0302  0.6467  1.7728
 6819TIP3    H241873   0.589   3.394  12.168  1.7067  0.5856  0.7317
 6820TIP3   OH241874   3.137   5.569   1.637  0.3724 -0.5439 -0.0877
 6820TIP3    H141875   3.209   5.523   1.681  0.8182 -0.1572 -0.4033
 6820TIP3    H241876   3.171   5.588   1.550 -0.2437 -0.6646 -0.3552
 6821TIP3   OH241877   1.317   0.947   0.981 -0.1620  0.0801  0.0845
 6821TIP3    H141878   1.260   0.979   1.051 -1.4051  0.1992 -0.9431
 6821TIP3    H241879   1.281   0.862   0.958 -1.7095  1.3248 -2.4506
 6822TIP3   OH241880   0.592   2.840  13.044  0.3631 -0.2323 -0.1888
 6822TIP3    H141881   0.568   2.928  13.073  0.0741 -0.0568 -0.9509
 6822TIP3    H241882   0.542   2.782  13.103  0.0897  0.1135 -0.0737
 6823TIP3   OH241883   6.228   3.814  12.751 -0.0836  0.2712 -0.4039
 6823TIP3    H141884   6.237   3.719  12.750  1.4705  0.3709  0.3204
 6823TIP3    H241885   6.317   3.846  12.770 -0.9039  1.7860  1.2071
 6824TIP3   OH241886   6.735   0.631  14.553 -0.4742  0.2353 -0.1850
 6824TIP3    H141887   6.689   0.634  14.637  0.1247 -0.3103  0.1694
 6824TIP3    H241888   6.811   0.687  14.565 -1.8565  2.5351 -1.3156
 6825TIP3   OH241889   2.416   3.602  10.563  0.3520  0.0375 -0.6466
 6825TIP3    H141890   2.355   3.675  10.555  0.7159  0.2053 -2.0835
 6825TIP3    H241891   2.448   3.608  10.653  0.3391  1.6239 -0.7137
 6826TIP3   OH241892   5.464   6.288  12.442 -0.3012 -1.3311  0.5790
 6826TIP3    H141893   5.424   6.214  12.396 -0.8775 -1.1665  0.8051
 6826TIP3    H241894   5.478   6.255  12.531 -2.3781 -0.5728  1.2456
 6827TIP3   OH241895   0.728   6.558   1.269 -0.7837 -0.2575  0.4539
 6827TIP3    H141896   0.689   6.620   1.331  0.7655  0.1449  1.0711
 6827TIP3    H241897   0.686   6.474   1.290  0.2696 -0.3109  2.6448
 6828TIP3   OH241898   6.142   3.102  14.442 -0.3106 -0.4231 -0.1368
 6828TIP3    H141899   6.149   3.134  14.352  1.2007  0.6188  0.3087
 6828TIP3    H241900   6.220   3.136  14.486 -0.3458 -1.9993  1.2459
 6829TIP3   OH241901   0.223   1.769   2.933 -0.4591 -0.6517  0.0130
 6829TIP3    H141902   0.219   1.684   2.890  0.3152 -0.4495 -0.4715
 6829TIP3    H241903   0.311   1.773   2.971 -1.1360 -0.8630  1.7227
 6830TIP3   OH241904   0.508   2.984   0.066  0.4544  0.7404  0.2023
 6830TIP3    H141905   0.475   3.073   0.053 -0.9868  0.3481  0.9599
 6830TIP3    H241906   0.455   2.949   0.138  2.6187  0.0931  1.5808
 6831TIP3   OH241907   0.495   6.871  12.883 -0.0471 -0.0594  0.2448
 6831TIP3    H141908   0.566   6.924  12.847  1.3097 -1.5544  0.6058
 6831TIP3    H241909   0.456   6.828  12.808  0.2470 -0.1959  0.1696
 6832TIP3   OH241910   1.653   1.584   3.750 -0.2583  0.7624 -0.2146
 6832TIP3    H141911   1.685   1.626   3.830  1.0531  0.9062 -0.8056
 6832TIP3    H241912   1.619   1.656   3.697 -1.2699  0.6516  0.2403
 6833TIP3   OH241913   0.758   0.622   0.696  0.2000  0.6208 -0.0287
 6833TIP3    H141914   0.703   0.569   0.637  0.2392 -0.7905  1.1454
 6833TIP3    H241915   0.763   0.707   0.653 -2.0037  0.4755 -0.7250
 6834TIP3   OH241916   4.637   6.362   0.654  0.1917  0.2688  0.2977
 6834TIP3    H141917   4.546   6.349   0.683 -0.2445  1.5848 -0.4176
 6834TIP3    H241918   4.675   6.418   0.721  0.0703  0.8311 -0.0999
 6835TIP3   OH241919   6.252   5.405  11.830 -0.2489  0.5403 -0.5440
 6835TIP3    H141920   6.200   5.326  11.817 -3.2274  2.2029  0.3348
 6835TIP3    H241921   6.265   5.410  11.925 -1.1002  1.6684 -0.4751
 6836TIP3   OH241922   6.670   3.833  12.216 -0.0686 -0.6396 -0.0073
 6836TIP3    H141923   6.656   3.746  12.252 -0.9537 -0.4598  0.1165
 6836TIP3    H241924   6.692   3.817  12.124  2.3537 -1.1041  0.5969
 6837TIP3   OH241925   6.211   2.285   0.745 -0.5588 -0.0638 -0.6983
 6837TIP3    H141926   6.156   2.222   0.700 -0.0206 -0.0793 -1.3554
 6837TIP3    H241927   6.171   2.295   0.831  0.4469 -2.7670  0.1624
 6838TIP3   OH241928   5.684   0.770   0.918 -0.2395 -0.3502  0.1682
 6838TIP3    H141929   5.631   0.771   0.837 -0.3805  0.3172  0.2690
 6838TIP3    H241930   5.774   0.762   0.887 -0.2227  0.7328 -0.0976
 6839TIP3   OH241931   5.102   3.695   2.144 -0.0382 -0.8076  0.2971
 6839TIP3    H141932   5.015   3.658   2.156 -0.2464 -0.9124 -1.2860
 6839TIP3    H241933   5.086   3.786   2.117  0.2817 -1.0920 -0.9267
 6840TIP3   OH241934   2.922   0.044   1.113  0.1264  0.4573  0.5330
 6840TIP3    H141935   2.997   0.093   1.148  0.1931  0.8053 -0.0681
 6840TIP3    H241936   2.854   0.053   1.179  0.3258  0.8856  0.6839
 6841TIP3   OH241937   1.285   3.825  12.778  0.6501 -0.3606 -0.5979
 6841TIP3    H141938   1.291   3.735  12.809  0.0853 -0.3182 -0.3524
 6841TIP3    H241939   1.307   3.878  12.855 -2.5270 -0.1953  0.3636
 6842TIP3   OH241940   4.206   1.177  11.442 -0.5822 -0.8604 -0.5693
 6842TIP3    H141941   4.277   1.151  11.383  0.9553  1.7051 -0.0355
 6842TIP3    H241942   4.157   1.242  11.391  0.1949  0.6699  0.5261
 6843TIP3   OH241943   5.676   0.525   2.677  0.6240  0.6213 -0.0108
 6843TIP3    H141944   5.655   0.618   2.666  0.0826  0.5088  0.0402
 6843TIP3    H241945   5.647   0.484   2.596 -2.1509 -0.0046  1.1889
 6844TIP3   OH241946   5.958   6.839  10.314 -0.1572 -0.6589  0.2515
 6844TIP3    H141947   5.912   6.888  10.382  0.2385 -0.2565  0.2315
 6844TIP3    H241948   5.963   6.898  10.240  0.5521 -0.6251  0.3148
 6845TIP3   OH241949   4.057   4.189  14.379 -0.4509 -0.5486  0.3065
 6845TIP3    H141950   3.993   4.169  14.446  0.1493 -0.9575  0.7672
 6845TIP3    H241951   4.131   4.228  14.427 -0.1021 -0.6517 -0.1349
 6846TIP3   OH241952   3.268   5.592  10.630 -0.2638  0.1872 -0.0658
 6846TIP3    H141953   3.326   5.516  10.624 -0.5178 -0.4423  3.5218
 6846TIP3    H241954   3.182   5.555  10.652 -0.7523  1.4176  0.1670
 6847TIP3   OH241955   2.826   3.153  10.698 -0.3837 -0.5977 -0.0196
 6847TIP3    H141956   2.900   3.115  10.745 -2.0770 -1.2450  2.3465
 6847TIP3    H241957   2.862   3.229  10.652  1.3809  0.4024  2.7570
 6848TIP3   OH241958   3.343   2.599  13.661  0.1185  0.1505  0.3320
 6848TIP3    H141959   3.431   2.562  13.653  0.1682  0.6640 -2.1429
 6848TIP3    H241960   3.289   2.547  13.602 -1.5757 -0.8815  2.6332
 6849TIP3   OH241961   3.895   1.724  13.885 -0.5822  0.1147 -0.3041
 6849TIP3    H141962   3.965   1.776  13.925 -1.6189  0.7125  0.7995
 6849TIP3    H241963   3.878   1.767  13.801 -1.1501  1.3777  0.4205
 6850TIP3   OH241964   0.626   0.216  11.646  0.2230 -0.0355  0.1361
 6850TIP3    H141965   0.701   0.208  11.705 -0.5076 -0.4009  1.0513
 6850TIP3    H241966   0.570   0.141  11.669 -0.2983  0.0812 -0.7107
 6851TIP3   OH241967   0.292   2.772  14.912 -0.0606 -0.1947 -0.1945
 6851TIP3    H141968   0.213   2.741  14.867 -1.0471 -0.1403  1.4402
 6851TIP3    H241969   0.343   2.692  14.928 -0.4150 -0.3990 -0.0756
 6852TIP3   OH241970   5.813   0.866  14.017  0.1539 -0.1190  0.6235
 6852TIP3    H141971   5.875   0.907  13.956 -0.6090 -1.0813 -0.8761
 6852TIP3    H241972   5.860   0.791  14.052 -0.0112 -0.6689 -0.2780
 6853TIP3   OH241973   6.897   4.710  11.627  0.0566  0.2478  0.7241
 6853TIP3    H141974   6.872   4.707  11.535 -1.1584 -0.3360  1.0434
 6853TIP3    H241975   6.933   4.624  11.645  1.2575  0.7041  0.5557
 6854TIP3   OH241976   6.613   1.503  11.298  0.1263  0.6247 -1.0201
 6854TIP3    H141977   6.639   1.418  11.334  1.0306  2.0634  2.0579
 6854TIP3    H241978   6.532   1.525  11.344 -0.8831  0.8686 -2.8205
 6855TIP3   OH241979   2.244   0.190   0.243 -0.1380 -0.0256 -0.3011
 6855TIP3    H141980   2.265   0.219   0.332  0.0725  1.0401 -0.6758
 6855TIP3    H241981   2.187   0.114   0.254  0.9461 -0.7191  0.7484
 6856TIP3   OH241982   4.427   0.270   1.919 -0.1835  0.3735 -0.1620
 6856TIP3    H141983   4.405   0.361   1.902 -1.0868  0.3268  0.6886
 6856TIP3    H241984   4.365   0.220   1.866  1.5564  0.2058 -2.1867
 6857TIP3   OH241985   1.683   2.737  11.296 -0.1975  0.3619 -0.1588
 6857TIP3    H141986   1.677   2.659  11.351 -1.5749  0.2772 -0.4013
 6857TIP3    H241987   1.775   2.741  11.271 -0.4031 -2.3369 -1.7792
 6858TIP3   OH241988   0.730   1.791  12.570  0.1149  0.2941  0.1642
 6858TIP3    H141989   0.777   1.726  12.518 -0.1429 -0.2034  0.5508
 6858TIP3    H241990   0.746   1.767  12.661 -0.0042  0.7530  0.3092
 6859TIP3   OH241991   1.492   0.101  11.868 -0.3500  0.1037  0.3761
 6859TIP3    H141992   1.470   0.186  11.908  1.1826  0.8269 -0.2266
 6859TIP3    H241993   1.487   0.039  11.941 -4.0665  0.1400  0.3459
 6860TIP3   OH241994   3.350   0.721  12.207  0.3283  0.5752  0.2324
 6860TIP3    H141995   3.355   0.690  12.117 -1.4504 -1.1099  0.6610
 6860TIP3    H241996   3.438   0.755  12.225  1.0454 -0.0648 -1.7489
 6861TIP3   OH241997   6.508   0.060   0.428 -0.5051 -0.0995  0.4235
 6861TIP3    H141998   6.492   0.108   0.347  0.9988 -0.4408 -0.0870
 6861TIP3    H241999   6.432   0.082   0.483 -0.5268  1.7995 -0.2832
 6862TIP3   OH242000   3.734   3.260  13.473  0.4102  0.0854  0.2455
 6862TIP3    H142001   3.643   3.234  13.490  0.7048 -2.4853 -1.4093
 6862TIP3    H242002   3.784   3.226  13.547  0.4930 -2.4365 -0.8704
 6863TIP3   OH242003   3.809   0.379  15.083 -0.3543 -0.2838  0.7425
 6863TIP3    H142004   3.858   0.460  15.071 -0.8850 -0.0572  0.0237
 6863TIP3    H242005   3.727   0.394  15.035 -0.5631 -1.1499  0.8190
 6864TIP3   OH242006   1.096   1.533   2.732  0.1577  0.0381  0.3148
 6864TIP3    H142007   1.054   1.450   2.708  0.6897 -0.3940  0.8439
 6864TIP3    H242008   1.074   1.593   2.661  0.6906 -0.8667 -0.6273
 6865TIP3   OH242009   6.847   2.813  13.132 -0.6081  0.0969  0.4742
 6865TIP3    H142010   6.872   2.750  13.065 -1.6228 -1.9973  1.9699
 6865TIP3    H242011   6.770   2.857  13.097  1.1197  1.8990 -1.3404
 6866TIP3   OH242012   5.118   4.704   2.047 -0.1155 -0.5320 -0.7205
 6866TIP3    H142013   5.125   4.778   1.986  2.6359  0.8638  1.0654
 6866TIP3    H242014   5.136   4.627   1.993 -1.5173  0.2182 -2.3518
 6867TIP3   OH242015   5.392   6.141  13.707  0.1112 -0.7025  0.2722
 6867TIP3    H142016   5.354   6.067  13.756 -1.3273  0.4821  1.0495
 6867TIP3    H242017   5.483   6.145  13.736 -0.3840 -0.8016  1.9559
 6868TIP3   OH242018   2.386   3.428   1.668  0.1603 -0.5658 -0.4759
 6868TIP3    H142019   2.432   3.477   1.736  0.2371  0.1064 -0.9953
 6868TIP3    H242020   2.381   3.489   1.594 -2.4263 -0.2793 -0.1308
 6869TIP3   OH242021   4.842   3.632  15.304 -0.2109  0.2901 -0.5253
 6869TIP3    H142022   4.884   3.650  15.388 -2.2929  0.5033  0.5446
 6869TIP3    H242023   4.861   3.539  15.288  0.9386  0.4670 -0.2832
 6870TIP3   OH242024   0.914   0.511   9.757  0.7495  0.2404  0.0029
 6870TIP3    H142025   0.980   0.465   9.704  0.9536 -1.1972  1.4315
 6870TIP3    H242026   0.932   0.604   9.742 -0.0928 -0.0274 -3.5306
 6871TIP3   OH242027   4.842   3.444  13.601  1.0242 -0.0587  0.3554
 6871TIP3    H142028   4.795   3.440  13.518  0.5962  0.6918  0.5575
 6871TIP3    H242029   4.884   3.358  13.608  0.2133 -0.5138 -0.1317
 6872TIP3   OH242030   3.145   3.825   0.447 -1.0037 -0.1086  0.0896
 6872TIP3    H142031   3.207   3.845   0.518 -0.3326  0.3927 -0.6195
 6872TIP3    H242032   3.067   3.876   0.469 -0.7416  0.1754  0.3838
 6873TIP3   OH242033   4.430   3.069  11.644 -0.0166  0.2697 -0.3703
 6873TIP3    H142034   4.485   2.999  11.678  0.9656  0.2467 -1.9287
 6873TIP3    H242035   4.345   3.054  11.684  0.3199 -1.4893 -0.2328
 6874TIP3   OH242036   5.338   0.455  10.356  0.6124  0.0245  0.2727
 6874TIP3    H142037   5.352   0.546  10.380  0.6176  0.1558 -0.2349
 6874TIP3    H242038   5.371   0.406  10.431 -2.6152  0.4744  2.1910
 6875TIP3   OH242039   4.458   6.960   2.805 -0.0656  0.0906 -0.0872
 6875TIP3    H142040   4.452   7.049   2.838  1.4282 -0.3770  1.5770
 6875TIP3    H242041   4.518   6.966   2.730  0.0935  0.4717  0.0700
 6876TIP3   OH242042   3.737   4.689  12.233 -0.0615  0.5119  0.0261
 6876TIP3    H142043   3.721   4.701  12.139  2.9714 -2.2618 -1.0237
 6876TIP3    H242044   3.742   4.778  12.268 -1.0942  1.6322 -2.4170
 6877TIP3   OH242045   0.030   1.498  14.769 -0.2672 -0.3880 -0.1921
 6877TIP3    H142046  -0.027   1.424  14.750 -0.0338 -0.4164 -0.8003
 6877TIP3    H242047  -0.009   1.572  14.721 -0.1752 -0.2508 -0.0562
 6878TIP3   OH242048   7.019   5.008   2.010  0.1747  0.4110  0.0451
 6878TIP3    H142049   7.088   4.945   2.031 -0.1461  0.8059  2.7649
 6878TIP3    H242050   7.064   5.079   1.963  1.4097  0.1301  0.7542
 6879TIP3   OH242051   6.002   4.456  14.526  0.0736 -0.3563  0.0571
 6879TIP3    H142052   5.958   4.488  14.447  0.2177 -1.6271 -0.5738
 6879TIP3    H242053   5.951   4.379  14.552  0.8631 -0.7855  0.3633
 6880TIP3   OH242054   3.940   6.167   2.227 -0.1077 -0.0504  0.4436
 6880TIP3    H142055   3.865   6.211   2.186  0.0813  0.0801  0.2318
 6880TIP3    H242056   3.913   6.153   2.318 -1.6765 -2.8804 -0.3228
 6881TIP3   OH242057   5.297   5.885   5.144  0.8213  0.0335  0.1473
 6881TIP3    H142058   5.376   5.940   5.149  0.6016  0.4137 -0.5495
 6881TIP3    H242059   5.266   5.881   5.235  0.7664  1.1750  0.1929
 6882TIP3   OH242060   0.942   1.592  13.056  0.3683  0.3172  0.1765
 6882TIP3    H142061   0.895   1.618  12.977  1.1154  0.2860 -0.2846
 6882TIP3    H242062   0.972   1.503  13.038  1.4663  0.7029  0.0595
 6883TIP3   OH242063   3.161   3.206  13.295  0.2582  0.0671  0.2701
 6883TIP3    H142064   3.134   3.228  13.206  0.0093 -0.9488  0.0830
 6883TIP3    H242065   3.257   3.205  13.291  0.2646  0.6063  0.1699
 6884TIP3   OH242066   3.496   1.910  12.770 -0.0039 -0.0270 -0.1138
 6884TIP3    H142067   3.502   1.856  12.849 -1.4767  0.4481  0.3458
 6884TIP3    H242068   3.539   1.858  12.702  0.8402 -0.6575  0.8787
 6885TIP3   OH242069   5.202   4.532  11.407 -0.6362 -0.2930 -0.3694
 6885TIP3    H142070   5.209   4.441  11.433 -2.9062 -0.0999  1.2212
 6885TIP3    H242071   5.246   4.580  11.478  1.0554 -0.1196 -1.4809
 6886TIP3   OH242072   6.106   2.647  12.328 -0.4136  0.2194  0.5879
 6886TIP3    H142073   6.169   2.575  12.328 -1.2536 -0.5350  1.6671
 6886TIP3    H242074   6.105   2.678  12.237  1.9235  0.6486  0.6528
 6887TIP3   OH242075   1.735   3.073   5.337  0.2336 -0.5120 -0.4737
 6887TIP3    H142076   1.743   3.010   5.265 -1.2956 -0.0469 -1.0853
 6887TIP3    H242077   1.772   3.154   5.302  2.8873 -1.1494  0.5583
 6888TIP3   OH242078   4.160   2.431   0.494 -0.5145  0.6855  0.4330
 6888TIP3    H142079   4.179   2.403   0.584  0.7463 -0.1897 -0.0737
 6888TIP3    H242080   4.207   2.368   0.439 -0.9005  1.4722 -0.8428
 6889TIP3   OH242081   0.305   3.907  14.058 -0.2535 -0.2060  0.1626
 6889TIP3    H142082   0.330   3.818  14.082 -0.6226 -0.4042 -0.1889
 6889TIP3    H242083   0.357   3.963  14.116  1.7255 -0.5828 -1.1697
 6890TIP3   OH242084   5.115   1.160  13.772  0.8378 -0.5174  0.4124
 6890TIP3    H142085   5.133   1.249  13.802 -1.1966  0.1373 -0.1266
 6890TIP3    H242086   5.157   1.155  13.686  0.4431  0.1663  0.1672
 6891TIP3   OH242087   7.072   7.204   1.284 -0.1953 -0.1794 -0.2840
 6891TIP3    H142088   7.028   7.200   1.199 -0.8268 -0.2921  0.0439
 6891TIP3    H242089   7.015   7.258   1.338 -1.4029 -2.5468  0.9809
 6892TIP3   OH242090   5.332   0.740  14.332 -0.5768  0.7137  0.1573
 6892TIP3    H142091   5.275   0.691  14.273  0.0670  0.7301 -0.4976
 6892TIP3    H242092   5.299   0.830  14.329 -0.8329  0.6211  0.1928
 6893TIP3   OH242093   5.222   3.775  12.347 -0.0485  0.2614  0.3801
 6893TIP3    H142094   5.261   3.694  12.315 -0.6499 -0.9545  2.5136
 6893TIP3    H242095   5.290   3.841  12.336  0.4917 -0.5321 -1.2961
 6894TIP3   OH242096   1.823   4.931  10.399  0.1449 -0.4124  0.0498
 6894TIP3    H142097   1.763   5.001  10.425  0.8198 -0.0725  0.7312
 6894TIP3    H242098   1.910   4.963  10.424  0.4450 -1.5680  0.5637
 6895TIP3   OH242099   4.315   5.021   2.052 -0.2022  0.1678  0.2989
 6895TIP3    H142100   4.378   5.085   2.085 -0.1772 -1.1716  3.0419
 6895TIP3    H242101   4.237   5.074   2.032  0.7956  1.4365 -0.4033
 6896TIP3   OH242102   0.993   4.719  12.696  0.2905 -0.0111  0.4345
 6896TIP3    H142103   1.017   4.761  12.779  1.5615  0.2443 -0.0397
 6896TIP3    H242104   1.032   4.631  12.702  0.1793 -0.0756  0.2148
 6897TIP3   OH242105   3.714   4.617  14.589  0.9050  0.1128  0.3696
 6897TIP3    H142106   3.667   4.554  14.535  0.3600  0.5675  0.3159
 6897TIP3    H242107   3.740   4.687  14.529  0.8550  0.3067  0.5734
 6898TIP3   OH242108   0.219   1.471  13.790  0.0353 -0.1274 -0.3577
 6898TIP3    H142109   0.278   1.396  13.797 -1.1714 -1.0367  0.5152
 6898TIP3    H242110   0.207   1.484  13.696  0.9487 -0.4587 -0.5304
 6899TIP3   OH242111   2.332   3.909  13.180 -0.4149  0.4413  0.5226
 6899TIP3    H142112   2.248   3.948  13.157 -0.7813  0.3203  1.6245
 6899TIP3    H242113   2.383   3.983  13.215 -0.4894  0.2706  0.9861
 6900TIP3   OH242114   6.833   3.893   2.886 -0.6220 -0.1675  0.0954
 6900TIP3    H142115   6.864   3.983   2.880 -2.2706  0.3586 -1.3854
 6900TIP3    H242116   6.808   3.882   2.978  0.5523  0.5319  0.5152
 6901TIP3   OH242117   7.149   4.421  12.784  0.5332 -0.6118  0.4585
 6901TIP3    H142118   7.101   4.353  12.831  0.5965 -0.6052  0.5320
 6901TIP3    H242119   7.131   4.403  12.692  1.2520 -1.2434  0.4303
 6902TIP3   OH242120   5.981   1.140  11.782  0.1226 -0.1451 -0.0073
 6902TIP3    H142121   5.901   1.123  11.831  1.1346 -0.7835  1.5039
 6902TIP3    H242122   5.963   1.108  11.694 -0.9012 -1.3031  0.5964
 6903TIP3   OH242123   7.084   6.097   4.234  0.0189 -0.5649 -0.1286
 6903TIP3    H142124   7.168   6.119   4.192 -0.0677 -3.0850 -1.8175
 6903TIP3    H242125   7.033   6.055   4.165 -1.7907 -1.1329  1.4724
 6904TIP3   OH242126   5.055   0.104  10.808  0.6289 -1.2714 -0.4130
 6904TIP3    H142127   5.046   0.015  10.842 -0.8671 -1.6316 -1.6491
 6904TIP3    H242128   4.969   0.125  10.772  0.6355  1.0762  0.7196
 6905TIP3   OH242129   3.355   3.943  13.019 -0.0467  0.3929 -0.2941
 6905TIP3    H142130   3.433   3.893  13.042  0.5255  1.4443  0.1142
 6905TIP3    H242131   3.387   4.032  13.000 -0.8562  0.3236 -2.3197
 6906TIP3   OH242132   1.433   0.650  10.293  0.3206 -0.0296  0.5450
 6906TIP3    H142133   1.462   0.565  10.260  1.6021  0.3563  0.6297
 6906TIP3    H242134   1.477   0.660  10.377 -2.0010 -0.4845  1.9175
 6907TIP3   OH242135   3.077   3.908   4.453  0.3389 -0.2550  0.1292
 6907TIP3    H142136   3.103   3.816   4.451 -0.1775 -0.4467  1.5251
 6907TIP3    H242137   3.023   3.916   4.532  1.1281  1.4482  0.5225
 6908TIP3   OH242138   3.210   1.987  11.326 -0.4552 -0.2908 -0.1237
 6908TIP3    H142139   3.168   1.947  11.249  0.7980  1.9371 -2.1130
 6908TIP3    H242140   3.203   1.920  11.394 -2.9718 -1.8297 -1.6840
 6909TIP3   OH242141   7.075   4.706   9.785  0.0975 -0.4740 -0.4074
 6909TIP3    H142142   7.088   4.738   9.874 -0.5597 -0.7355 -0.2086
 6909TIP3    H242143   7.156   4.729   9.739  0.0694  0.5044  0.0086
 6910TIP3   OH242144   2.021   6.606  10.562  0.2354  0.4773 -1.3386
 6910TIP3    H142145   2.006   6.561  10.479  0.5816 -0.0114 -1.1406
 6910TIP3    H242146   2.023   6.535  10.628  0.2760  0.8300 -0.9554
 6911TIP3   OH242147   3.164   3.353  15.185  0.1997 -0.2557 -0.2263
 6911TIP3    H142148   3.212   3.273  15.163 -0.2999 -0.6488  0.0747
 6911TIP3    H242149   3.188   3.416  15.118  0.6957 -0.6269 -0.3965
 6912TIP3   OH242150   6.753   4.967  15.288  0.1193  0.0565 -0.5781
 6912TIP3    H142151   6.716   4.929  15.368 -0.1702  0.2966 -0.5964
 6912TIP3    H242152   6.694   4.937  15.218 -1.5997  2.5322 -0.3165
 6913TIP3   OH242153   3.987   3.102  12.856 -0.1213 -0.3321  0.3753
 6913TIP3    H142154   3.997   3.177  12.797  0.3276 -0.5228  0.2067
 6913TIP3    H242155   4.052   3.039  12.826 -1.4699 -1.4075 -0.4285
 6914TIP3   OH242156   3.294   6.561   2.524  0.5894  0.2409 -0.7314
 6914TIP3    H142157   3.269   6.486   2.470 -1.1955 -0.0438  0.3896
 6914TIP3    H242158   3.364   6.527   2.581  0.9869 -0.0580 -1.3829
 6915TIP3   OH242159   3.082   5.944  14.006  0.4018  0.3210 -0.0163
 6915TIP3    H142160   3.107   5.871  13.950  1.7882 -0.4171  1.4738
 6915TIP3    H242161   2.999   5.918  14.044 -0.4159  0.7108 -1.4651
 6916TIP3   OH242162   2.727   5.028   2.626 -0.2990  0.1632  0.2226
 6916TIP3    H142163   2.783   5.047   2.702 -0.8028 -2.0794  1.2387
 6916TIP3    H242164   2.730   5.108   2.573  1.5181  1.1467  1.6959
 6917TIP3   OH242165   5.709   2.165   1.330 -0.1792 -0.6326 -0.3428
 6917TIP3    H142166   5.778   2.227   1.353 -1.0797 -0.5314  2.3913
 6917TIP3    H242167   5.747   2.079   1.351 -1.0392 -0.5324  1.8985
 6918TIP3   OH242168   6.351   0.781  14.338  0.2629  0.0015  0.2369
 6918TIP3    H142169   6.438   0.755  14.369  0.7583 -1.5247 -2.2217
 6918TIP3    H242170   6.367   0.831  14.259 -1.0908  0.4557  0.2139
 6919TIP3   OH242171   1.416   0.280  10.455  0.4616  0.0572 -0.2622
 6919TIP3    H142172   1.351   0.316  10.395  0.7998  2.7777  0.8584
 6919TIP3    H242173   1.500   0.303  10.415  0.7383 -1.1201 -0.3970
 6920TIP3   OH242174   5.039   4.354  13.625 -0.4836 -0.6336 -0.0637
 6920TIP3    H142175   5.043   4.278  13.567  1.1487 -1.7077  1.3548
 6920TIP3    H242176   5.101   4.416  13.587 -0.4607 -0.7549 -0.2233
 6921TIP3   OH242177   6.986   1.149   1.676  0.0227 -0.2027  0.4775
 6921TIP3    H142178   7.007   1.227   1.625  2.5450 -0.4299  1.0030
 6921TIP3    H242179   7.030   1.162   1.760  1.4544 -2.5731  0.2082
 6922TIP3   OH242180   0.612   0.187  13.635  0.1307 -0.4522  0.3112
 6922TIP3    H142181   0.664   0.108  13.648 -1.0546 -1.3606 -0.3258
 6922TIP3    H242182   0.661   0.256  13.680  0.5898 -1.7775  1.9320
 6923TIP3   OH242183   7.094   2.933  13.221 -0.2267  0.6670 -0.0178
 6923TIP3    H142184   7.056   2.954  13.135 -0.5620  1.3749  0.3008
 6923TIP3    H242185   7.019   2.905  13.274 -0.0946  0.7313  0.2040
 6924TIP3   OH242186   0.835   0.660  10.246  0.0828 -0.3841  0.4980
 6924TIP3    H142187   0.908   0.635  10.189 -0.1567  0.5604 -0.2617
 6924TIP3    H242188   0.767   0.689  10.185 -0.9770 -1.3520  1.1895
 6925TIP3   OH242189   5.361   4.609  13.746 -0.4165  0.3899 -0.1518
 6925TIP3    H142190   5.422   4.676  13.715  1.4236 -1.6709 -1.3195
 6925TIP3    H242191   5.393   4.586  13.833 -2.4490  2.5281  1.2720
 6926TIP3   OH242192   3.232   4.198  10.220  0.1871  0.5888  0.5025
 6926TIP3    H142193   3.247   4.273  10.277 -0.3878  0.4477  0.8438
 6926TIP3    H242194   3.186   4.234  10.144  0.4061  0.6710  0.4063
 6927TIP3   OH242195   5.880   5.208   4.035  0.1476  0.2835 -0.0777
 6927TIP3    H142196   5.796   5.188   4.077 -0.1451 -0.4781 -0.9881
 6927TIP3    H242197   5.884   5.304   4.036 -0.9625  0.3543 -0.4271
 6928TIP3   OH242198   6.512   6.019  14.272  0.1323  0.0978  0.2381
 6928TIP3    H142199   6.503   5.939  14.325 -0.4844 -0.0480 -0.0813
 6928TIP3    H242200   6.567   6.076  14.325 -1.4071  0.4028  1.5855
 6929TIP3   OH242201   2.131   7.094  12.382  0.8921 -0.7935  0.0255
 6929TIP3    H142202   2.198   7.122  12.445  1.0405  1.4439 -1.0239
 6929TIP3    H242203   2.076   7.172  12.369 -0.3687 -1.8226 -1.0568
 6930TIP3   OH242204   5.988   6.077  14.575  0.0423 -0.5769 -0.3107
 6930TIP3    H142205   6.037   6.050  14.497  0.2113  0.4251 -0.5663
 6930TIP3    H242206   5.929   6.145  14.544  0.2691 -0.0035  0.4760
 6931TIP3   OH242207   7.099   4.006   9.492 -0.3465 -0.0527 -0.1630
 6931TIP3    H142208   7.009   3.975   9.481 -0.2602 -0.3689  0.0200
 6931TIP3    H242209   7.089   4.096   9.524 -0.6104 -0.6065  1.3732
 6932TIP3   OH242210   5.632   6.474  13.465 -0.2311 -0.0126 -0.3767
 6932TIP3    H142211   5.561   6.505  13.409  0.5959  1.6798 -0.5570
 6932TIP3    H242212   5.634   6.379  13.452 -1.0038  0.1784 -2.0817
 6933TIP3   OH242213   5.346   0.979  11.629  0.8466  0.0061 -0.1953
 6933TIP3    H142214   5.297   0.994  11.709 -0.9481  1.6036 -1.5121
 6933TIP3    H242215   5.378   0.889  11.637 -0.9536 -0.5547  1.4310
 6934TIP3   OH242216   1.060   4.127  12.055  0.0675 -0.0086  0.4629
 6934TIP3    H142217   1.011   4.090  12.129 -0.1624  0.9569  0.8067
 6934TIP3    H242218   1.101   4.206  12.090  0.0790  0.3802 -0.4052
 6935TIP3   OH242219   6.565   5.708   2.481  0.9428 -0.1682 -0.1421
 6935TIP3    H142220   6.549   5.780   2.420  0.0860 -0.3588 -0.1631
 6935TIP3    H242221   6.642   5.664   2.446  1.6948  0.9386  0.0744
 6936TIP3   OH242222   3.735   5.795  12.329  0.1722 -0.3049  0.5441
 6936TIP3    H142223   3.775   5.720  12.372 -2.6371 -2.2416  0.0336
 6936TIP3    H242224   3.665   5.822  12.388 -1.6553 -0.9523 -1.1967
 6937TIP3   OH242225   5.482   2.702  13.830  0.2360 -0.0799 -0.2403
 6937TIP3    H142226   5.463   2.612  13.857  0.2284  0.0818  0.3115
 6937TIP3    H242227   5.560   2.726  13.879 -2.7044  2.0848  4.1298
 6938TIP3   OH242228   3.373   4.401  13.444 -0.7975  0.2252 -0.2952
 6938TIP3    H142229   3.358   4.353  13.362  0.4273  1.3095 -1.2118
 6938TIP3    H242230   3.297   4.381  13.498 -0.8962 -1.7548 -1.0847
 6939TIP3   OH242231   6.353   0.689  13.206  0.1049 -0.3072 -0.7366
 6939TIP3    H142232   6.286   0.757  13.206 -0.4321 -0.8211 -0.0380
 6939TIP3    H242233   6.421   0.722  13.264 -0.3654 -0.5592 -0.0350
 6940TIP3   OH242234   5.893   1.085   2.640 -0.2134  0.3234 -0.2444
 6940TIP3    H142235   5.894   1.022   2.712 -0.3297  1.4834  0.8206
 6940TIP3    H242236   5.801   1.092   2.615 -0.4350  1.2387  0.7422
 6941TIP3   OH242237   0.983   5.191   1.602  0.3002  0.2153 -0.2441
 6941TIP3    H142238   1.017   5.172   1.689  0.6135  3.5473  0.4606
 6941TIP3    H242239   0.893   5.159   1.604  0.0528  0.9082  1.5947
 6942TIP3   OH242240   1.845   2.670  15.100 -0.2549  0.0429 -0.2702
 6942TIP3    H142241   1.798   2.619  15.035 -1.0304 -0.4668  0.6710
 6942TIP3    H242242   1.857   2.610  15.174 -0.2718  0.9023  0.4492
 6943TIP3   OH242243   6.828   5.017  13.947  0.3040  0.0550  0.6766
 6943TIP3    H142244   6.746   5.062  13.969 -0.1957  0.0215 -1.0252
 6943TIP3    H242245   6.807   4.924  13.954  0.1332  0.0439  0.0480
 6944TIP3   OH242246   5.090   6.420  14.403 -0.1401 -0.1916  0.1326
 6944TIP3    H142247   5.083   6.336  14.450  0.5633 -0.2173  0.2148
 6944TIP3    H242248   5.069   6.398  14.313  1.5556 -0.8107 -0.1639
 6945TIP3   OH242249   4.936   2.798  11.810 -0.2652  0.3026 -0.1622
 6945TIP3    H142250   4.920   2.860  11.882  0.5849 -1.3504  1.5433
 6945TIP3    H242251   5.014   2.832  11.766 -1.4516  1.9586 -1.0974
 6946TIP3   OH242252   0.218   5.795   2.416 -0.5750  0.5242  0.3351
 6946TIP3    H142253   0.157   5.839   2.357  0.7621  0.2037 -1.3813
 6946TIP3    H242254   0.297   5.850   2.414  0.5279 -1.0255 -0.5353
 6947TIP3   OH242255   4.006   6.957   3.675 -0.4593 -0.1527  0.1338
 6947TIP3    H142256   4.049   7.019   3.617  1.3817 -0.8957  0.6241
 6947TIP3    H242257   4.062   6.954   3.753 -2.0187 -0.3474  1.3037
 6948TIP3   OH242258   0.672   2.409  13.739 -0.2071  0.1383 -0.0311
 6948TIP3    H142259   0.614   2.333  13.751  0.0643 -0.0538  0.0628
 6948TIP3    H242260   0.685   2.443  13.827  0.9848 -0.6833  0.1341
 6949TIP3   OH242261   6.754   1.931   2.458  0.0956  0.3510  0.2343
 6949TIP3    H142262   6.748   1.868   2.385 -0.0995 -0.8601  1.2623
 6949TIP3    H242263   6.805   1.885   2.524  0.5682  1.5751  0.7400
 6950TIP3   OH242264   2.368   0.956   4.632 -1.1022  0.0454 -0.9121
 6950TIP3    H142265   2.295   0.902   4.662  0.5996 -2.6201 -1.2111
 6950TIP3    H242266   2.367   0.947   4.537 -1.5692  1.7002 -1.0916
 6951TIP3   OH242267   7.207   4.012   2.584 -0.5238  1.5327  0.8513
 6951TIP3    H142268   7.112   4.006   2.595 -0.6629  1.4332 -0.2931
 6951TIP3    H242269   7.218   4.076   2.513  0.1829  0.2570 -0.2198
 6952TIP3   OH242270   3.192   1.774  13.949 -0.3408 -0.2531  0.8719
 6952TIP3    H142271   3.106   1.753  13.913 -1.0446  0.8140  1.8574
 6952TIP3    H242272   3.180   1.859  13.993  1.0885 -0.3218  1.4671
 6953TIP3   OH242273   1.294   6.109  14.676  0.3126  0.6899 -0.0051
 6953TIP3    H142274   1.351   6.170  14.628  0.2218  0.7324 -0.0583
 6953TIP3    H242275   1.352   6.036  14.699  0.1686  0.2769 -0.9080
 6954TIP3   OH242276   3.634   6.938   1.040  0.1102  0.0645  0.0564
 6954TIP3    H142277   3.676   6.907   1.120 -1.6486 -1.0806  0.6203
 6954TIP3    H242278   3.599   7.024   1.063 -1.1861 -0.6427  0.8827
 6955TIP3   OH242279   1.102   0.901   2.411  0.2984 -0.2060 -0.4436
 6955TIP3    H142280   1.131   0.854   2.490  0.1155 -1.2158 -0.9646
 6955TIP3    H242281   1.092   0.833   2.345  1.3219  0.7360 -1.6079
 6956TIP3   OH242282   4.999   0.657  13.600  0.0112 -0.7995  0.0322
 6956TIP3    H142283   4.959   0.589  13.546 -0.3485  0.6523 -1.5893
 6956TIP3    H242284   4.926   0.694  13.651 -0.0336 -0.7225 -0.0879
 6957TIP3   OH242285   6.056   5.658  11.046  0.2344  0.4391 -0.1309
 6957TIP3    H142286   6.081   5.571  11.077 -0.0478  0.8529  1.3243
 6957TIP3    H242287   6.104   5.669  10.964  1.2792 -0.5681  0.3238
 6958TIP3   OH242288   5.222   2.002   0.056 -0.4490  0.1876  0.0733
 6958TIP3    H142289   5.310   1.999   0.094  0.1961 -0.3300 -1.3703
 6958TIP3    H242290   5.163   1.987   0.130  0.6389  1.0150  1.1541
 6959TIP3   OH242291   1.224   6.798  10.665  0.2970  0.8135 -0.4392
 6959TIP3    H142292   1.129   6.812  10.655  0.1573  0.8906  0.7819
 6959TIP3    H242293   1.248   6.856  10.737  0.7843 -1.0409  0.9644
 6960TIP3   OH242294   5.937   4.419  12.607 -0.9162 -0.4359 -0.3561
 6960TIP3    H142295   5.904   4.374  12.685 -0.4625 -1.0172 -0.4847
 6960TIP3    H242296   5.995   4.487  12.641 -0.8236 -0.6014 -0.1826
 6961TIP3   OH242297   4.049   0.693  13.590 -0.2957 -0.2791  0.4192
 6961TIP3    H142298   4.098   0.680  13.509  0.0939  1.0723  0.4149
 6961TIP3    H242299   4.078   0.623  13.648 -0.7805 -1.4229 -0.6865
 6962TIP3   OH242300   3.757   0.708  10.665 -0.2042  0.0002 -0.2336
 6962TIP3    H142301   3.703   0.783  10.639 -0.6997 -0.1379  0.3813
 6962TIP3    H242302   3.695   0.648  10.708  0.5490  0.1307  1.0822
 6963TIP3   OH242303   6.614   1.029  14.349  0.1270  0.0649  0.5957
 6963TIP3    H142304   6.700   1.003  14.317 -0.3626  1.5158 -2.3052
 6963TIP3    H242305   6.626   1.118  14.383  0.3479 -0.9505  3.3938
 6964TIP3   OH242306   4.733   3.935   1.423  0.0496  0.2244  0.0672
 6964TIP3    H142307   4.730   3.975   1.510 -1.1607 -0.8273  0.5476
 6964TIP3    H242308   4.658   3.972   1.377  1.1143  1.3476 -0.8249
 6965TIP3   OH242309   3.405   7.161   0.488  0.4040 -0.0493  0.6660
 6965TIP3    H142310   3.415   7.181   0.395 -1.3692 -0.3030  0.3919
 6965TIP3    H242311   3.328   7.211   0.516 -0.0350 -1.1924  1.5959
 6966TIP3   OH242312   6.935   4.499   0.362  0.2456  0.1658 -0.2082
 6966TIP3    H142313   6.950   4.544   0.446  2.2155  0.2129 -0.5393
 6966TIP3    H242314   6.986   4.418   0.369 -0.7886 -0.5559 -0.8092
 6967TIP3   OH242315   5.629   0.173  11.907  0.1880 -0.0955  0.1544
 6967TIP3    H142316   5.588   0.185  11.822 -2.1909  0.8505  1.3346
 6967TIP3    H242317   5.675   0.256  11.923 -2.6988  1.4233  1.3753
 6968TIP3   OH242318   4.712   1.794   1.029  0.1360 -0.2745  0.3409
 6968TIP3    H142319   4.632   1.744   1.046 -0.1336  0.7490  2.4080
 6968TIP3    H242320   4.769   1.773   1.103  0.8477  0.7900  0.1150
 6969TIP3   OH242321   6.011   1.215  13.735  0.3530 -0.2360 -0.3215
 6969TIP3    H142322   6.024   1.125  13.762  1.2847  0.1057  0.4336
 6969TIP3    H242323   6.070   1.226  13.660  0.2796 -0.2396 -0.3800
 6970TIP3   OH242324   6.584   1.270   2.611 -0.2258 -0.3820  0.4855
 6970TIP3    H142325   6.638   1.196   2.639  0.0053 -0.0671  0.8793
 6970TIP3    H242326   6.503   1.260   2.661  1.1954  1.7114  3.4853
 6971TIP3   OH242327   3.009   2.697  11.912 -0.0554 -0.2867  0.2378
 6971TIP3    H142328   2.964   2.624  11.954 -0.5749  0.6916  1.4493
 6971TIP3    H242329   3.011   2.765  11.979  1.5161  0.3854 -0.4425
 6972TIP3   OH242330   6.209   6.580   9.830 -0.2555  0.4203  0.0625
 6972TIP3    H142331   6.188   6.667   9.796 -1.9637  0.5929  1.4425
 6972TIP3    H242332   6.270   6.544   9.766  1.7681  3.2143  0.2237
 6973TIP3   OH242333   7.163   4.803  13.352  0.1728 -0.6561 -0.5068
 6973TIP3    H142334   7.190   4.877  13.298  1.0229 -0.4870  0.1315
 6973TIP3    H242335   7.203   4.727  13.310  2.4308 -0.3256  0.8679
 6974TIP3   OH242336   3.210   3.399  11.151  0.5291 -0.0541 -0.1446
 6974TIP3    H142337   3.218   3.466  11.219  1.8354 -0.4512  0.1207
 6974TIP3    H242338   3.131   3.350  11.174  0.8699 -0.0791  0.9931
 6975TIP3   OH242339   2.308   6.264  14.073 -0.3279  0.5876 -0.2355
 6975TIP3    H142340   2.303   6.247  14.167  3.9846 -1.8353 -0.2127
 6975TIP3    H242341   2.358   6.346  14.067  0.9384 -0.1742 -0.3582
 6976TIP3   OH242342   6.385   5.328   1.032 -0.3393 -0.6618  0.0762
 6976TIP3    H142343   6.339   5.399   0.988  0.0627 -0.6382 -0.3163
 6976TIP3    H242344   6.473   5.328   0.993  0.2939 -0.1252  1.4357
 6977TIP3   OH242345   0.048   6.291  14.662 -0.2633 -0.1642 -0.0237
 6977TIP3    H142346   0.068   6.200  14.682 -0.0943 -0.3881 -1.1268
 6977TIP3    H242347   0.133   6.332  14.645 -0.3025  0.3147  0.8870
 6978TIP3   OH242348   6.902   6.178  13.128  0.1747 -0.7815 -0.3431
 6978TIP3    H142349   6.935   6.268  13.131 -0.7448 -0.3433 -1.9066
 6978TIP3    H242350   6.925   6.141  13.213 -0.1390  1.1876  0.6609
 6979TIP3   OH242351   0.740   0.595  13.908 -0.3519  0.0468  0.7939
 6979TIP3    H142352   0.675   0.589  13.837  3.0254 -3.0205 -2.4568
 6979TIP3    H242353   0.697   0.552  13.982 -2.6068 -0.3945 -0.6456
 6980TIP3   OH242354   2.030   5.148  13.816  0.2000 -0.2555  0.4073
 6980TIP3    H142355   2.028   5.085  13.889  0.6391 -0.8655 -0.0987
 6980TIP3    H242356   1.971   5.218  13.844  1.3627  0.1796  1.9408
 6981TIP3   OH242357   5.020   2.044   2.868 -0.1432  0.3529  0.8439
 6981TIP3    H142358   5.063   1.968   2.831 -0.6727 -0.1829  1.2945
 6981TIP3    H242359   5.091   2.097   2.905  0.0916 -0.9374  2.3543
 6982TIP3   OH242360   6.238   3.016  11.932 -0.0669  0.0196  0.4223
 6982TIP3    H142361   6.171   2.962  11.890  0.1900 -0.6610  0.8724
 6982TIP3    H242362   6.279   3.064  11.860  0.8261 -1.6321 -0.2279
 6983TIP3   OH242363   1.216   0.332   2.371 -0.1441  0.0483 -0.0147
 6983TIP3    H142364   1.257   0.314   2.287 -1.0582  1.8770 -0.9090
 6983TIP3    H242365   1.177   0.249   2.397  2.3454 -1.2370 -0.0758
 6984TIP3   OH242366   4.627   1.390  11.097  0.5352 -0.3097 -0.2176
 6984TIP3    H142367   4.692   1.454  11.128  0.6223 -0.2838 -0.4563
 6984TIP3    H242368   4.600   1.422  11.012 -0.8597  0.4719  0.4842
 6985TIP3   OH242369   3.267   6.366  13.678  0.0445  0.1648  0.0729
 6985TIP3    H142370   3.261   6.290  13.620 -1.5903 -0.5676  1.1338
 6985TIP3    H242371   3.315   6.432  13.627  0.5792 -1.2067 -1.2551
 6986TIP3   OH242372   2.181   3.164  13.802  0.5732 -0.3221 -0.6794
 6986TIP3    H142373   2.239   3.158  13.877  1.1633  2.3259 -0.8256
 6986TIP3    H242374   2.238   3.157  13.726  0.8939  2.4996 -0.8270
 6987TIP3   OH242375   6.215   0.432  12.447 -0.1179  0.1715  0.4211
 6987TIP3    H142376   6.200   0.426  12.352  0.5126 -2.3967  0.4161
 6987TIP3    H242377   6.131   0.406  12.485 -0.4817  1.5472  0.6225
 6988TIP3   OH242378   1.897   2.500  13.452 -0.1654  0.4005 -0.1861
 6988TIP3    H142379   1.898   2.460  13.539 -1.5362  0.4790 -0.1058
 6988TIP3    H242380   1.833   2.447  13.403  0.3259  0.5771 -1.0348
 6989TIP3   OH242381   3.129   4.601   4.990  0.1461 -0.3078  0.2438
 6989TIP3    H142382   3.107   4.636   5.076  0.2045  1.7317 -0.5274
 6989TIP3    H242383   3.224   4.612   4.982 -0.0402  0.8036 -0.6038
 6990TIP3   OH242384   1.585   1.785  10.913  0.3202  0.1207  0.2305
 6990TIP3    H142385   1.491   1.800  10.916  0.0672 -1.5333  1.2364
 6990TIP3    H242386   1.615   1.800  11.002  0.9578  0.2856 -0.0065
 6991TIP3   OH242387   0.055   1.505   4.895 -0.4154  0.1282 -0.4091
 6991TIP3    H142388   0.087   1.593   4.915 -0.0199 -0.1671  0.2999
 6991TIP3    H242389  -0.002   1.483   4.970  2.0054 -1.4664  1.0986
 6992TIP3   OH242390   7.172   0.556   0.629 -0.3104 -0.1552  0.2585
 6992TIP3    H142391   7.206   0.537   0.542 -0.7748 -1.5459  0.3594
 6992TIP3    H242392   7.194   0.648   0.644  0.6154 -0.1667 -0.9285
 6993TIP3   OH242393   6.684   1.495  10.242 -0.2875 -1.0435  0.7061
 6993TIP3    H142394   6.613   1.558  10.255  0.4294 -0.2303  0.7035
 6993TIP3    H242395   6.639   1.410  10.242 -0.9170 -0.9439  4.7367
 6994TIP3   OH242396   1.771   0.215  13.993 -0.1029 -0.1972 -0.1140
 6994TIP3    H142397   1.756   0.197  13.900 -1.7179 -3.1646  0.6196
 6994TIP3    H242398   1.862   0.188  14.008  0.1028  0.1096 -0.7725
 6995TIP3   OH242399   5.883   0.166  11.651 -0.9992 -0.4252  0.3178
 6995TIP3    H142400   5.827   0.113  11.593  0.2011 -0.8736 -0.4597
 6995TIP3    H242401   5.883   0.118  11.734 -1.0859 -0.8731  0.0660
 6996TIP3   OH242402   6.652   6.525   2.487  0.0964  0.2496 -0.1735
 6996TIP3    H142403   6.625   6.586   2.418  1.1172  0.6608 -0.2221
 6996TIP3    H242404   6.653   6.440   2.444 -1.0033  0.2337 -0.1943
 6997TIP3   OH242405   2.868   6.040   5.298  0.1233  0.4430  0.0766
 6997TIP3    H142406   2.782   6.035   5.340 -0.1992 -0.5619 -0.6567
 6997TIP3    H242407   2.929   6.061   5.369 -0.6293  0.3761  0.7476
 6998TIP3   OH242408   1.634   2.949  14.908 -0.5766 -0.6218  0.4099
 6998TIP3    H142409   1.726   2.947  14.883 -0.6814 -2.2900  0.0604
 6998TIP3    H242410   1.616   3.042  14.925  0.4105  0.1612 -2.3497
 6999TIP3   OH242411   3.910   5.321  10.177  0.1833 -0.0498 -0.2265
 6999TIP3    H142412   3.968   5.397  10.178 -1.8654  1.6690 -2.4241
 6999TIP3    H242413   3.853   5.334  10.101 -2.9524 -1.7386  1.6236
 7000TIP3   OH242414   3.436   3.905   1.008  0.6554 -0.5799 -1.1818
 7000TIP3    H142415   3.391   3.845   0.949  1.8361 -0.3917 -2.3191
 7000TIP3    H242416   3.366   3.947   1.058 -0.3542 -0.8747 -2.3140
 7001TIP3   OH242417   2.832   4.717  10.031  0.4147 -0.2386  0.1089
 7001TIP3    H142418   2.892   4.643  10.022  2.4121  0.9597  2.3190
 7001TIP3    H242419   2.886   4.794  10.012 -1.6156  0.7550 -2.1900
 7002TIP3   OH242420   4.498   5.449  11.817  0.6365 -0.1318  0.6382
 7002TIP3    H142421   4.561   5.504  11.862  1.3866 -0.6605  0.2666
 7002TIP3    H242422   4.507   5.473  11.724 -0.4161  0.4803  0.6758
 7003TIP3   OH242423   3.322   3.279  11.424  0.1232  0.3952 -0.1551
 7003TIP3    H142424   3.300   3.208  11.363  0.0829 -2.5188  2.9361
 7003TIP3    H242425   3.240   3.327  11.434 -0.5760 -0.6812 -0.4565
 7004TIP3   OH242426   1.435   2.464  10.452  0.4546 -0.1603  0.1117
 7004TIP3    H142427   1.468   2.497  10.368  0.9824 -0.8485  0.0415
 7004TIP3    H242428   1.382   2.536  10.487  1.4319  0.6935 -0.1190
 7005TIP3   OH242429   4.070   1.105  12.593  0.0507 -0.2084  0.1289
 7005TIP3    H142430   4.073   1.017  12.631  1.5169  0.0363  0.6591
 7005TIP3    H242431   4.052   1.163  12.666 -2.9679 -0.1702 -0.5279
 7006TIP3   OH242432   3.250   1.945  11.045 -0.4077  0.2712  0.1427
 7006TIP3    H142433   3.257   2.018  10.982 -0.9592 -0.2174 -0.4944
 7006TIP3    H242434   3.244   1.867  10.990  1.4359 -0.3912  0.8269
 7007TIP3   OH242435   3.665   1.671  13.137  0.4191  0.0715 -0.3204
 7007TIP3    H142436   3.601   1.622  13.085  0.5162  2.3230 -2.7891
 7007TIP3    H242437   3.616   1.745  13.172  1.0746  0.2690  0.1980
 7008TIP3   OH242438   1.152   4.646  14.011  0.4514  0.0419  0.2208
 7008TIP3    H142439   1.226   4.615  14.064  0.2846  2.0150  1.7284
 7008TIP3    H242440   1.124   4.569  13.962  1.6886 -1.4867  1.7763
 7009TIP3   OH242441   3.529   0.202   5.305  0.6647  0.6076  0.5601
 7009TIP3    H142442   3.437   0.222   5.289  0.5346 -0.4738 -0.0784
 7009TIP3    H242443   3.572   0.288   5.303 -0.2280  1.0639  0.2511
 7010TIP3   OH242444   0.582   6.203   1.013 -0.3436 -0.1931 -0.1842
 7010TIP3    H142445   0.518   6.170   0.951 -2.7431 -1.6132  2.7630
 7010TIP3    H242446   0.531   6.257   1.074  2.0226  1.9008  0.1040
 7011TIP3   OH242447   0.896   2.832  13.624 -0.4106 -0.0743 -0.4749
 7011TIP3    H142448   0.873   2.779  13.700  0.0338 -0.7142 -0.7749
 7011TIP3    H242449   0.968   2.784  13.582  0.3015  1.0028 -0.5090
 7012TIP3   OH242450   3.935   6.158  11.119  0.3367 -0.4404  0.4269
 7012TIP3    H142451   4.019   6.130  11.084  1.3200 -0.1566  2.3836
 7012TIP3    H242452   3.954   6.239  11.166 -1.6109  1.2430 -1.4472
 7013TIP3   OH242453   4.359   4.958  14.243 -0.0395 -0.0794 -0.5773
 7013TIP3    H142454   4.335   4.915  14.160  2.4200 -1.2477 -0.7675
 7013TIP3    H242455   4.443   5.000  14.225 -0.7103  1.9415  0.6350
 7014TIP3   OH242456   0.047   1.331   1.152  0.2346 -0.1933 -0.1546
 7014TIP3    H142457   0.043   1.416   1.195  0.7352 -0.4460  0.4037
 7014TIP3    H242458  -0.035   1.324   1.104  0.6435  1.0655 -1.0846
 7015TIP3   OH242459   5.217   3.722  12.645 -0.2326 -0.0609 -0.4417
 7015TIP3    H142460   5.297   3.686  12.682 -0.9858  1.1590  2.7517
 7015TIP3    H242461   5.239   3.744  12.555  2.2931 -1.8253 -0.3503
 7016TIP3   OH242462   4.136   1.219   4.104  1.1109 -0.1662  0.3084
 7016TIP3    H142463   4.084   1.171   4.040 -1.6552  0.2557  2.0796
 7016TIP3    H242464   4.155   1.154   4.172  2.9901 -0.3067 -0.3026
 7017TIP3   OH242465   0.498   4.623   0.759  0.3685 -0.4482 -0.6697
 7017TIP3    H142466   0.523   4.674   0.836 -0.4290 -1.6022  0.3884
 7017TIP3    H242467   0.453   4.686   0.702 -0.8088 -0.0045  0.7024
 7018TIP3   OH242468   5.919   1.707  13.212 -0.1920  0.2045 -0.1372
 7018TIP3    H142469   5.892   1.674  13.126 -0.6010  0.9756 -0.3086
 7018TIP3    H242470   5.989   1.769  13.193 -0.1268  0.2057  0.1037
 7019TIP3   OH242471   4.321   3.592   2.760 -0.0402  0.1003 -0.8369
 7019TIP3    H142472   4.372   3.606   2.840  1.4910  0.7819 -1.8732
 7019TIP3    H242473   4.250   3.656   2.766 -1.7166 -1.7982  1.2910
 7020TIP3   OH242474   6.000   5.753  11.786 -0.3799 -0.2050  0.8193
 7020TIP3    H142475   6.048   5.735  11.705  0.4450  1.3214  0.9142
 7020TIP3    H242476   5.968   5.842  11.774  0.3464  0.3013  2.4227
 7021TIP3   OH242477   3.790   5.987  13.210  0.0255  0.5548  0.5075
 7021TIP3    H142478   3.859   6.037  13.254  0.2779  0.3137  0.3825
 7021TIP3    H242479   3.836   5.931  13.148 -0.2980  0.5565  0.2643
 7022TIP3   OH242480   1.267   0.786  14.225  0.2336  0.2818 -0.4330
 7022TIP3    H142481   1.362   0.776  14.227  0.0740 -1.5028 -0.4600
 7022TIP3    H242482   1.252   0.862  14.169  1.6449  0.9675  0.0558
 7023TIP3   OH242483   4.702   0.886  11.428  0.2131  0.3517  0.4304
 7023TIP3    H142484   4.761   0.811  11.418  0.3065  0.5667 -0.7717
 7023TIP3    H242485   4.741   0.955  11.374  0.1362  1.2856  1.5224
 7024TIP3   OH242486   5.629   6.864   9.719  0.5693  0.3879 -0.4660
 7024TIP3    H142487   5.563   6.921   9.680  0.2465  0.5409  0.2970
 7024TIP3    H242488   5.585   6.780   9.729  0.6803  0.3243 -0.5064
 7025TIP3   OH242489   4.613   4.600   1.003  0.3575 -0.1738  0.3114
 7025TIP3    H142490   4.616   4.555   1.088  3.9551  0.5726  0.7445
 7025TIP3    H242491   4.670   4.548   0.947  0.8328  1.2430 -0.5637
 7026TIP3   OH242492   6.415   5.290   4.344 -0.3895 -0.3864 -0.1702
 7026TIP3    H142493   6.468   5.364   4.373  0.4645 -1.4225  1.0628
 7026TIP3    H242494   6.344   5.285   4.408 -1.2478  0.1802 -1.0490
 7027TIP3   OH242495   6.676   1.790  14.376 -0.3971 -0.8768  0.2049
 7027TIP3    H142496   6.721   1.874  14.381  1.6650 -1.9546  1.0651
 7027TIP3    H242497   6.695   1.757  14.288 -0.2078 -0.9581  0.2758
 7028TIP3   OH242498   2.839   6.699  10.976  0.7427 -0.1447  0.3669
 7028TIP3    H142499   2.894   6.633  10.934 -0.0844 -0.6075 -0.0228
 7028TIP3    H242500   2.833   6.671  11.067  2.1027  0.5657  0.7091
 7029TIP3   OH242501   2.284   2.693   1.101  0.2413 -0.1614 -0.2828
 7029TIP3    H142502   2.304   2.652   1.185  0.3873  1.0910  0.3101
 7029TIP3    H242503   2.297   2.787   1.116 -0.9886  0.2054 -1.3431
 7030TIP3   OH242504   5.770   4.973   0.756 -0.2028  0.0747  0.3373
 7030TIP3    H142505   5.763   5.057   0.712  0.0715 -0.4839 -0.8282
 7030TIP3    H242506   5.864   4.959   0.766 -0.1655 -0.8025 -0.9616
 7031TIP3   OH242507   6.264   4.142  11.166  0.4822  0.2167  0.7452
 7031TIP3    H142508   6.301   4.130  11.254 -1.0588  0.3728  1.4420
 7031TIP3    H242509   6.325   4.095  11.108  2.6200  1.7688  1.6092
 7032TIP3   OH242510   0.073   1.296  10.006 -0.1055 -0.5580 -0.4238
 7032TIP3    H142511   0.133   1.262   9.939  0.1597 -1.8546  0.4514
 7032TIP3    H242512   0.130   1.338  10.070 -0.0679 -2.1452  0.6155
 7033TIP3   OH242513   0.912   5.275   9.526 -0.4842 -0.0874  0.3075
 7033TIP3    H142514   0.958   5.195   9.501 -0.6511 -0.0629 -0.0834
 7033TIP3    H242515   0.981   5.341   9.534 -0.2766 -0.3951  1.1820
 7034TIP3   OH242516   1.242   3.403  14.797  0.3158  0.2520 -0.0729
 7034TIP3    H142517   1.284   3.367  14.875 -1.2426  0.2365  0.7854
 7034TIP3    H242518   1.233   3.329  14.738  1.2353  0.2030 -0.1727
 7035TIP3   OH242519   2.382   4.812  11.920  0.0800 -0.4947  0.3513
 7035TIP3    H142520   2.448   4.816  11.989 -0.6967  2.0975  1.0589
 7035TIP3    H242521   2.332   4.732  11.940  0.3860 -0.2384  2.3424
 7036TIP3   OH242522   5.607   5.218  12.140 -0.3094  0.0143  0.4362
 7036TIP3    H142523   5.561   5.191  12.220  0.1671 -0.1936  0.6421
 7036TIP3    H242524   5.661   5.142  12.117 -0.8017 -0.1141 -0.3600
 7037TIP3   OH242525   0.634   0.165   4.214 -0.5432  0.0025  0.4529
 7037TIP3    H142526   0.727   0.154   4.232 -0.4883  0.4503  0.4660
 7037TIP3    H242527   0.591   0.100   4.269 -0.4301  1.7723  2.7898
 7038TIP3   OH242528   2.565   2.324   1.018 -0.3122  0.3743  0.5631
 7038TIP3    H142529   2.644   2.313   1.071 -1.0215 -0.2061  1.5232
 7038TIP3    H242530   2.577   2.409   0.975 -0.4903  1.7466  3.0257
 7039TIP3   OH242531   2.784   3.735   9.853 -0.0546  0.2684 -0.1973
 7039TIP3    H142532   2.710   3.721   9.793  0.7643 -0.3433 -1.0857
 7039TIP3    H242533   2.855   3.766   9.798 -0.2540  3.0908  0.9754
 7040TIP3   OH242534   3.474   5.445   9.912 -0.4554 -0.4377 -0.3928
 7040TIP3    H142535   3.415   5.444   9.837 -1.2171  2.5796  0.0181
 7040TIP3    H242536   3.538   5.513   9.891 -0.1424 -0.1688  1.3040
 7041TIP3   OH242537   4.701   1.901  12.413 -0.0280  0.2150 -0.2868
 7041TIP3    H142538   4.635   1.836  12.438 -0.8405 -0.0041 -2.7490
 7041TIP3    H242539   4.777   1.878  12.466 -0.7547 -1.8393 -0.0090
 7042TIP3   OH242540   2.227   5.297  11.645 -0.4676 -0.4094  0.6254
 7042TIP3    H142541   2.186   5.246  11.575 -0.8261  0.2965  0.3011
 7042TIP3    H242542   2.299   5.343  11.602 -0.3687 -0.3686  0.8317
 7043TIP3   OH242543   5.125   1.001  10.708  0.4600 -0.0743 -0.6301
 7043TIP3    H142544   5.080   1.084  10.689  0.3428  0.0120 -0.0039
 7043TIP3    H242545   5.075   0.935  10.660 -0.8346 -0.0889  0.6615
 7044TIP3   OH242546   2.929   5.817   1.350 -0.1445 -0.0286 -0.0427
 7044TIP3    H142547   2.923   5.733   1.396  2.7539 -0.0139  0.5491
 7044TIP3    H242548   2.840   5.834   1.321 -0.8646 -3.2862 -0.1891
 7045TIP3   OH242549   5.371   2.261  10.014 -0.4318 -0.1579 -0.5477
 7045TIP3    H142550   5.450   2.239  10.062 -0.1002  0.4638 -0.8001
 7045TIP3    H242551   5.300   2.228  10.068 -0.0003 -0.7468 -0.3336
 7046TIP3   OH242552   1.339   1.912   0.310  0.3466  0.2464 -0.2576
 7046TIP3    H142553   1.368   1.883   0.396 -0.5906 -1.8070 -0.5502
 7046TIP3    H242554   1.265   1.971   0.328 -1.2139 -1.7798  0.4072
 7047TIP3   OH242555   0.751   4.709  13.703  0.3509  0.0082 -0.1942
 7047TIP3    H142556   0.807   4.632  13.693  0.7839  0.3425 -0.3539
 7047TIP3    H242557   0.789   4.757  13.777 -0.8505 -0.7305  0.9540
 7048TIP3   OH242558   4.025   3.930  10.108 -0.2156  0.2338 -0.4135
 7048TIP3    H142559   3.997   4.018  10.133 -1.7262 -0.6573  1.2551
 7048TIP3    H242560   3.977   3.912  10.027  0.3582  1.0348 -0.9532
 7049TIP3   OH242561   2.437   5.373   0.592  0.1602 -0.1806 -1.1369
 7049TIP3    H142562   2.393   5.443   0.544  0.3027  0.3203 -0.5539
 7049TIP3    H242563   2.425   5.295   0.537  0.2501  0.3536 -1.9401
 7050TIP3   OH242564   4.288   0.796  15.298  0.2598 -0.4518 -0.1654
 7050TIP3    H142565   4.248   0.853  15.232 -0.2022 -0.6014 -0.0202
 7050TIP3    H242566   4.360   0.847  15.334 -0.7016  0.4160  0.5979
 7051TIP3   OH242567   5.204   4.149  13.889 -0.3209 -0.5745 -0.5818
 7051TIP3    H142568   5.248   4.208  13.951 -1.5956  1.7787 -1.7590
 7051TIP3    H242569   5.214   4.062  13.927  1.2980  0.4276  1.4958
 7052TIP3   OH242570   3.140   3.473  11.480  0.2205  0.1401 -0.4490
 7052TIP3    H142571   3.052   3.443  11.503  0.9260 -0.9054  1.0286
 7052TIP3    H242572   3.160   3.541  11.545  1.0248 -0.6142  0.1149
 7053TIP3   OH242573   7.177   4.492  15.276  0.3738  0.6185 -0.0684
 7053TIP3    H142574   7.182   4.519  15.367 -1.6659 -2.5290  1.1715
 7053TIP3    H242575   7.248   4.429  15.266 -0.8726 -0.8852  0.1736
 7054TIP3   OH242576   1.700   2.296  12.488  0.5604 -0.9237 -0.6276
 7054TIP3    H142577   1.660   2.381  12.510  1.3914 -0.6453 -0.1398
 7054TIP3    H242578   1.710   2.252  12.573  3.4540  0.0010 -0.3752
 7055TIP3   OH242579   4.669   6.989   0.846  0.1291 -0.2000  0.6223
 7055TIP3    H142580   4.745   7.041   0.819 -0.1529 -1.4178 -2.9833
 7055TIP3    H242581   4.705   6.922   0.904  1.6199  0.0025 -0.0288
 7056TIP3   OH242582   0.293   0.086  14.648 -1.0182  0.3691 -0.1381
 7056TIP3    H142583   0.208   0.087  14.604 -1.1723 -0.6566  0.1073
 7056TIP3    H242584   0.277   0.129  14.732 -1.1922  0.5567 -0.2670
 7057TIP3   OH242585   0.626   6.082   0.592 -0.5562 -0.1115 -0.3008
 7057TIP3    H142586   0.712   6.042   0.603 -0.4777  0.2619  0.5350
 7057TIP3    H242587   0.624   6.112   0.502  1.5175  2.8994  0.5209
 7058TIP3   OH242588   4.397   5.863  11.971  0.1041 -0.2966  0.1949
 7058TIP3    H142589   4.411   5.778  12.014  0.7080 -1.0805 -1.4642
 7058TIP3    H242590   4.302   5.872  11.965  0.0344 -1.5242 -0.8381
 7059TIP3   OH242591   4.446   3.306   0.678 -0.6091  0.3215  0.2364
 7059TIP3    H142592   4.531   3.347   0.695 -0.0997  0.0478 -1.4016
 7059TIP3    H242593   4.400   3.308   0.762  0.2862  2.1546  0.7350
 7060TIP3   OH242594   0.661   0.382  13.272  0.4925  0.4005  0.1855
 7060TIP3    H142595   0.584   0.334  13.239  0.6146  0.3345 -0.0088
 7060TIP3    H242596   0.710   0.316  13.321 -0.1370  0.7115  1.2641
 7061TIP3   OH242597   3.196   4.031  14.010 -0.1464  0.1590 -0.2535
 7061TIP3    H142598   3.201   3.955  13.952  0.3453  0.4212 -0.5651
 7061TIP3    H242599   3.239   4.001  14.091  0.6240  0.2972 -0.5994
 7062TIP3   OH242600   6.794   4.856  12.856  0.1994 -0.0058 -0.3931
 7062TIP3    H142601   6.833   4.878  12.940  1.0613 -2.2049 -0.1473
 7062TIP3    H242602   6.700   4.864  12.869  0.3888  1.8912  0.0653
 7063TIP3   OH242603   4.555   3.431  11.491  0.1205 -0.2498 -0.1684
 7063TIP3    H142604   4.488   3.438  11.423 -0.1754 -0.9767  0.0330
 7063TIP3    H242605   4.505   3.420  11.573  0.4757 -0.3568  0.0359
 7064TIP3   OH242606   5.061   6.671   4.610 -0.3659 -0.0034  0.3046
 7064TIP3    H142607   4.985   6.643   4.661  0.4142 -0.4777  1.2331
 7064TIP3    H242608   5.035   6.756   4.572 -1.0882  0.1841  1.1942
 7065TIP3   OH242609   6.344   5.965  10.818  0.4194 -0.2340  0.2835
 7065TIP3    H142610   6.406   5.892  10.815 -0.8573 -1.3318 -1.2975
 7065TIP3    H242611   6.340   5.997  10.728 -0.2210  0.7601  0.6528
 7066TIP3   OH242612   0.667   6.610  11.335 -0.0006 -0.1635  0.4892
 7066TIP3    H142613   0.607   6.601  11.261  0.2281  0.0795  0.2733
 7066TIP3    H242614   0.727   6.680  11.310  0.8478 -0.9091  0.3675
 7067TIP3   OH242615   2.363   4.878  14.160  0.0147 -0.6150  0.4605
 7067TIP3    H142616   2.393   4.814  14.224  2.6035 -1.0254 -1.0185
 7067TIP3    H242617   2.293   4.833  14.113  1.0506 -2.0208  0.1659
 7068TIP3   OH242618   3.119   3.240  12.302 -0.1591 -0.0774  0.0643
 7068TIP3    H142619   3.144   3.242  12.395  0.7807  1.2739 -0.1985
 7068TIP3    H242620   3.024   3.227  12.304  0.2471 -4.5723  1.0933
 7069TIP3   OH242621   4.139   2.885  12.662  0.1023 -0.2220 -0.7939
 7069TIP3    H142622   4.184   2.836  12.731 -1.4001 -0.7835 -0.1765
 7069TIP3    H242623   4.195   2.874  12.585  1.5956  0.0666  0.2042
 7070TIP3   OH242624   7.182   4.805  10.720 -0.4357  0.0096 -0.3647
 7070TIP3    H142625   7.141   4.745  10.782  1.8991 -0.5735  0.6937
 7070TIP3    H242626   7.224   4.749  10.655 -2.1516  0.6059 -2.1263
 7071TIP3   OH242627   7.171   2.875  12.100 -0.3357  0.0650  0.1287
 7071TIP3    H142628   7.222   2.957  12.098  1.8969 -1.2093  0.9922
 7071TIP3    H242629   7.152   2.857  12.008 -1.5264  1.9143 -0.0286
 7072TIP3   OH242630   4.530   3.661  12.576  0.2704  0.9627 -0.8876
 7072TIP3    H142631   4.451   3.686  12.623  0.7536  0.2550  0.3707
 7072TIP3    H242632   4.591   3.734  12.590 -0.0354  1.3544 -1.5688
 7073TIP3   OH242633   3.493   3.842  14.014  0.0733 -0.2717  0.4238
 7073TIP3    H142634   3.580   3.803  14.023  0.4361  0.2775 -0.5229
 7073TIP3    H242635   3.468   3.823  13.924  0.5358  2.1392 -0.2798
 7074TIP3   OH242636   5.171   5.100   2.922 -0.1467 -0.5152 -0.2011
 7074TIP3    H142637   5.219   5.183   2.915 -0.2927 -0.4016  0.1207
 7074TIP3    H242638   5.191   5.068   3.010 -1.4328  0.0186  0.3066
 7075TIP3   OH242639   0.056   2.729  14.790 -0.2407 -0.3523  0.3022
 7075TIP3    H142640  -0.024   2.781  14.796 -0.1258 -0.0902 -0.3282
 7075TIP3    H242641   0.034   2.646  14.833 -1.2662 -0.7628 -0.9446
 7076TIP3   OH242642   1.888   2.486  14.062  0.1723  0.2268  0.2651
 7076TIP3    H142643   1.847   2.411  14.019 -0.1060  0.9004 -0.6774
 7076TIP3    H242644   1.870   2.473  14.155 -2.7329  0.7715 -0.1277
 7077TIP3   OH242645   0.334   4.700  10.572 -0.0844 -0.5971 -0.5497
 7077TIP3    H142646   0.360   4.756  10.499 -0.9058 -0.3381 -0.6605
 7077TIP3    H242647   0.239   4.690  10.561  0.0541 -2.1005 -0.6043
 7078TIP3   OH242648   1.300   6.676   3.028 -0.2285 -0.5572  0.2043
 7078TIP3    H142649   1.366   6.634   2.973  0.6412 -0.5982  1.2466
 7078TIP3    H242650   1.349   6.735   3.085 -1.1802  0.0342  0.4469
 7079TIP3   OH242651   6.461   5.594   0.318 -0.1700  0.8209 -0.6775
 7079TIP3    H142652   6.403   5.576   0.393  0.2520  0.4821 -0.4268
 7079TIP3    H242653   6.404   5.585   0.241 -0.1285 -1.0354 -0.5398
 7080TIP3   OH242654   6.340   2.493  10.261 -0.8495 -0.0646  0.5990
 7080TIP3    H142655   6.364   2.575  10.218 -1.5033 -0.3543 -0.3551
 7080TIP3    H242656   6.299   2.519  10.343 -0.3004  0.5288  0.6896
 7081TIP3   OH242657   6.582   5.689  14.145  0.0688 -0.4741 -0.1266
 7081TIP3    H142658   6.664   5.736  14.133 -0.0942 -0.3423 -0.7669
 7081TIP3    H242659   6.573   5.680  14.240  0.6749 -0.2349 -0.0433
 7082TIP3   OH242660   6.229   0.419  11.466 -0.3439  0.0991  0.0530
 7082TIP3    H142661   6.260   0.402  11.555  0.5542  0.8890 -0.0978
 7082TIP3    H242662   6.297   0.473  11.426 -0.2532 -1.0518 -1.4399
 7083TIP3   OH242663   6.408   0.309  12.063  0.2785  0.2298 -0.5443
 7083TIP3    H142664   6.501   0.308  12.085  0.4861  0.6968 -1.3265
 7083TIP3    H242665   6.382   0.217  12.063  0.8019  0.0777 -0.5535
 7084TIP3   OH242666   1.727   6.384   3.391 -0.0320 -0.2036 -0.1343
 7084TIP3    H142667   1.710   6.290   3.378 -0.9862  0.0477 -0.7619
 7084TIP3    H242668   1.751   6.416   3.304 -0.2003  0.2308 -0.0200
 7085TIP3   OH242669   5.359   2.953  13.287 -0.2483 -0.5949  0.1745
 7085TIP3    H142670   5.345   2.956  13.381 -0.2128  0.5127  0.1581
 7085TIP3    H242671   5.274   2.977  13.249 -0.5243 -1.9268 -0.1159
 7086TIP3   OH242672   0.911   3.798  12.187 -0.1575  0.5360 -0.0802
 7086TIP3    H142673   0.969   3.722  12.174 -0.8468  0.3692 -2.8685
 7086TIP3    H242674   0.825   3.759  12.202  0.0451  0.8068  2.0794
 7087TIP3   OH242675   5.698   2.549  14.268 -0.2184 -0.3000 -0.2180
 7087TIP3    H142676   5.682   2.562  14.361  0.9660 -0.2335 -0.0077
 7087TIP3    H242677   5.793   2.553  14.259 -0.3941  2.4376 -1.8412
 7088TIP3   OH242678   4.580   2.684  13.676  0.4168  0.1965  0.2859
 7088TIP3    H142679   4.536   2.689  13.761 -0.8108  0.8029 -0.3442
 7088TIP3    H242680   4.508   2.673  13.613  1.3548 -1.1449 -0.6042
 7089TIP3   OH242681   5.540   1.723  10.953 -0.3734  0.3812  0.4576
 7089TIP3    H142682   5.490   1.684  10.882 -0.1869  0.2361  0.4086
 7089TIP3    H242683   5.485   1.710  11.031 -0.3783  0.1582  0.4160
 7090TIP3   OH242684   6.730   3.939   3.164  0.0480 -0.2292 -0.1116
 7090TIP3    H142685   6.796   4.006   3.179 -0.4680  0.1931  0.2917
 7090TIP3    H242686   6.647   3.981   3.187 -0.3130 -0.8986 -0.1689
 7091TIP3   OH242687   6.029   0.977  12.757 -0.0392  0.0240 -0.7379
 7091TIP3    H142688   6.033   0.885  12.728  2.0633 -0.0263 -0.4400
 7091TIP3    H242689   6.063   1.027  12.682 -0.8807  0.5492 -0.7815
 7092TIP3   OH242690   1.406   4.899  11.125 -0.9136  0.1146 -0.2861
 7092TIP3    H142691   1.351   4.836  11.172  0.3416 -0.5009  0.4032
 7092TIP3    H242692   1.495   4.876  11.150 -0.3154  0.9040 -1.6128
 7093TIP3   OH242693   2.207   6.799  13.481 -0.2586  0.0280  0.1763
 7093TIP3    H142694   2.287   6.772  13.436 -0.5751  1.4604 -1.3698
 7093TIP3    H242695   2.137   6.756  13.431 -0.5767  1.0372 -0.2746
 7094TIP3   OH242696   3.669   0.012   4.256 -0.1924 -0.4947  0.2564
 7094TIP3    H142697   3.699   0.094   4.295 -0.0107  0.0574 -0.9796
 7094TIP3    H242698   3.579   0.030   4.229  0.1244 -0.4029 -0.7844
 7095TIP3   OH242699   5.186   6.395  12.729  0.2571  0.4240 -0.1689
 7095TIP3    H142700   5.216   6.306  12.710  1.6103  0.2573  2.3131
 7095TIP3    H242701   5.264   6.440  12.762 -1.2015  1.3159  2.3636
 7096TIP3   OH242702   1.874   4.147  14.924 -0.1545 -0.3185  0.0730
 7096TIP3    H142703   1.898   4.055  14.928  1.1820 -0.2109 -2.9201
 7096TIP3    H242704   1.860   4.165  14.831  0.0436  2.6062  0.4885
 7097TIP3   OH242705   0.215   4.519   0.944  0.2818 -0.0842 -0.3723
 7097TIP3    H142706   0.163   4.548   1.019  1.0217  0.2830  0.0057
 7097TIP3    H242707   0.263   4.596   0.917  0.7223 -0.4501 -0.6433
 7098TIP3   OH242708   5.280   4.416  10.987  0.2904  0.3790  0.3470
 7098TIP3    H142709   5.224   4.391  10.914 -3.2340  1.4742  2.4201
 7098TIP3    H242710   5.291   4.511  10.978  2.2318  0.1509 -0.1925
 7099TIP3   OH242711   6.482   0.913  13.430 -0.6422  0.4793 -0.3278
 7099TIP3    H142712   6.444   0.908  13.342  1.1081  1.7095 -1.2131
 7099TIP3    H242713   6.484   1.006  13.450 -0.4642  0.2496  0.7726
 7100TIP3   OH242714   1.800   6.990   9.812  0.6312 -0.3859  0.0239
 7100TIP3    H142715   1.836   7.045   9.742  1.9936 -0.3578  0.7173
 7100TIP3    H242716   1.706   6.983   9.791  0.9881 -0.3283 -1.7494
 7101TIP3   OH242717   0.516   5.595  10.973  0.0363 -0.6561  0.1843
 7101TIP3    H142718   0.423   5.589  10.948  0.2091  1.4942 -1.3274
 7101TIP3    H242719   0.516   5.652  11.050  0.0315 -1.7455  1.0091
 7102TIP3   OH242720   0.255   3.781   1.220 -0.4264 -0.0469  0.0890
 7102TIP3    H142721   0.212   3.704   1.182  0.1173 -0.3766  0.1287
 7102TIP3    H242722   0.240   3.773   1.314 -1.3864  0.5313 -0.0009
 7103TIP3   OH242723   1.448   7.011   2.144  0.0028 -0.1596  0.2939
 7103TIP3    H142724   1.456   7.081   2.080  0.2848 -1.7604 -1.5144
 7103TIP3    H242725   1.394   6.944   2.101 -1.1609 -0.6567  2.3499
 7104TIP3   OH242726   4.631   3.672  12.333 -0.4440  0.5748  0.1683
 7104TIP3    H142727   4.717   3.694  12.369 -0.7548  1.6768  0.2879
 7104TIP3    H242728   4.582   3.638  12.408 -0.9593  2.4874  0.7633
 7105TIP3   OH242729   3.453   6.034   5.056 -0.2059  0.6277  0.0531
 7105TIP3    H142730   3.478   5.945   5.081 -0.8246 -0.0049 -1.5054
 7105TIP3    H242731   3.358   6.037   5.066 -0.3162  0.7634 -0.9140
 7106TIP3   OH242732   2.108   0.839  13.512  0.5443  0.2547 -0.6629
 7106TIP3    H142733   2.062   0.755  13.521  1.5312 -0.1623  0.7938
 7106TIP3    H242734   2.162   0.829  13.434  2.0542 -1.2109  0.4875
 7107TIP3   OH242735   6.463   4.593  10.202  0.6555 -0.2625 -0.1839
 7107TIP3    H142736   6.444   4.670  10.148  0.5890 -0.0852  0.0880
 7107TIP3    H242737   6.458   4.625  10.292  1.6478 -0.3525 -0.0913
 7108TIP3   OH242738   1.969   4.167  12.082  0.3472 -0.8058  0.0366
 7108TIP3    H142739   2.032   4.191  12.013  0.6732  0.6594  0.8143
 7108TIP3    H242740   1.987   4.074  12.098 -0.0528 -1.3237 -2.1541
 7109TIP3   OH242741   1.957   0.789  12.990  0.1480  0.6893 -0.7032
 7109TIP3    H142742   1.945   0.741  12.909  0.3722  0.7850 -0.7950
 7109TIP3    H242743   1.869   0.802  13.024  0.1302 -0.4846 -0.2671
 7110TIP3   OH242744   2.460   5.640  11.795  0.6504 -0.3164  0.2656
 7110TIP3    H142745   2.526   5.626  11.863 -0.1538 -0.9962  0.9310
 7110TIP3    H242746   2.402   5.707  11.831  0.0967 -0.8351  0.3450
 7111TIP3   OH242747   1.040   7.143   1.148 -0.1681 -0.7126  0.0853
 7111TIP3    H142748   1.065   7.053   1.169 -0.1506 -0.4975  1.0224
 7111TIP3    H242749   0.946   7.139   1.131  0.1821 -1.2694 -2.0146
 7112TIP3   OH242750   4.671   2.701   1.442 -0.3377  0.2498 -0.3812
 7112TIP3    H142751   4.632   2.613   1.442  0.3685 -0.1307  1.6828
 7112TIP3    H242752   4.617   2.750   1.504  0.6963  0.5603  0.2895
 7113TIP3   OH242753   6.591   3.284   0.251  0.1370  0.6803  0.1751
 7113TIP3    H142754   6.533   3.252   0.319  1.1408 -1.8451 -0.0496
 7113TIP3    H242755   6.557   3.247   0.170  0.9008  0.8212 -0.2259
 7114TIP3   OH242756   6.182   3.090   2.278 -0.4285  0.0209 -0.6345
 7114TIP3    H142757   6.111   3.027   2.289 -0.6022 -0.6185 -4.2866
 7114TIP3    H242758   6.140   3.176   2.286 -0.9219 -0.3265  0.5920
 7115TIP3   OH242759   3.802   4.730   9.977 -1.0129  0.1963  0.1320
 7115TIP3    H142760   3.887   4.731  10.021 -1.1836  1.5429  0.4744
 7115TIP3    H242761   3.782   4.637   9.966  0.8206 -0.1552 -0.6014
 7116TIP3   OH242762   1.191   0.713   0.886  0.5935 -0.1490  0.3224
 7116TIP3    H142763   1.152   0.793   0.851  1.9339  0.3094 -0.1933
 7116TIP3    H242764   1.117   0.662   0.917 -0.2917  1.3440  0.7824
 7117TIP3   OH242765   1.056   2.962   2.778  0.0659 -0.3474  0.2568
 7117TIP3    H142766   1.025   2.999   2.861  0.9738  0.4338  0.2578
 7117TIP3    H242767   0.978   2.959   2.723 -0.4127 -0.2470  0.9097
 7118TIP3   OH242768   5.549   1.873   1.234 -0.2476  0.0474 -0.3008
 7118TIP3    H142769   5.555   1.894   1.327  0.2354 -1.3391  0.0064
 7118TIP3    H242770   5.615   1.805   1.221 -1.1088 -0.6036 -1.4124
 7119TIP3   OH242771   0.668   2.577  13.194  0.1335  0.1188  0.0668
 7119TIP3    H142772   0.630   2.490  13.184  1.4152 -0.5488  0.7206
 7119TIP3    H242773   0.720   2.571  13.274 -1.8228  2.2767  1.6500
 7120TIP3   OH242774   1.711   4.606   2.948 -0.0746 -0.1664  0.2432
 7120TIP3    H142775   1.634   4.592   2.892  0.0145  1.1212 -0.2226
 7120TIP3    H242776   1.757   4.522   2.946 -0.9465 -0.6525 -0.2616
 7121TIP3   OH242777   4.307   4.782  11.415 -0.0272  0.0132 -0.1685
 7121TIP3    H142778   4.304   4.705  11.358 -1.2651  1.2148 -1.8057
 7121TIP3    H242779   4.387   4.828  11.388 -0.1981  0.1835 -0.3824
 7122TIP3   OH242780   0.794   5.996  14.342  0.4524  0.0958  0.6119
 7122TIP3    H142781   0.702   6.000  14.367 -0.8641 -1.8522 -3.2250
 7122TIP3    H242782   0.817   6.086  14.319 -1.0244  0.3459  0.0245
 7123TIP3   OH242783   2.012   6.419   1.357 -0.0460  0.4522  0.6031
 7123TIP3    H142784   2.082   6.377   1.307 -0.2929 -0.9856  1.4113
 7123TIP3    H242785   2.057   6.480   1.415  0.2430  2.2122 -1.3520
 7124TIP3   OH242786   0.831   4.423  10.955 -0.9142 -0.3608  0.1666
 7124TIP3    H142787   0.810   4.415  11.048  0.5777  0.0550  0.5642
 7124TIP3    H242788   0.909   4.478  10.953  1.1248 -3.0688 -1.0634
 7125TIP3   OH242789   1.110   2.206  13.616  0.2821 -0.5235  0.2341
 7125TIP3    H142790   1.044   2.276  13.615 -0.6527 -1.1791  3.2759
 7125TIP3    H242791   1.193   2.251  13.628  0.0902  0.1821 -0.9472
 7126TIP3   OH242792   1.388   6.872   0.485  0.2393 -0.4086 -0.1847
 7126TIP3    H142793   1.341   6.829   0.557 -0.6568 -0.6815 -0.9139
 7126TIP3    H242794   1.340   6.846   0.406 -0.8009  2.4741 -0.6223
 7127TIP3   OH242795   3.932   6.807   0.861  0.3703  0.0146 -0.1267
 7127TIP3    H142796   3.937   6.737   0.796 -0.5139  0.4301 -0.6727
 7127TIP3    H242797   3.839   6.831   0.862  0.9618  3.0068 -1.9619
 7128TIP3   OH242798   6.438   2.766  15.271 -0.1382 -0.0010 -0.0850
 7128TIP3    H142799   6.360   2.715  15.249 -1.2310  1.0233  1.1979
 7128TIP3    H242800   6.413   2.857  15.252  1.7520  0.1392 -2.3076
 7129TIP3   OH242801   2.506   2.007   1.347  0.4216 -0.1344 -0.1757
 7129TIP3    H142802   2.455   2.017   1.267 -1.2975  1.4524  1.0336
 7129TIP3    H242803   2.596   1.992   1.317 -0.7105 -3.5458 -2.4022
 7130TIP3   OH242804   6.858   0.297   0.686  0.0617  0.6829 -0.2390
 7130TIP3    H142805   6.790   0.295   0.619  2.5372  1.1779 -2.9730
 7130TIP3    H242806   6.895   0.385   0.679 -1.4854  1.9119  4.0058
 7131TIP3   OH242807   5.619   5.471  14.691  0.6415 -0.2420  0.2671
 7131TIP3    H142808   5.646   5.463  14.783 -1.4276  1.0317  1.0493
 7131TIP3    H242809   5.632   5.563  14.670  0.7216 -0.4432 -0.6215
 7132TIP3   OH242810   6.641   2.343  13.513 -0.1605  0.0819 -0.0776
 7132TIP3    H142811   6.614   2.273  13.573 -0.8991  0.1860 -0.2780
 7132TIP3    H242812   6.631   2.423  13.564 -1.3655  0.2243 -0.5172
 7133TIP3   OH242813   4.838   6.752  14.732 -0.2359  0.5583  0.8635
 7133TIP3    H142814   4.840   6.662  14.767  1.2116  0.1479 -0.1692
 7133TIP3    H242815   4.884   6.746  14.649  0.1315  2.3314  0.9056
 7134TIP3   OH242816   5.619   2.353  14.075 -0.2056 -0.2793  0.3720
 7134TIP3    H142817   5.643   2.419  14.140  1.2064  1.0632 -1.3925
 7134TIP3    H242818   5.692   2.291  14.077  0.5359  0.5244 -0.8485
 7135TIP3   OH242819   2.212   1.431   1.867 -0.4939  0.4341  0.3986
 7135TIP3    H142820   2.178   1.404   1.952  0.0265  2.0746  1.1574
 7135TIP3    H242821   2.236   1.523   1.878 -1.2627  0.9700 -1.7799
 7136TIP3   OH242822   6.630   0.085   9.736  0.0523 -0.5013  0.2121
 7136TIP3    H142823   6.688   0.158   9.717 -0.4948 -0.2009 -0.3476
 7136TIP3    H242824   6.594   0.104   9.822 -0.1651 -0.0524  0.0242
 7137TIP3   OH242825   3.669   0.588  11.980  0.1917 -0.2300 -0.2554
 7137TIP3    H142826   3.691   0.679  11.961 -0.1894 -0.3316 -1.2331
 7137TIP3    H242827   3.630   0.555  11.899  0.7951 -1.4221 -0.0860
 7138TIP3   OH242828   5.596   7.002  13.858 -0.7236  0.4192  0.4617
 7138TIP3    H142829   5.508   7.028  13.884 -1.7136 -3.7372  2.0090
 7138TIP3    H242830   5.636   6.969  13.938  1.7878  0.9456 -0.4962
 7139TIP3   OH242831   0.975   6.104  13.849  0.2524  0.1446 -0.1288
 7139TIP3    H142832   0.901   6.078  13.794 -0.3977 -0.0157  0.7760
 7139TIP3    H242833   0.965   6.051  13.928 -0.3629  2.1826  1.2512
 7140TIP3   OH242834   2.034   5.802  12.776  0.1538 -0.1177  0.8448
 7140TIP3    H142835   1.961   5.758  12.821  1.7153 -2.2206  1.4969
 7140TIP3    H242836   2.088   5.730  12.744  1.4422  1.3952 -0.4880
 7141TIP3   OH242837   5.183   3.818  14.748  0.1590  0.1327  0.3375
 7141TIP3    H142838   5.166   3.726  14.728 -0.1751 -0.0565  1.4138
 7141TIP3    H242839   5.278   3.826  14.746  0.1795 -0.1843  0.0117
 7142TIP3   OH242840   7.155   4.866  13.894 -0.0072 -0.0617 -0.5055
 7142TIP3    H142841   7.170   4.910  13.810 -1.0757  0.4671 -0.4386
 7142TIP3    H242842   7.145   4.937  13.957  0.1866 -0.4452 -0.0399
 7143TIP3   OH242843   5.726   1.096   2.037  0.3125 -0.3515 -0.3262
 7143TIP3    H142844   5.758   1.149   1.964 -0.0897  0.6920  0.2363
 7143TIP3    H242845   5.790   1.025   2.045  1.7431  0.8997 -0.1292
 7144TIP3   OH242846   3.109   0.604   2.223 -0.5466  0.3020  0.3785
 7144TIP3    H142847   3.199   0.582   2.199 -0.3579 -0.2820  1.5931
 7144TIP3    H242848   3.061   0.599   2.140  0.3056 -0.5296 -0.0841
 7145TIP3   OH242849   5.614   1.930  13.897 -0.5200 -0.6986 -0.3309
 7145TIP3    H142850   5.573   1.929  13.984 -1.5957  1.2075 -0.7765
 7145TIP3    H242851   5.545   1.901  13.838 -0.1312 -0.8737 -0.7082
 7146TIP3   OH242852   3.375   2.929   3.050  0.2167 -0.4124 -0.8288
 7146TIP3    H142853   3.355   3.010   3.097 -1.2031 -0.3038 -1.5820
 7146TIP3    H242854   3.299   2.872   3.067  0.3299 -0.8842 -1.8372
 7147TIP3   OH242855   0.012   3.084  14.903 -0.1566 -0.0201 -0.0752
 7147TIP3    H142856  -0.064   3.142  14.911 -0.4979 -0.4998  0.2731
 7147TIP3    H242857  -0.025   2.996  14.908  0.5105 -0.2565  1.0591
 7148TIP3   OH242858   4.072   0.395   3.706 -0.2840 -0.3040  0.2539
 7148TIP3    H142859   4.122   0.405   3.625 -0.2069  0.6640  0.4076
 7148TIP3    H242860   4.066   0.301   3.719  1.0980 -0.4577 -0.0227
 7149TIP3   OH242861   1.778   3.353  14.291 -0.0401 -0.3843  0.3994
 7149TIP3    H142862   1.736   3.277  14.332 -0.0530 -0.2296  0.6781
 7149TIP3    H242863   1.745   3.428  14.341  1.5704 -0.3586  1.5115
 7150TIP3   OH242864   5.611   0.209   1.485  0.3969  0.3228  0.5014
 7150TIP3    H142865   5.541   0.245   1.540  1.6286  2.5162  0.7501
 7150TIP3    H242866   5.566   0.177   1.406 -1.2441 -1.6741  2.1202
 7151TIP3   OH242867   2.364   1.014  13.967  0.0893 -0.1936 -0.2005
 7151TIP3    H142868   2.388   0.930  14.008 -1.3150  0.1656  1.4962
 7151TIP3    H242869   2.446   1.064  13.967  0.4958 -0.8122  0.7471
 7152TIP3   OH242870   4.104   2.278  10.450 -0.4284  0.2606 -0.0946
 7152TIP3    H142871   4.044   2.323  10.390  0.6024  0.6831 -0.8451
 7152TIP3    H242872   4.129   2.346  10.513 -0.6436  0.1126  0.1531
 7153TIP3   OH242873   3.550   2.368   3.323 -0.2020 -0.4130 -0.0398
 7153TIP3    H142874   3.555   2.437   3.389  0.0919  1.9177 -2.3606
 7153TIP3    H242875   3.494   2.403   3.254  0.2252 -2.3649 -1.4874
 7154TIP3   OH242876   3.882   3.930   2.498 -0.4794  0.1527  0.1883
 7154TIP3    H142877   3.816   3.984   2.454 -0.5584  1.2605  1.5954
 7154TIP3    H242878   3.960   3.939   2.443 -0.9774  0.2778 -0.5243
 7155TIP3   OH242879   6.181   1.509   2.383  0.4299  0.4134  0.5629
 7155TIP3    H142880   6.245   1.441   2.406 -0.4112 -0.7370 -0.4451
 7155TIP3    H242881   6.226   1.591   2.406  2.2891 -0.3484 -0.1210
 7156TIP3   OH242882   2.006   2.138   3.954 -0.4436  0.1048 -0.4632
 7156TIP3    H142883   1.972   2.093   4.032 -0.1724  0.7993  0.0668
 7156TIP3    H242884   1.966   2.092   3.881 -2.0724  0.5091  0.1246
 7157TIP3   OH242885   7.096   2.320   4.519  0.2752 -0.2504 -0.2872
 7157TIP3    H142886   7.141   2.396   4.555  0.3859 -0.5741  0.2674
 7157TIP3    H242887   7.157   2.248   4.531  0.3194 -0.3728 -1.1450
 7158TIP3   OH242888   1.681   0.933   5.777  0.6069  0.5234  0.0224
 7158TIP3    H142889   1.743   1.006   5.777  0.3231  0.7757  0.6281
 7158TIP3    H242890   1.661   0.919   5.870  0.6281 -0.3001 -0.0927
 7159TIP3   OH242891   5.706   0.515   2.966 -0.7426 -0.6227 -0.0999
 7159TIP3    H142892   5.677   0.507   2.875  2.8697  0.3478 -1.5261
 7159TIP3    H242893   5.788   0.465   2.969 -0.0981  0.4630  2.2508
 7160TIP3   OH242894   6.920   4.802  10.569  0.2697 -0.3994  0.3367
 7160TIP3    H142895   6.917   4.857  10.491 -1.1444 -0.2474  0.4696
 7160TIP3    H242896   7.001   4.828  10.613  0.1752  0.8078 -0.1547
 7161TIP3   OH242897   2.219   4.113   3.745  0.2924  0.1486  0.0269
 7161TIP3    H142898   2.260   4.041   3.794  0.5260 -2.1629 -3.2301
 7161TIP3    H242899   2.282   4.185   3.751  0.7184 -0.3342  2.2177
 7162TIP3   OH242900   7.194   0.176  14.913  0.3041 -0.4788 -0.1601
 7162TIP3    H142901   7.183   0.232  14.836  0.5969 -0.3075 -0.0804
 7162TIP3    H242902   7.110   0.180  14.958 -0.4648 -1.9764 -1.3807
 7163TIP3   OH242903   5.587   1.626   2.461 -0.0831  0.4283  0.0589
 7163TIP3    H142904   5.679   1.651   2.472  0.4520 -1.8949  1.4426
 7163TIP3    H242905   5.547   1.643   2.546 -0.4891 -0.1964 -0.0012
 7164TIP3   OH242906   6.249   5.252  10.743 -0.0188 -0.2502  0.2376
 7164TIP3    H142907   6.319   5.287  10.798 -0.9922 -1.4274  2.3636
 7164TIP3    H242908   6.250   5.307  10.664  2.4689  0.5153  0.7250
 7165TIP3   OH242909   4.244   4.444  10.585  0.3042 -0.4590  1.0071
 7165TIP3    H142910   4.252   4.533  10.551  0.8563 -0.2973  1.5519
 7165TIP3    H242911   4.333   4.419  10.607  0.3668 -1.6892 -0.4897
 7166TIP3   OH242912   5.646   6.123  15.125  0.1560 -0.0037  0.0236
 7166TIP3    H142913   5.636   6.039  15.171 -1.5258  0.6613  0.9717
 7166TIP3    H242914   5.733   6.154  15.150  0.8425 -1.4713 -0.3985
 7167TIP3   OH242915   2.519   4.850  11.303 -0.3026 -0.0379  0.1130
 7167TIP3    H142916   2.479   4.772  11.264  1.8937 -0.9260 -0.5022
 7167TIP3    H242917   2.480   4.923  11.254  0.0752 -0.9468 -1.6397
 7168TIP3   OH242918   6.768   0.144   0.913  0.5785 -0.3445 -0.1926
 7168TIP3    H142919   6.817   0.191   0.845  1.9171  2.2466  2.3497
 7168TIP3    H242920   6.678   0.174   0.903  0.6885 -0.2499 -0.9976
 7169TIP3   OH242921   0.397   3.263  12.216  0.2501 -0.6539 -0.2892
 7169TIP3    H142922   0.335   3.298  12.281  1.2745  0.0359  0.3413
 7169TIP3    H242923   0.370   3.303  12.133 -0.4293 -0.7273 -0.1084
 7170TIP3   OH242924   1.725   2.174   1.278  0.2425 -0.2145 -0.0593
 7170TIP3    H142925   1.777   2.248   1.247 -1.5235  1.5409  0.9050
 7170TIP3    H242926   1.634   2.198   1.258 -0.4935 -1.5374  1.3971
 7171TIP3   OH242927   3.288   1.761   1.720 -0.0184  0.5699 -0.2074
 7171TIP3    H142928   3.336   1.842   1.738  0.5553  0.1870  0.0145
 7171TIP3    H242929   3.201   1.791   1.695  0.1463  1.2539 -0.0107
 7172TIP3   OH242930   5.549   4.033  11.760  0.0155 -0.0596 -0.5421
 7172TIP3    H142931   5.610   4.040  11.686  1.9498  1.7550  1.1016
 7172TIP3    H242932   5.470   4.076  11.729  0.3794 -0.3122 -1.9182
 7173TIP3   OH242933   4.636   0.114   0.569  0.2310  0.3665  0.2037
 7173TIP3    H142934   4.706   0.104   0.634  1.1037 -0.8597 -0.8678
 7173TIP3    H242935   4.682   0.135   0.488 -0.4078 -2.3205 -0.9751
 7174TIP3   OH242936   5.787   0.673  13.260  0.2211 -0.3716 -0.1613
 7174TIP3    H142937   5.854   0.709  13.202  0.3660  0.3591  0.4557
 7174TIP3    H242938   5.712   0.657  13.202  0.8556 -1.0436 -0.8226
 7175TIP3   OH242939   2.696   0.319  11.991 -0.2856  0.2503  0.4301
 7175TIP3    H142940   2.647   0.348  12.068 -1.5960 -0.0089 -0.2704
 7175TIP3    H242941   2.787   0.343  12.009 -0.7817  1.4360  1.4601
 7176TIP3   OH242942   3.970   0.160  11.058 -0.4682  0.4561 -0.1988
 7176TIP3    H142943   4.043   0.207  11.019 -0.9298  1.1686 -0.2295
 7176TIP3    H242944   3.933   0.221  11.122 -0.8320 -0.0190  0.0537
 7177TIP3   OH242945   5.951   6.620  15.081 -0.2861  0.1025 -0.7085
 7177TIP3    H142946   6.008   6.549  15.110  1.5326  1.5490 -0.5390
 7177TIP3    H242947   6.001   6.699  15.099 -2.1514  1.4368 -1.0895
 7178TIP3   OH242948   4.191   1.709  11.480  0.2211  0.2381 -0.3311
 7178TIP3    H142949   4.124   1.642  11.492  0.0838 -0.0783 -2.5847
 7178TIP3    H242950   4.164   1.780  11.540 -0.9310 -0.7332  0.3492
 7179TIP3   OH242951   3.465   3.922   2.900 -0.1947  0.1810  0.0812
 7179TIP3    H142952   3.546   3.949   2.858 -0.5455 -0.7766 -1.2825
 7179TIP3    H242953   3.493   3.885   2.984  0.6588  0.8701  0.1118
 7180TIP3   OH242954   0.586   5.686  13.808 -0.4146  0.0654 -0.4494
 7180TIP3    H142955   0.661   5.730  13.849 -1.0761 -1.2610  2.4316
 7180TIP3    H242956   0.559   5.746  13.738  0.7287  2.6074  1.1302
 7181TIP3   OH242957   5.068   5.410   0.240  0.2566 -0.7875 -0.3262
 7181TIP3    H142958   5.049   5.420   0.147 -0.1607  0.9661 -0.0970
 7181TIP3    H242959   5.108   5.494   0.265 -1.4266 -0.4559  1.4667
 7182TIP3   OH242960   6.353   2.487   4.969  0.0520 -0.4215 -0.4335
 7182TIP3    H142961   6.282   2.466   4.909  0.0869 -1.7187 -0.0499
 7182TIP3    H242962   6.414   2.539   4.917 -0.7806  0.0197 -0.9908
 7183TIP3   OH242963   0.812   1.028  11.641 -0.0564 -0.1720 -0.3223
 7183TIP3    H142964   0.768   1.046  11.559 -0.3877 -0.0786 -0.1271
 7183TIP3    H242965   0.742   1.026  11.706  0.1652 -0.5322 -0.0874
 7184TIP3   OH242966   1.494   4.507   0.741 -0.2989  0.2306  0.3042
 7184TIP3    H142967   1.509   4.437   0.677  1.7108  0.9359 -0.0439
 7184TIP3    H242968   1.526   4.471   0.824  0.8657  0.7567  0.0984
 7185TIP3   OH242969   2.547   0.529   0.949  0.1926 -0.1604  0.1503
 7185TIP3    H142970   2.548   0.600   0.885  1.3355  0.5883  0.9617
 7185TIP3    H242971   2.468   0.478   0.928  0.6428 -0.0615 -1.9607
 7186TIP3   OH242972   6.183   4.311   4.440 -0.2549 -0.1821  0.3203
 7186TIP3    H142973   6.152   4.349   4.358  0.1165 -0.7764 -0.1109
 7186TIP3    H242974   6.105   4.271   4.480 -0.0089 -2.2154 -1.0563
 7187TIP3   OH242975   6.912   2.742   3.791  0.7331  0.2793  0.5075
 7187TIP3    H142976   6.963   2.791   3.727  0.3307 -2.2853 -1.9508
 7187TIP3    H242977   6.977   2.708   3.853  1.8112 -1.0844 -1.2872
 7188TIP3   OH242978   4.129   4.508  14.068 -0.2444 -0.1726 -0.6322
 7188TIP3    H142979   4.125   4.578  14.003 -0.9880 -0.4714 -0.9219
 7188TIP3    H242980   4.145   4.428  14.017  1.0557 -0.1764 -0.2651
 7189TIP3   OH242981   3.279   4.894  13.281 -0.3443  0.5109  0.2078
 7189TIP3    H142982   3.276   4.980  13.323 -1.1909  0.7269 -0.2507
 7189TIP3    H242983   3.192   4.885  13.241  0.1485 -0.0344 -0.7715
 7190TIP3   OH242984   4.840   4.553  12.333  0.4607  0.4511 -0.7210
 7190TIP3    H142985   4.844   4.627  12.272 -0.6484 -0.6302 -2.1679
 7190TIP3    H242986   4.758   4.509  12.312  0.6969 -0.7195  0.6866
 7191TIP3   OH242987   1.608   5.794   0.582 -0.0673 -0.1026  0.4134
 7191TIP3    H142988   1.666   5.843   0.640  0.7778 -0.4510 -0.1275
 7191TIP3    H242989   1.628   5.702   0.601 -1.1896 -0.2512  0.9681
 7192TIP3   OH242990   5.828   0.458  11.603  0.5645  0.0112 -0.2040
 7192TIP3    H142991   5.904   0.442  11.548  0.6731 -1.5574  0.3563
 7192TIP3    H242992   5.860   0.443  11.692 -0.3276 -0.3540  0.0610
 7193TIP3   OH242993   3.677   1.504   2.952 -0.5567  0.6678 -0.6056
 7193TIP3    H142994   3.627   1.574   2.911  0.2681  2.0032  0.5918
 7193TIP3    H242995   3.632   1.488   3.035 -0.5899 -0.0586 -0.7568
 7194TIP3   OH242996   2.917   3.761   1.983 -0.3036  0.1316  0.5979
 7194TIP3    H142997   2.963   3.679   2.003 -0.2193 -0.7409 -2.6576
 7194TIP3    H242998   2.826   3.744   2.009 -0.4690 -1.3883 -0.8079
 7195TIP3   OH242999   2.029   4.649   3.163 -0.3348 -0.3046 -0.2498
 7195TIP3    H143000   2.114   4.666   3.204 -0.4820 -0.5694  0.1841
 7195TIP3    H243001   1.987   4.734   3.157 -0.1521 -0.2104 -0.1956
 7196TIP3   OH243002   0.426   6.234  12.826 -0.1813 -0.2563  0.0743
 7196TIP3    H143003   0.465   6.321  12.823 -0.2975 -0.2219 -1.1178
 7196TIP3    H243004   0.334   6.247  12.804  0.0391 -0.7727 -1.3166
 7197TIP3   OH243005   3.345   2.824  11.008 -0.5845  0.5923  0.1372
 7197TIP3    H143006   3.417   2.829  10.945 -0.6708  0.2223  0.0073
 7197TIP3    H243007   3.275   2.780  10.960 -1.6112  2.6414 -0.4020
 7198TIP3   OH243008   2.786   0.459  11.034  0.1429  0.6474 -0.5629
 7198TIP3    H143009   2.813   0.442  11.124  1.6285  1.8081 -0.7383
 7198TIP3    H243010   2.742   0.378  11.006  0.0533  0.1083  1.0418
 7199TIP3   OH243011   0.661   1.948  10.706 -0.2916 -0.0531  0.0075
 7199TIP3    H143012   0.735   2.007  10.691  1.1721 -2.1026 -1.5143
 7199TIP3    H243013   0.602   1.997  10.764  1.5505  2.2276  0.1109
 7200TIP3   OH243014   2.184   3.024  15.182 -0.3637 -0.2481  0.2723
 7200TIP3    H143015   2.178   3.077  15.261 -1.5497  1.9153 -1.1615
 7200TIP3    H243016   2.100   2.980  15.176 -0.5941  0.2323 -0.1644
 7201TIP3   OH243017   5.611   1.926  12.976 -0.1279  0.0814 -0.0338
 7201TIP3    H143018   5.693   1.938  13.024 -0.8256 -0.3719  1.3136
 7201TIP3    H243019   5.555   1.997  13.007 -1.3010 -1.4359  1.4417
 7202TIP3   OH243020   4.534   4.042   0.702 -0.2597  0.3338  0.2295
 7202TIP3    H143021   4.464   3.982   0.674 -1.0973  0.9402  0.9559
 7202TIP3    H243022   4.488   4.123   0.724  0.6614  0.6805  0.9272
 7203TIP3   OH243023   6.964   7.123  13.664  0.3768  0.2681  0.1310
 7203TIP3    H143024   6.905   7.138  13.591  1.1458 -0.1184 -0.5778
 7203TIP3    H243025   6.966   7.208  13.710 -0.0993  0.5164 -0.2960
 7204TIP3   OH243026   3.054   1.302  12.860 -0.1780  0.3872  0.5391
 7204TIP3    H143027   3.036   1.225  12.914  0.2699  1.2574  1.9834
 7204TIP3    H243028   2.973   1.354  12.865 -1.0528 -0.6189 -1.6549
 7205TIP3   OH243029   3.699   3.067  10.892  0.3016  0.3918 -0.3753
 7205TIP3    H143030   3.686   3.160  10.870  0.8291 -0.0602 -2.9153
 7205TIP3    H243031   3.788   3.047  10.862 -0.1978 -1.1967 -0.8899
 7206TIP3   OH243032   6.928   4.303   2.467  0.0789  0.1288  0.2183
 7206TIP3    H143033   7.009   4.279   2.423  0.3959  2.0230 -0.3229
 7206TIP3    H243034   6.951   4.307   2.560  0.9206  1.6459 -0.0179
 7207TIP3   OH243035   1.622   5.004   3.899 -0.6706 -0.0048 -0.1955
 7207TIP3    H143036   1.561   4.957   3.841 -0.0818 -1.9486  0.6597
 7207TIP3    H243037   1.593   4.981   3.988  1.2304 -0.9546  0.2364
 7208TIP3   OH243038   7.191   0.941   3.236  0.1946  0.4693  0.2177
 7208TIP3    H143039   7.133   0.988   3.296  0.9657  0.1749  1.2089
 7208TIP3    H243040   7.242   0.883   3.292  0.1825 -0.6062 -0.8411
 7209TIP3   OH243041   3.487   4.370   2.653  0.0060  0.4881 -0.4628
 7209TIP3    H143042   3.423   4.331   2.712 -0.9045  0.6545 -1.3231
 7209TIP3    H243043   3.528   4.294   2.610  0.5876  0.3717  0.2733
 7210TIP3   OH243044   0.114   1.742   4.426 -0.0691 -0.1479 -0.4148
 7210TIP3    H143045   0.130   1.770   4.336  0.1299  0.5011 -0.1816
 7210TIP3    H243046   0.185   1.681   4.446  0.1188  0.0296 -0.5507
 7211TIP3   OH243047   5.204   3.631   9.899 -0.6041 -0.6280 -0.0165
 7211TIP3    H143048   5.245   3.671   9.977  0.9114 -2.4306  0.1677
 7211TIP3    H243049   5.208   3.700   9.833 -0.4974  0.4246  1.0344
 7212TIP3   OH243050   6.219   4.900  14.286 -0.0514  0.2376 -0.4902
 7212TIP3    H143051   6.246   4.848  14.211 -0.8038  0.0249 -0.6191
 7212TIP3    H243052   6.279   4.976  14.285  0.8974 -0.4887 -0.4292
 7213TIP3   OH243053   0.206   6.821  14.975 -0.1501 -0.4264  0.6886
 7213TIP3    H143054   0.157   6.842  14.896  0.2563 -2.0901 -0.0509
 7213TIP3    H243055   0.268   6.893  14.985 -1.5622  0.8465  0.6872
 7214TIP3   OH243056   0.781   1.641  11.340  0.7394  0.1043  0.3482
 7214TIP3    H143057   0.718   1.599  11.281 -0.0774  0.3352  1.0346
 7214TIP3    H243058   0.765   1.735  11.329  0.1692  0.1365  1.3573
 7215TIP3   OH243059   1.004   0.561  14.123  0.1197  0.1472 -0.1409
 7215TIP3    H143060   0.978   0.631  14.184  1.0411  0.9998 -0.7014
 7215TIP3    H243061   0.969   0.588  14.039 -0.0261 -0.3743 -0.2514
 7216TIP3   OH243062   0.645   1.901  12.040 -0.1601 -1.0417  0.4055
 7216TIP3    H143063   0.621   1.910  11.947 -1.7568  1.2249  0.9446
 7216TIP3    H243064   0.675   1.989  12.065  0.9035 -1.7929  1.8890
 7217TIP3   OH243065   3.122   6.272  14.311 -0.0868  0.1271 -0.2373
 7217TIP3    H143066   3.046   6.326  14.289 -1.0151  0.1215  2.6294
 7217TIP3    H243067   3.085   6.192  14.348  1.3018 -1.9328 -2.9490
 7218TIP3   OH243068   2.830   4.266   2.978  0.1684  0.1009 -0.5017
 7218TIP3    H143069   2.755   4.317   3.007  0.0195 -0.8575  0.8785
 7218TIP3    H243070   2.830   4.188   3.033  2.2928  0.1621 -0.3074
 7219TIP3   OH243071   1.581   4.707   0.160 -0.3383 -0.3480 -0.2496
 7219TIP3    H143072   1.676   4.706   0.151 -0.2809  1.0344 -0.0886
 7219TIP3    H243073   1.564   4.660   0.242  0.1469 -1.1860 -0.6245
 7220TIP3   OH243074   5.593   4.040  13.339  0.8760  0.0805  0.3213
 7220TIP3    H143075   5.673   4.093  13.347  1.7461 -0.6655 -2.3702
 7220TIP3    H243076   5.578   4.034  13.245 -1.6417 -0.9167  0.7215
 7221TIP3   OH243077   0.970   6.483   2.684 -0.6581 -0.1111 -0.1433
 7221TIP3    H143078   1.039   6.451   2.625  1.6690  1.2920  1.6822
 7221TIP3    H243079   0.986   6.437   2.766 -3.0950 -1.1141 -0.1565
 7222TIP3   OH243080   0.371   1.912   3.688  0.1789 -0.1419 -0.0145
 7222TIP3    H143081   0.296   1.866   3.726 -0.1768  0.8004  0.4745
 7222TIP3    H243082   0.425   1.937   3.763  3.1037 -4.1105 -0.4701
 7223TIP3   OH243083   3.469   4.953  12.441 -0.7453  0.5481  0.3114
 7223TIP3    H143084   3.398   4.972  12.380 -0.6024 -1.2843 -0.4914
 7223TIP3    H243085   3.548   4.980  12.394 -0.8747  3.6842  1.6515
 7224TIP3   OH243086   0.465   6.414  14.080 -0.2073  0.8933 -0.0067
 7224TIP3    H143087   0.547   6.452  14.112 -0.9217  2.0244  0.5214
 7224TIP3    H243088   0.400   6.483  14.092 -0.8262  0.8323 -2.4962
 7225TIP3   OH243089   5.175   2.420  10.234  0.4101 -0.6040  0.5322
 7225TIP3    H143090   5.104   2.423  10.298  0.9055 -1.7623  1.1750
 7225TIP3    H243091   5.133   2.437  10.150 -0.4603 -0.2931  1.0171
 7226TIP3   OH243092   0.792   0.924  10.582  0.5318  0.1341  0.4167
 7226TIP3    H143093   0.847   0.904  10.506 -1.0929 -0.4306 -0.6549
 7226TIP3    H243094   0.828   0.870  10.652  2.7397  1.4750  0.4052
 7227TIP3   OH243095   1.504   1.794  10.391 -0.1477  0.0886 -0.1502
 7227TIP3    H143096   1.574   1.855  10.415  1.0083 -0.4267 -2.0272
 7227TIP3    H243097   1.501   1.731  10.463  1.5180 -0.0241 -0.1447
 7228TIP3   OH243098   2.896   2.492  10.296  0.1301 -0.8038 -0.6477
 7228TIP3    H143099   2.991   2.496  10.305 -0.0573  1.8636  1.0151
 7228TIP3    H243100   2.874   2.559  10.231 -0.6533 -1.4468 -1.0775
 7229TIP3   OH243101   0.800   2.123  10.934 -0.2085 -0.1316  0.6835
 7229TIP3    H143102   0.866   2.068  10.976  1.0001  0.3407 -0.5434
 7229TIP3    H243103   0.824   2.123  10.841 -2.0245 -0.0633  0.1678
 7230TIP3   OH243104   4.436   3.001  14.078 -0.2280  0.0635 -0.0073
 7230TIP3    H143105   4.354   2.966  14.112  0.9807 -2.3794  0.6861
 7230TIP3    H243106   4.434   3.093  14.101 -2.9275  0.1835 -0.3940
 7231TIP3   OH243107   5.376   6.829   0.423 -0.1106  0.3139 -0.1929
 7231TIP3    H143108   5.389   6.752   0.479 -0.7460  0.7831  0.6207
 7231TIP3    H243109   5.465   6.862   0.408  0.1687 -0.5282 -0.5030
 7232TIP3   OH243110   1.245   4.092  12.390  0.1993 -0.4709  0.1250
 7232TIP3    H143111   1.156   4.083  12.356  0.0769 -0.5653  0.4745
 7232TIP3    H243112   1.258   4.186  12.398  0.6682 -0.3785 -1.3529
 7233TIP3   OH243113   2.611   5.327  11.258  0.1892 -0.0802  0.1774
 7233TIP3    H143114   2.694   5.295  11.224  0.1869 -1.3095  1.2456
 7233TIP3    H243115   2.544   5.279  11.210  0.0830  0.7868 -0.5637
 7234TIP3   OH243116   0.890   1.709   2.897  0.0071  0.3880 -0.0249
 7234TIP3    H143117   0.834   1.662   2.958 -1.1308  0.5929 -0.8812
 7234TIP3    H243118   0.961   1.648   2.877 -1.4057 -0.9944 -1.0628
 7235TIP3   OH243119   3.482   2.720  11.850 -0.4150  0.3880 -0.0958
 7235TIP3    H143120   3.511   2.811  11.856 -0.6031  0.4349  0.1159
 7235TIP3    H243121   3.545   2.671  11.903 -0.1790  0.3613 -0.3961
 7236TIP3   OH243122   6.423   0.259  12.544  0.4579 -0.1528 -0.2083
 7236TIP3    H143123   6.461   0.204  12.476  0.1058  0.1648 -0.6645
 7236TIP3    H243124   6.377   0.328  12.497 -1.6963 -1.1625  0.2810
 7237TIP3   OH243125   6.657   4.880   0.406 -0.3474 -0.1987  0.5444
 7237TIP3    H143126   6.747   4.868   0.373 -0.2075 -1.0164  1.1867
 7237TIP3    H243127   6.667   4.943   0.477 -0.4072  0.2995  0.1226
 7238TIP3   OH243128   2.653   7.109   4.772 -0.0099  0.3492 -0.0787
 7238TIP3    H143129   2.609   7.156   4.843 -0.4332  0.5088 -0.4399
 7238TIP3    H243130   2.725   7.166   4.747  0.4349  0.0717  0.5416
 7239TIP3   OH243131   3.663   5.414   0.361  0.3445 -0.2438 -0.1839
 7239TIP3    H143132   3.744   5.405   0.411 -0.3536 -1.2096  0.8186
 7239TIP3    H243133   3.668   5.501   0.322  1.5504 -0.0249  0.4229
 7240TIP3   OH243134   4.614   2.742  14.052  0.3125  0.1255  0.3815
 7240TIP3    H143135   4.591   2.833  14.034 -1.3952 -0.0947  1.1973
 7240TIP3    H243136   4.618   2.738  14.148 -2.1454 -1.1339  0.5280
 7241TIP3   OH243137   1.801   6.024   5.584 -0.8694  0.3088 -0.2687
 7241TIP3    H143138   1.893   6.004   5.569 -0.2676  2.7917 -0.3186
 7241TIP3    H243139   1.772   6.064   5.502 -1.9029 -0.0874 -0.1163
 7242TIP3   OH243140   5.768   6.884  14.633 -0.1604 -0.0931 -0.2597
 7242TIP3    H143141   5.782   6.978  14.627  1.9293 -0.2293  1.2795
 7242TIP3    H243142   5.820   6.857  14.709 -2.7247 -2.1284  0.9464
 7243TIP3   OH243143   4.426   2.055  12.943 -0.2604 -0.2309  0.6466
 7243TIP3    H143144   4.449   2.042  12.851  0.9797 -0.9794  1.0263
 7243TIP3    H243145   4.473   2.135  12.968 -0.5294 -0.0743  0.6506
 7244TIP3   OH243146   3.475   2.317  15.000 -0.2097 -0.4451 -0.4934
 7244TIP3    H143147   3.412   2.271  15.056 -1.1083 -0.5105 -1.5359
 7244TIP3    H243148   3.452   2.291  14.911  0.7965  0.1590 -0.9499
 7245TIP3   OH243149   6.310   6.815  11.087 -0.1567 -0.1723 -0.2787
 7245TIP3    H143150   6.363   6.892  11.105 -0.6983 -0.0359  0.8490
 7245TIP3    H243151   6.372   6.750  11.053  0.1023  1.1245 -2.4658
 7246TIP3   OH243152   1.165   1.181  13.267 -0.3162 -0.2349  0.2403
 7246TIP3    H143153   1.161   1.272  13.296 -0.6711 -0.1379 -0.1011
 7246TIP3    H243154   1.211   1.184  13.184 -0.9575 -0.2754 -0.1195
 7247TIP3   OH243155   0.676   2.012  15.095 -0.2040 -0.4340 -0.1681
 7247TIP3    H143156   0.587   2.042  15.074 -0.8333  0.9286  3.7048
 7247TIP3    H243157   0.672   1.917  15.083 -2.2697 -0.4363  0.1535
 7248TIP3   OH243158   1.032   0.298   2.909 -0.0864 -0.0660  0.1594
 7248TIP3    H143159   1.089   0.294   2.832  0.9914 -0.2840  0.9559
 7248TIP3    H243160   0.990   0.212   2.911 -0.1806 -0.0319 -0.2281
 7249TIP3   OH243161   5.472   3.818  11.599 -0.1061 -0.1408  0.3810
 7249TIP3    H143162   5.479   3.861  11.684 -1.8040 -1.2712  1.1654
 7249TIP3    H243163   5.510   3.731  11.614 -2.9644 -1.4468  0.9492
 7250TIP3   OH243164   1.816   6.985  12.829  0.1747 -0.1661  0.0538
 7250TIP3    H143165   1.818   6.904  12.778 -2.1576 -0.5498  0.4510
 7250TIP3    H243166   1.840   7.054  12.768 -1.2751 -0.7740 -1.2726
 7251TIP3   OH243167   1.356   6.658   2.603  0.2167  0.2288 -0.2315
 7251TIP3    H143168   1.379   6.606   2.526  0.5543  0.9568 -0.6304
 7251TIP3    H243169   1.266   6.687   2.586 -0.1100 -0.5354  0.1686
 7252TIP3   OH243170   6.817   0.458  14.971  0.3613 -0.0357  0.3916
 7252TIP3    H143171   6.867   0.413  14.903 -0.4406  1.7521 -1.4934
 7252TIP3    H243172   6.824   0.551  14.949 -3.4066  0.3691  0.1647
 7253TIP3   OH243173   3.640   2.554  14.099  0.0572  0.0635 -0.4780
 7253TIP3    H143174   3.666   2.466  14.127 -0.5010  0.0624  0.0477
 7253TIP3    H243175   3.647   2.608  14.177 -1.4046  0.0838 -0.3276
 7254TIP3   OH243176   5.436   0.926  10.374 -0.0348 -0.4236  0.4257
 7254TIP3    H143177   5.495   0.992  10.338  0.0481 -0.7717 -0.0996
 7254TIP3    H243178   5.356   0.935  10.321 -1.0256  1.0246  2.0559
 7255TIP3   OH243179   0.640   6.829  10.323  0.0193  0.1753  0.4831
 7255TIP3    H143180   0.549   6.842  10.295  0.7580  1.4969 -1.5752
 7255TIP3    H243181   0.634   6.769  10.397 -2.4459 -0.6006 -0.2421
 7256TIP3   OH243182   2.568   4.463  10.154 -0.2323 -0.8445  0.5384
 7256TIP3    H143183   2.587   4.379  10.194  1.4915 -0.5958  0.3036
 7256TIP3    H243184   2.585   4.450  10.061  3.2991  0.5385  0.8487
 7257TIP3   OH243185   6.861   2.464   9.531 -0.8656  0.4883 -0.2015
 7257TIP3    H143186   6.873   2.375   9.498 -1.0366 -0.2026  1.4722
 7257TIP3    H243187   6.798   2.504   9.471 -1.0115 -0.6261 -0.8120
 7258TIP3   OH243188   1.787   5.323  11.568 -0.4371  0.4580 -0.6934
 7258TIP3    H143189   1.870   5.353  11.531  0.5272 -1.0528  0.1652
 7258TIP3    H243190   1.772   5.381  11.644 -0.4486  1.0617 -1.1494
 7259TIP3   OH243191   4.760   6.790   2.833 -0.2774  0.7664 -0.4332
 7259TIP3    H143192   4.703   6.754   2.901 -0.7784  1.2025 -0.6169
 7259TIP3    H243193   4.701   6.816   2.763  0.1934  0.7674 -0.8361
 7260TIP3   OH243194   0.215   6.305   0.688  0.8887  0.4111 -0.0523
 7260TIP3    H143195   0.154   6.232   0.687  0.4525  0.5487  3.4408
 7260TIP3    H243196   0.167   6.376   0.731  1.7531  2.3767 -2.1360
 7261TIP3   OH243197   1.900   4.232  10.633 -0.1569  0.2650 -0.1121
 7261TIP3    H143198   1.893   4.260  10.724  0.2830  1.3942 -0.4067
 7261TIP3    H243199   1.842   4.292  10.585  0.1089  0.0950 -0.6529
 7262TIP3   OH243200   5.515   0.720   2.449 -0.0330  0.3771 -0.7349
 7262TIP3    H143201   5.471   0.801   2.423  0.3579 -0.1190 -3.2614
 7262TIP3    H243202   5.571   0.699   2.374 -0.7371 -2.6492 -0.5299
 7263TIP3   OH243203   7.182   6.751   9.799  0.0995  0.0399 -0.0628
 7263TIP3    H143204   7.161   6.682   9.737 -3.1684 -0.5335  1.4840
 7263TIP3    H243205   7.123   6.823   9.777 -0.5210  0.1460  1.7621
 7264TIP3   OH243206   6.786   1.864   3.559 -0.2385 -0.4649  0.0112
 7264TIP3    H143207   6.820   1.950   3.536 -0.5934  0.7459  3.4722
 7264TIP3    H243208   6.728   1.841   3.486 -1.0536  2.7670 -0.5056
 7265TIP3   OH243209   1.292   0.264   0.988  0.0019 -0.2198  0.5034
 7265TIP3    H143210   1.357   0.324   1.026 -0.3989  0.5356  0.0199
 7265TIP3    H243211   1.282   0.294   0.898 -1.4930  0.0881  0.7439
 7266TIP3   OH243212   2.023   2.523  12.683 -0.4073 -0.0571 -0.0153
 7266TIP3    H143213   2.106   2.538  12.729 -1.6108 -0.5760  2.5279
 7266TIP3    H243214   1.960   2.504  12.753 -2.9483  1.4036 -1.7342
 7267TIP3   OH243215   5.217   0.821   1.522  0.7960 -0.9260  0.4963
 7267TIP3    H143216   5.312   0.812   1.534  1.1426  1.1829 -0.2739
 7267TIP3    H243217   5.205   0.832   1.428  0.2369  2.4944  0.8419
 7268TIP3   OH243218   4.188   3.082  10.712  0.2960  0.2081  0.1670
 7268TIP3    H143219   4.104   3.039  10.728 -0.2891  0.9831 -0.7379
 7268TIP3    H243220   4.250   3.010  10.700  0.0398 -0.3897  2.0703
 7269TIP3   OH243221   1.889   6.403   1.024 -0.0774  0.2294 -0.1392
 7269TIP3    H143222   1.806   6.378   1.064 -0.1465  1.5775  0.6203
 7269TIP3    H243223   1.956   6.359   1.077 -0.2810 -0.9706 -0.8363
 7270TIP3   OH243224   6.977   0.776  13.014 -0.1833  0.3527 -0.2917
 7270TIP3    H143225   7.007   0.807  12.929  0.9016 -0.0734 -0.0806
 7270TIP3    H243226   6.961   0.856  13.065  0.0367  0.5964 -0.6056
 7271TIP3   OH243227   2.145   6.971  13.213  1.0111  0.5833  0.0402
 7271TIP3    H143228   2.134   6.892  13.160  2.1134  2.1092 -2.6898
 7271TIP3    H243229   2.240   6.984  13.217  0.8355  1.9999  0.0627
 7272TIP3   OH243230   0.236   2.607  13.645 -0.3681  0.1494  0.1976
 7272TIP3    H143231   0.305   2.642  13.589 -0.6044 -1.3599 -1.1137
 7272TIP3    H243232   0.195   2.685  13.684 -0.2504  1.2783 -1.7947
 7273TIP3   OH243233   2.139   2.005   1.904 -0.1697  0.3547  0.0965
 7273TIP3    H143234   2.147   2.058   1.825 -0.5016 -0.6590 -0.6414
 7273TIP3    H243235   2.175   1.920   1.879 -0.0822  0.0813  1.1088
 7274TIP3   OH243236   0.951   4.743  14.428 -0.1788  0.5239  0.3398
 7274TIP3    H143237   1.046   4.740  14.441 -0.0179 -0.3023 -0.8908
 7274TIP3    H243238   0.921   4.813  14.487  1.3756  1.9139 -0.4435
 7275TIP3   OH243239   2.256   2.523   0.202 -0.3347  0.1960  0.1968
 7275TIP3    H143240   2.285   2.538   0.112 -0.1673  2.7402  0.5896
 7275TIP3    H243241   2.161   2.519   0.197 -0.3747  1.1118 -0.0487
 7276TIP3   OH243242   6.776   6.580  13.693  0.0035 -0.4507  0.0093
 7276TIP3    H143243   6.872   6.574  13.687  0.1750  1.4363  0.2845
 7276TIP3    H243244   6.756   6.546  13.780  0.6070  0.5778  0.5708
 7277TIP3   OH243245   3.246   3.685  11.189  0.9055 -0.1514  0.0007
 7277TIP3    H143246   3.320   3.675  11.129  0.4933  1.3338 -0.8092
 7277TIP3    H243247   3.183   3.738  11.141 -0.2997 -0.5927  1.0317
 7278TIP3   OH243248   5.282   0.950   0.652  0.1807  0.6231 -0.2385
 7278TIP3    H143249   5.337   1.027   0.662  1.2019 -0.3908  3.3923
 7278TIP3    H243250   5.197   0.985   0.624  1.0045  2.8928 -0.0917
 7279TIP3   OH243251   0.946   4.738  10.122  0.2029  0.2848  1.0376
 7279TIP3    H143252   1.041   4.731  10.126  0.3395  1.7727  0.8547
 7279TIP3    H243253   0.925   4.736  10.028  0.1697  1.0294  1.0186
 7280TIP3   OH243254   5.497   0.314   1.738  0.0860  0.1716 -1.0701
 7280TIP3    H143255   5.536   0.246   1.793  3.4194  2.6156 -0.0991
 7280TIP3    H243256   5.465   0.380   1.800 -1.2481  0.4697 -2.0205
 7281TIP3   OH243257   0.277   5.915  11.891 -0.3624  0.2984  0.3555
 7281TIP3    H143258   0.192   5.932  11.930  0.0668  2.4577  0.5262
 7281TIP3    H243259   0.261   5.915  11.796 -0.6839 -0.2126  0.4093
 7282TIP3   OH243260   2.590   5.473   0.346  0.3805  0.0539 -0.6299
 7282TIP3    H143261   2.514   5.423   0.374 -0.5583 -0.1583 -3.2566
 7282TIP3    H243262   2.575   5.562   0.380 -0.3756 -0.2898 -0.0442
 7283TIP3   OH243263   1.066   2.733  12.890  0.2529 -0.3251 -0.4849
 7283TIP3    H143264   1.038   2.643  12.873  0.3474 -0.1764 -1.4666
 7283TIP3    H243265   1.019   2.758  12.970 -0.5452 -0.9062 -0.7598
 7284TIP3   OH243266   3.972   2.583  12.283 -0.1335  0.4162  0.3237
 7284TIP3    H143267   4.051   2.547  12.242  0.3429  1.1343  0.5834
 7284TIP3    H243268   3.949   2.519  12.350  1.6932  1.3558  1.9340
 7285TIP3   OH243269   0.967   1.740  15.116 -0.2261  0.0531 -0.0209
 7285TIP3    H143270   1.056   1.740  15.080 -0.2018 -1.3541 -0.0061
 7285TIP3    H243271   0.966   1.813  15.178  0.8745  0.1728 -0.1318
 7286TIP3   OH243272   4.628   2.333  10.177 -0.4130 -0.5372  0.3945
 7286TIP3    H143273   4.563   2.346  10.246 -1.4379 -1.4661 -0.3755
 7286TIP3    H243274   4.627   2.239  10.160 -1.1364 -0.1917 -1.7892
 7287TIP3   OH243275   2.161   4.106  11.555 -0.4124  0.2139  0.2174
 7287TIP3    H143276   2.255   4.118  11.547 -0.2085 -1.4253 -0.3310
 7287TIP3    H243277   2.151   4.013  11.575 -2.0148 -0.3087 -2.5426
 7288TIP3   OH243278   3.607   2.469   2.103 -0.1041 -0.4928 -0.1737
 7288TIP3    H143279   3.656   2.448   2.182 -1.9504  1.1390  1.4943
 7288TIP3    H243280   3.539   2.402   2.098  0.4104 -0.9791 -0.7725
 7289TIP3   OH243281   6.322   6.018  15.219  0.5091  0.0155  0.3517
 7289TIP3    H143282   6.313   6.095  15.275 -1.2586  0.2431 -0.2014
 7289TIP3    H243283   6.410   6.026  15.182 -0.2028  2.7291 -1.0301
 7290TIP3   OH243284   1.131   4.715   0.385  0.2995  0.4027 -0.1000
 7290TIP3    H143285   1.172   4.674   0.461 -0.0023 -0.2941 -0.2999
 7290TIP3    H243286   1.069   4.649   0.353  2.2944 -0.4396 -2.5458
 7291TIP3   OH243287   0.770   1.565  11.593  0.0274  0.4110 -0.2738
 7291TIP3    H143288   0.788   1.606  11.508  1.9121 -0.4658 -0.3501
 7291TIP3    H243289   0.833   1.493  11.598 -1.5749 -0.9746  0.8907
 7292TIP3   OH243290   4.063   2.596   4.432  0.1761 -0.0391 -0.6541
 7292TIP3    H143291   4.149   2.637   4.443 -0.2171  0.5765  0.2502
 7292TIP3    H243292   4.040   2.563   4.519 -1.0071  0.8481 -0.6033
 7293TIP3   OH243293   6.552   4.179   3.151 -0.2285  0.5792  0.0460
 7293TIP3    H143294   6.466   4.180   3.193  0.2087  1.1915  0.9657
 7293TIP3    H243295   6.590   4.264   3.173  0.3151  0.6307 -1.0073
 7294TIP3   OH243296   5.059   2.776   1.123  0.1510  0.5957  0.1284
 7294TIP3    H143297   4.983   2.806   1.172 -1.0664 -2.4300  0.3116
 7294TIP3    H243298   5.132   2.784   1.185 -0.7546 -0.0304  1.3014
 7295TIP3   OH243299   4.496   0.448   2.415  0.0362 -0.3538  0.9214
 7295TIP3    H143300   4.510   0.537   2.382 -1.7171  0.1536  1.4278
 7295TIP3    H243301   4.523   0.392   2.342  0.5483  0.6119  0.3387
 7296TIP3   OH243302   3.976   5.907   4.207 -0.2082 -0.4571  0.1940
 7296TIP3    H143303   3.897   5.960   4.215  0.1092  0.1936 -0.9012
 7296TIP3    H243304   4.000   5.912   4.115  1.1207 -0.6377  0.5072
 7297TIP3   OH243305   3.934   1.307   2.375  0.0284 -0.5721  0.2692
 7297TIP3    H143306   3.843   1.279   2.368 -0.2460 -0.6691  3.1170
 7297TIP3    H243307   3.937   1.359   2.455  2.3099  0.2468 -0.2740
 7298TIP3   OH243308   0.625   7.060  14.880  0.6423  0.7859 -0.4217
 7298TIP3    H143309   0.630   7.152  14.905 -4.3348  1.1569  0.3000
 7298TIP3    H243310   0.578   7.060  14.797  0.2365 -1.0920 -0.2428
 7299TIP3   OH243311   1.359   1.391  10.282  0.6205 -0.4012  0.9410
 7299TIP3    H143312   1.367   1.424  10.372 -1.3655 -0.2106  1.0998
 7299TIP3    H243313   1.332   1.299  10.292 -0.8726 -0.0320  0.5954
 7300TIP3   OH243314   2.892   0.593   4.956  0.6842 -0.0371  0.6096
 7300TIP3    H143315   2.926   0.527   5.016  1.5444 -1.0984 -0.9689
 7300TIP3    H243316   2.931   0.675   4.986 -0.6781 -0.1207  2.8112
 7301TIP3   OH243317   4.607   6.795   0.047 -0.2581 -0.7855 -0.5580
 7301TIP3    H143318   4.526   6.845   0.052  0.4552  0.3960 -0.4395
 7301TIP3    H243319   4.605   6.738   0.124  0.5592  1.6826  1.4220
 7302TIP3   OH243320   6.111   1.578   3.846  0.0238  0.0932 -0.1772
 7302TIP3    H143321   6.110   1.650   3.909  0.8933 -0.0269 -0.0177
 7302TIP3    H243322   6.198   1.583   3.806  0.0413 -0.7894 -0.2598
 7303TIP3   OH243323   5.149   3.229   0.536  0.7185 -0.5736 -0.8748
 7303TIP3    H143324   5.136   3.310   0.585  2.3752 -0.3642 -0.7133
 7303TIP3    H243325   5.119   3.160   0.595  1.4011 -0.2247 -0.1099
 7304TIP3   OH243326   4.122   0.053  12.752  0.3844 -0.3620  0.0670
 7304TIP3    H143327   4.031   0.023  12.746  0.6087 -1.1584  0.5737
 7304TIP3    H243328   4.150   0.028  12.840  1.2881 -0.6750 -0.3050
 7305TIP3   OH243329   1.893   5.295   2.051  0.0720 -0.0375 -0.2004
 7305TIP3    H143330   1.967   5.342   2.012  0.4896 -1.2505 -0.9107
 7305TIP3    H243331   1.933   5.240   2.118 -0.0094 -1.4767 -1.2843
 7306TIP3   OH243332   5.215   4.839  11.187 -0.1170 -0.4339  0.0073
 7306TIP3    H143333   5.231   4.894  11.111  1.4465  2.5045  2.2908
 7306TIP3    H243334   5.127   4.863  11.216 -1.4172 -2.7589 -1.6488
 7307TIP3   OH243335   2.417   4.291   5.338 -0.2284 -0.4663 -0.1747
 7307TIP3    H143336   2.413   4.356   5.409  0.4374  0.0732 -0.6225
 7307TIP3    H243337   2.510   4.273   5.327 -0.3319 -0.6208 -0.8453
 7308TIP3   OH243338   6.356   1.596   1.978 -0.6827  0.2120 -0.4000
 7308TIP3    H143339   6.398   1.621   2.061 -3.1059  1.9574  0.3943
 7308TIP3    H243340   6.354   1.500   1.981  1.2282  0.1395  0.4866
 7309TIP3   OH243341   4.637   3.952  14.394  0.5605  0.0624 -0.3779
 7309TIP3    H143342   4.576   3.884  14.366  1.5933 -0.2410 -2.0476
 7309TIP3    H243343   4.600   4.033  14.358 -0.4302  0.3638  1.2259
 7310TIP3   OH243344   4.682   2.100   1.618  0.1606 -0.3499  0.5135
 7310TIP3    H143345   4.673   2.168   1.684  0.8481 -1.5387  1.8760
 7310TIP3    H243346   4.592   2.074   1.597 -0.0737  0.3427  0.6368
 7311TIP3   OH243347   0.765   1.299  14.837  0.2630  0.0199  0.3775
 7311TIP3    H143348   0.690   1.326  14.890  0.1471  0.1155  0.1629
 7311TIP3    H243349   0.727   1.264  14.756  0.4468  0.0223  0.2898
 7312TIP3   OH243350   5.859   6.448  10.069 -0.2422  0.3239 -0.0243
 7312TIP3    H143351   5.811   6.471   9.989 -1.0107 -0.4386  0.2014
 7312TIP3    H243352   5.951   6.447  10.042 -0.3894  1.2127 -0.6140
 7313TIP3   OH243353   5.391   0.912  11.965 -0.3476 -0.4064  0.5157
 7313TIP3    H143354   5.353   0.828  11.940 -0.5279 -0.0422 -0.4763
 7313TIP3    H243355   5.476   0.889  12.004 -0.9035 -1.1150  1.3596
 7314TIP3   OH243356   4.000   0.332   2.403 -0.8525  0.2918 -0.2315
 7314TIP3    H143357   4.079   0.375   2.435 -1.4179  1.0405  0.1986
 7314TIP3    H243358   4.018   0.238   2.413  0.3270  0.4093 -1.0139
 7315TIP3   OH243359   6.611   2.333   9.225 -0.4421  0.5060  0.3180
 7315TIP3    H143360   6.542   2.282   9.184  1.0328 -0.4528 -1.0951
 7315TIP3    H243361   6.572   2.419   9.242 -1.5449  0.4760 -1.8304
 7316TIP3   OH243362   0.968   5.490  14.710  0.0751  0.5442  0.0391
 7316TIP3    H143363   0.985   5.454  14.797  0.3706  1.7211  0.4989
 7316TIP3    H243364   1.011   5.576  14.712 -1.5991  1.4446 -0.5680
 7317TIP3   OH243365   6.353   6.339   0.399 -0.0219 -0.2612 -0.1780
 7317TIP3    H143366   6.404   6.362   0.477 -0.8452 -1.6954  0.8242
 7317TIP3    H243367   6.298   6.416   0.384  1.3887  0.7449 -0.4437
 7318TIP3   OH243368   4.788   7.186   2.150 -0.2026 -0.4333  0.2032
 7318TIP3    H143369   4.763   7.095   2.142 -0.8872 -0.1681 -0.7658
 7318TIP3    H243370   4.881   7.188   2.125 -0.3678 -0.7602 -0.4490
 7319TIP3   OH243371   3.212   3.055  10.979  0.0552  0.0283  0.3831
 7319TIP3    H143372   3.236   2.971  11.017 -0.6575 -0.0282  0.7295
 7319TIP3    H243373   3.134   3.035  10.926 -1.1311  0.7476  1.7848
 7320TIP3   OH243374   6.800   1.311  12.713 -0.0276 -0.6436 -0.0166
 7320TIP3    H143375   6.792   1.217  12.726 -0.4252 -0.5399  0.5131
 7320TIP3    H243376   6.717   1.347  12.745  0.3416 -0.0609  0.3096
 7321TIP3   OH243377   4.507   2.585  12.304 -0.5043  0.5936 -0.0421
 7321TIP3    H143378   4.466   2.510  12.261 -0.5664  1.2287 -1.1303
 7321TIP3    H243379   4.485   2.659  12.248  0.2687  1.2970  0.5615
 7322TIP3   OH243380   3.116   0.165  12.795  0.6781 -0.4595  0.0789
 7322TIP3    H143381   3.043   0.112  12.827  1.2681 -0.5967  1.2536
 7322TIP3    H243382   3.123   0.142  12.702 -0.9719 -0.1844 -0.1510
 7323TIP3   OH243383   5.308   6.232   5.033 -0.2348 -0.0588  0.1446
 7323TIP3    H143384   5.302   6.302   4.969  0.6476  1.0488  1.2338
 7323TIP3    H243385   5.402   6.210   5.035 -0.0760  0.6632  1.7951
 7324TIP3   OH243386   5.305   2.534  10.680  0.0519 -0.3093  0.2249
 7324TIP3    H143387   5.381   2.554  10.626  0.2138 -0.0053  0.5583
 7324TIP3    H243388   5.271   2.452  10.645 -0.3446  0.3092 -0.8661
 7325TIP3   OH243389   4.573   2.369  13.581 -0.0360 -0.5473 -0.1141
 7325TIP3    H143390   4.580   2.326  13.496  0.5686  1.3628 -1.0939
 7325TIP3    H243391   4.485   2.407  13.581 -0.3117 -1.1645  0.4498
 7326TIP3   OH243392   0.882   6.179   2.476 -0.3931  0.0971 -0.0505
 7326TIP3    H143393   0.965   6.226   2.477  0.6012 -1.5849 -0.1091
 7326TIP3    H243394   0.818   6.243   2.507  0.8987  1.4516 -0.0739
 7327TIP3   OH243395   3.723   5.761   2.218  0.2656  0.1391  0.9797
 7327TIP3    H143396   3.628   5.772   2.215  0.3219  0.5842  0.6684
 7327TIP3    H243397   3.736   5.667   2.220 -0.1401 -0.0179 -1.1782
 7328TIP3   OH243398   2.004   5.676   9.708  0.5319 -0.6639 -0.2717
 7328TIP3    H143399   2.090   5.654   9.671  1.2093  3.8456 -2.1612
 7328TIP3    H243400   2.009   5.771   9.722 -3.6738 -0.4593  0.9558
 7329TIP3   OH243401   2.980   3.813  13.377 -0.2111 -0.0312  0.1480
 7329TIP3    H143402   3.000   3.841  13.467 -0.6111  0.1572  0.1847
 7329TIP3    H243403   2.942   3.726  13.388 -1.4823  0.5047  0.3045
 7330TIP3   OH243404   3.751   4.767  14.370  0.0692  0.4438 -0.6078
 7330TIP3    H143405   3.666   4.798  14.339 -0.4764  0.1441  0.5363
 7330TIP3    H243406   3.806   4.845  14.371 -0.3326  0.7327 -0.9040
 7331TIP3   OH243407   5.012   4.213   1.927 -0.4896  0.0651  0.3638
 7331TIP3    H143408   5.003   4.295   1.879 -1.9034  0.9933  2.0820
 7331TIP3    H243409   5.101   4.215   1.962 -0.6642  1.0879  0.7705
 7332TIP3   OH243410   6.726   6.667   1.402  0.2746  0.2493  0.1198
 7332TIP3    H143411   6.770   6.679   1.318  0.1946 -0.0103  0.0393
 7332TIP3    H243412   6.652   6.727   1.400  0.6243  0.6874  0.2555
 7333TIP3   OH243413   1.053   4.264   0.214  0.0452 -0.0609  0.4919
 7333TIP3    H143414   1.093   4.316   0.145  1.3959 -1.8471 -0.1417
 7333TIP3    H243415   1.095   4.295   0.295 -0.1226  0.7095  0.2873
 7334TIP3   OH243416   0.672   5.134   9.548  0.5532 -0.2785  0.1364
 7334TIP3    H143417   0.759   5.093   9.547  1.8368  2.1918  1.5541
 7334TIP3    H243418   0.688   5.226   9.530 -1.5830  0.5354  1.8987
 7335TIP3   OH243419   0.097   2.828  13.728 -0.4988 -0.4407 -0.5296
 7335TIP3    H143420   0.010   2.865  13.712 -0.7503 -0.7499  0.1085
 7335TIP3    H243421   0.144   2.897  13.777 -1.3900 -1.4067  1.8087
 7336TIP3   OH243422   1.952   0.786   1.822 -0.4460  0.3800 -0.0505
 7336TIP3    H143423   2.035   0.833   1.822 -0.1892  0.0726  2.4307
 7336TIP3    H243424   1.965   0.715   1.758  0.9523  0.7308 -0.1916
 7337TIP3   OH243425   1.961   4.407   9.544  0.4045  0.6119  0.0145
 7337TIP3    H143426   1.922   4.320   9.538  1.3421  0.1199  0.6228
 7337TIP3    H243427   1.959   4.441   9.455 -0.1361  0.0424 -0.1979
 7338TIP3   OH243428   6.554   0.843   2.495  0.6948 -0.0188  0.1333
 7338TIP3    H143429   6.539   0.757   2.457  0.1897  0.0983  0.0524
 7338TIP3    H243430   6.634   0.833   2.547  0.5301 -0.5857  0.2870
 7339TIP3   OH243431   4.179   1.595   0.399  0.1964 -0.0840 -0.1753
 7339TIP3    H143432   4.204   1.625   0.311  1.9611 -0.1303  0.2748
 7339TIP3    H243433   4.108   1.654   0.425  0.1618  0.4128 -1.3147
 7340TIP3   OH243434   0.212   5.294  12.932 -0.0261  0.6629 -0.2629
 7340TIP3    H143435   0.158   5.216  12.944  2.0812 -1.0270 -1.1493
 7340TIP3    H243436   0.175   5.337  12.854  1.3770 -1.9554 -2.5653
 7341TIP3   OH243437   4.901   6.549   0.466 -0.1677  0.3714 -0.0023
 7341TIP3    H143438   4.951   6.617   0.422 -1.9879  2.2399  0.6872
 7341TIP3    H243439   4.872   6.589   0.548 -1.5560 -1.1177  0.2913
 7342TIP3   OH243440   4.809   2.325  10.938  0.1101 -0.8087  0.1765
 7342TIP3    H143441   4.734   2.282  10.979 -0.0832 -1.2834 -0.6501
 7342TIP3    H243442   4.794   2.314  10.844  1.6656 -1.7055  0.0016
 7343TIP3   OH243443   6.732   6.729   1.927 -0.4278  0.1957  0.3526
 7343TIP3    H143444   6.744   6.824   1.924 -2.0088  0.4761  1.4532
 7343TIP3    H243445   6.681   6.710   1.848  0.8308  0.0828 -0.4477
 7344TIP3   OH243446   0.206   5.827   2.854  0.5500 -0.0369 -0.3700
 7344TIP3    H143447   0.141   5.896   2.866  0.2168 -0.5655  1.2088
 7344TIP3    H243448   0.155   5.746   2.858  0.6595 -0.4298 -4.0653
 7345TIP3   OH243449   4.440   1.750   0.320 -0.0986  0.7498  0.4204
 7345TIP3    H143450   4.395   1.798   0.389 -1.2678 -0.9722  0.9224
 7345TIP3    H243451   4.483   1.677   0.366  0.9981  0.8459 -0.4049
 7346TIP3   OH243452   4.406   1.517  12.948  0.8088  0.0852 -0.4063
 7346TIP3    H143453   4.372   1.496  13.035  0.5985 -2.6632 -1.0707
 7346TIP3    H243454   4.447   1.603  12.959  0.4641 -0.0001  2.2951
 7347TIP3   OH243455   2.360   0.765   2.242  0.1349 -0.7737 -0.2883
 7347TIP3    H143456   2.356   0.751   2.337 -2.1059 -1.7797 -0.4572
 7347TIP3    H243457   2.290   0.710   2.207  0.8515 -0.3504 -2.5370
 7348TIP3   OH243458   6.772   2.555   2.370 -0.6948 -0.4706  0.2201
 7348TIP3    H143459   6.701   2.492   2.356 -1.4189  0.4604 -0.4774
 7348TIP3    H243460   6.849   2.512   2.332 -1.5013 -0.3163 -1.7113
 7349TIP3   OH243461   2.532   4.388   2.141  0.8315 -0.4040 -0.0107
 7349TIP3    H143462   2.583   4.443   2.081  2.3315 -0.2606  1.3301
 7349TIP3    H243463   2.521   4.305   2.094  0.5863  0.2355 -1.1085
 7350TIP3   OH243464   6.428   3.439  13.928 -0.5713  0.1266  0.2842
 7350TIP3    H143465   6.426   3.442  13.832  2.5181 -0.2011  0.1104
 7350TIP3    H243466   6.458   3.526  13.954  1.1446 -0.5637  0.7454
 7351TIP3   OH243467   5.320   0.606  14.611 -0.7022  0.3469 -0.1842
 7351TIP3    H143468   5.324   0.655  14.530 -1.2814  0.2625 -0.2678
 7351TIP3    H243469   5.237   0.559  14.607 -1.8232  2.0390  1.4285
 7352TIP3   OH243470   2.169   7.140   0.255  0.6715 -0.5300 -0.2990
 7352TIP3    H143471   2.183   7.118   0.163  2.0557  0.9255 -0.4749
 7352TIP3    H243472   2.211   7.069   0.303  0.7657 -0.8182 -0.7969
 7353TIP3   OH243473   6.975   3.649  12.860 -0.1505 -0.3525 -0.1996
 7353TIP3    H143474   6.991   3.555  12.856 -0.6981 -0.4139 -1.1652
 7353TIP3    H243475   7.039   3.681  12.923  0.1864 -1.3367 -0.0181
 7354TIP3   OH243476   4.274   6.170   0.263  0.2476  0.0452 -0.2151
 7354TIP3    H143477   4.358   6.215   0.265 -0.3772  1.2796 -0.9803
 7354TIP3    H243478   4.269   6.126   0.348  0.6553  1.8393  0.7814
 7355TIP3   OH243479   0.283   3.709  10.300  0.0921 -0.0565  0.0462
 7355TIP3    H143480   0.309   3.757  10.222  0.5860 -1.6489 -0.8240
 7355TIP3    H243481   0.269   3.619  10.269 -1.9756 -0.2589  1.3615
 7356TIP3   OH243482   6.744   4.296   0.511  0.0164 -0.5559 -0.2496
 7356TIP3    H143483   6.838   4.292   0.531  0.0611  0.9421  0.0033
 7356TIP3    H243484   6.725   4.390   0.510 -1.7131 -0.8666  0.7218
 7357TIP3   OH243485   3.296   2.529  13.376  0.3062  0.1335  0.8718
 7357TIP3    H143486   3.201   2.524  13.384  0.3042 -0.6718  0.4286
 7357TIP3    H243487   3.312   2.615  13.335 -0.4156 -0.7426 -1.4504
 7358TIP3   OH243488   7.098   5.107   0.174  0.2717 -0.3147  0.0094
 7358TIP3    H143489   7.156   5.183   0.180  0.7727 -0.7732  1.5336
 7358TIP3    H243490   7.125   5.062   0.094 -0.5080  1.4435 -1.3183
 7359TIP3   OH243491   5.107   3.874   1.774  0.0850  0.2730  0.0255
 7359TIP3    H143492   5.065   3.922   1.702  1.7053 -0.0358 -1.1913
 7359TIP3    H243493   5.140   3.794   1.733 -0.7126 -0.8926  1.5820
 7360TIP3   OH243494   5.371   5.230  13.922 -0.0559  0.2249  0.1880
 7360TIP3    H143495   5.428   5.248  13.847  0.1392  0.4636  0.3953
 7360TIP3    H243496   5.283   5.249  13.889  0.0288  0.3346  0.0206
 7361TIP3   OH243497   3.289   0.374   0.494 -0.3651 -0.2919 -0.5275
 7361TIP3    H143498   3.271   0.430   0.570 -2.9054  0.1053 -1.3289
 7361TIP3    H243499   3.262   0.286   0.522  1.6150 -0.7878  0.0041
 7362TIP3   OH243500   6.259   0.837  12.127 -0.4861  0.2560 -0.2880
 7362TIP3    H143501   6.344   0.794  12.113 -1.3017 -0.9680 -1.8933
 7362TIP3    H243502   6.251   0.897  12.053 -1.2247 -0.0179 -0.4338
 7363TIP3   OH243503   4.520   2.296  12.934  0.6916  0.4163 -0.8811
 7363TIP3    H143504   4.547   2.321  12.846 -0.7492 -0.0025 -1.4832
 7363TIP3    H243505   4.459   2.365  12.961 -0.7173 -0.6503 -1.2078
 7364TIP3   OH243506   6.033   6.086   2.116  0.5294 -0.4901  0.3194
 7364TIP3    H143507   6.012   6.177   2.137  0.1352 -0.0375 -1.7472
 7364TIP3    H243508   5.958   6.036   2.148 -0.2216  0.1882 -0.3312
 7365TIP3   OH243509   6.667   3.870   1.672  0.5322  0.8375 -0.1334
 7365TIP3    H143510   6.653   3.823   1.590 -0.0194 -1.7547  1.3332
 7365TIP3    H243511   6.756   3.847   1.699  0.0802  0.1767  0.8604
 7366TIP3   OH243512   2.343   0.349  11.506  0.2842  0.5402 -0.5336
 7366TIP3    H143513   2.396   0.409  11.559 -0.4227 -0.3993  1.3370
 7366TIP3    H243514   2.380   0.263  11.524 -0.6256  0.0868 -0.7934
 7367TIP3   OH243515   3.264   2.944   0.562  0.4774  0.0904  0.1045
 7367TIP3    H143516   3.328   2.983   0.503 -1.9477  0.3705 -2.5579
 7367TIP3    H243517   3.288   2.851   0.565  0.3985 -0.0305 -1.7875
 7368TIP3   OH243518   0.409   3.235   0.001  0.0116  0.0570 -0.2147
 7368TIP3    H143519   0.314   3.245   0.010  0.0848 -0.6265  1.8080
 7368TIP3    H243520   0.439   3.319  -0.034 -1.0414  1.3834  1.8565
 7369TIP3   OH243521   6.019   4.580   9.406  0.6587 -0.0077 -0.3396
 7369TIP3    H143522   6.043   4.521   9.477  0.4288 -0.7009 -0.8339
 7369TIP3    H243523   5.999   4.663   9.450  2.7003  0.2515  0.2192
 7370TIP3   OH243524   1.779   0.765   0.180  0.2520  0.3193  0.1573
 7370TIP3    H143525   1.736   0.836   0.229 -1.2246 -0.5607  0.2182
 7370TIP3    H243526   1.773   0.689   0.239 -0.4092 -0.4420 -0.8583
 7371TIP3   OH243527   5.758   5.576   2.884 -0.0892 -0.0103 -0.4804
 7371TIP3    H143528   5.663   5.585   2.889 -0.0183  0.6451  4.1643
 7371TIP3    H243529   5.776   5.488   2.917  0.9385  0.0317 -0.8712
 7372TIP3   OH243530   6.001   1.527  14.742  0.2403 -0.5165 -0.2871
 7372TIP3    H143531   6.062   1.567  14.803  0.9092  0.6014 -1.6315
 7372TIP3    H243532   5.962   1.454  14.791  2.0148 -0.7382  0.8828
 7373TIP3   OH243533   6.942   6.877  10.091 -0.6796 -0.1932  0.9355
 7373TIP3    H143534   6.941   6.836  10.005  0.1896  0.4922  0.5848
 7373TIP3    H243535   6.905   6.964  10.076 -0.1346  0.0811  1.1663
 7374TIP3   OH243536   0.465   0.647   1.593 -0.6294 -0.6157  0.0148
 7374TIP3    H143537   0.421   0.692   1.521  0.4969  0.3501 -0.1183
 7374TIP3    H243538   0.547   0.616   1.555 -1.6575 -3.4637 -0.0661
 7375TIP3   OH243539   6.504   1.230  12.499 -0.1284  0.0141  0.3680
 7375TIP3    H143540   6.544   1.247  12.414  1.5014 -1.8753  0.6601
 7375TIP3    H243541   6.427   1.177  12.479  0.8994 -1.4345  0.0698
 7376TIP3   OH243542   5.325   2.627  15.232  0.1901  0.1663 -0.1860
 7376TIP3    H143543   5.258   2.592  15.173  1.2322  1.8758 -2.5321
 7376TIP3    H243544   5.407   2.589  15.201  0.5439 -0.6692  1.6593
 7377TIP3   OH243545   2.789   6.841   0.951 -0.4031 -0.1487  0.3292
 7377TIP3    H143546   2.740   6.916   0.918 -0.9732 -0.1281  1.1974
 7377TIP3    H243547   2.880   6.870   0.952 -0.3766 -0.1141 -1.0995
 7378TIP3   OH243548   0.764   6.500  14.907  0.5010 -0.0649  0.5748
 7378TIP3    H143549   0.705   6.566  14.870  2.2413  1.5157  0.4177
 7378TIP3    H243550   0.795   6.451  14.830 -0.6578 -0.9805  0.6719
 7379TIP3   OH243551   5.109   3.284  11.847 -0.6798  0.0798 -0.2498
 7379TIP3    H143552   5.187   3.325  11.882 -0.3092  0.6113 -1.6116
 7379TIP3    H243553   5.037   3.341  11.875 -0.5250 -0.1064  0.5418
 7380TIP3   OH243554   0.720   2.934   0.313  0.3941 -0.1492 -0.6309
 7380TIP3    H143555   0.738   3.028   0.315 -0.4685  0.0133  0.2262
 7380TIP3    H243556   0.671   2.920   0.232  1.1804  0.0002 -1.1415
 7381TIP3   OH243557   3.404   3.267   3.445 -0.0282 -0.4512 -0.1774
 7381TIP3    H143558   3.314   3.259   3.477  0.2301 -1.9279  0.2444
 7381TIP3    H243559   3.407   3.354   3.405 -1.7664 -0.5327 -0.5876
 7382TIP3   OH243560   6.802   3.031  12.281 -0.0629  0.3454  0.3501
 7382TIP3    H143561   6.749   2.954  12.262  0.1589  0.2805  0.0017
 7382TIP3    H243562   6.785   3.090  12.208 -0.3777  0.7083  0.7074
 7383TIP3   OH243563   1.977   1.292   1.721 -0.5152 -0.1515 -0.1747
 7383TIP3    H143564   1.928   1.368   1.689 -0.2810  0.6833  1.3631
 7383TIP3    H243565   2.043   1.329   1.779 -0.3169 -1.5334  0.5139
 7384TIP3   OH243566   4.222   3.738   0.149  0.4346 -0.6469 -0.3715
 7384TIP3    H143567   4.228   3.688   0.231 -0.3055 -0.1245  0.0106
 7384TIP3    H243568   4.288   3.698   0.092  0.9458 -1.0276  0.4705
 7385TIP3   OH243569   1.140   5.626   0.627 -0.0789  0.4884  0.0781
 7385TIP3    H143570   1.053   5.614   0.665  0.0896  0.6131  0.5101
 7385TIP3    H243571   1.154   5.549   0.572 -0.2750  0.2399  0.3733
 7386TIP3   OH243572   3.524   0.062   0.268 -0.3516 -0.3505 -0.9102
 7386TIP3    H143573   3.497   0.153   0.256  0.6701 -0.0509 -1.0759
 7386TIP3    H243574   3.598   0.051   0.208  0.1982 -0.9805 -0.1443
 7387TIP3   OH243575   1.641   5.507   0.261 -0.5178  0.0645 -0.2062
 7387TIP3    H143576   1.700   5.518   0.335 -1.9207  0.9250  0.8191
 7387TIP3    H243577   1.556   5.486   0.300 -1.6002  1.8208 -1.4535
 7388TIP3   OH243578   1.287   4.581  12.252  0.5212 -0.3167 -0.5275
 7388TIP3    H143579   1.322   4.571  12.341  0.0808 -0.5597 -0.3823
 7388TIP3    H243580   1.334   4.657  12.217  0.3869  0.0475  0.0597
 7389TIP3   OH243581   5.508   4.381  14.968  0.0923 -0.3574  0.1233
 7389TIP3    H143582   5.479   4.396  15.059 -0.1941 -0.8721  0.1208
 7389TIP3    H243583   5.546   4.465  14.941  1.4303 -0.5817  1.1769
 7390TIP3   OH243584   1.122   1.029  10.060 -0.3070  0.3266 -0.0946
 7390TIP3    H143585   1.102   0.944  10.021 -0.1891  0.1418  0.2409
 7390TIP3    H243586   1.145   1.085   9.985 -2.1078  0.5754 -0.5071
 7391TIP3   OH243587   5.074   2.234   0.748 -0.1527  0.4614 -0.1174
 7391TIP3    H143588   5.052   2.265   0.836 -0.8698  0.3374 -0.2471
 7391TIP3    H243589   5.036   2.300   0.690 -2.3725 -1.0017 -0.4226
 7392TIP3   OH243590   3.808   6.565  15.008 -0.2632  0.5027 -0.7040
 7392TIP3    H143591   3.815   6.659  15.023 -0.1199  0.5005 -0.7619
 7392TIP3    H243592   3.716   6.545  15.027  0.3778  0.0849  2.4395
 7393TIP3   OH243593   3.526   0.821   5.795  0.0618 -0.4950  0.3217
 7393TIP3    H143594   3.608   0.796   5.840 -0.2357 -1.5400  0.3157
 7393TIP3    H243595   3.462   0.828   5.866 -0.0492 -0.5992  0.2318
 7394TIP3   OH243596   7.164   5.082  11.977  0.6482 -0.1353  0.6367
 7394TIP3    H143597   7.163   5.006  11.919  1.9741  0.4698 -0.2548
 7394TIP3    H243598   7.256   5.109  11.978  0.0657  2.0861  0.0174
 7395TIP3   OH243599   1.588   0.015  15.010 -0.1049  0.2615 -0.4585
 7395TIP3    H143600   1.545  -0.062  15.046 -1.3588  1.3078  0.3456
 7395TIP3    H243601   1.673  -0.017  14.980 -0.3005 -1.2693  0.5414
 7396TIP3   OH243602   5.459   5.536   0.080  0.1406 -0.7074 -0.3858
 7396TIP3    H143603   5.507   5.481   0.142 -0.2802  0.2354  0.8337
 7396TIP3    H243604   5.525   5.599   0.049 -0.5927  2.2811  3.2542
 7397TIP3   OH243605   2.741   5.288   0.776  0.2954  0.6898 -0.0839
 7397TIP3    H143606   2.723   5.211   0.722  1.8943 -0.4251  0.8939
 7397TIP3    H243607   2.821   5.326   0.738  0.7155  0.6190  0.7058
 7398TIP3   OH243608   4.088   3.555   1.130 -0.2150 -0.0967  0.4576
 7398TIP3    H143609   4.148   3.597   1.191  0.3058 -0.0054 -0.1149
 7398TIP3    H243610   4.084   3.614   1.055  0.1741 -0.8346 -0.1613
 7399TIP3   OH243611   5.813   6.621   9.803  0.0434  0.2471 -0.5409
 7399TIP3    H143612   5.889   6.638   9.860  0.2131 -0.3173 -0.5870
 7399TIP3    H243613   5.846   6.558   9.739 -0.9618 -1.5513  0.6051
 7400TIP3   OH243614   6.419   1.481  13.436  0.0224  0.4285  0.2344
 7400TIP3    H143615   6.474   1.509  13.509 -0.1461  2.5188 -0.3787
 7400TIP3    H243616   6.336   1.527  13.449 -0.3392  0.0892 -0.7664
 7401TIP3   OH243617   5.851   2.404   0.130 -0.4151 -1.0054  0.2009
 7401TIP3    H143618   5.780   2.436   0.186  0.7516 -2.1237  2.4792
 7401TIP3    H243619   5.914   2.475   0.128 -0.9959 -0.4988 -0.7610
 7402TIP3   OH243620   2.120   6.357  12.775  0.4712 -0.1041 -0.0176
 7402TIP3    H143621   2.134   6.289  12.841  1.8377  0.1485 -0.0256
 7402TIP3    H243622   2.039   6.400  12.802 -0.7985 -2.1261 -0.3784
 7403TIP3   OH243623   3.645   3.931  14.270 -0.0322 -0.2921  0.6167
 7403TIP3    H143624   3.738   3.922  14.249 -0.2919  1.8178 -1.8745
 7403TIP3    H243625   3.636   4.019  14.305 -1.3788  0.4352 -1.3980
 7404TIP3   OH243626   4.748   4.374  11.975 -0.4629  0.2642  0.4322
 7404TIP3    H143627   4.690   4.418  12.037  0.4732  1.8205  0.2504
 7404TIP3    H243628   4.707   4.289  11.960 -1.4598  0.4149  2.0738
 7405TIP3   OH243629   4.660   2.261   0.963  0.1756  0.7598 -0.0503
 7405TIP3    H143630   4.618   2.176   0.948  1.7214  0.2212 -1.7922
 7405TIP3    H243631   4.721   2.244   1.036 -1.4317  1.1512  1.4528
 7406TIP3   OH243632   3.560   4.617  12.806 -1.1914  0.1567  0.5170
 7406TIP3    H143633   3.634   4.602  12.865 -0.0002  4.7485  0.6058
 7406TIP3    H243634   3.599   4.613  12.718 -1.2186  0.6573  0.4763
 7407TIP3   OH243635   7.148   0.786  12.029  0.3135 -0.0460 -0.0219
 7407TIP3    H143636   7.126   0.878  12.013 -1.5440 -0.3289  0.5982
 7407TIP3    H243637   7.216   0.788  12.096 -0.3946  0.8666  0.6844
 7408TIP3   OH243638   1.447   0.414  12.398 -0.2223  0.1475  1.0511
 7408TIP3    H143639   1.382   0.463  12.449 -1.7807  0.1415 -0.7713
 7408TIP3    H243640   1.400   0.335  12.371 -0.6439  1.4721 -2.7748
 7409TIP3   OH243641   0.508   7.128   1.611  0.4330  0.1473  0.3220
 7409TIP3    H143642   0.434   7.082   1.572 -0.3685  2.0579 -0.5235
 7409TIP3    H243643   0.490   7.128   1.705  0.3270 -0.9950  0.3159
 7410TIP3   OH243644   2.805   4.313  10.680 -0.4199  0.1847 -0.3106
 7410TIP3    H143645   2.809   4.399  10.637  0.5072  0.5831  0.5613
 7410TIP3    H243646   2.713   4.305  10.707 -0.1172  1.8427  1.4412
 7411TIP3   OH243647   1.063   3.972  12.670  0.0386 -0.1073  0.5239
 7411TIP3    H143648   1.104   3.965  12.757 -0.1795 -2.8822  0.4948
 7411TIP3    H243649   0.977   3.931  12.681  0.0804 -0.6731 -1.0247
 7412TIP3   OH243650   1.842   3.942   0.219  0.0059  0.3153 -0.4372
 7412TIP3    H143651   1.851   3.847   0.228 -0.0320  0.4235  0.9989
 7412TIP3    H243652   1.839   3.974   0.309 -1.2759  1.5622 -0.8837
 7413TIP3   OH243653   3.512   0.021  11.694  0.0810  0.0513  0.2364
 7413TIP3    H143654   3.554   0.062  11.769  0.7833 -1.8193  0.9134
 7413TIP3    H243655   3.427   0.065  11.687  1.5335  2.9891 -0.3402
 7414TIP3   OH243656   0.396   4.917  10.423  0.4456 -0.3340 -0.0211
 7414TIP3    H143657   0.420   4.950  10.336  1.3245 -1.0673 -0.0765
 7414TIP3    H243658   0.367   4.994  10.471  1.5201  0.3526 -0.4435
 7415TIP3   OH243659   6.889   4.571  10.902  0.3357 -0.0311  0.7427
 7415TIP3    H143660   6.822   4.632  10.871  0.5690 -0.6373 -1.0720
 7415TIP3    H243661   6.967   4.626  10.915  0.4186  0.1516 -0.4452
 7416TIP3   OH243662   2.540   6.455  14.079 -0.6223 -0.1881  0.2184
 7416TIP3    H143663   2.521   6.543  14.046  1.6334  1.3874  2.7116
 7416TIP3    H243664   2.599   6.417  14.014 -0.7615  0.5717 -0.3647
 7417TIP3   OH243665   2.816   5.574   1.426 -0.1735 -0.2046 -0.0460
 7417TIP3    H143666   2.723   5.563   1.410  0.0341 -0.5482 -1.1061
 7417TIP3    H243667   2.822   5.601   1.518 -1.2798 -0.5717  0.1446
 7418TIP3   OH243668   0.748   3.903  15.162  0.3101 -0.3255  0.0489
 7418TIP3    H143669   0.747   3.835  15.229 -0.6017 -0.1901  0.1793
 7418TIP3    H243670   0.687   3.970  15.195 -0.0975 -0.2316 -0.8782
 7419TIP3   OH243671   2.289   0.792  14.140  0.1902 -0.4504  0.0380
 7419TIP3    H143672   2.198   0.768  14.157  0.0549 -0.6039 -0.8522
 7419TIP3    H243673   2.297   0.880  14.178  0.3194 -1.2944  2.1043
 7420TIP3   OH243674   1.726   6.721   3.384  0.1730  0.4654  0.5310
 7420TIP3    H143675   1.698   6.806   3.420  1.7249  0.6519  1.3806
 7420TIP3    H243676   1.651   6.664   3.398 -0.0188  1.0670  2.2573
 7421TIP3   OH243677   4.395   5.284   2.207  0.0900  0.2210 -0.5905
 7421TIP3    H143678   4.342   5.327   2.140 -1.1731 -2.8076 -1.7490
 7421TIP3    H243679   4.485   5.294   2.176 -0.1495  1.9408 -0.7948
 7422TIP3   OH243680   1.372   3.539  10.749 -0.0191 -0.4973  0.5175
 7422TIP3    H143681   1.421   3.588  10.683 -1.6280 -1.5363 -1.5617
 7422TIP3    H243682   1.318   3.606  10.792 -1.3779 -0.1949 -1.5276
 7423TIP3   OH243683   1.841   2.765  13.180  0.1622 -0.0113 -0.4031
 7423TIP3    H143684   1.917   2.814  13.148  1.2118 -1.6455 -0.5379
 7423TIP3    H243685   1.817   2.709  13.107 -1.3254  0.6211 -0.4215
 7424TIP3   OH243686   5.625   4.390  13.548  0.2934 -0.2502  0.1508
 7424TIP3    H143687   5.663   4.473  13.518  1.3774 -0.0486  1.9268
 7424TIP3    H243688   5.661   4.325  13.487  2.1197  0.1869  0.6860
 7425TIP3   OH243689   2.856   4.389   1.236  0.9159 -0.5316  0.2094
 7425TIP3    H143690   2.942   4.347   1.227  1.2923  0.2012  0.2866
 7425TIP3    H243691   2.817   4.349   1.313  0.8624 -1.4158 -0.2644
 7426TIP3   OH243692   2.651   6.454   1.185 -0.2399 -0.3897  0.2293
 7426TIP3    H143693   2.740   6.486   1.200 -0.4867  0.6710 -0.4384
 7426TIP3    H243694   2.663   6.369   1.144  0.4780 -0.1900 -0.0030
 7427TIP3   OH243695   5.640   3.581   5.307 -0.0559  0.1114  0.1588
 7427TIP3    H143696   5.589   3.662   5.309 -1.3694 -0.6735  0.1039
 7427TIP3    H243697   5.681   3.581   5.221 -0.4906  0.4651 -0.0562
 7428TIP3   OH243698   3.746   2.843  12.773 -0.0651 -0.4145  0.1880
 7428TIP3    H143699   3.811   2.878  12.712  0.9883  4.9492  3.7456
 7428TIP3    H243700   3.662   2.868  12.735  0.3220 -0.6823 -0.8856
 7429TIP3   OH243701   0.307   1.944  11.852  0.3339  0.6416  0.3487
 7429TIP3    H143702   0.258   1.863  11.870  0.4088  0.6222  0.4675
 7429TIP3    H243703   0.321   1.983  11.939  2.0417 -0.2269  0.5168
 7430TIP3   OH243704   0.714   5.118   1.584 -0.1265 -0.1300  0.1835
 7430TIP3    H143705   0.737   5.061   1.511 -0.1889 -1.3186  1.0453
 7430TIP3    H243706   0.624   5.145   1.566  0.3703  0.8747 -0.9388
 7431TIP3   OH243707   6.160   2.614  13.959  0.4238  0.2359  0.5442
 7431TIP3    H143708   6.229   2.562  13.999 -1.6027 -1.2478  2.3302
 7431TIP3    H243709   6.095   2.550  13.929  0.0229  1.5367 -1.5798
 7432TIP3   OH243710   1.087   1.011  11.654  0.2829  0.5675 -0.0614
 7432TIP3    H143711   0.996   1.030  11.630  0.0106 -1.6306 -0.9714
 7432TIP3    H243712   1.081   0.962  11.736  0.8454  2.4750  1.1914
 7433TIP3   OH243713   1.543   0.586   9.508 -0.6535  0.4989  0.0434
 7433TIP3    H143714   1.630   0.626   9.500 -0.3920 -0.1778 -0.5893
 7433TIP3    H243715   1.531   0.538   9.426 -0.3801 -1.8720  1.2978
 7434TIP3   OH243716   4.613   6.428   4.117  0.6864  0.4565  0.3121
 7434TIP3    H143717   4.542   6.422   4.052  1.3427  0.3765 -0.4140
 7434TIP3    H243718   4.599   6.512   4.160  0.1971  0.4804  0.1134
 7435TIP3   OH243719   4.549   1.356  11.633  0.0516 -0.1866 -0.7121
 7435TIP3    H143720   4.594   1.352  11.549 -0.9148 -0.2410 -1.2420
 7435TIP3    H243721   4.554   1.448  11.658 -0.7659  0.0708 -1.4612
 7436TIP3   OH243722   2.660   3.336   3.859 -0.0543  0.1440  0.0988
 7436TIP3    H143723   2.574   3.380   3.857  0.3021  0.8424 -1.2244
 7436TIP3    H243724   2.646   3.258   3.913 -1.4136  0.4665  0.2519
 7437TIP3   OH243725   5.699   6.607   3.243 -0.3464 -0.4519 -0.1422
 7437TIP3    H143726   5.680   6.667   3.171  1.2404  0.2583 -0.0177
 7437TIP3    H243727   5.740   6.532   3.201  1.0204  0.1688  0.0207
 7438TIP3   OH243728   0.963   4.238  10.773 -0.2671 -0.0861 -0.3815
 7438TIP3    H143729   1.003   4.246  10.859 -0.1799  2.3688 -0.5924
 7438TIP3    H243730   0.886   4.295  10.776  0.3021  0.8657 -2.1945
 7439TIP3   OH243731   4.930   0.445   1.582  0.6091  0.6697 -0.3200
 7439TIP3    H143732   4.910   0.361   1.540  1.0031  0.4536 -0.0845
 7439TIP3    H243733   4.872   0.446   1.659 -1.8617  2.1225 -2.0642
 7440TIP3   OH243734   0.927   5.921  14.115 -0.4464  0.0781  0.8669
 7440TIP3    H143735   0.907   5.835  14.079  2.1672 -0.5545  0.6893
 7440TIP3    H243736   0.871   5.928  14.193 -1.4135 -1.3436  0.3408
 7441TIP3   OH243737   2.179   4.002  12.223  0.4049  0.1517  0.4107
 7441TIP3    H143738   2.221   4.055  12.156  1.8673  1.6143  2.3524
 7441TIP3    H243739   2.244   3.997  12.294 -0.8482 -1.7609  1.5251
 7442TIP3   OH243740   5.436   3.289   0.715 -0.0118 -0.2988 -0.5958
 7442TIP3    H143741   5.418   3.201   0.682  1.0119 -1.3047  1.3635
 7442TIP3    H243742   5.364   3.306   0.777 -0.0721  0.1447 -0.7877
 7443TIP3   OH243743   0.466   1.255   9.991 -0.0813  0.3127 -0.0269
 7443TIP3    H143744   0.433   1.274   9.904 -1.6987 -0.5166  0.3673
 7443TIP3    H243745   0.520   1.177   9.980 -1.4101 -0.6226 -0.0962
 7444TIP3   OH243746   7.055   1.890  11.531 -0.0450 -0.8803 -1.0539
 7444TIP3    H143747   7.110   1.945  11.587  0.0616 -0.9628 -1.0782
 7444TIP3    H243748   7.065   1.802  11.567 -0.7319 -0.7837 -0.6039
 7445TIP3   OH243749   0.664   0.291  15.240  0.4525 -0.5737  0.1503
 7445TIP3    H143750   0.730   0.234  15.279  1.3795 -0.2401 -0.8940
 7445TIP3    H243751   0.626   0.240  15.169  1.0129 -0.0510 -0.5369
 7446TIP3   OH243752   2.445   2.449  14.851 -0.5792 -0.7159 -0.4603
 7446TIP3    H143753   2.516   2.463  14.914 -1.1221  0.1651 -0.0295
 7446TIP3    H243754   2.443   2.355  14.837  1.0716 -0.7061 -0.9422
 7447TIP3   OH243755   0.789   4.094  14.212 -0.3028 -0.8697  0.0172
 7447TIP3    H143756   0.806   4.074  14.304  2.0401 -1.0574 -0.4126
 7447TIP3    H243757   0.777   4.009  14.171  0.8779 -0.9401 -0.2202
 7448TIP3   OH243758   0.703   5.720   1.039 -0.5169  0.3377  0.0805
 7448TIP3    H143759   0.780   5.746   0.988 -1.4592  0.3703 -1.4107
 7448TIP3    H243760   0.735   5.710   1.128  0.7799  2.4147 -0.0851
 7449TIP3   OH243761   2.071   4.540   1.820 -0.3950  0.9277 -0.0207
 7449TIP3    H143762   2.148   4.573   1.867 -0.4611  0.0377  0.7394
 7449TIP3    H243763   2.084   4.445   1.817 -0.0455  0.9828 -2.4261
 7450TIP3   OH243764   6.385   4.587   4.084  0.6783  0.2690  0.1364
 7450TIP3    H143765   6.416   4.545   4.003  0.9576  1.9212 -0.6708
 7450TIP3    H243766   6.440   4.550   4.153  2.7604  1.2046 -0.9092
 7451TIP3   OH243767   3.638   4.510   9.662  0.0365 -0.5755  0.3899
 7451TIP3    H143768   3.648   4.552   9.576  0.4083 -1.8213 -0.1969
 7451TIP3    H243769   3.638   4.416   9.643  0.6886 -0.8918  1.8149
 7452TIP3   OH243770   3.728   5.379  11.679  0.1718  0.1063  0.3173
 7452TIP3    H143771   3.719   5.335  11.763 -0.6639  0.9748  0.6873
 7452TIP3    H243772   3.811   5.427  11.686  0.8582 -0.9818  0.0774
 7453TIP3   OH243773   6.967   2.209  14.698 -0.0743 -0.8234  0.7382
 7453TIP3    H143774   6.959   2.302  14.719  0.5395 -0.3864 -0.8651
 7453TIP3    H243775   6.886   2.188  14.651  1.0087 -0.3454 -1.4476
 7454TIP3   OH243776   0.287   5.013   2.575  0.3449 -0.5614 -0.5563
 7454TIP3    H143777   0.364   4.974   2.534  2.1591  0.1311  1.9403
 7454TIP3    H243778   0.322   5.085   2.628 -1.9053 -0.6733  1.2423
 7455TIP3   OH243779   0.983   5.863   5.297 -0.0703 -0.6502  0.1270
 7455TIP3    H143780   1.031   5.804   5.355  2.1932  0.0190 -0.9639
 7455TIP3    H243781   1.042   5.937   5.284 -1.7623  0.6386 -0.6597
 7456TIP3   OH243782   5.207   4.535  14.326 -0.3475  0.2308  0.2161
 7456TIP3    H143783   5.141   4.545  14.257 -0.4221  1.0602  0.4024
 7456TIP3    H243784   5.270   4.605  14.310 -0.8644  1.0220  1.5390
 7457TIP3   OH243785   7.054   6.039   1.236 -0.1406 -0.1411  0.3225
 7457TIP3    H143786   7.112   6.100   1.284  1.2405 -0.7055 -0.5572
 7457TIP3    H243787   7.007   6.095   1.175 -0.5490  0.3370  1.0616
 7458TIP3   OH243788   7.067   1.708  13.480  0.2258  0.2170 -0.0896
 7458TIP3    H143789   6.985   1.687  13.524  0.4202  0.3867  0.3615
 7458TIP3    H243790   7.104   1.780  13.531 -0.5975  1.9248 -1.7841
 7459TIP3   OH243791   0.706   4.142  11.042 -0.5949 -0.0710  0.2753
 7459TIP3    H143792   0.791   4.186  11.048 -0.4939 -0.1747 -0.2769
 7459TIP3    H243793   0.642   4.213  11.040 -0.4756  0.0333  0.0701
 7460TIP3   OH243794   2.343   5.514  10.242 -0.0671  0.0437 -1.1435
 7460TIP3    H143795   2.261   5.563  10.242 -0.2144 -0.1768 -0.0215
 7460TIP3    H243796   2.390   5.545  10.320  0.5200 -0.4630 -1.2849
 7461TIP3   OH243797   4.121   6.298   3.708  0.0327 -0.5341  0.0298
 7461TIP3    H143798   4.181   6.229   3.681 -0.8023 -1.4778  0.5001
 7461TIP3    H243799   4.102   6.345   3.627  1.8820  0.2049 -0.0167
 7462TIP3   OH243800   2.531   4.195   9.789  0.0124 -0.0035  0.0553
 7462TIP3    H143801   2.506   4.137   9.717  1.3233 -0.0837 -0.3651
 7462TIP3    H243802   2.593   4.257   9.749 -1.4910  1.8389  0.4362
 7463TIP3   OH243803   5.622   7.093  14.920  0.1908  0.0570  0.0178
 7463TIP3    H143804   5.629   7.011  14.969  0.2267 -0.9012 -1.5397
 7463TIP3    H243805   5.535   7.089  14.880  0.1736  0.8088 -0.0309
 7464TIP3   OH243806   2.818   3.848  14.259 -0.1509  0.0586 -0.3738
 7464TIP3    H143807   2.834   3.804  14.343 -0.3341 -0.9701 -0.8683
 7464TIP3    H243808   2.828   3.941  14.279  2.0061 -0.2583  0.3243
 7465TIP3   OH243809   2.996   6.552  15.061  0.6701  0.4559 -0.2050
 7465TIP3    H143810   3.000   6.592  14.974 -0.1935 -0.7744 -0.8446
 7465TIP3    H243811   3.031   6.464  15.048  1.2373  0.5127  0.8702
 7466TIP3   OH243812   4.312   6.160  13.668  0.0072  0.0537 -0.5931
 7466TIP3    H143813   4.274   6.077  13.696 -0.6318 -0.1536 -1.9789
 7466TIP3    H243814   4.238   6.222  13.671  0.5389  0.6740  0.7134
 7467TIP3   OH243815   4.362   4.090  12.768 -0.7918 -0.2422  0.0648
 7467TIP3    H143816   4.378   4.110  12.860 -0.6164 -1.8183  0.4140
 7467TIP3    H243817   4.347   3.995  12.767 -1.9813 -0.0583 -1.3790
 7468TIP3   OH243818   1.415   0.722  12.709 -1.0032  0.1367 -0.3360
 7468TIP3    H143819   1.338   0.672  12.682 -0.3639  0.6407 -3.4281
 7468TIP3    H243820   1.486   0.689  12.655  0.0691  2.4116 -0.4330
 7469TIP3   OH243821   0.651   4.641  11.809 -0.4063 -0.0578  0.1264
 7469TIP3    H143822   0.626   4.550  11.792  0.1347  0.0401 -1.2718
 7469TIP3    H243823   0.673   4.642  11.902 -0.4194 -1.3542  0.1684
 7470TIP3   OH243824   6.173   6.496   0.784 -0.5437 -0.7929  0.1954
 7470TIP3    H143825   6.079   6.477   0.779 -0.8602  0.3785  1.3962
 7470TIP3    H243826   6.214   6.410   0.793 -1.5006 -1.3064 -0.1789
 7471TIP3   OH243827   5.657   3.513  13.918  0.0147 -0.5612 -0.3240
 7471TIP3    H143828   5.634   3.435  13.968 -3.2952  1.2914  1.3360
 7471TIP3    H243829   5.625   3.494  13.829 -0.7377 -1.1282  0.0553
 7472TIP3   OH243830   4.945   0.665  12.499  0.1649  0.2514 -0.4220
 7472TIP3    H143831   4.920   0.609  12.426 -1.2049 -0.6079  0.6654
 7472TIP3    H243832   4.921   0.753  12.471 -0.5758 -0.1018 -0.9275
 7473TIP3   OH243833   4.404   1.514  14.684 -0.4361 -0.3318 -0.0477
 7473TIP3    H143834   4.379   1.576  14.753 -0.6582 -1.7254  1.1783
 7473TIP3    H243835   4.325   1.464  14.666  0.0555 -1.1234 -0.0703
 7474TIP3   OH243836   1.424   3.913  12.238  0.3421 -0.5328 -0.2838
 7474TIP3    H143837   1.437   3.881  12.327 -0.2203  1.9807  0.7825
 7474TIP3    H243838   1.359   3.983  12.246  1.9476  1.3463 -2.2791
 7475TIP3   OH243839   7.142   1.466  15.313 -0.1675 -0.2289 -0.6665
 7475TIP3    H143840   7.108   1.377  15.310  1.5290 -1.0191  1.0834
 7475TIP3    H243841   7.196   1.475  15.235 -2.1748  0.1660 -2.1073
 7476TIP3   OH243842   2.910   5.035   0.802 -0.2949  0.1093 -0.1516
 7476TIP3    H143843   2.868   5.025   0.717  1.0174 -0.8490 -0.7387
 7476TIP3    H243844   2.899   4.950   0.844  1.2913 -0.2938 -0.4752
 7477TIP3   OH243845   5.534   5.719   0.468  0.2685  0.0250 -0.4162
 7477TIP3    H143846   5.552   5.787   0.404  2.2506  0.3548  0.4179
 7477TIP3    H243847   5.554   5.637   0.422  0.4867  0.1856 -0.6081
 7478TIP3   OH243848   0.574   1.965  11.773 -0.1904  0.7100  0.2844
 7478TIP3    H143849   0.605   1.925  11.691  0.8417 -0.4664  1.2233
 7478TIP3    H243850   0.489   1.924  11.788  1.3550 -2.2156  1.8593
 7479TIP3   OH243851   0.121   4.644  13.207  0.1258  0.3860  0.5249
 7479TIP3    H143852   0.104   4.606  13.121  0.0854  0.7370  0.3766
 7479TIP3    H243853   0.160   4.729  13.189  1.8687 -0.3048  0.8575
 7480TIP3   OH243854   3.254   2.267  11.105  0.1034  0.2326 -0.7124
 7480TIP3    H143855   3.309   2.199  11.065 -0.6551  0.9968 -3.2289
 7480TIP3    H243856   3.167   2.228  11.110 -0.0296  0.5123 -0.8196
 7481TIP3   OH243857   1.330   2.950   0.809  0.3345 -0.1826 -0.1905
 7481TIP3    H143858   1.285   2.942   0.726  0.8068 -0.2532 -0.4455
 7481TIP3    H243859   1.415   2.989   0.787  0.9758 -1.3785  0.0726
 7482TIP3   OH243860   0.703   6.474  11.570 -0.0842 -0.3403 -0.1082
 7482TIP3    H143861   0.699   6.526  11.490  0.4673 -0.3830 -0.1717
 7482TIP3    H243862   0.797   6.465  11.587 -0.1963  0.8935  1.3306
 7483TIP3   OH243863   4.002   1.274  13.163  0.0421  0.6433 -0.1084
 7483TIP3    H143864   4.025   1.210  13.095  0.9325  1.5427 -0.6772
 7483TIP3    H243865   3.992   1.221  13.242  1.1582 -0.1810 -0.4817
 7484TIP3   OH243866   3.005   3.071   0.940 -0.4569  0.1851  0.3970
 7484TIP3    H143867   3.022   2.997   0.998 -1.3229  0.3316  0.8575
 7484TIP3    H243868   3.091   3.097   0.908  0.0754  0.3105  1.8670
 7485TIP3   OH243869   5.530   4.350  14.399 -0.2669  0.1874  0.4803
 7485TIP3    H143870   5.463   4.288  14.427 -0.5780  1.0582  1.7583
 7485TIP3    H243871   5.561   4.316  14.315 -1.0938 -1.1575  0.6934
 7486TIP3   OH243872   1.905   3.973  10.071  0.1277 -0.3356  0.3169
 7486TIP3    H143873   1.959   3.964   9.992  0.1551 -0.9086  0.3932
 7486TIP3    H243874   1.968   3.993  10.141  0.1798 -0.4631  0.3080
 7487TIP3   OH243875   0.170   0.495  14.716 -0.1384  0.6153 -0.0699
 7487TIP3    H143876   0.232   0.433  14.677  0.0020  1.0554 -0.5639
 7487TIP3    H243877   0.149   0.555  14.644 -1.6885  0.0612 -0.1131
 7488TIP3   OH243878   7.167   2.287  13.811  0.0494  0.1580 -0.0480
 7488TIP3    H143879   7.166   2.318  13.901 -1.9341  0.7730 -0.2199
 7488TIP3    H243880   7.253   2.311  13.778 -0.1643  2.4742  0.8847
 7489TIP3   OH243881   4.403   4.422  12.177  0.2488  0.3760  0.1335
 7489TIP3    H143882   4.471   4.488  12.163  0.2506  0.1468 -1.0789
 7489TIP3    H243883   4.371   4.401  12.089  0.9230 -1.9447  0.3666
 7490TIP3   OH243884   1.639   7.081   2.723 -0.0227  0.1918 -0.0030
 7490TIP3    H143885   1.600   7.146   2.665 -1.3215 -1.3430 -0.9199
 7490TIP3    H243886   1.713   7.045   2.674 -0.1908 -0.0441 -0.0821
 7491TIP3   OH243887   5.684   3.110   0.939  0.3402 -0.2358 -0.1916
 7491TIP3    H143888   5.742   3.138   1.010  1.0156 -2.0286  0.0056
 7491TIP3    H243889   5.730   3.037   0.898 -0.2705  0.4310 -2.1670
 7492TIP3   OH243890   3.094   5.819  15.119 -0.1906 -0.2269 -0.1655
 7492TIP3    H143891   3.081   5.725  15.104 -1.6232 -0.4263  1.8807
 7492TIP3    H243892   3.107   5.855  15.032 -0.5596 -2.2039 -1.1032
 7493TIP3   OH243893   4.186   2.341  12.020  0.4939 -0.5899  0.3176
 7493TIP3    H143894   4.209   2.306  11.934  1.4133 -0.0394  0.3210
 7493TIP3    H243895   4.174   2.264  12.075 -1.8585 -1.0348 -0.6862
 7494TIP3   OH243896   3.820   3.181  11.501 -0.0475  0.0498 -0.0331
 7494TIP3    H143897   3.863   3.254  11.544 -0.6579  0.5915 -0.3153
 7494TIP3    H243898   3.737   3.170  11.548  0.1557 -0.6389  0.1770
 7495TIP3   OH243899   5.799   6.270   9.207 -0.1910  0.5672 -0.0957
 7495TIP3    H143900   5.872   6.211   9.189  0.9383  1.7530  0.4714
 7495TIP3    H243901   5.816   6.305   9.294 -0.5402  2.1300 -0.6189
 7496TIP3   OH243902   6.379   5.471  14.075  0.3185  0.4148  0.0817
 7496TIP3    H143903   6.426   5.549  14.106  0.8416 -0.1338  0.6912
 7496TIP3    H243904   6.288   5.488  14.098  0.7400 -0.1626  2.4090
 7497TIP3   OH243905   0.547   0.121   0.141 -0.2137  0.0844  0.7900
 7497TIP3    H143906   0.551   0.213   0.117 -0.4299 -0.1290 -0.1082
 7497TIP3    H243907   0.586   0.075   0.066  1.7478 -0.4426  2.0423
 7498TIP3   OH243908   1.313   0.498   0.793 -0.2875 -0.6035 -0.4623
 7498TIP3    H143909   1.262   0.573   0.822 -1.3171 -0.5951 -2.1846
 7498TIP3    H243910   1.404   0.521   0.812 -0.6391  0.8193 -0.4482
 7499TIP3   OH243911   0.847   1.621  14.140 -0.5788 -0.7541  0.3331
 7499TIP3    H143912   0.759   1.648  14.115  0.1371  1.5940  0.0570
 7499TIP3    H243913   0.905   1.673  14.084  1.0058 -1.9684  0.7503
 7500TIP3   OH243914   2.153   6.623   1.500  0.3824 -0.6643  0.0405
 7500TIP3    H143915   2.209   6.675   1.443 -1.1049  1.5971  0.5324
 7500TIP3    H243916   2.210   6.596   1.572  0.8994  1.5300  0.5069
 7501TIP3   OH243917   0.469   1.804   1.443 -0.0784  0.1729  0.4097
 7501TIP3    H143918   0.375   1.791   1.439  0.0673 -0.6637 -0.9050
 7501TIP3    H243919   0.482   1.865   1.516 -1.6804  0.9335  0.1018
 7502TIP3   OH243920   4.399   2.977  15.295 -0.1554  0.7514 -0.6391
 7502TIP3    H143921   4.350   2.904  15.259 -0.1270  0.7944 -0.7635
 7502TIP3    H243922   4.359   3.055  15.256 -0.3242  0.8148 -0.3458
 7503TIP3   OH243923   5.393   0.359   1.189  0.4029 -0.3429  0.2237
 7503TIP3    H143924   5.379   0.452   1.206 -2.9015 -0.1062 -2.6666
 7503TIP3    H243925   5.468   0.356   1.130  0.9149  0.4170  0.8240
 7504TIP3   OH243926   6.301   2.535   0.966  0.7270  0.3788 -0.4276
 7504TIP3    H143927   6.263   2.453   0.996  2.4995 -0.4054 -0.2376
 7504TIP3    H243928   6.391   2.533   0.997  1.4021  1.4728 -2.1742
 7505TIP3   OH243929   6.022   4.293  10.112  0.5934  0.5918  0.6300
 7505TIP3    H143930   6.083   4.341  10.057  0.0540  1.2659  0.6007
 7505TIP3    H243931   6.014   4.345  10.192  1.5976 -0.5276  1.5025
 7506TIP3   OH243932   5.608   1.730  10.197 -0.3494 -0.0747  0.1266
 7506TIP3    H143933   5.611   1.742  10.102 -0.0450  1.7017  0.3280
 7506TIP3    H243934   5.528   1.773  10.224  0.2711  0.6854  0.8085
 7507TIP3   OH243935   6.016   3.745   0.681  0.0248  0.3847 -0.0165
 7507TIP3    H143936   5.999   3.804   0.608  0.2532 -2.7506 -2.7868
 7507TIP3    H243937   5.930   3.708   0.703 -0.0309  1.2250  1.3567
 7508TIP3   OH243938   0.069   1.972   2.999 -0.0646 -0.2423 -0.1286
 7508TIP3    H143939   0.135   1.911   2.966  0.5714  0.4492 -0.1672
 7508TIP3    H243940   0.099   1.995   3.086 -0.2793  0.0494 -0.1302
 7509TIP3   OH243941   5.379   0.338   2.786  0.1244 -0.2690 -0.5671
 7509TIP3    H143942   5.287   0.311   2.787  0.4006 -1.2674  1.0482
 7509TIP3    H243943   5.379   0.418   2.733 -1.9551  0.6537  0.6492
 7510TIP3   OH243944   2.272   1.000   9.899 -0.0968 -0.0702 -0.2383
 7510TIP3    H143945   2.199   0.980   9.840 -0.2802  0.8535 -0.3421
 7510TIP3    H243946   2.330   1.056   9.847  1.3220 -1.7830 -0.5602
 7511TIP3   OH243947   3.529   1.741  10.937 -0.3253 -0.8560 -0.0909
 7511TIP3    H143948   3.465   1.762  10.870 -1.6102 -0.7256  1.1387
 7511TIP3    H243949   3.612   1.732  10.889 -0.4691  2.6419 -1.3146
 7512TIP3   OH243950   4.132   1.871  14.649  0.2867  0.1281 -0.7594
 7512TIP3    H143951   4.177   1.922  14.717  2.0053  1.0092 -2.4802
 7512TIP3    H243952   4.149   1.780  14.671  0.2911  0.3711  0.3091
 7513TIP3   OH243953   6.428   6.326   0.815 -0.1084  0.0714  0.4107
 7513TIP3    H143954   6.465   6.246   0.779 -0.9785  0.0522 -0.4997
 7513TIP3    H243955   6.434   6.390   0.743  2.8296  1.6264  1.8469
 7514TIP3   OH243956   0.385   5.769   9.896 -0.1950  0.6675 -0.1487
 7514TIP3    H143957   0.327   5.799   9.826 -1.6531 -2.6210 -0.5273
 7514TIP3    H243958   0.452   5.718   9.851 -0.7469 -0.9033  0.7268
 7515TIP3   OH243959   2.676   3.556  12.026 -0.0337  0.0753  0.0716
 7515TIP3    H143960   2.758   3.518  11.996 -0.7037 -0.5771 -1.0035
 7515TIP3    H243961   2.620   3.558  11.948 -0.9127  0.8474  0.6960
 7516TIP3   OH243962   4.582   0.963  13.049 -0.1997  0.0737 -0.1893
 7516TIP3    H143963   4.508   1.023  13.052 -1.5009 -1.4669  0.0389
 7516TIP3    H243964   4.592   0.941  12.956 -0.4629 -0.2096 -0.1536
 7517TIP3   OH243965   5.383   1.227   0.734  0.0259  0.1297 -0.0679
 7517TIP3    H143966   5.457   1.188   0.781  0.3285  0.1523 -0.5200
 7517TIP3    H243967   5.321   1.252   0.803  0.0755 -0.6320  0.2660
 7518TIP3   OH243968   2.180   3.454  10.466  0.1361  0.1127  0.6224
 7518TIP3    H143969   2.103   3.458  10.523  1.1442  1.3661  1.9767
 7518TIP3    H243970   2.245   3.408  10.518  1.2775  1.8256  0.8045
 7519TIP3   OH243971   3.274   0.012  13.902 -0.1786 -0.8234 -0.0071
 7519TIP3    H143972   3.311  -0.071  13.871  0.1943 -0.3103 -0.9833
 7519TIP3    H243973   3.336   0.078  13.873 -1.3988 -0.0228 -0.8847
 7520TIP3   OH243974   1.345   6.859  12.983 -0.0335 -0.0833 -0.0774
 7520TIP3    H143975   1.340   6.763  12.980  0.3116 -0.1876  1.7641
 7520TIP3    H243976   1.435   6.879  12.960  0.0451 -0.2207  0.1151
 7521TIP3   OH243977   3.707   1.931   0.372 -0.0813  0.1091  0.5379
 7521TIP3    H143978   3.682   1.843   0.343  2.5870 -0.6521  0.2682
 7521TIP3    H243979   3.694   1.986   0.295  0.2304 -0.4999  0.0350
 7522TIP3   OH243980   2.211   4.714  13.959  0.3842  0.8706 -0.3058
 7522TIP3    H143981   2.273   4.771  13.913  0.0889  1.7612  0.3718
 7522TIP3    H243982   2.129   4.724  13.911  0.6891 -0.1547 -1.0823
 7523TIP3   OH243983   4.283   3.693   1.293  0.0824 -0.1617  0.0997
 7523TIP3    H143984   4.265   3.777   1.250  0.6696  0.2832  0.6921
 7523TIP3    H243985   4.258   3.707   1.384 -0.2598 -0.7879  0.1042
 7524TIP3   OH243986   3.332   7.073  14.367 -0.2255  0.3045  0.1119
 7524TIP3    H143987   3.306   7.039  14.281 -0.3559 -0.1280  0.3217
 7524TIP3    H243988   3.426   7.087  14.360 -0.3007  0.6584 -0.2338
 7525TIP3   OH243989   1.789   1.949  11.744  0.1926 -0.1920 -0.6347
 7525TIP3    H143990   1.780   2.042  11.723  1.3988  0.7860  2.5226
 7525TIP3    H243991   1.754   1.904  11.668  0.9191  2.7986 -2.9672
 7526TIP3   OH243992   5.436   1.625   0.425 -0.2497 -0.3305  0.7651
 7526TIP3    H143993   5.504   1.557   0.420  0.1893  0.1717 -0.6458
 7526TIP3    H243994   5.412   1.641   0.334  0.4986  2.2160  0.9376
 7527TIP3   OH243995   4.808   6.786  13.267 -0.8000 -0.0070  0.2269
 7527TIP3    H143996   4.892   6.752  13.236 -1.3497 -0.6953 -0.5270
 7527TIP3    H243997   4.813   6.880  13.249 -0.0851  0.0037  0.4411
 7528TIP3   OH243998   1.658   6.934   0.016 -0.2412  0.5753  0.1095
 7528TIP3    H143999   1.568   6.967   0.024  0.0043  1.4918 -0.8022
 7528TIP3    H244000   1.701   6.961   0.097 -0.8213 -0.0389  0.6386
 7529TIP3   OH244001   2.518   1.163  12.833 -0.0140  0.5467  0.2039
 7529TIP3    H144002   2.482   1.078  12.809  1.5182  0.2713 -1.3267
 7529TIP3    H244003   2.523   1.162  12.928  0.0863 -1.1178  0.1975
 7530TIP3   OH244004   3.690   2.610  11.958  0.2187 -0.3128 -0.3843
 7530TIP3    H144005   3.742   2.542  11.916  1.7282  1.2674 -1.2120
 7530TIP3    H244006   3.752   2.680  11.976 -1.5536  1.5556 -1.1378
 7531TIP3   OH244007   6.908   1.114  14.045 -0.1207 -0.2349 -0.5342
 7531TIP3    H144008   6.897   1.029  14.087 -0.8213 -0.2364 -0.7223
 7531TIP3    H244009   7.002   1.133  14.055  0.0504 -1.0441 -0.5285
 7532TIP3   OH244010   1.567   3.097   9.832 -1.3464 -0.8385  0.1871
 7532TIP3    H144011   1.573   3.177   9.780 -0.5032 -1.6837 -1.0632
 7532TIP3    H244012   1.605   3.029   9.776 -0.9325 -1.8942  1.6926
 7533TIP3   OH244013   0.041   2.960  12.846  0.7919  0.2128  0.0179
 7533TIP3    H144014  -0.046   2.927  12.821  0.7118  0.4185  0.0245
 7533TIP3    H244015   0.074   2.895  12.909  1.5124 -0.9605 -1.5186
 7534TIP3   OH244016   0.155   2.259  12.072  0.2779  0.7898 -0.1741
 7534TIP3    H144017   0.202   2.176  12.078  1.0540  1.1771 -0.7528
 7534TIP3    H244018   0.133   2.280  12.163 -0.5235 -0.3643 -0.0741
 7535TIP3   OH244019   0.745   3.504  10.559  0.4653 -0.2532 -0.1771
 7535TIP3    H144020   0.655   3.523  10.531  0.8005  0.9169 -0.5184
 7535TIP3    H244021   0.773   3.581  10.607  1.2806 -0.6185 -0.0373
 7536TIP3   OH244022   4.367   5.741   2.171 -0.2321 -0.3604 -0.9806
 7536TIP3    H144023   4.419   5.705   2.100 -1.2936 -0.8749 -1.5088
 7536TIP3    H244024   4.353   5.833   2.147  1.3052  0.0885 -0.3048
 7537TIP3   OH244025   3.709   0.293   3.514  0.4336  0.2813  0.2493
 7537TIP3    H144026   3.634   0.278   3.456 -0.2798  0.4296  1.1056
 7537TIP3    H244027   3.671   0.292   3.602  1.4146  0.5420  0.6836
 7538TIP3   OH244028   1.724   0.441   2.241  0.3080  0.5569  0.2591
 7538TIP3    H144029   1.779   0.368   2.267  0.2761  0.5292  0.2487
 7538TIP3    H244030   1.664   0.454   2.315  0.0426  0.3064  0.0867
 7539TIP3   OH244031   2.358   0.189   2.540 -0.3019  0.1490  0.4795
 7539TIP3    H144032   2.350   0.246   2.616  0.0572 -1.0808  1.4713
 7539TIP3    H244033   2.448   0.158   2.543 -0.1851  0.3296 -0.6510
 7540TIP3   OH244034   6.687   1.316  14.643 -0.4533 -0.0948  0.6042
 7540TIP3    H144035   6.614   1.337  14.584 -0.7033 -0.8067  0.6548
 7540TIP3    H244036   6.683   1.221  14.652  1.2758 -0.2967 -0.4172
 7541TIP3   OH244037   0.336   2.904   0.264 -0.6617 -0.0880 -0.1185
 7541TIP3    H144038   0.385   2.946   0.335 -2.4688  1.0940  0.4853
 7541TIP3    H244039   0.306   2.822   0.301 -0.3786 -0.1500 -0.0187
 7542TIP3   OH244040   1.239   3.267  12.324  0.1806  0.6691  0.3340
 7542TIP3    H144041   1.320   3.273  12.273  1.4070  0.2686  2.1384
 7542TIP3    H244042   1.219   3.173  12.326  0.8843  0.5270  1.6439
 7543TIP3   OH244043   6.642   2.852  11.037 -0.1345 -0.3947  0.2486
 7543TIP3    H144044   6.628   2.905  10.958  0.0386 -0.1640  0.3727
 7543TIP3    H244045   6.690   2.775  11.006 -0.5210 -0.5579  0.0422
 7544TIP3   OH244046   4.048   5.340  14.051 -0.0861  0.2374  0.2152
 7544TIP3    H144047   3.976   5.404  14.051  0.8106  1.3016  1.3012
 7544TIP3    H244048   4.121   5.388  14.011  0.6601 -0.0118  1.2379
 7545TIP3   OH244049   0.902   2.324  13.173 -0.1608 -0.3225  0.3076
 7545TIP3    H144050   0.908   2.228  13.181  0.7735 -0.2197  1.0225
 7545TIP3    H244051   0.870   2.353  13.258  1.5821  0.1455  0.8373
 7546TIP3   OH244052   3.331   4.060   2.394 -0.0428 -0.6542  0.2122
 7546TIP3    H144053   3.380   4.079   2.314  1.4074  1.3192  1.4756
 7546TIP3    H244054   3.287   4.142   2.415  0.2915 -0.8668  1.8747
 7547TIP3   OH244055   1.493   4.428  14.325 -0.0707  0.1679 -0.0249
 7547TIP3    H144056   1.487   4.484  14.402  0.8885 -0.3027  0.4094
 7547TIP3    H244057   1.586   4.426  14.305  0.0439 -1.9964  0.5241
 7548TIP3   OH244058   4.612   2.627  10.786  0.1977  0.2068  0.0524
 7548TIP3    H144059   4.610   2.620  10.882 -0.7381 -0.7499 -0.0291
 7548TIP3    H244060   4.550   2.697  10.766 -0.5698 -0.4632  0.0727
 7549TIP3   OH244061   0.091   5.172   1.954 -0.4247 -0.2429 -0.1291
 7549TIP3    H144062   0.128   5.178   1.866  2.0386  0.5445  0.8683
 7549TIP3    H244063   0.084   5.262   1.983 -1.3738 -0.4889  0.4420
 7550TIP3   OH244064   1.980   1.011  13.236  0.0965  0.1383 -0.5424
 7550TIP3    H144065   2.070   0.990  13.211 -0.1965 -2.0838  0.1143
 7550TIP3    H244066   1.943   0.929  13.267 -1.0293  1.7126  2.7663
 7551TIP3   OH244067   2.127   2.115   1.667 -0.0891  0.2636  0.2449
 7551TIP3    H144068   2.130   2.196   1.617 -2.3743 -0.7492 -1.7481
 7551TIP3    H244069   2.195   2.060   1.626  0.0561  0.4543  0.2271
 7552TIP3   OH244070   3.873   0.462  12.147  0.8538 -0.0385 -0.1571
 7552TIP3    H144071   3.802   0.510  12.105 -1.0827 -1.7200  1.0525
 7552TIP3    H244072   3.900   0.518  12.220  0.5481  0.4471 -0.4121
 7553TIP3   OH244073   1.051   0.650  10.090  0.5565  0.4500 -0.2021
 7553TIP3    H144074   1.112   0.586  10.052  0.9904  1.5848 -1.5099
 7553TIP3    H244075   1.023   0.703  10.015 -2.6683 -0.4906  0.2035
 7554TIP3   OH244076   6.088   4.599   3.081 -0.3254 -0.0671 -1.3220
 7554TIP3    H144077   6.080   4.539   3.155 -1.0364  2.3219  0.7013
 7554TIP3    H244078   6.057   4.549   3.005 -2.3889 -1.7497  0.5117
 7555TIP3   OH244079   1.005   3.201  10.857  0.5214 -0.2115  0.0599
 7555TIP3    H144080   1.025   3.294  10.860 -0.6931  0.0682  2.8776
 7555TIP3    H244081   1.036   3.167  10.941 -1.1084 -1.8630  0.0615
 7556TIP3   OH244082   3.694   5.328  11.972 -0.4896  0.3659  0.2643
 7556TIP3    H144083   3.764   5.377  12.015  0.2401 -0.1459 -0.3106
 7556TIP3    H244084   3.735   5.245  11.946 -1.3152  0.0530 -0.0758
 7557TIP3   OH244085   4.461   5.648   0.816 -0.2627  0.4841 -0.0734
 7557TIP3    H144086   4.442   5.640   0.722  0.3742  0.4180 -0.1968
 7557TIP3    H244087   4.387   5.605   0.858 -0.4742  0.3691 -0.5506
 7558TIP3   OH244088   4.754   3.566  14.350  0.5144  0.0819  0.1546
 7558TIP3    H144089   4.838   3.527  14.374  1.3425  1.1538 -0.8826
 7558TIP3    H244090   4.698   3.552  14.427  1.5676 -0.8254  0.7835
 7559TIP3   OH244091   5.356   5.344   0.465 -0.3211 -0.4701 -0.1969
 7559TIP3    H144092   5.435   5.317   0.511  0.9327  1.1692 -1.3063
 7559TIP3    H244093   5.346   5.279   0.395  0.8259  0.0759 -0.8845
 7560TIP3   OH244094   1.904   7.086  10.050 -0.3002  0.5909  0.2387
 7560TIP3    H144095   1.899   7.036   9.969 -1.1193  1.7472 -0.4680
 7560TIP3    H244096   1.907   7.020  10.119  1.5251 -0.4259 -0.7579
 7561TIP3   OH244097   2.198   0.590  13.897  0.0960  0.4265 -0.0751
 7561TIP3    H144098   2.200   0.680  13.864 -4.8703  0.0538 -2.3119
 7561TIP3    H244099   2.277   0.550  13.860  0.3694  2.8744 -2.5294
 7562TIP3   OH244100   6.303   3.292  14.866 -0.0434 -0.6364 -0.2494
 7562TIP3    H144101   6.244   3.353  14.823  0.0651 -0.5446 -0.2688
 7562TIP3    H244102   6.343   3.243  14.794 -0.2121 -0.8052 -0.2278
 7563TIP3   OH244103   3.404   3.142  13.846 -0.0545 -0.4470  0.1880
 7563TIP3    H144104   3.357   3.223  13.868 -2.2256 -1.4272 -0.6064
 7563TIP3    H244105   3.436   3.110  13.930 -0.3538  0.5315  0.6962
 7564TIP3   OH244106   5.139   4.917  14.302  0.4070  0.1590  0.3741
 7564TIP3    H144107   5.173   4.958  14.222 -1.8458 -0.6952 -1.1179
 7564TIP3    H244108   5.047   4.944  14.306  0.5004  0.4026  2.8862
 7565TIP3   OH244109   2.243   2.515  10.539 -0.1870 -0.3337  0.1845
 7565TIP3    H144110   2.325   2.564  10.534 -0.0312 -0.7033 -1.0666
 7565TIP3    H244111   2.181   2.565  10.486  0.1290 -1.7369 -1.5991
 7566TIP3   OH244112   6.129   0.060  11.616  0.1496  0.4089 -0.4549
 7566TIP3    H144113   6.054   0.119  11.621  0.7778  1.1918 -0.0013
 7566TIP3    H244114   6.093  -0.027  11.632 -0.4940  0.9051  0.9541
 7567TIP3   OH244115   2.627   1.464  12.314  0.7230 -0.3391 -0.0651
 7567TIP3    H144116   2.630   1.374  12.346  0.9865  0.0933  1.1550
 7567TIP3    H244117   2.546   1.500  12.350  1.2865  0.3186  0.5686
 7568TIP3   OH244118   6.318   4.576  11.136  0.1665 -0.0606  0.2798
 7568TIP3    H144119   6.296   4.613  11.051 -0.1315  0.0694  0.4141
 7568TIP3    H244120   6.244   4.520  11.158 -0.3823  0.9451  1.0646
 7569TIP3   OH244121   4.353   2.487   2.536 -0.1083  0.7689 -0.1539
 7569TIP3    H144122   4.428   2.520   2.585 -1.4092  1.7672  1.2925
 7569TIP3    H244123   4.364   2.392   2.533  1.2830  0.9182 -0.1468
 7570TIP3   OH244124   3.814   3.419  12.188  1.1303 -0.2671  0.1230
 7570TIP3    H144125   3.801   3.470  12.268  1.2970  1.3431 -0.8316
 7570TIP3    H244126   3.727   3.387  12.166  0.9935 -0.2822  0.6564
 7571TIP3   OH244127   0.598   1.651  13.023 -0.1785 -0.0831 -0.1991
 7571TIP3    H144128   0.607   1.584  13.091  2.8040  0.9675  0.5889
 7571TIP3    H244129   0.576   1.731  13.071 -0.2178  0.2307 -0.7362
 7572TIP3   OH244130   6.695   0.854  13.762  0.1614  0.3565 -0.6088
 7572TIP3    H144131   6.711   0.822  13.850  3.4817 -0.1673 -1.2656
 7572TIP3    H244132   6.651   0.938  13.774  0.0547  0.0448  1.4926
 7573TIP3   OH244133   0.104   4.307  12.227 -0.0893  0.0828  1.3720
 7573TIP3    H144134   0.169   4.322  12.158 -0.7005  1.7895  1.1408
 7573TIP3    H244135   0.036   4.255  12.185 -0.7158  1.5578  0.4910
 7574TIP3   OH244136   6.176   1.171  14.467  0.3426  0.5712 -0.5345
 7574TIP3    H144137   6.147   1.234  14.534  1.4271 -0.2613  0.7718
 7574TIP3    H244138   6.103   1.110  14.459  0.6684 -0.0449  0.8524
 7575TIP3   OH244139   4.050   2.075   1.611  0.0276  0.6946  0.7619
 7575TIP3    H144140   4.069   2.150   1.668  1.2970 -0.0317  1.3398
 7575TIP3    H244141   4.129   2.064   1.558 -0.5439  0.3836 -0.0400
 7576TIP3   OH244142   3.071   3.514  13.807 -0.3577  0.6397  0.3393
 7576TIP3    H144143   3.032   3.428  13.826 -1.1544  1.3712  2.3840
 7576TIP3    H244144   3.000   3.576  13.825  0.5018  1.7828 -0.1257
 7577TIP3   OH244145   3.000   0.395   1.549  0.1506 -0.5625 -0.0299
 7577TIP3    H144146   3.006   0.489   1.529 -0.6588  0.0666  2.3623
 7577TIP3    H244147   3.082   0.375   1.594  0.2179 -0.9784 -0.3232
 7578TIP3   OH244148   2.167   6.098   3.278 -0.4083  0.4553 -0.1263
 7578TIP3    H144149   2.110   6.043   3.223 -0.0843  1.5174 -1.6066
 7578TIP3    H244150   2.109   6.168   3.308 -0.3210  0.5068 -0.0797
 7579TIP3   OH244151   1.453   0.626  11.951  0.3473  0.4468 -0.6105
 7579TIP3    H144152   1.459   0.711  11.907 -1.0619  0.8999  0.0115
 7579TIP3    H244153   1.502   0.566  11.894 -1.0917  1.0805 -2.6213
 7580TIP3   OH244154   6.749   5.071   0.573 -0.3123  0.1754 -0.7988
 7580TIP3    H144155   6.692   5.148   0.569  0.5375  0.8271 -0.8044
 7580TIP3    H244156   6.816   5.088   0.506 -0.3885 -0.8014 -1.1268
 7581TIP3   OH244157   5.523   2.456   0.860 -0.0028  0.4173 -0.0379
 7581TIP3    H144158   5.479   2.406   0.792  1.1364  1.8261 -1.9400
 7581TIP3    H244159   5.615   2.430   0.853  0.1104  0.4918  1.0557
 7582TIP3   OH244160   0.047   4.113   2.100  0.8950  0.5418  0.1396
 7582TIP3    H144161   0.138   4.104   2.129  1.3343  1.2008 -0.9569
 7582TIP3    H244162   0.036   4.045   2.034  0.7398  0.7679 -0.0687
 7583TIP3   OH244163   2.607   3.590  14.259  0.7627  0.5281 -0.4097
 7583TIP3    H144164   2.623   3.661  14.196 -0.1740  0.8287 -0.3210
 7583TIP3    H244165   2.695   3.564  14.287  1.1216  2.5530  0.5658
 7584TIP3   OH244166   5.109   5.395   5.399 -0.2456  0.1771 -0.2913
 7584TIP3    H144167   5.110   5.307   5.363  3.0619  0.2684 -0.6837
 7584TIP3    H244168   5.032   5.396   5.457 -1.0466 -2.5363 -1.1555
 7585TIP3   OH244169   4.364   3.157   0.297  0.2856 -0.3566 -0.2386
 7585TIP3    H144170   4.450   3.154   0.256  0.0425  0.9862 -0.9228
 7585TIP3    H244171   4.311   3.097   0.246  1.4530 -3.5207  1.9698
 7586TIP3   OH244172   2.687   0.130  11.769 -0.6638  0.0526  0.0982
 7586TIP3    H144173   2.654   0.183  11.842  0.5521  0.2930  0.4971
 7586TIP3    H244174   2.658   0.041  11.790 -0.0371  0.0592  1.0686
 7587TIP3   OH244175   3.469   2.689  11.542  0.0457  0.1270  0.5703
 7587TIP3    H144176   3.489   2.596  11.556 -2.4788 -0.4301  1.0941
 7587TIP3    H244177   3.517   2.735  11.611 -0.3374 -1.0597  1.6814
 7588TIP3   OH244178   0.125   1.621   0.460 -0.6245 -0.0685  0.3780
 7588TIP3    H144179   0.147   1.614   0.553  1.9079 -0.1540 -0.1658
 7588TIP3    H244180   0.156   1.708   0.435 -0.6990 -0.2928 -0.5203
 7589TIP3   OH244181   4.324   3.045   4.956 -0.0988 -0.6130 -0.1330
 7589TIP3    H144182   4.241   3.023   4.999  0.8342  1.6754  3.2639
 7589TIP3    H244183   4.377   2.967   4.967  0.5561  0.1847  4.5974
 7590TIP3   OH244184   4.809   2.820   9.956  0.1022  0.4996  0.3074
 7590TIP3    H144185   4.836   2.733   9.986 -0.4297  0.8661  1.9669
 7590TIP3    H244186   4.881   2.878   9.980  0.3008  0.5833 -0.4705
 7591TIP3   OH244187   2.938   0.853  11.684 -0.7554 -0.2342  0.1737
 7591TIP3    H144188   3.015   0.863  11.739  1.5716 -3.6371 -2.0131
 7591TIP3    H244189   2.879   0.797  11.735 -0.0338 -0.7335  0.4811
 7592TIP3   OH244190   1.660   2.431  12.068  0.6004  0.5158 -0.0247
 7592TIP3    H144191   1.667   2.449  11.974  0.8400  1.1164  0.0985
 7592TIP3    H244192   1.689   2.513  12.110  3.0827 -0.5677  0.5896
 7593TIP3   OH244193   3.582   3.653  14.322  0.2402  0.3147  0.1148
 7593TIP3    H144194   3.582   3.748  14.321 -1.4677  0.3602  1.1309
 7593TIP3    H244195   3.589   3.628  14.230 -1.2973  1.4766 -0.3634
 7594TIP3   OH244196   6.468   1.754   4.307 -0.0614 -0.8275  0.6767
 7594TIP3    H144197   6.388   1.789   4.346 -0.0712 -0.3579  0.2366
 7594TIP3    H244198   6.538   1.785   4.364  0.0761  1.1030 -0.4493
 7595TIP3   OH244199   6.956   5.805  11.597 -0.9255  0.5017  0.0213
 7595TIP3    H144200   6.879   5.792  11.541 -0.4805  1.1461 -0.7549
 7595TIP3    H244201   6.943   5.892  11.635 -1.3109  0.0027  1.0874
 7596TIP3   OH244202   0.585   4.248   1.275 -0.1840 -0.5241  0.3558
 7596TIP3    H144203   0.501   4.275   1.239  0.0843 -1.7201 -1.3024
 7596TIP3    H244204   0.647   4.315   1.245  0.2231 -2.0132 -2.4891
 7597TIP3   OH244205   1.216   0.873  12.958  0.5473 -0.6694  0.1738
 7597TIP3    H144206   1.213   0.815  13.034 -0.9401  1.0844  1.5549
 7597TIP3    H244207   1.137   0.853  12.909 -1.0851  1.3971  1.7356
 7598TIP3   OH244208   1.802   6.257   0.778  0.0069 -0.1226  0.5666
 7598TIP3    H144209   1.752   6.335   0.753  3.3182  1.2970 -2.6043
 7598TIP3    H244210   1.861   6.287   0.847  0.6299 -0.0798  0.0185
 7599TIP3   OH244211   5.180   1.433  13.868  0.5640  0.4008  0.2686
 7599TIP3    H144212   5.264   1.454  13.910  1.0122  1.2464 -1.0044
 7599TIP3    H244213   5.117   1.437  13.940  1.3275  1.7094  0.9086
 7600TIP3   OH244214   0.681   0.174   5.347  0.3388 -0.1974 -0.2007
 7600TIP3    H144215   0.718   0.141   5.429  1.8935 -0.1219 -0.8419
 7600TIP3    H244216   0.622   0.104   5.318  1.1301 -1.0098  0.1009
 7601TIP3   OH244217   2.008   6.893   0.163 -0.0562 -0.4269  0.0422
 7601TIP3    H144218   2.027   6.815   0.111 -0.0341  0.2570 -1.0232
 7601TIP3    H244219   2.054   6.964   0.116 -1.2482  0.4533  0.1683
 7602TIP3   OH244220   4.689   4.839   2.196  0.2411 -0.6124 -0.2809
 7602TIP3    H144221   4.662   4.867   2.108  0.1310  1.2088  0.2867
 7602TIP3    H244222   4.612   4.853   2.251  0.6139 -0.7807  0.2990
 7603TIP3   OH244223   6.888   0.699  14.851  0.0416 -0.5786 -0.6183
 7603TIP3    H144224   6.912   0.702  14.758  1.0245 -2.3747 -0.4795
 7603TIP3    H244225   6.949   0.759  14.894  0.5080 -0.7946 -0.9753
 7604TIP3   OH244226   6.362   7.051   1.596 -0.2447 -0.4218  0.0320
 7604TIP3    H144227   6.336   7.011   1.679  0.3578  0.7795  0.8267
 7604TIP3    H244228   6.329   7.141   1.601  2.6920  0.7420  0.4694
 7605TIP3   OH244229   5.089   4.462  12.741 -0.1960  0.2104 -0.2767
 7605TIP3    H144230   5.061   4.377  12.707  1.8319 -0.2673 -0.8541
 7605TIP3    H244231   5.053   4.525  12.678 -1.3736 -0.2152 -0.0667
 7606TIP3   OH244232   2.425   1.264  15.129  0.3232  0.0461 -0.3233
 7606TIP3    H144233   2.458   1.272  15.218 -0.7355 -1.4306  0.2287
 7606TIP3    H244234   2.384   1.349  15.111  0.7025  0.4208  0.4994
 7607TIP3   OH244235   5.924   4.718  11.119 -0.5059  0.2644 -0.0578
 7607TIP3    H144236   5.840   4.672  11.114 -0.1405 -0.3072 -2.5670
 7607TIP3    H244237   5.925   4.774  11.041  2.1883 -1.1744 -1.1766
 7608TIP3   OH244238   6.136   2.802   3.100  0.8316 -0.0401 -0.7690
 7608TIP3    H144239   6.067   2.864   3.078 -0.1633 -0.6675  0.4805
 7608TIP3    H244240   6.171   2.774   3.015 -2.8667 -2.4006 -1.7498
 7609TIP3   OH244241   1.999   5.999  11.407  0.1247  0.0161  0.2864
 7609TIP3    H144242   2.045   6.073  11.446 -0.6976 -0.4500  2.2668
 7609TIP3    H244243   1.949   6.037  11.335  1.9326  0.8696 -0.5734
 7610TIP3   OH244244   5.163   2.920   4.199  0.0558 -0.1365  0.2478
 7610TIP3    H144245   5.256   2.907   4.218 -0.3660 -3.0660  0.8698
 7610TIP3    H244246   5.158   2.922   4.104  0.6683 -1.5013  0.1539
 7611TIP3   OH244247   7.181   5.133   9.323  0.5019  0.2017  0.6798
 7611TIP3    H144248   7.181   5.215   9.372  2.5466  0.4186  0.4360
 7611TIP3    H244249   7.267   5.131   9.280 -0.7293 -0.5334 -1.9631
 7612TIP3   OH244250   4.910   7.204  12.020 -0.5723  0.1900 -0.5041
 7612TIP3    H144251   4.973   7.169  12.083 -0.0607  0.0730 -1.0718
 7612TIP3    H244252   4.877   7.126  11.974 -1.0710  0.2585 -0.2635
 7613TIP3   OH244253   3.536   5.571  14.906 -0.2657 -0.7954  0.0998
 7613TIP3    H144254   3.625   5.539  14.891  0.0681  0.4131 -0.5779
 7613TIP3    H244255   3.546   5.663  14.928 -1.3757 -0.5021 -0.5101
 7614TIP3   OH244256   3.458   0.169   3.884 -0.3667 -0.0252 -0.1749
 7614TIP3    H144257   3.544   0.157   3.843  0.4702  1.2408  1.0885
 7614TIP3    H244258   3.466   0.252   3.932 -1.9673 -0.3785  0.7738
 7615TIP3   OH244259   4.502   1.389  13.807 -0.1141  0.3752 -0.2731
 7615TIP3    H144260   4.451   1.321  13.764 -0.6320  0.3238  0.4018
 7615TIP3    H244261   4.593   1.368  13.787 -0.2693 -0.5061 -0.0965
 7616TIP3   OH244262   5.830   2.653   3.243 -0.2541  0.4707 -0.0075
 7616TIP3    H144263   5.816   2.571   3.291  0.7646 -0.2164 -0.8271
 7616TIP3    H244264   5.883   2.706   3.302 -1.8872  1.0448  1.0125
 7617TIP3   OH244265   4.108   2.033   9.640  0.0353  0.0577  0.6262
 7617TIP3    H144266   4.202   2.035   9.627  0.1851 -0.9076  1.4512
 7617TIP3    H244267   4.075   1.969   9.576 -0.3088  1.6729 -0.8918
 7618TIP3   OH244268   5.931   7.105  11.139  0.0692  0.0852 -0.2595
 7618TIP3    H144269   5.905   7.162  11.211 -0.0772 -0.9462  0.5315
 7618TIP3    H244270   5.850   7.065  11.109  0.3747 -1.1721  0.4981
 7619TIP3   OH244271   5.683   5.167   9.807  0.2456  0.7517  0.2283
 7619TIP3    H144272   5.609   5.224   9.785  0.0730  0.1513 -0.8293
 7619TIP3    H244273   5.735   5.218   9.870 -0.7801  1.3907  0.5804
 7620TIP3   OH244274   0.772   2.437  14.039 -0.0190  0.3020 -0.2596
 7620TIP3    H144275   0.719   2.441  14.119 -0.5953 -0.1541 -0.6097
 7620TIP3    H244276   0.782   2.344  14.021  1.3812  0.3675  0.0930
 7621TIP3   OH244277   1.964   5.674  10.577 -0.4342  0.3627 -0.2133
 7621TIP3    H144278   1.876   5.647  10.604 -0.7233  0.5984 -0.8760
 7621TIP3    H244279   2.007   5.701  10.658 -0.5049 -1.0379  0.3152
 7622TIP3   OH244280   3.211   3.259   0.470 -0.0380 -0.0753  0.3461
 7622TIP3    H144281   3.246   3.232   0.555 -0.0148 -0.8208  0.1031
 7622TIP3    H244282   3.202   3.178   0.420  0.5518  0.4112 -0.5911
 7623TIP3   OH244283   5.035   6.168  13.339  0.1853  0.1426 -0.5448
 7623TIP3    H144284   4.941   6.156  13.326 -0.2143  1.4794  0.8295
 7623TIP3    H244285   5.075   6.110  13.274 -1.5558 -1.4424 -0.3119
 7624TIP3   OH244286   3.455   2.374   0.273 -0.2661 -0.0183  0.1177
 7624TIP3    H144287   3.531   2.412   0.229  0.7418 -1.7765  0.2226
 7624TIP3    H244288   3.456   2.410   0.361  0.8093 -0.4428  0.2957
 7625TIP3   OH244289   2.726   6.685  14.977  0.7340 -0.1130  0.3252
 7625TIP3    H144290   2.653   6.747  14.971  1.1456  0.3270 -0.2126
 7625TIP3    H244291   2.804   6.740  14.984  1.1366 -0.5516 -0.5210
 7626TIP3   OH244292   3.359   1.418   0.447 -0.2436  1.5744  0.3387
 7626TIP3    H144293   3.357   1.429   0.542  1.2472  1.7297  0.3815
 7626TIP3    H244294   3.452   1.415   0.426 -0.5540  0.2698 -0.9786
 7627TIP3   OH244295   4.568   2.376  12.665  0.6695  0.5407  0.5339
 7627TIP3    H144296   4.495   2.438  12.658  0.4933  0.6953  2.9262
 7627TIP3    H244297   4.598   2.364  12.575 -2.2909  0.4736 -0.5678
 7628TIP3   OH244298   4.632   3.532  13.018  0.0566 -0.3624  0.3918
 7628TIP3    H144299   4.574   3.517  12.943  1.6971 -0.5150 -0.9160
 7628TIP3    H244300   4.579   3.583  13.079 -0.6655  1.8460 -1.8831
 7629TIP3   OH244301   5.786   3.644  10.258 -0.2417  0.4283  0.0014
 7629TIP3    H144302   5.699   3.646  10.300 -0.0774  0.5839  0.3399
 7629TIP3    H244303   5.795   3.730  10.216 -0.6457  0.0614 -0.8574
 7630TIP3   OH244304   1.044   2.245  11.493  0.1682  0.5217 -0.3687
 7630TIP3    H144305   1.068   2.325  11.540  0.4394  0.3143 -0.1459
 7630TIP3    H244306   1.127   2.213  11.458  0.1952 -0.0956  0.2312
 7631TIP3   OH244307   1.689   5.076  11.417 -0.2048  0.0590  0.5669
 7631TIP3    H144308   1.696   5.164  11.454 -0.5802 -0.1495  1.1427
 7631TIP3    H244309   1.770   5.032  11.441  0.1535  0.3623 -0.0512
 7632TIP3   OH244310   2.030   5.756   0.817  0.2923 -0.0987  0.0654
 7632TIP3    H144311   2.110   5.704   0.825  0.7170  0.5399  0.1130
 7632TIP3    H244312   2.052   5.840   0.859 -0.6461 -0.1728  0.7484
 7633TIP3   OH244313   5.104   1.723  14.207  0.5950  0.0411 -0.3560
 7633TIP3    H144314   5.176   1.713  14.269  0.6857  1.0285 -0.2928
 7633TIP3    H244315   5.145   1.761  14.129  0.5462 -1.4571 -1.1660
 7634TIP3   OH244316   0.537   3.456  13.762  0.2235 -0.4946 -0.1027
 7634TIP3    H144317   0.547   3.538  13.713  0.0304  0.3726  1.2523
 7634TIP3    H244318   0.461   3.470  13.818  0.6048 -1.3413  0.6564
 7635TIP3   OH244319   0.653   1.070   9.978  0.2440 -0.6584  0.0104
 7635TIP3    H144320   0.681   1.072  10.069 -0.2657 -0.2393  0.1577
 7635TIP3    H244321   0.680   0.983   9.947  0.6981 -0.6863  0.4631
 7636TIP3   OH244322   3.797   1.917  12.202  0.2433 -0.4979 -0.2001
 7636TIP3    H144323   3.871   1.951  12.151  0.6019 -0.7997  0.1190
 7636TIP3    H244324   3.837   1.879  12.280 -0.3778  0.9379  0.8520
 7637TIP3   OH244325   2.190   3.113   0.118  0.5235  0.4254  0.3027
 7637TIP3    H144326   2.095   3.102   0.110  0.6557  0.0560 -0.9837
 7637TIP3    H244327   2.209   3.097   0.211 -0.7760  1.4091  0.7651
 7638TIP3   OH244328   3.921   1.331  14.061  0.0010 -0.6582 -0.0913
 7638TIP3    H144329   3.976   1.407  14.046 -0.5610  0.1285  1.5008
 7638TIP3    H244330   3.898   1.299  13.974  0.8791  0.5310 -0.7786
 7639TIP3   OH244331   1.851   5.925   3.556  0.0867  0.4303 -0.1212
 7639TIP3    H144332   1.765   5.932   3.514 -0.5861  2.8139  1.4661
 7639TIP3    H244333   1.912   5.917   3.483 -1.3847 -0.2973 -1.3266
 7640TIP3   OH244334   0.384   4.984   0.859 -0.0904 -0.4953 -0.1950
 7640TIP3    H144335   0.357   5.023   0.943  1.6255  3.5778 -1.3169
 7640TIP3    H244336   0.479   4.983   0.863 -0.0230 -2.0396 -1.4345
 7641TIP3   OH244337   0.423   0.789  12.372  0.3421 -0.2514 -0.7108
 7641TIP3    H144338   0.440   0.735  12.449  1.6413  2.4556  1.0198
 7641TIP3    H244339   0.328   0.789  12.364  0.2426 -1.5921  0.0967
 7642TIP3   OH244340   0.969   0.745   2.226 -0.5265  0.0651  0.5975
 7642TIP3    H144341   0.925   0.756   2.142  1.8896  0.6671 -0.6931
 7642TIP3    H244342   0.917   0.797   2.288 -2.7145 -0.8969 -0.3390
 7643TIP3   OH244343   3.888   7.109   0.281  0.0896 -0.0355 -0.1812
 7643TIP3    H144344   3.861   7.109   0.189  3.5652  3.0749 -1.4475
 7643TIP3    H244345   3.983   7.120   0.278  0.5293 -1.0991  3.8582
 7644TIP3   OH244346   3.555   5.779  10.915  0.2623 -0.6937 -0.3062
 7644TIP3    H144347   3.523   5.869  10.912  0.2814 -0.6711  0.0575
 7644TIP3    H244348   3.606   5.768  10.835  1.8434  0.2271  0.5357
 7645TIP3   OH244349   6.948   7.172   9.435 -0.0881 -0.3163 -0.5683
 7645TIP3    H144350   6.926   7.228   9.510 -0.4110 -1.8545  0.5370
 7645TIP3    H244351   6.984   7.232   9.370  1.6212  0.8908  1.3782
 7646TIP3   OH244352   0.667   4.978   2.610 -0.0130 -0.0069 -0.1895
 7646TIP3    H144353   0.614   4.899   2.622  1.7466 -1.2891 -0.4460
 7646TIP3    H244354   0.650   5.005   2.520 -0.3193 -0.3197 -0.2286
 7647TIP3   OH244355   1.122   4.071   1.159  0.7643 -0.2447 -0.6023
 7647TIP3    H144356   1.115   4.099   1.068  0.9866  0.2236 -0.4819
 7647TIP3    H244357   1.036   4.034   1.180  1.1375 -1.6224 -1.4024
 7648TIP3   OH244358   1.134   6.130  12.415  0.1290 -0.6476 -0.5118
 7648TIP3    H144359   1.188   6.138  12.337 -0.7459  0.3372 -1.0431
 7648TIP3    H244360   1.044   6.142  12.384 -0.2628 -0.4744  0.6102
 7649TIP3   OH244361   5.054   2.477  15.307 -0.1986 -0.4233 -0.0565
 7649TIP3    H144362   5.048   2.502  15.215 -2.6496  3.4975  0.9123
 7649TIP3    H244363   5.135   2.518  15.338 -0.8209  0.7126  0.0997
 7650TIP3   OH244364   6.951   2.243   3.124 -0.2906  0.6828 -0.2410
 7650TIP3    H144365   6.978   2.227   3.214 -0.4977 -0.3053 -0.3399
 7650TIP3    H244366   7.029   2.278   3.082 -0.0334  0.6531  0.1989
 7651TIP3   OH244367   0.071   7.003  13.490 -0.1736 -0.2111 -0.0642
 7651TIP3    H144368  -0.008   6.962  13.454 -0.2002  0.5863 -0.9407
 7651TIP3    H244369   0.110   7.049  13.416  1.2522 -0.7871  0.3030
 7652TIP3   OH244370   2.871   6.139  10.749  0.0594  0.2876  0.2263
 7652TIP3    H144371   2.912   6.220  10.721  2.2407 -0.9646 -0.4345
 7652TIP3    H244372   2.793   6.130  10.694  0.7052  1.0976 -0.8395
 7653TIP3   OH244373   6.120   4.298  12.442 -0.4708 -0.0348 -0.3322
 7653TIP3    H144374   6.062   4.361  12.483 -2.3190 -0.9436 -1.4125
 7653TIP3    H244375   6.061   4.234  12.402  1.2055 -0.0281 -3.0679
 7654TIP3   OH244376   4.339   0.952  12.458  0.3051 -0.1116 -0.0575
 7654TIP3    H144377   4.348   1.026  12.519  0.3455 -0.1447 -0.0233
 7654TIP3    H244378   4.307   0.992  12.377 -0.1368 -0.1204  0.1085
 7655TIP3   OH244379   1.027   6.562  15.093 -0.2350  0.0862  0.1407
 7655TIP3    H144380   0.950   6.539  15.042  0.2095 -1.3438  0.0646
 7655TIP3    H244381   0.998   6.557  15.184 -0.8107  1.8287  0.0868
 7656TIP3   OH244382   0.949   3.200   2.519  0.0078 -0.3226 -0.2083
 7656TIP3    H144383   1.012   3.159   2.577 -0.2459 -0.6341 -0.1476
 7656TIP3    H244384   0.943   3.141   2.444  1.1583  0.6323 -1.0795
 7657TIP3   OH244385   1.254   3.176  14.649  0.3912  0.2364  0.1741
 7657TIP3    H144386   1.270   3.085  14.672 -0.9987 -0.1242 -0.1930
 7657TIP3    H244387   1.161   3.189  14.666  0.9710  2.2232  2.2732
 7658TIP3   OH244388   2.822   4.952  13.636  0.4988  0.3514  0.1491
 7658TIP3    H144389   2.735   4.932  13.602 -0.5770  2.5474  1.4451
 7658TIP3    H244390   2.869   4.987  13.561  0.2425 -0.6897 -0.5219
 7659TIP3   OH244391   2.639   3.181  12.964 -0.2378  0.1860 -0.2282
 7659TIP3    H144392   2.644   3.216  13.053  1.4854 -0.6293  0.0432
 7659TIP3    H244393   2.730   3.183  12.933 -0.5908 -0.9399 -1.4114
 7660TIP3   OH244394   1.391   0.618   1.212  0.3185 -0.1493 -0.4031
 7660TIP3    H144395   1.447   0.565   1.268  0.5683 -0.9897 -1.4159
 7660TIP3    H244396   1.316   0.561   1.191  0.1730  0.1860 -0.8209
 7661TIP3   OH244397   2.447   0.893   0.398  0.1300 -0.1848 -0.0309
 7661TIP3    H144398   2.413   0.813   0.357 -0.8200  1.1225 -1.9505
 7661TIP3    H244399   2.542   0.879   0.402  0.0149 -1.2817 -0.6482
 7662TIP3   OH244400   3.451   2.648   1.084  0.2420 -0.0301  0.2669
 7662TIP3    H144401   3.457   2.582   1.152 -1.4241  0.1515  0.6379
 7662TIP3    H244402   3.386   2.613   1.022  1.1993  0.1278 -0.8671
 7663TIP3   OH244403   3.460   4.241  10.851 -0.2203 -0.4901  0.3801
 7663TIP3    H144404   3.407   4.309  10.894 -2.3700 -1.4649 -0.5496
 7663TIP3    H244405   3.494   4.188  10.923 -1.1075 -0.2336  1.0162
 7664TIP3   OH244406   0.048   4.507   9.990 -0.1866 -0.0573 -0.2414
 7664TIP3    H144407  -0.040   4.543   9.999 -0.2553 -0.1185 -0.6658
 7664TIP3    H244408   0.037   4.413  10.002 -0.1825 -0.0665 -0.3060
 7665TIP3   OH244409   1.576   0.579  14.924 -0.0670 -0.9208 -0.3472
 7665TIP3    H144410   1.561   0.486  14.939 -0.2730 -0.4313  3.4975
 7665TIP3    H244411   1.494   0.621  14.951  0.1423  0.4381 -1.6835
 7666TIP3   OH244412   6.473   1.175  13.427 -0.0200 -0.0238 -0.1297
 7666TIP3    H144413   6.473   1.264  13.394  0.5264  0.0741  0.1100
 7666TIP3    H244414   6.552   1.170  13.482 -0.6134 -0.3353  0.7188
 7667TIP3   OH244415   4.480   4.762   0.281  0.3550  0.0768 -0.0266
 7667TIP3    H144416   4.559   4.815   0.293 -0.4606  1.9477 -2.1646
 7667TIP3    H244417   4.408   4.824   0.287 -0.6549 -0.7103 -2.6041
 7668TIP3   OH244418   0.594   2.487  10.607 -0.9420  0.6036  0.6334
 7668TIP3    H144419   0.659   2.556  10.610 -0.2921  0.1515 -1.2065
 7668TIP3    H244420   0.511   2.530  10.628 -0.7119  2.2125 -1.4626
 7669TIP3   OH244421   3.804   2.290  12.296 -0.1284 -0.6810 -0.0349
 7669TIP3    H144422   3.834   2.355  12.359 -0.0507 -1.0270  0.2845
 7669TIP3    H244423   3.876   2.227  12.288 -1.4536 -2.6498  2.2621
 7670TIP3   OH244424   6.319   4.978   0.894 -0.3646 -0.1254 -0.5987
 7670TIP3    H144425   6.327   4.888   0.864 -2.4105 -0.8707  0.8250
 7670TIP3    H244426   6.408   5.007   0.909  0.4545 -1.2499 -2.8663
 7671TIP3   OH244427   1.571   3.739   0.718 -0.3549 -0.2983 -0.1479
 7671TIP3    H144428   1.662   3.714   0.701 -0.1549  1.0675 -1.2600
 7671TIP3    H244429   1.550   3.800   0.648 -2.1133 -0.5205  0.1577
 7672TIP3   OH244430   6.388   3.045   3.005  0.1713 -0.6657 -0.0057
 7672TIP3    H144431   6.424   2.958   2.991  2.1288  0.6106 -5.1190
 7672TIP3    H244432   6.463   3.099   3.030 -0.4024  0.0909  0.1549
 7673TIP3   OH244433   6.125   0.711   0.116 -0.4724  0.0420  0.1956
 7673TIP3    H144434   6.206   0.667   0.140 -0.9831 -1.0276  0.0170
 7673TIP3    H244435   6.147   0.762   0.038  0.5124  1.3739  1.3153
 7674TIP3   OH244436   3.042   2.350   4.131  0.1379  0.2343 -0.1821
 7674TIP3    H144437   2.976   2.419   4.142  0.7076  0.8924 -0.7696
 7674TIP3    H244438   3.119   2.383   4.177  0.3735 -0.0803 -0.3477
 7675TIP3   OH244439   1.188   5.720  13.250  0.0096  0.0555  0.4684
 7675TIP3    H144440   1.116   5.778  13.228  0.1061  0.1389  0.3661
 7675TIP3    H244441   1.166   5.637  13.206 -1.3068 -0.7678  2.5389
 7676TIP3   OH244442   3.031   1.738  12.174 -1.0992 -0.3411 -0.0112
 7676TIP3    H144443   2.961   1.804  12.177  0.2219  1.2492 -1.6117
 7676TIP3    H244444   3.038   1.715  12.082  0.2228 -0.7362  0.1696
 7677TIP3   OH244445   3.398   7.085  10.075 -0.2745  0.1817  0.1933
 7677TIP3    H144446   3.400   7.165  10.024  0.8311 -0.1167 -0.2531
 7677TIP3    H244447   3.320   7.039  10.044 -0.5573  0.7868 -0.0040
 7678TIP3   OH244448   2.135   4.959   0.191 -0.9411  0.1843  0.0238
 7678TIP3    H144449   2.158   4.959   0.098 -0.5187  2.3210  0.0567
 7678TIP3    H244450   2.051   4.915   0.196 -0.5505 -0.7352 -1.2461
 7679TIP3   OH244451   0.601   6.048  12.238 -0.1060  0.0895  0.5803
 7679TIP3    H144452   0.666   6.049  12.167 -0.4394 -0.9047  0.2498
 7679TIP3    H244453   0.518   6.061  12.193 -0.2507  0.1784  0.8754
 7680TIP3   OH244454   0.788   6.096  10.034  0.0364  0.4664 -0.1897
 7680TIP3    H144455   0.740   6.169   9.994  0.2689  0.7347  0.0069
 7680TIP3    H244456   0.872   6.135  10.060 -0.7588  0.7618  2.1667
 7681TIP3   OH244457   1.867   7.058  11.750  0.3986 -0.0532 -0.1148
 7681TIP3    H144458   1.882   6.987  11.812  0.0511  2.1386  2.7228
 7681TIP3    H244459   1.779   7.090  11.771 -0.2808 -0.0239 -2.7006
 7682TIP3   OH244460   0.775   5.665  14.191 -0.6603 -0.5587  0.1287
 7682TIP3    H144461   0.748   5.573  14.184  0.7558 -0.9904  0.0057
 7682TIP3    H244462   0.824   5.669  14.273  1.4735 -0.5367 -1.0748
 7683TIP3   OH244463   3.415   1.095   4.682  0.0774  0.8207  0.2261
 7683TIP3    H144464   3.497   1.140   4.704  0.1392  0.9253 -0.2119
 7683TIP3    H244465   3.355   1.166   4.659 -0.8120  0.9349  2.6219
 7684TIP3   OH244466   2.265   0.188   1.822  0.1349 -0.5239 -0.0832
 7684TIP3    H144467   2.304   0.198   1.909 -0.7960 -0.7190  0.3749
 7684TIP3    H244468   2.188   0.134   1.837 -1.9752  2.1652 -0.4395
 7685TIP3   OH244469   0.797   6.741  14.358 -0.4807  0.9570 -0.2154
 7685TIP3    H144470   0.718   6.735  14.411  0.0026  1.8299  0.6489
 7685TIP3    H244471   0.772   6.706  14.273 -1.4040 -0.0629  0.4474
 7686TIP3   OH244472   3.379   3.770   0.235  0.8451  0.3835  0.1288
 7686TIP3    H144473   3.457   3.779   0.181  1.0918 -0.7370  0.2563
 7686TIP3    H244474   3.347   3.681   0.217 -0.1218  0.6532  0.4395
 7687TIP3   OH244475   0.018   5.926   2.218 -0.2009 -0.1120  0.0875
 7687TIP3    H144476  -0.069   5.951   2.248 -0.7152  0.4623 -1.7388
 7687TIP3    H244477   0.058   6.008   2.189  0.7756 -0.4424  0.4512
 7688TIP3   OH244478   7.051   0.571  11.255  0.4166 -0.1152  0.0603
 7688TIP3    H144479   7.126   0.540  11.306  0.9812  1.3957  0.2053
 7688TIP3    H244480   6.982   0.584  11.320  0.1945 -0.9830  0.0056
 7689TIP3   OH244481   0.875   3.616   1.072 -1.0296 -0.4710 -0.0206
 7689TIP3    H144482   0.859   3.521   1.072 -0.4004 -0.5899 -1.0762
 7689TIP3    H244483   0.790   3.655   1.052 -1.0394 -0.8809 -0.8222
 7690TIP3   OH244484   1.912   4.959  14.070 -0.0938  0.2505  0.2905
 7690TIP3    H144485   1.867   4.915  14.143  0.0187  0.0446  0.2365
 7690TIP3    H244486   1.937   5.044  14.106  0.6544 -0.1461  0.7532
 7691TIP3   OH244487   4.331   5.999   3.718 -0.0265 -0.5915  0.1547
 7691TIP3    H144488   4.374   6.022   3.636 -2.0739  0.7636 -0.6356
 7691TIP3    H244489   4.334   5.904   3.721 -1.0233 -0.7746 -2.2121
 7692TIP3   OH244490   6.301   4.659  13.294  0.0832 -0.5719  0.0575
 7692TIP3    H144491   6.393   4.667  13.268 -0.0309  1.8405  0.2186
 7692TIP3    H244492   6.253   4.706  13.227 -0.8325 -0.0266  1.0659
 7693TIP3   OH244493   6.872   4.880  13.129 -0.0922  0.0685 -0.1626
 7693TIP3    H144494   6.799   4.902  13.187  2.7185  1.0475  3.3644
 7693TIP3    H244495   6.907   4.799  13.165  1.7843  0.7078 -0.4731
 7694TIP3   OH244496   6.664   5.714   0.004  0.2343  0.2587 -0.0933
 7694TIP3    H144497   6.588   5.765   0.030  0.1137 -0.5084  1.1394
 7694TIP3    H244498   6.632   5.625  -0.005  1.1444 -0.2393  1.3124
 7695TIP3   OH244499   2.477   7.103   2.606 -0.0482  0.1921 -0.0752
 7695TIP3    H144500   2.473   7.108   2.511 -0.6412 -0.1414 -0.0735
 7695TIP3    H244501   2.457   7.011   2.626  0.9280  0.0555  0.3325
 7696TIP3   OH244502   4.334   3.621  14.487 -0.5398 -0.0450  0.1705
 7696TIP3    H144503   4.255   3.607  14.538  0.5980 -2.3677  1.4585
 7696TIP3    H244504   4.325   3.563  14.412 -0.0928 -0.3158  0.3205
 7697TIP3   OH244505   2.790   6.953  15.327  0.2221  0.1464  0.4696
 7697TIP3    H144506   2.870   6.904  15.308  0.4346  1.4742 -2.7581
 7697TIP3    H244507   2.820   7.030  15.375  0.5016 -0.5789  1.4852
 7698TIP3   OH244508   7.208   1.809  10.934 -0.0915  0.0943 -0.4658
 7698TIP3    H144509   7.128   1.793  10.884 -0.7053  0.0076  0.5121
 7698TIP3    H244510   7.188   1.774  11.021  1.1810 -0.3462 -0.3385
 7699TIP3   OH244511   1.825   5.821  15.006 -0.3783  0.2157 -0.0391
 7699TIP3    H144512   1.783   5.906  15.017 -3.0754 -1.2116  1.7938
 7699TIP3    H244513   1.849   5.794  15.094  3.2876  0.2654 -0.8586
 7700TIP3   OH244514   5.529   4.820  13.630 -0.6727  0.0726 -0.4675
 7700TIP3    H144515   5.517   4.795  13.538 -0.1036 -1.0718 -0.2520
 7700TIP3    H244516   5.601   4.883  13.628 -0.0268 -0.6598 -0.7194
 7701TIP3   OH244517   5.657   0.196  11.096  0.3579 -0.4526 -0.3611
 7701TIP3    H144518   5.588   0.262  11.107  1.1936  0.4483 -0.4346
 7701TIP3    H244519   5.613   0.123  11.051 -0.7834 -0.3131  0.4660
 7702TIP3   OH244520   1.786   3.377   1.802 -0.0006 -0.3622  0.2687
 7702TIP3    H144521   1.703   3.422   1.823  0.2693 -0.1200  0.8196
 7702TIP3    H244522   1.779   3.358   1.708 -0.1335  0.8264  0.0184
 7703TIP3   OH244523   1.584   5.589  14.091 -0.5966  0.5512 -0.2398
 7703TIP3    H144524   1.608   5.505  14.054 -0.3935  0.2825  0.4864
 7703TIP3    H244525   1.504   5.614  14.045 -0.1985  0.3633 -1.0456
 7704TIP3   OH244526   5.885   5.544   1.924 -0.2297 -1.3847  0.2802
 7704TIP3    H144527   5.859   5.610   1.860 -0.4099 -1.9450 -0.2315
 7704TIP3    H244528   5.808   5.535   1.981  0.6144  0.5911  1.8774
 7705TIP3   OH244529   0.209   2.478  10.448 -0.1997  0.2400  0.2280
 7705TIP3    H144530   0.266   2.498  10.373 -2.8406  3.0738 -1.2933
 7705TIP3    H244531   0.253   2.518  10.523 -0.6622  3.8410 -1.1823
 7706TIP3   OH244532   0.769   2.940   9.666  0.2657 -0.1092  0.3760
 7706TIP3    H144533   0.687   2.904   9.701  0.7904 -1.0165  0.7115
 7706TIP3    H244534   0.812   2.865   9.625  0.7454  0.4480 -0.1512
 7707TIP3   OH244535   3.009   4.980   9.697 -0.3228 -0.0722  0.7279
 7707TIP3    H144536   2.967   4.990   9.612 -0.8438  2.2469  1.1645
 7707TIP3    H244537   3.103   4.990   9.678 -0.3949 -0.0807  0.3511
 7708TIP3   OH244538   6.440   6.098   9.960 -0.1494  0.1933  0.1208
 7708TIP3    H144539   6.453   6.191   9.940 -2.3557  1.3830  3.3310
 7708TIP3    H244540   6.365   6.073   9.906 -0.0192  0.5000 -0.2093
 7709TIP3   OH244541   4.967   7.002   2.906 -0.4443 -0.0412 -0.6466
 7709TIP3    H144542   4.917   6.931   2.866  0.4202  0.1175 -2.0688
 7709TIP3    H244543   5.025   6.958   2.968  1.3429 -0.8593 -2.7634
 7710TIP3   OH244544   4.399   3.125   1.872 -0.6188 -0.1999 -0.5880
 7710TIP3    H144545   4.354   3.174   1.940  1.3377  0.1822  0.5341
 7710TIP3    H244546   4.406   3.036   1.907  0.1325 -0.0739 -0.3951
 7711TIP3   OH244547   0.959   6.837   3.771 -0.8729  0.1052 -0.1554
 7711TIP3    H144548   0.988   6.911   3.718  1.3090  0.4102  1.3396
 7711TIP3    H244549   1.025   6.769   3.756  0.3371  0.5007  2.6856
 7712TIP3   OH244550   3.909   6.158  12.978  0.1280 -0.0762 -0.3254
 7712TIP3    H144551   3.875   6.240  12.943  1.3227  0.3765 -0.4555
 7712TIP3    H244552   3.977   6.184  13.040  0.9705 -0.9738 -0.8453
 7713TIP3   OH244553   0.221   5.790  10.174 -0.0235  0.2661  0.2119
 7713TIP3    H144554   0.186   5.751  10.094 -1.1832  1.6750  0.0001
 7713TIP3    H244555   0.174   5.745  10.244  0.0481 -0.0549  0.0579
 7714TIP3   OH244556   5.562   6.184  13.434  0.1589 -0.0570  0.3442
 7714TIP3    H144557   5.593   6.094  13.439  1.0190  0.2827  1.6683
 7714TIP3    H244558   5.488   6.188  13.495 -0.0647  0.0576  0.0662
 7715TIP3   OH244559   1.314   2.782  12.231  0.2550 -0.0124  0.2186
 7715TIP3    H144560   1.234   2.772  12.282  0.6473 -0.9801  0.6496
 7715TIP3    H244561   1.354   2.863  12.264 -1.5351  1.6722 -1.4001
 7716TIP3   OH244562   6.263   2.945   0.873 -0.0224 -0.4446  0.4247
 7716TIP3    H144563   6.347   2.902   0.893 -0.6758 -1.6237  0.7533
 7716TIP3    H244564   6.198   2.876   0.887 -0.8342 -0.4358 -2.7581
 7717TIP3   OH244565   1.796   3.238  14.792 -0.4939 -0.1769 -0.0937
 7717TIP3    H144566   1.862   3.219  14.859  0.6581 -0.5316 -1.2965
 7717TIP3    H244567   1.834   3.204  14.711 -0.5990  2.6833 -1.4612
 7718TIP3   OH244568   2.633   3.045  11.871  0.1616  0.5844  0.1802
 7718TIP3    H144569   2.723   3.015  11.856 -0.4652 -2.2346  1.4687
 7718TIP3    H244570   2.596   2.981  11.931 -2.9873  1.1752 -0.9486
 7719TIP3   OH244571   0.587   3.583  11.835 -0.1593 -0.2684  0.2911
 7719TIP3    H144572   0.628   3.647  11.893 -0.7912 -1.5338  2.2580
 7719TIP3    H244573   0.640   3.504  11.847  0.5982 -0.1943 -2.0633
 7720TIP3   OH244574   6.581   4.632  13.227  0.3220  0.1635  0.2485
 7720TIP3    H144575   6.606   4.554  13.177  1.5174  0.4388  0.4004
 7720TIP3    H244576   6.662   4.680  13.239 -0.0472  0.4115  1.9337
 7721TIP3   OH244577   0.619   5.283  12.709 -0.0553  0.2242  0.0312
 7721TIP3    H144578   0.640   5.206  12.656 -1.2715  0.3791 -0.6935
 7721TIP3    H244579   0.698   5.337  12.703  1.4423 -1.6149  1.8305
 7722TIP3   OH244580   5.859   1.695   2.432 -0.4362 -0.2801 -0.8561
 7722TIP3    H144581   5.859   1.603   2.457 -0.7848 -0.2877 -0.8773
 7722TIP3    H244582   5.906   1.698   2.349 -0.1060 -0.3888 -0.6719
 7723TIP3   OH244583   2.572   3.522  14.540 -0.0756  0.0369  0.1222
 7723TIP3    H144584   2.655   3.482  14.564 -0.7642 -0.3828  1.9652
 7723TIP3    H244585   2.594   3.611  14.515  0.9261 -0.0807  0.5593
 7724TIP3   OH244586   5.632   2.456   9.876  0.2169  0.0913 -0.5108
 7724TIP3    H144587   5.611   2.417   9.960 -1.4708 -1.2615 -1.4990
 7724TIP3    H244588   5.722   2.428   9.858  0.5434  0.2841  0.7337
 7725TIP3   OH244589   3.077   5.564  12.262  0.0390  0.6144 -0.1837
 7725TIP3    H144590   3.048   5.512  12.186  1.6626 -0.2811 -0.2378
 7725TIP3    H244591   3.022   5.533  12.334  1.0004 -1.2677 -0.2038
 7726TIP3   OH244592   6.912   4.786  12.158 -0.3604  0.1297  0.7276
 7726TIP3    H144593   6.951   4.739  12.085 -1.7086 -1.4217  0.9424
 7726TIP3    H244594   6.831   4.823  12.123  0.8433  2.7648  0.4518
 7727TIP3   OH244595   2.765   6.329  12.998  0.5540  0.1167  0.1945
 7727TIP3    H144596   2.706   6.328  12.923 -0.7431  0.6718  1.1736
 7727TIP3    H244597   2.831   6.396  12.976 -0.1549  0.6973 -0.2010
 7728TIP3   OH244598   2.885   2.431   0.585 -0.2659  0.0988  0.2333
 7728TIP3    H144599   2.798   2.423   0.547  0.2291  2.7807 -1.8712
 7728TIP3    H244600   2.944   2.400   0.516  0.4998  1.0577  0.4209
 7729TIP3   OH244601   2.921   5.913  12.033 -0.3707 -0.1165 -0.1919
 7729TIP3    H144602   2.946   5.995  11.990 -0.1285 -0.2223 -0.2550
 7729TIP3    H244603   2.826   5.919  12.044 -0.0714  1.5391  2.5757
 7730TIP3   OH244604   5.847   1.940  12.712 -0.0504  0.0311 -0.1118
 7730TIP3    H144605   5.939   1.957  12.691  0.4947 -1.0258  1.2292
 7730TIP3    H244606   5.839   1.960  12.805 -1.2822  0.4424 -0.2851
 7731TIP3   OH244607   3.126   2.940  11.416  0.0706 -0.1864 -0.5024
 7731TIP3    H144608   3.205   2.967  11.369 -1.1300  3.1792 -0.8771
 7731TIP3    H244609   3.062   2.921  11.348  0.0442 -1.2614 -0.1936
 7732TIP3   OH244610   1.640   4.160   1.130  0.1888  0.7318 -0.0715
 7732TIP3    H144611   1.558   4.162   1.180 -0.6451 -0.8847 -1.2695
 7732TIP3    H244612   1.708   4.168   1.196 -0.9087  0.4780  1.1417
 7733TIP3   OH244613   4.915   6.815   0.206  0.0779  0.2027  0.6828
 7733TIP3    H144614   4.987   6.771   0.250  0.4120 -0.5722 -0.5864
 7733TIP3    H244615   4.910   6.773   0.120 -2.2005 -0.1250  0.8974
 7734TIP3   OH244616   1.598   2.638  14.630  1.3037 -0.2074 -0.2695
 7734TIP3    H144617   1.679   2.586  14.626  1.0614 -0.6285  0.1421
 7734TIP3    H244618   1.545   2.594  14.697 -0.3603 -1.5137 -2.3410
 7735TIP3   OH244619   3.105   5.152  11.095 -0.5475 -0.2777  0.3848
 7735TIP3    H144620   3.153   5.134  11.176 -0.6632 -1.3488  0.2383
 7735TIP3    H244621   3.165   5.205  11.043 -0.1320 -0.3001  0.8290
 7736TIP3   OH244622   0.962   2.113  12.024 -0.1116  0.1597 -0.3475
 7736TIP3    H144623   1.025   2.183  12.041 -1.1553  1.2413 -0.8188
 7736TIP3    H244624   0.897   2.153  11.966 -0.1498 -1.5152 -1.5384
 7737TIP3   OH244625   2.205   2.224   0.460  0.5196  0.1247 -0.3093
 7737TIP3    H144626   2.293   2.189   0.471  0.3196 -0.6047 -0.9742
 7737TIP3    H244627   2.187   2.269   0.542  1.7471  0.8242 -0.3852
 7738TIP3   OH244628   6.110   1.161  12.240 -0.1753  0.4851 -0.7363
 7738TIP3    H144629   6.022   1.123  12.233 -0.8375  1.8492 -0.1694
 7738TIP3    H244630   6.148   1.148  12.153 -0.3825 -1.3701 -0.5847
 7739TIP3   OH244631   1.447   6.380  13.016  0.3490  0.3082  0.1096
 7739TIP3    H144632   1.377   6.356  12.956 -0.2598 -3.1307  1.9332
 7739TIP3    H244633   1.526   6.343  12.977  0.3662  0.1231  0.3229
 7740TIP3   OH244634   6.783   6.764  11.060  0.0951  0.1231 -0.1145
 7740TIP3    H144635   6.860   6.715  11.029  1.5695  1.1951  1.6694
 7740TIP3    H244636   6.785   6.846  11.011 -1.7966 -1.0271 -2.3526
 7741TIP3   OH244637   6.408   2.296  14.676  0.2769 -0.0949 -0.0968
 7741TIP3    H144638   6.318   2.320  14.654 -0.3489 -0.0573  2.2885
 7741TIP3    H244639   6.453   2.380  14.686  0.1107 -0.0694  0.4614
 7742TIP3   OH244640   6.270   2.574  14.680 -1.0750  0.3021  0.6644
 7742TIP3    H144641   6.225   2.568  14.764 -0.8654  0.8041  0.8189
 7742TIP3    H244642   6.327   2.650  14.689  0.7955 -1.0571  0.9546
 7743TIP3   OH244643   4.392   0.819  13.236 -0.0430  0.4267  0.2359
 7743TIP3    H144644   4.470   0.873  13.247  0.3212 -0.2655  1.1747
 7743TIP3    H244645   4.415   0.757  13.166  0.1954  0.3123  0.4173
 7744TIP3   OH244646   2.255   2.860  10.945  0.7943 -0.0386 -0.1832
 7744TIP3    H144647   2.255   2.766  10.962  0.3146  0.4499  3.3009
 7744TIP3    H244648   2.181   2.894  10.997  1.2783  2.3195 -0.8943
 7745TIP3   OH244649   1.389   5.429   0.365  0.0320  0.7053 -0.2409
 7745TIP3    H144650   1.298   5.454   0.354 -0.0054  0.4507 -0.5414
 7745TIP3    H244651   1.392   5.384   0.450 -0.4619 -0.7758 -0.9626
 7746TIP3   OH244652   2.973   2.933  15.252 -0.0857  0.0660  0.0198
 7746TIP3    H144653   2.912   2.905  15.321 -0.5816  1.7694  0.3113
 7746TIP3    H244654   2.978   3.028  15.262  1.1196  0.1568 -1.2611
 7747TIP3   OH244655   5.042   3.677   4.620 -0.0613  0.0279 -0.2560
 7747TIP3    H144656   5.107   3.723   4.673 -0.8484  1.3624 -0.4082
 7747TIP3    H244657   5.023   3.737   4.548 -0.8113 -0.7163 -0.6978
 7748TIP3   OH244658   1.308   1.110  11.781 -0.1497  0.3438 -0.0383
 7748TIP3    H144659   1.269   1.166  11.849 -0.0139 -1.1269  1.2939
 7748TIP3    H244660   1.236   1.096  11.719 -0.3895  1.4026 -0.0229
 7749TIP3   OH244661   2.116   2.097  11.321 -0.0778  0.2346  0.5587
 7749TIP3    H144662   2.119   2.192  11.319  0.5305  0.2122  0.2644
 7749TIP3    H244663   2.033   2.076  11.365 -0.7247  0.8922 -0.3275
 7750TIP3   OH244664   4.919   0.180  15.068  0.3146  0.2170  0.1838
 7750TIP3    H144665   4.890   0.126  14.995  1.4697 -0.8572  0.4798
 7750TIP3    H244666   4.978   0.244  15.028  1.1981 -0.5723  0.1938
 7751TIP3   OH244667   2.330   1.966   0.510 -0.5912 -0.2174  0.0670
 7751TIP3    H144668   2.395   1.988   0.444 -0.8229  0.5782  0.0894
 7751TIP3    H244669   2.320   1.871   0.504  1.7215 -0.6019  1.1183
 7752TIP3   OH244670   0.784   0.133  14.400  0.1498 -0.1882  0.9261
 7752TIP3    H144671   0.713   0.151  14.461  1.2559  1.7714  1.7227
 7752TIP3    H244672   0.836   0.064  14.442 -0.2287 -0.3021  1.2112
 7753TIP3   OH244673   5.540   3.792  15.216  0.5256 -0.6092 -0.1596
 7753TIP3    H144674   5.568   3.876  15.252 -0.6127 -0.3446  0.1283
 7753TIP3    H244675   5.450   3.806  15.187  1.0422 -1.1251 -2.1547
 7754TIP3   OH244676   1.426   1.456  12.947  0.0594  0.0186  0.0198
 7754TIP3    H144677   1.506   1.403  12.952  0.9721  1.2105 -1.2750
 7754TIP3    H244678   1.405   1.477  13.038  0.8400 -0.8230  0.4117
 7755TIP3   OH244679   7.107   1.123  14.328  0.7295 -0.2073 -0.6491
 7755TIP3    H144680   7.037   1.058  14.328  1.1827 -0.7594 -2.6159
 7755TIP3    H244681   7.169   1.093  14.394 -0.7922  0.2499  1.0785
 7756TIP3   OH244682   1.921   5.080  14.987 -0.5038  0.1814 -0.1533
 7756TIP3    H144683   1.826   5.076  14.973 -0.7471  1.8488  0.8498
 7756TIP3    H244684   1.951   5.149  14.927 -0.3073  1.3534  1.2471
 7757TIP3   OH244685   0.571   2.177  11.449  0.2135 -0.1805  0.3621
 7757TIP3    H144686   0.652   2.224  11.432  0.4849 -0.8522 -0.2719
 7757TIP3    H244687   0.597   2.098  11.497 -0.2545  0.3626  1.5559
 7758TIP3   OH244688   6.164   3.837   5.296 -0.1714  0.6051  0.2638
 7758TIP3    H144689   6.084   3.785   5.305 -1.1062  2.1616  1.3536
 7758TIP3    H244690   6.223   3.781   5.245 -2.2690 -0.2000 -1.4460
 7759TIP3   OH244691   4.077   6.562  11.460 -0.3193 -0.0540 -0.1810
 7759TIP3    H144692   4.073   6.654  11.433  0.6782 -0.2069 -0.9174
 7759TIP3    H244693   4.023   6.558  11.539  0.9919  1.5396  0.8864
 7760TIP3   OH244694   6.269   2.083  12.088 -0.1006  0.5853  0.6082
 7760TIP3    H144695   6.210   2.079  12.014  0.7203 -1.7286 -0.0106
 7760TIP3    H244696   6.350   2.044  12.056  0.8246  1.0490  2.2594
 7761TIP3   OH244697   4.605   4.694  14.258  0.1471 -0.8369 -0.0947
 7761TIP3    H144698   4.694   4.713  14.289  0.4499  0.8295 -1.7781
 7761TIP3    H244699   4.562   4.779  14.254 -1.4270 -1.5764  0.3181
 7762TIP3   OH244700   4.857   0.811  15.020  0.0020  0.2032  0.2336
 7762TIP3    H144701   4.841   0.842  14.931 -0.5192  1.1749  0.6451
 7762TIP3    H244702   4.770   0.806  15.059  0.2831  0.5120  0.9170
 7763TIP3   OH244703   2.561   3.920   2.719 -0.5849  0.1825  0.2262
 7763TIP3    H144704   2.516   3.837   2.735 -0.7848  0.0712 -0.8956
 7763TIP3    H244705   2.640   3.915   2.773 -0.5249 -0.7907  0.0549
 7764TIP3   OH244706   3.389   4.701   5.540 -0.0862 -0.0275 -0.0994
 7764TIP3    H144707   3.437   4.621   5.561  0.1792  0.5380  1.6064
 7764TIP3    H244708   3.452   4.772   5.555 -0.4553  0.5525 -1.1470
 7765TIP3   OH244709   2.974   0.368   1.093  0.2210 -0.7590 -0.0551
 7765TIP3    H144710   2.990   0.462   1.096 -0.3972 -0.6755  0.8467
 7765TIP3    H244711   3.061   0.329   1.094  0.5637 -0.1790 -2.3566
 7766TIP3   OH244712   6.650   4.226  14.372 -0.0262 -0.3501  0.2373
 7766TIP3    H144713   6.625   4.147  14.323 -0.6660  0.3862 -0.6791
 7766TIP3    H244714   6.611   4.298  14.321  0.2540  0.5272  1.2382
 7767TIP3   OH244715   5.699   5.436  14.429  0.5075  0.0709  0.0554
 7767TIP3    H144716   5.614   5.393  14.432 -0.6307  2.2995  1.9822
 7767TIP3    H244717   5.720   5.454  14.521  3.2998 -0.7512 -0.3142
 7768TIP3   OH244718   7.190   5.903  11.858  0.4543 -0.2131 -0.4049
 7768TIP3    H144719   7.202   5.949  11.776 -0.0494  3.6406  1.4494
 7768TIP3    H244720   7.097   5.882  11.860  0.1579  1.0138 -0.2708
 7769TIP3   OH244721   4.206   5.381  10.185  0.3744 -0.1759 -0.3314
 7769TIP3    H144722   4.224   5.474  10.199 -0.0438 -0.1812  0.3157
 7769TIP3    H244723   4.292   5.339  10.189  0.6958  0.3052 -1.7509
 7770TIP3   OH244724   5.816   5.382  12.012  0.7452 -0.5179 -0.5620
 7770TIP3    H144725   5.771   5.425  11.939  0.1855  2.3670  1.3054
 7770TIP3    H244726   5.745   5.357  12.072  1.3491 -0.0769  0.3544
 7771TIP3   OH244727   1.706   6.594  13.065  0.7948 -0.4071  0.5605
 7771TIP3    H144728   1.642   6.538  13.109  0.5649 -2.4207 -2.0960
 7771TIP3    H244729   1.791   6.560  13.094  0.6533 -2.0816 -0.8627
 7772TIP3   OH244730   1.136   2.893   0.365 -0.1142  1.0044 -0.3667
 7772TIP3    H144731   1.098   2.949   0.297  1.7298  2.2881 -0.4181
 7772TIP3    H244732   1.136   2.806   0.326 -1.8795  1.1541 -0.7912
 7773TIP3   OH244733   2.131   3.469  14.847 -0.1928  0.2598  0.8105
 7773TIP3    H144734   2.199   3.535  14.863 -0.0484  0.2650  0.1970
 7773TIP3    H244735   2.173   3.386  14.870 -0.1535  0.3132  0.9353
 7774TIP3   OH244736   2.157   3.367  13.297  0.2207 -0.1701 -0.6293
 7774TIP3    H144737   2.127   3.403  13.380 -1.1609  1.9638 -1.9546
 7774TIP3    H244738   2.096   3.296  13.277 -0.4292  0.3648 -0.5649
 7775TIP3   OH244739   4.973   4.370  14.170 -0.5843  0.1794  0.1105
 7775TIP3    H144740   4.974   4.366  14.075  0.4281  1.3648  0.0403
 7775TIP3    H244741   4.888   4.334  14.195 -1.7275  1.6756 -1.3689
 7776TIP3   OH244742   0.045   3.668   0.559 -0.3825  0.7050  0.1606
 7776TIP3    H144743   0.017   3.727   0.630 -1.9568  0.9873 -0.6427
 7776TIP3    H244744   0.124   3.709   0.524 -0.5770  1.5042  0.6224
 7777TIP3   OH244745   3.712   5.771  10.266  0.5334 -0.0528 -0.0161
 7777TIP3    H144746   3.623   5.744  10.290  0.2795  0.5074 -0.3057
 7777TIP3    H244747   3.702   5.816  10.182  1.2009 -0.6263 -0.4172
 7778TIP3   OH244748   4.821   2.208  12.137  0.3843 -0.3468 -0.6719
 7778TIP3    H144749   4.825   2.298  12.104  0.4425 -1.3233 -3.5562
 7778TIP3    H244750   4.871   2.211  12.219  0.0165  2.2996 -0.4270
 7779TIP3   OH244751   3.917   0.983  13.905  0.0179  0.2793  0.1052
 7779TIP3    H144752   3.896   0.964  13.814  1.4555  1.9263 -0.6093
 7779TIP3    H244753   4.012   0.974  13.911 -0.2935 -4.5299  2.6599
 7780TIP3   OH244754   4.146   4.155   9.859 -0.3071 -0.0865 -0.2359
 7780TIP3    H144755   4.197   4.076   9.875 -0.2100  0.4248  2.4147
 7780TIP3    H244756   4.055   4.125   9.861 -0.2296 -0.3661 -0.8237
 7781TIP3   OH244757   0.140   0.022  14.052  0.1418  0.3152 -0.6171
 7781TIP3    H144758   0.226   0.003  14.015  0.1673 -0.2083 -0.2822
 7781TIP3    H244759   0.110   0.099  14.003  0.1856 -0.3519 -1.7255
 7782TIP3   OH244760   1.103   2.724  10.536 -0.1665 -0.6180 -0.2721
 7782TIP3    H144761   1.136   2.638  10.563  0.8061  0.0069  0.5904
 7782TIP3    H244762   1.181   2.777  10.523 -0.7549  0.1250 -0.9062
 7783TIP3   OH244763   5.519   2.986  14.269  0.0811 -0.3043  0.3771
 7783TIP3    H144764   5.609   3.018  14.275  0.0712  0.1829 -1.5299
 7783TIP3    H244765   5.526   2.903  14.221 -0.5770  0.2957 -0.7868
 7784TIP3   OH244766   6.781   1.129   3.963  0.1588 -0.2519 -0.0071
 7784TIP3    H144767   6.742   1.216   3.952  0.9108 -0.0516 -1.1058
 7784TIP3    H244768   6.801   1.125   4.057 -2.3572 -0.3162  0.6083
 7785TIP3   OH244769   5.672   3.422   4.468  1.0190  0.4743  0.1155
 7785TIP3    H144770   5.757   3.399   4.429  0.5615 -0.9827 -0.0898
 7785TIP3    H244771   5.653   3.509   4.434  2.1636  0.5857 -0.2933
 7786TIP3   OH244772   4.939   3.796  11.726  0.1789  0.2359  0.1501
 7786TIP3    H144773   4.890   3.714  11.719  2.5468 -1.2067 -0.2353
 7786TIP3    H244774   4.907   3.836  11.807  0.7958 -2.3539  1.7812
 7787TIP3   OH244775   4.426   4.616   3.281  0.2560  0.4396 -0.0530
 7787TIP3    H144776   4.454   4.573   3.200 -0.8260 -0.5350  0.0643
 7787TIP3    H244777   4.440   4.550   3.349 -0.1375  0.7609  0.3463
 7788TIP3   OH244778   5.103   3.100   1.729 -0.4085  0.0303 -0.0022
 7788TIP3    H144779   5.015   3.137   1.722  0.1491  1.6841  1.0503
 7788TIP3    H244780   5.123   3.106   1.823  0.7888 -0.4342 -0.2155
 7789TIP3   OH244781   3.505   3.075  14.090 -0.2179 -0.2513 -0.2131
 7789TIP3    H144782   3.465   2.996  14.127  0.5724 -0.4190  0.3288
 7789TIP3    H244783   3.508   3.137  14.163 -0.2444  0.0491 -0.4629
 7790TIP3   OH244784   2.702   7.040  10.476 -0.2159 -0.0935  0.6585
 7790TIP3    H144785   2.688   7.122  10.523 -0.5235 -0.1384  0.6449
 7790TIP3    H244786   2.795   7.022  10.486 -0.4277 -0.5460  1.9866
 7791TIP3   OH244787   1.134   6.858   2.542  0.2852 -0.0322  0.0538
 7791TIP3    H144788   1.175   6.921   2.601  1.3081 -1.4182  0.8981
 7791TIP3    H244789   1.048   6.841   2.582  0.7420 -0.5282  0.8401
 7792TIP3   OH244790   4.246   6.854   2.966  0.4422 -0.1195 -0.0695
 7792TIP3    H144791   4.324   6.881   2.919  1.0810 -0.8018  0.5523
 7792TIP3    H244792   4.174   6.900   2.924  0.9941 -0.6190 -1.6277
 7793TIP3   OH244793   2.334   1.323   0.854 -0.0302  0.2671  0.0991
 7793TIP3    H144794   2.249   1.301   0.893 -0.7480  1.4867 -0.6830
 7793TIP3    H244795   2.379   1.372   0.922 -0.3148  0.3844  0.2072
 7794TIP3   OH244796   7.021   6.953   2.217  0.3791 -0.7046 -0.0282
 7794TIP3    H144797   7.089   6.898   2.255  1.2047 -0.1219 -0.6175
 7794TIP3    H244798   7.001   7.017   2.286 -0.5171 -1.6493  0.6217
 7795TIP3   OH244799   3.381   3.390   0.814 -0.0797  1.0158  0.3816
 7795TIP3    H144800   3.420   3.378   0.727 -0.6935 -0.8430  0.3237
 7795TIP3    H244801   3.455   3.414   0.870  0.9989 -1.3225  0.0512
 7796TIP3   OH244802   6.930   5.333  11.513 -0.3866  0.2276  0.4780
 7796TIP3    H144803   6.841   5.303  11.493  0.3421 -0.7971 -1.5226
 7796TIP3    H244804   6.984   5.254  11.507  0.7315  0.9037  1.2882
 7797TIP3   OH244805   5.015   4.224  15.149 -0.2031  0.2089 -0.6293
 7797TIP3    H144806   4.972   4.149  15.108 -1.3159  0.5216 -0.0838
 7797TIP3    H244807   5.019   4.290  15.080  0.3116 -0.1742 -0.9655
 7798TIP3   OH244808   4.486   4.132   2.730 -0.2946 -0.4353 -0.5388
 7798TIP3    H144809   4.552   4.073   2.694  2.0792  1.4557  0.4664
 7798TIP3    H244810   4.403   4.086   2.717  1.3412 -3.6907 -0.3740
 7799TIP3   OH244811   6.056   5.477   3.274  0.1859  0.1238 -0.4702
 7799TIP3    H144812   6.077   5.568   3.252  0.7278 -0.0577 -0.7230
 7799TIP3    H244813   6.108   5.425   3.213  0.7407 -0.3711  0.4002
 7800TIP3   OH244814   6.110   6.373  15.234  0.3020 -0.0194  0.4864
 7800TIP3    H144815   6.135   6.308  15.299  0.4570  0.7768  1.2478
 7800TIP3    H244816   6.156   6.346  15.154  0.4813 -0.7521  0.8275
 7801TIP3   OH244817   1.679   0.816  13.032  0.4147 -0.3727  0.2745
 7801TIP3    H144818   1.663   0.768  12.950  1.4130 -1.0412  0.4598
 7801TIP3    H244819   1.626   0.771  13.097  1.7937 -1.6421  0.5725
 7802TIP3   OH244820   5.785   5.731  14.933  0.2000 -0.1159 -0.1431
 7802TIP3    H144821   5.709   5.692  14.976  0.9499 -0.2405  1.1114
 7802TIP3    H244822   5.859   5.683  14.968  1.1178  1.9963  0.9782
 7803TIP3   OH244823   4.399   0.716  14.439  0.8360  0.3168  0.3336
 7803TIP3    H144824   4.339   0.765  14.495  0.0862 -0.7849  0.5217
 7803TIP3    H244825   4.343   0.670  14.377  1.2288 -2.5248  1.9109
 7804TIP3   OH244826   0.622   7.144  15.258  0.0281 -0.3365  0.0917
 7804TIP3    H144827   0.685   7.154  15.186  0.4951  0.9763  0.6621
 7804TIP3    H244828   0.658   7.073  15.311  0.6990 -0.0353  0.0542
 7805TIP3   OH244829   4.963   2.743  10.917  0.7487 -0.3312 -0.6183
 7805TIP3    H144830   4.881   2.787  10.896 -1.2083 -3.6646 -0.6928
 7805TIP3    H244831   4.943   2.689  10.994  3.4878  0.2132  0.6030
 7806TIP3   OH244832   6.327   1.288  13.755  0.5686 -0.2640  0.2687
 7806TIP3    H144833   6.279   1.291  13.672  2.2386  1.1451 -0.7216
 7806TIP3    H244834   6.418   1.304  13.730  0.9068  1.8857  2.5087
 7807TIP3   OH244835   2.457   6.634  11.507  0.2663 -0.3725  0.2834
 7807TIP3    H144836   2.472   6.572  11.579 -2.1297  0.4192  1.5737
 7807TIP3    H244837   2.509   6.710  11.529  0.1930 -0.4558  0.7462
 7808TIP3   OH244838   4.893   1.698  13.417  0.1459  0.4100  0.1599
 7808TIP3    H144839   4.893   1.790  13.444  2.6837  0.3722  0.4626
 7808TIP3    H244840   4.985   1.673  13.412 -0.3501 -3.0445  3.2981
 7809TIP3   OH244841   3.316   6.056  14.829 -0.5340  0.0257 -0.1467
 7809TIP3    H144842   3.411   6.060  14.838 -0.5199 -0.3689 -0.0941
 7809TIP3    H244843   3.293   5.969  14.863 -0.7735 -0.4486 -1.4576
 7810TIP3   OH244844   6.608   2.596  13.599 -0.2408 -0.4909  0.5719
 7810TIP3    H144845   6.587   2.656  13.671 -0.1182 -0.5881  0.6883
 7810TIP3    H244846   6.582   2.644  13.520 -0.5117 -0.4417  0.6892
 7811TIP3   OH244847   6.235   4.762   9.910 -0.0056  0.3704  0.1431
 7811TIP3    H144848   6.197   4.725   9.830 -1.4463 -1.3597  1.5381
 7811TIP3    H244849   6.186   4.722   9.981  1.3603  1.6915  1.9431
 7812TIP3   OH244850   0.422   6.177   0.787  0.3631 -0.0869 -0.3462
 7812TIP3    H144851   0.352   6.219   0.737 -0.1119  0.2495  0.5686
 7812TIP3    H244852   0.479   6.139   0.721 -0.7221 -0.4389 -1.1218
 7813TIP3   OH244853   5.481   0.499  13.820 -0.1243  0.2263 -0.3105
 7813TIP3    H144854   5.530   0.458  13.748 -0.5504  0.9654 -1.0290
 7813TIP3    H244855   5.425   0.563  13.777 -1.5291 -0.4095  0.5341
 7814TIP3   OH244856   7.177   0.434   4.647 -0.0504  0.1426 -0.2434
 7814TIP3    H144857   7.186   0.526   4.623  0.1867  0.0480 -0.5214
 7814TIP3    H244858   7.264   0.397   4.635 -0.2827 -0.2611 -0.7409
 7815TIP3   OH244859   5.439   2.599   3.263  0.1708  0.1949 -0.0420
 7815TIP3    H144860   5.464   2.536   3.196  1.4295 -0.2909  0.8361
 7815TIP3    H244861   5.385   2.548   3.324  0.5533  0.1429  0.2623
 7816TIP3   OH244862   5.598   7.073   3.356  0.9250 -0.1103  0.0724
 7816TIP3    H144863   5.678   7.083   3.304 -1.1032  0.3598 -3.2948
 7816TIP3    H244864   5.532   7.047   3.292 -1.7812  0.1587  2.5731
 7817TIP3   OH244865   1.278   6.015   1.897 -0.0520 -0.1345  0.1816
 7817TIP3    H144866   1.216   5.956   1.852 -0.3267 -0.0142  0.3993
 7817TIP3    H244867   1.355   6.015   1.841 -1.3097  2.0647 -1.7445
 7818TIP3   OH244868   5.722   6.682   2.056 -0.6912 -0.4032  0.2740
 7818TIP3    H144869   5.792   6.673   2.121  0.3250 -1.1967 -0.8669
 7818TIP3    H244870   5.765   6.661   1.972 -2.1687 -0.3399 -0.5305
 7819TIP3   OH244871   2.355   4.590   1.077  0.1901  0.2742  0.3169
 7819TIP3    H144872   2.322   4.632   0.998 -1.1042 -0.9873  0.1405
 7819TIP3    H244873   2.440   4.553   1.051  0.5512  1.2996  0.0109
 7820TIP3   OH244874   6.817   6.392  14.835  0.3662  0.1580  0.6383
 7820TIP3    H144875   6.794   6.403  14.743  0.7468  1.6629  0.6872
 7820TIP3    H244876   6.877   6.318  14.836 -1.0883 -1.0835 -0.0451
 7821TIP3   OH244877   6.909   0.913   2.233 -0.0778  0.0395  0.0599
 7821TIP3    H144878   6.982   0.865   2.272  0.8105  0.2622 -1.2448
 7821TIP3    H244879   6.930   0.916   2.140 -1.4873  0.6050 -0.2628
 7822TIP3   OH244880   3.034   6.897  11.718 -0.1747  1.0416  0.3095
 7822TIP3    H144881   3.058   6.982  11.755  1.0069  0.3590  1.1777
 7822TIP3    H244882   2.986   6.853  11.788  2.1113 -0.2774  1.1452
 7823TIP3   OH244883   6.057   5.249  12.508  0.5727  0.1712  0.5527
 7823TIP3    H144884   6.050   5.325  12.450  1.0501  0.1873  0.5121
 7823TIP3    H244885   6.072   5.287  12.595 -1.3580  0.1958  0.9249
 7824TIP3   OH244886   5.700   4.674  11.874  0.0697 -0.0570 -0.2468
 7824TIP3    H144887   5.778   4.638  11.830 -1.1912 -0.9509 -1.8782
 7824TIP3    H244888   5.627   4.627  11.835 -1.2647  0.0394  1.9675
 7825TIP3   OH244889   4.426   4.861   2.257 -0.1279 -0.5378 -0.0836
 7825TIP3    H144890   4.374   4.903   2.189  0.3015 -0.5051 -0.3995
 7825TIP3    H244891   4.378   4.781   2.278  0.8003 -1.6912 -1.9956
 7826TIP3   OH244892   4.682   4.404   4.776 -0.0610 -0.2122 -0.7138
 7826TIP3    H144893   4.680   4.499   4.776 -1.1876 -0.2149  0.3495
 7826TIP3    H244894   4.701   4.380   4.867  0.1056 -0.9956 -0.9489
 7827TIP3   OH244895   6.791   6.598   4.710 -0.0244 -0.2163 -0.6619
 7827TIP3    H144896   6.839   6.578   4.630 -0.2549 -1.8272 -0.4247
 7827TIP3    H244897   6.699   6.592   4.685 -0.1008 -0.0771 -0.4227
 7828TIP3   OH244898   4.383   0.976   0.528  0.0456 -0.3902 -0.0529
 7828TIP3    H144899   4.462   0.974   0.582  0.8960 -0.6389 -1.2597
 7828TIP3    H244900   4.314   1.003   0.588  0.9667 -0.5561  1.1284
 7829TIP3   OH244901   2.247   1.844  15.175 -0.3104 -0.1626 -0.1574
 7829TIP3    H144902   2.216   1.931  15.199 -1.7950 -0.5539 -0.5566
 7829TIP3    H244903   2.261   1.848  15.081  1.0377  0.0454  0.0346
 7830TIP3   OH244904   6.637   2.796  13.790 -0.3937 -0.3856  0.5131
 7830TIP3    H144905   6.710   2.835  13.838 -0.5548  0.9515 -0.2725
 7830TIP3    H244906   6.589   2.871  13.755 -0.9937 -1.2958 -0.6754
 7831TIP3   OH244907   3.183   0.528   2.498  0.0228  0.6360 -0.2129
 7831TIP3    H144908   3.235   0.590   2.549  1.3002  0.9035 -1.7735
 7831TIP3    H244909   3.158   0.577   2.419  0.6379 -0.6455 -1.2384
 7832TIP3   OH244910   0.233   2.025  12.920  0.0780 -0.2273 -0.5970
 7832TIP3    H144911   0.139   2.041  12.913 -0.4178 -1.8426  1.4650
 7832TIP3    H244912   0.261   2.079  12.993  0.6366 -0.2582 -0.7851
 7833TIP3   OH244913   4.388   4.728  11.900 -0.5108 -0.4237 -0.4787
 7833TIP3    H144914   4.431   4.793  11.843  1.3649 -0.7959  0.4150
 7833TIP3    H244915   4.443   4.650  11.893 -0.4891 -0.6267  1.4533
 7834TIP3   OH244916   2.475   0.054  10.969 -0.0150 -0.1603  0.2089
 7834TIP3    H144917   2.558   0.007  10.963  0.0405 -0.1328  0.7582
 7834TIP3    H244918   2.485   0.113  11.043 -0.7895 -0.6861  0.7557
 7835TIP3   OH244919   6.032   2.545   3.428  0.0058 -0.0070  0.4048
 7835TIP3    H144920   5.986   2.462   3.415 -0.8607  0.7193 -1.6120
 7835TIP3    H244921   6.045   2.551   3.523  0.7588 -2.7592  0.5659
 7836TIP3   OH244922   5.735   0.182  10.422 -0.4623 -0.6511  0.6758
 7836TIP3    H144923   5.780   0.098  10.409  0.8066  0.1047 -0.0149
 7836TIP3    H244924   5.796   0.234  10.473 -2.1900 -0.8753  3.1470
 7837TIP3   OH244925   4.440   7.041   2.375 -0.0571 -0.4128 -0.3001
 7837TIP3    H144926   4.444   7.065   2.282  2.3327  0.3980 -0.0683
 7837TIP3    H244927   4.418   7.123   2.420 -0.7880 -0.7104 -0.0940
 7838TIP3   OH244928   5.786   2.728  13.120  0.6342 -0.0449  0.2520
 7838TIP3    H144929   5.872   2.733  13.162  1.4925  0.7473 -1.4961
 7838TIP3    H244930   5.729   2.781  13.176  1.5097  0.2297  0.9086
 7839TIP3   OH244931   3.034   4.015  14.973 -0.4152 -0.0170  0.3288
 7839TIP3    H144932   3.120   4.056  14.972 -0.7197  0.6449 -0.0668
 7839TIP3    H244933   3.047   3.930  15.014  0.5006 -0.0872 -0.0873
 7840TIP3   OH244934   3.925   2.780  12.058  0.2487 -0.3184 -0.0147
 7840TIP3    H144935   3.951   2.721  12.129  2.3119 -1.0807 -1.2977
 7840TIP3    H244936   3.936   2.868  12.094  1.0777 -0.6952  0.7066
 7841TIP3   OH244937   1.382   0.495   3.384  0.0029 -0.6536 -0.4878
 7841TIP3    H144938   1.287   0.493   3.375 -0.1948 -2.2531  1.3757
 7841TIP3    H244939   1.403   0.422   3.443  2.4267 -0.5744 -1.1159
 7842TIP3   OH244940   3.494   0.330  12.673  0.3544 -0.4368  0.9860
 7842TIP3    H144941   3.585   0.359  12.674 -0.1330  1.2137  0.5070
 7842TIP3    H244942   3.482   0.290  12.587  0.2538  0.6750  0.4696
 7843TIP3   OH244943   3.749   6.220  11.767 -0.0648 -0.0128 -0.0063
 7843TIP3    H144944   3.656   6.209  11.785  0.1319 -0.7770  0.6332
 7843TIP3    H244945   3.758   6.200  11.673 -0.1343 -3.1701  0.5252
 7844TIP3   OH244946   0.684   4.531   9.701  0.7058  0.2191 -0.3069
 7844TIP3    H144947   0.631   4.565   9.628 -1.5057 -0.4341  0.8867
 7844TIP3    H244948   0.721   4.449   9.668  0.2186  0.2333 -0.9078
 7845TIP3   OH244949   6.293   3.701   9.992 -0.2870  0.2195  0.1609
 7845TIP3    H144950   6.211   3.678   9.949  0.3480 -0.5076 -0.7103
 7845TIP3    H244951   6.307   3.793   9.968 -0.7504  0.2949  0.1656
 7846TIP3   OH244952   1.826   1.681  13.480 -0.9592 -0.4077 -0.0815
 7846TIP3    H144953   1.803   1.759  13.530 -1.1395  0.1283 -0.9856
 7846TIP3    H244954   1.896   1.710  13.421  0.2130 -1.3639  0.7809
 7847TIP3   OH244955   5.767   0.026  14.287  0.0453  0.2621 -0.2534
 7847TIP3    H144956   5.730  -0.012  14.207 -1.2376 -0.4886  0.6568
 7847TIP3    H244957   5.712   0.102  14.305 -1.3213 -1.0067  1.2524
 7848TIP3   OH244958   4.161   7.191  13.755 -0.8984  0.0164  0.0483
 7848TIP3    H144959   4.083   7.240  13.729  0.1101  0.6196 -2.0235
 7848TIP3    H244960   4.164   7.116  13.695  0.3600  0.2694 -0.2322
 7849TIP3   OH244961   3.236   2.566  14.265 -0.3422  0.2624  0.0163
 7849TIP3    H144962   3.142   2.574  14.250 -0.5402  1.5441  1.6479
 7849TIP3    H244963   3.263   2.653  14.293  1.0924 -0.4095  0.8261
 7850TIP3   OH244964   5.291   3.153  10.624  0.5634 -0.2540 -0.1661
 7850TIP3    H144965   5.269   3.086  10.559  0.7814  0.9394 -1.5386
 7850TIP3    H244966   5.237   3.228  10.600  0.9002  0.3358  0.8468
 7851TIP3   OH244967   4.572   2.272  13.318  0.0719 -0.0618 -0.1882
 7851TIP3    H144968   4.650   2.272  13.263  0.8513 -0.3267  0.8793
 7851TIP3    H244969   4.499   2.278  13.256  0.9500  1.0934 -1.1586
 7852TIP3   OH244970   4.902   2.347   0.147 -0.2127  0.7041 -0.4917
 7852TIP3    H144971   4.957   2.397   0.087 -0.0708 -0.6147 -1.5172
 7852TIP3    H244972   4.813   2.374   0.126 -0.1039  0.9166 -0.6853
 7853TIP3   OH244973   5.107   4.727  12.113 -0.3509  0.2837 -0.1975
 7853TIP3    H144974   5.159   4.688  12.183 -0.5753  1.0173  0.3929
 7853TIP3    H244975   5.149   4.810  12.095 -0.5194  0.2694 -0.6772
 7854TIP3   OH244976   1.162   5.159  13.471  0.3124 -0.5401 -0.2364
 7854TIP3    H144977   1.140   5.157  13.564 -0.7415  0.7211 -0.4416
 7854TIP3    H244978   1.256   5.137  13.469  0.6128  0.4472  1.2054
 7855TIP3   OH244979   3.233   3.637   1.912  0.8570 -0.0046  0.4789
 7855TIP3    H144980   3.229   3.731   1.898 -0.3310 -0.0062  0.7453
 7855TIP3    H244981   3.324   3.614   1.892  0.9459  1.0560 -0.4203
 7856TIP3   OH244982   1.022   3.153  12.036  0.3809 -0.7679  0.1861
 7856TIP3    H144983   1.074   3.212  12.090 -0.9179 -1.4649  2.3519
 7856TIP3    H244984   1.086   3.106  11.983  1.6913  0.3695  0.6978
 7857TIP3   OH244985   5.050   0.264  14.034  0.2691 -0.1634  0.1615
 7857TIP3    H144986   5.112   0.304  13.974 -1.4549  0.4949 -1.2729
 7857TIP3    H244987   5.104   0.223  14.101  2.2033  0.8960 -0.6836
 7858TIP3   OH244988   3.633   4.444  13.474  0.3807  0.6349 -0.0298
 7858TIP3    H144989   3.653   4.450  13.568  0.9598  0.5644 -0.1397
 7858TIP3    H244990   3.543   4.475  13.466  0.4463  0.9776  0.5054
 7859TIP3   OH244991   4.534   1.055   1.694  0.0657  0.2070  0.5378
 7859TIP3    H144992   4.462   1.118   1.700 -0.7175 -0.7321  1.5851
 7859TIP3    H244993   4.562   1.058   1.602  0.6641  2.6947  0.7330
 7860TIP3   OH244994   6.208   0.607   4.062 -0.1482  0.2089 -0.1666
 7860TIP3    H144995   6.273   0.672   4.035 -1.4602  1.9936  0.7583
 7860TIP3    H244996   6.259   0.528   4.080  1.9758  1.8356  1.6143
 7861TIP3   OH244997   6.415   5.895  12.173 -0.7992  0.6171  0.3308
 7861TIP3    H144998   6.320   5.912  12.180 -0.4606  2.3558  1.4066
 7861TIP3    H244999   6.453   5.982  12.160  0.5344 -0.2600 -2.2489
 7862TIP3   OH245000   2.053   2.806   0.146  0.1562 -0.1528 -0.1930
 7862TIP3    H145001   1.993   2.880   0.132 -0.4726 -0.6202  0.0237
 7862TIP3    H245002   1.999   2.728   0.136  0.4205 -0.5678  1.3384
 7863TIP3   OH245003   0.112   0.085   1.413 -0.4515 -0.4727 -0.8772
 7863TIP3    H145004   0.031   0.108   1.367  0.2420  1.7335 -1.0891
 7863TIP3    H245005   0.150   0.169   1.439  0.8109 -1.5369  0.9321
 7864TIP3   OH245006   5.871   2.792   0.810  0.0086 -1.3830  0.3937
 7864TIP3    H145007   5.814   2.798   0.886 -0.1386  0.3621  0.1865
 7864TIP3    H245008   5.927   2.869   0.815 -0.2079 -1.0414 -1.4038
 7865TIP3   OH245009   3.354   3.933  10.178  0.7048 -0.0544  0.0381
 7865TIP3    H145010   3.407   3.927  10.258  1.3574 -1.3281 -0.4463
 7865TIP3    H245011   3.291   4.003  10.195  3.3286  2.4164  0.1597
 7866TIP3   OH245012   7.156   6.923   3.698  0.0198  0.5869 -0.1925
 7866TIP3    H145013   7.214   6.849   3.716  0.0912  0.6188 -0.2901
 7866TIP3    H245014   7.150   6.970   3.780  0.5465  0.8768 -0.3180
 7867TIP3   OH245015   2.007   6.268  12.484  0.4272 -0.2797  0.1232
 7867TIP3    H145016   2.100   6.271  12.507  1.0528 -3.7999 -1.1533
 7867TIP3    H245017   1.978   6.182  12.515 -1.8500 -0.0957 -1.2747
 7868TIP3   OH245018   1.701   3.466  12.912 -0.0797 -0.0573 -0.0039
 7868TIP3    H145019   1.795   3.468  12.895  0.3648  0.3890  2.2407
 7868TIP3    H245020   1.693   3.476  13.007 -2.5321  6.0975 -0.3969
 7869TIP3   OH245021   6.779   2.652  10.671 -0.0508  0.1620 -0.3922
 7869TIP3    H145022   6.829   2.686  10.598  1.1782 -0.6266  0.0508
 7869TIP3    H245023   6.696   2.700  10.668  0.5621  1.2035 -1.3843
 7870TIP3   OH245024   3.615   3.683  10.371  0.2690  0.3463 -0.3063
 7870TIP3    H145025   3.559   3.756  10.400 -0.2362  0.5105 -1.6081
 7870TIP3    H245026   3.701   3.702  10.409 -0.2700  0.7030  0.7851
 7871TIP3   OH245027   2.064   3.755  13.942 -0.1632 -0.3579 -0.4116
 7871TIP3    H145028   2.100   3.677  13.986  0.0395  0.3525  0.7381
 7871TIP3    H245029   2.024   3.721  13.862 -0.3857 -1.6975  0.2347
 7872TIP3   OH245030   5.245   5.965  13.207 -0.1966 -0.3257  0.2617
 7872TIP3    H145031   5.310   6.027  13.176 -2.8566  1.6646 -1.8650
 7872TIP3    H245032   5.226   5.910  13.131 -2.1707  0.3184  0.2257
 7873TIP3   OH245033   2.003   1.907  11.113  0.2068  0.3144  0.1311
 7873TIP3    H145034   1.990   1.849  11.188  0.1893 -0.8886 -0.7658
 7873TIP3    H245035   2.020   1.993  11.152 -2.1695  0.2724  1.4849
 7874TIP3   OH245036   4.519   2.297  11.753  0.1918 -0.0791  0.4898
 7874TIP3    H145037   4.492   2.231  11.817  0.4849 -0.0560  0.6404
 7874TIP3    H245038   4.444   2.356  11.747 -0.2884 -0.7242 -0.0526
 7875TIP3   OH245039   1.943   3.741  12.440  0.2330  0.3544  0.1012
 7875TIP3    H145040   1.958   3.834  12.456  1.2802  0.7225 -2.6045
 7875TIP3    H245041   1.869   3.737  12.380  0.0135 -0.5991  0.4053
 7876TIP3   OH245042   3.479   2.842   5.156  0.1414  0.5675  0.4141
 7876TIP3    H145043   3.541   2.839   5.229  1.4166  1.0045 -0.6050
 7876TIP3    H245044   3.515   2.780   5.092  1.5670  3.2972 -1.6631
 7877TIP3   OH245045   0.041   4.372  10.493 -0.5644 -0.0945 -0.0217
 7877TIP3    H145046  -0.054   4.373  10.487 -0.5392 -0.7395 -0.8806
 7877TIP3    H245047   0.066   4.289  10.452  0.3103 -0.4643  1.2113
 7878TIP3   OH245048   2.182   4.509   0.469  1.1304 -0.1640 -0.2299
 7878TIP3    H145049   2.154   4.435   0.415  0.3597 -0.1521  0.1336
 7878TIP3    H245050   2.277   4.509   0.463  1.1789 -1.5656  0.2740
 7879TIP3   OH245051   1.177   5.549   1.295  0.4823 -0.6062 -0.0659
 7879TIP3    H145052   1.194   5.478   1.358  0.2165 -0.4515  0.1843
 7879TIP3    H245053   1.172   5.628   1.349  2.2693 -0.1438 -0.4897
 7880TIP3   OH245054   1.206   3.758  12.418 -0.1062  0.2236 -0.6788
 7880TIP3    H145055   1.250   3.675  12.435 -1.0225 -0.0870  0.3663
 7880TIP3    H245056   1.158   3.744  12.336 -1.0761 -0.6641  0.0086
 7881TIP3   OH245057   7.131   2.843   0.020  0.0918  0.0216 -0.3094
 7881TIP3    H145058   7.114   2.819   0.111 -1.6201  1.3301 -0.2160
 7881TIP3    H245059   7.176   2.768  -0.017  1.5069 -0.2495  1.7936
 7882TIP3   OH245060   5.877   3.756   3.061  0.1761 -0.3802  0.1830
 7882TIP3    H145061   5.906   3.825   3.122  1.1424 -0.7186  0.1195
 7882TIP3    H245062   5.782   3.754   3.072  0.1519  0.7937  0.3698
 7883TIP3   OH245063   3.214   5.389  14.392 -0.4534  0.2275  0.0457
 7883TIP3    H145064   3.232   5.471  14.344  0.0091 -0.0663 -0.2935
 7883TIP3    H245065   3.196   5.418  14.481  0.1776  0.6752  0.0421
 7884TIP3   OH245066   6.907   6.920  10.886 -0.2723 -0.2742 -0.1687
 7884TIP3    H145067   6.962   6.844  10.866 -0.1148 -0.6792  1.6444
 7884TIP3    H245068   6.826   6.904  10.837  0.0172 -1.2530 -0.3551
 7885TIP3   OH245069   0.629   4.863  10.558  0.1141  0.1905 -0.4546
 7885TIP3    H145070   0.710   4.853  10.510 -0.1846 -0.2103 -0.8820
 7885TIP3    H245071   0.565   4.889  10.492 -0.3906 -0.7636 -0.3579
 7886TIP3   OH245072   3.565   3.106  13.633  0.2076 -0.3501  0.3559
 7886TIP3    H145073   3.514   3.143  13.705  0.8640  1.4142 -0.0227
 7886TIP3    H245074   3.504   3.049  13.587 -0.9132  0.3590  0.9133
 7887TIP3   OH245075   2.954   6.865  10.116  0.1553 -0.8261 -0.1616
 7887TIP3    H145076   2.923   6.777  10.097  0.1802 -1.1090  1.0667
 7887TIP3    H245077   2.939   6.877  10.209  0.7017  0.2486 -0.1935
 7888TIP3   OH245078   1.325   7.069  11.372 -0.4036  0.8588 -0.0226
 7888TIP3    H145079   1.384   7.063  11.297  0.3642  0.9999  0.5529
 7888TIP3    H245080   1.238   7.082  11.334 -0.6759 -2.8098 -1.0659
 7889TIP3   OH245081   4.244   5.581  11.542  0.0023  0.1791  0.2625
 7889TIP3    H145082   4.248   5.501  11.491 -0.2108  0.2312  0.1646
 7889TIP3    H245083   4.178   5.635  11.498 -0.5430  0.0260  0.8771
 7890TIP3   OH245084   4.470   4.166  14.303  0.2541  0.2096 -0.0983
 7890TIP3    H145085   4.441   4.249  14.266 -0.2875 -0.4065 -1.0900
 7890TIP3    H245086   4.395   4.108  14.293  0.6446 -0.4259  0.5411
 7891TIP3   OH245087   5.365   3.402   2.222  0.1372 -0.3227 -0.6525
 7891TIP3    H145088   5.399   3.491   2.209 -0.6769  0.0867 -0.0932
 7891TIP3    H245089   5.433   3.359   2.274 -0.8495  1.0255  1.9900
 7892TIP3   OH245090   6.577   1.706  12.013 -0.0208 -0.4123  0.5314
 7892TIP3    H145091   6.662   1.673  11.983 -0.6551 -0.2789 -1.6255
 7892TIP3    H245092   6.598   1.791  12.053  0.8746 -0.4164  0.1098
 7893TIP3   OH245093   1.243   6.179   0.468 -0.1878 -0.0142  0.2767
 7893TIP3    H145094   1.315   6.127   0.432 -0.6562 -0.2598 -0.3172
 7893TIP3    H245095   1.280   6.219   0.547  0.5665 -0.2236  0.0413
 7894TIP3   OH245096   5.794   5.179   1.977  0.1943  0.0044 -0.4611
 7894TIP3    H145097   5.805   5.100   2.031 -3.5255 -0.0795  0.4688
 7894TIP3    H245098   5.781   5.146   1.888 -1.9299 -0.5927  0.0098
 7895TIP3   OH245099   1.373   1.059  15.078 -0.9010  0.2641 -0.7839
 7895TIP3    H145100   1.362   1.033  14.986  0.9274  0.1241 -1.0060
 7895TIP3    H245101   1.392   1.153  15.074 -0.8615  0.2669 -0.5468
 7896TIP3   OH245102   2.561   1.920   0.850 -0.1178  0.1268 -0.0812
 7896TIP3    H145103   2.517   1.839   0.824 -0.6870  0.5359 -0.3971
 7896TIP3    H245104   2.555   1.977   0.773 -0.3827  0.7438  0.3867
 7897TIP3   OH245105   4.946   0.986  14.108  0.5362 -0.0852 -0.3460
 7897TIP3    H145106   5.006   1.057  14.130  2.4751 -1.5845 -0.5602
 7897TIP3    H245107   4.938   0.989  14.013 -0.3945  0.5801 -0.2675
 7898TIP3   OH245108   1.476   4.136  14.801  0.1128 -0.3810  0.2058
 7898TIP3    H145109   1.453   4.043  14.794 -0.4761 -0.2009 -0.3352
 7898TIP3    H245110   1.404   4.174  14.851  0.1353 -0.1343  0.0476
 7899TIP3   OH245111   0.984   3.215  14.733 -0.1121 -0.4153 -0.2224
 7899TIP3    H145112   0.954   3.233  14.822  1.4296 -0.0081  0.2644
 7899TIP3    H245113   0.938   3.279  14.678 -0.6882 -0.3225  0.3653
 7900TIP3   OH245114   4.691   6.071   2.419 -0.1906 -0.0687  0.2943
 7900TIP3    H145115   4.747   6.092   2.344  0.7264  3.0408  1.6784
 7900TIP3    H245116   4.698   5.976   2.429  2.3133 -0.1663 -1.5291
 7901TIP3   OH245117   4.863   3.801  14.327 -0.2808  0.7383  0.2578
 7901TIP3    H145118   4.818   3.717  14.321  0.3948  0.4756 -1.8312
 7901TIP3    H245119   4.793   3.866  14.326 -0.8172  0.2608  2.0295
 7902TIP3   OH245120   5.897   3.348  14.145 -0.4626 -0.3949  0.2073
 7902TIP3    H145121   5.896   3.418  14.210  1.5799  0.1085 -0.2473
 7902TIP3    H245122   5.983   3.354  14.104 -0.9530 -1.9739 -1.1712
 7903TIP3   OH245123   6.985   2.011  14.165  0.0093  0.6481 -0.3641
 7903TIP3    H145124   6.993   1.976  14.076 -2.4249  1.6892 -1.0910
 7903TIP3    H245125   6.893   1.996  14.188  0.3236  1.4190  1.5389
 7904TIP3   OH245126   1.999   5.649  14.684 -0.0798  0.1846 -0.2163
 7904TIP3    H145127   2.077   5.608  14.647 -0.3595 -0.4550 -0.1185
 7904TIP3    H245128   2.022   5.742  14.694  0.6536  0.0059 -0.2101
 7905TIP3   OH245129   4.184   0.153   4.247  0.1201  0.1768 -0.5226
 7905TIP3    H145130   4.097   0.132   4.280  0.3358 -0.2905 -0.2337
 7905TIP3    H245131   4.222   0.211   4.312  1.4765 -2.6489  1.4398
 7906TIP3   OH245132   4.647   6.717  14.977  0.1881 -0.6699 -0.2041
 7906TIP3    H145133   4.667   6.674  15.060 -0.6648  0.5921  0.6959
 7906TIP3    H245134   4.593   6.654  14.929 -1.2109 -0.5591  1.1699
 7907TIP3   OH245135   5.982   2.172   0.904 -0.1099  0.6571 -0.0890
 7907TIP3    H145136   6.043   2.102   0.881 -0.5254 -0.0730  0.9732
 7907TIP3    H245137   5.907   2.127   0.943  0.5155  1.7730  2.6307
 7908TIP3   OH245138   1.292   5.982  13.425 -0.3272 -0.1387  0.0091
 7908TIP3    H145139   1.372   6.028  13.450  0.2452  0.3357 -2.3978
 7908TIP3    H245140   1.281   5.915  13.492  3.3339 -1.6594 -0.6333
 7909TIP3   OH245141   0.997   0.351  10.792  0.1051  0.3472  0.5880
 7909TIP3    H145142   0.994   0.360  10.697  2.9127  0.5804  0.4386
 7909TIP3    H245143   1.033   0.434  10.823  1.0995 -0.4600  1.6633
 7910TIP3   OH245144   2.950   1.148  11.379 -0.2303 -0.5290 -0.4308
 7910TIP3    H145145   2.897   1.218  11.341 -0.1841 -1.3861 -2.1774
 7910TIP3    H245146   2.934   1.154  11.473 -2.3452  0.1141 -0.7872
 7911TIP3   OH245147   6.180   1.673   1.085 -0.0752  0.3884 -0.0687
 7911TIP3    H145148   6.231   1.632   1.155 -0.4138  2.2075  1.3418
 7911TIP3    H245149   6.245   1.715   1.029  0.3324 -2.5137 -1.9559
 7912TIP3   OH245150   1.472   6.243   2.020 -0.4051  0.9589  0.5124
 7912TIP3    H145151   1.468   6.326   1.972 -1.6859  1.4263  1.3510
 7912TIP3    H245152   1.380   6.223   2.039  0.0331  0.5177  2.2894
 7913TIP3   OH245153   5.105   5.211   1.500  0.0053 -0.6272  0.1603
 7913TIP3    H145154   5.151   5.237   1.580  0.8522  0.5109 -0.6754
 7913TIP3    H245155   5.172   5.168   1.447  0.0287  0.6329 -0.8722
 7914TIP3   OH245156   0.104   4.767  14.682 -0.0112 -0.2274  0.5718
 7914TIP3    H145157   0.022   4.797  14.721 -0.0423 -0.1061  0.4134
 7914TIP3    H245158   0.077   4.727  14.599  0.0848 -0.2374  0.5459
 7915TIP3   OH245159   5.552   3.519  15.144  0.2416  0.3136 -0.6239
 7915TIP3    H145160   5.543   3.611  15.166 -0.8387 -0.1171  0.9088
 7915TIP3    H245161   5.549   3.473  15.228 -1.2243 -1.2525 -1.4569
 7916TIP3   OH245162   3.789   6.464   0.745 -0.2135  0.2535 -0.4347
 7916TIP3    H145163   3.862   6.521   0.768 -0.0156 -0.6284  1.2116
 7916TIP3    H245164   3.711   6.513   0.770 -0.0769  0.1224  0.2470
 7917TIP3   OH245165   0.819   1.602   9.535  0.6228 -0.3623 -0.3977
 7917TIP3    H145166   0.881   1.549   9.586  1.2406  0.2712 -0.4786
 7917TIP3    H245167   0.851   1.691   9.544 -0.3244 -0.0164 -0.3892
 7918TIP3   OH245168   5.256   1.649  15.058  0.2286  0.4894 -0.0168
 7918TIP3    H145169   5.250   1.600  15.140  0.5924 -1.1495 -0.9197
 7918TIP3    H245170   5.346   1.634  15.028 -0.0579  0.5994 -0.9727
 7919TIP3   OH245171   6.154   3.335  11.065 -0.3362 -0.1337  0.5024
 7919TIP3    H145172   6.218   3.372  11.004  1.0478 -0.6383  1.5808
 7919TIP3    H245173   6.132   3.407  11.124 -1.7513  0.3825 -0.5950
 7920TIP3   OH245174   1.284   6.473   3.234 -0.8146  0.0258 -0.0742
 7920TIP3    H145175   1.233   6.410   3.182 -1.2345  0.2529  0.0545
 7920TIP3    H245176   1.248   6.559   3.209 -1.6335  0.0815  1.2364
 7921TIP3   OH245177   1.063   3.561   0.452 -0.1417 -0.2887 -0.5816
 7921TIP3    H145178   1.022   3.644   0.476  0.3978 -0.3621  0.6757
 7921TIP3    H245179   1.080   3.569   0.358  1.0076  1.5393 -0.2728
 7922TIP3   OH245180   0.994   4.922  14.624  0.2051 -0.2554 -0.3635
 7922TIP3    H145181   0.997   4.853  14.690  2.3511 -0.8506 -1.0098
 7922TIP3    H245182   0.970   5.001  14.673  0.2584 -0.9617  0.8440
 7923TIP3   OH245183   4.622   5.350   9.897 -0.0558  0.1370  0.5110
 7923TIP3    H145184   4.696   5.335   9.838 -0.9626  0.4300 -0.7661
 7923TIP3    H245185   4.660   5.348   9.984  1.2985 -0.6303 -0.0568
 7924TIP3   OH245186   5.690   0.147   4.296 -0.2263 -0.1788 -0.3812
 7924TIP3    H145187   5.700   0.216   4.230  0.7427 -1.0756 -1.2117
 7924TIP3    H245188   5.600   0.157   4.327 -0.2619  1.1314 -0.8473
 7925TIP3   OH245189   6.379   3.611  13.463  0.0284 -0.0906 -0.6356
 7925TIP3    H145190   6.451   3.623  13.402  1.1222 -1.8451  0.2411
 7925TIP3    H245191   6.315   3.560  13.414  0.7685 -1.2293 -0.4438
 7926TIP3   OH245192   6.235   4.336  14.695 -0.2728 -0.4781  0.0991
 7926TIP3    H145193   6.193   4.315  14.612  0.0349 -0.7539  0.0095
 7926TIP3    H245194   6.326   4.310  14.683 -0.3491 -1.0763  0.7173
 7927TIP3   OH245195   4.519   6.823  12.480  0.1743 -0.4105  0.3069
 7927TIP3    H145196   4.456   6.893  12.499  1.2957  0.3315  1.4474
 7927TIP3    H245197   4.582   6.863  12.421  0.1362 -0.8498 -0.0334
 7928TIP3   OH245198   3.761   0.603  12.969  0.4068 -0.2893  0.2712
 7928TIP3    H145199   3.762   0.694  12.998  1.5467  0.3778 -1.6671
 7928TIP3    H245200   3.822   0.558  13.027 -1.9681 -0.4492  2.8485
 7929TIP3   OH245201   1.827   3.309  10.254  0.1617 -0.1793 -0.0169
 7929TIP3    H145202   1.901   3.363  10.227 -0.8466  0.8832 -0.7291
 7929TIP3    H245203   1.808   3.338  10.344  0.0882  0.1312 -0.1317
 7930TIP3   OH245204   6.529   4.271   0.245 -0.5336  0.8374  0.0513
 7930TIP3    H145205   6.563   4.221   0.320 -1.1329  0.5319  0.1268
 7930TIP3    H245206   6.580   4.241   0.170 -1.7142 -0.8327 -0.1366
 7931TIP3   OH245207   6.480   3.468  13.659  0.5083  0.1924  0.5495
 7931TIP3    H145208   6.542   3.420  13.603  1.7041  0.1833  1.8032
 7931TIP3    H245209   6.453   3.543  13.606  1.3876  0.0466 -0.1460
 7932TIP3   OH245210   4.103   3.574  14.611  0.6727  0.1132  0.3433
 7932TIP3    H145211   4.089   3.480  14.609  0.3858  0.1313  1.2259
 7932TIP3    H245212   4.094   3.598  14.703  1.3271  0.9143  0.2115
 7933TIP3   OH245213   3.947   4.323   0.108 -0.2118 -0.1373  0.1602
 7933TIP3    H145214   3.927   4.390   0.173 -0.5365  0.4864 -0.5623
 7933TIP3    H245215   4.018   4.272   0.147  1.9791  2.2924 -0.3313
 7934TIP3   OH245216   0.833   7.206  12.617 -0.1397 -0.3740 -0.1904
 7934TIP3    H145217   0.827   7.129  12.561  0.4307 -0.8358  0.3710
 7934TIP3    H245218   0.778   7.272  12.574 -0.3272 -0.9702 -0.8713
 7935TIP3   OH245219   6.746   5.253  13.026  0.2484  0.4277 -0.4557
 7935TIP3    H145220   6.803   5.196  12.974  0.1546 -0.2354  0.1542
 7935TIP3    H245221   6.797   5.334  13.036  0.4508  0.3997 -1.1871
 7936TIP3   OH245222   4.352   2.051   1.672 -0.3946 -0.0166  0.2142
 7936TIP3    H145223   4.357   1.996   1.594 -0.5748 -0.1364  0.2884
 7936TIP3    H245224   4.345   1.990   1.745 -0.9450  0.1049  0.2715
 7937TIP3   OH245225   1.981   2.960  10.979  0.2390  0.5054  0.7826
 7937TIP3    H145226   2.012   3.045  10.949 -0.0100  0.4743  0.4335
 7937TIP3    H245227   1.888   2.974  10.999 -0.7167 -0.4577 -2.4711
 7938TIP3   OH245228   3.992   5.363   1.345  0.2893  0.1954  0.4385
 7938TIP3    H145229   3.970   5.358   1.252 -0.0535  1.3936  0.4363
 7938TIP3    H245230   4.085   5.339   1.348  0.1959 -0.2807 -0.1547
 7939TIP3   OH245231   2.669   4.336   4.900  0.0099 -0.0525  0.4334
 7939TIP3    H145232   2.669   4.409   4.837 -0.3103 -0.6253 -0.2483
 7939TIP3    H245233   2.753   4.344   4.945  0.7440 -0.2605 -0.8337
 7940TIP3   OH245234   4.410   3.575   1.912 -0.4712 -0.1249  0.1563
 7940TIP3    H145235   4.472   3.642   1.944 -1.8321  1.9338 -1.2270
 7940TIP3    H245236   4.462   3.495   1.908  1.7016  1.1608  0.5052
 7941TIP3   OH245237   6.624   5.172  14.682 -0.2682  0.6783 -0.7706
 7941TIP3    H145238   6.687   5.214  14.739  0.4973 -1.1280 -0.2146
 7941TIP3    H245239   6.635   5.215  14.597  1.7521  0.3860 -0.6942
 7942TIP3   OH245240   2.660   1.339  11.088  0.3848 -0.1445  0.4834
 7942TIP3    H145241   2.568   1.341  11.113 -0.1122  0.3161 -1.2545
 7942TIP3    H245242   2.706   1.310  11.167 -1.1002  0.8682  1.7679
 7943TIP3   OH245243   0.069   2.787  13.072 -0.3653 -0.0920  0.0578
 7943TIP3    H145244   0.039   2.772  13.162 -1.8291  1.1845 -0.1904
 7943TIP3    H245245   0.034   2.713  13.022 -1.2526  0.2493  0.1715
 7944TIP3   OH245246   5.494   2.740  10.606  0.2264  0.9916  0.4129
 7944TIP3    H145247   5.522   2.818  10.557  0.4289  0.2243 -0.7431
 7944TIP3    H245248   5.574   2.688  10.616 -0.0109  0.6707  0.6752
 7945TIP3   OH245249   0.281   1.346   0.987 -0.0393 -0.6136  0.2220
 7945TIP3    H145250   0.216   1.342   1.057 -0.3289 -2.0992 -0.0884
 7945TIP3    H245251   0.231   1.377   0.911  0.5731  2.4166  0.9127
 7946TIP3   OH245252   5.990   6.389   1.270  0.2179  0.5183 -0.0981
 7946TIP3    H145253   5.898   6.389   1.296  0.2544  0.4358  0.0298
 7946TIP3    H245254   6.034   6.447   1.331  0.0718  1.3860 -0.8020
 7947TIP3   OH245255   1.182   1.814  10.052 -0.5811 -0.1043  0.1358
 7947TIP3    H145256   1.182   1.718  10.053 -2.7193 -0.1354 -0.1160
 7947TIP3    H245257   1.261   1.836  10.003  1.7012 -1.6180  2.7917
 7948TIP3   OH245258   3.549   0.722   4.207 -0.2030  0.5076  0.2869
 7948TIP3    H145259   3.538   0.791   4.142 -0.4272  1.7864  1.6333
 7948TIP3    H245260   3.604   0.656   4.163  1.6427  2.3984 -0.4147
 7949TIP3   OH245261   5.913   5.817   3.386 -0.2590 -0.6197 -0.1808
 7949TIP3    H145262   5.875   5.751   3.444  0.3354 -1.1991 -0.4268
 7949TIP3    H245263   5.858   5.815   3.308 -0.5582 -0.4436  0.0261
 7950TIP3   OH245264   4.833   3.788   0.895  0.1644  0.0034 -0.2691
 7950TIP3    H145265   4.817   3.810   0.803  0.4143  1.2276 -0.0325
 7950TIP3    H245266   4.846   3.872   0.938 -1.4632 -0.4527  1.2019
 7951TIP3   OH245267   2.887   1.301   1.469  0.1123  0.0004 -0.3579
 7951TIP3    H145268   2.795   1.278   1.462  0.1650 -0.9740  1.3770
 7951TIP3    H245269   2.894   1.389   1.434 -1.7476  0.6522  0.8206
 7952TIP3   OH245270   0.767   3.379   2.207  0.0482  0.1969 -0.0875
 7952TIP3    H145271   0.724   3.439   2.145  0.5737 -0.3001 -0.9621
 7952TIP3    H245272   0.710   3.301   2.207  0.4378 -0.0957 -0.5326
 7953TIP3   OH245273   2.617   4.226  15.079  0.1253 -0.5656 -0.0170
 7953TIP3    H145274   2.573   4.150  15.116  0.3753 -0.5964  0.2188
 7953TIP3    H245275   2.602   4.296  15.142  0.7847 -0.6872  0.2826
 7954TIP3   OH245276   2.255   2.954   9.987 -0.1813  0.3826  0.0704
 7954TIP3    H145277   2.227   3.039  10.022  0.2066 -0.1400  1.7743
 7954TIP3    H245278   2.350   2.959   9.984 -0.1654  0.0832 -0.0082
 7955TIP3   OH245279   0.434   2.981  12.209 -0.1541  0.5210 -0.9407
 7955TIP3    H145280   0.429   3.076  12.220  0.0548  0.4341  0.0402
 7955TIP3    H245281   0.362   2.947  12.262 -0.2830  0.1310 -1.3606
 7956TIP3   OH245282   4.858   3.802  10.930 -0.1684 -0.3811  0.2078
 7956TIP3    H145283   4.895   3.887  10.952  1.1064 -0.0255 -2.9540
 7956TIP3    H245284   4.772   3.822  10.892  0.0138 -0.5359 -0.2860
 7957TIP3   OH245285   3.067   0.653   9.700 -0.6288  0.7601 -0.2938
 7957TIP3    H145286   3.100   0.574   9.745  0.0729  1.0845 -0.2197
 7957TIP3    H245287   2.974   0.656   9.723 -0.1778  1.2613  1.6914
 7958TIP3   OH245288   5.766   7.130  11.518  0.5015  0.1237  0.2483
 7958TIP3    H145289   5.773   7.149  11.425  3.3005  1.0982  0.5754
 7958TIP3    H245290   5.806   7.044  11.528  0.0529 -0.0557  0.5631
 7959TIP3   OH245291   3.157   1.118  13.616 -0.4593 -0.1521  0.2537
 7959TIP3    H145292   3.206   1.175  13.557 -0.1639  0.4089  1.0244
 7959TIP3    H245293   3.094   1.074  13.559  0.6262 -0.5543 -0.6783
 7960TIP3   OH245294   0.289   5.527   1.256  0.0790  0.3681  0.6846
 7960TIP3    H145295   0.205   5.504   1.218 -0.1917  0.6481  1.1081
 7960TIP3    H245296   0.336   5.571   1.185  0.9411 -2.1528 -0.4145
 7961TIP3   OH245297   1.462   4.686  15.240 -0.1928  0.3798 -0.2619
 7961TIP3    H145298   1.498   4.686  15.329  0.9986 -0.2041 -0.7235
 7961TIP3    H245299   1.383   4.740  15.246 -1.5609 -1.6606  1.7016
 7962TIP3   OH245300   1.001   2.890  11.899  0.0958  0.2653  0.1970
 7962TIP3    H145301   1.052   2.809  11.897  0.3317  0.4068  0.3905
 7962TIP3    H245302   0.958   2.891  11.984  0.9433  0.8506  0.6407
 7963TIP3   OH245303   1.409   6.185   3.271 -0.1054  0.4072  0.0186
 7963TIP3    H145304   1.421   6.280   3.274  1.0294  0.2707  0.0681
 7963TIP3    H245305   1.355   6.165   3.347 -1.4767  1.1548 -0.7135
 7964TIP3   OH245306   1.652   1.339  12.333  0.2080  0.1112 -0.1868
 7964TIP3    H145307   1.696   1.407  12.283  3.1960 -1.0813  0.6284
 7964TIP3    H245308   1.644   1.376  12.422  0.0732  0.0963 -0.1922
 7965TIP3   OH245309   1.893   7.160  12.205 -0.1165 -0.3292 -0.1065
 7965TIP3    H145310   1.823   7.226  12.204  1.7953  1.8486  0.1570
 7965TIP3    H245311   1.888   7.118  12.119  1.3014  3.3624 -2.2402
 7966TIP3   OH245312   1.020   5.132   1.878  0.6377 -0.0529  0.3015
 7966TIP3    H145313   0.956   5.066   1.849  0.2432  1.0292 -1.4002
 7966TIP3    H245314   1.080   5.083   1.935 -1.3714 -1.2299  1.5426
 7967TIP3   OH245315   5.212   4.901  13.044 -0.4731  0.4792 -0.2546
 7967TIP3    H145316   5.231   4.913  12.951 -3.5128  0.4894 -0.9572
 7967TIP3    H245317   5.191   4.989  13.075  3.2464  1.0411  1.3023
 7968TIP3   OH245318   6.593   0.784  14.800 -0.1748 -0.3017 -0.1104
 7968TIP3    H145319   6.639   0.729  14.863 -0.2639  0.7510  0.9121
 7968TIP3    H245320   6.501   0.776  14.824 -0.3054 -0.6082 -0.6988
 7969TIP3   OH245321   1.821   4.305  14.093  0.0846  0.0788  0.0104
 7969TIP3    H145322   1.805   4.386  14.142 -1.5057 -1.1118  1.6190
 7969TIP3    H245323   1.817   4.236  14.159  1.3994 -1.3434 -1.3103
 7970TIP3   OH245324   6.621   3.041   2.259  0.0676  0.4862  0.4068
 7970TIP3    H145325   6.671   3.022   2.179  0.6684 -1.1193  1.1329
 7970TIP3    H245326   6.674   3.106   2.305  0.5608  0.1833  0.2811
 7971TIP3   OH245327   0.164   4.603   0.159  0.0807 -0.1275  0.4776
 7971TIP3    H145328   0.152   4.697   0.145 -0.8307 -0.4530 -1.2936
 7971TIP3    H245329   0.135   4.588   0.249 -0.5310  1.1757  0.5169
 7972TIP3   OH245330   5.891   4.624   5.209 -0.0054  0.1638  0.0861
 7972TIP3    H145331   5.933   4.556   5.261 -0.4666 -0.9690 -0.9965
 7972TIP3    H245332   5.797   4.607   5.218 -0.0882 -1.7644 -3.2499
 7973TIP3   OH245333   2.315   1.489  10.899 -0.2154  0.0713 -0.5203
 7973TIP3    H145334   2.265   1.422  10.852 -0.7957 -1.0647  1.6032
 7973TIP3    H245335   2.341   1.551  10.831 -1.3430 -1.2601 -2.2610
 7974TIP3   OH245336   4.356   1.781  10.719  0.2138  0.2033 -0.0938
 7974TIP3    H145337   4.353   1.785  10.623 -0.1766  0.8681 -0.0524
 7974TIP3    H245338   4.446   1.804  10.741  0.9519 -2.1008 -0.3946
 7975TIP3   OH245339   6.945   2.682   0.507  0.2828  0.0196  0.4645
 7975TIP3    H145340   6.964   2.645   0.593  1.7803  0.0093  0.1679
 7975TIP3    H245341   6.862   2.642   0.481  1.2437 -2.2868  0.6519
 7976TIP3   OH245342   6.479   1.609   2.585  0.0218 -0.3128 -0.0370
 7976TIP3    H145343   6.495   1.697   2.619 -0.8933  0.3936 -1.3628
 7976TIP3    H245344   6.562   1.583   2.545  0.9402 -0.9230  2.1230
 7977TIP3   OH245345   2.390   2.353  13.656 -0.0071  0.2475  0.0702
 7977TIP3    H145346   2.295   2.342  13.660 -0.1285  1.2017 -0.0769
 7977TIP3    H245347   2.403   2.438  13.615  0.9327 -0.6824 -1.7192
 7978TIP3   OH245348   5.815   5.803  13.274  0.2457 -0.3592 -0.2234
 7978TIP3    H145349   5.824   5.892  13.239 -0.2857  0.1334  0.8589
 7978TIP3    H245350   5.780   5.752  13.201  0.2639  0.3841 -0.7610
 7979TIP3   OH245351   1.898   3.688  10.382  0.2308  0.3618 -0.0799
 7979TIP3    H145352   1.842   3.765  10.380 -0.4665 -0.1498 -1.0412
 7979TIP3    H245353   1.966   3.706  10.317 -1.6201 -1.0064 -2.5998
 7980TIP3   OH245354   2.956   2.400   1.718  0.3411 -0.1501 -0.0317
 7980TIP3    H145355   2.863   2.379   1.728 -0.8793  3.5797 -1.7782
 7980TIP3    H245356   2.984   2.429   1.805 -0.5422  0.0208  0.2064
 7981TIP3   OH245357   7.131   0.481  12.352 -0.1156 -0.3584 -0.3169
 7981TIP3    H145358   7.068   0.552  12.364  1.2380  0.9348 -0.4367
 7981TIP3    H245359   7.108   0.441  12.269 -0.2769  0.6481 -0.7685
 7982TIP3   OH245360   0.046   6.853   0.206  0.3283  0.3048 -0.2883
 7982TIP3    H145361  -0.040   6.848   0.248  0.6513 -2.5002  0.2271
 7982TIP3    H245362   0.027   6.853   0.113 -0.2452 -0.3265 -0.1773
 7983TIP3   OH245363   4.852   0.292  15.315 -0.1134  0.1979  0.4244
 7983TIP3    H145364   4.870   0.224  15.380  0.3062  0.4926  0.6225
 7983TIP3    H245365   4.902   0.265  15.238 -0.9417 -0.3737  0.0646
 7984TIP3   OH245366   3.805   4.427  13.253 -0.8733 -1.2785 -0.1704
 7984TIP3    H145367   3.735   4.447  13.316 -1.4815  0.6234 -1.3682
 7984TIP3    H245368   3.879   4.401  13.308 -0.8430  1.8995  1.5217
 7985TIP3   OH245369   4.372   4.263   1.590 -0.0560 -0.4180  0.9886
 7985TIP3    H145370   4.376   4.226   1.502  0.1530  2.1416 -0.1494
 7985TIP3    H245371   4.405   4.193   1.647  1.7439 -1.4489 -1.1669
 7986TIP3   OH245372   1.667   1.155  11.069 -0.1216 -0.5695  0.1167
 7986TIP3    H145373   1.738   1.137  11.131  0.2567 -0.9311 -0.4142
 7986TIP3    H245374   1.613   1.221  11.113 -0.3282 -1.4147  1.1995
 7987TIP3   OH245375   4.884   3.817  12.874 -0.0151 -0.2336  0.8210
 7987TIP3    H145376   4.904   3.910  12.860  1.0382 -0.4826  0.5884
 7987TIP3    H245377   4.827   3.816  12.951 -1.5376  0.7499 -0.2237
 7988TIP3   OH245378   4.125   0.759  14.730 -0.0774  0.0224  0.4749
 7988TIP3    H145379   4.037   0.793  14.715  0.8051  3.1589  1.5879
 7988TIP3    H245380   4.183   0.831  14.705  2.1474 -1.5934  0.6786
 7989TIP3   OH245381   6.359   4.406   1.159 -0.0191 -0.1132 -0.2907
 7989TIP3    H145382   6.368   4.350   1.236 -0.4679  1.0194  0.5953
 7989TIP3    H245383   6.449   4.426   1.134  0.1908 -1.8586 -1.1258
 7990TIP3   OH245384   5.870   6.306   2.460 -0.2833 -0.2904  0.0864
 7990TIP3    H145385   5.896   6.214   2.469 -1.4482 -0.8778 -1.9410
 7990TIP3    H245386   5.775   6.305   2.472 -0.3103  0.6591  0.0127
 7991TIP3   OH245387   3.949   0.133   1.571 -0.5740 -0.0156 -0.2970
 7991TIP3    H145388   3.990   0.117   1.486  2.3086 -1.8051  1.2956
 7991TIP3    H245389   3.885   0.062   1.580  1.1239 -1.5764  0.1228
 7992TIP3   OH245390   6.133   6.669  14.738  0.2859  0.3282  0.2675
 7992TIP3    H145391   6.202   6.674  14.672 -0.0686 -0.4782 -0.1839
 7992TIP3    H245392   6.173   6.621  14.810  1.2207  2.6562  1.3925
 7993TIP3   OH245393   7.013   0.518   1.506  0.2200  0.3105  1.0093
 7993TIP3    H145394   6.956   0.501   1.581 -0.0716  0.8938  0.9204
 7993TIP3    H245395   7.084   0.572   1.541  0.8159 -0.5265  1.1511
 7994TIP3   OH245396   7.057   2.312  13.397 -0.0026 -0.0463  0.1412
 7994TIP3    H145397   7.119   2.252  13.438 -0.0273 -0.7082 -0.7436
 7994TIP3    H245398   7.078   2.398  13.434  0.7312 -0.4335  0.6507
 7995TIP3   OH245399   6.058   0.335   2.551  0.4525 -0.2425 -0.7842
 7995TIP3    H145400   6.128   0.359   2.612 -0.8089 -0.5340  0.8200
 7995TIP3    H245401   6.025   0.419   2.518 -0.8442  0.1070  1.2663
 7996TIP3   OH245402   1.840   0.909   1.282  0.3491 -0.7131  0.3069
 7996TIP3    H145403   1.867   0.915   1.374 -1.6384  0.4082  0.8976
 7996TIP3    H245404   1.785   0.831   1.278 -2.0058  0.7855  0.8776
 7997TIP3   OH245405   0.165   1.885   0.355  0.1315  0.4914 -0.0818
 7997TIP3    H145406   0.084   1.860   0.311  0.1776 -0.7213  0.4913
 7997TIP3    H245407   0.230   1.891   0.284 -0.0862 -0.1646 -0.3442
 7998TIP3   OH245408   3.529   5.062   1.083 -0.3072 -0.1401  0.3993
 7998TIP3    H145409   3.509   5.043   1.175  0.1524  0.2937  0.5963
 7998TIP3    H245410   3.450   5.103   1.049 -0.2055  0.4118  0.8198
 7999TIP3   OH245411   0.821   3.531   9.512  0.0141 -0.4235  0.2321
 7999TIP3    H145412   0.770   3.608   9.488  1.4124 -0.1725 -2.3017
 7999TIP3    H245413   0.762   3.457   9.494 -0.0281 -0.0713 -1.1827
 8000TIP3   OH245414   5.277   0.077  10.070 -0.4724  0.4596  0.1632
 8000TIP3    H145415   5.366   0.078  10.105 -0.6249  0.5167  0.5632
 8000TIP3    H245416   5.233   0.147  10.118 -0.9033  0.0155  0.4187
 8001TIP3   OH245417   5.448   0.717  10.526  0.6122 -0.5182  0.6333
 8001TIP3    H145418   5.390   0.707  10.602  1.1108  0.7594  1.2079
 8001TIP3    H245419   5.428   0.804  10.492  0.8507 -0.8295 -0.3228
 8002TIP3   OH245420   0.680   1.831  13.732 -0.5552 -0.0220  0.0018
 8002TIP3    H145421   0.694   1.866  13.820 -1.9329 -1.1196  0.6830
 8002TIP3    H245422   0.587   1.809  13.729 -0.1766 -1.6394 -1.1164
 8003TIP3   OH245423   5.794   3.735  13.736 -0.0788  0.8160 -0.5195
 8003TIP3    H145424   5.751   3.656  13.768  0.0903  0.7895 -0.3595
 8003TIP3    H245425   5.800   3.722  13.641 -1.3433  1.2645 -0.6853
 8004TIP3   OH245426   1.211   4.668  13.445  0.3187 -0.2356 -0.2527
 8004TIP3    H145427   1.202   4.713  13.361 -1.0306  0.2468  0.1313
 8004TIP3    H245428   1.134   4.693  13.495  1.0955 -0.5019  1.1529
 8005TIP3   OH245429   4.915   1.257  11.184 -0.4352 -0.2368  1.1676
 8005TIP3    H145430   4.984   1.228  11.244 -0.6684 -0.6269  1.2551
 8005TIP3    H245431   4.962   1.301  11.113 -0.1509  0.1322  1.5828
 8006TIP3   OH245432   5.142   5.880  11.052  0.1264  0.1533  0.9840
 8006TIP3    H145433   5.218   5.917  11.096 -0.3336  3.6908 -0.7944
 8006TIP3    H245434   5.159   5.894  10.959 -2.1368 -0.1391  0.4704
 8007TIP3   OH245435   0.207   3.651  13.409 -0.3211  0.2472  0.6645
 8007TIP3    H145436   0.210   3.711  13.335  1.5516 -1.1244 -0.4787
 8007TIP3    H245437   0.286   3.671  13.460 -1.0041  0.4217  1.6965
 8008TIP3   OH245438   6.031   3.133  10.693 -0.5396  0.1357  0.0983
 8008TIP3    H145439   6.065   3.122  10.782 -0.0183  1.1110  0.0376
 8008TIP3    H245440   5.981   3.053  10.676  1.6946 -1.3626  0.2019
 8009TIP3   OH245441   3.184   4.742   9.787  0.2415  0.3682 -0.1139
 8009TIP3    H145442   3.242   4.680   9.742  0.5527 -1.4212  2.4457
 8009TIP3    H245443   3.175   4.815   9.727 -0.4515 -2.2787 -3.5751
 8010TIP3   OH245444   0.887   1.361  10.204 -0.6478 -0.3623  0.2532
 8010TIP3    H145445   0.954   1.415  10.247 -0.6696  1.3053 -1.6666
 8010TIP3    H245446   0.906   1.272  10.235  0.3556  0.4840  2.3370
 8011TIP3   OH245447   1.265   4.730   2.194  0.0453  0.5002  0.1591
 8011TIP3    H145448   1.351   4.752   2.157  0.0479 -0.2634 -0.3128
 8011TIP3    H245449   1.272   4.756   2.286  0.3433  1.6084 -0.1583
 8012TIP3   OH245450   2.899   5.909  14.211 -0.5102  0.4126 -0.5744
 8012TIP3    H145451   2.877   5.821  14.242 -2.0412 -0.0631 -2.7829
 8012TIP3    H245452   2.835   5.967  14.252 -1.2293  0.0828 -1.2107
 8013TIP3   OH245453   1.869   3.226   0.762 -0.2059 -0.3557  0.0243
 8013TIP3    H145454   1.859   3.146   0.814  1.1041 -0.7051 -0.2335
 8013TIP3    H245455   1.885   3.295   0.827  0.8408 -0.6915  0.1421
 8014TIP3   OH245456   3.079   2.409   9.531 -0.1909  0.2382 -0.2836
 8014TIP3    H145457   3.077   2.478   9.465  1.6780  0.1560 -0.4865
 8014TIP3    H245458   2.992   2.412   9.571 -1.1322  0.7504 -2.2430
 8015TIP3   OH245459   2.917   5.320  14.949  0.4205 -0.2661  0.7124
 8015TIP3    H145460   2.933   5.269  14.870 -1.3583 -1.3595  1.0062
 8015TIP3    H245461   2.963   5.272  15.018  3.7429  1.7816  0.1532
 8016TIP3   OH245462   2.580   5.318  10.873 -0.0722 -0.5467  0.3604
 8016TIP3    H145463   2.610   5.337  10.784 -4.0688  3.2189 -0.5802
 8016TIP3    H245464   2.489   5.289  10.862 -0.7452  0.1358  3.1606
 8017TIP3   OH245465   7.189   5.735   0.288 -0.1653 -0.4499  0.4448
 8017TIP3    H145466   7.139   5.702   0.214  2.8559  0.0111 -1.9874
 8017TIP3    H245467   7.218   5.657   0.334 -1.0513 -0.7786  0.4721
 8018TIP3   OH245468   0.876   6.465   4.874 -0.5348 -0.2873  0.1739
 8018TIP3    H145469   0.789   6.425   4.876 -2.6975  3.8287 -1.0288
 8018TIP3    H245470   0.903   6.467   4.966 -2.5150 -0.1537  0.7999
 8019TIP3   OH245471   1.159   6.290  13.735 -0.3794  0.3174 -0.1352
 8019TIP3    H145472   1.115   6.357  13.787 -2.0746 -0.5345 -0.4039
 8019TIP3    H245473   1.121   6.208  13.765  0.2872 -0.3701 -1.1286
 8020TIP3   OH245474   1.173   6.551   2.056  0.2587  0.0001  0.0005
 8020TIP3    H145475   1.179   6.515   1.968  1.0043 -1.5600  0.6423
 8020TIP3    H245476   1.094   6.512   2.093  1.4668 -1.6492  0.9550
 8021TIP3   OH245477   3.308   3.175   2.669 -0.0033  0.3107 -0.5337
 8021TIP3    H145478   3.274   3.211   2.587 -0.8122  1.2830  0.1946
 8021TIP3    H245479   3.286   3.082   2.666 -1.9284  0.7242 -0.5278
 8022TIP3   OH245480   2.255   4.336   2.804 -0.2405  0.1796  0.4839
 8022TIP3    H145481   2.240   4.362   2.713 -0.0446  3.2904  1.2464
 8022TIP3    H245482   2.345   4.362   2.822  0.1006 -1.4149  1.3125
 8023TIP3   OH245483   5.373   1.776  13.210  0.2484 -0.1254 -0.0763
 8023TIP3    H145484   5.305   1.710  13.197  0.5313  0.1195 -4.2473
 8023TIP3    H245485   5.455   1.727  13.204  0.4602  0.1104  0.8172
 8024TIP3   OH245486   0.950   5.796   9.717  0.1520  0.8155  0.3121
 8024TIP3    H145487   0.954   5.715   9.767  1.3685  1.7226  1.7744
 8024TIP3    H245488   0.857   5.817   9.713 -0.0652  0.0991  1.2103
 8025TIP3   OH245489   6.820   1.956  13.282 -0.0484  0.0867  0.4785
 8025TIP3    H145490   6.832   1.944  13.376  0.0842 -0.5107  0.3910
 8025TIP3    H245491   6.809   2.050  13.271 -1.6534  0.0399  1.2872
 8026TIP3   OH245492   6.032   4.269   1.619  0.1473  0.6355 -0.0419
 8026TIP3    H145493   6.123   4.286   1.595  1.1778  0.4911  3.1663
 8026TIP3    H245494   6.019   4.176   1.599 -0.3975  1.3076 -3.3046
 8027TIP3   OH245495   0.695   1.361   9.465 -0.2384 -0.1234 -0.4851
 8027TIP3    H145496   0.745   1.348   9.384  2.6550  0.0852  1.1244
 8027TIP3    H245497   0.707   1.453   9.486 -0.0379 -0.4047  0.7047
 8028TIP3   OH245498   1.587   3.538  14.437 -0.3312 -0.0919  0.1943
 8028TIP3    H145499   1.532   3.464  14.463 -0.1048  0.2706  1.7780
 8028TIP3    H245500   1.524   3.603  14.404 -0.7315 -0.2149  0.6959
 8029TIP3   OH245501   4.779   6.926   9.913 -0.8809 -0.2779 -0.0162
 8029TIP3    H145502   4.702   6.942   9.858 -1.8003 -0.0182  1.2942
 8029TIP3    H245503   4.854   6.942   9.855 -1.7609  2.3864 -0.5429
 8030TIP3   OH245504   6.014   5.742  11.496 -0.2381  0.5597 -0.3056
 8030TIP3    H145505   5.982   5.657  11.466 -0.9855  1.0048 -0.7821
 8030TIP3    H245506   6.018   5.796  11.417 -1.5078  1.5188  0.2508
 8031TIP3   OH245507   4.000   3.288  14.713 -0.4260  0.0801 -0.3296
 8031TIP3    H145508   4.008   3.243  14.628 -1.5200 -0.9759  0.1000
 8031TIP3    H245509   4.087   3.278  14.753  0.0102  0.3197 -1.1774
 8032TIP3   OH245510   4.521   2.939  12.645  0.3580  0.1531  0.2348
 8032TIP3    H145511   4.532   2.846  12.626 -1.7105 -0.6727  2.4496
 8032TIP3    H245512   4.574   2.954  12.723  0.3448  0.7340  0.1399
 8033TIP3   OH245513   2.464   3.024   0.585 -0.5532  0.0796 -0.0383
 8033TIP3    H145514   2.401   2.957   0.613 -0.6381  0.3346  0.3875
 8033TIP3    H245515   2.546   2.976   0.574 -0.9860 -0.4021 -1.3572
 8034TIP3   OH245516   0.297   1.948  15.192 -0.1078 -0.4758  0.6433
 8034TIP3    H145517   0.226   1.937  15.128  0.7184 -0.4413 -0.2988
 8034TIP3    H245518   0.263   2.012  15.255 -1.0009 -0.6396  0.3375
 8035TIP3   OH245519   0.019   3.532  11.391  0.0752 -0.4715 -0.1248
 8035TIP3    H145520   0.079   3.461  11.370  0.1666 -0.0343 -1.3885
 8035TIP3    H245521  -0.033   3.545  11.312  0.5665  1.3665 -0.1821
 8036TIP3   OH245522   5.289   5.748  14.538 -0.1643  0.0850 -0.0173
 8036TIP3    H145523   5.272   5.762  14.445  1.7026  0.8818 -0.2829
 8036TIP3    H245524   5.269   5.656  14.553 -2.7653  0.4744 -0.6224
 8037TIP3   OH245525   3.178   1.222  11.613 -0.1222 -0.5821 -0.7436
 8037TIP3    H145526   3.253   1.281  11.604  1.5128 -2.3585  0.3244
 8037TIP3    H245527   3.188   1.160  11.540 -2.1908  0.7409 -2.2567
 8038TIP3   OH245528   2.078   6.682   3.312  0.1634 -0.4212 -0.3648
 8038TIP3    H145529   2.095   6.679   3.406 -0.8305 -1.1872 -0.1944
 8038TIP3    H245530   2.165   6.679   3.273  0.6050  0.2958  0.5328
 8039TIP3   OH245531   7.187   5.919  13.286  0.5422  0.0124  0.0262
 8039TIP3    H145532   7.278   5.911  13.315  0.9863 -0.5662 -1.4492
 8039TIP3    H245533   7.180   6.009  13.254  1.0564 -0.3853 -1.2699
 8040TIP3   OH245534   6.299   5.854  11.453  0.2403 -0.1357 -0.1244
 8040TIP3    H145535   6.315   5.781  11.514 -1.4568 -0.8544 -0.4808
 8040TIP3    H245536   6.221   5.828  11.405 -0.4067  1.9254 -0.2860
 8041TIP3   OH245537   1.412   2.526   1.379  0.7797  0.1504  0.1422
 8041TIP3    H145538   1.461   2.507   1.299 -1.1987 -2.2432 -0.6354
 8041TIP3    H245539   1.356   2.601   1.355  0.0623 -0.6639 -0.8511
 8042TIP3   OH245540   1.386   6.033  12.815  0.0123 -0.2380 -0.0961
 8042TIP3    H145541   1.471   5.993  12.835 -0.9437 -3.2882 -1.4556
 8042TIP3    H245542   1.330   6.008  12.888 -0.0650  0.5881  0.1314
 8043TIP3   OH245543   0.516   4.701   1.018 -0.4061  0.5765 -0.6185
 8043TIP3    H145544   0.469   4.737   1.093 -1.4284 -0.6728 -0.6423
 8043TIP3    H245545   0.510   4.606   1.028  1.1059  0.3794 -1.2681
 8044TIP3   OH245546   6.662   6.434  11.039  0.0265 -0.3035  0.8340
 8044TIP3    H145547   6.756   6.424  11.025 -0.2463 -1.4447 -0.4027
 8044TIP3    H245548   6.644   6.378  11.115  0.4396  0.4825  1.5264
 8045TIP3   OH245549   4.239   7.084  10.825 -0.1855 -0.3695 -0.5864
 8045TIP3    H145550   4.239   7.114  10.734  0.2893 -1.2996 -0.8963
 8045TIP3    H245551   4.197   6.998  10.822  0.9789 -0.9652 -0.1124
 8046TIP3   OH245552   5.237   0.550   0.447  0.2147  0.1691 -0.3838
 8046TIP3    H145553   5.333   0.554   0.441  0.1951  0.6694 -0.4618
 8046TIP3    H245554   5.207   0.579   0.361 -0.0206  1.8304  0.2252
 8047TIP3   OH245555   6.512   5.479  15.275  0.9942 -0.3551 -0.7797
 8047TIP3    H145556   6.527   5.407  15.214  0.1358 -0.8056 -0.4741
 8047TIP3    H245557   6.569   5.459  15.349  0.1204 -1.1940 -0.3189
 8048TIP3   OH245558   0.901   4.005  10.105 -0.2651 -0.1300 -0.1517
 8048TIP3    H145559   0.986   4.016  10.148 -0.1692 -1.6253  0.1087
 8048TIP3    H245560   0.838   4.009  10.176 -0.2899 -0.3609 -0.1585
 8049TIP3   OH245561   0.373   2.770  13.445 -0.1216 -0.2981  0.0478
 8049TIP3    H145562   0.343   2.786  13.356  1.0992  1.9221 -0.0267
 8049TIP3    H245563   0.373   2.856  13.487  1.6597 -0.8923  1.4247
 8050TIP3   OH245564   3.341   0.929  14.272 -0.0491 -0.7756 -0.6315
 8050TIP3    H145565   3.323   0.860  14.208 -1.0235 -0.8546 -0.2950
 8050TIP3    H245566   3.348   0.882  14.356  0.2039 -0.5633 -0.5348
 8051TIP3   OH245567   6.116   7.050  10.503 -0.2569 -0.1497 -0.2659
 8051TIP3    H145568   6.072   6.991  10.564 -0.4182 -1.1720 -1.3341
 8051TIP3    H245569   6.107   7.137  10.543  0.5210 -0.8906  1.6436
 8052TIP3   OH245570   2.421   1.073   9.661 -0.0857  0.0391  0.4386
 8052TIP3    H145571   2.394   1.163   9.681 -0.9952 -0.1348  0.0387
 8052TIP3    H245572   2.460   1.078   9.574 -0.6568 -0.0398  0.1715
 8053TIP3   OH245573   4.969   4.614   9.839 -0.4579  0.3139 -0.3387
 8053TIP3    H145574   5.004   4.679   9.778 -0.5201  0.8507  0.1758
 8053TIP3    H245575   5.029   4.617   9.914  0.7852 -1.7882 -1.1791
 8054TIP3   OH245576   4.588   5.267  14.862  0.6774 -0.2601  0.1223
 8054TIP3    H145577   4.558   5.179  14.885  0.2242 -0.0924  0.1902
 8054TIP3    H245578   4.683   5.261  14.861  0.7474 -0.2097  2.3582
 8055TIP3   OH245579   5.461   6.252  10.764 -0.0422  0.4244  0.2786
 8055TIP3    H145580   5.390   6.264  10.827  0.1251 -1.0095  0.7597
 8055TIP3    H245581   5.416   6.244  10.680 -0.4348 -0.1848  0.5421
 8056TIP3   OH245582   4.204   3.969  14.738  0.4875  0.0533 -0.1518
 8056TIP3    H145583   4.112   3.973  14.710  0.3034 -2.2977 -0.1151
 8056TIP3    H245584   4.254   3.964  14.657  0.3051 -1.9296 -0.1812
 8057TIP3   OH245585   1.490   5.934  10.842 -0.4482  0.1802 -0.4003
 8057TIP3    H145586   1.456   5.867  10.902 -1.2027  0.7341 -0.1969
 8057TIP3    H245587   1.584   5.921  10.843 -0.2934  1.0016  1.9436
 8058TIP3   OH245588   0.828   5.723   0.328  0.0382  0.0791  0.1536
 8058TIP3    H145589   0.846   5.651   0.388  1.2121  1.3309  1.3950
 8058TIP3    H245590   0.899   5.785   0.344 -1.5123  2.0111 -0.0454
 8059TIP3   OH245591   4.729   6.925   2.135  0.0417  0.2360 -0.1247
 8059TIP3    H145592   4.819   6.892   2.133  0.0738  0.3070  0.0989
 8059TIP3    H245593   4.678   6.854   2.176  0.3249  0.9458  1.5482
 8060TIP3   OH245594   3.451   6.994  12.755  0.6157 -0.1420 -0.1567
 8060TIP3    H145595   3.475   6.946  12.834  0.0157  0.0283  0.1314
 8060TIP3    H245596   3.380   7.052  12.783 -1.6834 -2.1687 -1.4722
 8061TIP3   OH245597   1.282   1.473   4.034 -0.6638 -0.0382 -0.7409
 8061TIP3    H145598   1.367   1.428   4.040 -0.0575  1.0090 -1.0750
 8061TIP3    H245599   1.269   1.510   4.121 -0.4301  0.3923 -0.8870
 8062TIP3   OH245600   0.521   6.877   1.019  0.1648  0.2293  0.6011
 8062TIP3    H145601   0.558   6.954   0.977  0.0715 -1.3921 -2.8048
 8062TIP3    H245602   0.596   6.833   1.059  1.0524 -0.2201 -1.4600
 8063TIP3   OH245603   5.685   4.517   3.979  0.1446 -0.4904  0.5815
 8063TIP3    H145604   5.668   4.481   3.892  1.2691  1.5610 -0.5603
 8063TIP3    H245605   5.617   4.478   4.035 -1.1764 -1.1618 -1.3839
 8064TIP3   OH245606   5.591   0.253   1.036 -0.2489  0.8941  0.4334
 8064TIP3    H145607   5.531   0.179   1.039  0.2906  0.4012 -0.4449
 8064TIP3    H245608   5.573   0.295   0.952  0.9774  0.4181 -0.1036
 8065TIP3   OH245609   2.782   1.370   2.826 -0.2517  0.1640  0.0830
 8065TIP3    H145610   2.848   1.392   2.893  2.2945 -1.7020 -1.6436
 8065TIP3    H245611   2.738   1.292   2.860  0.9656 -0.7192 -0.2982
 8066TIP3   OH245612   5.721   2.690   0.223  0.4379 -0.2277 -0.3498
 8066TIP3    H145613   5.660   2.764   0.225  1.1417  0.3446  0.6085
 8066TIP3    H245614   5.739   2.676   0.130 -0.9058 -0.2167 -0.6286
 8067TIP3   OH245615   4.119   5.254  13.098 -1.0716 -0.3406 -0.0850
 8067TIP3    H145616   4.034   5.280  13.132 -0.2722  1.4477  0.6616
 8067TIP3    H245617   4.163   5.212  13.172 -0.4294  0.9164  0.2729
 8068TIP3   OH245618   1.100   5.846  13.727  0.1946  0.2598  0.3196
 8068TIP3    H145619   1.174   5.790  13.702  0.9968  1.1977  0.5414
 8068TIP3    H245620   1.134   5.901  13.798 -0.3401  1.5406 -0.3877
 8069TIP3   OH245621   6.806   4.729   1.043  0.5037 -0.3621 -0.0714
 8069TIP3    H145622   6.794   4.824   1.036 -1.3057 -0.4055  1.6003
 8069TIP3    H245623   6.870   4.718   1.113  1.6534 -0.3784 -1.1004
 8070TIP3   OH245624   2.344   6.238   0.576  0.3705 -0.4024 -0.3028
 8070TIP3    H145625   2.259   6.206   0.546  0.4701 -0.0275 -1.0146
 8070TIP3    H245626   2.323   6.315   0.628  0.2854 -0.1361 -0.7246
 8071TIP3   OH245627   3.426   7.170  10.544  0.2451  0.3869  0.7736
 8071TIP3    H145628   3.520   7.157  10.551  0.0293 -1.2995  1.1260
 8071TIP3    H245629   3.389   7.112  10.610 -1.1739 -2.1737 -1.9997
 8072TIP3   OH245630   5.926   3.183   0.156 -0.1646  0.3076 -0.5180
 8072TIP3    H145631   5.846   3.186   0.209  1.4023  2.4271  1.9321
 8072TIP3    H245632   5.943   3.274   0.133  1.4674 -0.1049 -1.0909
 8073TIP3   OH245633   1.835   1.864  10.221  0.0390 -0.5760  0.2454
 8073TIP3    H145634   1.815   1.844  10.312  1.9498 -0.0199  0.8249
 8073TIP3    H245635   1.778   1.939  10.201  0.2969 -0.0760  1.2995
 8074TIP3   OH245636   1.720   5.994   9.612  0.1582 -0.0411 -0.1697
 8074TIP3    H145637   1.805   5.988   9.567 -1.0468  0.8672 -2.8084
 8074TIP3    H245638   1.704   5.905   9.644  2.5644  0.0091  1.4691
 8075TIP3   OH245639   1.700   1.366  14.523  0.1718  0.1200 -0.4551
 8075TIP3    H145640   1.720   1.429  14.593  0.9878  0.0868 -0.6565
 8075TIP3    H245641   1.701   1.418  14.443  0.2997 -0.0430 -0.5603
 8076TIP3   OH245642   0.335   1.789   3.427  0.7244 -0.4320 -0.2351
 8076TIP3    H145643   0.428   1.774   3.408  0.8299 -1.4632  0.9404
 8076TIP3    H245644   0.335   1.831   3.513  0.0929 -1.5261  0.3319
 8077TIP3   OH245645   4.784   0.085  11.618  0.1579 -0.7994 -0.1695
 8077TIP3    H145646   4.774   0.180  11.614  1.3872 -0.6289  0.4246
 8077TIP3    H245647   4.841   0.064  11.544 -0.5672 -1.1640 -0.6414
 8078TIP3   OH245648   4.834   2.984  15.338  0.1302 -0.2757 -0.0728
 8078TIP3    H145649   4.853   2.955  15.428 -0.1297  0.8781  0.3703
 8078TIP3    H245650   4.915   3.026  15.310  0.7709 -2.0154 -0.9946
 8079TIP3   OH245651   5.175   4.592  13.510  0.0970 -0.1532 -0.3367
 8079TIP3    H145652   5.099   4.631  13.553 -1.6233 -0.8345 -2.5455
 8079TIP3    H245653   5.171   4.624  13.420  3.1028  0.6255 -0.3042
 8080TIP3   OH245654   3.039   5.545  15.128  0.4398  0.5901  0.5409
 8080TIP3    H145655   3.024   5.494  15.207 -0.4641  1.1518  0.7469
 8080TIP3    H245656   2.991   5.498  15.060 -1.3895  1.7299  0.9582
 8081TIP3   OH245657   2.939   2.381  11.467 -0.5874  0.3398  0.2696
 8081TIP3    H145658   3.027   2.344  11.466 -0.3848  0.7562  1.2708
 8081TIP3    H245659   2.943   2.450  11.533 -2.1288 -0.7906  1.6086
 8082TIP3   OH245660   5.843   0.101  11.280 -0.7634 -0.4325  0.7025
 8082TIP3    H145661   5.903   0.170  11.308  0.1891 -0.3785 -1.3213
 8082TIP3    H245662   5.777   0.147  11.228  0.2062 -1.0457 -1.1641
 8083TIP3   OH245663   4.167   0.039   9.453 -0.0472  0.3266 -0.3357
 8083TIP3    H145664   4.088   0.041   9.506  0.6798 -1.6093  0.9183
 8083TIP3    H245665   4.215  -0.037   9.484  1.9694  1.0098 -1.5760
 8084TIP3   OH245666   4.301   2.020  11.542  0.0789  0.1846 -0.2478
 8084TIP3    H145667   4.235   2.013  11.473  1.1526 -1.0371 -1.1891
 8084TIP3    H245668   4.383   1.993  11.500  0.8484 -0.0990  1.3647
 8085TIP3   OH245669   1.797   1.634   1.678 -0.6391 -0.1531 -0.0427
 8085TIP3    H145670   1.792   1.730   1.670 -1.6870  0.1314  2.9154
 8085TIP3    H245671   1.891   1.615   1.685 -0.4715  0.8035  0.4851
 8086TIP3   OH245672   5.482   4.544   9.981  0.8218  0.1524 -0.2777
 8086TIP3    H145673   5.488   4.501   9.895  2.6462  0.0004 -0.1144
 8086TIP3    H245674   5.549   4.501  10.034 -2.6803 -2.5321  2.5633
 8087TIP3   OH245675   1.163   5.043   0.712  0.0906  0.0541  0.7364
 8087TIP3    H145676   1.250   5.038   0.672  0.1430 -0.2552  0.8879
 8087TIP3    H245677   1.177   5.021   0.804 -0.3304 -1.2191  0.5119
 8088TIP3   OH245678   6.719   2.744  15.197  0.2993  0.2741  0.3689
 8088TIP3    H145679   6.624   2.744  15.210  0.3044  0.4600  0.3944
 8088TIP3    H245680   6.731   2.767  15.105  0.3246  0.3284  0.3860
 8089TIP3   OH245681   0.722   3.278  10.735 -0.4942  0.5046 -0.1942
 8089TIP3    H145682   0.683   3.299  10.821 -1.2835  1.2748 -0.7188
 8089TIP3    H245683   0.699   3.353  10.680 -1.3475 -0.6810 -1.5171
 8090TIP3   OH245684   6.037   3.467  11.746 -0.0942 -0.1177 -0.1101
 8090TIP3    H145685   6.022   3.531  11.676 -0.7755 -1.4709 -1.2611
 8090TIP3    H245686   5.952   3.458  11.789  0.0520 -0.1175  0.1815
 8091TIP3   OH245687   3.280   4.939  13.674 -0.2685 -0.2314  0.1885
 8091TIP3    H145688   3.271   5.004  13.604  0.8311  1.7388  1.7706
 8091TIP3    H245689   3.226   4.973  13.745  1.4625 -0.2528  1.5725
 8092TIP3   OH245690   5.829   1.722   3.856  0.2625  0.1481 -0.1719
 8092TIP3    H145691   5.855   1.786   3.922  0.7254  1.5550 -1.6585
 8092TIP3    H245692   5.901   1.721   3.793 -0.6319 -0.3197 -1.2307
 8093TIP3   OH245693   1.502   0.135  13.248  0.7352 -1.0398 -0.3956
 8093TIP3    H145694   1.516   0.078  13.172 -1.3673 -0.0709 -1.6083
 8093TIP3    H245695   1.412   0.118  13.274  0.3055  1.0895 -0.2943
 8094TIP3   OH245696   6.963   6.206   0.330  0.0757  0.7561  0.3011
 8094TIP3    H145697   6.944   6.136   0.267  0.0998  0.1862  0.9028
 8094TIP3    H245698   6.878   6.228   0.367  0.2507 -0.1725  1.3347
 8095TIP3   OH245699   0.494   3.971  10.034  0.1592 -0.6903 -0.4528
 8095TIP3    H145700   0.491   4.034   9.961 -0.0535  1.3295  1.1965
 8095TIP3    H245701   0.587   3.960  10.052  0.1955  1.0185  0.6809
 8096TIP3   OH245702   2.706   4.120   0.063 -0.5747 -0.1054  0.4556
 8096TIP3    H145703   2.799   4.142   0.053 -0.1610 -1.9219 -0.0507
 8096TIP3    H245704   2.660   4.179   0.003  0.3831 -0.1413 -0.3249
 8097TIP3   OH245705   4.997   1.861   2.145  0.1501  0.1493 -0.5158
 8097TIP3    H145706   5.029   1.951   2.137  0.7666  0.0387  0.5169
 8097TIP3    H245707   4.919   1.868   2.199 -0.0701  0.1189 -0.8306
 8098TIP3   OH245708   2.869   2.190  15.222 -0.3425 -0.3638 -0.0033
 8098TIP3    H145709   2.875   2.095  15.212  0.5403 -0.2485 -0.6879
 8098TIP3    H245710   2.861   2.223  15.133 -3.3317  0.0893  0.3108
 8099TIP3   OH245711   0.989   0.011  13.761 -0.4555 -0.2463  0.2097
 8099TIP3    H145712   0.986   0.049  13.673  1.3708 -1.7610 -0.5672
 8099TIP3    H245713   1.038   0.075  13.813  0.3364 -0.3293 -0.4226
 8100TIP3   OH245714   1.338   6.085   1.074 -0.2316  0.1181  0.4325
 8100TIP3    H145715   1.406   6.059   1.012  0.2888  1.0090  0.6043
 8100TIP3    H245716   1.256   6.072   1.027 -0.2039 -3.4770  1.0748
 8101TIP3   OH245717   2.269   4.993  11.167  0.0391  0.2517 -0.3031
 8101TIP3    H145718   2.217   4.978  11.088 -0.9278  2.6332 -0.2189
 8101TIP3    H245719   2.208   5.031  11.230  1.1852  0.0600  0.9776
 8102TIP3   OH245720   3.584   2.660  14.852  1.1953  0.3890 -0.6533
 8102TIP3    H145721   3.496   2.677  14.818  1.0111  1.3873  0.2932
 8102TIP3    H245722   3.569   2.605  14.929  1.4124  0.4158 -0.5913
 8103TIP3   OH245723   6.605   5.396  14.203  0.5563 -0.0804 -0.1238
 8103TIP3    H145724   6.669   5.457  14.166 -0.9171  2.2166  0.8975
 8103TIP3    H245725   6.540   5.384  14.133 -0.2343  1.2315  0.3536
 8104TIP3   OH245726   5.553   4.118  10.428 -0.2568  0.6833 -0.1663
 8104TIP3    H145727   5.554   4.042  10.370 -1.1042 -0.4159  1.1989
 8104TIP3    H245728   5.463   4.151  10.422 -0.1960  0.8993  0.1029
 8105TIP3   OH245729   3.722   6.371   0.123 -0.2272 -0.3491 -0.8768
 8105TIP3    H145730   3.671   6.321   0.187 -1.8714  1.6712 -0.5282
 8105TIP3    H245731   3.782   6.423   0.176 -0.5157  0.1858 -1.0770
 8106TIP3   OH245732   6.233   2.560   0.612 -0.6107 -0.1846 -0.0230
 8106TIP3    H145733   6.138   2.550   0.604 -0.6027 -1.7169  1.3520
 8106TIP3    H245734   6.264   2.476   0.645  1.3859 -0.1200 -1.5197
 8107TIP3   OH245735   2.789   1.551  12.075  0.2202 -0.0701 -0.1537
 8107TIP3    H145736   2.843   1.476  12.100 -0.9748 -0.9643 -0.1270
 8107TIP3    H245737   2.752   1.582  12.158 -0.7827 -0.6690 -0.3606
 8108TIP3   OH245738   1.078   0.438  10.525 -0.1792  0.1016 -0.6553
 8108TIP3    H145739   1.138   0.411  10.456 -0.3143 -1.8466 -0.0706
 8108TIP3    H245740   1.131   0.494  10.582  0.3691  0.4163 -1.4498
 8109TIP3   OH245741   2.405   4.782   2.326 -0.2628  0.0427  0.0779
 8109TIP3    H145742   2.493   4.810   2.350  0.8178 -2.1549 -1.0431
 8109TIP3    H245743   2.372   4.850   2.267  1.6756 -0.2885 -1.4573
 8110TIP3   OH245744   4.148   4.245  13.963 -0.0166  0.1957 -0.5502
 8110TIP3    H145745   4.244   4.251  13.957  0.0497  0.8008  0.6598
 8110TIP3    H245746   4.119   4.235  13.873  1.2655 -1.3671 -0.8394
 8111TIP3   OH245747   2.245   3.879   2.684  0.4234  0.0173  0.5042
 8111TIP3    H145748   2.197   3.911   2.761  0.8553  1.7091  0.1201
 8111TIP3    H245749   2.197   3.801   2.657 -0.0841 -0.2862  2.1343
 8112TIP3   OH245750   6.565   3.869   9.499 -1.0803  0.6900 -0.1840
 8112TIP3    H145751   6.509   3.824   9.563 -1.9166  2.0262  0.0571
 8112TIP3    H245752   6.524   3.850   9.414 -0.2861 -0.6231 -0.3013
 8113TIP3   OH245753   4.162   5.210   1.944 -0.1981 -0.5795 -0.0524
 8113TIP3    H145754   4.190   5.301   1.955  1.5572 -0.9204 -1.3808
 8113TIP3    H245755   4.066   5.215   1.943 -0.1420  1.2087  0.1531
 8114TIP3   OH245756   6.037   5.502  13.242 -0.7361  0.2180  0.1609
 8114TIP3    H145757   6.071   5.457  13.319  1.1668  3.4534  1.4135
 8114TIP3    H245758   5.960   5.549  13.273  0.4673  2.1345  0.3913
 8115TIP3   OH245759   1.694   2.477  11.784  0.4517 -0.1742 -0.3907
 8115TIP3    H145760   1.625   2.514  11.729 -0.6277 -1.3956  0.0842
 8115TIP3    H245761   1.726   2.401  11.735  0.1065 -0.7393  0.2495
 8116TIP3   OH245762   4.530   1.773  13.739  0.1670 -0.0825 -0.3507
 8116TIP3    H145763   4.584   1.795  13.815 -1.7329 -0.3145  1.1287
 8116TIP3    H245764   4.500   1.858  13.706 -1.0064 -0.0721  0.7011
 8117TIP3   OH245765   3.266   2.562   4.263 -0.1495 -0.1808  0.4555
 8117TIP3    H145766   3.305   2.579   4.349  0.0258 -0.9180  0.5342
 8117TIP3    H245767   3.195   2.626   4.256 -0.7321 -0.6758  1.5417
 8118TIP3   OH245768   3.134   1.265  12.607 -0.4413 -0.1213 -0.2618
 8118TIP3    H145769   3.113   1.274  12.700  0.9988 -2.9621  0.4477
 8118TIP3    H245770   3.223   1.301  12.599 -0.3426 -0.4029 -0.4248
 8119TIP3   OH245771   4.297   3.387   1.341 -0.2579 -0.4869 -0.3301
 8119TIP3    H145772   4.292   3.422   1.252 -2.2197  0.3391  0.0414
 8119TIP3    H245773   4.206   3.367   1.363  0.2082 -0.7675  1.4600
 8120TIP3   OH245774   2.126   1.817  10.670  0.2869  0.2853 -0.1502
 8120TIP3    H145775   2.140   1.741  10.614  0.3835  0.9727 -1.0782
 8120TIP3    H245776   2.125   1.782  10.759  1.2278 -0.6823 -0.5067
 8121TIP3   OH245777   1.477   2.516  13.642  0.0600  0.3851  0.3492
 8121TIP3    H145778   1.520   2.571  13.708  1.6683  0.2557 -0.5527
 8121TIP3    H245779   1.510   2.548  13.559 -1.0211 -0.2483 -0.3536
 8122TIP3   OH245780   4.720   1.239  13.215  0.6728 -0.6040  0.1641
 8122TIP3    H145781   4.751   1.287  13.292  1.9309 -0.5844 -0.3381
 8122TIP3    H245782   4.666   1.169  13.251 -0.3191  0.5268  0.9631
 8123TIP3   OH245783   1.341   1.595   2.863 -0.0385 -0.2442 -0.3407
 8123TIP3    H145784   1.254   1.570   2.829  0.3553 -1.3978 -0.5630
 8123TIP3    H245785   1.322   1.651   2.938 -0.9433  1.3954 -1.7173
 8124TIP3   OH245786   4.713   6.044   2.804 -0.6263 -0.0451 -0.1356
 8124TIP3    H145787   4.714   6.029   2.710  0.7002 -1.2130  0.0263
 8124TIP3    H245788   4.678   5.963   2.841  1.1129 -0.5726  0.4705
 8125TIP3   OH245789   1.712   5.538  10.744  0.0905  0.3020 -0.1816
 8125TIP3    H145790   1.699   5.620  10.791  2.8960 -0.8751  3.0477
 8125TIP3    H245791   1.653   5.476  10.787  0.6977 -0.1815 -0.0275
 8126TIP3   OH245792   5.940   2.580  10.485  0.0920  0.2724 -0.3317
 8126TIP3    H145793   6.030   2.582  10.452  0.1822  0.3764 -0.0888
 8126TIP3    H245794   5.914   2.488  10.479 -0.3794  0.4967 -1.9454
 8127TIP3   OH245795   1.347   4.894   1.867 -0.1714 -0.2643 -0.3018
 8127TIP3    H145796   1.360   4.861   1.778 -2.2175  1.1473 -1.2125
 8127TIP3    H245797   1.360   4.989   1.859  0.3801 -0.1980  1.1018
 8128TIP3   OH245798   0.328   3.753   2.403 -0.1600 -0.6402 -0.1118
 8128TIP3    H145799   0.252   3.699   2.382 -0.5002 -0.3539  0.3526
 8128TIP3    H245800   0.373   3.765   2.319 -2.2783  1.7138 -1.0838
 8129TIP3   OH245801   3.505   5.891  10.484 -0.4366 -0.1199 -0.2643
 8129TIP3    H145802   3.411   5.879  10.495 -0.2293 -0.5659  1.3035
 8129TIP3    H245803   3.524   5.977  10.520 -0.2153 -0.1051 -0.4085
 8130TIP3   OH245804   3.544   0.331   0.730 -0.3218  0.1544 -0.1532
 8130TIP3    H145805   3.504   0.336   0.644 -0.2878 -1.2507 -0.2762
 8130TIP3    H245806   3.485   0.276   0.782 -1.9997  3.4514  1.7368
 8131TIP3   OH245807   3.622   4.645   1.428 -0.1642 -0.3300 -0.3796
 8131TIP3    H145808   3.621   4.608   1.340  1.4286  0.8385 -0.9503
 8131TIP3    H245809   3.683   4.719   1.422 -2.3406  1.7278  0.9398
 8132TIP3   OH245810   4.909   7.154   0.788 -0.2525  0.3352  0.6373
 8132TIP3    H145811   5.000   7.151   0.817 -0.2758  2.8567  1.2360
 8132TIP3    H245812   4.913   7.142   0.693  0.6234 -0.2499  0.7440
 8133TIP3   OH245813   3.740   3.704   0.335  0.1615  0.2684  0.0838
 8133TIP3    H145814   3.745   3.644   0.260  0.7761 -0.5573  0.7715
 8133TIP3    H245815   3.785   3.783   0.305  2.3262 -0.8231  0.2759
 8134TIP3   OH245816   4.233   4.825   1.896 -0.1296  0.6642 -0.0038
 8134TIP3    H145817   4.304   4.812   1.834  0.0642  1.4206  0.0519
 8134TIP3    H245818   4.255   4.907   1.941  0.3089 -0.3950  1.8245
 8135TIP3   OH245819   5.404   2.109  12.718 -0.0907  0.1405  0.0387
 8135TIP3    H145820   5.447   2.114  12.803  0.9335  0.1293 -0.4694
 8135TIP3    H245821   5.473   2.128  12.655 -1.1830  1.8753 -0.7224
 8136TIP3   OH245822   4.851   2.749  11.420  0.2548  0.0370  0.2210
 8136TIP3    H145823   4.891   2.697  11.490 -1.0640 -0.1298  0.8913
 8136TIP3    H245824   4.760   2.720  11.419  0.4696 -0.7694 -2.3196
 8137TIP3   OH245825   6.928   6.056  13.354 -0.1987 -0.1847 -0.2395
 8137TIP3    H145826   6.970   6.000  13.420 -3.2410 -0.8922  1.3164
 8137TIP3    H245827   6.866   5.997  13.310  0.1719  0.8306 -2.2121
 8138TIP3   OH245828   0.606   3.921  11.551 -0.0390  0.3751 -0.5884
 8138TIP3    H145829   0.572   3.951  11.467 -2.2911  1.0299  0.4713
 8138TIP3    H245830   0.646   3.998  11.591  1.0473  0.0603 -1.0327
 8139TIP3   OH245831   0.652   5.213   0.714 -0.2483  0.2174  0.5194
 8139TIP3    H145832   0.745   5.192   0.727  0.0181  1.0004 -0.0242
 8139TIP3    H245833   0.639   5.207   0.619 -1.0434 -0.9888  0.6808
 8140TIP3   OH245834   6.411   5.806  12.634 -0.3376  0.2582 -0.0774
 8140TIP3    H145835   6.409   5.801  12.730 -0.5568 -0.7050 -0.1251
 8140TIP3    H245836   6.446   5.894  12.616  0.7729  0.0434  0.8779
 8141TIP3   OH245837   1.470   5.925  11.384  0.4116  0.3940 -0.6197
 8141TIP3    H145838   1.377   5.916  11.364 -0.1993 -0.3679  2.2050
 8141TIP3    H245839   1.479   6.013  11.420  0.5168  0.0149  0.3066
 8142TIP3   OH245840   5.107   3.791   1.102 -0.4558  0.5072  0.0161
 8142TIP3    H145841   5.123   3.875   1.146 -0.7260  0.6916 -0.2416
 8142TIP3    H245842   5.050   3.743   1.162  1.6419 -0.4768  1.3390
 8143TIP3   OH245843   3.976   7.074  14.139  0.2138  0.1706  0.1645
 8143TIP3    H145844   3.923   7.154  14.138 -0.7522 -0.4205 -1.9718
 8143TIP3    H245845   3.919   7.008  14.179  0.3740  0.1769  0.3999
 8144TIP3   OH245846   5.774   3.907   2.182  0.0120  0.3975  0.0439
 8144TIP3    H145847   5.781   3.972   2.252 -0.1778  0.2872  0.1694
 8144TIP3    H245848   5.686   3.918   2.148  0.8318  1.9540 -1.6985
 8145TIP3   OH245849   2.510   1.647   1.372 -0.1386 -0.7649 -0.0228
 8145TIP3    H145850   2.492   1.680   1.460 -1.3076 -2.6279  0.4962
 8145TIP3    H245851   2.442   1.687   1.317 -0.9294 -1.4734  0.4130
 8146TIP3   OH245852   2.413   5.667  15.261 -0.2153 -0.0910  0.6022
 8146TIP3    H145853   2.495   5.622  15.279  0.6990  0.9983 -0.7004
 8146TIP3    H245854   2.400   5.724  15.337  0.9150  0.6777  0.2419
 8147TIP3   OH245855   5.181   5.515  11.859 -0.0967 -0.3952  0.0525
 8147TIP3    H145856   5.170   5.526  11.764 -1.5639  0.4192  0.2739
 8147TIP3    H245857   5.105   5.463  11.886  1.3169 -2.3118  0.5532
 8148TIP3   OH245858   5.543   5.641  11.146 -0.0970  0.0980  0.2237
 8148TIP3    H145859   5.508   5.703  11.210 -3.1459 -0.1459 -1.0533
 8148TIP3    H245860   5.540   5.688  11.062  2.1298 -0.1972 -0.0915
 8149TIP3   OH245861   3.729   3.661  14.026 -0.7598 -0.0989  0.3462
 8149TIP3    H145862   3.727   3.565  14.036 -0.0046 -0.3519 -1.4650
 8149TIP3    H245863   3.727   3.674  13.931  1.0647  1.6405  0.5047
 8150TIP3   OH245864   1.637   5.592  12.061  0.4336 -0.6834  0.4461
 8150TIP3    H145865   1.681   5.515  12.097  0.3995 -1.1112 -0.4031
 8150TIP3    H245866   1.560   5.603  12.117 -0.1351 -1.9174 -0.0676
 8151TIP3   OH245867   0.737   2.407  10.050 -0.0597  0.2779 -0.0719
 8151TIP3    H145868   0.760   2.395   9.958 -0.0544  1.4984 -0.2563
 8151TIP3    H245869   0.810   2.370  10.099  0.0723 -0.1204 -0.5700
 8152TIP3   OH245870   4.995   5.809  12.734  0.4778  0.3660  0.2907
 8152TIP3    H145871   4.946   5.736  12.770 -1.6845  1.9536  0.7466
 8152TIP3    H245872   5.062   5.768  12.679  0.2058 -1.9466  1.5791
 8153TIP3   OH245873   4.811   6.933  15.209 -0.4896 -0.4354 -0.2749
 8153TIP3    H145874   4.762   7.007  15.244 -0.7750 -0.6625 -0.1834
 8153TIP3    H245875   4.749   6.859  15.214 -0.3215 -0.6080 -0.6645
 8154TIP3   OH245876   2.684   1.212  12.428 -0.5076  0.1140  0.5630
 8154TIP3    H145877   2.700   1.233  12.520  0.7194  1.7299  0.0128
 8154TIP3    H245878   2.765   1.170  12.398 -1.1842 -1.1430  0.3806
 8155TIP3   OH245879   2.111   5.115  13.552 -0.4471 -0.3185  0.1631
 8155TIP3    H145880   2.053   5.042  13.529 -0.4948 -0.3886  0.5096
 8155TIP3    H245881   2.074   5.151  13.633 -0.5957  0.2771 -0.1591
 8156TIP3   OH245882   5.856   3.654  13.475 -0.0116 -0.3326  0.6605
 8156TIP3    H145883   5.882   3.737  13.435  0.3174 -0.5125  0.4948
 8156TIP3    H245884   5.810   3.607  13.406 -0.3675 -0.2074  0.8123
 8157TIP3   OH245885   3.485   3.748  13.750 -0.3429  0.4496  0.2686
 8157TIP3    H145886   3.530   3.664  13.758  0.8204  1.2366  3.4492
 8157TIP3    H245887   3.524   3.789  13.674 -0.1001 -1.3612 -0.6488
 8158TIP3   OH245888   1.583   5.304   5.395  0.0775  0.1266 -0.7652
 8158TIP3    H145889   1.648   5.373   5.407 -0.6801  0.8645 -0.7271
 8158TIP3    H245890   1.513   5.327   5.457  0.0645 -1.0139 -0.3258
 8159TIP3   OH245891   4.979   5.354  12.931 -0.9632 -0.1046  0.0098
 8159TIP3    H145892   4.893   5.323  12.958 -0.8129 -0.7773 -0.2575
 8159TIP3    H245893   5.003   5.296  12.858  0.3494 -0.8760  1.0149
 8160TIP3   OH245894   5.996   1.743  14.423 -0.1808  0.5638 -0.1048
 8160TIP3    H145895   5.939   1.761  14.348  1.3172 -0.9285 -1.6929
 8160TIP3    H245896   6.073   1.798  14.408  0.9009 -1.0268 -0.6818
 8161TIP3   OH245897   5.833   6.949  14.371 -0.5700 -0.4619  0.0184
 8161TIP3    H145898   5.866   7.033  14.402  1.4811 -1.2675  0.1471
 8161TIP3    H245899   5.804   6.904  14.450 -1.9250  0.1866 -0.0781
 8162TIP3   OH245900   0.627   0.979   4.618 -0.2289 -0.3368 -0.1609
 8162TIP3    H145901   0.585   0.926   4.685 -1.5657 -1.5804 -1.8777
 8162TIP3    H245902   0.567   1.053   4.605  1.8405  2.0006  2.5350
 8163TIP3   OH245903   1.736   3.940  14.525 -0.2302  0.1863  0.6382
 8163TIP3    H145904   1.817   3.891  14.513 -0.5831 -1.0622  2.7643
 8163TIP3    H245905   1.670   3.890  14.476  0.0264  0.4906 -0.0330
 8164TIP3   OH245906   6.245   6.923  12.696  0.1734  0.3910  0.1602
 8164TIP3    H145907   6.258   6.845  12.642 -0.8329 -0.3746  0.9951
 8164TIP3    H245908   6.324   6.927  12.751 -0.3450 -0.8080  1.0291
 8165TIP3   OH245909   0.576   0.092   3.164 -0.0638  0.3047 -0.4347
 8165TIP3    H145910   0.492   0.133   3.182 -1.3852 -2.3980  0.0784
 8165TIP3    H245911   0.628   0.161   3.123 -2.0009  2.4776  0.5453
 8166TIP3   OH245912   1.551   4.423  13.052  0.2146 -0.1508 -0.1419
 8166TIP3    H145913   1.631   4.458  13.013  0.3645  0.8134  0.9611
 8166TIP3    H245914   1.550   4.460  13.141 -2.1682  1.0294 -0.5685
 8167TIP3   OH245915   2.089   0.721  10.404  0.0341 -0.3030  0.6146
 8167TIP3    H145916   2.077   0.697  10.496  1.3015 -1.2636  0.5668
 8167TIP3    H245917   2.152   0.657  10.371 -1.2483 -0.7063 -1.2461
 8168TIP3   OH245918   5.377   6.018   0.049 -0.0273 -0.8220  0.4748
 8168TIP3    H145919   5.406   6.106   0.025 -0.0532 -1.1891 -0.9985
 8168TIP3    H245920   5.282   6.020   0.037  0.0332 -1.2001 -0.1485
 8169TIP3   OH245921   3.009   6.872  14.297 -0.0157  0.0780  0.1592
 8169TIP3    H145922   3.087   6.874  14.242  0.6821 -0.6206  1.0951
 8169TIP3    H245923   3.041   6.889  14.386 -1.1989  1.7757  0.3026
 8170TIP3   OH245924   3.707   0.399   1.502 -0.3427  0.2159 -0.2176
 8170TIP3    H145925   3.736   0.389   1.593 -1.2441 -0.0206  0.0546
 8170TIP3    H245926   3.613   0.379   1.504  0.0531 -2.0587 -1.5870
 8171TIP3   OH245927   4.408   2.556   3.162  0.6618 -0.4185 -0.0797
 8171TIP3    H145928   4.465   2.630   3.143  0.3436 -0.2267 -0.2989
 8171TIP3    H245929   4.320   2.591   3.156  0.5226 -0.6547  0.5106
 8172TIP3   OH245930   4.370   3.256   0.928  0.2218 -0.4555 -0.0663
 8172TIP3    H145931   4.425   3.292   0.998 -0.4708  0.2934  0.1070
 8172TIP3    H245932   4.281   3.258   0.964  0.1831 -2.6966  0.0785
 8173TIP3   OH245933   6.421   6.405  10.303  0.3930 -0.5622  0.1842
 8173TIP3    H145934   6.415   6.311  10.287 -1.4591 -0.5788  0.8381
 8173TIP3    H245935   6.439   6.443  10.217 -0.3969 -1.3907 -0.3578
 8174TIP3   OH245936   3.520   0.122  15.052 -0.4450 -0.0526  0.1306
 8174TIP3    H145937   3.497   0.176  15.128 -1.1994 -2.3188  1.6238
 8174TIP3    H245938   3.475   0.039  15.067  1.3281 -1.4325 -1.6001
 8175TIP3   OH245939   3.284   0.306   5.619 -0.3003  0.1476 -0.8596
 8175TIP3    H145940   3.203   0.327   5.572 -0.9187  1.2309  0.6384
 8175TIP3    H245941   3.339   0.383   5.608 -0.0757  0.0235 -0.6072
 8176TIP3   OH245942   6.293   4.226  12.662  0.1610  0.0358  0.4190
 8176TIP3    H145943   6.257   4.281  12.593 -1.7196 -0.9498  0.5356
 8176TIP3    H245944   6.370   4.185  12.623 -1.4306 -1.3067 -1.5085
 8177TIP3   OH245945   4.280   6.176   5.293 -0.8921  0.1708 -0.4196
 8177TIP3    H145946   4.292   6.271   5.298  1.2858 -0.0866  4.0227
 8177TIP3    H245947   4.350   6.146   5.236 -1.1070  1.1325 -1.2230
 8178TIP3   OH245948   3.075   4.691   3.621  0.1842 -0.3543 -0.7491
 8178TIP3    H145949   3.147   4.751   3.603  0.4311 -0.4193  0.0034
 8178TIP3    H245950   3.113   4.604   3.607 -0.1615 -0.3561 -1.7990
 8179TIP3   OH245951   5.655   0.258   3.249 -0.2730  0.0528  0.3412
 8179TIP3    H145952   5.686   0.258   3.340  0.2345 -0.8692  0.1812
 8179TIP3    H245953   5.589   0.189   3.245  0.3066 -0.4880 -0.1719
 8180TIP3   OH245954   2.145   0.151   2.351 -0.5487  0.3450  0.3940
 8180TIP3    H145955   2.206   0.193   2.412 -0.5940 -1.5685  1.8830
 8180TIP3    H245956   2.063   0.144   2.401  0.2128 -3.9344  1.4704
 8181TIP3   OH245957   6.270   0.676   0.799  0.3024  0.4419 -0.1818
 8181TIP3    H145958   6.174   0.678   0.797  0.2542 -0.9153 -0.1298
 8181TIP3    H245959   6.293   0.592   0.760  1.4224  0.0608  1.2122
 8182TIP3   OH245960   0.685   6.126  12.643 -0.5411  0.4380  0.0301
 8182TIP3    H145961   0.761   6.107  12.699 -0.0469  2.1331  0.0026
 8182TIP3    H245962   0.699   6.217  12.615 -1.7233  0.2158 -1.3677
 8183TIP3   OH245963   1.420   2.265   0.029  0.0047 -0.7199  0.4692
 8183TIP3    H145964   1.402   2.171   0.038  0.7470 -1.0396 -1.0474
 8183TIP3    H245965   1.487   2.270  -0.038 -1.6285  1.0454 -1.1604
 8184TIP3   OH245966   3.282   5.274   1.356 -0.1666 -0.6489  0.0773
 8184TIP3    H145967   3.273   5.263   1.262  1.2838  0.7650 -0.2717
 8184TIP3    H245968   3.219   5.343   1.378 -1.1704 -1.6217  0.3271
 8185TIP3   OH245969   1.460   0.583   0.260 -0.4432  0.4268  0.2291
 8185TIP3    H145970   1.418   0.642   0.324  0.5657  1.3720  0.0402
 8185TIP3    H245971   1.546   0.565   0.297  0.2694  1.2191 -0.9993
 8186TIP3   OH245972   3.921   2.684   3.833 -0.1508 -0.4461 -0.0524
 8186TIP3    H145973   3.915   2.760   3.775  0.6634 -0.5168 -0.2462
 8186TIP3    H245974   3.946   2.720   3.918  2.6134 -0.6511 -0.6825
 8187TIP3   OH245975   5.345   3.754   3.782 -0.1240  0.1376 -0.0152
 8187TIP3    H145976   5.411   3.706   3.733  0.3253  0.8099 -0.0880
 8187TIP3    H245977   5.359   3.728   3.873 -0.3498 -0.4065 -0.1365
 8188TIP3   OH245978   1.989   1.686   4.305  0.3001  0.1114 -0.4020
 8188TIP3    H145979   2.041   1.693   4.385  0.8139  0.3606 -0.7509
 8188TIP3    H245980   1.926   1.758   4.310  0.2728  0.0718 -0.1795
 8189TIP3   OH245981   2.072   2.590   0.963 -0.3648 -0.5391 -0.1167
 8189TIP3    H145982   2.149   2.630   1.004  0.8665 -1.5979 -1.3052
 8189TIP3    H245983   2.003   2.655   0.973  0.5356  0.2355  1.4274
 8190TIP3   OH245984   1.817   5.483   3.175  0.2319 -0.0574  0.3370
 8190TIP3    H145985   1.778   5.531   3.248 -1.8907 -0.0101 -0.7518
 8190TIP3    H245986   1.853   5.551   3.118  0.0900  0.0316  0.3539
 8191TIP3   OH245987   2.428   0.090   2.797 -0.1845 -0.0165 -0.4678
 8191TIP3    H145988   2.348   0.087   2.850  0.8829 -2.2639  1.2323
 8191TIP3    H245989   2.415   0.022   2.731  0.4079 -0.6288  0.0270
 8192TIP3   OH245990   0.852   4.507  14.372 -0.2695 -0.1038  0.3886
 8192TIP3    H145991   0.862   4.592  14.416 -0.6885 -0.3852  1.0270
 8192TIP3    H245992   0.788   4.460  14.424 -0.4976 -0.5877 -0.3177
 8193TIP3   OH245993   5.900   5.561   5.328 -0.4252  0.3942 -0.3656
 8193TIP3    H145994   5.993   5.539   5.334 -0.1529  1.4886 -0.3571
 8193TIP3    H245995   5.857   5.503   5.391  0.4677  1.0092  0.8592
 8194TIP3   OH245996   5.543   3.003   2.652  0.9403 -0.0529  0.6450
 8194TIP3    H145997   5.588   3.000   2.737  0.8321  0.3084  0.7149
 8194TIP3    H245998   5.593   2.943   2.597  0.7570 -0.6265  1.0840
 8195TIP3   OH245999   7.000   1.792   1.933 -0.0568  0.1898  0.1998
 8195TIP3    H146000   6.981   1.864   1.872 -3.4457 -0.1262  0.6709
 8195TIP3    H246001   7.071   1.825   1.988  0.1709  2.1574 -1.1640
 8196TIP3   OH246002   5.943   4.471   5.463 -0.1145 -0.1001  0.0599
 8196TIP3    H146003   6.026   4.465   5.510 -1.6310 -0.9331  2.8299
 8196TIP3    H246004   5.895   4.540   5.508 -0.6591  1.0205 -2.0896
 8197TIP3   OH246005   0.594   4.976  13.917  0.4603 -0.2879  0.0196
 8197TIP3    H146006   0.561   4.894  13.881 -3.0715  0.5372  1.0033
 8197TIP3    H246007   0.620   4.955  14.006 -0.2821 -0.4053  0.2162
 8198TIP3   OH246008   3.978   7.168   2.210 -0.6421 -0.1414 -0.5035
 8198TIP3    H146009   3.922   7.120   2.271 -1.1267  0.9109 -0.0861
 8198TIP3    H246010   4.043   7.211   2.267  0.1424 -0.7547 -0.9184
 8199TIP3   OH246011   0.051   4.090  12.411  0.4994 -0.0344  0.2507
 8199TIP3    H146012  -0.024   4.132  12.452  0.9395  0.1378  0.8969
 8199TIP3    H246013   0.095   4.162  12.363 -0.8711 -0.5237 -1.8752
 8200TIP3   OH246014   0.880   5.674  12.396 -0.4195 -0.0505  0.2607
 8200TIP3    H146015   0.791   5.706  12.380 -0.5083 -0.7211 -0.6595
 8200TIP3    H246016   0.925   5.687  12.313 -0.2606 -1.6072  0.0798
 8201TIP3   OH246017   2.235   4.630   9.277 -0.1552  0.3867  0.3769
 8201TIP3    H146018   2.266   4.542   9.300 -1.2204  0.1984  1.1772
 8201TIP3    H246019   2.289   4.689   9.330 -1.4654  0.0281  2.2151
 8202TIP3   OH246020   5.099   5.673   0.145 -0.2609  0.7922  0.2430
 8202TIP3    H146021   5.047   5.728   0.204 -0.2620 -0.2389  1.2162
 8202TIP3    H246022   5.179   5.654   0.193 -0.2294 -0.0155 -0.1138
 8203TIP3   OH246023   3.741   1.136  12.996  0.2359 -0.3016  0.5121
 8203TIP3    H146024   3.770   1.227  12.984  1.4746 -0.7395  0.0167
 8203TIP3    H246025   3.687   1.118  12.918 -1.9498  0.6854  1.6953
 8204TIP3   OH246026   2.273   2.682  12.509  0.7605 -0.3569  0.3789
 8204TIP3    H146027   2.178   2.672  12.495  0.4673  0.8799  1.2958
 8204TIP3    H246028   2.294   2.616  12.575  0.3019  0.1274  1.0217
 8205TIP3   OH246029   1.474   1.642  10.632 -0.6415  0.1944 -0.3013
 8205TIP3    H146030   1.397   1.588  10.611 -0.5505 -0.2469  0.4380
 8205TIP3    H246031   1.440   1.709  10.692 -0.6595  0.6741 -0.8425
 8206TIP3   OH246032   3.035   1.838   1.639  0.2716 -0.0521  0.0852
 8206TIP3    H146033   3.005   1.831   1.548 -0.2723 -0.0198  0.2597
 8206TIP3    H246034   3.069   1.928   1.646  2.0213 -0.6238 -0.5843
 8207TIP3   OH246035   3.699   0.180   2.276 -0.1796  0.1110  0.6081
 8207TIP3    H146036   3.731   0.265   2.247 -2.4356  1.1603  0.9756
 8207TIP3    H246037   3.755   0.117   2.232 -0.5658  1.7093 -2.3973
 8208TIP3   OH246038   1.229   3.985  13.007  0.2479 -0.6135 -0.4133
 8208TIP3    H146039   1.185   3.992  13.091  0.7726 -1.7636 -0.0364
 8208TIP3    H246040   1.305   4.043  13.014 -1.0111  1.2044 -0.9880
 8209TIP3   OH246041   3.813   0.346   0.013 -0.3590  0.4483 -0.1062
 8209TIP3    H146042   3.792   0.320  -0.077 -0.8799  1.1971 -0.2139
 8209TIP3    H246043   3.839   0.438   0.006  0.5362  0.2483  0.3865
 8210TIP3   OH246044   1.929   3.063  12.293  0.3117 -0.8570  0.1585
 8210TIP3    H146045   1.912   2.969  12.302  3.8594 -1.8377 -1.4433
 8210TIP3    H246046   1.966   3.089  12.378 -2.9443 -0.1611  1.4970
 8211TIP3   OH246047   1.407   3.631  13.163  0.6773  0.0757 -0.6332
 8211TIP3    H146048   1.366   3.572  13.227 -0.2992  0.9084 -0.4653
 8211TIP3    H246049   1.472   3.679  13.214 -1.0243  1.7113  0.1214
 8212TIP3   OH246050   6.650   0.048  13.765 -0.0296  0.2802 -0.4236
 8212TIP3    H146051   6.638   0.008  13.678  0.2986  0.8182 -0.7204
 8212TIP3    H246052   6.698   0.129  13.747  3.0881 -1.1966  0.5615
 8213TIP3   OH246053   3.271   4.326  13.199 -1.1214 -0.5730 -0.2245
 8213TIP3    H146054   3.334   4.304  13.131 -1.6984 -2.4374 -0.2141
 8213TIP3    H246055   3.185   4.308  13.159 -1.7665  2.4215 -0.4361
 8214TIP3   OH246056   1.088   7.151  14.830  0.2162 -0.3628  0.4615
 8214TIP3    H146057   1.058   7.221  14.888 -0.1876 -0.1987  0.0638
 8214TIP3    H246058   1.114   7.197  14.750  0.2155 -0.6429  0.3016
 8215TIP3   OH246059   0.119   6.479  12.152 -0.0795 -0.2212 -0.4745
 8215TIP3    H146060   0.196   6.520  12.113 -0.3920  0.3483 -0.5058
 8215TIP3    H246061   0.053   6.548  12.151 -0.8353 -0.9420 -1.1713
 8216TIP3   OH246062   1.580   3.618  12.678  0.0692 -0.1582 -0.2958
 8216TIP3    H146063   1.548   3.598  12.766  0.5607 -0.3861 -0.1663
 8216TIP3    H246064   1.660   3.668  12.693 -0.6768  1.1820 -0.6126
 8217TIP3   OH246065   1.334   2.178  11.401  0.4482 -0.2529 -0.3467
 8217TIP3    H146066   1.418   2.206  11.365  0.4420 -1.9789 -1.8427
 8217TIP3    H246067   1.321   2.089  11.368 -0.9552 -0.8789  1.6390
 8218TIP3   OH246068   0.256   6.722  10.618 -0.3473  0.1907  0.2003
 8218TIP3    H146069   0.261   6.659  10.546  1.1217 -0.2711  0.6755
 8218TIP3    H246070   0.266   6.807  10.576  0.7141 -0.0875 -0.1339
 8219TIP3   OH246071   6.716   5.871  13.227  0.3031 -0.4860 -0.1842
 8219TIP3    H146072   6.798   5.823  13.232  0.1482 -0.6472  1.3054
 8219TIP3    H246073   6.653   5.817  13.275 -0.9761 -0.9009 -2.1987
 8220TIP3   OH246074   3.039   4.885  12.367 -0.0700  0.1321 -0.5376
 8220TIP3    H146075   3.030   4.809  12.424 -0.5282  0.9151  0.4708
 8220TIP3    H246076   2.979   4.868  12.295 -2.0169  0.5768  0.8887
 8221TIP3   OH246077   2.134   2.412   1.865 -0.5522  0.2937  0.4348
 8221TIP3    H146078   2.228   2.399   1.878 -0.7337 -0.2942  1.2159
 8221TIP3    H246079   2.124   2.507   1.857 -0.1096  0.5337  2.2824
 8222TIP3   OH246080   1.852   2.520  14.802  0.2737  0.1162 -0.1136
 8222TIP3    H146081   1.938   2.547  14.833  1.1344 -0.8872 -1.5504
 8222TIP3    H246082   1.863   2.505  14.708 -1.1874 -1.1263 -0.1316
 8223TIP3   OH246083   2.199   5.410  14.317 -0.0614 -0.3203 -0.3112
 8223TIP3    H146084   2.293   5.420  14.301  0.2456 -0.0854  1.4584
 8223TIP3    H246085   2.193   5.341  14.383 -1.0042  0.8398  0.8685
 8224TIP3   OH246086   3.842   3.722  11.556  0.1774  0.6876  0.0057
 8224TIP3    H146087   3.931   3.733  11.523  0.0632  2.0816  0.0776
 8224TIP3    H246088   3.794   3.795  11.517 -0.5339  0.9360  1.3109
 8225TIP3   OH246089   4.277   2.570  15.142 -0.6493 -0.1445 -0.4087
 8225TIP3    H146090   4.349   2.516  15.109 -2.5061 -1.0256 -3.3753
 8225TIP3    H246091   4.235   2.516  15.209  1.1863  0.2870  1.1895
 8226TIP3   OH246092   5.304   5.550  10.769 -0.2449 -0.9716 -0.4037
 8226TIP3    H146093   5.215   5.584  10.783 -0.3809 -1.5587  0.1867
 8226TIP3    H246094   5.358   5.596  10.833 -0.2454 -1.1128 -0.3019
 8227TIP3   OH246095   3.619   6.710   0.130  0.1949 -0.5881 -0.3255
 8227TIP3    H146096   3.652   6.768   0.198  0.9104  0.5526 -1.6206
 8227TIP3    H246097   3.697   6.674   0.088 -0.2340 -0.7990 -0.9600
 8228TIP3   OH246098   4.012   4.356   0.891 -0.2979  0.0056  0.1487
 8228TIP3    H146099   4.010   4.260   0.901  0.7970 -0.2123 -1.4447
 8228TIP3    H246100   3.979   4.371   0.802 -0.6803  1.1448  0.4703
 8229TIP3   OH246101   2.765   1.627  13.332  0.0916  0.2233  0.3590
 8229TIP3    H146102   2.765   1.559  13.264  0.1361 -1.0077  1.5484
 8229TIP3    H246103   2.795   1.706  13.287  0.1776 -0.5706 -1.0298
 8230TIP3   OH246104   4.174   4.036   0.737 -0.1551  0.2847 -0.2536
 8230TIP3    H146105   4.150   3.948   0.709 -2.9115 -0.0155  2.5912
 8230TIP3    H246106   4.223   4.023   0.818 -1.4523  1.3681  0.7364
 8231TIP3   OH246107   2.502   1.729  14.866  0.1342  0.4174  0.0279
 8231TIP3    H146108   2.481   1.657  14.806  0.4009 -0.2473  0.7163
 8231TIP3    H246109   2.438   1.797  14.844 -0.1799 -0.0579 -0.5827
 8232TIP3   OH246110   5.221   2.135  10.262 -0.2816 -0.2015 -0.3163
 8232TIP3    H146111   5.136   2.175  10.279 -0.6051 -0.8371 -0.4115
 8232TIP3    H246112   5.201   2.044  10.241  0.3943 -0.2750 -0.6744
 8233TIP3   OH246113   2.049   0.588  14.829  0.1724 -0.3423 -0.1128
 8233TIP3    H146114   2.003   0.670  14.844 -0.3763 -0.5099 -0.8884
 8233TIP3    H246115   2.078   0.561  14.917  1.1555  1.1301  0.0427
 8234TIP3   OH246116   0.075   5.317   3.523  0.0933 -0.5653  0.8012
 8234TIP3    H146117   0.063   5.375   3.448 -1.3242 -2.3969 -0.4625
 8234TIP3    H246118   0.158   5.273   3.507 -0.8862 -2.0214 -0.5139
 8235TIP3   OH246119   3.104   0.844  12.150  0.2900  0.3816 -0.4807
 8235TIP3    H146120   3.096   0.749  12.141  0.7352  0.3438 -0.4964
 8235TIP3    H246121   3.193   0.857  12.180 -0.0639  0.7409  0.4360
 8236TIP3   OH246122   4.920   1.985  14.239  0.5328  0.0414 -0.6963
 8236TIP3    H146123   4.911   1.955  14.148 -0.9174  0.0874 -0.5992
 8236TIP3    H246124   5.008   1.957  14.265  0.1772 -1.9312 -1.4195
 8237TIP3   OH246125   3.114   3.415   3.020  0.0725  0.1829  0.3467
 8237TIP3    H146126   3.147   3.501   3.048  0.3733  0.4069 -0.6695
 8237TIP3    H246127   3.181   3.381   2.962 -1.2487  0.4417 -1.4087
 8238TIP3   OH246128   1.644   4.040  12.216  0.1559  0.2328 -0.2419
 8238TIP3    H146129   1.610   4.126  12.240 -0.8501 -0.4551  0.8484
 8238TIP3    H246130   1.567   3.989  12.193  0.4261 -1.2271  1.8455
 8239TIP3   OH246131   6.096   0.942  10.518  0.1308  0.7415  0.3820
 8239TIP3    H146132   6.131   0.914  10.434 -2.0734  0.6014 -0.5531
 8239TIP3    H246133   6.146   1.021  10.539  1.1409  0.4308 -0.7223
 8240TIP3   OH246134   3.341   5.130   1.585  0.5787 -0.9228  0.3831
 8240TIP3    H146135   3.327   5.195   1.517  1.4425 -0.7126  0.3893
 8240TIP3    H246136   3.395   5.175   1.651  0.1564 -1.2674  0.9744
 8241TIP3   OH246137   1.733   7.084  13.823 -0.6083  0.3229 -0.5981
 8241TIP3    H146138   1.667   7.123  13.880  1.1752  2.6478  0.0158
 8241TIP3    H246139   1.687   7.071  13.740 -1.4971  3.3315 -0.6866
 8242TIP3   OH246140   0.242   7.148   5.268 -0.0038 -0.0538 -0.3756
 8242TIP3    H146141   0.236   7.090   5.344  1.0616 -0.2799 -0.4497
 8242TIP3    H246142   0.177   7.216   5.285 -1.1385 -1.1551 -0.2037
 8243TIP3   OH246143   6.802   5.133  15.085  0.1589  0.1029  0.2932
 8243TIP3    H146144   6.775   5.084  15.163 -1.3089 -0.7219 -0.6902
 8243TIP3    H246145   6.862   5.074  15.040 -0.0014  0.0536  0.1454
 8244TIP3   OH246146   1.397   3.370  11.516 -0.2193  0.0477  0.4224
 8244TIP3    H146147   1.475   3.316  11.502 -0.7630 -0.7020  0.2581
 8244TIP3    H246148   1.371   3.397  11.428  0.5584  1.3375  0.5540
 8245TIP3   OH246149   5.006   3.047  14.055 -0.0915 -0.1304  0.2605
 8245TIP3    H146150   4.946   2.987  14.010 -0.2246 -0.3316  0.7013
 8245TIP3    H246151   5.033   2.999  14.134  0.3043  0.1354  0.2918
 8246TIP3   OH246152   4.890   1.487  10.710  0.0943 -0.0155 -0.5369
 8246TIP3    H146153   4.948   1.527  10.774 -0.4693  1.3244 -0.8206
 8246TIP3    H246154   4.942   1.418  10.669  0.6884 -0.4307  0.8459
 8247TIP3   OH246155   1.464   1.999  15.335  0.1422 -0.1570  0.0727
 8247TIP3    H146156   1.558   1.978  15.338  0.1368 -0.3154 -0.6620
 8247TIP3    H246157   1.434   1.986  15.425  0.7909 -0.2753  0.2784
 8248TIP3   OH246158   6.428   4.033  11.749  0.3660  0.1946  0.4023
 8248TIP3    H146159   6.460   4.002  11.834  0.3285 -1.9212 -0.2981
 8248TIP3    H246160   6.333   4.030  11.756  0.3319  1.3758  0.7145
 8249TIP3   OH246161   5.251   6.752   1.807 -0.5517 -0.9548 -0.6090
 8249TIP3    H146162   5.225   6.752   1.900 -1.2755 -1.6496 -0.7940
 8249TIP3    H246163   5.252   6.660   1.783 -0.8295 -0.7576 -1.4123
 8250TIP3   OH246164   3.576   5.388  12.926 -0.1943 -0.2239  0.2724
 8250TIP3    H146165   3.489   5.388  12.966 -1.0779 -1.1708 -1.5606
 8250TIP3    H246166   3.565   5.437  12.844  0.5413 -1.8866 -0.8595
 8251TIP3   OH246167   5.729   5.536   2.578  0.2309 -0.0403 -0.2820
 8251TIP3    H146168   5.756   5.567   2.664  0.9374 -0.4051 -0.3670
 8251TIP3    H246169   5.758   5.604   2.518  0.8679 -0.3718 -0.3593
 8252TIP3   OH246170   2.878   3.670   4.620  0.2331  0.2162 -0.3135
 8252TIP3    H146171   2.809   3.613   4.653 -0.1900  1.0507  0.2994
 8252TIP3    H246172   2.909   3.627   4.541 -0.2202 -0.7423  0.0143
 8253TIP3   OH246173   4.930   4.315  10.039  0.4799 -0.2998  0.4535
 8253TIP3    H146174   4.866   4.324   9.969  1.0343  2.8290  0.2258
 8253TIP3    H246175   5.015   4.319   9.994  0.8385 -0.1852  1.1329
 8254TIP3   OH246176   5.653   2.487   1.281  0.3311  0.3768 -0.8032
 8254TIP3    H146177   5.685   2.452   1.364 -1.3243  2.5631  0.9014
 8254TIP3    H246178   5.590   2.423   1.249  0.6831 -0.2993 -0.1479
 8255TIP3   OH246179   6.367   0.661  11.938 -0.4235 -0.0493 -0.0608
 8255TIP3    H146180   6.284   0.672  11.892 -0.3968 -0.0527 -0.1096
 8255TIP3    H246181   6.430   0.638  11.869  0.0378  1.8357 -0.3301
 8256TIP3   OH246182   3.463   3.415  12.494  0.5542  0.1402 -0.9135
 8256TIP3    H146183   3.506   3.334  12.523  1.0107  0.4933 -0.6026
 8256TIP3    H246184   3.507   3.485  12.542 -1.5020  0.4046  0.7574
 8257TIP3   OH246185   5.456   6.611  15.196 -0.6059  0.3948  0.2637
 8257TIP3    H146186   5.419   6.525  15.219 -1.4412 -0.0150 -2.2966
 8257TIP3    H246187   5.488   6.646  15.279 -2.1034 -1.4975  1.7438
 8258TIP3   OH246188   2.703   5.032  13.223  0.3911  0.1270  0.0497
 8258TIP3    H146189   2.700   4.949  13.272 -0.8972  0.6618  0.9477
 8258TIP3    H246190   2.770   5.018  13.156  0.0514 -1.7279  0.0366
 8259TIP3   OH246191   2.951   3.432   1.450 -0.2832  0.1390  0.3111
 8259TIP3    H146192   2.930   3.413   1.541  0.4988 -0.8731  0.2910
 8259TIP3    H246193   2.970   3.347   1.410  2.0628  0.7609 -0.1008
 8260TIP3   OH246194   1.526   3.492   1.725  0.2489 -0.2091  0.1603
 8260TIP3    H146195   1.583   3.514   1.651 -1.4814 -1.0563 -1.5182
 8260TIP3    H246196   1.493   3.577   1.755  0.3822  0.1034 -0.5517
 8261TIP3   OH246197   5.750   5.619   9.344 -0.2511  0.3261 -0.1688
 8261TIP3    H146198   5.735   5.713   9.350 -0.1676  0.2617  1.3721
 8261TIP3    H246199   5.699   5.592   9.267 -0.9994  1.4825 -0.1056
 8262TIP3   OH246200   1.233   1.683  15.080  0.4925 -0.1100 -0.5570
 8262TIP3    H146201   1.320   1.646  15.096 -0.0014 -1.0453  0.0437
 8262TIP3    H246202   1.246   1.777  15.086  1.5381 -0.2218 -0.8349
 8263TIP3   OH246203   2.540   2.973  15.077  0.3515 -0.1476  0.6856
 8263TIP3    H146204   2.585   3.057  15.086  0.9092 -0.2490 -0.8863
 8263TIP3    H246205   2.605   2.915  15.038  0.7070 -1.9830  3.6459
 8264TIP3   OH246206   5.388   4.159  14.562  0.2075 -0.2057 -0.3866
 8264TIP3    H146207   5.296   4.133  14.575 -0.1918  0.4305 -1.6933
 8264TIP3    H246208   5.438   4.081  14.585 -0.7309 -0.9260 -0.6924
 8265TIP3   OH246209   4.989   5.516  13.441 -0.0168  0.1549  0.4008
 8265TIP3    H146210   5.056   5.502  13.375 -0.7022 -0.5783 -0.1676
 8265TIP3    H246211   5.034   5.557  13.514  1.2237 -1.0920  0.3709
 8266TIP3   OH246212   0.646   5.088  11.524  0.5086  0.2013 -0.7718
 8266TIP3    H146213   0.735   5.082  11.490  1.1266 -0.1380  0.7977
 8266TIP3    H246214   0.623   5.181  11.516  1.4671  0.5066 -0.1577
 8267TIP3   OH246215   6.063   2.744  13.177 -0.5325 -0.4935  0.2086
 8267TIP3    H146216   6.025   2.823  13.214 -0.5386  0.3960 -1.6227
 8267TIP3    H246217   6.133   2.720  13.238 -0.7848  0.6881  0.9881
 8268TIP3   OH246218   5.685   4.597  14.123  0.1618 -0.7268 -0.2477
 8268TIP3    H146219   5.720   4.578  14.036  1.0398  0.7382 -0.2519
 8268TIP3    H246220   5.630   4.674  14.110  1.6617  0.5778  0.7406
 8269TIP3   OH246221   4.572   1.855  14.892  0.0746 -0.1434 -0.0162
 8269TIP3    H146222   4.487   1.838  14.851 -0.4033  0.4020  0.7182
 8269TIP3    H246223   4.629   1.785  14.860 -1.1997 -1.7568  1.0569
 8270TIP3   OH246224   2.613   5.907   5.800 -0.0549 -0.5397 -0.2880
 8270TIP3    H146225   2.558   5.951   5.735 -0.3750 -1.2711 -0.5218
 8270TIP3    H246226   2.688   5.966   5.811 -0.8908  0.4785  0.0703
 8271TIP3   OH246227   2.312   0.175  12.481 -0.3820 -0.2223 -0.0995
 8271TIP3    H146228   2.363   0.254  12.501 -1.1804  0.0688  0.8848
 8271TIP3    H246229   2.370   0.102  12.504 -0.3929  0.1051  1.0050
 8272TIP3   OH246230   3.433   6.017   1.015 -0.0801 -0.1305 -0.7170
 8272TIP3    H146231   3.527   6.016   1.037 -0.3162 -1.2473  0.3280
 8272TIP3    H246232   3.396   5.946   1.066 -1.5493  0.4165 -0.9908
 8273TIP3   OH246233   0.646   6.787  14.022 -0.4726  0.2972 -0.3548
 8273TIP3    H146234   0.691   6.777  13.938 -0.2220  2.3623 -0.5388
 8273TIP3    H246235   0.563   6.830  14.000 -0.0070  1.7159  0.4897
 8274TIP3   OH246236   1.771   1.668   2.511  0.0157  0.2534  0.7754
 8274TIP3    H146237   1.711   1.596   2.491 -0.8529  0.4953  2.3880
 8274TIP3    H246238   1.790   1.659   2.605  2.7213  0.0380  0.3080
 8275TIP3   OH246239   5.893   3.722  11.889 -0.2180 -0.3705  0.5660
 8275TIP3    H146240   5.883   3.696  11.980 -0.4484 -0.8489  0.4077
 8275TIP3    H246241   5.979   3.689  11.864  0.4436  0.9639  1.0038
 8276TIP3   OH246242   0.228   2.755  11.389 -0.3668  0.0781  0.1467
 8276TIP3    H146243   0.135   2.733  11.391 -0.4770  0.4281 -0.5137
 8276TIP3    H246244   0.268   2.686  11.337 -0.3920  0.3507 -0.2420
 8277TIP3   OH246245   2.778   1.689  11.577  0.5377 -0.1071  0.6812
 8277TIP3    H146246   2.841   1.723  11.641 -2.0757  0.7019  3.0273
 8277TIP3    H246247   2.784   1.594  11.585  1.4954 -0.0502  0.7889
 8278TIP3   OH246248   0.219   5.270  13.989  0.0326  0.4845  0.1788
 8278TIP3    H146249   0.275   5.200  13.954  0.2978  0.0413  1.4363
 8278TIP3    H246250   0.195   5.240  14.076  0.4237  2.1168  0.8793
 8279TIP3   OH246251   6.348   2.159   0.051  0.8560  0.0616  0.1819
 8279TIP3    H146252   6.292   2.162  -0.026 -0.4429  1.5503  1.1227
 8279TIP3    H246253   6.291   2.125   0.120  1.5980  0.0366  0.7998
 8280TIP3   OH246254   5.655   1.976  14.207 -0.0698  0.5471  0.0280
 8280TIP3    H146255   5.684   2.066  14.191 -1.3878  0.7800 -1.3134
 8280TIP3    H246256   5.577   1.985  14.261 -0.2282  0.2219 -0.1419
 8281TIP3   OH246257   1.885   3.493   1.175 -0.2244  0.0250 -0.0640
 8281TIP3    H146258   1.810   3.455   1.223  0.2253 -1.8388 -0.7387
 8281TIP3    H246259   1.896   3.580   1.213 -0.2524 -1.1097  2.8744
 8282TIP3   OH246260   3.552   4.858  13.469  0.3554 -0.4388 -0.2061
 8282TIP3    H146261   3.497   4.806  13.411 -0.8390  1.9391 -1.3338
 8282TIP3    H246262   3.493   4.927  13.502  1.5880 -0.3638  2.0316
 8283TIP3   OH246263   1.268   5.188  13.017  0.2040  0.1704 -0.0308
 8283TIP3    H146264   1.208   5.190  13.092  2.1009  1.0161  1.5408
 8283TIP3    H246265   1.334   5.123  13.039  0.3078 -0.2292 -1.4025
 8284TIP3   OH246266   6.308   2.206   4.725  0.9046 -0.0279 -0.5137
 8284TIP3    H146267   6.309   2.229   4.818 -1.4500  1.6671 -0.8156
 8284TIP3    H246268   6.328   2.288   4.680 -1.2739  0.0352 -1.5051
 8285TIP3   OH246269   3.207   3.280   2.200 -0.1704 -0.5389  0.5719
 8285TIP3    H146270   3.224   3.237   2.116  1.2509  0.0986  0.5123
 8285TIP3    H246271   3.150   3.354   2.178 -0.7267 -1.0277  0.3410
 8286TIP3   OH246272   1.993   0.050   1.321 -0.3042 -0.1286 -0.3427
 8286TIP3    H146273   2.002  -0.044   1.308 -1.6155 -0.0632 -2.1468
 8286TIP3    H246274   2.026   0.090   1.240 -1.1667  0.8434 -0.2518
 8287TIP3   OH246275   3.652   6.281  11.236 -0.3486  0.0507 -0.0072
 8287TIP3    H146276   3.746   6.265  11.229 -0.3893 -0.1842 -0.0155
 8287TIP3    H246277   3.626   6.308  11.148 -0.1904  0.6544  0.1241
 8288TIP3   OH246278   0.258   3.714  11.017  0.0820 -0.1091 -0.1522
 8288TIP3    H146279   0.309   3.635  11.000  1.2848  0.9127 -1.5610
 8288TIP3    H246280   0.267   3.767  10.938 -1.1076  1.2288  0.5459
 8289TIP3   OH246281   3.415   3.386  13.576  0.0511 -0.2053  0.0984
 8289TIP3    H146282   3.448   3.385  13.486 -0.5499  1.4454 -0.1618
 8289TIP3    H246283   3.484   3.428  13.627 -0.4569  0.7012  0.0457
 8290TIP3   OH246284   4.987   6.401  10.197 -0.4926  0.2194  0.5407
 8290TIP3    H146285   4.947   6.338  10.137 -1.2456  0.7029  0.5179
 8290TIP3    H246286   5.064   6.434  10.150 -0.7095  0.1140  0.1074
 8291TIP3   OH246287   3.189   2.201   9.386  0.6358 -0.2093 -0.1644
 8291TIP3    H146288   3.166   2.266   9.452 -1.3385 -0.6640 -0.3438
 8291TIP3    H246289   3.181   2.117   9.431  0.0010 -0.4818 -0.7625
 8292TIP3   OH246290   5.851   4.210   1.103 -0.2344 -0.0176  0.0376
 8292TIP3    H146291   5.904   4.245   1.175 -1.9710  0.5719  1.0924
 8292TIP3    H246292   5.860   4.115   1.112  0.7223  0.0628  0.1104
 8293TIP3   OH246293   4.627   6.385  14.191  0.1228 -0.5172 -0.4145
 8293TIP3    H146294   4.654   6.299  14.159  0.0661 -0.4154 -0.7400
 8293TIP3    H246295   4.698   6.413  14.248  0.5208 -0.4259 -0.9446
 8294TIP3   OH246296   6.536   0.985  10.840  0.9565 -0.0090 -0.7242
 8294TIP3    H146297   6.488   1.004  10.920  1.2321 -1.6999 -0.1089
 8294TIP3    H246298   6.523   0.891  10.826  5.0424 -0.9118  0.2348
 8295TIP3   OH246299   1.155   6.742  12.715 -0.1259 -0.1858 -0.5652
 8295TIP3    H146300   1.084   6.700  12.666 -0.6090  2.3740 -2.2216
 8295TIP3    H246301   1.233   6.727  12.661  0.2799 -1.3555  0.3011
 8296TIP3   OH246302   2.379   3.178   1.565  0.1529 -0.3384 -0.0811
 8296TIP3    H146303   2.360   3.264   1.603 -0.6903 -0.4900 -0.1309
 8296TIP3    H246304   2.462   3.190   1.520  0.8103  0.0471  1.1802
 8297TIP3   OH246305   1.882   6.528   0.262 -0.1631 -0.2898  0.2710
 8297TIP3    H146306   1.907   6.459   0.200 -1.9535 -2.3283  1.7093
 8297TIP3    H246307   1.841   6.595   0.207  0.1180 -1.1014 -0.9799
 8298TIP3   OH246308   3.575   1.654  12.652 -0.1522 -0.1820 -0.0810
 8298TIP3    H146309   3.645   1.596  12.624  0.2251 -0.1822  0.8114
 8298TIP3    H246310   3.533   1.684  12.571  0.2125 -0.9982 -0.5763
 8299TIP3   OH246311   0.455   1.970  14.936 -0.5765 -0.1126 -0.6940
 8299TIP3    H146312   0.395   1.896  14.932 -1.5321  0.7001 -1.6386
 8299TIP3    H246313   0.427   2.028  14.866  0.1656  1.1504  0.0283
 8300TIP3   OH246314   2.131   6.815  14.830 -0.1422  0.6157 -0.0331
 8300TIP3    H146315   2.097   6.879  14.893  1.8815  1.7636  0.0013
 8300TIP3    H246316   2.112   6.730  14.868  0.6459  1.2730  1.9748
 8301TIP3   OH246317   0.894   0.173   0.019  0.1172  0.6608  0.3162
 8301TIP3    H146318   0.896   0.109   0.091 -0.3348 -0.0929 -0.3182
 8301TIP3    H246319   0.979   0.162  -0.024  0.7743  1.7676  1.2576
 8302TIP3   OH246320   5.525   3.239  11.791  0.0872 -0.4918  0.3450
 8302TIP3    H146321   5.509   3.226  11.698 -1.1843  3.1402 -0.1107
 8302TIP3    H246322   5.516   3.151  11.829 -3.5293 -1.5862 -2.4117
 8303TIP3   OH246323   4.460   0.114  11.867  0.1609 -0.7909  0.3365
 8303TIP3    H146324   4.482   0.111  11.960 -2.2092 -0.4807  0.9986
 8303TIP3    H246325   4.490   0.200  11.838 -1.1665  0.1066  1.4787
 8304TIP3   OH246326   5.651   6.881  12.676 -0.1944 -0.1409  0.2322
 8304TIP3    H146327   5.747   6.883  12.679 -0.1856  1.8858  2.6180
 8304TIP3    H246328   5.624   6.938  12.748 -3.2314 -1.4380  0.2814
 8305TIP3   OH246329   1.728   2.494  13.153 -0.2027  0.2358  0.0837
 8305TIP3    H146330   1.764   2.571  13.197 -0.5326  0.4052  0.0601
 8305TIP3    H246331   1.637   2.490  13.182  0.2207 -1.0665  1.3262
 8306TIP3   OH246332   2.404   1.622  12.757  0.0893 -0.4500 -0.1422
 8306TIP3    H146333   2.478   1.679  12.738 -0.3850 -0.0421 -0.8073
 8306TIP3    H246334   2.397   1.622  12.853  2.7422 -2.8136  0.1864
 8307TIP3   OH246335   4.662   1.262  15.295  0.0224 -0.0708  0.4638
 8307TIP3    H146336   4.740   1.276  15.241 -1.4504  0.4932 -1.6378
 8307TIP3    H246337   4.697   1.242  15.382  2.5072 -0.5877 -0.5554
 8308TIP3   OH246338   5.699   4.896  12.019 -0.4276  0.0965 -0.0564
 8308TIP3    H146339   5.688   4.808  11.984 -0.0923 -0.8327  2.0266
 8308TIP3    H246340   5.746   4.944  11.951  0.3611 -1.6580 -0.7818
 8309TIP3   OH246341   0.938   4.498   3.236  0.6713 -0.1537  0.5135
 8309TIP3    H146342   0.997   4.429   3.265  1.8695  1.4380  2.1261
 8309TIP3    H246343   0.919   4.477   3.145  2.7962 -1.3748  0.2845
 8310TIP3   OH246344   5.823   2.034  10.044  0.1144 -0.2574 -0.0201
 8310TIP3    H146345   5.906   2.080  10.053  0.3180 -0.5339 -0.4263
 8310TIP3    H246346   5.847   1.947  10.012 -0.2914 -0.5241  0.3915
 8311TIP3   OH246347   1.760   0.123  14.550 -0.1161  0.6811  0.0270
 8311TIP3    H146348   1.704   0.182  14.600 -0.5530 -1.8621  2.8145
 8311TIP3    H246349   1.717   0.038  14.555  1.1334 -0.2348 -2.7066
 8312TIP3   OH246350   6.449   1.905   2.166  0.3746  0.3888  0.0750
 8312TIP3    H146351   6.504   1.977   2.135 -0.8401  1.0403 -0.6724
 8312TIP3    H246352   6.384   1.947   2.223  0.7884 -0.3968  1.1532
 8313TIP3   OH246353   0.264   0.178  14.971 -0.4259 -0.1536  0.5573
 8313TIP3    H146354   0.181   0.174  14.923 -0.4581 -1.3772  0.6860
 8313TIP3    H246355   0.239   0.177  15.063 -0.3258  1.2958  0.6216
 8314TIP3   OH246356   5.633   2.805  12.722  0.1529  0.6803 -0.2484
 8314TIP3    H146357   5.539   2.817  12.726 -0.1761 -1.5252 -0.1583
 8314TIP3    H246358   5.668   2.862  12.791 -1.1171  1.3396 -0.1291
 8315TIP3   OH246359   0.245   6.321   2.510 -0.0636 -0.3789 -0.5686
 8315TIP3    H146360   0.295   6.243   2.532  0.1284 -0.4714 -1.3087
 8315TIP3    H246361   0.259   6.334   2.416 -1.9608 -0.8082 -0.9611
 8316TIP3   OH246362   6.816   1.661  13.350  0.0796  0.2590  0.2456
 8316TIP3    H146363   6.899   1.706  13.342  1.1042 -1.5115  0.3389
 8316TIP3    H246364   6.833   1.572  13.318 -1.6484 -0.2895  0.7002
 8317TIP3   OH246365   2.054   4.264  14.489  0.0213 -0.0354  0.3118
 8317TIP3    H146366   2.039   4.358  14.484 -0.0516 -0.0800 -0.2970
 8317TIP3    H246367   2.148   4.256  14.502 -0.2493  0.2003  2.9957
 8318TIP3   OH246368   4.884   5.930  13.254 -0.1142 -0.6087 -0.2686
 8318TIP3    H146369   4.862   5.843  13.222 -3.2091 -0.1251  0.2668
 8318TIP3    H246370   4.849   5.990  13.189  1.1794  0.2825 -0.1821
 8319TIP3   OH246371   6.909   6.498   1.575 -0.2808 -0.4095 -0.0793
 8319TIP3    H146372   6.845   6.523   1.508  0.6583 -0.9332 -1.2076
 8319TIP3    H246373   6.953   6.421   1.539  0.7561 -0.2622  0.8085
 8320TIP3   OH246374   2.627   5.404  10.605  0.1792 -0.2063 -0.5412
 8320TIP3    H146375   2.534   5.383  10.596  0.1875  0.5883 -3.3765
 8320TIP3    H246376   2.632   5.498  10.588  1.4323 -0.0153  0.6286
 8321TIP3   OH246377   1.340   6.736   9.997  0.0642  0.3353 -0.1063
 8321TIP3    H146378   1.291   6.818  10.004  0.7841  1.1473 -3.2455
 8321TIP3    H246379   1.406   6.753   9.930  0.9304 -2.5299 -0.1092
 8322TIP3   OH246380   2.790   1.078  12.032  0.5604 -0.1840  0.1447
 8322TIP3    H146381   2.696   1.061  12.040  0.8201 -0.9355  1.7856
 8322TIP3    H246382   2.797   1.173  12.037 -0.1309 -0.0844 -0.4549
 8323TIP3   OH246383   6.326   1.834  14.584  0.2215 -0.0022 -0.0022
 8323TIP3    H146384   6.378   1.754  14.588 -1.3959 -1.0829  0.5124
 8323TIP3    H246385   6.294   1.837  14.494 -0.1657 -0.2451  0.1245
 8324TIP3   OH246386   2.330   5.861  13.224  0.2812 -0.2177 -0.5541
 8324TIP3    H146387   2.353   5.770  13.207  0.6677 -0.1576 -0.3660
 8324TIP3    H246388   2.379   5.885  13.303 -0.2115  0.0026 -0.3042
 8325TIP3   OH246389   0.627   4.618  11.085 -0.2464 -0.2159 -0.2769
 8325TIP3    H146390   0.596   4.560  11.155 -0.2217 -1.9203 -1.6258
 8325TIP3    H246391   0.620   4.566  11.005 -0.2644  1.6674 -1.5739
 8326TIP3   OH246392   2.710   0.131   0.357  0.1558  0.0051  0.5824
 8326TIP3    H146393   2.703   0.065   0.426  2.1570 -0.6698  0.1893
 8326TIP3    H246394   2.801   0.160   0.360 -1.0656  4.4860  2.2439
 8327TIP3   OH246395   4.866   2.827  13.911 -0.1427 -0.0525 -0.5499
 8327TIP3    H146396   4.816   2.790  13.984  2.0167 -0.0541  1.0334
 8327TIP3    H246397   4.802   2.841  13.842 -2.0957 -1.0501  0.9787
 8328TIP3   OH246398   5.342   3.206  15.329  0.7195 -1.0010 -0.6651
 8328TIP3    H146399   5.418   3.231  15.381 -0.5925  2.4773 -0.1354
 8328TIP3    H246400   5.313   3.287  15.288 -2.2035 -2.3272 -1.5065
 8329TIP3   OH246401   7.046   3.294  11.908  0.9744 -0.2777 -0.0317
 8329TIP3    H146402   7.065   3.201  11.916  1.1211 -0.3055 -0.6080
 8329TIP3    H246403   6.975   3.299  11.844 -1.5193 -0.2115  2.5675
 8330TIP3   OH246404   1.512   4.566  15.015 -0.4796 -0.2420  0.3184
 8330TIP3    H146405   1.506   4.644  14.961  0.5736 -0.8640 -0.7542
 8330TIP3    H246406   1.498   4.597  15.105  1.3188  1.4243  0.0937
 8331TIP3   OH246407   3.434   5.487   0.899  0.0442  0.4576 -0.4039
 8331TIP3    H146408   3.431   5.443   0.984  2.1810 -1.4187 -1.1961
 8331TIP3    H246409   3.342   5.504   0.878 -0.5681  0.6027  2.0620
 8332TIP3   OH246410   3.793   6.001  10.501  0.5676 -0.1014  0.0667
 8332TIP3    H146411   3.812   5.981  10.593 -0.7836  1.2030  0.6728
 8332TIP3    H246412   3.744   5.925  10.470  2.9472 -1.5723 -0.2894
 8333TIP3   OH246413   5.772   2.700   3.936  0.0884  0.4317 -0.1404
 8333TIP3    H146414   5.800   2.691   3.845 -0.3368 -0.0363 -0.2287
 8333TIP3    H246415   5.677   2.695   3.933  0.0213  1.2754  0.2386
 8334TIP3   OH246416   4.007   0.021  14.990  0.1065  0.6646 -0.3542
 8334TIP3    H146417   4.048  -0.066  14.994 -0.3133  0.4593 -0.4298
 8334TIP3    H246418   4.051   0.065  14.917 -1.2008 -0.3014 -1.8046
 8335TIP3   OH246419   5.310   6.086  12.338 -0.7097  0.2733 -0.0146
 8335TIP3    H146420   5.289   6.008  12.388 -1.2324  0.3449 -0.1142
 8335TIP3    H246421   5.325   6.055  12.248 -1.8646  0.3898 -0.2654
 8336TIP3   OH246422   0.414   4.720  13.693 -0.5521 -0.2328 -0.1507
 8336TIP3    H146423   0.328   4.698  13.658 -0.2700 -1.2331 -0.2342
 8336TIP3    H246424   0.445   4.791  13.636 -1.3139  0.1414 -0.1112
 8337TIP3   OH246425   7.059   3.812  10.502  0.1322 -0.1032  0.2109
 8337TIP3    H146426   6.988   3.811  10.438 -0.4366  0.9669  0.7984
 8337TIP3    H246427   7.028   3.870  10.571  0.4394 -1.7272  1.7985
 8338TIP3   OH246428   0.758   3.313  12.650 -0.4334  0.1924 -0.7435
 8338TIP3    H146429   0.714   3.285  12.730  1.3028 -0.7977 -0.0868
 8338TIP3    H246430   0.822   3.377  12.679  0.6481 -0.6411 -1.2266
 8339TIP3   OH246431   6.867   2.217   2.468 -0.4357  0.1031  0.1828
 8339TIP3    H146432   6.933   2.199   2.534 -0.4983 -1.3950 -0.1354
 8339TIP3    H246433   6.820   2.135   2.457  0.1417  0.0056 -2.3477
 8340TIP3   OH246434   5.788   2.374   0.810  0.5881 -0.4306 -0.1255
 8340TIP3    H146435   5.735   2.347   0.735  1.2455 -0.8915 -0.4317
 8340TIP3    H246436   5.830   2.294   0.840  3.1653  0.2869 -1.5092
 8341TIP3   OH246437   1.484   2.941  12.872 -0.3249 -0.1296 -0.3614
 8341TIP3    H146438   1.506   3.032  12.888  0.5535 -0.2786 -0.6863
 8341TIP3    H246439   1.421   2.944  12.799 -1.5358  0.2984  0.6572
 8342TIP3   OH246440   6.414   2.760  11.141  0.4029 -0.6803  0.0758
 8342TIP3    H146441   6.495   2.784  11.096  0.1220  0.8981  0.3411
 8342TIP3    H246442   6.441   2.742  11.231  0.1530  3.2137  1.1157
 8343TIP3   OH246443   4.589   0.278  15.246  0.6033 -0.2762  0.1313
 8343TIP3    H146444   4.530   0.352  15.262  0.6709 -0.7894  3.5474
 8343TIP3    H246445   4.677   0.314  15.256  0.8020 -0.1815 -1.6767
 8344TIP3   OH246446   3.645   5.030  13.167  0.0991 -0.0379  0.1227
 8344TIP3    H146447   3.644   4.944  13.209 -0.7047  0.1002  0.4152
 8344TIP3    H246448   3.593   5.018  13.088  2.1178 -0.4545 -1.2110
 8345TIP3   OH246449   5.591   6.488  10.418 -0.0610  0.3613 -0.4255
 8345TIP3    H146450   5.552   6.405  10.390  1.6469 -0.3120 -0.9266
 8345TIP3    H246451   5.579   6.546  10.342 -0.9401  0.4882 -0.2052
 8346TIP3   OH246452   5.767   4.530  12.139 -0.2880 -0.2384  0.3350
 8346TIP3    H146453   5.694   4.576  12.181  0.0599  0.6909 -0.0406
 8346TIP3    H246454   5.753   4.546  12.045  0.3599 -0.1075  0.2587
 8347TIP3   OH246455   4.289   5.091  13.240 -0.6457 -0.4374 -0.6822
 8347TIP3    H146456   4.374   5.093  13.197  0.5966 -1.5165  1.4935
 8347TIP3    H246457   4.262   4.999  13.235 -1.0256 -0.3578 -0.2413
 8348TIP3   OH246458   0.210   1.270  14.224 -0.0569 -0.6501  0.3020
 8348TIP3    H146459   0.199   1.261  14.318  1.6184 -0.8840  0.5065
 8348TIP3    H246460   0.166   1.353  14.202 -0.9833 -0.8939  1.1622
 8349TIP3   OH246461   0.939   0.710   0.224 -0.3213 -0.4472  0.2784
 8349TIP3    H146462   1.006   0.694   0.157 -3.5097  0.0789 -3.4051
 8349TIP3    H246463   0.919   0.623   0.259 -0.9587 -1.3416 -2.1096
 8350TIP3   OH246464   4.691   2.426  14.434  0.4085  0.0411  0.4249
 8350TIP3    H146465   4.720   2.349  14.385  2.3428  1.4309 -0.7227
 8350TIP3    H246466   4.704   2.499  14.375 -1.5935  1.2919  1.4047
 8351TIP3   OH246467   0.699   4.664   3.190  0.4119  0.5202  0.9431
 8351TIP3    H146468   0.790   4.639   3.175  0.7882  1.5448  1.4507
 8351TIP3    H246469   0.659   4.664   3.103  0.6904 -0.6836  0.8026
 8352TIP3   OH246470   3.303   2.136   0.264  0.2172  0.0447 -0.1575
 8352TIP3    H146471   3.338   2.225   0.268  0.4251  0.0592 -1.7678
 8352TIP3    H246472   3.381   2.080   0.260  0.1007 -0.0273 -1.9176
 8353TIP3   OH246473   6.534   5.824   9.987 -0.2548 -0.2676  0.6848
 8353TIP3    H146474   6.489   5.907   9.971 -1.1993 -0.8782  0.0950
 8353TIP3    H246475   6.464   5.758   9.989  0.4740 -1.0485  1.1701
 8354TIP3   OH246476   3.225   1.549  12.524  0.2876  0.0637  0.3764
 8354TIP3    H146477   3.289   1.609  12.485  1.0193 -1.3569 -0.7010
 8354TIP3    H246478   3.194   1.495  12.450 -1.3918  0.0236  1.0585
 8355TIP3   OH246479   4.079   6.290  13.705  0.3248 -0.4036 -0.3553
 8355TIP3    H146480   4.041   6.308  13.791  1.0902 -0.2100 -0.0475
 8355TIP3    H246481   4.007   6.303  13.643  0.0351  0.4927  0.1620
 8356TIP3   OH246482   6.050   3.884  14.136  0.1291 -0.5085 -0.0243
 8356TIP3    H146483   6.068   3.933  14.216  2.0167 -0.3261 -0.5146
 8356TIP3    H246484   6.020   3.950  14.073 -0.9766 -0.5923  0.4027
 8357TIP3   OH246485   6.978   4.440  10.425  0.2545  0.0052 -0.1562
 8357TIP3    H146486   6.915   4.426  10.496 -1.5456  0.6440 -1.5376
 8357TIP3    H246487   6.931   4.497  10.363  2.0418  0.1113 -1.4848
 8358TIP3   OH246488   5.282   5.319   4.373  0.0138  0.2619 -0.2710
 8358TIP3    H146489   5.216   5.383   4.402 -1.1520 -1.3608  0.8551
 8358TIP3    H246490   5.332   5.300   4.452  0.4266 -0.1302 -0.6268
 8359TIP3   OH246491   2.836   1.291  13.450  0.5012 -0.1877 -0.5634
 8359TIP3    H146492   2.860   1.206  13.415  0.3343 -0.9657  1.1178
 8359TIP3    H246493   2.809   1.342  13.373 -0.2429 -1.9155 -1.5137
 8360TIP3   OH246494   5.049   2.779   2.832  0.2941 -0.0636  0.4440
 8360TIP3    H146495   5.105   2.837   2.780 -0.0841 -0.2253 -0.1533
 8360TIP3    H246496   5.050   2.696   2.785  1.2394 -0.7235  1.5610
 8361TIP3   OH246497   1.967   1.411  11.636  0.2717  0.3115  0.1949
 8361TIP3    H146498   1.872   1.408  11.626  0.3737 -0.0709 -0.6753
 8361TIP3    H246499   1.980   1.447  11.724 -0.6815 -0.5616  0.7169
 8362TIP3   OH246500   2.291   1.704   0.502  0.5920  0.3343 -0.2336
 8362TIP3    H146501   2.217   1.659   0.462  1.0967 -1.7765  1.0068
 8362TIP3    H246502   2.368   1.655   0.471  1.1036 -0.2932  1.8339
 8363TIP3   OH246503   1.672   1.088   3.414 -0.0121  0.2284 -0.6941
 8363TIP3    H146504   1.623   1.094   3.333 -1.8874  0.5315  0.4142
 8363TIP3    H246505   1.674   0.994   3.434 -0.0087  0.2049 -0.8056
 8364TIP3   OH246506   5.019   6.938  12.741  0.2423  0.7539  0.5949
 8364TIP3    H146507   5.085   6.924  12.673  1.6035 -1.8023  2.2886
 8364TIP3    H246508   5.068   6.966  12.818 -0.5950 -0.9581  1.8245
 8365TIP3   OH246509   4.852   2.435   2.920  0.2917  0.2136 -0.3589
 8365TIP3    H146510   4.846   2.508   2.981 -0.1614  1.0920 -1.4405
 8365TIP3    H246511   4.779   2.447   2.859  1.2211 -0.1697 -1.5909
 8366TIP3   OH246512   6.195   6.606   9.457 -0.0203  0.2549 -0.2005
 8366TIP3    H146513   6.261   6.562   9.511 -0.8256 -0.2002  0.4373
 8366TIP3    H246514   6.221   6.698   9.458 -0.0767  0.2800  1.0685
 8367TIP3   OH246515   3.105   0.264   3.279 -0.5283 -0.2705 -0.1893
 8367TIP3    H146516   3.067   0.179   3.258  2.2448 -1.8697  0.8025
 8367TIP3    H246517   3.167   0.281   3.208  0.5183 -0.1609  0.7264
 8368TIP3   OH246518   5.179   0.587  11.342 -0.2222  0.1674 -0.8920
 8368TIP3    H146519   5.187   0.561  11.433  1.8847  0.5889 -0.9130
 8368TIP3    H246520   5.264   0.625  11.320 -1.8992  3.8197 -1.8568
 8369TIP3   OH246521   6.810   4.643   0.159  0.0805 -0.6889 -0.4824
 8369TIP3    H146522   6.866   4.720   0.167 -0.1551 -0.6703  1.3995
 8369TIP3    H246523   6.842   4.583   0.226 -1.1594 -1.3075 -0.4142
 8370TIP3   OH246524   1.829   1.962   0.839  0.3370  0.0074  0.1416
 8370TIP3    H146525   1.875   1.977   0.756 -0.9300 -0.0348 -0.6031
 8370TIP3    H246526   1.743   1.929   0.812 -0.6008  1.3092  1.4134
 8371TIP3   OH246527   2.029   4.579   0.204  0.5889  0.0683 -0.1602
 8371TIP3    H146528   2.070   4.495   0.184 -0.9319 -0.9458  0.7164
 8371TIP3    H246529   2.058   4.599   0.293 -0.8378 -0.7466  0.5380
 8372TIP3   OH246530   5.918   2.432   2.039  0.5820  0.6391  0.2603
 8372TIP3    H146531   5.837   2.453   1.993 -0.2448  1.3688  1.9753
 8372TIP3    H246532   5.926   2.500   2.106  2.4434  0.3882  0.3527
 8373TIP3   OH246533   6.289   0.963   2.554 -0.5438 -0.2703 -0.1886
 8373TIP3    H146534   6.367   0.927   2.511 -0.0369 -0.0941  0.5535
 8373TIP3    H246535   6.324   1.028   2.615 -1.2508 -0.3940  0.3623
 8374TIP3   OH246536   4.374   4.981  10.408  0.2696 -0.2090 -0.1415
 8374TIP3    H146537   4.420   5.051  10.362  0.2067 -1.5228 -2.3815
 8374TIP3    H246538   4.354   4.917  10.340 -2.2152 -1.1014  1.2781
 8375TIP3   OH246539   3.662   0.536   4.039 -0.3338  0.2459 -0.1963
 8375TIP3    H146540   3.669   0.595   3.963 -0.9838  0.5732 -0.0142
 8375TIP3    H246541   3.743   0.485   4.038 -0.6080 -0.2011 -1.4926
 8376TIP3   OH246542   4.472   2.061  13.735  0.6380  0.4032  0.4388
 8376TIP3    H146543   4.412   2.115  13.684  1.1182 -0.7387 -1.4486
 8376TIP3    H246544   4.543   2.120  13.760  0.4607  0.9630 -0.3654
 8377TIP3   OH246545   7.006   6.862  11.628  0.0103  0.4873  0.1139
 8377TIP3    H146546   7.083   6.912  11.604 -0.3200  1.0700  0.2640
 8377TIP3    H246547   6.947   6.926  11.667 -1.0434  0.2702 -1.0883
 8378TIP3   OH246548   1.193   6.805   5.179 -0.2107  0.8977  0.6291
 8378TIP3    H146549   1.230   6.788   5.265 -0.0896 -0.1772  0.3842
 8378TIP3    H246550   1.217   6.728   5.127 -1.0855  1.0926 -0.1002
 8379TIP3   OH246551   6.669   1.956  15.241  0.2222  0.7732  0.4364
 8379TIP3    H146552   6.698   1.864  15.241  2.3802  1.3353  2.4857
 8379TIP3    H246553   6.638   1.971  15.330 -0.6321  1.8972 -0.0373
 8380TIP3   OH246554   1.835   6.726  12.711  0.2161 -0.4002 -0.1622
 8380TIP3    H146555   1.777   6.718  12.635  1.1049 -0.7350 -0.8157
 8380TIP3    H246556   1.854   6.636  12.737 -0.0100 -0.2905  0.4205
 8381TIP3   OH246557   2.213   1.525   1.216  0.1276  0.0248 -0.2046
 8381TIP3    H146558   2.142   1.526   1.151 -0.0718  0.5748  0.0178
 8381TIP3    H246559   2.210   1.612   1.256 -0.0251 -0.4468  0.8343
 8382TIP3   OH246560   1.277   1.159  10.892 -0.1478  0.3277  0.3842
 8382TIP3    H146561   1.303   1.077  10.850  0.4576  1.3952 -1.4448
 8382TIP3    H246562   1.182   1.165  10.877 -0.2445 -0.1552  0.7745
 8383TIP3   OH246563   3.975   0.616   0.477  0.1948 -0.0937 -0.4099
 8383TIP3    H146564   3.984   0.699   0.524  0.6347 -0.4087  0.0759
 8383TIP3    H246565   3.999   0.636   0.387  4.0002 -0.4195  0.3629
 8384TIP3   OH246566   1.194   3.987  11.868  0.1742 -0.4513  0.4015
 8384TIP3    H146567   1.149   4.046  11.929  0.0033 -2.0413  1.8944
 8384TIP3    H246568   1.249   4.045  11.816  2.3988  0.8691  3.8305
 8385TIP3   OH246569   2.299   6.314  10.621 -0.0911  0.5365  0.6383
 8385TIP3    H146570   2.219   6.309  10.569 -0.6285 -0.4708  1.5151
 8385TIP3    H246571   2.361   6.360  10.565 -0.3200 -1.3652 -1.3553
 8386TIP3   OH246572   3.300   0.045   2.521  0.4548  0.4229  0.7543
 8386TIP3    H146573   3.214   0.004   2.532  0.9502 -1.0001 -0.3688
 8386TIP3    H246574   3.280   0.138   2.506 -1.0109 -0.1020 -0.9702
 8387TIP3   OH246575   3.603   0.897  14.322 -0.3764  0.0827 -0.1830
 8387TIP3    H146576   3.518   0.914  14.282 -0.1876  1.3250 -0.0830
 8387TIP3    H246577   3.606   0.954  14.398  0.8334  0.5994 -0.5899
 8388TIP3   OH246578   3.121   1.593   0.008  0.3441  0.1270  0.1738
 8388TIP3    H146579   3.138   1.605   0.102  0.7929  1.2742 -0.0366
 8388TIP3    H246580   3.074   1.510   0.003  1.6691 -0.7407  1.2643
 8389TIP3   OH246581   4.248   1.840   4.056  0.1955 -0.5487  0.0161
 8389TIP3    H146582   4.207   1.768   4.008 -1.9748 -0.7900  2.0474
 8389TIP3    H246583   4.181   1.908   4.059  1.4639  0.7421 -0.0576
 8390TIP3   OH246584   4.114   5.952  11.265  0.1937 -0.8534 -0.2630
 8390TIP3    H146585   4.198   5.998  11.264  0.7497 -1.8559 -0.7125
 8390TIP3    H246586   4.078   5.966  11.177  0.3042 -1.1780 -0.3589
 8391TIP3   OH246587   6.398   3.436   3.127  0.3200  0.0868 -0.0349
 8391TIP3    H146588   6.308   3.466   3.140  0.4521  0.3386  0.3159
 8391TIP3    H246589   6.451   3.516   3.135  0.8929 -0.4822  3.0526
 8392TIP3   OH246590   1.211   4.335   1.268 -0.2295  0.2445  0.7490
 8392TIP3    H146591   1.186   4.256   1.219 -0.6963  0.8542 -0.0092
 8392TIP3    H246592   1.165   4.327   1.351 -1.2810  0.3203  0.1871
 8393TIP3   OH246593   1.594   5.191   9.833 -0.3149  0.2409  0.7136
 8393TIP3    H146594   1.586   5.162   9.742 -1.2387  0.2285  0.7928
 8393TIP3    H246595   1.670   5.144   9.867  0.8957  1.2720 -0.4413
 8394TIP3   OH246596   6.662   2.685  12.530  0.4174  0.1571  0.3159
 8394TIP3    H146597   6.587   2.733  12.494  1.1749 -0.1770 -1.9026
 8394TIP3    H246598   6.625   2.604  12.564 -0.1591 -0.6455 -2.0035
 8395TIP3   OH246599   1.642   1.385   0.224  0.6128 -0.0289 -0.0487
 8395TIP3    H146600   1.672   1.329   0.296  2.0427 -0.8388 -1.2173
 8395TIP3    H246601   1.578   1.331   0.177  0.6986 -0.0191 -0.1762
 8396TIP3   OH246602   1.412   1.789  13.972 -0.8498  0.4141 -0.5472
 8396TIP3    H146603   1.453   1.873  13.994  1.1716 -0.9709  1.2787
 8396TIP3    H246604   1.480   1.741  13.925 -0.7436 -1.4591  1.4041
 8397TIP3   OH246605   0.316   5.048  13.841  0.6256 -0.6591 -0.0173
 8397TIP3    H146606   0.286   4.998  13.917  1.5475  1.6567  1.9741
 8397TIP3    H246607   0.411   5.053  13.851  0.5376  1.7850  0.1152
 8398TIP3   OH246608   5.176   2.062  13.822 -0.1259  0.4084 -0.2159
 8398TIP3    H146609   5.117   2.004  13.774 -1.0930  1.5811 -0.4782
 8398TIP3    H246610   5.126   2.143  13.835  0.4437  0.4826  1.9255
 8399TIP3   OH246611   1.035   4.666  12.250  0.3024  0.1247 -0.2619
 8399TIP3    H146612   1.008   4.665  12.158  2.2406  0.0274 -0.8694
 8399TIP3    H246613   1.125   4.635  12.249 -0.2203 -1.6882  1.9130
 8400TIP3   OH246614   2.113   2.384   1.549 -0.0023  0.4181 -0.4931
 8400TIP3    H146615   2.164   2.463   1.568  0.1197  0.1599  0.2745
 8400TIP3    H246616   2.137   2.361   1.459 -0.9119  1.9025 -1.1456
 8401TIP3   OH246617   6.159   6.909  13.107  0.6577 -0.4279 -0.2475
 8401TIP3    H146618   6.095   6.898  13.037  0.9060 -2.5114 -0.2213
 8401TIP3    H246619   6.222   6.972  13.072 -0.0251 -0.2912 -1.2816
 8402TIP3   OH246620   1.999   6.603   0.012  0.2066  0.3829 -0.4452
 8402TIP3    H146621   1.931   6.609  -0.055 -0.1529 -1.1273 -0.2440
 8402TIP3    H246622   2.025   6.511   0.013  0.9043  0.5644  0.8146
 8403TIP3   OH246623   0.979   0.222  10.082  0.1722 -0.4753 -0.2683
 8403TIP3    H146624   1.031   0.148  10.051 -0.6232 -1.3845  0.5023
 8403TIP3    H246625   0.978   0.212  10.177 -1.4933 -0.5579 -0.2723
 8404TIP3   OH246626   5.684   4.995  11.261  0.6518  0.1354 -0.4448
 8404TIP3    H146627   5.687   4.904  11.232 -3.2654  0.3972 -2.2932
 8404TIP3    H246628   5.716   5.046  11.186 -1.5805  0.4244 -1.2531
 8405TIP3   OH246629   5.943   6.266  11.583  0.1942  0.6924 -0.1661
 8405TIP3    H146630   5.921   6.194  11.641 -2.4850  1.2727 -0.3146
 8405TIP3    H246631   6.021   6.306  11.622 -2.2115  1.9337  3.9946
 8406TIP3   OH246632   1.781   5.288  12.143 -0.0632  0.1727  0.3063
 8406TIP3    H146633   1.785   5.192  12.143  2.0365  0.1719  2.0066
 8406TIP3    H246634   1.872   5.316  12.148 -0.6142  2.2909 -0.3260
 8407TIP3   OH246635   4.209   0.984   4.249 -0.3969  0.2981  0.1924
 8407TIP3    H146636   4.158   0.918   4.202  2.8890 -1.2882 -1.5170
 8407TIP3    H246637   4.255   0.934   4.317 -1.5606  1.7792  2.1672
 8408TIP3   OH246638   6.763   5.677  10.900 -0.0066  0.4916  0.6697
 8408TIP3    H146639   6.852   5.642  10.886 -0.3879 -1.0133  1.7996
 8408TIP3    H246640   6.754   5.683  10.995 -1.7191 -1.0692  0.6548
 8409TIP3   OH246641   0.566   1.288   4.413  0.5607  0.3526  0.3401
 8409TIP3    H146642   0.476   1.303   4.443  0.8585  0.6819  1.1184
 8409TIP3    H246643   0.558   1.221   4.346 -0.3252  0.7543  0.0167
 8410TIP3   OH246644   0.824   4.358  14.974 -0.1472  0.6415 -0.0332
 8410TIP3    H146645   0.822   4.263  14.970  0.9444  0.5568  0.8491
 8410TIP3    H246646   0.917   4.380  14.983 -0.5292  1.6192  2.3395
 8411TIP3   OH246647   0.444   1.889  11.123 -0.9547 -0.1248 -0.1408
 8411TIP3    H146648   0.519   1.941  11.151 -0.1093 -1.5395  0.2996
 8411TIP3    H246649   0.369   1.928  11.169 -0.0794 -0.3746  1.5758
 8412TIP3   OH246650   4.489   6.267   1.444 -0.0118  0.4097  0.4541
 8412TIP3    H146651   4.550   6.305   1.381  1.1369 -1.5806  0.2598
 8412TIP3    H246652   4.539   6.266   1.527  0.9838 -2.6703 -0.0340
 8413TIP3   OH246653   4.531   2.497   0.889  0.2491 -0.5869  0.2921
 8413TIP3    H146654   4.589   2.422   0.901  2.8051  1.3389  0.7991
 8413TIP3    H246655   4.542   2.521   0.797 -0.0230 -0.4123  0.3027
 8414TIP3   OH246656   5.122   1.002   3.118  0.2305 -0.7274 -0.2344
 8414TIP3    H146657   5.154   1.085   3.152 -0.3941 -0.0653 -1.2160
 8414TIP3    H246658   5.086   0.957   3.195  0.4029 -0.0153  0.2723
 8415TIP3   OH246659   0.061   5.091   3.996  0.3922 -0.3005 -0.4395
 8415TIP3    H146660   0.153   5.067   3.983 -0.0740 -2.0496 -0.6911
 8415TIP3    H246661   0.022   5.087   3.909 -0.4032 -1.7860 -0.0446
 8416TIP3   OH246662   4.930   3.221  10.290 -0.1109  0.0812  0.1047
 8416TIP3    H146663   4.937   3.285  10.219 -0.8225  0.7180  0.5976
 8416TIP3    H246664   4.846   3.178  10.276 -0.9194  1.1925  1.3478
 8417TIP3   OH246665   2.033   1.920  13.504  0.0561  0.2711  0.0226
 8417TIP3    H146666   2.028   1.980  13.579 -0.5947  0.4107 -0.1235
 8417TIP3    H246667   2.100   1.958  13.447  0.4680  0.2312  0.4742
 8418TIP3   OH246668   2.178   6.148  11.944  0.3696 -0.4359 -0.4538
 8418TIP3    H146669   2.187   6.237  11.911 -0.4550  0.1356  0.7525
 8418TIP3    H246670   2.084   6.130  11.938  0.4905 -1.1064 -0.4097
 8419TIP3   OH246671   0.818   5.484   1.801 -0.2224 -0.1251 -0.4310
 8419TIP3    H146672   0.795   5.450   1.714 -1.0391 -1.2352  0.1898
 8419TIP3    H246673   0.735   5.485   1.849  0.3912 -0.5206  0.6580
 8420TIP3   OH246674   4.904   1.057   1.253  0.4266  0.5659 -0.2850
 8420TIP3    H146675   4.964   0.987   1.278 -0.2302  0.2497  0.4354
 8420TIP3    H246676   4.951   1.138   1.274  1.1042  0.3588 -0.9264
 8421TIP3   OH246677   1.900   6.819  11.932 -0.2614 -0.1162  0.1569
 8421TIP3    H146678   1.887   6.759  12.005  1.9789 -0.3641  0.4114
 8421TIP3    H246679   1.990   6.806  11.905  0.0390  2.4675 -0.3875
 8422TIP3   OH246680   0.962   6.109  10.684 -0.1035 -0.0477  0.3074
 8422TIP3    H146681   0.947   6.173  10.754  0.6781 -0.7428  1.1446
 8422TIP3    H246682   0.906   6.138  10.612  0.7494  1.9688  0.3856
 8423TIP3   OH246683   4.754   5.751   3.751 -0.2931  0.6281  0.2116
 8423TIP3    H146684   4.829   5.787   3.800 -0.6888  1.7090  0.0580
 8423TIP3    H246685   4.678   5.775   3.803 -0.5229 -0.7557  0.5279
 8424TIP3   OH246686   1.201   6.604  12.951 -0.2293  0.3372  0.1826
 8424TIP3    H146687   1.185   6.512  12.928  0.8180  0.4549 -1.1310
 8424TIP3    H246688   1.176   6.653  12.873  0.1574  1.0802  0.5146
 8425TIP3   OH246689   1.590   4.606   0.422  0.5225  0.2916  0.2327
 8425TIP3    H146690   1.540   4.626   0.502 -0.9148  1.3169 -0.8780
 8425TIP3    H246691   1.564   4.516   0.401 -1.7084  1.0950 -0.8308
 8426TIP3   OH246692   1.604   7.107  11.745  0.2347 -0.1859 -0.0669
 8426TIP3    H146693   1.533   7.055  11.709  0.5851 -0.8905  0.2458
 8426TIP3    H246694   1.560   7.183  11.785 -0.4673 -1.2165  1.2083
 8427TIP3   OH246695   3.551   0.904  10.705 -0.6746  0.1706  0.0493
 8427TIP3    H146696   3.458   0.901  10.727 -0.4088 -1.3451  1.1397
 8427TIP3    H246697   3.575   0.997  10.715 -1.6387  0.2891  1.7205
 8428TIP3   OH246698   3.713   3.255  14.729 -0.6045  0.4418  0.0622
 8428TIP3    H146699   3.767   3.307  14.670 -0.6766  0.2378 -0.1820
 8428TIP3    H246700   3.671   3.319  14.786  1.0401  0.5449  1.2513
 8429TIP3   OH246701   6.943   2.954  10.873  0.4984 -0.2804 -0.1326
 8429TIP3    H146702   7.038   2.968  10.874  0.3269  1.4291  2.7593
 8429TIP3    H246703   6.932   2.863  10.898  1.3573 -0.2295  0.4687
 8430TIP3   OH246704   1.276   3.182  12.779 -0.3911  0.7705 -0.2959
 8430TIP3    H146705   1.271   3.234  12.699  0.6844  0.5705 -0.5030
 8430TIP3    H246706   1.360   3.206  12.818  0.3505 -1.1299 -0.6317
 8431TIP3   OH246707   3.722   3.434   0.245  0.2310 -0.0665  0.2121
 8431TIP3    H146708   3.760   3.396   0.324  0.7834  2.1008  1.0573
 8431TIP3    H246709   3.647   3.378   0.225  2.4739 -3.1672 -0.2414
 8432TIP3   OH246710   0.186   2.739  10.325 -0.3329  0.5742 -0.0796
 8432TIP3    H146711   0.259   2.677  10.331 -0.3962  0.4765 -0.3014
 8432TIP3    H246712   0.116   2.690  10.281 -0.7793  0.4433  0.7494
 8433TIP3   OH246713   2.869   4.295   2.215  0.0562  0.4015 -0.0347
 8433TIP3    H146714   2.907   4.348   2.285 -1.4548  1.7136 -0.1699
 8433TIP3    H246715   2.810   4.354   2.169 -1.7535 -1.4111 -0.1647
 8434TIP3   OH246716   3.976   5.529  11.746 -0.3845  0.8816 -0.8084
 8434TIP3    H146717   3.998   5.608  11.697 -0.6745  2.3091  1.2446
 8434TIP3    H246718   4.061   5.495  11.775 -0.2660  0.4686 -1.6126
 8435TIP3   OH246719   7.099   3.172  13.453 -0.0093  0.4936 -0.4398
 8435TIP3    H146720   7.057   3.205  13.373 -1.7223 -1.9846 -0.6535
 8435TIP3    H246721   7.027   3.138  13.506  0.9991  2.4713  2.4744
 8436TIP3   OH246722   2.255   4.556   2.023  0.2729  0.2744  0.6226
 8436TIP3    H146723   2.287   4.493   2.088 -2.2942 -1.1450  0.6380
 8436TIP3    H246724   2.188   4.606   2.069  0.9321  1.7737  0.0329
 8437TIP3   OH246725   0.377   2.941  12.856  1.0806 -0.0367  0.6455
 8437TIP3    H146726   0.428   2.869  12.894  1.6975 -0.3180 -0.6771
 8437TIP3    H246727   0.317   2.898  12.795 -0.6688  0.3087  2.0404
 8438TIP3   OH246728   3.746   0.820  14.897 -0.2779 -0.3990  0.1192
 8438TIP3    H146729   3.706   0.895  14.941  0.5653 -0.4815  1.0301
 8438TIP3    H246730   3.705   0.820  14.810 -0.9887  0.5400  0.4339
 8439TIP3   OH246731   3.339   4.249  13.919 -0.2491  0.2794 -0.2310
 8439TIP3    H146732   3.399   4.205  13.859 -0.4864  0.0821 -0.3221
 8439TIP3    H246733   3.288   4.179  13.958  0.1283  0.3777  0.4489
 8440TIP3   OH246734   0.622   0.175  14.628  0.6667  0.4275 -0.2041
 8440TIP3    H146735   0.575   0.113  14.684  1.4634 -1.9842 -2.0338
 8440TIP3    H246736   0.699   0.200  14.680  0.2073  0.0815  0.6591
 8441TIP3   OH246737   0.694   1.962  13.473 -0.0516  0.0945  0.1300
 8441TIP3    H146738   0.707   1.924  13.559 -1.0511 -1.9476 -0.5642
 8441TIP3    H246739   0.782   1.966  13.434  0.1570 -0.8529  0.4940
 8442TIP3   OH246740   4.405   1.956   0.508 -0.2177 -0.2534  0.3626
 8442TIP3    H146741   4.421   2.046   0.537  0.3287 -0.4765  0.7562
 8442TIP3    H246742   4.453   1.901   0.570  1.5801 -0.7091 -1.3361
 8443TIP3   OH246743   3.274   0.895   3.899  0.5319  0.5767  0.3932
 8443TIP3    H146744   3.336   0.845   3.845 -0.7949 -0.5006 -0.1897
 8443TIP3    H246745   3.234   0.831   3.957 -2.0166  0.6430 -1.1173
 8444TIP3   OH246746   5.859   3.857  13.116  0.4797  0.3352 -0.0269
 8444TIP3    H146747   5.823   3.786  13.063  0.2556  0.0623  0.4817
 8444TIP3    H246748   5.947   3.871  13.080 -0.0597  0.9094 -1.1810
 8445TIP3   OH246749   4.221   0.158   1.166  0.3025  0.5013 -0.4431
 8445TIP3    H146750   4.164   0.132   1.094  3.1128  1.4320 -3.2636
 8445TIP3    H246751   4.186   0.242   1.195 -0.9329  0.0700 -0.6369
 8446TIP3   OH246752   6.995   2.149   5.442 -0.0336  0.0004 -0.1048
 8446TIP3    H146753   6.989   2.170   5.536 -0.7117 -0.7625  0.0412
 8446TIP3    H246754   6.917   2.097   5.425  0.4849 -0.5266 -0.9238
 8447TIP3   OH246755   1.440   5.166  10.123  0.0960  0.3778  0.1260
 8447TIP3    H146756   1.515   5.119  10.086  2.4031  1.6871  2.8435
 8447TIP3    H246757   1.471   5.255  10.135 -3.2017  2.0454 -2.0780
 8448TIP3   OH246758   1.057   2.443  11.172 -0.1096 -0.4874  0.3048
 8448TIP3    H146759   1.119   2.511  11.197 -0.3240 -0.4921  0.8702
 8448TIP3    H246760   1.078   2.423  11.081 -0.6773  1.0249 -0.1860
 8449TIP3   OH246761   0.080   6.308  13.783  0.0885  0.6167  0.8296
 8449TIP3    H146762   0.105   6.265  13.864 -0.7558  0.1443  0.8449
 8449TIP3    H246763   0.002   6.261  13.753  0.1205  1.0753 -0.0151
 8450TIP3   OH246764   0.121   3.040  13.522  0.3798  0.2049 -0.0220
 8450TIP3    H146765   0.039   3.087  13.507 -0.1278 -0.3996  0.7677
 8450TIP3    H246766   0.094   2.950  13.540  1.2404 -0.0767 -0.0801
 8451TIP3   OH246767   1.360   1.720   4.771 -0.5563 -0.0942  0.5736
 8451TIP3    H146768   1.402   1.713   4.857 -0.2705  1.0244  0.5350
 8451TIP3    H246769   1.427   1.758   4.715 -1.3282  0.8892  0.2948
 8452TIP3   OH246770   1.955   5.057  10.597 -0.6702  0.4135 -0.0918
 8452TIP3    H146771   1.999   5.128  10.645  0.8063  0.6123 -1.6490
 8452TIP3    H246772   1.909   5.008  10.665  0.6759  1.1375  1.4274
 8453TIP3   OH246773   4.857   3.405   1.189 -0.0506 -0.1681  0.7365
 8453TIP3    H146774   4.927   3.349   1.157  0.1293  0.7019 -0.4691
 8453TIP3    H246775   4.878   3.422   1.281  0.2716 -1.4585  0.9099
 8454TIP3   OH246776   2.414   7.105  14.713  0.0032 -0.3967  0.5331
 8454TIP3    H146777   2.339   7.062  14.672  0.9242 -1.1786 -0.3680
 8454TIP3    H246778   2.466   7.138  14.640  0.7730 -0.2728  1.1275
 8455TIP3   OH246779   5.081   4.620   0.042 -0.2098 -0.1973 -0.2515
 8455TIP3    H146780   5.173   4.644   0.049 -0.8725  2.1834  1.7913
 8455TIP3    H246781   5.068   4.555   0.111 -0.3041  0.4761  0.3806
 8456TIP3   OH246782   4.294   2.722  12.480 -0.3189  0.0947  0.6203
 8456TIP3    H146783   4.382   2.759  12.477 -0.5214  0.5447  0.2272
 8456TIP3    H246784   4.266   2.720  12.389 -1.1404  0.9698  0.8474
 8457TIP3   OH246785   2.502   0.378  12.202  0.3851 -0.3370  0.0671
 8457TIP3    H146786   2.460   0.462  12.182  0.0862 -0.5437 -0.1898
 8457TIP3    H246787   2.497   0.371  12.297  0.4518 -0.0421  0.0927
 8458TIP3   OH246788   3.877   2.408  14.972  0.3524 -0.1385 -0.0627
 8458TIP3    H146789   3.908   2.492  15.004  0.8897  0.0154 -0.9616
 8458TIP3    H246790   3.882   2.415  14.877 -2.1725 -0.2116 -0.2736
 8459TIP3   OH246791   6.570   4.869  10.359  0.1424 -0.0442  0.0647
 8459TIP3    H146792   6.531   4.954  10.380  0.3008 -0.4957  2.4510
 8459TIP3    H246793   6.661   4.889  10.338  0.0759  0.4335  0.2102
 8460TIP3   OH246794   5.997   0.835   1.083 -0.0733  0.5464 -0.0538
 8460TIP3    H146795   5.950   0.918   1.073 -0.2282  0.4552 -0.0840
 8460TIP3    H246796   6.021   0.810   0.994 -0.6779  0.1838 -0.1222
 8461TIP3   OH246797   4.618   3.815   5.137  0.5420 -0.2541 -0.2334
 8461TIP3    H146798   4.624   3.883   5.070 -1.8164  0.2129 -0.0623
 8461TIP3    H246799   4.533   3.830   5.178  0.3561 -2.7395  0.4412
 8462TIP3   OH246800   5.111   3.141  12.635  0.0855 -0.1467  0.2908
 8462TIP3    H146801   5.101   3.089  12.714 -1.5449  0.1805  0.3254
 8462TIP3    H246802   5.100   3.232  12.664  0.8444  0.0894 -0.1109
 8463TIP3   OH246803   5.168   4.624  14.058  0.5341 -0.1290  0.1186
 8463TIP3    H146804   5.191   4.714  14.034  2.6269 -0.7449 -0.3494
 8463TIP3    H246805   5.248   4.574  14.043  0.0870 -1.7050  2.4713
 8464TIP3   OH246806   2.561   6.798  15.321 -0.0387  0.8848  1.1250
 8464TIP3    H146807   2.621   6.869  15.298  0.2766 -0.0234 -1.1525
 8464TIP3    H246808   2.476   6.827  15.287  0.5201 -0.6676 -2.0101
 8465TIP3   OH246809   5.979   4.011   5.455 -0.7525  0.5442 -0.1074
 8465TIP3    H146810   5.946   3.924   5.431  1.3032 -0.7047  1.2524
 8465TIP3    H246811   6.065   4.017   5.411 -0.3565  1.3861  0.7496
 8466TIP3   OH246812   0.033   5.118  13.207  0.4923  0.1970 -0.4267
 8466TIP3    H146813  -0.062   5.133  13.213  0.4274 -0.0217 -0.8472
 8466TIP3    H246814   0.054   5.139  13.116  0.4444 -1.9219 -0.9713
 8467TIP3   OH246815   0.987   5.555  10.256 -0.4405  0.6912  0.1590
 8467TIP3    H146816   0.925   5.544  10.328 -0.5347  0.4517  0.0441
 8467TIP3    H246817   0.936   5.597  10.187 -0.8807 -0.7972 -0.4602
 8468TIP3   OH246818   5.673   1.326   4.224 -0.1443  0.3486 -0.5888
 8468TIP3    H146819   5.666   1.272   4.146 -0.9538  1.9798 -1.7129
 8468TIP3    H246820   5.584   1.355   4.242  0.3218  1.8030 -0.4217
 8469TIP3   OH246821   2.352   4.682  13.669 -0.1679  0.3278  0.5443
 8469TIP3    H146822   2.416   4.665  13.600  0.9776 -2.9930  2.1855
 8469TIP3    H246823   2.398   4.738  13.731 -0.9213  2.6330 -0.8503
 8470TIP3   OH246824   6.830   7.129  10.097 -0.4102 -0.1210 -0.0235
 8470TIP3    H146825   6.833   7.205  10.154  0.3869  0.2196 -0.5000
 8470TIP3    H246826   6.798   7.163  10.013  0.4327 -0.1860 -0.3916
 8471TIP3   OH246827   5.523   0.965  13.182 -0.0211  0.5957 -0.2271
 8471TIP3    H146828   5.541   1.058  13.188  0.1788  0.6756 -1.6225
 8471TIP3    H246829   5.448   0.950  13.239  2.0859  0.9276  2.8516
 8472TIP3   OH246830   0.645   5.984  14.005  0.0718  0.0625  0.0892
 8472TIP3    H146831   0.734   5.950  14.007  0.3669  0.8442  1.1037
 8472TIP3    H246832   0.649   6.065  14.056 -1.0181  0.6026 -0.6409
 8473TIP3   OH246833   4.496   2.147  14.912  0.0993  0.3478  0.1057
 8473TIP3    H146834   4.529   2.058  14.922  0.4198  0.6570  2.1192
 8473TIP3    H246835   4.534   2.178  14.830  0.1293 -1.2887 -0.5215
 8474TIP3   OH246836   5.456   4.931  12.175  0.2934 -0.2929  0.2803
 8474TIP3    H146837   5.542   4.935  12.134 -0.2609  2.8048 -0.8328
 8474TIP3    H246838   5.399   4.895  12.107  0.0079  1.5665 -0.5066
 8475TIP3   OH246839   3.824   5.533  12.433  0.0382  0.5289 -0.1763
 8475TIP3    H146840   3.858   5.453  12.473  0.3900  0.4491 -0.6338
 8475TIP3    H246841   3.729   5.526  12.446  0.0857  0.1680  0.0222
 8476TIP3   OH246842   3.347   4.684  14.018  0.0212  0.1114  0.3748
 8476TIP3    H146843   3.372   4.601  14.058 -2.3779 -1.4093 -1.0245
 8476TIP3    H246844   3.414   4.700  13.951  0.7874 -0.4043  1.0043
 8477TIP3   OH246845   5.095   1.959   0.309  0.3685  0.0876  0.5907
 8477TIP3    H146846   5.031   2.022   0.277 -0.2352  0.0837  1.7289
 8477TIP3    H246847   5.093   1.969   0.404 -0.0449 -1.9154  0.8359
 8478TIP3   OH246848   0.816   3.701  10.721  0.5908 -0.0616  0.6738
 8478TIP3    H146849   0.824   3.796  10.727  2.1272 -0.2136  1.5333
 8478TIP3    H246850   0.741   3.679  10.775  1.3820  0.5162  2.0482
 8479TIP3   OH246851   1.438   3.838   0.968  0.3274 -0.2233  0.0910
 8479TIP3    H146852   1.529   3.866   0.972  0.4888 -0.8790  1.8101
 8479TIP3    H246853   1.429   3.796   0.882  0.4566  3.5417 -1.9615
 8480TIP3   OH246854   4.535   0.380  11.761  0.3614  0.4376  0.3560
 8480TIP3    H146855   4.596   0.431  11.707 -1.1389  4.0560  1.7238
 8480TIP3    H246856   4.464   0.357  11.701  0.5158  1.0668 -0.0825
 8481TIP3   OH246857   1.057   6.063  13.369 -0.0429  0.5094  0.1901
 8481TIP3    H146858   1.135   6.008  13.380  1.6962  3.0057  1.3968
 8481TIP3    H246859   0.984   6.005  13.387  1.5034 -1.9044 -0.7736
 8482TIP3   OH246860   2.773   3.925  10.590 -0.5413 -0.3368 -0.6346
 8482TIP3    H146861   2.682   3.928  10.619 -1.5861 -2.2872 -3.3173
 8482TIP3    H246862   2.814   3.859  10.646 -0.7070  0.5460  0.5813
 8483TIP3   OH246863   0.422   5.539   1.680 -0.2783 -0.3906 -0.0951
 8483TIP3    H146864   0.490   5.482   1.646 -1.4475 -2.6304  1.0963
 8483TIP3    H246865   0.373   5.568   1.602 -0.9877 -2.8589 -0.6359
 8484TIP3   OH246866   0.577   2.499   0.888 -0.2909  0.1289 -0.4201
 8484TIP3    H146867   0.672   2.504   0.898 -0.0156 -3.0113 -0.2399
 8484TIP3    H246868   0.543   2.569   0.944  1.8790  1.6185 -0.8389
 8485TIP3   OH246869   3.710   6.651  13.529  0.0657 -0.0859  0.3093
 8485TIP3    H146870   3.675   6.730  13.569 -0.6244  0.1565 -0.7342
 8485TIP3    H246871   3.648   6.582  13.553  1.7632 -0.8263  3.0264
 8486TIP3   OH246872   5.925   2.404   2.585 -0.4505  0.2687 -0.5380
 8486TIP3    H146873   5.856   2.403   2.519 -2.0141  0.4127  1.0295
 8486TIP3    H246874   5.910   2.325   2.637 -0.2701  0.9982  0.6434
 8487TIP3   OH246875   4.960   3.172  10.849 -0.2309  0.0646  0.2856
 8487TIP3    H146876   4.898   3.137  10.785 -1.3046  0.5360  1.0466
 8487TIP3    H246877   4.915   3.246  10.889  0.7972  0.3782  0.9122
 8488TIP3   OH246878   1.447   5.660  11.687 -0.1128  0.8071  0.1938
 8488TIP3    H146879   1.463   5.684  11.778  0.0796 -3.2601  1.4653
 8488TIP3    H246880   1.534   5.650  11.649 -0.1918  2.3374 -0.4470
 8489TIP3   OH246881   2.764   0.620   0.478  0.1668  0.4472 -0.0194
 8489TIP3    H146882   2.803   0.647   0.395 -1.7395 -1.3353 -1.6008
 8489TIP3    H246883   2.724   0.700   0.513  0.0448  1.0093 -1.3743
 8490TIP3   OH246884   4.558   2.993   5.270 -0.2205  0.7912 -0.2557
 8490TIP3    H146885   4.651   3.010   5.251  0.2034 -0.2054  0.7909
 8490TIP3    H246886   4.515   3.076   5.254  1.3154  2.1293  1.9612
 8491TIP3   OH246887   4.648   5.130  10.096  0.5669 -0.5933  0.2047
 8491TIP3    H146888   4.611   5.046  10.122  1.1843 -0.6864  0.8195
 8491TIP3    H246889   4.680   5.116  10.007  0.2558 -0.8746  0.1367
 8492TIP3   OH246890   3.466   4.624  13.267 -0.1499 -0.4305 -0.5181
 8492TIP3    H146891   3.392   4.684  13.270 -0.0556 -0.3071 -0.6976
 8492TIP3    H246892   3.440   4.552  13.325  0.2029  0.3074  0.6043
 8493TIP3   OH246893   3.899   4.633   0.041 -0.6774 -0.0864 -0.0112
 8493TIP3    H146894   3.960   4.702   0.014 -0.6140  1.4930  3.6008
 8493TIP3    H246895   3.864   4.598  -0.042  1.2751  2.4234 -2.0701
 8494TIP3   OH246896   6.805   6.796  13.513  0.0968  0.1978  0.4165
 8494TIP3    H146897   6.899   6.778  13.503  0.0722  0.3830 -0.1943
 8494TIP3    H246898   6.778   6.741  13.586  0.5172 -0.4425  0.0943
 8495TIP3   OH246899   6.376   2.436  15.083 -0.2580 -0.0652 -0.3938
 8495TIP3    H146900   6.316   2.363  15.067  0.4400 -0.3589 -1.7766
 8495TIP3    H246901   6.453   2.396  15.123  0.8571 -0.4214 -2.7318
 8496TIP3   OH246902   4.043   1.446  12.265  0.0050 -0.5508 -0.0960
 8496TIP3    H146903   3.955   1.417  12.243 -0.0412 -0.6798  0.2510
 8496TIP3    H246904   4.040   1.541  12.258 -0.2103 -0.5441  0.0911
 8497TIP3   OH246905   6.532   4.431  15.068  0.4818  0.1492 -0.6036
 8497TIP3    H146906   6.445   4.412  15.104 -0.9277  3.5233 -1.7838
 8497TIP3    H246907   6.584   4.457  15.144  0.4723 -1.7759  0.1033
 8498TIP3   OH246908   1.818   4.001  11.601 -0.0631  0.1012 -0.2041
 8498TIP3    H146909   1.724   4.019  11.602 -0.2649 -0.7129 -1.4646
 8498TIP3    H246910   1.858   4.079  11.563 -0.1095  0.8142  1.1562
 8499TIP3   OH246911   3.639   1.508  15.208 -0.2355  0.1032 -0.7223
 8499TIP3    H146912   3.667   1.571  15.274 -0.8174 -1.1741  0.7806
 8499TIP3    H246913   3.696   1.525  15.133  2.4039 -0.2874  1.0774
 8500TIP3   OH246914   4.994   3.717   9.564 -0.2371  0.3446  0.1530
 8500TIP3    H146915   5.025   3.743   9.477 -0.4628 -0.6409 -0.2278
 8500TIP3    H246916   4.903   3.747   9.567 -0.5518 -0.5402 -0.3519
 8501TIP3   OH246917   1.577   1.865   0.807 -0.5343 -0.1079 -0.0878
 8501TIP3    H146918   1.558   1.958   0.810 -0.4737 -0.0981  0.0141
 8501TIP3    H246919   1.532   1.829   0.884  0.8841  0.1104  0.8926
 8502TIP3   OH246920   2.462   5.555  11.020 -0.2420 -0.1114 -0.4852
 8502TIP3    H146921   2.492   5.464  11.020  0.0475 -0.0150 -0.2767
 8502TIP3    H246922   2.529   5.603  11.068 -0.7886  0.0835  0.1085
 8503TIP3   OH246923   3.933   3.759  13.503 -0.0477  0.4917  0.3207
 8503TIP3    H146924   3.989   3.813  13.558 -1.5393  0.1207  2.3274
 8503TIP3    H246925   3.864   3.819  13.474  0.0271  0.3820 -0.0894
 8504TIP3   OH246926   0.039   3.041  10.582 -0.5355  0.3112  0.7176
 8504TIP3    H146927   0.112   2.983  10.561  0.6998  1.7689  0.7311
 8504TIP3    H246928   0.033   3.037  10.678 -0.5333  0.0894  0.7072
 8505TIP3   OH246929   6.415   1.086   1.880  0.0715 -0.0076  0.1229
 8505TIP3    H146930   6.462   1.035   1.813 -0.3169  0.3040 -0.3990
 8505TIP3    H246931   6.323   1.074   1.857 -0.0170  1.1737 -0.1937
 8506TIP3   OH246932   3.616   4.127  13.434  0.3749 -0.1109  0.1172
 8506TIP3    H146933   3.534   4.097  13.393  0.6447  0.4198 -0.8377
 8506TIP3    H246934   3.602   4.220  13.452  0.5922 -0.1338  0.4137
 8507TIP3   OH246935   6.243   7.180  12.528  0.0085 -0.1857 -0.0726
 8507TIP3    H146936   6.237   7.100  12.581  3.2174 -1.1253 -0.8787
 8507TIP3    H246937   6.230   7.251  12.591 -2.6083 -1.2490  0.7200
 8508TIP3   OH246938   6.921   3.544  14.012  0.3171  1.2004 -0.0815
 8508TIP3    H146939   6.996   3.563  13.957  0.7845  0.6441  0.3547
 8508TIP3    H246940   6.872   3.478  13.964 -0.3968  2.2171 -0.7949
 8509TIP3   OH246941   4.308   0.458  11.965 -0.3829 -0.0649  0.2308
 8509TIP3    H146942   4.212   0.448  11.967 -0.2867 -1.1630 -0.2246
 8509TIP3    H246943   4.330   0.455  11.872  0.2075 -0.9933  0.3950
 8510TIP3   OH246944   1.108   4.812  11.095 -0.0114  0.1309 -0.4819
 8510TIP3    H146945   1.035   4.783  11.150  0.3784  0.4535  0.2258
 8510TIP3    H246946   1.105   4.907  11.099 -1.0864  0.2374 -2.5376
 8511TIP3   OH246947   1.151   0.381   9.932  0.6877  0.0281  0.5471
 8511TIP3    H146948   1.152   0.367   9.837 -0.5202 -0.9906  0.6560
 8511TIP3    H246949   1.087   0.318   9.965  0.8608  0.5745  2.0153
 8512TIP3   OH246950   3.076   4.865  12.890 -0.1774 -0.0755  0.3528
 8512TIP3    H146951   3.153   4.815  12.864 -0.2645 -1.2091  2.0746
 8512TIP3    H246952   3.013   4.850  12.820  0.9353  0.3913 -0.7903
 8513TIP3   OH246953   2.388   3.323  12.792  0.1093 -0.2107 -0.5138
 8513TIP3    H146954   2.459   3.275  12.833  0.2827 -1.4718 -2.1719
 8513TIP3    H246955   2.347   3.372  12.864  2.6430  0.6340  0.4881
 8514TIP3   OH246956   0.405   2.517  12.561  0.7558  0.0049 -0.7478
 8514TIP3    H146957   0.431   2.452  12.626 -2.5560  0.5278  1.2794
 8514TIP3    H246958   0.377   2.465  12.486 -2.0516 -1.0917  0.9218
 8515TIP3   OH246959   3.652   3.813   0.724 -0.2453  0.2761 -0.6091
 8515TIP3    H146960   3.683   3.736   0.772  1.7257  0.9416 -0.7321
 8515TIP3    H246961   3.623   3.778   0.640  1.5149 -0.2912 -1.0362
 8516TIP3   OH246962   5.351   1.514   9.655 -0.3550 -0.3311  0.3756
 8516TIP3    H146963   5.294   1.454   9.608 -1.3437  0.4951  0.4901
 8516TIP3    H246964   5.400   1.458   9.716  0.8339 -1.3995 -1.4598
 8517TIP3   OH246965   4.681   5.305  14.262  0.3793  0.1572  0.1297
 8517TIP3    H146966   4.627   5.377  14.296  2.3886  1.5112  0.6032
 8517TIP3    H246967   4.734   5.277  14.337 -0.0638 -1.5997 -0.1521
 8518TIP3   OH246968   1.917   2.955  14.848  0.5504  0.2937  0.2062
 8518TIP3    H146969   1.958   2.976  14.932  1.1350  1.3189 -0.3062
 8518TIP3    H246970   1.940   3.029  14.792  0.6548 -0.6449 -1.0230
 8519TIP3   OH246971   5.351   2.752   2.950  0.5199 -0.0301 -0.4147
 8519TIP3    H146972   5.309   2.829   2.913 -0.6556 -0.0196  0.8521
 8519TIP3    H246973   5.365   2.774   3.042  2.1471 -0.5440 -0.4925
 8520TIP3   OH246974   2.527   1.167  13.296  0.4274 -0.7414 -0.0780
 8520TIP3    H146975   2.540   1.137  13.386 -1.1916  0.9469  0.7883
 8520TIP3    H246976   2.613   1.197  13.268  1.0351 -1.6524  0.7442
 8521TIP3   OH246977   5.328   6.508   1.699 -0.0712 -0.1226  0.1131
 8521TIP3    H146978   5.419   6.533   1.714 -0.5232  1.0512  0.9991
 8521TIP3    H246979   5.329   6.412   1.703  0.9969 -0.0979  0.9220
 8522TIP3   OH246980   5.036   7.172  13.739  0.0422 -0.7178  0.2207
 8522TIP3    H146981   5.119   7.137  13.707  0.3523  1.1107 -1.1538
 8522TIP3    H246982   4.973   7.148  13.672  0.1018  0.5362 -0.3169
 8523TIP3   OH246983   4.846   0.989   2.885  0.4720 -0.5897 -0.4990
 8523TIP3    H146984   4.925   1.037   2.859 -0.8855  1.0342 -1.8643
 8523TIP3    H246985   4.829   1.019   2.974  0.4495  0.4100 -0.8227
 8524TIP3   OH246986   2.455   4.714   9.430  0.3716 -0.1798 -0.2881
 8524TIP3    H146987   2.528   4.775   9.426 -0.4425  1.1330  2.5381
 8524TIP3    H246988   2.493   4.634   9.468  0.8119 -0.4376 -1.2266
 8525TIP3   OH246989   1.529   1.734  15.247  0.0331  0.3901 -0.3225
 8525TIP3    H146990   1.449   1.732  15.300 -1.1001  2.5229 -1.8239
 8525TIP3    H246991   1.589   1.674  15.292 -1.6143  0.4331  2.0947
 8526TIP3   OH246992   4.136   5.862  13.695 -0.6391 -0.2003  0.0510
 8526TIP3    H146993   4.046   5.868  13.730 -1.0679 -0.9487 -0.8913
 8526TIP3    H246994   4.185   5.817  13.764 -1.1078 -0.2555  0.3572
 8527TIP3   OH246995   6.191   6.410  10.480  0.0795  0.2962  0.7041
 8527TIP3    H146996   6.278   6.404  10.442 -0.1101 -0.7932  0.4203
 8527TIP3    H246997   6.133   6.429  10.406  0.0718  1.1408  0.9093
 8528TIP3   OH246998   5.613   1.562   0.957  0.2802 -0.4176  0.5030
 8528TIP3    H146999   5.608   1.526   0.869 -0.7771 -4.5136  2.0334
 8528TIP3    H247000   5.524   1.591   0.975  0.4796  0.3478  0.3050
 8529TIP3   OH247001   4.324   2.535  10.905  0.1964 -0.3465  0.1486
 8529TIP3    H147002   4.410   2.558  10.940  0.4675  1.4024 -1.4671
 8529TIP3    H247003   4.283   2.482  10.973  2.2738 -0.6354  1.2485
 8530TIP3   OH247004   5.361   2.931  12.829 -0.2083  0.2379 -0.5763
 8530TIP3    H147005   5.362   2.947  12.734 -2.0632 -0.5218 -0.7673
 8530TIP3    H247006   5.328   3.012  12.867  1.7031  1.0069 -0.4029
 8531TIP3   OH247007   1.851   4.729   0.062  0.6115  0.6194  0.0171
 8531TIP3    H147008   1.918   4.668   0.092 -0.3435 -0.8758 -0.8008
 8531TIP3    H247009   1.880   4.755  -0.026  0.4684  0.5198 -0.0584
 8532TIP3   OH247010   1.024   0.868  10.810 -0.5427  0.1421  0.1105
 8532TIP3    H147011   1.117   0.871  10.832 -0.7205  0.3225  0.8829
 8532TIP3    H247012   1.011   0.942  10.751 -0.3039  0.4628  0.4532
 8533TIP3   OH247013   0.354   7.209   2.294 -0.1424  0.7570 -0.6839
 8533TIP3    H147014   0.326   7.283   2.349 -0.7624  0.4874 -0.6277
 8533TIP3    H247015   0.437   7.238   2.256  0.9184  0.5176  1.2948
 8534TIP3   OH247016   7.211   2.632  12.856  0.3224 -0.2472 -0.3806
 8534TIP3    H147017   7.282   2.672  12.805  0.5476 -0.3796 -0.1754
 8534TIP3    H247018   7.228   2.538  12.852  0.1312 -0.2835 -0.3679
 8535TIP3   OH247019   3.507   2.038  11.704  0.2416  0.0007  0.2305
 8535TIP3    H147020   3.555   2.101  11.758  2.1272 -0.9607 -0.2723
 8535TIP3    H247021   3.574   1.980  11.669 -1.2048 -0.8296 -1.2704
 8536TIP3   OH247022   6.851   1.697   5.908 -0.3283  0.3722 -0.1278
 8536TIP3    H147023   6.838   1.610   5.948  1.1431  0.2790  0.1843
 8536TIP3    H247024   6.944   1.714   5.917 -0.3552  1.3745 -1.4911
 8537TIP3   OH247025   4.106   4.898   0.505 -0.2558 -0.5937 -0.6632
 8537TIP3    H147026   4.022   4.852   0.496  0.3484 -1.8196 -0.2579
 8537TIP3    H247027   4.161   4.838   0.555 -0.1860  1.5555  2.1076
 8538TIP3   OH247028   5.054   6.674   2.707 -0.3064  0.0942  0.7936
 8538TIP3    H147029   5.068   6.580   2.720  1.1049  0.3195  1.1374
 8538TIP3    H247030   5.002   6.701   2.783 -1.1156 -0.4856  0.4526
 8539TIP3   OH247031   5.816   7.100   4.349 -0.5336  0.2532  0.3284
 8539TIP3    H147032   5.902   7.133   4.377 -0.0142  0.3155 -1.2694
 8539TIP3    H247033   5.774   7.175   4.308 -1.6182  0.3739  1.5842
 8540TIP3   OH247034   4.008   1.919  13.161 -0.3957  0.0512  0.1027
 8540TIP3    H147035   4.083   1.963  13.120 -0.1681 -0.1943  0.2530
 8540TIP3    H247036   3.933   1.944  13.107 -0.0411 -0.5964 -0.7079
 8541TIP3   OH247037   1.487   1.712  12.324  0.0240  0.3600 -0.2490
 8541TIP3    H147038   1.415   1.773  12.335 -0.0916  0.0438  0.8809
 8541TIP3    H247039   1.501   1.675  12.412  0.9122 -0.2997 -0.6514
 8542TIP3   OH247040   4.139   0.662  10.958  0.5113 -0.3589 -0.6380
 8542TIP3    H147041   4.160   0.688  10.868  1.1292  0.6384 -0.2261
 8542TIP3    H247042   4.140   0.744  11.007  0.7934 -0.9622  0.3943
 8543TIP3   OH247043   3.521   2.233   9.976 -0.4059  0.3329 -0.0141
 8543TIP3    H147044   3.566   2.149   9.966  0.3523  0.6358  0.7467
 8543TIP3    H247045   3.456   2.234   9.906 -0.3026 -0.8082 -0.1463
 8544TIP3   OH247046   4.913   2.342  13.558  0.1350 -0.6619  0.0660
 8544TIP3    H147047   4.946   2.353  13.469 -0.9035  0.1511 -0.2444
 8544TIP3    H247048   4.988   2.363  13.614  0.4481  0.0778 -0.6142
 8545TIP3   OH247049   3.438   1.705  11.244 -0.2241 -0.5332 -0.1636
 8545TIP3    H147050   3.514   1.659  11.279  0.4066  0.7119  0.1440
 8545TIP3    H247051   3.466   1.735  11.158  0.4530  1.8227  0.8072
 8546TIP3   OH247052   4.047   0.358   0.560 -0.6583  0.4092  0.0455
 8546TIP3    H147053   4.024   0.445   0.527 -0.0817  0.4734 -0.1977
 8546TIP3    H247054   4.073   0.372   0.651  0.8324  0.7217 -0.4071
 8547TIP3   OH247055   4.316   1.945   1.413  0.1478 -0.7141  0.7473
 8547TIP3    H147056   4.281   2.018   1.361  0.6075  0.9361  2.6257
 8547TIP3    H247057   4.319   1.871   1.352 -1.0125  0.6375 -1.0491
 8548TIP3   OH247058   5.914   6.893  13.270 -0.3062 -0.7062  0.5347
 8548TIP3    H147059   5.997   6.888  13.223 -0.3097  0.6949  0.3490
 8548TIP3    H247060   5.868   6.812  13.246 -0.0485 -0.3310 -1.3941
 8549TIP3   OH247061   6.844   4.401  13.420 -0.5354 -0.1468 -0.0006
 8549TIP3    H147062   6.783   4.359  13.481 -0.5123  0.8004  0.7006
 8549TIP3    H247063   6.863   4.334  13.355 -1.7735 -0.6825  0.1629
 8550TIP3   OH247064   2.892   1.943  10.423 -0.4628  0.2897  0.0978
 8550TIP3    H147065   2.859   1.943  10.513 -0.2832  0.7957  0.1643
 8550TIP3    H247066   2.827   1.893  10.374  0.0485 -1.0444  0.7248
 8551TIP3   OH247067   1.911   5.866  13.400  0.6048  0.0707 -0.2258
 8551TIP3    H147068   1.843   5.921  13.361  1.4584  1.4017  0.0852
 8551TIP3    H247069   1.992   5.916  13.387  1.0074  0.3900  2.7826
 8552TIP3   OH247070   4.349   2.481   1.195 -0.0055  0.4587  0.4517
 8552TIP3    H147071   4.329   2.567   1.159 -1.2658  0.4153  1.0012
 8552TIP3    H247072   4.420   2.448   1.141 -0.3179  1.3441 -0.5243
 8553TIP3   OH247073   3.444   5.811   2.186  0.4942  0.6589  0.1368
 8553TIP3    H147074   3.407   5.821   2.273 -1.4882  0.2469 -0.6119
 8553TIP3    H247075   3.401   5.878   2.133 -0.4307 -0.8492 -1.1170
 8554TIP3   OH247076   1.261   1.958  15.148  0.5818 -0.0112  0.4294
 8554TIP3    H147077   1.341   1.973  15.197  0.7773 -1.4834  0.6036
 8554TIP3    H247078   1.200   1.922  15.213  0.9166 -2.2005 -0.3821
 8555TIP3   OH247079   7.062   5.244  10.728 -0.4037  0.1375 -0.0817
 8555TIP3    H147080   7.100   5.159  10.751  0.7624  1.1058  1.7854
 8555TIP3    H247081   6.985   5.251  10.785  0.1063  0.7715  0.5387
 8556TIP3   OH247082   5.694   7.006  12.288  0.5517 -0.0889 -0.1313
 8556TIP3    H147083   5.709   7.002  12.194 -0.6321 -0.9643 -0.3146
 8556TIP3    H247084   5.645   6.926  12.308 -0.8042  0.9272  0.8982
 8557TIP3   OH247085   6.979   2.537  11.895  0.5889 -0.0877  0.4904
 8557TIP3    H147086   6.885   2.524  11.902  0.4708  0.9209  0.8478
 8557TIP3    H247087   6.989   2.601  11.824  1.0812 -1.1046 -0.3818
 8558TIP3   OH247088   6.231   0.485  12.175  0.5446  0.3599 -0.3460
 8558TIP3    H147089   6.261   0.419  12.113  3.0839  0.9579  0.1507
 8558TIP3    H247090   6.230   0.567  12.125 -1.3719  0.2104 -0.6229
 8559TIP3   OH247091   3.132   4.683  13.669  0.5364  0.2092 -0.2192
 8559TIP3    H147092   3.194   4.615  13.695 -0.1698 -0.5671 -0.5140
 8559TIP3    H247093   3.185   4.763  13.664  1.8934 -0.7472 -2.1889
 8560TIP3   OH247094   0.557   4.430   0.988 -0.0614  0.1800 -0.1276
 8560TIP3    H147095   0.510   4.391   0.915  0.9240 -0.7405 -0.2807
 8560TIP3    H247096   0.634   4.375   1.000  0.0293  0.5815  1.3142
 8561TIP3   OH247097   6.704   3.040   5.631  0.7300 -0.2334  0.1271
 8561TIP3    H147098   6.787   3.011   5.668  0.9053  0.1858  0.0735
 8561TIP3    H247099   6.728   3.111   5.572  0.5217 -1.3108 -1.2980
 8562TIP3   OH247100   4.429   7.134   0.344  0.3382  0.0695  0.0950
 8562TIP3    H147101   4.414   7.105   0.434 -0.3607  2.8078  0.9691
 8562TIP3    H247102   4.507   7.087   0.316 -1.4261 -3.6147  0.7308
 8563TIP3   OH247103   0.853   2.886  11.142  0.5414 -0.2470 -0.5966
 8563TIP3    H147104   0.815   2.801  11.119 -2.2899  0.6664  0.2515
 8563TIP3    H247105   0.898   2.870  11.225  0.0606 -0.9462 -0.4563
 8564TIP3   OH247106   4.107   0.339  15.208  0.2252  0.5281  0.6000
 8564TIP3    H147107   4.179   0.276  15.214 -0.7187 -0.9800 -2.2485
 8564TIP3    H247108   4.029   0.285  15.196 -1.1186  2.2007  1.4168
 8565TIP3   OH247109   6.374   2.449   2.814  0.1080  0.0137  0.7567
 8565TIP3    H147110   6.439   2.403   2.761 -1.1730  0.8682 -1.6883
 8565TIP3    H247111   6.332   2.380   2.865  0.2050 -1.1528 -0.6630
 8566TIP3   OH247112   6.753   5.945   1.115  0.0084  0.2148  0.2835
 8566TIP3    H147113   6.764   5.853   1.093 -0.6681  0.1167  0.3125
 8566TIP3    H247114   6.679   5.974   1.061 -0.8521  0.2993  1.4524
 8567TIP3   OH247115   4.748   4.816  11.987  0.3363 -0.0160  0.2991
 8567TIP3    H147116   4.689   4.887  12.013  0.6814 -0.4114  2.2831
 8567TIP3    H247117   4.833   4.859  11.977  0.4086 -0.0340  0.8360
 8568TIP3   OH247118   6.031   6.493  12.484 -0.4330 -0.2969 -0.0958
 8568TIP3    H147119   6.085   6.514  12.408  0.3424  0.1766  0.5633
 8568TIP3    H247120   6.029   6.397  12.486 -1.2291 -0.3224 -1.2261
 8569TIP3   OH247121   4.558   7.069  13.729  0.1044  0.1621 -0.2591
 8569TIP3    H147122   4.515   6.988  13.702 -0.2614  0.8268 -1.7809
 8569TIP3    H247123   4.487   7.133  13.737  0.5271  0.6540 -0.3693
 8570TIP3   OH247124   7.063   4.083  11.962 -0.2883  0.6903  0.8473
 8570TIP3    H147125   7.151   4.105  11.932 -0.0443  0.7856  1.5975
 8570TIP3    H247126   7.053   4.132  12.044 -0.9004  0.3894  0.9565
 8571TIP3   OH247127   2.637   0.003  14.192 -0.5449 -0.7791 -0.2882
 8571TIP3    H147128   2.677   0.071  14.247 -1.9808  0.0088 -0.1655
 8571TIP3    H247129   2.675   0.017  14.106 -1.6752  0.9992 -0.5603
 8572TIP3   OH247130   1.868   0.240   0.470  0.9501 -0.6573 -0.3803
 8572TIP3    H147131   1.862   0.145   0.461  1.9730 -0.7631 -0.0842
 8572TIP3    H247132   1.907   0.269   0.388  1.2101 -0.5724 -0.2305
 8573TIP3   OH247133   3.008   4.969  10.925  0.0390 -0.0511 -0.1443
 8573TIP3    H147134   3.038   5.034  10.989  2.4163 -0.3285 -0.8642
 8573TIP3    H247135   2.977   5.020  10.850 -0.4655  0.2468  0.2611
 8574TIP3   OH247136   3.066   4.711   0.144 -0.5916 -0.0229  0.2948
 8574TIP3    H147137   3.074   4.624   0.106  0.8144  0.4992 -0.6877
 8574TIP3    H247138   3.018   4.697   0.226 -2.2135 -1.4005 -0.8234
 8575TIP3   OH247139   0.478   1.620   2.230  0.2065 -0.6269 -0.0637
 8575TIP3    H147140   0.564   1.617   2.189  1.3115 -0.1408  2.0868
 8575TIP3    H247141   0.475   1.542   2.286  0.1366  0.4553  1.4888
 8576TIP3   OH247142   0.683   6.109   2.127 -0.1065 -0.1285  0.0829
 8576TIP3    H147143   0.651   6.039   2.071  0.0624 -0.0825 -0.0747
 8576TIP3    H247144   0.703   6.181   2.067  0.4281 -0.2077  0.1557
 8577TIP3   OH247145   3.255   3.690  15.293  0.5817 -0.0470  0.0206
 8577TIP3    H147146   3.178   3.636  15.313 -0.5565  1.1157 -1.0031
 8577TIP3    H247147   3.329   3.632  15.307 -0.5210 -1.4509  0.3218
 8578TIP3   OH247148   2.855   7.152  10.035  0.7805 -0.2184  0.0986
 8578TIP3    H147149   2.929   7.192  10.081  2.4208 -0.3724 -2.2695
 8578TIP3    H247150   2.792   7.224  10.025  1.2560  0.3120  0.8033
 8579TIP3   OH247151   2.013   6.381  13.731 -0.0645 -0.1881  0.1030
 8579TIP3    H147152   2.100   6.419  13.716 -0.4056  0.4890 -0.2185
 8579TIP3    H247153   1.958   6.418  13.662 -0.7029 -0.2943  0.5441
 8580TIP3   OH247154   4.279   0.696  11.561 -0.1658  0.6037 -0.1995
 8580TIP3    H147155   4.283   0.783  11.601  0.3898  0.8309 -0.7360
 8580TIP3    H247156   4.352   0.694  11.499 -0.6745  0.0556 -0.8025
 8581TIP3   OH247157   6.377   2.101  14.492  0.0652  0.4930 -0.0558
 8581TIP3    H147158   6.358   2.019  14.539 -0.1882 -0.3044 -1.4647
 8581TIP3    H247159   6.394   2.165  14.560 -1.8177 -0.2267  1.1676
 8582TIP3   OH247160   3.157   2.672  10.887 -0.1418 -0.3466  0.5548
 8582TIP3    H147161   3.201   2.702  10.807  0.3872  1.3834  1.4634
 8582TIP3    H247162   3.104   2.598  10.857  0.0817  0.2059 -1.4004
 8583TIP3   OH247163   4.672   6.269  13.560  0.1465  0.1505 -0.4467
 8583TIP3    H147164   4.748   6.287  13.616  0.1749 -0.2707 -0.3489
 8583TIP3    H247165   4.641   6.356  13.534  0.0686  0.3539  0.3090
 8584TIP3   OH247166   4.546   7.029  10.837  0.0317 -0.1734 -0.0300
 8584TIP3    H147167   4.481   7.062  10.774  0.7119  0.1967 -0.5533
 8584TIP3    H247168   4.498   7.023  10.919 -0.0671  2.6380  0.2433
 8585TIP3   OH247169   5.834   2.643  10.764 -0.0651 -0.0594 -0.6955
 8585TIP3    H147170   5.929   2.637  10.779  0.0701 -0.4532 -1.6354
 8585TIP3    H247171   5.820   2.600  10.680 -1.0637  0.1461 -0.6506
 8586TIP3   OH247172   0.202   4.074  12.888  0.1804 -0.4209  0.2824
 8586TIP3    H147173   0.205   4.000  12.826 -0.2106  2.2109 -3.2154
 8586TIP3    H247174   0.262   4.138  12.850  0.4211  1.1645  3.1190
 8587TIP3   OH247175   6.107   5.366  10.972  0.2613 -0.0781 -0.0695
 8587TIP3    H147176   6.104   5.312  11.051  2.4648 -1.2122 -0.6672
 8587TIP3    H247177   6.062   5.314  10.905 -0.8633  0.5090  0.2095
 8588TIP3   OH247178   3.145   5.142   2.444  0.7329 -0.5012 -0.0724
 8588TIP3    H147179   3.177   5.228   2.471  1.2236 -0.3624 -1.0645
 8588TIP3    H247180   3.211   5.109   2.383  0.2416 -1.3157 -0.1862
 8589TIP3   OH247181   2.967   5.462  13.534  0.3394  0.1533 -0.0361
 8589TIP3    H147182   2.942   5.396  13.600 -1.2957  0.4376 -0.3248
 8589TIP3    H247183   2.985   5.541  13.585 -0.1245  0.1472  0.1475
 8590TIP3   OH247184   5.259   4.062  13.453 -0.5479 -0.3528  0.9371
 8590TIP3    H147185   5.174   4.025  13.478 -0.1585 -2.1900 -0.2561
 8590TIP3    H247186   5.322   3.993  13.473  0.0284 -1.1614 -2.8075
 8591TIP3   OH247187   4.405   4.297  13.287 -0.1338 -0.5413  0.9979
 8591TIP3    H147188   4.454   4.377  13.307  1.1253 -1.1565  0.4921
 8591TIP3    H247189   4.378   4.263  13.372 -0.5913  0.3534  1.2228
 8592TIP3   OH247190   0.640   7.045   0.737  0.0731 -0.2047  0.5776
 8592TIP3    H147191   0.699   6.972   0.718  0.8027  0.5569 -0.1943
 8592TIP3    H247192   0.699   7.117   0.763 -0.6071  0.2114  1.0054
 8593TIP3   OH247193   0.254   3.230   2.510 -0.4468 -0.0392  0.9325
 8593TIP3    H147194   0.184   3.177   2.473  0.1399 -0.1734 -0.0081
 8593TIP3    H247195   0.331   3.210   2.457 -0.1778  1.6813  0.6020
 8594TIP3   OH247196   1.515   4.134   5.328  0.0319 -0.4195 -0.0318
 8594TIP3    H147197   1.445   4.166   5.271 -0.6055 -0.3056  0.8003
 8594TIP3    H247198   1.470   4.094   5.402  0.8381 -1.5261 -0.1129
 8595TIP3   OH247199   4.995   2.720   1.815 -0.3678 -0.0203  0.1043
 8595TIP3    H147200   5.042   2.762   1.742 -0.6048 -0.7606 -0.4851
 8595TIP3    H247201   4.912   2.767   1.820  0.2002  0.9723  0.8354
 8596TIP3   OH247202   1.706   2.171   4.093 -0.5197 -0.7161  0.3236
 8596TIP3    H147203   1.710   2.266   4.103  0.5147 -0.7117  0.0444
 8596TIP3    H247204   1.694   2.138   4.182 -2.0629 -0.3026  0.3048
 8597TIP3   OH247205   3.764   2.042  13.097  0.1026  0.3699  0.0165
 8597TIP3    H147206   3.806   2.114  13.050  0.6336 -0.0591 -0.1874
 8597TIP3    H247207   3.774   2.065  13.190  2.9303 -0.8020  0.1101
 8598TIP3   OH247208   4.418   2.361  10.348 -0.0460 -0.4908  0.0763
 8598TIP3    H147209   4.381   2.440  10.388 -0.4506 -0.8058  0.3413
 8598TIP3    H247210   4.379   2.289  10.398 -0.6125 -0.9040 -0.9197
 8599TIP3   OH247211   5.317   1.396   3.712  0.0497  1.1013  0.5371
 8599TIP3    H147212   5.240   1.447   3.688  0.5852  1.8744  0.4082
 8599TIP3    H247213   5.385   1.425   3.651  0.6905  1.0964  1.2333
 8600TIP3   OH247214   1.761   3.266  13.759  0.1801 -0.3208 -0.4129
 8600TIP3    H147215   1.824   3.323  13.804 -0.3747 -0.6990  0.8934
 8600TIP3    H247216   1.816   3.203  13.711  0.8082  1.3952 -2.0816
 8601TIP3   OH247217   4.103   6.162  14.490 -0.1984  0.1475  0.1074
 8601TIP3    H147218   4.183   6.146  14.541 -0.9859  0.5188  1.5083
 8601TIP3    H247219   4.125   6.132  14.402  0.8954 -1.4158  0.8662
 8602TIP3   OH247220   4.430   2.542  14.024  0.3047  0.1917 -0.1787
 8602TIP3    H147221   4.460   2.451  14.022  2.6020  0.8996 -0.9714
 8602TIP3    H247222   4.507   2.592  14.053 -0.8268  1.9111 -0.0161
 8603TIP3   OH247223   4.512   3.849   3.862 -0.6691 -0.0450  0.3377
 8603TIP3    H147224   4.483   3.936   3.891 -0.5104 -0.0292  0.4506
 8603TIP3    H247225   4.490   3.791   3.934  1.3882  0.2860  1.3173
 8604TIP3   OH247226   2.862   3.518  14.366 -0.0717 -0.5735 -0.1723
 8604TIP3    H147227   2.843   3.520  14.460 -1.6862 -1.4524 -0.4258
 8604TIP3    H247228   2.957   3.523  14.359  0.0305  0.1321  1.4786
 8605TIP3   OH247229   5.112   6.235  14.158  0.1547  0.1277 -0.2254
 8605TIP3    H147230   5.195   6.201  14.190 -0.4465 -1.6423 -0.4331
 8605TIP3    H247231   5.076   6.164  14.104 -1.2183  1.0719 -0.6108
 8606TIP3   OH247232   4.623   0.751  10.995 -0.2205  0.3282 -0.0070
 8606TIP3    H147233   4.706   0.798  10.997 -0.0874  0.2331  3.8431
 8606TIP3    H247234   4.646   0.661  11.019 -1.0544 -0.7905 -2.8782
 8607TIP3   OH247235   5.614   4.982  12.513  0.2158  0.2410 -0.8581
 8607TIP3    H147236   5.546   5.030  12.466 -1.6743  0.3234  1.7299
 8607TIP3    H247237   5.675   5.050  12.543  0.2725  0.4157 -1.3614
 8608TIP3   OH247238   4.296   3.245   9.919  0.3136  0.0751  0.0150
 8608TIP3    H147239   4.233   3.305   9.960  2.1114  2.7345 -0.8452
 8608TIP3    H247240   4.266   3.237   9.829  1.2799  1.5760 -0.4728
 8609TIP3   OH247241   3.342   3.804   2.160 -0.2362  0.0381  0.3421
 8609TIP3    H147242   3.342   3.814   2.256 -0.0935 -0.9492  0.4492
 8609TIP3    H247243   3.280   3.870   2.129  0.6274  1.2185  1.0220
 8610TIP3   OH247244   3.881   5.910  10.757 -0.0649  0.1261  0.7118
 8610TIP3    H147245   3.821   5.838  10.736  1.1494 -0.7270  0.0272
 8610TIP3    H247246   3.890   5.907  10.852 -0.0087 -0.6624  0.6876
 8611TIP3   OH247247   4.601   1.237  10.344  0.0054 -0.1973 -0.3344
 8611TIP3    H147248   4.567   1.153  10.313  0.2381 -1.0910  1.6657
 8611TIP3    H247249   4.557   1.302  10.289 -2.4668 -1.4610 -0.0043
 8612TIP3   OH247250   5.410   2.088  13.682 -0.1192  0.4917 -0.1753
 8612TIP3    H147251   5.333   2.067  13.736  0.5194  0.5044  0.7608
 8612TIP3    H247252   5.417   2.015  13.621 -1.0090  0.6065 -0.4395
 8613TIP3   OH247253   6.679   4.048  12.766 -0.5974  0.7699 -0.2208
 8613TIP3    H147254   6.628   3.972  12.795  2.0785 -1.3046 -0.5094
 8613TIP3    H247255   6.626   4.087  12.697 -2.3849 -0.4020  0.4055
 8614TIP3   OH247256   3.325   0.424  14.912  0.3591  0.0989  0.6118
 8614TIP3    H147257   3.262   0.354  14.929  0.1246  0.5145  1.4913
 8614TIP3    H247258   3.275   0.490  14.865  0.4432 -0.0764  0.2698
 8615TIP3   OH247259   6.155   1.888  10.596  0.4663 -0.1138 -0.3335
 8615TIP3    H147260   6.122   1.937  10.520 -0.1848 -0.5849 -0.3711
 8615TIP3    H247261   6.076   1.869  10.648  1.0187  1.1038  1.0194
 8616TIP3   OH247262   0.052   3.378   3.205  0.3849 -0.9226 -1.1112
 8616TIP3    H147263  -0.030   3.356   3.249  0.8481  0.9204  0.8275
 8616TIP3    H247264   0.030   3.454   3.151  0.7890 -0.4144 -0.5724
 8617TIP3   OH247265   3.981   2.350  13.622  0.0195 -0.2857 -0.0324
 8617TIP3    H147266   3.938   2.348  13.536  0.7761  0.8821 -0.4621
 8617TIP3    H247267   4.074   2.343  13.602  0.1337 -1.3683  0.8016
 8618TIP3   OH247268   3.885   6.923  12.742  0.0293  0.2611  0.2413
 8618TIP3    H147269   3.885   7.012  12.778  0.3293  0.5604 -0.4880
 8618TIP3    H247270   3.872   6.867  12.818 -1.0364  0.9697  0.6022
 8619TIP3   OH247271   0.434   4.812  15.337 -0.5807 -0.1559  0.1630
 8619TIP3    H147272   0.506   4.801  15.275  0.1232  2.0210  0.4855
 8619TIP3    H247273   0.458   4.759  15.412 -0.6834 -1.5911 -0.7774
 8620TIP3   OH247274   6.118   2.370  11.728 -0.2407 -0.0510 -0.1318
 8620TIP3    H147275   6.130   2.276  11.737  0.6068 -0.3665 -3.3526
 8620TIP3    H247276   6.025   2.381  11.709 -0.2895 -0.2759 -0.0211
 8621TIP3   OH247277   3.591   0.826   2.583 -0.3016 -0.0442  0.0541
 8621TIP3    H147278   3.576   0.874   2.665  0.2193  1.3477 -0.6300
 8621TIP3    H247279   3.668   0.868   2.545  0.5872 -1.8740 -0.2855
 8622TIP3   OH247280   4.852   6.677   1.987 -0.4840  0.3220 -0.2378
 8622TIP3    H147281   4.764   6.659   1.953 -0.4711  1.3959 -0.8805
 8622TIP3    H247282   4.851   6.638   2.075 -1.5243  0.1169 -0.3199
 8623TIP3   OH247283   1.018   5.904  13.096  0.5879  0.2542  0.0761
 8623TIP3    H147284   1.047   5.830  13.043  0.9158  0.3296  0.1447
 8623TIP3    H247285   0.923   5.906  13.086  0.7851  1.4879 -2.1344
 8624TIP3   OH247286   1.276   3.023   3.897  0.1550  0.6045 -0.0960
 8624TIP3    H147287   1.294   3.109   3.858 -0.2897  0.4241 -0.7138
 8624TIP3    H247288   1.193   2.996   3.858 -0.3238  0.4357  1.0225
 8625TIP3   OH247289   7.021   6.067  12.318 -0.1256 -0.9293  0.3609
 8625TIP3    H147290   7.087   6.042  12.254  2.3425  1.0463  1.9260
 8625TIP3    H247291   7.003   6.159  12.299  0.8989 -0.1967  2.5435
 8626TIP3   OH247292   6.912   3.025   3.780  0.0385 -0.1388  0.1109
 8626TIP3    H147293   6.962   3.020   3.862 -0.5354  1.5287  0.5890
 8626TIP3    H247294   6.855   3.100   3.791  0.7754  0.8742 -2.3063
 8627TIP3   OH247295   2.878   2.464   2.623  0.2291 -0.5978 -0.8015
 8627TIP3    H147296   2.792   2.458   2.583  0.1125 -1.9915 -0.4125
 8627TIP3    H247297   2.934   2.502   2.556 -1.2028  3.0614 -0.1406
 8628TIP3   OH247298   7.059   4.223  12.510  0.3086  0.0755 -0.2307
 8628TIP3    H147299   7.004   4.302  12.512  0.2971  0.0657 -0.1547
 8628TIP3    H247300   7.043   4.181  12.594 -0.5233 -0.5733 -0.6887
 8629TIP3   OH247301   2.652   0.480   5.020  0.0701 -0.5075 -0.1174
 8629TIP3    H147302   2.671   0.417   4.950  1.1919  0.3984 -0.6700
 8629TIP3    H247303   2.712   0.552   5.003 -0.9054  0.5338  0.7435
 8630TIP3   OH247304   3.931   3.954  14.661  0.4963  0.8648 -0.1025
 8630TIP3    H147305   3.948   3.916  14.574  2.0713 -0.3380  0.6767
 8630TIP3    H247306   3.871   3.892  14.702 -0.1477  1.3684 -0.2772
 8631TIP3   OH247307   5.525   5.731   2.089 -0.1397  0.3077 -0.5508
 8631TIP3    H147308   5.468   5.656   2.101  0.1075  0.2429  0.2741
 8631TIP3    H247309   5.529   5.743   1.994 -1.5568  0.3494 -0.6254
 8632TIP3   OH247310   6.721   2.185  14.592  0.4438 -0.5859  0.5586
 8632TIP3    H147311   6.677   2.270  14.587 -0.1114 -0.7527  2.0064
 8632TIP3    H247312   6.660   2.130  14.642  0.1473 -2.2809 -1.5239
 8633TIP3   OH247313   2.615   2.355  11.817 -0.0615 -0.2589 -0.8246
 8633TIP3    H147314   2.642   2.344  11.726  2.1398 -0.4611 -0.2110
 8633TIP3    H247315   2.613   2.449  11.830  2.0476 -0.1973 -0.5029
 8634TIP3   OH247316   5.588   2.380  14.580 -0.2294 -0.2383 -0.5116
 8634TIP3    H147317   5.594   2.285  14.573 -0.5169 -0.1635 -2.3792
 8634TIP3    H247318   5.538   2.396  14.660 -0.8184 -1.6741 -0.5691
 8635TIP3   OH247319   5.023   1.250  12.810 -0.6554  0.2278 -0.2838
 8635TIP3    H147320   4.989   1.205  12.887 -0.5573 -0.6697 -0.7530
 8635TIP3    H247321   5.073   1.324  12.845 -0.7127 -0.1032  0.5037
 8636TIP3   OH247322   3.136   4.466  14.240 -0.0107  0.6059 -0.2644
 8636TIP3    H147323   3.102   4.479  14.152 -1.1074 -0.6604 -0.0704
 8636TIP3    H247324   3.067   4.416  14.285  0.9697  0.3197  0.9843
 8637TIP3   OH247325   4.724   2.813  12.990  0.0848 -1.0059  0.1875
 8637TIP3    H147326   4.680   2.732  13.018  1.1789 -1.3210  1.0347
 8637TIP3    H247327   4.794   2.783  12.932 -0.8828 -0.4923 -1.3113
 8638TIP3   OH247328   0.747   6.385  10.065 -0.5525  0.1377  0.3956
 8638TIP3    H147329   0.816   6.362  10.127  1.1794 -0.5384 -1.6612
 8638TIP3    H247330   0.752   6.481  10.058 -0.3167  0.1578  0.8076
 8639TIP3   OH247331   6.241   2.416  11.984 -0.1759 -0.4985 -0.3340
 8639TIP3    H147332   6.156   2.402  12.025  0.6499 -2.5094  0.8766
 8639TIP3    H247333   6.226   2.402  11.890 -1.7227  2.3072 -0.6259
 8640TIP3   OH247334   6.454   6.148  12.059  0.1100 -0.0183  0.1682
 8640TIP3    H147335   6.507   6.216  12.017  0.5272  0.3630  1.2920
 8640TIP3    H247336   6.429   6.185  12.144 -2.0778 -0.1133 -0.3550
 8641TIP3   OH247337   4.642   2.854  10.497  0.1677  0.1655  0.4656
 8641TIP3    H147338   4.552   2.859  10.530  0.6074  0.0710  1.7626
 8641TIP3    H247339   4.692   2.819  10.571  1.5607  1.7961  0.3415
 8642TIP3   OH247340   6.846   3.653  10.015 -0.0840 -0.3942 -0.5247
 8642TIP3    H147341   6.753   3.658  10.040 -0.0036  2.3135 -0.4631
 8642TIP3    H247342   6.889   3.614  10.091 -0.9521  0.0494  0.2116
 8643TIP3   OH247343   2.053   5.421  14.088  0.6026  0.3645 -0.1666
 8643TIP3    H147344   2.100   5.458  14.013  1.0637  0.0905 -0.0175
 8643TIP3    H247345   2.097   5.459  14.165  0.9608 -0.3400 -0.0166
 8644TIP3   OH247346   2.032   0.579   4.023  0.0668 -0.1588 -0.0149
 8644TIP3    H147347   2.031   0.652   3.961 -0.1049  1.2250  1.5596
 8644TIP3    H247348   1.941   0.571   4.052 -0.0384 -1.4202 -0.6001
 8645TIP3   OH247349   0.189   2.421  13.829 -0.2530 -0.3063 -0.1345
 8645TIP3    H147350   0.220   2.453  13.914 -1.7034  1.8460 -0.3317
 8645TIP3    H247351   0.218   2.488  13.766 -1.9603 -0.1685 -0.8345
 8646TIP3   OH247352   2.422   3.700   2.112  0.1828 -0.4138  0.0083
 8646TIP3    H147353   2.379   3.668   2.032 -0.2619  2.7412 -1.1443
 8646TIP3    H247354   2.363   3.767   2.146  2.2869  1.2432  0.6217
 8647TIP3   OH247355   3.736   0.311   3.191 -0.0298 -0.3518 -0.3670
 8647TIP3    H147356   3.701   0.262   3.117  0.4783 -1.6082  0.2024
 8647TIP3    H247357   3.746   0.246   3.261  1.3879  0.4114  0.1699
 8648TIP3   OH247358   3.541   1.669  11.661 -0.1889 -0.5415 -0.1154
 8648TIP3    H147359   3.586   1.655  11.745  0.5552  1.0018 -0.2141
 8648TIP3    H247360   3.589   1.741  11.621 -0.9048 -0.8735 -1.6247
 8649TIP3   OH247361   6.394   2.319  10.976  0.1266 -0.2307 -0.4785
 8649TIP3    H147362   6.377   2.232  11.012 -1.1219  0.1942  0.0234
 8649TIP3    H247363   6.434   2.367  11.048  2.3066 -0.8218 -1.2371
 8650TIP3   OH247364   3.350   1.233  10.253 -0.3206 -0.1961 -0.1404
 8650TIP3    H147365   3.438   1.226  10.291 -0.2217 -1.7417 -0.6036
 8650TIP3    H247366   3.310   1.148  10.269 -0.8509 -0.3610 -2.0869
 8651TIP3   OH247367   1.606   2.150  13.162 -0.2199  0.1623  0.8841
 8651TIP3    H147368   1.650   2.167  13.079 -0.7027  0.1990  0.6330
 8651TIP3    H247369   1.651   2.206  13.225  1.4887 -1.3139  1.0785
 8652TIP3   OH247370   6.343   3.612  13.019  0.1029  0.0743 -0.1308
 8652TIP3    H147371   6.293   3.667  13.079 -0.3216 -0.0443 -0.3724
 8652TIP3    H247372   6.428   3.601  13.062 -0.7239 -1.3520  1.2262
 8653TIP3   OH247373   7.074   3.715  12.586 -0.4859  0.6964  0.1764
 8653TIP3    H147374   7.162   3.752  12.576 -0.0185 -0.2650  0.6692
 8653TIP3    H247375   7.016   3.792  12.583  0.3831  1.3759  0.2134
 8654TIP3   OH247376   4.284   3.934   0.963  0.0368  0.6752 -0.2601
 8654TIP3    H147377   4.286   3.840   0.948  1.0579  0.7985 -0.9529
 8654TIP3    H247378   4.318   3.946   1.051  2.2084  0.5428 -1.0358
 8655TIP3   OH247379   0.398   1.727  14.715  0.7505 -0.7308 -0.4717
 8655TIP3    H147380   0.363   1.766  14.635  0.8137 -0.4447 -0.3591
 8655TIP3    H247381   0.491   1.752  14.715  0.2702  1.2705  0.8778
 8656TIP3   OH247382   6.871   4.567   0.815 -0.6411 -0.4482 -0.6014
 8656TIP3    H147383   6.900   4.491   0.866  0.6828 -0.3242 -1.1389
 8656TIP3    H247384   6.864   4.638   0.879 -0.2525 -0.6126 -0.3762
 8657TIP3   OH247385   0.184   0.199  15.261 -0.3885 -0.4683  0.0840
 8657TIP3    H147386   0.168   0.107  15.283 -0.7612 -0.7193 -1.1254
 8657TIP3    H247387   0.215   0.239  15.342 -0.5244 -1.5917  0.7045
 8658TIP3   OH247388   4.243   1.385  11.627  0.2198 -0.1164  0.2620
 8658TIP3    H147389   4.233   1.316  11.562  0.3770 -0.1263  0.2465
 8658TIP3    H247390   4.328   1.424  11.606 -0.2351  0.6297 -0.2604
 8659TIP3   OH247391   2.006   6.887  14.158 -0.4191 -0.4323  0.2773
 8659TIP3    H147392   1.987   6.868  14.066 -1.1606  0.1922  0.2904
 8659TIP3    H247393   2.045   6.807  14.192  0.4946 -0.4470 -0.7531
 8660TIP3   OH247394   5.686   1.238  15.051  0.3348  0.5457 -0.0334
 8660TIP3    H147395   5.630   1.307  15.086  0.4660  1.0866 -0.8632
 8660TIP3    H247396   5.725   1.198  15.128 -1.8389 -0.4365  0.6476
 8661TIP3   OH247397   3.164   5.807  12.120 -0.2401  0.2911  0.3005
 8661TIP3    H147398   3.160   5.723  12.166  0.0383 -0.2692 -0.6639
 8661TIP3    H247399   3.073   5.832  12.108 -0.3284  1.2602  2.5511
 8662TIP3   OH247400   4.549   3.175   9.972 -0.0680  1.0652  1.0384
 8662TIP3    H147401   4.458   3.194   9.949  0.3874  0.7731 -1.2010
 8662TIP3    H247402   4.573   3.245  10.033 -1.1876  2.3403  0.0832
 8663TIP3   OH247403   3.169   2.391  15.151  0.2623  0.5971  0.0962
 8663TIP3    H147404   3.193   2.323  15.087 -1.4932  0.8087 -0.8546
 8663TIP3    H247405   3.228   2.464  15.130  1.6196 -0.3120  0.6007
 8664TIP3   OH247406   3.148   5.896   1.182  0.5752 -0.0605 -0.2638
 8664TIP3    H147407   3.226   5.883   1.236 -1.0131  0.4456  2.3349
 8664TIP3    H247408   3.083   5.838   1.220 -1.1200  1.5657 -0.5713
 8665TIP3   OH247409   5.918   2.881   3.610 -0.1084  0.1224  0.1976
 8665TIP3    H147410   5.893   2.917   3.525  0.2936 -2.1286 -0.9590
 8665TIP3    H247411   6.011   2.903   3.618 -0.4933  1.6409  0.8028
 8666TIP3   OH247412   5.104   5.463  15.285 -0.1688 -0.0196 -0.0736
 8666TIP3    H147413   5.062   5.541  15.321 -1.3811 -1.3488  1.6311
 8666TIP3    H247414   5.111   5.480  15.191 -1.0303  1.8366  0.1514
 8667TIP3   OH247415   2.962   3.221   0.014 -0.0779  0.6795 -0.5155
 8667TIP3    H147416   2.931   3.243   0.102  0.0194  0.2780 -0.3787
 8667TIP3    H247417   2.998   3.303  -0.019  2.2488  0.2999  0.8148
 8668TIP3   OH247418   1.935   3.784  15.273  0.6160  0.4485 -0.1155
 8668TIP3    H147419   1.855   3.819  15.313 -0.0650 -0.0535 -1.0066
 8668TIP3    H247420   1.906   3.709  15.222  1.9617 -1.0640  1.2305
 8669TIP3   OH247421   6.503   0.018  14.623  0.0524 -0.2177  0.2781
 8669TIP3    H147422   6.535  -0.067  14.652 -1.4354 -0.9035 -0.0057
 8669TIP3    H247423   6.426  -0.002  14.570 -0.8934  1.3563  0.9895
 8670TIP3   OH247424   6.112   4.554   0.401 -0.1969  0.3697 -0.2848
 8670TIP3    H147425   6.167   4.475   0.401  1.2695  1.1214  3.8787
 8670TIP3    H247426   6.157   4.615   0.343  1.3992 -0.2440  0.2607
 8671TIP3   OH247427   0.308   6.296  11.831 -0.0875  0.7774 -0.3238
 8671TIP3    H147428   0.248   6.333  11.766  0.7450  2.0702 -0.3877
 8671TIP3    H247429   0.376   6.254  11.780  0.0895  1.0072 -0.2775
 8672TIP3   OH247430   6.200   1.538  12.701 -0.1234 -0.3194 -0.5262
 8672TIP3    H147431   6.208   1.445  12.679 -1.0481 -0.1357 -1.7366
 8672TIP3    H247432   6.276   1.579  12.659  0.4055 -0.5548  0.1965
 8673TIP3   OH247433   3.210   5.783   0.577  0.0864  0.9676 -0.4814
 8673TIP3    H147434   3.127   5.752   0.612  1.2582 -0.8498  0.9132
 8673TIP3    H247435   3.220   5.871   0.614 -0.6743  0.7199  0.3473
 8674TIP3   OH247436   4.896   3.650  12.652  0.3440 -0.4816  0.1095
 8674TIP3    H147437   4.887   3.686  12.563  0.0787  0.3987  0.4872
 8674TIP3    H247438   4.889   3.726  12.709 -0.7234 -1.1957  0.9587
 8675TIP3   OH247439   0.991   1.908  14.874  0.0101  0.5434  0.4092
 8675TIP3    H147440   0.907   1.948  14.852 -0.2491 -1.2000 -2.2953
 8675TIP3    H247441   0.976   1.814  14.868  1.7295  0.1220  1.7549
 8676TIP3   OH247442   4.750   5.536  10.918 -0.0528 -0.2529 -0.0604
 8676TIP3    H147443   4.713   5.475  10.982  1.7873  0.0922  1.4231
 8676TIP3    H247444   4.754   5.620  10.964  1.8895 -0.1313 -0.3563
 8677TIP3   OH247445   1.627   2.196  10.036  0.1397 -0.2681 -0.9243
 8677TIP3    H147446   1.641   2.104  10.013  1.8050 -0.3545  0.2936
 8677TIP3    H247447   1.531   2.204  10.043 -0.2669 -1.0725 -4.1204
 8678TIP3   OH247448   0.122   6.074  15.158 -0.5828 -0.4339 -0.3708
 8678TIP3    H147449   0.117   6.090  15.252 -1.8740 -0.4351 -0.4255
 8678TIP3    H247450   0.147   6.159  15.121  1.5547 -0.8054  0.0701
 8679TIP3   OH247451   5.225   0.137  12.898 -0.3016  0.0581  0.1815
 8679TIP3    H147452   5.211   0.179  12.983  1.2237 -0.4354  0.7022
 8679TIP3    H247453   5.320   0.129  12.890 -0.4581 -3.4666  0.2386
 8680TIP3   OH247454   3.738   5.595  13.796 -0.2604  0.2069 -0.2106
 8680TIP3    H147455   3.782   5.570  13.715  0.7935 -0.0872  0.4340
 8680TIP3    H247456   3.748   5.690  13.802 -1.1138  0.3489 -0.8534
 8681TIP3   OH247457   1.737   3.424  13.206  0.2008 -0.0897  0.8990
 8681TIP3    H147458   1.661   3.383  13.247 -0.5910  0.5392  0.1114
 8681TIP3    H247459   1.770   3.485  13.272 -1.6699  1.6548  0.3442
 8682TIP3   OH247460   5.677   5.362  12.976 -0.2188  0.2024  0.4240
 8682TIP3    H147461   5.695   5.273  12.945  4.2468  0.6821  0.9561
 8682TIP3    H247462   5.620   5.399  12.909 -0.0137 -2.2167 -1.2355
 8683TIP3   OH247463   4.015   5.717  11.455  0.1278 -0.2408  0.0239
 8683TIP3    H147464   3.955   5.669  11.398  0.9032  0.6516 -1.6338
 8683TIP3    H247465   4.028   5.801  11.410  1.1718  0.3035  1.2836
 8684TIP3   OH247466   0.241   5.106  13.581  0.2421 -0.6075  0.4797
 8684TIP3    H147467   0.255   5.073  13.670  0.4549 -0.1511  0.6207
 8684TIP3    H247468   0.294   5.185  13.576  0.1061 -0.5402 -0.0051
 8685TIP3   OH247469   4.708   4.327   1.502  0.2343 -0.4072  0.3654
 8685TIP3    H147470   4.739   4.410   1.536 -1.5914  0.7458 -0.5977
 8685TIP3    H247471   4.787   4.280   1.476  1.2492  1.8470 -0.8732
 8686TIP3   OH247472   6.621   2.107   2.079  0.1229  0.0415  0.3116
 8686TIP3    H147473   6.569   2.179   2.044 -0.5683 -0.4996  0.1871
 8686TIP3    H247474   6.699   2.104   2.024  0.0198  0.5034  0.1362
 8687TIP3   OH247475   1.123   4.216  11.051 -0.1003  0.0561 -0.5917
 8687TIP3    H147476   1.213   4.228  11.082 -0.1468  0.5569 -0.6290
 8687TIP3    H247477   1.078   4.171  11.122  0.2183 -0.3323 -0.6344
 8688TIP3   OH247478   6.717   2.585   4.322  0.1196  0.7070  0.7458
 8688TIP3    H147479   6.724   2.498   4.282 -0.6387 -0.4038  2.8730
 8688TIP3    H247480   6.678   2.640   4.254 -0.1433 -0.8171 -0.3792
 8689TIP3   OH247481   6.112   6.259   3.665  0.3634  0.0130 -0.1250
 8689TIP3    H147482   6.060   6.299   3.735  0.0396  0.2827 -0.5207
 8689TIP3    H247483   6.199   6.246   3.704 -0.0446 -0.6107  0.5996
 8690TIP3   OH247484   3.762   3.055  13.936 -0.3437  0.3951 -0.0772
 8690TIP3    H147485   3.679   3.040  13.980  0.5022 -0.7264  1.1978
 8690TIP3    H247486   3.773   2.979  13.879 -0.5244  0.9095 -0.8203
 8691TIP3   OH247487   5.628   3.704  11.822  0.1312 -0.0730  0.3730
 8691TIP3    H147488   5.629   3.648  11.744  0.2630  1.2875 -0.6417
 8691TIP3    H247489   5.701   3.673  11.875  0.3628 -0.6881 -0.2985
 8692TIP3   OH247490   6.741   6.369  12.532 -0.2177 -0.1740 -0.2087
 8692TIP3    H147491   6.802   6.296  12.526 -0.2019 -0.0926 -1.4008
 8692TIP3    H247492   6.792   6.440  12.572  0.0152 -0.5555  0.1776
 8693TIP3   OH247493   5.154   0.766  10.968  0.2585  0.0739  0.2879
 8693TIP3    H147494   5.081   0.795  11.022  0.2420 -2.4085  1.7569
 8693TIP3    H247495   5.171   0.676  10.996  0.8662 -1.0819 -3.2521
 8694TIP3   OH247496   6.739   5.220  12.080  0.0789  0.1049  0.0343
 8694TIP3    H147497   6.713   5.312  12.088  0.2603  0.2082 -0.5207
 8694TIP3    H247498   6.833   5.221  12.097 -0.0948 -0.1291  1.0607
 8695TIP3   OH247499   4.053   5.221  10.850  0.2655  0.1061  0.1297
 8695TIP3    H147500   3.964   5.223  10.814  0.2949 -0.6540  0.0059
 8695TIP3    H247501   4.105   5.176  10.784  0.5444 -0.3177  0.6308
 8696TIP3   OH247502   4.726   5.137  11.778  0.2890 -0.2069  0.0398
 8696TIP3    H147503   4.815   5.100  11.782  0.3360 -0.0853  0.1356
 8696TIP3    H247504   4.729   5.211  11.840 -0.4156 -1.3397  1.4935
 8697TIP3   OH247505   4.566   1.304   3.826  0.0434  0.0092  0.2866
 8697TIP3    H147506   4.482   1.332   3.861  0.8326  0.3860  2.0117
 8697TIP3    H247507   4.602   1.246   3.893  0.8706 -0.7043 -0.7348
 8698TIP3   OH247508   1.941   1.143  12.468  0.0163 -0.0351 -0.3579
 8698TIP3    H147509   1.887   1.064  12.471 -0.7737  0.5115  0.1545
 8698TIP3    H247510   1.892   1.208  12.519  0.2120  1.0632 -1.5117
 8699TIP3   OH247511   1.297   1.572  12.090 -0.1720  0.2129  0.3161
 8699TIP3    H147512   1.259   1.487  12.114 -2.1042  0.2007 -2.4139
 8699TIP3    H247513   1.247   1.636  12.140 -2.0196 -0.0089 -1.1351
 8700TIP3   OH247514   6.840   2.466  11.146 -0.3462 -0.2438 -0.3613
 8700TIP3    H147515   6.866   2.536  11.207 -2.6071  0.0442  0.3559
 8700TIP3    H247516   6.826   2.390  11.202 -1.2331 -0.3187 -0.6752
 8701TIP3   OH247517   4.167   6.816  10.755 -0.2849  0.3685  0.2240
 8701TIP3    H147518   4.229   6.752  10.787 -0.9443  0.1093  1.0115
 8701TIP3    H247519   4.081   6.781  10.779 -0.6893  1.1846  0.0128
 8702TIP3   OH247520   3.647   2.024  14.236 -0.5119  0.4443 -0.2559
 8702TIP3    H147521   3.671   1.997  14.325 -0.6691  0.9658 -0.0511
 8702TIP3    H247522   3.605   1.947  14.198 -1.4176  0.5518  0.4933
 8703TIP3   OH247523   4.019   1.294   9.916 -0.0775  0.1146  0.2729
 8703TIP3    H147524   3.947   1.237   9.946 -0.9225 -0.2007 -2.1744
 8703TIP3    H247525   4.088   1.232   9.890  0.2975  0.3529  0.6883
 8704TIP3   OH247526   2.875   1.328  13.763 -0.0309 -0.5634 -0.1729
 8704TIP3    H147527   2.854   1.295  13.676 -0.4528 -0.0034 -0.2889
 8704TIP3    H247528   2.817   1.403  13.776  0.2779 -0.4156  0.4459
 8705TIP3   OH247529   0.678   6.216  14.132  0.6129  0.6482 -0.1069
 8705TIP3    H147530   0.736   6.225  14.207 -1.5751 -0.6375  1.8835
 8705TIP3    H247531   0.628   6.298  14.130 -0.1149  0.2396  0.6111
 8706TIP3   OH247532   3.172   0.487  11.222  0.1047  0.5094  0.1422
 8706TIP3    H147533   3.083   0.509  11.252 -0.3164  2.6533 -2.3020
 8706TIP3    H247534   3.165   0.397  11.190 -0.7181  0.0501  1.5106
 8707TIP3   OH247535   3.460   6.323  12.299  0.3144  0.5779  0.7367
 8707TIP3    H147536   3.416   6.392  12.250  0.2614  1.1318  1.5447
 8707TIP3    H247537   3.464   6.356  12.389 -0.0454 -0.6344  1.2143
 8708TIP3   OH247538   3.168   5.354  11.815 -0.1938  0.1357 -0.1774
 8708TIP3    H147539   3.199   5.301  11.742  0.0553  1.6550 -1.2093
 8708TIP3    H247540   3.122   5.427  11.775 -3.5896 -1.0172  1.2490
 8709TIP3   OH247541   1.662   4.317  14.693  0.2050  0.3064  0.1678
 8709TIP3    H147542   1.578   4.272  14.682 -0.0066  0.3641  1.3424
 8709TIP3    H247543   1.728   4.254  14.666 -0.2254  0.3338 -0.9672
 8710TIP3   OH247544   2.000   5.110   0.776  0.6060 -1.0255  0.4893
 8710TIP3    H147545   2.066   5.113   0.706 -0.2340  1.4795 -0.2899
 8710TIP3    H247546   1.919   5.088   0.731  0.4596 -1.8157  1.1062
 8711TIP3   OH247547   4.214   3.317  11.919 -0.4161 -0.1364 -0.3843
 8711TIP3    H147548   4.128   3.350  11.945 -0.4806 -1.4967  1.2797
 8711TIP3    H247549   4.269   3.331  11.995  0.3838 -0.9244 -0.8083
 8712TIP3   OH247550   0.734   3.132  11.599  0.2228  0.6544  0.2370
 8712TIP3    H147551   0.714   3.174  11.516  0.5735 -2.1290 -1.3847
 8712TIP3    H247552   0.718   3.039  11.584 -0.4388  0.0957  3.5436
 8713TIP3   OH247553   3.947   1.770  11.240 -0.4252  0.1940  0.0778
 8713TIP3    H147554   4.040   1.790  11.248 -0.8834  2.7183 -0.3428
 8713TIP3    H247555   3.909   1.844  11.192 -2.4784 -1.3056 -0.7819
 8714TIP3   OH247556   0.703   5.559  14.849  0.0243 -0.3961  0.2434
 8714TIP3    H147557   0.748   5.634  14.888 -0.7897  0.4821 -0.4602
 8714TIP3    H247558   0.756   5.535  14.774 -0.0375 -0.1200  0.1092
 8715TIP3   OH247559   5.791   2.646  12.546 -0.0117 -0.2242 -0.1203
 8715TIP3    H147560   5.866   2.617  12.597  0.4034  0.8974 -0.0714
 8715TIP3    H247561   5.723   2.665  12.611 -0.3039 -1.0742 -0.1557
 8716TIP3   OH247562   1.853   0.290  10.269  0.3191 -0.5268 -0.1456
 8716TIP3    H147563   1.908   0.273  10.193 -0.4888  2.1187 -1.4348
 8716TIP3    H247564   1.914   0.321  10.337  0.8608 -1.4437 -0.2069
 8717TIP3   OH247565   1.533   4.804   1.131 -0.0510  0.3074 -0.2886
 8717TIP3    H147566   1.520   4.717   1.092 -1.8375 -0.0174  0.9037
 8717TIP3    H247567   1.509   4.865   1.062  2.4629 -0.0296 -1.5903
 8718TIP3   OH247568   7.200   5.219  13.869 -0.0634 -0.6242  0.2055
 8718TIP3    H147569   7.157   5.167  13.938  1.7929 -2.3102  0.2032
 8718TIP3    H247570   7.286   5.239  13.905  0.3472 -0.1269 -1.0119
 8719TIP3   OH247571   6.061   6.067  13.966  0.1496 -0.4977  0.4546
 8719TIP3    H147572   6.089   6.076  14.057 -0.6999  0.1255  0.6679
 8719TIP3    H247573   6.140   6.080  13.914  0.2998  1.0968  1.0438
 8720TIP3   OH247574   4.940   7.102   0.507  0.0743 -0.0955  0.6654
 8720TIP3    H147575   4.899   7.074   0.426 -0.1987  0.0366  0.7558
 8720TIP3    H247576   4.939   7.198   0.503  1.7923 -0.0839 -0.0364
 8721TIP3   OH247577   6.710   1.723  11.724 -0.1215 -0.1497 -0.1926
 8721TIP3    H147578   6.768   1.731  11.800  0.6028  0.4218 -0.7933
 8721TIP3    H247579   6.767   1.698  11.652 -0.8178 -0.7628 -0.5499
 8722TIP3   OH247580   2.258   5.457  12.355 -0.1081  0.3209 -0.1923
 8722TIP3    H147581   2.301   5.373  12.340 -0.0111  0.6372 -1.8090
 8722TIP3    H247582   2.329   5.517  12.377 -0.0397  0.2495 -0.2179
 8723TIP3   OH247583   5.885   5.726   0.037  0.4035  0.0307 -0.3738
 8723TIP3    H147584   5.908   5.716   0.130 -1.5321 -0.3689  0.1045
 8723TIP3    H247585   5.965   5.702  -0.010  1.2681 -0.2660  1.1696
 8724TIP3   OH247586   3.767   5.797  11.279  0.2168  0.3281  0.4040
 8724TIP3    H147587   3.739   5.743  11.352  0.2316  0.7649  0.7325
 8724TIP3    H247588   3.716   5.877  11.286 -0.6603 -0.1018 -0.7676
 8725TIP3   OH247589   6.686   2.401   0.748 -0.4366  0.6333 -0.2096
 8725TIP3    H147590   6.669   2.375   0.657 -1.2474  0.6540 -0.0698
 8725TIP3    H247591   6.635   2.340   0.800 -0.1425  0.7573  0.2274
 8726TIP3   OH247592   3.224   2.266   3.575  0.4485 -0.1285  0.3688
 8726TIP3    H147593   3.135   2.284   3.542  1.5704  1.5118 -2.0793
 8726TIP3    H247594   3.242   2.338   3.635  0.0342 -0.6629  1.1567
 8727TIP3   OH247595   2.764   4.113  13.411  0.0843 -0.2785  0.1202
 8727TIP3    H147596   2.775   4.127  13.505 -0.3205 -0.8875  0.2715
 8727TIP3    H247597   2.833   4.050  13.388 -0.8828 -1.4706  0.3770
 8728TIP3   OH247598   3.723   3.903   0.996  0.6096 -0.0898 -0.1871
 8728TIP3    H147599   3.630   3.901   0.973  0.6529  0.2647 -0.4073
 8728TIP3    H247600   3.765   3.947   0.922  1.0834 -1.0582 -0.5133
 8729TIP3   OH247601   0.341   5.972  10.373 -0.2060  0.0016 -0.4687
 8729TIP3    H147602   0.287   5.907  10.328 -2.1706  1.4860 -0.3474
 8729TIP3    H247603   0.293   5.991  10.454  0.0820  1.9069 -0.7037
 8730TIP3   OH247604   5.838   3.690  14.569 -0.1284  0.9667  0.1755
 8730TIP3    H147605   5.797   3.611  14.604  2.6910  0.2046  2.0500
 8730TIP3    H247606   5.903   3.658  14.507 -0.1895  1.9328 -0.4015
 8731TIP3   OH247607   4.280   2.769   0.160  0.1782  1.1486 -0.6884
 8731TIP3    H147608   4.331   2.720   0.224 -0.9846  0.9788  0.1227
 8731TIP3    H247609   4.338   2.775   0.083  1.6191  1.4128  0.3727
 8732TIP3   OH247610   4.718   4.990   0.768 -0.2246  0.0172 -0.1169
 8732TIP3    H147611   4.738   5.064   0.825 -1.1152  0.1392  0.0513
 8732TIP3    H247612   4.804   4.958   0.738  0.2837 -0.2953  1.5925
 8733TIP3   OH247613   2.069   3.953  14.428 -0.1454  0.0113 -0.3350
 8733TIP3    H147614   2.006   3.883  14.442 -0.4782  0.5129  0.8025
 8733TIP3    H247615   2.018   4.024  14.389 -0.4930  0.7043  1.3047
 8734TIP3   OH247616   0.329   3.645   3.144 -0.0347 -0.3998  0.5290
 8734TIP3    H147617   0.273   3.709   3.099 -0.4500 -1.1766 -0.0853
 8734TIP3    H247618   0.288   3.634   3.230 -1.5391 -1.7860 -0.2949
 8735TIP3   OH247619   2.139   2.119  13.921  0.0610 -0.3620 -0.2838
 8735TIP3    H147620   2.090   2.054  13.973  0.8940 -0.5988  0.2224
 8735TIP3    H247621   2.166   2.184  13.985 -0.3105  0.2157 -0.7064
 8736TIP3   OH247622   6.715   1.508   0.507  0.2617  0.3793  0.0814
 8736TIP3    H147623   6.636   1.457   0.491 -0.7285  0.8624  2.8648
 8736TIP3    H247624   6.751   1.472   0.587  0.3958  2.9600  1.2818
 8737TIP3   OH247625   4.123   5.908   2.671  0.3708  0.5188  0.1542
 8737TIP3    H147626   4.163   5.868   2.748  1.3736  1.0131 -0.0903
 8737TIP3    H247627   4.133   6.002   2.684 -0.8227  0.6646  0.1261
 8738TIP3   OH247628   2.044   2.809   1.429  0.4612  0.2211  0.0065
 8738TIP3    H147629   2.072   2.897   1.453  0.0776  0.3555 -0.0414
 8738TIP3    H247630   2.102   2.751   1.480 -0.6564  0.4885  1.6537
 8739TIP3   OH247631   2.333   3.518  10.887  0.4120 -0.6825 -0.4636
 8739TIP3    H147632   2.251   3.494  10.845 -0.8668  2.6494 -0.1821
 8739TIP3    H247633   2.312   3.527  10.980  1.5350 -1.4201 -0.1128
 8740TIP3   OH247634   6.168   3.682  11.859  0.1928  0.6133 -0.4440
 8740TIP3    H147635   6.141   3.599  11.820  0.5448  0.1886  0.1961
 8740TIP3    H247636   6.207   3.657  11.942  0.6305  1.3970 -0.4104
 8741TIP3   OH247637   3.950   0.971  14.790  0.0172  0.6079 -0.2028
 8741TIP3    H147638   3.986   0.998  14.875  1.0134 -0.3239 -0.3106
 8741TIP3    H247639   3.872   0.920  14.813 -0.3151  1.2471  0.1076
 8742TIP3   OH247640   0.892   5.371  10.977 -0.2012  0.4769  0.4759
 8742TIP3    H147641   0.810   5.331  11.006 -1.6090  1.9282 -1.2524
 8742TIP3    H247642   0.865   5.444  10.921  2.2837  1.3439  0.2628
 8743TIP3   OH247643   1.255   6.423  13.267 -0.1270 -0.7085 -0.2351
 8743TIP3    H147644   1.191   6.363  13.228  0.2952 -1.7239  0.6027
 8743TIP3    H247645   1.335   6.410  13.216 -0.5192  0.4841 -1.2138
 8744TIP3   OH247646   0.830   1.005   4.199  0.4162  0.5841  0.0571
 8744TIP3    H147647   0.903   1.037   4.145  0.1218 -0.0265 -0.7195
 8744TIP3    H247648   0.869   0.992   4.285  1.1557  0.5606 -0.2672
 8745TIP3   OH247649   0.427   5.878  13.584  0.1147 -0.8816 -0.1239
 8745TIP3    H147650   0.489   5.934  13.538  0.3213 -1.1701 -0.1966
 8745TIP3    H247651   0.375   5.939  13.636 -0.4420 -0.5054 -1.0983
 8746TIP3   OH247652   3.065   0.169  11.077 -0.0050  0.0288  0.7489
 8746TIP3    H147653   3.007   0.142  11.148  0.2579 -1.8156  0.2993
 8746TIP3    H247654   3.007   0.194  11.005 -0.2528 -0.2928  0.8395
 8747TIP3   OH247655   0.278   2.834   1.817  0.5289  0.0949  0.1737
 8747TIP3    H147656   0.359   2.806   1.776  0.6731 -0.6597  0.9522
 8747TIP3    H247657   0.210   2.812   1.754  0.6705 -1.7398  0.5954
 8748TIP3   OH247658   6.413   3.026  13.501 -0.3521  0.0347  0.3592
 8748TIP3    H147659   6.482   3.059  13.559  1.3615  0.4944 -1.7908
 8748TIP3    H247660   6.339   3.085  13.516 -0.9567 -1.4039  3.8652
 8749TIP3   OH247661   3.002   0.590  12.111  0.3868 -0.4138  0.1286
 8749TIP3    H147662   3.020   0.567  12.019 -1.9726  1.5359 -0.9380
 8749TIP3    H247663   2.922   0.543  12.133 -0.3826  0.9541  0.3520
 8750TIP3   OH247664   5.600   0.990  14.129 -0.2498  0.2259  0.2670
 8750TIP3    H147665   5.529   0.944  14.085 -0.1590 -0.5930  0.9482
 8750TIP3    H247666   5.674   0.929  14.125  0.5179  1.1914 -0.7081
 8751TIP3   OH247667   4.328   2.557  11.481 -0.3481  0.2705  0.3710
 8751TIP3    H147668   4.235   2.575  11.490 -0.4392  0.2522 -0.5025
 8751TIP3    H247669   4.333   2.465  11.454  0.0087 -0.2855  2.1831
 8752TIP3   OH247670   5.590   3.735  14.942 -0.2844 -0.3088 -0.0930
 8752TIP3    H147671   5.685   3.745  14.947 -0.3722  0.9231 -0.4168
 8752TIP3    H247672   5.558   3.773  15.024 -0.5340  0.0358 -0.3454
 8753TIP3   OH247673   3.840   3.496   2.377  0.3687 -0.3401  0.0764
 8753TIP3    H147674   3.793   3.579   2.364 -1.3078 -1.2615  0.0234
 8753TIP3    H247675   3.916   3.520   2.430  0.3618  1.3625 -0.6170
 8754TIP3   OH247676   6.747   6.453  11.571  0.3411 -0.2454  0.3271
 8754TIP3    H147677   6.823   6.487  11.523  0.4244 -1.0201 -0.1046
 8754TIP3    H247678   6.757   6.358  11.568 -1.1783 -0.4171 -0.6450
 8755TIP3   OH247679   0.845   3.639  13.460 -0.2887 -0.1857  0.0989
 8755TIP3    H147680   0.812   3.646  13.550  1.9578 -0.1148  1.0024
 8755TIP3    H247681   0.777   3.677  13.406 -1.9665 -0.7463  1.7134
 8756TIP3   OH247682   6.923   6.110   1.699  0.6331  0.2393  0.4071
 8756TIP3    H147683   6.903   6.142   1.787  1.6822  0.1251  0.7013
 8756TIP3    H247684   6.972   6.182   1.658  2.0221 -0.5258  0.6784
 8757TIP3   OH247685   5.768   3.003  12.322 -0.1011  0.7531 -0.0115
 8757TIP3    H147686   5.834   2.966  12.381 -1.0976 -0.7329  0.2406
 8757TIP3    H247687   5.741   2.929  12.267 -1.0684  1.4922 -0.5537
 8758TIP3   OH247688   3.866   6.231  10.380  0.1936  0.1374 -0.3963
 8758TIP3    H147689   3.848   6.142  10.408  1.2001  0.2135  0.5726
 8758TIP3    H247690   3.961   6.241  10.391  0.2782  0.9463 -1.6229
 8759TIP3   OH247691   6.328   5.392   0.570  0.0777  0.0972 -0.7489
 8759TIP3    H147692   6.382   5.469   0.587  0.1922 -0.0110 -0.6160
 8759TIP3    H247693   6.241   5.415   0.603  0.0963  0.1933 -0.7683
 8760TIP3   OH247694   3.622   3.103   0.043  0.6348  0.1960 -0.3820
 8760TIP3    H147695   3.655   3.015   0.059  1.1681  0.2796 -0.9966
 8760TIP3    H247696   3.625   3.114  -0.052 -3.7204 -0.7853 -0.8698
 8761TIP3   OH247697   7.084   5.257   1.685  0.4621 -0.6255  0.6102
 8761TIP3    H147698   7.178   5.275   1.673  0.3763 -0.1891  0.5927
 8761TIP3    H247699   7.059   5.310   1.760 -0.5607  2.0365 -1.4609
 8762TIP3   OH247700   3.940   5.768  12.622  0.1905  0.1426  0.3513
 8762TIP3    H147701   3.854   5.739  12.592 -1.4665  2.0602  2.7944
 8762TIP3    H247702   3.940   5.862  12.607  1.4801  0.3163  1.2665
 8763TIP3   OH247703   4.058   5.043  14.254  1.0073  0.0535 -0.0646
 8763TIP3    H147704   4.081   5.079  14.339  0.2741 -1.0064  0.6040
 8763TIP3    H247705   4.141   5.031  14.209  1.5091 -0.5542  0.9948
 8764TIP3   OH247706   0.520   4.738   4.662  0.7847 -0.6902  0.0302
 8764TIP3    H147707   0.452   4.676   4.690  2.3173 -1.5990  2.0436
 8764TIP3    H247708   0.560   4.697   4.585  0.7519 -1.4426  0.4053
 8765TIP3   OH247709   3.616   3.300  13.084  0.5889 -0.3030 -0.0283
 8765TIP3    H147710   3.615   3.330  12.993 -0.7325  1.7102  0.5954
 8765TIP3    H247711   3.673   3.223  13.082  1.4511  0.2871 -2.3563
 8766TIP3   OH247712   1.818   5.166  14.478 -0.3018 -0.1019  0.2147
 8766TIP3    H147713   1.784   5.161  14.388 -0.5150  1.2146  0.2111
 8766TIP3    H247714   1.907   5.130  14.472  0.2523  1.3645 -0.8391
 8767TIP3   OH247715   6.067   3.043  12.607  0.3580 -0.7787  0.2751
 8767TIP3    H147716   6.038   2.967  12.556  0.8527 -0.7450 -0.0635
 8767TIP3    H247717   6.100   3.006  12.688  0.3504 -0.9065  0.2204
 8768TIP3   OH247718   2.949   1.264   0.798 -0.0696 -0.3330  0.9705
 8768TIP3    H147719   2.916   1.240   0.884 -0.9497  1.2201  1.1115
 8768TIP3    H247720   2.873   1.302   0.753  0.9718  1.3192  0.4913
 8769TIP3   OH247721   3.063   2.119   0.122  0.4204 -0.4265  0.0127
 8769TIP3    H147722   3.142   2.123   0.176 -1.1550 -0.5905  2.5255
 8769TIP3    H247723   3.078   2.182   0.052  1.6361  1.7275  2.0861
 8770TIP3   OH247724   3.148   5.876  14.342 -0.2961 -0.8255  0.3927
 8770TIP3    H147725   3.063   5.872  14.298 -0.3666 -2.1885  0.6222
 8770TIP3    H247726   3.142   5.954  14.397 -0.8560 -0.0861 -0.6748
 8771TIP3   OH247727   6.822   4.713  14.645  0.5926  0.3119  1.0723
 8771TIP3    H147728   6.852   4.787  14.592 -1.3900  0.2070 -0.3389
 8771TIP3    H247729   6.754   4.750  14.702  1.5865  0.1033  2.4254
 8772TIP3   OH247730   3.593   6.083  14.037 -0.5542  0.7338 -0.4317
 8772TIP3    H147731   3.514   6.037  14.064 -1.1189  0.7407 -2.0060
 8772TIP3    H247732   3.564   6.143  13.968  1.0741 -0.4733 -2.2506
 8773TIP3   OH247733   3.482   1.256  13.047  0.2641 -0.1022 -0.5131
 8773TIP3    H147734   3.466   1.162  13.050 -2.4267  0.2482 -0.8309
 8773TIP3    H247735   3.512   1.279  13.134  1.8630 -1.3539 -0.6961
 8774TIP3   OH247736   6.733   5.566  10.344  0.2984  0.1161  0.0082
 8774TIP3    H147737   6.795   5.608  10.403  0.5902  1.5808 -1.2859
 8774TIP3    H247738   6.748   5.608  10.259 -1.0031 -1.0035 -0.8211
 8775TIP3   OH247739   5.037   1.209   2.230  0.0762 -0.4208 -0.5488
 8775TIP3    H147740   4.948   1.214   2.196  0.2846 -0.2547 -1.0839
 8775TIP3    H247741   5.092   1.200   2.152  0.6159  0.6161 -0.3033
 8776TIP3   OH247742   0.728   3.319   4.789 -0.3221 -0.0913  0.2400
 8776TIP3    H147743   0.759   3.387   4.729  0.2746 -0.0751  0.5567
 8776TIP3    H247744   0.765   3.344   4.874  1.5949 -1.8470  0.0136
 8777TIP3   OH247745   1.715   4.923   1.935  0.7902 -0.1935  0.3167
 8777TIP3    H147746   1.686   5.014   1.942  2.9384  0.6749 -1.0418
 8777TIP3    H247747   1.664   4.877   2.001 -2.2212  1.4771 -0.6713
 8778TIP3   OH247748   3.863   1.072   3.865 -0.2336 -0.0121 -0.3190
 8778TIP3    H147749   3.893   1.130   3.794 -1.0450  0.6698 -0.1183
 8778TIP3    H247750   3.898   0.986   3.841  2.5174  0.8299  0.2835
 8779TIP3   OH247751   5.169   6.241  14.789 -0.2422 -0.0801  0.7698
 8779TIP3    H147752   5.158   6.259  14.883 -3.6883  0.6448  0.3649
 8779TIP3    H247753   5.083   6.208  14.762  0.8786 -0.9323 -2.0294
 8780TIP3   OH247754   6.517   0.909  12.953 -0.3290 -0.2002 -0.0165
 8780TIP3    H147755   6.547   0.829  12.996 -2.0953 -0.5964  0.5472
 8780TIP3    H247756   6.548   0.979  13.010  0.9071 -0.4678 -0.3145
 8781TIP3   OH247757   1.003   4.710   9.611  0.5506  0.8871  0.1022
 8781TIP3    H147758   1.098   4.702   9.598  0.8137  1.7068  1.2946
 8781TIP3    H247759   0.964   4.661   9.539  1.8808  0.9902 -0.7129
 8782TIP3   OH247760   0.014   3.010  10.887  0.6635 -0.0608  0.0284
 8782TIP3    H147761   0.068   2.998  10.965  0.5058  0.2219  0.1855
 8782TIP3    H247762  -0.001   2.922  10.854  2.7421 -0.0707 -1.0695
 8783TIP3   OH247763   4.586   4.496   5.612  0.2293  1.1449 -0.2680
 8783TIP3    H147764   4.506   4.516   5.662 -0.1711 -0.2916 -0.2648
 8783TIP3    H247765   4.572   4.535   5.526 -0.7146  0.5204 -0.4190
 8784TIP3   OH247766   6.591   4.493  10.826  0.4843  0.3744  0.6648
 8784TIP3    H147767   6.630   4.549  10.759  0.7589  0.6383  1.0389
 8784TIP3    H247768   6.500   4.482  10.799  1.0724 -1.2058 -0.8583
 8785TIP3   OH247769   2.932   4.968  14.220 -0.2677 -0.3426  0.4396
 8785TIP3    H147770   2.993   4.930  14.158  0.1695  0.4291  0.3743
 8785TIP3    H247771   2.899   4.894  14.271 -1.1038 -1.0579 -1.1038
 8786TIP3   OH247772   3.567   2.120  10.727 -0.0894 -0.1858  0.2219
 8786TIP3    H147773   3.614   2.160  10.654 -0.5440  0.1186  0.0876
 8786TIP3    H247774   3.600   2.164  10.805  0.0846 -0.2048  0.1578
 8787TIP3   OH247775   1.867   3.346   2.805  0.5186 -0.2814  0.4376
 8787TIP3    H147776   1.951   3.393   2.801  0.7005 -0.6003  0.4136
 8787TIP3    H247777   1.855   3.327   2.898  0.4773 -0.2431  0.4399
 8788TIP3   OH247778   6.956   0.180  10.680 -0.7895  0.4759  0.0922
 8788TIP3    H147779   6.932   0.088  10.668 -2.1832  0.9881 -1.3699
 8788TIP3    H247780   6.888   0.229  10.634  1.8203  2.1385 -2.3492
 8789TIP3   OH247781   0.810   2.106  14.851  0.5794 -0.4500  0.2624
 8789TIP3    H147782   0.803   2.069  14.938  1.5161 -0.0072  0.5411
 8789TIP3    H247783   0.752   2.182  14.852  0.9154 -0.1939  0.6476
 8790TIP3   OH247784   6.010   0.008   2.048  0.6095 -0.5239  0.3985
 8790TIP3    H147785   5.979   0.098   2.038 -0.9816 -0.9607  1.2042
 8790TIP3    H247786   6.013  -0.006   2.143  3.0296 -0.6254  0.3695
 8791TIP3   OH247787   5.579   4.856  12.874  0.3665 -0.3829  0.1566
 8791TIP3    H147788   5.643   4.828  12.939 -1.4506 -2.1499  1.2844
 8791TIP3    H247789   5.590   4.795  12.801  0.4992 -0.1784  0.0043
 8792TIP3   OH247790   1.721   6.241  14.464 -0.1355 -0.4696 -0.1836
 8792TIP3    H147791   1.776   6.163  14.461 -1.2193 -1.2445 -0.1336
 8792TIP3    H247792   1.783   6.313  14.480  0.9660 -1.1971 -1.0613
 8793TIP3   OH247793   5.004   6.551  11.230 -0.1822 -0.5637  0.3932
 8793TIP3    H147794   4.981   6.591  11.147  0.5831 -0.9520 -0.0186
 8793TIP3    H247795   4.947   6.476  11.239 -2.3884  1.1361  1.6733
 8794TIP3   OH247796   0.024   3.741  12.165  0.3613  0.0300 -0.1110
 8794TIP3    H147797   0.081   3.683  12.116  1.1817 -0.7074  1.6343
 8794TIP3    H247798  -0.044   3.766  12.102  0.2994 -2.3428 -1.0949
 8795TIP3   OH247799   4.246   1.389  13.175 -0.2428 -0.6054  0.6375
 8795TIP3    H147800   4.275   1.400  13.266  2.4652 -2.3270  0.0957
 8795TIP3    H247801   4.159   1.350  13.182 -1.2820  1.7321  2.4047
 8796TIP3   OH247802   2.471   5.295  10.351  0.3747  0.4962 -0.0163
 8796TIP3    H147803   2.558   5.326  10.324  0.0863  1.5712  0.2630
 8796TIP3    H247804   2.411   5.361  10.319 -0.4060 -0.4725 -0.6059
 8797TIP3   OH247805   4.474   1.825  11.833 -0.3781 -0.5966  0.3541
 8797TIP3    H147806   4.484   1.801  11.925 -2.9841  1.3632  1.2896
 8797TIP3    H247807   4.517   1.911  11.827 -2.0001  0.2516  0.3398
 8798TIP3   OH247808   1.528   3.838  13.016  0.1771  0.7689  0.0752
 8798TIP3    H147809   1.482   3.904  13.068 -0.2684  1.3453 -1.0287
 8798TIP3    H247810   1.549   3.769  13.079 -2.6770  0.2291  0.5527
 8799TIP3   OH247811   3.482   3.776   1.818  0.1127 -0.3204  0.6060
 8799TIP3    H147812   3.494   3.729   1.735  1.4136 -0.3067  0.7772
 8799TIP3    H247813   3.459   3.865   1.792  0.7052 -0.2683  0.2590
 8800TIP3   OH247814   6.812   1.776   0.416  0.3009 -0.3733 -0.5364
 8800TIP3    H147815   6.762   1.695   0.400 -2.0700  1.0172 -0.5774
 8800TIP3    H247816   6.762   1.844   0.372  0.1206  1.7077  2.5941
 8801TIP3   OH247817   4.756   4.914   2.759 -0.0199  0.4883  0.0533
 8801TIP3    H147818   4.722   4.826   2.768  1.4649  0.0410  2.3840
 8801TIP3    H247819   4.851   4.903   2.755  0.1615  1.9482 -0.6273
 8802TIP3   OH247820   3.662   0.966   0.447  0.1432 -0.5052  0.3578
 8802TIP3    H147821   3.608   1.013   0.510  0.4623  1.0394 -0.4817
 8802TIP3    H247822   3.624   0.878   0.443 -1.8402  0.3035  0.3517
 8803TIP3   OH247823   2.651   2.001   9.258 -0.0292 -0.5886 -0.0514
 8803TIP3    H147824   2.574   2.035   9.213  0.7628  0.8193 -0.4361
 8803TIP3    H247825   2.687   1.936   9.199 -0.1608 -0.2504 -0.5118
 8804TIP3   OH247826   4.907   0.589  13.958  0.4204  0.2305  0.3690
 8804TIP3    H147827   4.859   0.622  13.881 -0.0819 -0.2685  0.4568
 8804TIP3    H247828   4.887   0.495  13.959  0.1722  0.2814  1.2854
 8805TIP3   OH247829   1.305   1.961  11.899  0.3958 -0.3426  0.5120
 8805TIP3    H147830   1.347   1.934  11.980  0.6263  1.2778  0.9495
 8805TIP3    H247831   1.310   2.056  11.899  0.2114 -0.2924 -1.3050
 8806TIP3   OH247832   6.259   4.668   1.087  0.6512  0.5353 -0.2546
 8806TIP3    H147833   6.265   4.701   0.997 -0.0440  1.1179 -0.0959
 8806TIP3    H247834   6.297   4.580   1.082 -1.9280 -0.6033 -1.7469
 8807TIP3   OH247835   2.037   0.784  10.921  0.2707 -0.0138 -0.7682
 8807TIP3    H147836   2.116   0.771  10.870  1.4170  0.8438  0.6870
 8807TIP3    H247837   1.970   0.808  10.857  1.9608  2.3745 -1.7692
 8808TIP3   OH247838   1.365   5.393   0.036  0.2093  0.3154 -0.0443
 8808TIP3    H147839   1.454   5.429   0.036  0.5526 -0.5014  1.0215
 8808TIP3    H247840   1.360   5.339   0.115 -0.6730 -1.0646 -0.9922
 8809TIP3   OH247841   1.557   2.954  13.294  0.1128 -0.3602 -0.6426
 8809TIP3    H147842   1.502   3.023  13.257 -2.0236 -0.5482  1.8970
 8809TIP3    H247843   1.534   2.875  13.245  0.1486  0.0723 -1.3748
 8810TIP3   OH247844   6.907   6.482  12.084 -0.5211 -0.0712 -0.2674
 8810TIP3    H147845   6.885   6.560  12.033  1.1002  0.9851  0.5534
 8810TIP3    H247846   6.991   6.453  12.049  0.9071  0.9801  2.0159
 8811TIP3   OH247847   6.216   4.626  11.817  0.3343 -0.8648 -0.5093
 8811TIP3    H147848   6.274   4.607  11.742  2.9002 -0.4905  1.2591
 8811TIP3    H247849   6.223   4.548  11.872 -2.6690 -1.7570 -1.1905
 8812TIP3   OH247850   4.993   1.960  13.458 -0.1126 -0.0679 -0.4468
 8812TIP3    H147851   4.989   1.979  13.552 -2.0182  2.3601 -0.8955
 8812TIP3    H247852   5.031   2.039  13.419  1.1973 -1.2562 -1.7134
 8813TIP3   OH247853   0.384   6.111   3.786 -0.4004 -0.5479  0.3368
 8813TIP3    H147854   0.406   6.202   3.768 -2.6498 -0.0102 -0.0164
 8813TIP3    H247855   0.315   6.089   3.723 -1.2255 -1.8768  1.6142
 8814TIP3   OH247856   0.982   3.956  15.003 -0.1204 -0.1671 -0.2356
 8814TIP3    H147857   0.916   3.909  15.055  0.2708 -1.1601 -0.6162
 8814TIP3    H247858   1.053   3.974  15.064 -0.0409 -0.5574 -0.2097
 8815TIP3   OH247859   1.739   0.544  13.880  0.1813  0.1821 -0.1725
 8815TIP3    H147860   1.694   0.492  13.814  0.3683  0.5245 -0.5731
 8815TIP3    H247861   1.795   0.603  13.830  0.8400 -0.0204  0.3065
 8816TIP3   OH247862   5.594   5.720   9.921  0.1144 -0.3911  0.5588
 8816TIP3    H147863   5.615   5.696   9.830 -1.4667  0.5803 -0.0949
 8816TIP3    H247864   5.626   5.810   9.930 -1.0060  0.0246  0.4978
 8817TIP3   OH247865   2.343   5.602   1.846  0.1138  0.6261  0.4667
 8817TIP3    H147866   2.394   5.527   1.878  0.4716  0.6286 -0.0753
 8817TIP3    H247867   2.332   5.585   1.752  1.6443  2.0466 -0.0224
 8818TIP3   OH247868   5.276   7.114   9.835  0.2296  0.0341 -0.7012
 8818TIP3    H147869   5.340   7.047   9.811  1.3468  0.7899  0.0494
 8818TIP3    H247870   5.294   7.133   9.927 -0.8879  0.4892 -0.5543
 8819TIP3   OH247871   1.373   2.259  13.755  1.0037  0.3747 -0.1191
 8819TIP3    H147872   1.391   2.348  13.784  1.7841  0.3319 -0.4545
 8819TIP3    H247873   1.390   2.260  13.661  0.3456  0.0427 -0.2459
 8820TIP3   OH247874   6.816   1.857   0.773  0.0539 -0.1589 -0.8721
 8820TIP3    H147875   6.888   1.822   0.721  1.3596  0.9346  0.1243
 8820TIP3    H247876   6.794   1.786   0.833 -0.8049 -1.0736 -2.2103
 8821TIP3   OH247877   0.592   0.366   9.614 -0.3071  0.0635 -0.0088
 8821TIP3    H147878   0.537   0.347   9.538 -0.6206  1.9322 -0.3164
 8821TIP3    H247879   0.674   0.320   9.598 -0.3846  0.4042 -1.4854
 8822TIP3   OH247880   0.070   3.818  12.435  0.3766  0.4365 -0.4371
 8822TIP3    H147881   0.076   3.914  12.428  2.0406  0.4199  0.2508
 8822TIP3    H247882   0.053   3.788  12.346 -0.9728  1.3977 -0.5375
 8823TIP3   OH247883   4.911   3.989  10.399  0.2023  0.5111 -0.1366
 8823TIP3    H147884   4.945   4.020  10.316 -0.3147 -0.1420 -0.5995
 8823TIP3    H247885   4.919   3.894  10.394 -0.5631  0.4223  0.2416
 8824TIP3   OH247886   0.356   0.111  13.750 -0.1561  0.7027  0.2882
 8824TIP3    H147887   0.445   0.128  13.719  1.6069 -2.4565  2.9552
 8824TIP3    H247888   0.325   0.039  13.694 -0.5597  0.9553  0.1816
 8825TIP3   OH247889   6.997   5.592  10.158 -0.1838 -0.5594  0.3347
 8825TIP3    H147890   7.006   5.609  10.251 -0.9121  1.6079  0.0723
 8825TIP3    H247891   6.909   5.622  10.136  0.7526  1.1755 -1.4384
 8826TIP3   OH247892   7.120   4.404  14.578 -0.0621  0.1089  0.2430
 8826TIP3    H147893   7.181   4.339  14.613 -1.1359 -0.6127  0.8045
 8826TIP3    H247894   7.095   4.456  14.654 -0.6297  0.0028  0.1294
 8827TIP3   OH247895   6.049   6.594  13.234 -0.6833  0.0809 -0.1018
 8827TIP3    H147896   6.064   6.613  13.326 -0.7809  2.5128 -0.5172
 8827TIP3    H247897   6.119   6.534  13.210  1.1759  1.7461  0.8747
 8828TIP3   OH247898   2.612   6.118   0.998 -0.1108  0.6846  0.2000
 8828TIP3    H147899   2.690   6.171   1.018  1.5275 -0.9860 -1.3250
 8828TIP3    H247900   2.579   6.155   0.916 -0.5424  0.9631  0.4945
 8829TIP3   OH247901   2.110   0.948  14.722  0.1548  0.0838 -0.0093
 8829TIP3    H147902   2.198   0.941  14.685  0.4701  1.7455  0.3216
 8829TIP3    H247903   2.056   0.977  14.648 -0.2184 -1.3027 -0.3063
 8830TIP3   OH247904   6.730   0.706   1.142 -0.5379 -0.1934  0.0665
 8830TIP3    H147905   6.746   0.801   1.143 -0.0784 -0.2487 -0.8733
 8830TIP3    H247906   6.637   0.699   1.118 -0.4894  0.0164 -0.1933
 8831TIP3   OH247907   0.337   4.144  15.008  0.1384  0.1032 -0.2787
 8831TIP3    H147908   0.415   4.189  15.039 -0.2789  1.6058 -1.2748
 8831TIP3    H247909   0.323   4.073  15.071  1.7878  0.3408  0.3979
 8832TIP3   OH247910   6.770   3.827  13.841  0.2191  0.0645 -0.1870
 8832TIP3    H147911   6.840   3.888  13.866 -0.3752  0.6770  0.0202
 8832TIP3    H247912   6.775   3.825  13.745  0.1319  0.5816 -0.2080
 8833TIP3   OH247913   3.412   2.312  13.019 -0.0096 -0.3707  0.0266
 8833TIP3    H147914   3.447   2.289  13.105  0.6646 -0.3036 -0.2248
 8833TIP3    H247915   3.375   2.230  12.986  1.5000 -0.8960 -0.4482
 8834TIP3   OH247916   3.102   1.428   4.126 -1.0633 -0.1845 -0.0091
 8834TIP3    H147917   3.032   1.405   4.187 -0.2020 -2.0835  0.3397
 8834TIP3    H247918   3.105   1.356   4.064  1.1640 -0.6606  0.5582
 8835TIP3   OH247919   5.363   4.977  14.858 -0.3727 -0.5322  0.7225
 8835TIP3    H147920   5.347   4.884  14.847  0.2600 -0.5846  0.1456
 8835TIP3    H247921   5.404   5.004  14.775 -1.7430  0.5359  0.3529
 8836TIP3   OH247922   2.539   1.091  14.640  0.1221  0.1277  0.0807
 8836TIP3    H147923   2.542   1.142  14.721  0.6294 -0.8093  0.6809
 8836TIP3    H247924   2.565   1.003  14.667  1.5563  0.0834 -1.3373
 8837TIP3   OH247925   1.016   7.045  11.497  0.0864 -0.4189 -0.8120
 8837TIP3    H147926   1.023   6.953  11.525  0.3259 -0.8621 -2.2199
 8837TIP3    H247927   0.977   7.090  11.571 -1.2340 -1.9105 -0.5418
 8838TIP3   OH247928   6.766   5.745  10.134 -0.3165 -0.0702  0.2404
 8838TIP3    H147929   6.744   5.828  10.177 -1.2096  0.1790 -0.6515
 8838TIP3    H247930   6.723   5.751  10.048  1.3088 -0.5949 -0.6502
 8839TIP3   OH247931   1.976   0.385   0.253  0.0844 -0.6401  0.0775
 8839TIP3    H147932   2.056   0.438   0.262 -0.1569  0.1165 -1.8466
 8839TIP3    H247933   1.967   0.372   0.159 -1.2327 -2.0436  0.3783
 8840TIP3   OH247934   0.421   5.111  10.169 -0.6628  0.4064  0.6392
 8840TIP3    H147935   0.389   5.060  10.095  0.1259 -0.6042  0.9794
 8840TIP3    H247936   0.355   5.180  10.181 -0.8846  0.4793 -0.8759
 8841TIP3   OH247937   6.863   0.486  13.798  0.9354 -0.1630  0.6206
 8841TIP3    H147938   6.882   0.538  13.720  0.3710 -1.7287 -0.6397
 8841TIP3    H247939   6.917   0.523  13.867  2.0330  0.7949 -0.7184
 8842TIP3   OH247940   1.938   2.311  15.122 -0.0276  0.1770  0.8143
 8842TIP3    H147941   1.872   2.289  15.188 -0.9276 -0.0512 -0.1349
 8842TIP3    H247942   1.985   2.385  15.160 -2.7721  2.3462  0.3580
 8843TIP3   OH247943   6.841   4.107  11.085  0.2438  0.3966  0.0571
 8843TIP3    H147944   6.839   4.068  10.997  0.4816  2.0751 -0.7285
 8843TIP3    H247945   6.773   4.174  11.083 -0.2011  0.0059  1.3970
 8844TIP3   OH247946   2.579   2.804   0.451 -0.9243  0.2715  0.3959
 8844TIP3    H147947   2.644   2.871   0.430 -0.7649  0.0758  0.2558
 8844TIP3    H247948   2.620   2.722   0.424 -1.0080  0.0883  0.8129
 8845TIP3   OH247949   3.615   3.320  11.878  0.3411 -0.6494 -0.1793
 8845TIP3    H147950   3.575   3.325  11.965  1.3403  3.1497  0.2339
 8845TIP3    H247951   3.542   3.332  11.817  0.1267  1.2833  0.3894
 8846TIP3   OH247952   3.722   4.913   4.840  0.0757 -0.2158 -0.4528
 8846TIP3    H147953   3.666   4.923   4.764 -1.6398  1.3379  0.9133
 8846TIP3    H247954   3.662   4.890   4.911  1.3347  0.2690  0.8137
 8847TIP3   OH247955   2.668   1.420  14.448 -0.3168  0.0714  0.2163
 8847TIP3    H147956   2.693   1.504  14.487 -2.8488  1.2788 -0.5352
 8847TIP3    H247957   2.573   1.425  14.438 -0.6488 -3.1464  0.6295
 8848TIP3   OH247958   5.286   2.680   3.704 -0.3662 -0.1377  0.7194
 8848TIP3    H147959   5.343   2.665   3.629 -0.6702  0.2538  0.4047
 8848TIP3    H247960   5.335   2.738   3.761 -0.1392 -0.4265  0.8204
 8849TIP3   OH247961   1.707   2.231  14.225 -0.0500  0.6574  0.0672
 8849TIP3    H147962   1.681   2.140  14.237  0.1129  0.6399  0.2975
 8849TIP3    H247963   1.802   2.227  14.212 -0.2996  0.5806 -2.2015
 8850TIP3   OH247964   5.541   2.099  14.571  0.2956  0.0142  0.2091
 8850TIP3    H147965   5.465   2.077  14.624  1.0639 -2.1067  0.5153
 8850TIP3    H247966   5.614   2.055  14.614  1.9033  2.6709  0.4132
 8851TIP3   OH247967   5.882   1.870  13.909 -0.1450 -0.6391 -0.2337
 8851TIP3    H147968   5.793   1.893  13.937 -0.1107 -0.2870 -0.4203
 8851TIP3    H247969   5.890   1.908  13.822  0.7328  0.6784  0.3921
 8852TIP3   OH247970   3.015   5.655  14.319  0.0072  0.8343 -0.4398
 8852TIP3    H147971   3.051   5.613  14.241  0.0862 -2.3246  1.1471
 8852TIP3    H247972   3.083   5.716  14.346  0.2762  1.4871 -2.4016
 8853TIP3   OH247973   7.179   4.826  14.299 -0.5199 -0.3407 -0.4208
 8853TIP3    H147974   7.254   4.866  14.255 -0.3448 -0.6066 -0.3623
 8853TIP3    H247975   7.217   4.761  14.358 -0.7649 -0.1190 -0.0137
 8854TIP3   OH247976   1.677   0.179  15.223  0.3139  0.3774  0.5553
 8854TIP3    H147977   1.731   0.258  15.213 -0.1705  0.6772  0.3034
 8854TIP3    H247978   1.652   0.155  15.134  1.1666 -0.5659  0.5489
 8855TIP3   OH247979   2.492   5.597  14.267  0.3042  0.0478 -0.1883
 8855TIP3    H147980   2.478   5.503  14.278  0.6835  0.0415  0.2634
 8855TIP3    H247981   2.586   5.606  14.256  0.4126  0.4800  0.9645
 8856TIP3   OH247982   2.654   4.060  10.004 -0.4735 -0.3176 -0.2024
 8856TIP3    H147983   2.594   3.993   9.972 -0.6238  1.0073 -2.9990
 8856TIP3    H247984   2.642   4.134   9.944  0.1392  2.0230  2.3267
 8857TIP3   OH247985   3.265   3.442   1.577 -0.5531 -0.2042 -0.5538
 8857TIP3    H147986   3.233   3.532   1.583 -2.4235 -0.8418 -0.2538
 8857TIP3    H247987   3.209   3.402   1.510 -0.4139 -1.3942  0.0209
 8858TIP3   OH247988   3.100   3.981  13.587  0.4380  0.1524  0.0810
 8858TIP3    H147989   3.116   4.024  13.503 -0.4075  0.0195 -0.1549
 8858TIP3    H247990   3.187   3.972  13.626  0.7701  0.8281 -0.4757
 8859TIP3   OH247991   5.327   4.584  12.934 -0.0435  0.7906 -0.7448
 8859TIP3    H147992   5.376   4.517  12.981  0.9759  1.6280 -0.5748
 8859TIP3    H247993   5.370   4.591  12.849 -1.0318  0.2469 -1.3087
 8860TIP3   OH247994   6.147   3.136   5.512 -0.4281 -0.1572 -0.5880
 8860TIP3    H147995   6.117   3.051   5.545  0.9587 -0.8973 -1.1301
 8860TIP3    H247996   6.212   3.165   5.577  0.2032 -0.2366 -1.1799
 8861TIP3   OH247997   1.844   0.807  13.346 -0.5741 -0.4601 -0.0296
 8861TIP3    H147998   1.873   0.775  13.431 -0.2275  0.2569  0.1285
 8861TIP3    H247999   1.748   0.804  13.351 -0.5612 -0.1355  0.5018
 8862TIP3   OH248000   0.504   5.850   4.143  0.2577 -0.6000 -0.2165
 8862TIP3    H148001   0.473   5.812   4.225  1.0899  1.0559  0.9019
 8862TIP3    H248002   0.437   5.914   4.119  0.5944 -0.2519 -0.2197
 8863TIP3   OH248003   2.019   3.864   2.263  0.8125  0.9084 -0.1527
 8863TIP3    H148004   1.980   3.799   2.206  0.2068  0.9722  0.1875
 8863TIP3    H248005   1.945   3.913   2.299  1.1317  0.3067  1.3673
 8864TIP3   OH248006   5.200   5.204  11.298  0.1791  0.0613  0.4583
 8864TIP3    H148007   5.293   5.221  11.312  0.8228 -2.9584  0.4330
 8864TIP3    H248008   5.171   5.164  11.380 -1.2283  1.2050  0.5647
 8865TIP3   OH248009   6.280   4.081  10.232 -0.2610 -0.5028 -0.0824
 8865TIP3    H148010   6.262   4.175  10.240 -2.5163 -0.7920 -0.8426
 8865TIP3    H248011   6.292   4.067  10.138  0.0023 -0.9824  0.0210
 8866TIP3   OH248012   2.999   7.039  10.455 -0.2292 -0.6879  0.0793
 8866TIP3    H148013   3.065   7.046  10.386 -1.2828 -1.3035 -1.0122
 8866TIP3    H248014   3.015   6.953  10.494 -0.3390 -0.8094 -0.1417
 8867TIP3   OH248015   5.782   0.920  10.295  0.4415  0.0315 -0.2538
 8867TIP3    H148016   5.811   0.850  10.236 -0.0140  0.4817 -1.0132
 8867TIP3    H248017   5.859   0.976  10.305  1.1276 -1.0732  1.1405
 8868TIP3   OH248018   2.698   4.980  14.084  0.1994  0.3502  0.0542
 8868TIP3    H148019   2.699   5.018  13.996  0.8187  0.4094  0.0818
 8868TIP3    H248020   2.789   4.984  14.113 -0.2177  1.7071  1.2936
 8869TIP3   OH248021   5.433   5.810  14.087  0.3599 -0.2743 -0.5757
 8869TIP3    H148022   5.444   5.716  14.102 -0.5508 -0.2708  0.1801
 8869TIP3    H248023   5.349   5.817  14.040  0.3338  0.1716 -0.4657
 8870TIP3   OH248024   1.876   1.286  13.678 -0.3130  0.3277 -0.0441
 8870TIP3    H148025   1.947   1.331  13.724 -0.7790  0.5256  0.4891
 8870TIP3    H248026   1.921   1.229  13.615  0.3028  1.3989 -0.6121
 8871TIP3   OH248027   2.140   5.421   1.986 -0.5395 -0.6178  0.1948
 8871TIP3    H148028   2.161   5.376   1.904 -0.0301 -0.6290  0.3295
 8871TIP3    H248029   2.158   5.513   1.969 -2.2936 -0.3235 -0.3224
 8872TIP3   OH248030   3.311   0.355  13.876 -0.2830  0.0639 -0.1180
 8872TIP3    H148031   3.351   0.438  13.851  2.1052 -0.9782 -0.0923
 8872TIP3    H248032   3.355   0.290  13.822 -2.6823 -1.1562 -0.7408
 8873TIP3   OH248033   0.763   3.909  10.420  0.4476 -0.2286 -0.7298
 8873TIP3    H148034   0.701   3.873  10.484  1.4069 -2.4078 -0.9364
 8873TIP3    H248035   0.720   3.988  10.386 -2.4353 -1.8355 -1.1565
 8874TIP3   OH248036   0.119   6.944  10.464 -0.1248 -0.1524  0.3058
 8874TIP3    H148037   0.087   7.032  10.484  0.0443 -0.2538  1.0555
 8874TIP3    H248038   0.044   6.887  10.481 -0.3668 -0.1304 -0.5853
 8875TIP3   OH248039   3.027   4.258  10.817  1.1234  0.0019  0.1923
 8875TIP3    H148040   3.096   4.312  10.778  0.8897 -1.0317 -1.7767
 8875TIP3    H248041   2.948   4.281  10.768  0.4996 -0.3525  1.0048
 8876TIP3   OH248042   6.728   0.977  10.661 -0.9371 -0.0168 -0.0766
 8876TIP3    H148043   6.802   0.955  10.717  0.9354  0.6869 -2.1041
 8876TIP3    H248044   6.657   0.998  10.721  0.0372 -2.0894  1.9623
 8877TIP3   OH248045   4.123   5.340   3.591 -0.0861 -0.1998 -0.0241
 8877TIP3    H148046   4.135   5.330   3.685 -1.1234  1.1263  0.2769
 8877TIP3    H248047   4.040   5.296   3.573  0.5658 -1.2828 -0.5101
 8878TIP3   OH248048   1.983   4.853  14.489  0.0048 -0.1251 -0.0259
 8878TIP3    H148049   2.066   4.826  14.450 -0.6731 -1.6871 -0.4454
 8878TIP3    H248050   2.005   4.869  14.581  0.4083 -2.5801  0.3710
 8879TIP3   OH248051   4.277   2.383   5.173  0.0147  0.1090  0.1433
 8879TIP3    H148052   4.225   2.398   5.252  0.4709  1.0465  0.2796
 8879TIP3    H248053   4.365   2.413   5.196  0.1097  0.5720 -0.7751
 8880TIP3   OH248054   4.812   3.066   4.240  0.1693 -0.7669 -0.2122
 8880TIP3    H148055   4.889   3.096   4.289  0.6267  0.2532 -1.4639
 8880TIP3    H248056   4.744   3.055   4.306  1.0670 -0.5502  0.7821
 8881TIP3   OH248057   4.275   3.655   0.856 -0.7352 -0.0118  0.2501
 8881TIP3    H148058   4.246   3.589   0.794 -1.7942  0.6340  0.0238
 8881TIP3    H248059   4.290   3.607   0.937  0.0006 -0.7554 -0.3081
 8882TIP3   OH248060   4.502   3.450  12.791 -0.4255  0.0042 -0.2690
 8882TIP3    H148061   4.519   3.477  12.701 -4.2771 -0.3102 -1.2893
 8882TIP3    H248062   4.506   3.354  12.789  0.3004  0.0249  0.1072
 8883TIP3   OH248063   0.370   0.152  12.807  0.0876  0.9293 -0.1428
 8883TIP3    H148064   0.316   0.225  12.835 -2.2481 -0.3321 -1.0786
 8883TIP3    H248065   0.351   0.143  12.713  1.4175 -0.0116 -0.3520
 8884TIP3   OH248066   5.522   2.001  11.552 -0.4070 -0.8842 -0.0546
 8884TIP3    H148067   5.541   2.094  11.564 -3.1755 -0.3035  0.4601
 8884TIP3    H248068   5.605   1.963  11.523  0.7615  1.7474 -0.4160
 8885TIP3   OH248069   2.974   1.345  12.107  0.0097  0.8769  0.8661
 8885TIP3    H148070   3.023   1.297  12.040 -0.6643  1.3508  0.0167
 8885TIP3    H248071   3.041   1.375  12.168  0.6405  0.4375  0.4065
 8886TIP3   OH248072   4.141   0.051   0.628 -0.3661  0.3326  0.4007
 8886TIP3    H148073   4.102  -0.035   0.644  0.7586  0.1428  2.4458
 8886TIP3    H248074   4.076   0.097   0.575 -1.3472 -1.4936 -0.0692
 8887TIP3   OH248075   5.912   1.191  14.582  0.3648 -0.9985  0.1547
 8887TIP3    H148076   5.891   1.252  14.511 -2.9816  0.0188  1.8155
 8887TIP3    H248077   5.876   1.108  14.553  0.7591 -1.0653 -0.1509
 8888TIP3   OH248078   3.229   2.029  13.557 -0.6894  0.2909 -0.4177
 8888TIP3    H148079   3.325   2.032  13.554 -0.5921  2.0319  1.9284
 8888TIP3    H248080   3.208   1.936  13.553  1.1918 -0.2281  0.5340
 8889TIP3   OH248081   0.455   5.355   3.600  0.7037  0.1347  0.0850
 8889TIP3    H148082   0.487   5.265   3.610  0.8035  0.2161  0.5127
 8889TIP3    H248083   0.373   5.346   3.551 -0.7382 -0.4693  2.4605
 8890TIP3   OH248084   1.315   4.904  14.616  0.2129 -0.3164  0.9125
 8890TIP3    H148085   1.316   4.999  14.620 -2.1181 -0.2439  0.9387
 8890TIP3    H248086   1.225   4.881  14.592  0.6579 -2.5228  1.0881
 8891TIP3   OH248087   4.191   4.472   3.009 -0.5276 -0.4109  0.1588
 8891TIP3    H148088   4.212   4.379   3.015  1.3509 -0.1899 -1.7466
 8891TIP3    H248089   4.095   4.475   3.005 -0.7065 -2.0857  2.0370
 8892TIP3   OH248090   5.635   4.054  15.292 -0.1995  0.2203 -0.1734
 8892TIP3    H148091   5.673   4.082  15.375 -0.2932 -0.1473 -0.0022
 8892TIP3    H248092   5.633   4.133  15.238  1.6030  0.0954 -0.5036
 8893TIP3   OH248093   0.814   3.970  10.794  0.1309 -0.1825 -0.9585
 8893TIP3    H148094   0.726   4.007  10.802 -0.5797 -1.6812 -1.4085
 8893TIP3    H248095   0.860   4.000  10.872 -1.0608 -0.0686 -0.2807
 8894TIP3   OH248096   0.548   3.902   4.731  0.0868  0.4581 -0.4856
 8894TIP3    H148097   0.456   3.889   4.752 -0.0620 -0.6850 -1.6947
 8894TIP3    H248098   0.590   3.820   4.756  0.7188  0.8449 -0.2563
 8895TIP3   OH248099   4.172   5.686  15.291 -0.2424  0.2789 -0.6858
 8895TIP3    H148100   4.139   5.712  15.205 -2.8866 -1.0947 -0.1767
 8895TIP3    H248101   4.094   5.682  15.347  1.2478  0.0687  1.5272
 8896TIP3   OH248102   4.502   2.288   4.265 -0.3032  0.0709 -0.1885
 8896TIP3    H148103   4.552   2.234   4.326 -1.2292 -0.1069  0.4275
 8896TIP3    H248104   4.537   2.376   4.277  0.2231 -0.1355 -0.1634
 8897TIP3   OH248105   2.709   2.831  11.048  0.0520  0.0912  0.5005
 8897TIP3    H148106   2.703   2.761  10.982  1.1758 -0.0558  0.5412
 8897TIP3    H248107   2.648   2.805  11.117  0.2399 -0.6946  0.3728
 8898TIP3   OH248108   1.200   1.784  11.495 -0.0986  0.0384  0.4713
 8898TIP3    H148109   1.253   1.769  11.573 -0.7002 -0.0212  0.8800
 8898TIP3    H248110   1.141   1.855  11.520 -1.4495 -1.1069  0.6768
 8899TIP3   OH248111   2.693   2.167  10.561 -0.1647  0.1076 -0.4036
 8899TIP3    H148112   2.782   2.137  10.583 -0.2559 -1.4628 -1.9536
 8899TIP3    H248113   2.637   2.125  10.626  0.1339  0.3279 -0.0020
 8900TIP3   OH248114   6.857   3.721  15.239  0.0583 -0.5594  0.1593
 8900TIP3    H148115   6.761   3.727  15.246 -0.1612 -2.1340 -1.0199
 8900TIP3    H248116   6.878   3.769  15.160  0.1276 -1.0548 -0.1242
 8901TIP3   OH248117   1.276   4.215  10.764  0.4897  0.0953  0.3526
 8901TIP3    H148118   1.252   4.272  10.691  1.8041  0.9938  0.5807
 8901TIP3    H248119   1.353   4.168  10.733  0.2647 -0.4991  0.6910
 8902TIP3   OH248120   0.331   4.729  11.316 -0.0616 -0.4163  0.1648
 8902TIP3    H148121   0.267   4.665  11.348 -0.4525 -0.7836 -1.2723
 8902TIP3    H248122   0.285   4.774  11.245  0.5164  0.8693  0.5867
 8903TIP3   OH248123   3.997   1.177   0.881 -0.9721 -0.5214 -0.1621
 8903TIP3    H148124   3.929   1.117   0.912 -1.6449 -0.1226 -0.8265
 8903TIP3    H248125   4.072   1.120   0.863 -2.0075 -1.3905 -2.0363
 8904TIP3   OH248126   6.496   5.507  12.573  0.2117  0.1157 -0.0156
 8904TIP3    H148127   6.561   5.575  12.555  1.4849 -1.1825 -0.5924
 8904TIP3    H248128   6.549   5.432  12.603 -1.1004 -0.7454  0.2125
 8905TIP3   OH248129   1.451   1.469   1.149  0.2705  0.3349  0.1004
 8905TIP3    H148130   1.490   1.383   1.131 -1.0481  0.0100 -1.4514
 8905TIP3    H248131   1.524   1.530   1.147  1.0545 -0.5893 -0.0341
 8906TIP3   OH248132   5.399   3.615  10.268  0.1258  0.1217  1.3872
 8906TIP3    H148133   5.481   3.606  10.318  0.7058  2.3065  0.9309
 8906TIP3    H248134   5.412   3.693  10.215 -1.6699 -0.4062  0.0762
 8907TIP3   OH248135   0.557   1.695  13.993 -0.1780  0.3097  0.7759
 8907TIP3    H148136   0.558   1.790  13.998  2.0131  0.4175 -0.6155
 8907TIP3    H248137   0.559   1.676  13.899  0.0949 -1.1049  1.0469
 8908TIP3   OH248138   1.474   4.311  11.957 -0.0164  0.9766 -0.1076
 8908TIP3    H148139   1.495   4.230  11.910  0.3709  1.7081 -1.2410
 8908TIP3    H248140   1.450   4.373  11.888 -0.8603  1.6740  0.7866
 8909TIP3   OH248141   6.907   6.630  10.458  0.1561  0.1257  0.2201
 8909TIP3    H148142   6.948   6.544  10.466  1.0564  0.5957  0.9174
 8909TIP3    H248143   6.882   6.636  10.366  0.1650 -0.8374  0.1397
 8910TIP3   OH248144   5.528   3.116  13.122  0.3528 -0.1614  0.3604
 8910TIP3    H148145   5.494   3.062  13.193  0.1955 -0.6201 -0.0545
 8910TIP3    H248146   5.453   3.131  13.064  0.5300  0.0103  0.1718
 8911TIP3   OH248147   1.839   4.406  10.065 -0.0961  0.6674 -0.7394
 8911TIP3    H148148   1.796   4.358  10.136  1.6839 -1.0021 -0.7095
 8911TIP3    H248149   1.930   4.415  10.093  0.2282  1.6418 -1.9942
 8912TIP3   OH248150   3.026   0.855  10.444  0.2737 -0.0414  0.1513
 8912TIP3    H148151   2.985   0.942  10.450  0.3699  0.0387 -0.3293
 8912TIP3    H248152   3.076   0.847  10.526 -0.1889  0.1203  0.4547
 8913TIP3   OH248153   4.736   0.713   9.567  0.1723  0.5603 -0.8092
 8913TIP3    H148154   4.820   0.748   9.535  1.2544 -0.8499  0.3497
 8913TIP3    H248155   4.734   0.624   9.534 -1.2708  0.8015 -1.4532
 8914TIP3   OH248156   4.522   4.017  14.002 -0.5106  0.3198  0.5822
 8914TIP3    H148157   4.571   3.954  14.054  1.8507  0.9963 -0.6273
 8914TIP3    H248158   4.519   4.096  14.056 -1.4841 -0.1241  1.1947
 8915TIP3   OH248159   3.503   5.028  12.950  0.0706  0.6254 -0.1047
 8915TIP3    H148160   3.479   4.990  12.865  0.2448  0.4735 -0.0877
 8915TIP3    H248161   3.422   5.064  12.984 -0.4524 -1.0695  0.5651
 8916TIP3   OH248162   0.890   3.457   1.806  0.2553  0.1173 -0.2959
 8916TIP3    H148163   0.931   3.380   1.843  1.4206  0.5941 -0.5394
 8916TIP3    H248164   0.815   3.475   1.862  0.0195 -1.1348 -0.1974
 8917TIP3   OH248165   6.241   2.306  10.708 -0.4587 -0.4565 -0.4597
 8917TIP3    H148166   6.267   2.253  10.783 -0.6157 -0.4519 -0.4027
 8917TIP3    H248167   6.315   2.365  10.694  0.7091 -2.1739 -1.9344
 8918TIP3   OH248168   0.345   5.714  12.503  0.2885 -0.4667  0.0886
 8918TIP3    H148169   0.347   5.706  12.408 -0.6471  0.3593 -0.0187
 8918TIP3    H248170   0.426   5.760  12.525  1.5323 -2.4536 -0.0807
 8919TIP3   OH248171   2.414   0.450   2.368  0.2579 -0.6148 -0.1858
 8919TIP3    H148172   2.447   0.510   2.436 -1.7453  0.8562 -0.4103
 8919TIP3    H248173   2.357   0.390   2.415  0.1615 -0.6385 -0.3341
 8920TIP3   OH248174   4.969   1.360   0.213 -0.1140  0.0113 -0.5652
 8920TIP3    H148175   5.005   1.433   0.264  2.3331 -0.6632 -1.1824
 8920TIP3    H248176   4.917   1.402   0.145 -0.0774  1.0832  0.0415
 8921TIP3   OH248177   5.050   3.106  11.112 -0.2589  0.3659  0.0327
 8921TIP3    H148178   5.043   3.112  11.017  2.7825  1.7925 -0.2211
 8921TIP3    H248179   5.079   3.016  11.128  0.1262  0.3899 -0.4907
 8922TIP3   OH248180   3.562   3.651  12.630 -0.3145  0.0638  0.1467
 8922TIP3    H148181   3.477   3.676  12.668 -0.3534  1.4520 -0.7641
 8922TIP3    H248182   3.627   3.691  12.688 -0.3577  1.2900 -0.6082
 8923TIP3   OH248183   2.610   0.351  14.456  0.5053 -0.3570  0.5501
 8923TIP3    H148184   2.538   0.370  14.396  1.1820  1.1892  0.1599
 8923TIP3    H248185   2.667   0.292  14.407  0.2437 -0.3815  0.2745
 8924TIP3   OH248186   1.701   1.429  13.506  0.1626  0.1356  0.6555
 8924TIP3    H148187   1.743   1.514  13.496 -0.9226  0.5442 -0.6430
 8924TIP3    H248188   1.766   1.376  13.553  2.3082  0.6271 -1.5374
 8925TIP3   OH248189   0.606   4.816  15.112 -0.2011  0.5260 -0.1767
 8925TIP3    H148190   0.615   4.897  15.162 -1.4662  0.0988  0.7681
 8925TIP3    H248191   0.569   4.844  15.028 -3.1337  0.6900  1.0814
 8926TIP3   OH248192   5.851   3.790  14.927 -0.5717  0.2659  0.4958
 8926TIP3    H148193   5.941   3.760  14.942 -0.8148  0.5066  2.9334
 8926TIP3    H248194   5.856   3.842  14.847  1.0949 -1.1251 -0.3601
 8927TIP3   OH248195   2.262   2.218  13.388 -0.0765  0.4713 -0.2097
 8927TIP3    H148196   2.226   2.172  13.312  1.7125 -2.0903  0.3682
 8927TIP3    H248197   2.193   2.212  13.455  0.1950 -1.6844 -0.0790
 8928TIP3   OH248198   1.266   5.713   4.102 -0.1808 -0.2295  0.8343
 8928TIP3    H148199   1.312   5.700   4.019  1.6910  0.0948  1.7662
 8928TIP3    H248200   1.176   5.736   4.077  0.4238  0.1507 -1.0950
 8929TIP3   OH248201   2.204   2.137   4.283 -0.3396 -0.3885 -0.1327
 8929TIP3    H148202   2.294   2.136   4.316 -0.4876  0.5300  0.3124
 8929TIP3    H248203   2.182   2.044   4.275  1.0703 -0.6528 -1.4684
 8930TIP3   OH248204   4.632   3.744  11.493 -0.1832  0.0980  0.5798
 8930TIP3    H148205   4.632   3.702  11.579 -1.5923 -2.2967 -0.4804
 8930TIP3    H248206   4.592   3.679  11.435 -0.0401  1.9541 -1.7384
 8931TIP3   OH248207   2.610   6.838  11.636  0.0382  0.2352 -0.2229
 8931TIP3    H148208   2.524   6.870  11.662 -1.2931 -1.5490 -2.0561
 8931TIP3    H248209   2.644   6.905  11.577 -1.0579  0.0283 -1.1279
 8932TIP3   OH248210   0.161   3.914   0.301  0.5156 -0.0933 -0.4447
 8932TIP3    H148211   0.099   3.978   0.337  1.5704  2.3165 -2.6204
 8932TIP3    H248212   0.108   3.835   0.286 -1.7859  1.4841 -1.1553
 8933TIP3   OH248213   5.502   1.062  13.457 -0.4883 -0.2064  0.5926
 8933TIP3    H148214   5.586   1.028  13.425 -0.7711  0.1535 -0.5858
 8933TIP3    H248215   5.467   1.113  13.384 -1.5544 -0.0168  1.2092
 8934TIP3   OH248216   1.113   1.222  11.466  0.2338 -0.4205 -0.2394
 8934TIP3    H148217   1.081   1.155  11.527  0.2317 -1.2305 -1.1111
 8934TIP3    H248218   1.181   1.177  11.415  2.0071  0.9252  0.7999
 8935TIP3   OH248219   1.501   2.797  12.028  0.4868 -0.1206 -0.3684
 8935TIP3    H148220   1.510   2.887  12.059 -0.7180 -0.3196  0.6364
 8935TIP3    H248221   1.438   2.757  12.088  2.1383 -2.0983  0.1478
 8936TIP3   OH248222   0.306   4.354  13.598 -0.6112 -0.7005  0.1799
 8936TIP3    H148223   0.262   4.387  13.519  1.1284  0.1114 -0.5197
 8936TIP3    H248224   0.235   4.328  13.656 -1.9741 -0.3918 -1.2666
 8937TIP3   OH248225   6.279   6.372  12.668 -0.4412  0.1206  0.1410
 8937TIP3    H148226   6.306   6.280  12.668  0.0669  0.2671  0.0926
 8937TIP3    H248227   6.334   6.412  12.736 -0.7093  0.3711  0.2080
 8938TIP3   OH248228   1.168   0.470   0.551 -0.1866 -0.1459 -0.0345
 8938TIP3    H148229   1.227   0.490   0.623  1.5702  0.8486 -1.6617
 8938TIP3    H248230   1.093   0.426   0.593  0.3566  1.1168  2.4585
 8939TIP3   OH248231   0.368   5.889  14.768 -0.3059 -0.2722  0.0964
 8939TIP3    H148232   0.303   5.830  14.729 -1.3952  0.2798  0.9879
 8939TIP3    H248233   0.415   5.834  14.831  0.9765 -0.9825 -1.4133
 8940TIP3   OH248234   4.302   3.445  12.445 -0.2043 -0.0816  0.2452
 8940TIP3    H148235   4.290   3.354  12.474  1.2146 -0.3326  0.1352
 8940TIP3    H248236   4.396   3.452  12.428 -0.6161  0.6563 -2.2230
 8941TIP3   OH248237   0.216   4.644  14.891 -0.3556 -0.7448 -0.1947
 8941TIP3    H148238   0.223   4.548  14.891 -0.5348 -0.7957 -1.9008
 8941TIP3    H248239   0.161   4.663  14.816 -1.5258  0.6567  0.9663
 8942TIP3   OH248240   6.296   4.557   1.825  0.7183 -0.0414  0.1367
 8942TIP3    H148241   6.297   4.544   1.730  0.7033  0.2481  0.0945
 8942TIP3    H248242   6.286   4.470   1.862 -0.9514  0.0054 -0.1569
 8943TIP3   OH248243   6.241   2.697   4.157 -0.7072 -0.1632 -0.6686
 8943TIP3    H148244   6.225   2.604   4.173 -1.1364 -0.0873 -0.6650
 8943TIP3    H248245   6.183   2.720   4.085 -0.5810  0.0972 -0.6896
 8944TIP3   OH248246   5.499   5.301  10.199  0.4611  0.0983 -0.6551
 8944TIP3    H148247   5.435   5.309  10.128  0.1343  2.0311 -0.2032
 8944TIP3    H248248   5.557   5.376  10.187  2.3856 -1.3134 -0.7467
 8945TIP3   OH248249   6.941   1.193  12.413  0.1376  0.5638 -0.1849
 8945TIP3    H148250   7.025   1.226  12.445  0.3940  1.5124 -1.7232
 8945TIP3    H248251   6.963   1.113  12.365  0.4086  1.5811 -1.8315
 8946TIP3   OH248252   4.635   0.882   2.596  0.0287 -0.6687 -0.5234
 8946TIP3    H148253   4.542   0.858   2.590 -0.2941  0.1714  0.8256
 8946TIP3    H248254   4.681   0.798   2.596 -0.7505 -1.1104 -0.8536
 8947TIP3   OH248255   2.817   4.783  10.350  0.1973 -0.1303  0.0899
 8947TIP3    H148256   2.749   4.732  10.305 -0.5609 -0.0642  1.1239
 8947TIP3    H248257   2.882   4.801  10.282  0.3238 -2.1504 -0.3872
 8948TIP3   OH248258   5.324   4.725   0.008  0.1712 -0.0003  0.2981
 8948TIP3    H148259   5.394   4.790   0.004  0.4753 -0.2746  1.0469
 8948TIP3    H248260   5.267   4.747  -0.066 -0.4899  1.9773  1.3265
 8949TIP3   OH248261   5.358   3.189  13.467  0.0409 -0.2284 -0.2680
 8949TIP3    H148262   5.365   3.200  13.562 -0.8608  3.3866 -0.5014
 8949TIP3    H248263   5.426   3.247  13.431 -1.3811  0.5444 -1.8342
 8950TIP3   OH248264   3.828   0.683  12.732  0.9193 -0.0872  0.3313
 8950TIP3    H148265   3.818   0.642  12.818 -1.0275  1.4216  0.8970
 8950TIP3    H248266   3.912   0.728  12.737 -0.2233  2.0710  2.4727
 8951TIP3   OH248267   6.869   2.262   0.127 -0.0785 -0.0788 -0.2186
 8951TIP3    H148268   6.775   2.268   0.141  0.1049 -0.5805  1.4564
 8951TIP3    H248269   6.892   2.172   0.152  0.6448 -0.4389 -2.0232
 8952TIP3   OH248270   5.796   1.626  12.989 -0.2965 -0.0266 -0.0564
 8952TIP3    H148271   5.858   1.603  12.919  1.8243  0.7412  1.4874
 8952TIP3    H248272   5.717   1.652  12.942  1.2552  1.1295 -2.2355
 8953TIP3   OH248273   1.055   6.249  14.719 -0.0922 -0.3203 -0.3362
 8953TIP3    H148274   1.102   6.332  14.723  1.3396 -1.0285 -1.5761
 8953TIP3    H248275   1.123   6.182  14.725 -1.2520 -1.4453  1.1503
 8954TIP3   OH248276   2.781   0.834  12.160 -0.3125 -0.2198  0.7864
 8954TIP3    H148277   2.804   0.918  12.120 -1.0285  0.0876  1.0213
 8954TIP3    H248278   2.838   0.770  12.115 -0.6775  0.1976 -0.2993
 8955TIP3   OH248279   4.579   4.773  12.946 -0.2177  0.1342  0.0561
 8955TIP3    H148280   4.636   4.711  12.901  2.2767  1.1384  1.5947
 8955TIP3    H248281   4.491   4.737  12.936  0.8616 -2.4545 -0.9659
 8956TIP3   OH248282   0.711   7.053  12.804 -0.1693 -0.1503  0.7680
 8956TIP3    H148283   0.763   6.972  12.799  0.2517  0.0114  2.0794
 8956TIP3    H248284   0.765   7.118  12.760 -1.2017 -0.8749 -1.7052
 8957TIP3   OH248285   5.955   3.836  12.200 -0.4971  0.1953 -0.0852
 8957TIP3    H148286   6.023   3.888  12.158  0.7179 -0.2266  1.2547
 8957TIP3    H248287   6.002   3.761  12.237 -1.6110  0.1109  1.2517
 8958TIP3   OH248288   3.291   5.432   9.699 -0.1470  0.0941  0.0108
 8958TIP3    H148289   3.288   5.336   9.696  0.2368  0.0283  1.2353
 8958TIP3    H248290   3.248   5.460   9.618  1.4366 -1.1220 -1.3011
 8959TIP3   OH248291   5.787   5.547  11.773 -0.0822 -0.3660  0.0747
 8959TIP3    H148292   5.854   5.616  11.771 -0.9873  0.5257 -1.2150
 8959TIP3    H248293   5.779   5.520  11.681  0.0216 -1.9813  0.5253
 8960TIP3   OH248294   1.444   0.058   2.001 -0.1286 -0.8365  0.2988
 8960TIP3    H148295   1.514   0.108   2.042 -0.4428  0.8363 -1.0819
 8960TIP3    H248296   1.373   0.059   2.065  0.1291 -0.1050  0.5831
 8961TIP3   OH248297   4.423   6.398  14.012 -0.1564  0.0952 -0.5318
 8961TIP3    H148298   4.340   6.375  14.053 -0.0822  1.9227  0.7582
 8961TIP3    H248299   4.487   6.393  14.083  0.2938  1.5413 -0.7994
 8962TIP3   OH248300   4.083   0.849  14.364 -0.1219  0.4007 -0.0286
 8962TIP3    H148301   4.048   0.789  14.430 -0.5309  0.8793  0.1951
 8962TIP3    H248302   4.007   0.870  14.309 -0.5124  2.4316  1.2064
 8963TIP3   OH248303   5.168   1.032  12.083 -0.3742  0.0533  0.1311
 8963TIP3    H148304   5.251   1.014  12.038 -1.1677 -3.8326 -0.1254
 8963TIP3    H248305   5.171   1.126  12.102  3.2123  0.4461 -1.5291
 8964TIP3   OH248306   6.764   7.019   4.918 -0.0830 -0.5330  0.3367
 8964TIP3    H148307   6.789   7.055   5.003  0.9122  2.3309 -1.0131
 8964TIP3    H248308   6.817   6.940   4.909  0.8644 -0.1085  1.8103
 8965TIP3   OH248309   2.230   3.219   4.660 -0.6470  0.7316 -0.2522
 8965TIP3    H148310   2.226   3.162   4.738 -0.5861 -1.0011 -1.4521
 8965TIP3    H248311   2.159   3.281   4.672 -1.2264 -0.0908  0.7709
 8966TIP3   OH248312   1.421   4.927  10.861  0.2529  0.2769 -0.2706
 8966TIP3    H148313   1.341   4.977  10.844  0.3539 -0.0735 -1.9081
 8966TIP3    H248314   1.421   4.913  10.956 -0.1269  2.7643  0.1682
 8967TIP3   OH248315   6.172   2.595   0.200  0.2924  0.4785  0.2859
 8967TIP3    H148316   6.115   2.566   0.271  1.0012  1.0603  1.1181
 8967TIP3    H248317   6.173   2.691   0.207 -0.0325  0.5789 -0.8375
 8968TIP3   OH248318   0.114   0.836   0.548 -0.3638  0.8845  0.3077
 8968TIP3    H148319   0.085   0.901   0.612  0.6144 -0.8434  2.7068
 8968TIP3    H248320   0.034   0.804   0.507 -0.9380  2.7603 -0.1362
 8969TIP3   OH248321   3.560   5.024   0.779  0.3333  0.2617  0.2921
 8969TIP3    H148322   3.551   4.956   0.845  0.5919  0.8608  0.9652
 8969TIP3    H248323   3.639   5.002   0.731  0.4584  0.1354  0.5595
 8970TIP3   OH248324   1.997   2.078  14.987 -0.2413 -0.3291 -0.2683
 8970TIP3    H148325   1.983   2.166  15.021  2.4529  0.1033 -0.0173
 8970TIP3    H248326   2.004   2.090  14.892 -2.1722 -0.6815 -0.4939
 8971TIP3   OH248327   6.425   1.311   3.738 -0.1743 -0.4477 -0.7378
 8971TIP3    H148328   6.421   1.407   3.729 -0.8027 -0.2286  1.2795
 8971TIP3    H248329   6.357   1.291   3.802 -0.4131 -2.3377 -1.5315
 8972TIP3   OH248330   6.459   6.109   2.715 -0.1383  0.2508  0.5688
 8972TIP3    H148331   6.501   6.024   2.726 -0.2892  0.3950  2.5534
 8972TIP3    H248332   6.380   6.091   2.664  1.0685 -0.3725 -1.1905
 8973TIP3   OH248333   1.609   4.428  13.900 -0.2540  0.1419 -0.4740
 8973TIP3    H148334   1.543   4.367  13.932 -0.5012  0.6563  0.0179
 8973TIP3    H248335   1.644   4.469  13.979  0.6983 -0.1646 -0.7240
 8974TIP3   OH248336   2.116   3.645   2.802 -0.2395  0.5100  0.0192
 8974TIP3    H148337   2.204   3.615   2.781 -0.4108 -0.0949  0.1364
 8974TIP3    H248338   2.072   3.651   2.717 -0.2701  0.2066  0.0120
 8975TIP3   OH248339   2.588   1.174  11.579  0.7251 -0.0150  0.5605
 8975TIP3    H148340   2.661   1.129  11.539  0.3351 -0.6990  0.6039
 8975TIP3    H248341   2.562   1.118  11.652 -0.6789 -0.4882 -0.2458
 8976TIP3   OH248342   6.602   5.219  10.660  0.1110 -0.0482 -0.2728
 8976TIP3    H148343   6.541   5.252  10.726  0.6893 -0.2602  0.3873
 8976TIP3    H248344   6.684   5.266  10.678  0.8016 -1.4330  0.3527
 8977TIP3   OH248345   6.736   2.161  13.812  0.3074  0.2202 -0.1400
 8977TIP3    H148346   6.779   2.077  13.793 -0.7102 -0.2977 -0.2228
 8977TIP3    H248347   6.787   2.226  13.763 -0.6558 -0.7481 -2.6226
 8978TIP3   OH248348   2.603   4.728  10.185 -0.1488  0.4365  0.0807
 8978TIP3    H148349   2.570   4.638  10.183  0.1014  0.3277 -2.4849
 8978TIP3    H248350   2.681   4.726  10.129 -0.8471  2.4884 -1.0525
 8979TIP3   OH248351   0.146   2.986   0.660  0.3373 -0.3941  0.3787
 8979TIP3    H148352   0.069   2.942   0.624 -0.1491 -0.0377  0.9729
 8979TIP3    H248353   0.134   3.078   0.638  0.6340 -0.3484  0.4023
 8980TIP3   OH248354   6.464   4.816  10.055 -0.0669  0.0098  0.0947
 8980TIP3    H148355   6.381   4.816  10.007  0.5080 -2.6105 -1.0769
 8980TIP3    H248356   6.517   4.882  10.011 -1.6679  2.1919  1.2664
 8981TIP3   OH248357   0.454   0.263  10.998 -0.4304  0.1160 -0.3117
 8981TIP3    H148358   0.465   0.245  10.905 -1.8579  0.1076 -0.5030
 8981TIP3    H248359   0.369   0.307  11.004 -0.3637  0.1120  0.9885
 8982TIP3   OH248360   3.023   4.486  12.636 -0.3371 -0.2822  0.4876
 8982TIP3    H148361   3.080   4.460  12.564 -1.9584 -1.7298 -0.3478
 8982TIP3    H248362   3.078   4.476  12.714  1.1537  0.3809 -0.4363
 8983TIP3   OH248363   2.187   7.059  14.518 -0.1987 -0.4842 -0.1172
 8983TIP3    H148364   2.121   6.991  14.505  0.4919 -1.6303  1.9015
 8983TIP3    H248365   2.141   7.129  14.565 -0.5949 -0.0877 -1.0685
 8984TIP3   OH248366   3.526   6.656   4.250  0.7655  0.6068  0.4133
 8984TIP3    H148367   3.618   6.633   4.237  0.2526 -1.6768  0.3672
 8984TIP3    H248368   3.477   6.589   4.201 -0.9479  2.8514 -1.1850
 8985TIP3   OH248369   6.951   3.337   0.974 -0.5382 -0.1387  0.1969
 8985TIP3    H148370   6.858   3.348   0.957 -0.3285  0.6339 -0.5393
 8985TIP3    H248371   6.984   3.426   0.986  0.1389 -0.3870  0.2617
 8986TIP3   OH248372   0.523   1.159  12.148 -0.0088 -0.1652  0.1797
 8986TIP3    H148373   0.471   1.083  12.123  0.2947 -0.2660 -0.1555
 8986TIP3    H248374   0.614   1.131  12.133  0.0309  1.2805 -2.9281
 8987TIP3   OH248375   1.543   4.563   9.689 -0.7745  0.0806  0.0480
 8987TIP3    H148376   1.461   4.514   9.683 -0.4391 -0.7213  1.5466
 8987TIP3    H248377   1.554   4.580   9.783  0.2262  1.1377 -0.2334
 8988TIP3   OH248378   2.884   2.394  11.970 -0.5570  0.3794  0.2589
 8988TIP3    H148379   2.808   2.336  11.978 -0.5376 -0.0356 -2.0225
 8988TIP3    H248380   2.943   2.348  11.910  0.9183  1.3074  0.9620
 8989TIP3   OH248381   6.754   0.679  10.170 -0.1527  0.6505 -0.4323
 8989TIP3    H148382   6.842   0.686  10.135 -0.3337  0.3003 -0.9775
 8989TIP3    H248383   6.732   0.586  10.160 -0.2290  0.5559  0.5706
 8990TIP3   OH248384   3.662   1.976  11.305 -0.2099 -0.3425  0.0442
 8990TIP3    H148385   3.720   1.931  11.244 -1.5639 -1.2174 -0.6601
 8990TIP3    H248386   3.590   2.008  11.251 -0.0373  1.3791  0.7802
 8991TIP3   OH248387   0.972   0.818   9.905  0.1154 -0.3124  1.2828
 8991TIP3    H148388   0.878   0.810   9.924 -1.0324  3.0188 -1.8067
 8991TIP3    H248389   0.977   0.816   9.810  3.1401  0.3334  1.3370
 8992TIP3   OH248390   4.961   0.733   2.159 -0.0986 -0.3800 -0.6605
 8992TIP3    H148391   4.989   0.816   2.119  0.2709  1.0290  2.2776
 8992TIP3    H248392   4.871   0.721   2.129 -0.4033  1.4667 -0.5954
 8993TIP3   OH248393   6.158   2.756   9.626 -0.1342 -0.1050  0.5367
 8993TIP3    H148394   6.245   2.717   9.615 -0.2753 -0.1713 -0.5066
 8993TIP3    H248395   6.174   2.846   9.653  0.2937  0.0948 -0.3457
 8994TIP3   OH248396   3.556   0.503  10.839 -0.0911 -0.2189  0.5327
 8994TIP3    H148397   3.467   0.498  10.802 -0.0378 -0.7290  0.4632
 8994TIP3    H248398   3.555   0.582  10.891 -0.5763 -0.1859  0.4851
 8995TIP3   OH248399   5.358   4.757  14.389  0.0585 -0.2427 -0.2820
 8995TIP3    H148400   5.409   4.836  14.370 -0.3714  0.3576  0.9370
 8995TIP3    H248401   5.267   4.785  14.378 -0.0709 -0.8128 -0.6906
 8996TIP3   OH248402   1.072   3.568   1.271  0.2435 -0.1625 -0.8040
 8996TIP3    H148403   1.101   3.658   1.261  2.1389 -0.4805  1.0577
 8996TIP3    H248404   0.990   3.563   1.221 -1.1031  3.1384  0.7771
 8997TIP3   OH248405   3.583   1.458  10.391 -0.1799 -0.2794 -0.7599
 8997TIP3    H148406   3.578   1.379  10.337  0.7361 -1.4341  0.7680
 8997TIP3    H248407   3.496   1.498  10.383 -1.1245 -2.1731 -0.5006
 8998TIP3   OH248408   6.304   6.981   0.800  0.3113  0.4468 -0.2312
 8998TIP3    H148409   6.235   7.030   0.755 -0.7348  1.3420  2.1541
 8998TIP3    H248410   6.335   7.040   0.868  1.1818 -1.1198  0.7979
 8999TIP3   OH248411   6.092   3.929  12.954 -0.5570 -0.1600  0.6465
 8999TIP3    H148412   6.097   4.025  12.948 -0.7586 -0.1085  1.2068
 8999TIP3    H248413   6.129   3.898  12.872 -1.1059  0.4133  0.1648
 9000TIP3   OH248414   5.873   6.941   9.598 -0.0560  0.3941 -0.5870
 9000TIP3    H148415   5.851   6.998   9.524 -0.3813  0.1283 -0.6942
 9000TIP3    H248416   5.790   6.929   9.644 -0.0812 -0.3814 -0.8328
 9001TIP3   OH248417   5.479   0.006   0.938 -0.0092 -0.6478  0.4172
 9001TIP3    H148418   5.462  -0.027   0.850 -0.4346  0.0474  0.2380
 9001TIP3    H248419   5.394   0.001   0.982 -0.0804  0.2023  0.3892
 9002TIP3   OH248420   2.594   2.804  13.601  0.5747  0.1424 -0.3491
 9002TIP3    H148421   2.661   2.737  13.609  0.1887 -0.0625  2.2809
 9002TIP3    H248422   2.630   2.867  13.539  2.4845 -0.7771 -0.2448
 9003TIP3   OH248423   1.131   3.112   0.946 -0.3935 -0.1604 -0.1342
 9003TIP3    H148424   1.203   3.068   0.902 -0.2668 -1.3585  1.2211
 9003TIP3    H248425   1.127   3.073   1.033 -1.7690  0.8886  0.3241
 9004TIP3   OH248426   2.481   4.342  13.447 -0.2922  0.0154  0.0933
 9004TIP3    H148427   2.552   4.312  13.504  1.2263  0.9526 -1.1934
 9004TIP3    H248428   2.489   4.286  13.369 -0.2008  0.8821 -0.5329
 9005TIP3   OH248429   0.439   2.458  11.806 -0.0647 -0.5985  0.0714
 9005TIP3    H148430   0.436   2.365  11.829  0.1804 -0.5946  0.1230
 9005TIP3    H248431   0.500   2.496  11.869 -1.0092 -0.1949  0.7690
 9006TIP3   OH248432   4.655   1.365   1.201  0.0641 -0.1883  0.1146
 9006TIP3    H148433   4.621   1.450   1.175  0.1097 -0.6990 -1.7311
 9006TIP3    H248434   4.688   1.379   1.290 -0.3561  1.5860  0.0307
 9007TIP3   OH248435   1.424   0.859  11.267  0.9411  0.7009 -0.4727
 9007TIP3    H148436   1.454   0.940  11.309  0.9844  0.3324  0.2255
 9007TIP3    H248437   1.427   0.878  11.174 -0.6320  2.0829 -0.3022
 9008TIP3   OH248438   2.277   6.714  14.582  0.0663  0.0367  0.0652
 9008TIP3    H148439   2.252   6.746  14.668 -1.2408  1.5218 -0.8100
 9008TIP3    H248440   2.208   6.745  14.524  0.2084 -2.0828 -1.3291
 9009TIP3   OH248441   5.737   6.902  11.110  0.4067 -0.0362 -0.1429
 9009TIP3    H148442   5.786   6.827  11.075  0.6688  0.3772 -0.6850
 9009TIP3    H248443   5.651   6.867  11.132  0.2478 -0.3241 -1.1723
 9010TIP3   OH248444   5.146   6.281  13.791 -0.2008  0.3578  0.1582
 9010TIP3    H148445   5.069   6.268  13.735 -0.8789 -1.9098  1.4515
 9010TIP3    H248446   5.219   6.247  13.740 -0.4921  0.1339 -0.1171
 9011TIP3   OH248447   4.663   6.225  10.897 -0.3551 -0.4342  0.1378
 9011TIP3    H148448   4.713   6.306  10.887  0.7174 -0.8348  1.8773
 9011TIP3    H248449   4.707   6.163  10.840 -0.5386 -0.0807 -0.3986
 9012TIP3   OH248450   6.818   3.329  13.546  0.4283 -0.0144 -0.6235
 9012TIP3    H148451   6.842   3.250  13.595 -1.6071 -0.5106 -0.3367
 9012TIP3    H248452   6.748   3.300  13.488 -1.1212  1.7684  0.2597
 9013TIP3   OH248453   6.286   1.443  12.165  0.5536 -0.2419 -0.1153
 9013TIP3    H148454   6.363   1.462  12.219  0.3740  0.9348 -0.2528
 9013TIP3    H248455   6.298   1.352  12.139  0.9956 -0.6114  1.3152
 9014TIP3   OH248456   5.420   5.346   2.413  0.2537 -0.5798  0.0734
 9014TIP3    H148457   5.338   5.298   2.429 -0.7912  0.9037 -0.6879
 9014TIP3    H248458   5.473   5.327   2.491 -0.4116 -2.3070  0.1685
 9015TIP3   OH248459   1.238   3.332  10.345 -0.0846  0.5676 -0.5683
 9015TIP3    H148460   1.262   3.415  10.305  0.4165  0.7310  0.0464
 9015TIP3    H248461   1.155   3.350  10.390  0.2083  0.8479 -0.1245
 9016TIP3   OH248462   4.828   2.915  13.213 -0.1368 -0.5210 -0.3938
 9016TIP3    H148463   4.801   3.000  13.247  1.9774 -0.8506  2.4624
 9016TIP3    H248464   4.791   2.912  13.125 -2.5206  2.1921  0.3619
 9017TIP3   OH248465   3.330   5.613   3.646  0.2025 -0.7025 -0.4014
 9017TIP3    H148466   3.348   5.556   3.721  1.8605 -0.2220 -0.3944
 9017TIP3    H248467   3.328   5.554   3.571 -0.7415 -1.0943 -0.0733
 9018TIP3   OH248468   0.207   5.020   5.171  0.1856  0.1460  0.4218
 9018TIP3    H148469   0.220   5.107   5.208 -0.5704  0.7482 -0.6710
 9018TIP3    H248470   0.141   4.980   5.228  0.1524  0.4805  0.6237
 9019TIP3   OH248471   0.772   6.324   1.996 -0.2889  0.0008  0.6322
 9019TIP3    H148472   0.808   6.410   2.019 -0.7598  0.7130 -1.1198
 9019TIP3    H248473   0.847   6.272   1.968 -0.2195  0.4791 -0.0967
 9020TIP3   OH248474   4.393   5.589   0.549  0.5081  0.0580 -0.3484
 9020TIP3    H148475   4.312   5.550   0.515 -0.1140 -1.0541  2.1359
 9020TIP3    H248476   4.459   5.522   0.534  0.5926  0.2352 -0.7829
 9021TIP3   OH248477   4.055   2.160  12.333 -0.2827 -0.1964  0.3152
 9021TIP3    H148478   4.099   2.100  12.393  0.7211 -1.0024 -1.1653
 9021TIP3    H248479   4.030   2.105  12.258 -0.7483  0.9236 -0.3806
 9022TIP3   OH248480   1.653   7.068  14.513  0.8316  0.3158  0.4919
 9022TIP3    H148481   1.691   7.075  14.425 -3.1737 -0.3435 -1.5071
 9022TIP3    H248482   1.688   6.985  14.547  1.4896 -0.0605 -0.9867
 9023TIP3   OH248483   4.342   0.438   1.532 -0.1642 -0.0923  0.1861
 9023TIP3    H148484   4.309   0.484   1.455  0.0958 -0.5993 -0.2387
 9023TIP3    H248485   4.378   0.356   1.497 -0.0427 -0.3277  0.8477
 9024TIP3   OH248486   0.940   3.225  15.255 -0.3870 -0.2375 -0.1159
 9024TIP3    H148487   0.868   3.199  15.313 -0.8801 -1.9286 -1.3764
 9024TIP3    H248488   0.903   3.216  15.167  1.3398 -1.1436 -0.7945
 9025TIP3   OH248489   6.749   3.818  11.923 -0.0913  0.1709 -0.6930
 9025TIP3    H148490   6.782   3.875  11.854 -0.4593  1.2319 -0.0071
 9025TIP3    H248491   6.738   3.733  11.881 -1.0816  0.9906 -2.1601
 9026TIP3   OH248492   0.297   6.169   1.892 -0.2355  0.4827 -0.4419
 9026TIP3    H148493   0.255   6.179   1.806  1.8664 -1.0620 -1.7397
 9026TIP3    H248494   0.374   6.225   1.888 -0.9058  1.5803  1.0727
 9027TIP3   OH248495   2.289   0.524  12.469 -0.0906  0.3772  0.4855
 9027TIP3    H148496   2.315   0.616  12.463 -0.2011  0.3709 -0.1892
 9027TIP3    H248497   2.201   0.521  12.431 -0.5096  0.1549  1.4265
 9028TIP3   OH248498   1.591   7.040  14.048 -0.2064  0.3543  0.2607
 9028TIP3    H148499   1.641   7.067  14.125 -1.1543  0.1505  0.9654
 9028TIP3    H248500   1.615   6.948  14.036  0.4332  0.5580 -0.0901
 9029TIP3   OH248501   3.352   0.556  10.235 -0.2405  0.3589  0.1902
 9029TIP3    H148502   3.365   0.648  10.260 -1.5012  0.8915 -0.9968
 9029TIP3    H248503   3.440   0.521  10.225  0.3404  0.6333  3.3319
 9030TIP3   OH248504   1.634   5.210   2.055  0.5219 -0.1543  0.0715
 9030TIP3    H148505   1.728   5.226   2.044  0.1616  4.3917  1.4425
 9030TIP3    H248506   1.616   5.238   2.144 -2.3716  0.8639 -0.7295
 9031TIP3   OH248507   6.141   5.875  14.239 -0.8519  0.3467  0.0148
 9031TIP3    H148508   6.209   5.855  14.174 -0.3390  0.8054  0.3909
 9031TIP3    H248509   6.150   5.970  14.253 -1.0524  0.2731  0.6410
 9032TIP3   OH248510   6.504   2.691  11.763  0.2853 -0.2182  0.2017
 9032TIP3    H148511   6.554   2.611  11.752  0.4961  0.1616 -2.1583
 9032TIP3    H248512   6.420   2.673  11.720  0.2107  0.6743 -0.0505
 9033TIP3   OH248513   6.941   4.031   2.117  0.5361  0.2056 -0.1063
 9033TIP3    H148514   7.000   4.024   2.042  0.4416 -1.3138 -0.0704
 9033TIP3    H248515   6.859   4.064   2.080  0.8593  0.6352 -0.4520
 9034TIP3   OH248516   3.385   5.777   1.851  0.7362 -0.5062  0.3627
 9034TIP3    H148517   3.399   5.812   1.763  0.3693 -2.9109 -0.7348
 9034TIP3    H248518   3.469   5.739   1.876  0.7348 -0.1694  0.8969
 9035TIP3   OH248519   4.349   6.324  13.337 -0.5948  0.4345 -0.4794
 9035TIP3    H148520   4.346   6.246  13.392 -1.9874  0.9663  0.2305
 9035TIP3    H248521   4.360   6.290  13.248 -0.1931 -0.5160 -0.0778
 9036TIP3   OH248522   5.282   0.992   2.885 -0.3741 -0.0600 -0.0181
 9036TIP3    H148523   5.227   1.006   2.962  0.7167  0.3139  0.7128
 9036TIP3    H248524   5.220   0.984   2.813 -1.4335 -0.6850  0.9267
 9037TIP3   OH248525   2.021   5.132  13.141  0.2754 -0.0893 -1.0140
 9037TIP3    H148526   2.107   5.141  13.182 -0.1038  0.2458 -0.2692
 9037TIP3    H248527   2.008   5.215  13.095 -0.4469  0.6597  0.4634
 9038TIP3   OH248528   5.890   1.761  10.260  0.0055 -0.2170 -0.3924
 9038TIP3    H148529   5.940   1.680  10.258 -0.0968 -0.2646 -1.9165
 9038TIP3    H248530   5.806   1.739  10.220 -0.2302  0.5172 -0.3261
 9039TIP3   OH248531   1.818   6.632  14.591 -0.0032 -0.2778 -0.4543
 9039TIP3    H148532   1.802   6.588  14.508 -0.7794 -1.6828  0.3958
 9039TIP3    H248533   1.759   6.707  14.591 -0.1755 -0.4125 -1.0557
 9040TIP3   OH248534   3.745   6.150  11.505 -0.5111  0.2102 -0.2138
 9040TIP3    H148535   3.833   6.129  11.473 -1.5144 -0.6742 -2.5987
 9040TIP3    H248536   3.686   6.106  11.444 -2.6604  2.3293  0.1714
 9041TIP3   OH248537   2.513   0.557   2.606 -0.1405 -0.2496  0.2283
 9041TIP3    H148538   2.588   0.527   2.555 -0.4168 -0.9210  0.2027
 9041TIP3    H248539   2.551   0.605   2.679  0.2989 -0.2604  0.0109
 9042TIP3   OH248540   6.546   6.241  15.222  0.6146  1.1844 -0.2543
 9042TIP3    H148541   6.611   6.264  15.155  0.3431 -0.3052 -1.0793
 9042TIP3    H248542   6.598   6.226  15.301  1.2165  0.6826 -0.7272
 9043TIP3   OH248543   4.983   6.748  14.494 -0.1193 -0.0270 -0.2806
 9043TIP3    H148544   4.952   6.839  14.494 -0.5599 -0.1710 -0.6513
 9043TIP3    H248545   4.955   6.713  14.409 -1.2826 -0.9408  0.4289
 9044TIP3   OH248546   0.420   3.536  11.615 -0.1676  0.3672  0.6302
 9044TIP3    H148547   0.479   3.484  11.560 -0.0911  0.3070  0.7670
 9044TIP3    H248548   0.464   3.540  11.700 -0.2245  0.5665  0.6509
 9045TIP3   OH248549   6.510   4.268  13.345  0.2792 -0.4489  0.1950
 9045TIP3    H148550   6.476   4.307  13.265  1.8200 -0.1325 -0.3400
 9045TIP3    H248551   6.432   4.240  13.393 -0.6908 -0.2163 -1.1820
 9046TIP3   OH248552   3.167   2.043  11.930 -0.4326  0.3105 -0.6165
 9046TIP3    H148553   3.183   1.951  11.909 -0.2370 -0.0547  1.0525
 9046TIP3    H248554   3.252   2.078  11.956 -0.9287  0.2933  1.1415
 9047TIP3   OH248555   3.198   0.614   1.762  0.3348 -0.1685  0.0336
 9047TIP3    H148556   3.166   0.571   1.683 -1.8554 -1.8630  1.7051
 9047TIP3    H248557   3.275   0.564   1.788  0.5635 -0.1224 -0.5436
 9048TIP3   OH248558   2.650   5.967  12.046  0.1624 -0.2569  0.1711
 9048TIP3    H148559   2.562   5.995  12.021 -0.7539 -1.7899  1.5107
 9048TIP3    H248560   2.646   5.872  12.044  1.0852 -0.4015  2.4694
 9049TIP3   OH248561   4.147   3.389  13.362 -0.4432  0.2057  0.0942
 9049TIP3    H148562   4.153   3.392  13.457 -0.2610  0.2961  0.0815
 9049TIP3    H248563   4.093   3.313  13.343  0.6340 -0.6032  0.2226
 9050TIP3   OH248564   3.610   4.222   3.026  0.0518  0.2737 -0.0432
 9050TIP3    H148565   3.661   4.144   3.048  0.6495  0.6841  0.0661
 9050TIP3    H248566   3.646   4.252   2.943 -0.1037  0.4927 -0.0327
 9051TIP3   OH248567   1.276   2.801  13.208 -0.0603 -0.3934  0.3939
 9051TIP3    H148568   1.281   2.708  13.186  1.3110 -0.5094  1.0927
 9051TIP3    H248569   1.286   2.846  13.124 -0.0951 -0.8725  0.1318
 9052TIP3   OH248570   1.888   6.129  13.592  0.3338  0.2753 -0.0240
 9052TIP3    H148571   1.970   6.171  13.618  0.9117 -0.0593 -1.2576
 9052TIP3    H248572   1.914   6.060  13.531 -0.8648  0.1135 -0.3818
 9053TIP3   OH248573   6.632   2.751   1.715 -0.4314  0.2701 -0.0782
 9053TIP3    H148574   6.585   2.734   1.796 -0.3473  0.0588 -0.0728
 9053TIP3    H248575   6.606   2.678   1.657  0.8790 -0.5629  0.3496
 9054TIP3   OH248576   1.475   6.275  14.557 -0.4800  0.6308  0.2926
 9054TIP3    H148577   1.481   6.359  14.511 -0.0860  0.4636  0.0339
 9054TIP3    H248578   1.556   6.230  14.535 -1.0416 -0.1486 -0.2328
 9055TIP3   OH248579   3.962   6.370  13.444 -0.1119 -0.4452 -0.3537
 9055TIP3    H148580   3.997   6.456  13.420  0.0572 -0.4862 -0.2616
 9055TIP3    H248581   3.876   6.389  13.482  0.2433 -0.2347  0.3795
 9056TIP3   OH248582   4.666   4.317  12.305 -0.1472 -0.5435  0.1673
 9056TIP3    H148583   4.619   4.338  12.385 -1.0509 -2.2299  0.1303
 9056TIP3    H248584   4.603   4.268  12.252  1.4904 -2.5125 -0.0879
 9057TIP3   OH248585   0.066   2.927   2.233 -0.0447  0.5309 -0.5346
 9057TIP3    H148586   0.101   2.981   2.162  0.3888 -2.1639 -2.4982
 9057TIP3    H248587  -0.012   2.886   2.197  1.1064 -2.2026 -0.1313
 9058TIP3   OH248588   3.142   5.489   1.165  0.7271  0.3934 -0.0993
 9058TIP3    H148589   3.192   5.416   1.129 -1.1494 -0.4291 -1.1795
 9058TIP3    H248590   3.091   5.451   1.236  0.3798  0.8247 -0.1106
 9059TIP3   OH248591   1.058   5.669  14.994  0.2887  0.5469 -0.0773
 9059TIP3    H148592   1.151   5.682  14.972  0.1609  0.4192 -0.7289
 9059TIP3    H248593   1.012   5.730  14.937 -0.0562  0.2746 -0.0912
 9060TIP3   OH248594   5.765   1.095  15.272  0.1766  0.9343 -0.1267
 9060TIP3    H148595   5.786   1.006  15.301 -0.3993  0.8293 -0.0279
 9060TIP3    H248596   5.850   1.139  15.267  0.3619  0.7504  1.0643
 9061TIP3   OH248597   2.923   6.293   0.748 -0.4672 -0.1810  0.0541
 9061TIP3    H148598   2.992   6.349   0.783 -1.8465  0.2295  2.3360
 9061TIP3    H248599   2.917   6.318   0.656  0.1871  2.1848  0.5804
 9062TIP3   OH248600   3.149   2.795   3.145  0.5260  0.3579 -0.7134
 9062TIP3    H148601   3.111   2.739   3.213  1.5288  0.0031 -0.4178
 9062TIP3    H248602   3.074   2.830   3.097 -0.1672 -0.0532  0.0511
 9063TIP3   OH248603   6.189   0.360   2.792 -0.0991  0.3764  0.3883
 9063TIP3    H148604   6.244   0.421   2.841  1.4792 -0.2365 -0.5160
 9063TIP3    H248605   6.190   0.279   2.844 -0.3390  0.4357  0.4857
 9064TIP3   OH248606   1.628   4.054  15.049  0.4797  0.4650 -0.4773
 9064TIP3    H148607   1.648   4.089  14.962  0.2317  0.4319 -0.5490
 9064TIP3    H248608   1.714   4.038  15.089  0.5966  1.0520 -0.4838
 9065TIP3   OH248609   5.918   5.641  14.581  0.7411 -0.3976 -0.4416
 9065TIP3    H148610   5.897   5.550  14.603  0.5751 -0.6254 -1.4827
 9065TIP3    H248611   5.837   5.689  14.597  0.8435 -0.4181  0.1604
 9066TIP3   OH248612   4.793   0.643   2.580  0.3948 -0.4589 -0.0695
 9066TIP3    H148613   4.722   0.602   2.630  0.6620  0.3781  1.0261
 9066TIP3    H248614   4.838   0.569   2.538  1.9038 -1.5693  3.1594
 9067TIP3   OH248615   4.701   6.434  12.833 -0.3506 -0.1373 -0.1646
 9067TIP3    H148616   4.696   6.373  12.760 -2.0433 -0.2312 -0.0131
 9067TIP3    H248617   4.700   6.378  12.911  1.6550 -0.0487 -0.0392
 9068TIP3   OH248618   6.656   0.663  12.023  0.0448 -0.0420 -0.1178
 9068TIP3    H148619   6.658   0.748  11.978 -0.1914 -0.3377 -0.6943
 9068TIP3    H248620   6.568   0.630  12.007  0.5431 -0.9951 -1.0289
 9069TIP3   OH248621   3.641   6.849   2.726 -0.5046  0.0069  0.1086
 9069TIP3    H148622   3.607   6.784   2.787  1.1605 -1.1022 -0.0751
 9069TIP3    H248623   3.642   6.805   2.641  1.3238 -0.0205  0.1109
 9070TIP3   OH248624   3.391   4.327   1.150 -0.1248 -0.4737 -0.4816
 9070TIP3    H148625   3.417   4.407   1.196 -0.3513 -0.7159  0.0768
 9070TIP3    H248626   3.473   4.290   1.118  0.2249 -1.1709  1.1600
 9071TIP3   OH248627   5.336   2.251  14.915 -0.7063 -0.2398  0.6716
 9071TIP3    H148628   5.241   2.245  14.915 -0.7296 -0.4861 -0.9304
 9071TIP3    H248629   5.355   2.324  14.855  0.1147 -0.8428  0.1760
 9072TIP3   OH248630   4.013   2.250  11.248  0.3336 -0.5945 -0.2722
 9072TIP3    H148631   4.083   2.294  11.297  0.8596 -0.9267 -0.7151
 9072TIP3    H248632   3.979   2.185  11.310  0.0667 -0.0891  0.1217
 9073TIP3   OH248633   1.284   4.405  14.161  0.2292  0.5520  0.3504
 9073TIP3    H148634   1.355   4.403  14.226  1.0333  0.7506 -0.5044
 9073TIP3    H248635   1.211   4.362  14.205  1.8297 -2.6234  0.1620
 9074TIP3   OH248636   0.066   4.468  10.923 -0.5206 -0.2506 -0.4280
 9074TIP3    H148637   0.102   4.448  10.836  1.3421 -0.8459  0.4363
 9074TIP3    H248638   0.053   4.382  10.963  0.3581  0.0423  0.5331
 9075TIP3   OH248639   2.162   1.017  12.336 -0.4065 -0.0470  0.2272
 9075TIP3    H148640   2.082   1.051  12.375 -0.6646 -0.9050  0.4599
 9075TIP3    H248641   2.232   1.069  12.376 -0.7171 -0.4441  1.3321
 9076TIP3   OH248642   5.965   2.414  12.083  0.1827 -0.3197 -0.0829
 9076TIP3    H148643   5.881   2.400  12.126 -0.4678  1.5182 -0.6623
 9076TIP3    H248644   5.950   2.489  12.024  1.9357 -0.6267 -0.9887
 9077TIP3   OH248645   1.739   1.965  12.004 -0.2556  0.2771  0.4793
 9077TIP3    H148646   1.671   2.031  12.017 -0.3855  0.5405 -1.2876
 9077TIP3    H248647   1.761   1.970  11.911  1.0219 -0.9418  0.6643
 9078TIP3   OH248648   2.067   1.043  11.522 -0.4432  0.1376  0.1499
 9078TIP3    H148649   2.078   1.136  11.500 -0.2970  0.0381 -0.2031
 9078TIP3    H248650   2.137   0.999  11.474  0.0669 -0.0497  1.0576
 9079TIP3   OH248651   3.671   5.236  12.396 -0.0487 -0.4541  0.2163
 9079TIP3    H148652   3.620   5.263  12.320 -0.4737 -0.6525  0.4276
 9079TIP3    H248653   3.761   5.262  12.375 -0.4854  1.3963  0.5448
 9080TIP3   OH248654   2.572   4.372  15.320 -0.5537 -0.3041  0.0651
 9080TIP3    H148655   2.530   4.452  15.349 -0.7356 -0.4943  0.3283
 9080TIP3    H248656   2.661   4.377  15.354 -0.5272 -0.1545 -0.0282
 9081TIP3   OH248657   6.504   3.630  11.674  0.1142  0.0154  0.1607
 9081TIP3    H148658   6.434   3.652  11.736  0.4163 -1.3461  1.0287
 9081TIP3    H248659   6.477   3.546  11.637  1.1427 -0.4012  0.3127
 9082TIP3   OH248660   2.970   4.039   0.598 -0.0253  0.3089  0.3091
 9082TIP3    H148661   3.027   4.019   0.672  0.8922  1.1149 -0.1506
 9082TIP3    H248662   2.884   4.005   0.623  0.7716 -1.4879  0.7709
 9083TIP3   OH248663   2.806   4.524  14.115  0.3578 -0.3522 -0.5820
 9083TIP3    H148664   2.899   4.505  14.126  0.0003 -0.8235  2.3034
 9083TIP3    H248665   2.764   4.439  14.112 -0.0010 -0.1604 -2.4606
 9084TIP3   OH248666   1.219   1.169   9.510 -0.4610  0.5920 -0.3080
 9084TIP3    H148667   1.303   1.195   9.471  0.2901 -1.5505 -0.2482
 9084TIP3    H248668   1.168   1.134   9.437 -0.6374  0.3491 -0.0732
 9085TIP3   OH248669   2.485   3.893   9.856  0.2536  0.1584 -0.1756
 9085TIP3    H148670   2.462   3.908   9.765  0.9460  0.3111 -0.3303
 9085TIP3    H248671   2.508   3.800   9.861  0.5836  0.2331 -0.2450
 9086TIP3   OH248672   6.854   1.925  13.786  0.2520 -0.3651  0.3498
 9086TIP3    H148673   6.828   1.891  13.701  0.7474 -1.2534  0.5420
 9086TIP3    H248674   6.879   1.848  13.836  1.1194  0.2548  0.9068
 9087TIP3   OH248675   0.542   2.026   2.546  0.3162  0.1077 -0.3013
 9087TIP3    H148676   0.475   1.959   2.557  0.6729 -0.1188  0.5991
 9087TIP3    H248677   0.500   2.107   2.574  0.1849  0.0885 -0.4459
 9088TIP3   OH248678   3.578   6.957  11.197  0.3412  0.0895  0.3272
 9088TIP3    H148679   3.590   6.962  11.102  0.0791 -0.6468  0.2444
 9088TIP3    H248680   3.487   6.931  11.208  0.8243 -1.5924  0.7074
 9089TIP3   OH248681   1.491   6.963   3.092  0.1277  0.0036  0.6106
 9089TIP3    H148682   1.545   7.039   3.073  0.9812 -0.7573 -0.1281
 9089TIP3    H248683   1.409   6.999   3.126  0.6269  1.2239  0.5645
 9090TIP3   OH248684   2.889   4.756  14.992  0.3570  0.1360 -0.0431
 9090TIP3    H148685   2.820   4.795  14.939  1.2650  0.6971 -0.8528
 9090TIP3    H248686   2.877   4.794  15.079 -0.2585  0.3448 -0.2172
 9091TIP3   OH248687   1.869   2.539  12.449  0.4567  0.1144  0.3238
 9091TIP3    H148688   1.925   2.537  12.526 -0.9582  1.4572  1.4369
 9091TIP3    H248689   1.863   2.448  12.421  0.3424 -0.5187  2.2908
 9092TIP3   OH248690   2.396   0.781   3.021  0.1567  0.1405 -0.1682
 9092TIP3    H148691   2.423   0.731   3.099  0.3951  0.6704  0.0940
 9092TIP3    H248692   2.470   0.773   2.961  0.2408  0.2718 -0.0819
 9093TIP3   OH248693   4.297   6.064  14.247  0.3664 -0.4566  0.3357
 9093TIP3    H148694   4.354   6.079  14.322  1.5473 -1.0430 -0.4194
 9093TIP3    H248695   4.297   5.969  14.234 -1.2508 -0.5329  0.6585
 9094TIP3   OH248696   1.648   5.238   0.660 -0.0046  0.4396  0.1258
 9094TIP3    H148697   1.695   5.185   0.723 -0.0742  0.5418  0.2659
 9094TIP3    H248698   1.710   5.253   0.588 -0.1124 -0.1486 -0.0927
 9095TIP3   OH248699   0.799   5.158  13.867  0.1495  0.6019  0.1609
 9095TIP3    H148700   0.837   5.195  13.946 -1.4457 -1.1042  1.8239
 9095TIP3    H248701   0.719   5.114  13.896 -1.0516  0.7344 -2.5508
 9096TIP3   OH248702   7.098   1.423  10.189 -0.1569 -0.1450 -0.1267
 9096TIP3    H148703   7.151   1.434  10.268 -0.9080 -0.9714  0.5150
 9096TIP3    H248704   7.133   1.345  10.146 -0.2714 -0.1703 -0.1772
 9097TIP3   OH248705   7.195   1.259  10.680  0.5414 -0.2117  0.7344
 9097TIP3    H148706   7.185   1.164  10.676 -0.0779 -0.1234 -2.5457
 9097TIP3    H248707   7.106   1.293  10.673  0.7996  0.6312  1.3845
 9098TIP3   OH248708   5.377   2.289  14.182  0.6459 -0.2957  0.4983
 9098TIP3    H148709   5.368   2.195  14.201 -0.2145 -0.6483 -1.4500
 9098TIP3    H248710   5.468   2.299  14.153  1.2438 -0.1837  2.2862
 9099TIP3   OH248711   4.153   6.850   0.073 -0.1422  0.2336 -0.0913
 9099TIP3    H148712   4.143   6.778   0.010 -0.7744 -0.5174  0.8324
 9099TIP3    H248713   4.076   6.905   0.059  0.3333  0.7283 -0.7881
 9100TIP3   OH248714   4.675   3.861   3.096 -0.2508 -0.4833  0.1614
 9100TIP3    H148715   4.711   3.944   3.125 -1.2479  0.0795 -0.1838
 9100TIP3    H248716   4.600   3.845   3.153 -0.0240 -1.1922  0.2789
 9101TIP3   OH248717   1.262   5.580   9.972  0.1571  0.1438  0.1569
 9101TIP3    H148718   1.178   5.540   9.951  0.4971 -0.7830  0.4872
 9101TIP3    H248719   1.326   5.529   9.922  0.6492 -0.0702  0.9694
 9102TIP3   OH248720   5.852   0.888  14.509  0.0586  0.2954  0.4401
 9102TIP3    H148721   5.771   0.846  14.540  0.1817 -0.9675 -0.8435
 9102TIP3    H248722   5.922   0.844  14.558  0.2572 -1.7313 -1.5015
 9103TIP3   OH248723   6.151   1.301  15.061  0.5180 -0.1043 -0.0248
 9103TIP3    H148724   6.193   1.298  14.975  0.1503  1.3469 -0.2744
 9103TIP3    H248725   6.059   1.319  15.042  0.0446 -1.6622  0.6002
 9104TIP3   OH248726   3.211   4.418  12.828  0.0021  0.0828 -0.2001
 9104TIP3    H148727   3.279   4.353  12.810  0.6677  1.0623 -1.3077
 9104TIP3    H248728   3.258   4.499  12.843 -0.8493  0.4141  0.7480
 9105TIP3   OH248729   3.478   5.702  11.210  0.2340  0.0727 -0.3104
 9105TIP3    H148730   3.570   5.686  11.189  0.5795 -0.1737  1.2349
 9105TIP3    H248731   3.444   5.615  11.232  0.3154  0.4541  1.4981
 9106TIP3   OH248732   3.315   4.337   4.001  0.3502 -0.3374 -0.2277
 9106TIP3    H148733   3.384   4.349   3.935  1.5883 -1.6153  0.7531
 9106TIP3    H248734   3.363   4.327   4.083 -1.0883 -0.1332  0.6709
 9107TIP3   OH248735   6.010   1.903   1.167 -0.1549 -0.0959 -0.0635
 9107TIP3    H148736   5.964   1.891   1.083 -1.4918  1.1317  0.4415
 9107TIP3    H248737   6.070   1.829   1.172 -2.0756 -1.8233 -0.7909
 9108TIP3   OH248738   3.517   0.144  13.136  0.1688  0.5075 -0.2588
 9108TIP3    H148739   3.551   0.148  13.047 -0.4510  1.8141 -0.4628
 9108TIP3    H248740   3.480   0.056  13.144  0.4902  0.2797 -1.1817
 9109TIP3   OH248741   3.669   4.593   9.416  0.6306 -0.6464  0.5267
 9109TIP3    H148742   3.732   4.524   9.396 -0.6615 -1.7716  0.2206
 9109TIP3    H248743   3.700   4.669   9.365  1.7465 -1.1419  0.4263
 9110TIP3   OH248744   6.799   1.235  13.001 -0.5255  0.2305 -0.0575
 9110TIP3    H148745   6.812   1.328  12.985  0.1435  0.3369  1.0156
 9110TIP3    H248746   6.709   1.229  13.034 -1.0479  0.3042 -1.3826
 9111TIP3   OH248747   4.015   2.410  13.118 -0.8585 -0.3457  0.7793
 9111TIP3    H148748   4.022   2.364  13.202  0.7189 -0.1201  0.7971
 9111TIP3    H248749   4.090   2.469  13.116 -0.8239 -0.3969 -0.8197
 9112TIP3   OH248750   3.936   2.710  11.051  0.1864  0.2682 -0.3974
 9112TIP3    H148751   3.844   2.685  11.058 -0.3175  2.2632  0.9194
 9112TIP3    H248752   3.965   2.673  10.967 -1.5181 -1.2240 -0.3787
 9113TIP3   OH248753   3.371   1.550   3.859  0.0122 -0.2535 -0.5630
 9113TIP3    H148754   3.366   1.494   3.782 -1.2646 -0.0392 -0.6465
 9113TIP3    H248755   3.380   1.489   3.932  0.2123 -0.4975 -0.7893
 9114TIP3   OH248756   1.865   1.587  12.403  0.3370 -0.3149 -0.5254
 9114TIP3    H148757   1.863   1.678  12.372  0.4592 -0.2381 -0.3141
 9114TIP3    H248758   1.902   1.538  12.330 -0.1950 -0.2733 -0.8282
 9115TIP3   OH248759   1.339   6.249   1.620  0.6670 -0.1848  0.1849
 9115TIP3    H148760   1.376   6.260   1.532 -1.4963  1.3229 -0.6033
 9115TIP3    H248761   1.269   6.185   1.609  0.7566 -0.4229  0.9381
 9116TIP3   OH248762   2.845   2.187   1.470  0.2588 -0.2839  0.5508
 9116TIP3    H148763   2.915   2.249   1.451 -0.5487  0.3072 -0.6772
 9116TIP3    H248764   2.853   2.119   1.402 -1.1440  0.5217 -0.4975
 9117TIP3   OH248765   3.957   3.710  11.823 -0.3571 -0.1691 -0.0612
 9117TIP3    H148766   3.965   3.805  11.830  2.3760 -0.3162  0.1230
 9117TIP3    H248767   3.908   3.695  11.742 -0.1952  1.3917 -0.4765
 9118TIP3   OH248768   0.788   7.001  14.445 -0.0757 -0.1373 -0.2610
 9118TIP3    H148769   0.809   6.908  14.440  0.3642 -0.0925  0.6339
 9118TIP3    H248770   0.873   7.043  14.460 -0.4587  0.2851  0.7507
 9119TIP3   OH248771   4.705   0.977  10.715  0.3160 -0.1851  0.3912
 9119TIP3    H148772   4.749   1.061  10.726  1.6388 -0.8622  0.4733
 9119TIP3    H248773   4.771   0.912  10.737 -0.0291 -1.3128 -1.6360
 9120TIP3   OH248774   2.933   6.369   4.189 -0.0858 -0.2901  0.1895
 9120TIP3    H148775   3.018   6.333   4.215  1.7713  2.2430 -1.8044
 9120TIP3    H248776   2.876   6.354   4.264  1.3322 -4.2449  0.7244
 9121TIP3   OH248777   0.480   1.985  10.213 -0.2504 -0.1066  0.2037
 9121TIP3    H148778   0.522   1.968  10.129 -3.8993 -1.5146 -1.5972
 9121TIP3    H248779   0.508   1.912  10.269  1.2691  0.1809 -0.1374
 9122TIP3   OH248780   6.826   0.822  11.777 -0.1213 -0.2221  0.5234
 9122TIP3    H148781   6.841   0.743  11.829  1.3979  0.1629  0.7288
 9122TIP3    H248782   6.890   0.885  11.810  0.2104  0.3664 -1.1173
 9123TIP3   OH248783   1.062   7.083  11.234  0.3073  0.1827  0.3366
 9123TIP3    H148784   1.005   7.154  11.204 -0.3538 -0.1706  0.7182
 9123TIP3    H248785   1.040   7.072  11.326  1.9195  0.8839  0.8372
 9124TIP3   OH248786   6.271   0.030   1.795  0.1234  0.1757  0.3484
 9124TIP3    H148787   6.340   0.062   1.738  1.9023 -1.1889  1.6182
 9124TIP3    H248788   6.307   0.039   1.884 -0.8236 -1.6280  0.9745
 9125TIP3   OH248789   2.007   3.815   3.722 -0.0545 -0.0861  0.0218
 9125TIP3    H148790   1.989   3.901   3.759 -0.1776  0.3410 -1.0128
 9125TIP3    H248791   2.068   3.831   3.650  0.5073 -0.9523  0.2795
 9126TIP3   OH248792   5.612   5.333  13.230  0.5612 -0.6464 -0.1081
 9126TIP3    H148793   5.524   5.319  13.196  0.4135  1.0412 -0.5007
 9126TIP3    H248794   5.664   5.358  13.154  1.0882 -0.4231  0.3204
 9127TIP3   OH248795   4.579   3.462  13.944 -0.6291  0.1046 -0.0032
 9127TIP3    H148796   4.588   3.395  14.011 -1.1981  1.3785  1.4134
 9127TIP3    H248797   4.567   3.413  13.862  0.5703 -1.4826  0.7253
 9128TIP3   OH248798   2.938   2.317  14.173 -0.4552  0.4455 -0.4294
 9128TIP3    H148799   2.933   2.272  14.257  0.7276 -1.7798 -1.4470
 9128TIP3    H248800   2.875   2.271  14.117 -0.1713  0.9261 -1.1626
 9129TIP3   OH248801   6.137   1.884  14.020  0.0591 -0.4454 -0.5660
 9129TIP3    H148802   6.052   1.876  13.977 -0.7540  0.7957  0.7397
 9129TIP3    H248803   6.183   1.952  13.972  0.5268 -1.4269 -1.5527
 9130TIP3   OH248804   3.503   2.474   0.543 -0.5273 -0.7387 -0.3734
 9130TIP3    H148805   3.439   2.527   0.591  0.3959 -0.6343  0.7988
 9130TIP3    H248806   3.564   2.538   0.505 -0.0610 -0.9051  0.0843
 9131TIP3   OH248807   5.201   0.175   0.763 -0.4964  0.3318  0.5011
 9131TIP3    H148808   5.248   0.091   0.759 -0.9011  0.1121  0.2559
 9131TIP3    H248809   5.182   0.195   0.672 -1.4532  0.0870  0.6418
 9132TIP3   OH248810   2.280   4.060  13.490  0.2861  0.8181 -0.7316
 9132TIP3    H148811   2.185   4.074  13.483  0.0473 -0.8839 -1.3718
 9132TIP3    H248812   2.317   4.110  13.418 -0.2457  0.5920 -1.1732
 9133TIP3   OH248813   6.955   3.807  13.535  0.1223 -0.0771 -0.3440
 9133TIP3    H148814   7.031   3.761  13.571 -1.5523 -2.0027  0.9608
 9133TIP3    H248815   6.888   3.740  13.529 -1.3779  1.4809 -1.8571
 9134TIP3   OH248816   2.067   3.972   9.834 -0.2629 -0.5331 -0.3796
 9134TIP3    H148817   2.069   3.977   9.738  0.2163 -0.4765 -0.3711
 9134TIP3    H248818   2.134   4.035   9.862 -0.1161 -0.8465 -0.0221
 9135TIP3   OH248819   3.881   5.274   0.778  0.3824 -0.1435 -0.2592
 9135TIP3    H148820   3.881   5.254   0.684  1.2569 -0.8901 -0.1210
 9135TIP3    H248821   3.812   5.339   0.789 -0.1329 -0.4821 -1.3292
 9136TIP3   OH248822   6.405   4.787  10.680  0.2122  0.3629 -0.0198
 9136TIP3    H148823   6.488   4.789  10.633  0.3711 -0.0424  0.2414
 9136TIP3    H248824   6.414   4.855  10.746  0.3456  0.3021  0.0248
 9137TIP3   OH248825   0.271   5.270   2.357 -0.4847  0.2538 -0.2378
 9137TIP3    H148826   0.194   5.214   2.351  0.5388 -1.2355 -0.0298
 9137TIP3    H248827   0.303   5.277   2.268  0.7718 -1.5725  0.0196
 9138TIP3   OH248828   5.364   1.231  12.916  0.1197  0.3755  0.1594
 9138TIP3    H148829   5.383   1.181  12.837  1.0114  0.6017  0.2217
 9138TIP3    H248830   5.305   1.175  12.966  0.5801 -0.3373 -0.0743
 9139TIP3   OH248831   7.151   1.124   1.900 -0.4791  0.0940 -0.4807
 9139TIP3    H148832   7.163   1.084   1.987 -0.8239 -1.7864 -1.2525
 9139TIP3    H248833   7.147   1.050   1.840 -3.2063  1.1538 -1.7966
 9140TIP3   OH248834   0.213   4.041  15.318  0.0002 -0.3351 -0.8242
 9140TIP3    H148835   0.157   4.000  15.384 -0.5454  1.8086  0.1607
 9140TIP3    H248836   0.259   3.968  15.276  1.1471 -1.8265  2.5884
 9141TIP3   OH248837   1.781   4.393  11.966 -0.0508  0.2151 -0.0320
 9141TIP3    H148838   1.689   4.386  11.994  0.3069  0.2585  1.2070
 9141TIP3    H248839   1.824   4.318  12.006  0.4008  0.0286 -0.8614
 9142TIP3   OH248840   7.201   2.750  10.804  0.5024 -0.2412  0.7419
 9142TIP3    H148841   7.174   2.689  10.872 -1.8973  0.4613  0.4949
 9142TIP3    H248842   7.216   2.696  10.727  2.0491 -0.8912  1.4503
 9143TIP3   OH248843   6.453   3.865  13.659  0.0818 -0.1736 -0.5726
 9143TIP3    H148844   6.539   3.880  13.618  0.9703 -3.1314 -0.0376
 9143TIP3    H248845   6.404   3.815  13.593 -0.9744  0.7619 -0.5349
 9144TIP3   OH248846   1.389   6.990  14.512  0.1771  0.1551 -0.3040
 9144TIP3    H148847   1.351   7.016  14.595  0.4948 -0.5587  0.0781
 9144TIP3    H248848   1.476   7.029  14.512 -0.6355  2.0666 -1.3232
 9145TIP3   OH248849   3.806   4.010  12.457 -0.4524  0.2081 -0.0295
 9145TIP3    H148850   3.847   3.930  12.424 -0.1103 -0.6383  2.2154
 9145TIP3    H248851   3.878   4.072  12.468 -0.6324  0.6563 -1.2025
 9146TIP3   OH248852   0.569   1.866  11.502 -0.2905 -0.2516 -0.8465
 9146TIP3    H148853   0.646   1.871  11.445  0.6517 -1.1826  0.2865
 9146TIP3    H248854   0.518   1.792  11.466  0.9540 -1.6944  0.2229
 9147TIP3   OH248855   5.275   5.002   0.440 -0.1660  0.1576  0.0187
 9147TIP3    H148856   5.210   5.030   0.375  1.2678 -0.7706 -1.9194
 9147TIP3    H248857   5.252   4.911   0.460  0.5769 -0.2282 -0.7990
 9148TIP3   OH248858   1.704   4.788   3.160 -0.0681  0.0614 -0.3722
 9148TIP3    H148859   1.687   4.725   3.091  0.0185 -1.7479  1.1869
 9148TIP3    H248860   1.661   4.751   3.238  0.5071  1.6186  0.7408
 9149TIP3   OH248861   5.971   0.481   2.058  0.2510  0.1120 -0.5152
 9149TIP3    H148862   6.012   0.549   2.111 -0.2201  1.4291 -1.7856
 9149TIP3    H248863   6.028   0.472   1.982 -0.0614 -0.4281 -0.6936
 9150TIP3   OH248864   1.989   0.161  14.992 -0.1314  0.4877  0.4530
 9150TIP3    H148865   2.015   0.214  14.916 -2.5364  0.2929 -0.6067
 9150TIP3    H248866   1.914   0.207  15.029 -1.1153 -1.1813  0.6430
 9151TIP3   OH248867   3.948   4.321   5.368 -0.1664 -0.0855  0.8240
 9151TIP3    H148868   3.891   4.392   5.397  1.9598  1.8090  0.6399
 9151TIP3    H248869   4.001   4.299   5.445  2.1513  1.6177 -0.1520
 9152TIP3   OH248870   4.779   3.429  12.385  0.1661 -0.4345  0.2131
 9152TIP3    H148871   4.707   3.432  12.448  0.3782 -1.5158  0.5336
 9152TIP3    H248872   4.737   3.407  12.302  0.1523 -1.5535  0.4942
 9153TIP3   OH248873   4.859   2.043  14.931  0.2086 -0.2692  0.3174
 9153TIP3    H148874   4.833   1.971  14.988 -1.4056  0.3560  0.4363
 9153TIP3    H248875   4.887   2.112  14.992 -0.2814 -0.0520  0.2958
 9154TIP3   OH248876   3.983   4.208   1.828  0.1674 -0.2972  0.5147
 9154TIP3    H148877   4.037   4.276   1.787 -1.2600  0.4045 -0.2674
 9154TIP3    H248878   3.914   4.256   1.873 -1.0028 -1.2179 -0.2448
 9155TIP3   OH248879   1.943   3.222  13.155 -0.5389 -0.1241 -0.3550
 9155TIP3    H148880   1.901   3.165  13.219 -0.3757 -0.7302 -0.7815
 9155TIP3    H248881   1.878   3.290  13.137 -0.5343  0.1427  0.5572
 9156TIP3   OH248882   4.470   5.497  13.077 -0.6281  0.2555 -0.4598
 9156TIP3    H148883   4.394   5.450  13.043 -1.0370  1.1167 -0.7784
 9156TIP3    H248884   4.494   5.449  13.157 -1.9491  0.3708  0.0401
 9157TIP3   OH248885   4.848   0.431  13.512  0.1063  0.8317  0.3981
 9157TIP3    H148886   4.778   0.495  13.504 -0.1756  0.3946 -1.0283
 9157TIP3    H248887   4.838   0.375  13.434  1.4150  0.1486  0.6912
 9158TIP3   OH248888   4.953   6.307  10.661  0.5546  0.2184  0.1110
 9158TIP3    H148889   4.934   6.336  10.571 -0.9900 -0.3813  0.2096
 9158TIP3    H248890   5.032   6.355  10.686  3.0929 -2.0523 -2.7575
 9159TIP3   OH248891   1.509   5.034  13.484 -0.2185 -0.0506  0.2640
 9159TIP3    H148892   1.564   5.101  13.524 -0.3625  1.3124 -1.6544
 9159TIP3    H248893   1.569   4.981  13.432 -0.1401 -1.3339  1.6011
 9160TIP3   OH248894   5.671   6.523  11.736 -0.5289 -0.4632 -0.2613
 9160TIP3    H148895   5.674   6.609  11.777 -2.4368 -0.2063 -0.5717
 9160TIP3    H248896   5.617   6.470  11.795  0.9997 -1.6038  0.1614
 9161TIP3   OH248897   4.344   7.205   9.846  0.0742 -0.5788 -0.0602
 9161TIP3    H148898   4.431   7.238   9.867 -0.0305 -0.8585  0.8519
 9161TIP3    H248899   4.356   7.154   9.766  1.1980 -2.4060  1.1992
 9162TIP3   OH248900   1.976   7.100  10.462  0.3623 -0.5650 -0.7852
 9162TIP3    H148901   2.028   7.058  10.531 -0.6704  0.8068  0.9443
 9162TIP3    H248902   1.958   7.030  10.400  0.3032 -2.2426  1.0010
 9163TIP3   OH248903   3.492   6.638  11.093 -0.2220  0.3428 -0.0239
 9163TIP3    H148904   3.476   6.712  11.152  0.2847  1.3474 -1.0990
 9163TIP3    H248905   3.574   6.599  11.125 -0.3265  0.4295  0.3590
 9164TIP3   OH248906   3.183   4.009   0.827  0.5227  0.5499 -0.1257
 9164TIP3    H148907   3.143   3.950   0.891 -1.7408 -0.2926 -2.1928
 9164TIP3    H248908   3.224   3.952   0.763  0.0823  1.2745 -1.0754
 9165TIP3   OH248909   4.581   2.675  12.548 -0.5040  0.2851 -0.0705
 9165TIP3    H148910   4.545   2.611  12.486  0.1521 -1.3409  1.1353
 9165TIP3    H248911   4.674   2.654  12.552 -0.4021  0.8689  0.8694
 9166TIP3   OH248912   1.182   0.744   9.591  0.4339 -0.5637  0.1671
 9166TIP3    H148913   1.089   0.766   9.595  1.2804  3.9323  1.1732
 9166TIP3    H248914   1.200   0.729   9.498 -1.1533 -0.7475 -0.1330
 9167TIP3   OH248915   1.609   7.066  12.333  0.0421  0.0410  0.2062
 9167TIP3    H148916   1.625   6.993  12.274  0.3431  0.1006  0.2102
 9167TIP3    H248917   1.627   7.144  12.281 -1.1174  0.1458 -0.0522
 9168TIP3   OH248918   4.604   7.195   9.905 -0.5626 -0.2326 -0.6187
 9168TIP3    H148919   4.662   7.133   9.949 -0.9734  0.0343  0.3218
 9168TIP3    H248920   4.648   7.216   9.823  0.1533 -0.8472 -0.3965
 9169TIP3   OH248921   0.779   4.628  13.166  0.1186  0.3939  0.3130
 9169TIP3    H148922   0.756   4.557  13.226  1.2508  0.5700  0.9977
 9169TIP3    H248923   0.777   4.707  13.220  1.2941  0.5360  0.1870
 9170TIP3   OH248924   1.923   2.621  11.836  0.4453 -0.0061 -0.8151
 9170TIP3    H148925   1.851   2.558  11.833  0.6563 -0.2870 -0.2170
 9170TIP3    H248926   1.898   2.681  11.907  1.6886 -1.2280  0.7152
 9171TIP3   OH248927   0.688   1.026  14.201  0.4148 -0.2679 -0.3179
 9171TIP3    H148928   0.684   1.109  14.248 -1.8970 -0.5470  0.0955
 9171TIP3    H248929   0.740   1.045  14.123  0.8227  1.2793  0.2894
 9172TIP3   OH248930   5.324   6.564  14.280  0.1888 -0.4131 -0.6147
 9172TIP3    H148931   5.375   6.484  14.287  0.7558  0.0816  3.6191
 9172TIP3    H248932   5.243   6.546  14.329  0.3289  1.4818  0.4374
 9173TIP3   OH248933   3.461   5.324   4.681  0.6131 -0.2423  0.6267
 9173TIP3    H148934   3.444   5.247   4.735  1.9078 -0.2568  1.0348
 9173TIP3    H248935   3.548   5.353   4.706  0.6081  0.6860 -0.3437
 9174TIP3   OH248936   3.859   3.454   0.004  0.6500 -0.1908  0.6432
 9174TIP3    H148937   3.810   3.439   0.085 -2.3882 -2.3355 -1.3553
 9174TIP3    H248938   3.882   3.547   0.007 -1.8201  0.4678  2.7353
 9175TIP3   OH248939   0.153   0.878  15.046 -0.6799 -0.0344 -0.2401
 9175TIP3    H148940   0.180   0.802  14.994 -0.2568  0.4465 -0.7416
 9175TIP3    H248941   0.235   0.923  15.067 -0.8264 -0.3004  0.9949
 9176TIP3   OH248942   1.437   1.329  15.004 -0.1934 -0.1847  0.4838
 9176TIP3    H148943   1.502   1.363  14.943 -0.6012 -1.6197 -0.8510
 9176TIP3    H248944   1.475   1.342  15.091  1.6199 -0.4699 -0.2218
 9177TIP3   OH248945   1.476   5.323  14.965 -0.0654 -0.5711 -0.2380
 9177TIP3    H148946   1.502   5.232  14.955  1.5973 -0.3203  1.2943
 9177TIP3    H248947   1.555   5.368  14.994 -0.9595  1.2832 -0.5151
 9178TIP3   OH248948   5.858   5.804  10.328  0.0671  0.4485 -0.0042
 9178TIP3    H148949   5.775   5.782  10.286  0.0969  0.5981 -0.1454
 9178TIP3    H248950   5.917   5.823  10.255  0.3776 -0.1920  0.0736
 9179TIP3   OH248951   1.738   2.937   1.604  0.3134 -0.0314  0.2811
 9179TIP3    H148952   1.696   2.923   1.689  1.9501 -2.8049  0.7654
 9179TIP3    H248953   1.672   2.909   1.540 -0.1018 -0.2385  0.7842
 9180TIP3   OH248954   1.098   2.185   1.180  0.2461 -0.0832  0.2504
 9180TIP3    H148955   1.131   2.227   1.260 -1.1336 -0.2575  0.9361
 9180TIP3    H248956   1.026   2.242   1.151  0.8586  0.0909 -0.9993
 9181TIP3   OH248957   1.527   2.364  14.364  0.6606  0.2072  0.1294
 9181TIP3    H148958   1.565   2.331  14.283 -3.9515 -1.8927 -1.5196
 9181TIP3    H248959   1.533   2.459  14.356  0.8885  0.0495 -2.4426
 9182TIP3   OH248960   5.422   6.996  11.197 -0.0235  0.2050  0.1899
 9182TIP3    H148961   5.431   7.088  11.219 -0.9253  0.4131 -0.2514
 9182TIP3    H248962   5.347   6.965  11.248 -0.1430 -0.1078 -0.1625
 9183TIP3   OH248963   0.164   5.700  12.918 -0.3972  0.1592  0.0832
 9183TIP3    H148964   0.157   5.629  12.854  0.7251 -2.1147  2.2927
 9183TIP3    H248965   0.079   5.703  12.961 -0.4538  0.1355 -0.0286
 9184TIP3   OH248966   6.786   0.326  13.404  0.0877 -0.5496 -0.0005
 9184TIP3    H148967   6.870   0.280  13.395  0.6444  0.8052 -4.2161
 9184TIP3    H248968   6.806   0.404  13.456  1.2725 -0.6548 -0.2776
 9185TIP3   OH248969   6.166   3.126   3.777 -0.4274  0.4195  0.1297
 9185TIP3    H148970   6.155   3.049   3.831  0.8476 -0.5355 -0.9247
 9185TIP3    H248971   6.145   3.097   3.688  0.4222  1.1788 -0.3413
 9186TIP3   OH248972   2.501   4.045  14.780  0.2247  0.1210  0.5203
 9186TIP3    H148973   2.484   4.024  14.872 -2.4512  1.2376  0.3884
 9186TIP3    H248974   2.465   3.971  14.731 -1.2939  0.9368  0.3329
 9187TIP3   OH248975   6.485   5.347   9.843  0.0891  0.0918 -0.2502
 9187TIP3    H148976   6.459   5.311   9.759  0.7133 -0.1973 -0.3285
 9187TIP3    H248977   6.561   5.403   9.823 -1.3582  2.1540 -0.2549
 9188TIP3   OH248978   6.059   2.115   0.539 -0.2801  0.0983 -0.3160
 9188TIP3    H148979   6.017   2.064   0.468 -0.1208 -0.0382 -0.3133
 9188TIP3    H248980   6.020   2.202   0.532 -0.6663 -0.0630 -0.2290
 9189TIP3   OH248981   7.081   4.488   1.714 -0.0270 -0.6342  0.1281
 9189TIP3    H148982   7.070   4.568   1.664  0.3935 -0.1788  0.7518
 9189TIP3    H248983   7.015   4.494   1.783  0.8325 -0.2267  0.9240
 9190TIP3   OH248984   5.876   6.041  13.207  0.4790 -0.4191  0.2789
 9190TIP3    H148985   5.951   6.014  13.155 -1.9541 -3.3568 -2.0495
 9190TIP3    H248986   5.812   6.071  13.143 -0.7177  1.2844  2.1260
 9191TIP3   OH248987   0.360   6.192   1.617 -0.1503  0.3865  0.7110
 9191TIP3    H148988   0.448   6.179   1.580 -0.4692  0.1941  0.0081
 9191TIP3    H248989   0.323   6.262   1.563 -1.4880 -1.4560 -0.8880
 9192TIP3   OH248990   3.166   4.698  14.863 -0.3249 -0.0577 -0.4149
 9192TIP3    H148991   3.160   4.615  14.816  0.4016 -0.9303  0.9765
 9192TIP3    H248992   3.076   4.732  14.864 -0.8090 -1.3211 -0.1420
 9193TIP3   OH248993   1.035   1.031   1.065  0.2639 -0.6205  0.5814
 9193TIP3    H148994   1.094   0.977   1.118  1.5721  0.3954  0.1961
 9193TIP3    H248995   0.978   1.073   1.129 -0.1517 -1.7045  0.9502
 9194TIP3   OH248996   1.073   4.546   2.083  0.4516 -0.2320 -0.0579
 9194TIP3    H148997   0.998   4.590   2.123  0.5099 -3.0598  3.7355
 9194TIP3    H248998   1.148   4.599   2.108  0.0677  0.7112 -0.8342
 9195TIP3   OH248999   3.264   1.591  12.788 -0.1634  0.4074  0.2033
 9195TIP3    H149000   3.249   1.686  12.787 -0.6246  0.3314 -0.1563
 9195TIP3    H249001   3.256   1.564  12.696 -1.4725 -0.2009  0.4776
 9196TIP3   OH249002   5.250   3.183   3.484 -0.4727  0.7185 -0.1759
 9196TIP3    H149003   5.247   3.089   3.469 -0.6159  0.6565  0.2406
 9196TIP3    H249004   5.303   3.217   3.412 -0.3146  0.3069 -0.2543
 9197TIP3   OH249005   4.142   0.194   9.901 -0.2319 -0.8325  0.0885
 9197TIP3    H149006   4.210   0.134   9.868 -2.1651 -2.1402 -1.7761
 9197TIP3    H249007   4.060   0.153   9.876 -1.7271  1.2416  1.3038
 9198TIP3   OH249008   2.621   2.040   3.239  0.4146 -0.3650 -0.5587
 9198TIP3    H149009   2.591   2.051   3.149  1.1355  2.6564 -0.5342
 9198TIP3    H249010   2.553   2.081   3.292  0.8673 -0.4759  0.1205
 9199TIP3   OH249011   6.280   4.253   3.544  0.5157 -0.1396  0.1845
 9199TIP3    H149012   6.367   4.250   3.584 -0.8003 -1.8131  3.1954
 9199TIP3    H249013   6.222   4.283   3.614 -1.3815  1.0129 -1.7566
 9200TIP3   OH249014   2.690   5.188   5.645  0.4173 -0.2282 -0.0477
 9200TIP3    H149015   2.779   5.172   5.612  0.1526 -0.4839 -0.6601
 9200TIP3    H249016   2.698   5.266   5.699  0.8087  0.4105 -1.0023
 9201TIP3   OH249017   5.320   3.021   0.768  0.1418  0.4432 -0.4897
 9201TIP3    H149018   5.251   2.970   0.724  0.7004 -0.0186 -0.8421
 9201TIP3    H249019   5.289   3.031   0.857 -0.7641  0.9338 -0.8462
 9202TIP3   OH249020   0.477   0.359   0.352 -0.5772  0.6523  0.1799
 9202TIP3    H149021   0.442   0.386   0.437 -0.1486  3.1104 -0.3230
 9202TIP3    H249022   0.566   0.331   0.371 -0.2866  1.7387  0.5020
 9203TIP3   OH249023   5.502   6.638  10.204 -0.0585  0.2107  0.0375
 9203TIP3    H149024   5.478   6.718  10.249  0.6579 -0.0406  0.9028
 9203TIP3    H249025   5.419   6.594  10.186 -0.5006  1.4422 -1.0342
 9204TIP3   OH249026   6.264   6.121  14.157  0.9119  0.1810  0.2598
 9204TIP3    H149027   6.283   6.201  14.108  0.1123 -0.1709 -0.6690
 9204TIP3    H249028   6.349   6.078  14.168  1.0208 -0.1747 -1.6624
 9205TIP3   OH249029   5.380   7.189   0.001  0.0171 -1.0707 -0.3854
 9205TIP3    H149030   5.383   7.115   0.061  2.1821 -1.0471 -0.3655
 9205TIP3    H249031   5.383   7.150  -0.086 -0.5557 -1.0398 -0.4215
 9206TIP3   OH249032   0.360   2.250  14.460  0.0951  1.1017 -0.6439
 9206TIP3    H149033   0.283   2.248  14.404 -0.7447  0.2154  0.4819
 9206TIP3    H249034   0.422   2.306  14.414 -0.9400  1.2381 -1.9333
 9207TIP3   OH249035   3.288   3.559  15.020 -0.0206  0.0959 -0.1050
 9207TIP3    H149036   3.363   3.527  14.970 -0.1716 -0.7580  0.2006
 9207TIP3    H249037   3.304   3.653  15.030  1.0747 -0.0965  0.0634
 9208TIP3   OH249038   6.710   4.265  14.923 -0.0927  0.1694 -0.2210
 9208TIP3    H149039   6.644   4.319  14.968  2.1596  2.5838  0.4410
 9208TIP3    H249040   6.774   4.328  14.890  0.3279 -1.8192 -3.6303
 9209TIP3   OH249041   1.222   5.340   1.911  0.7875  0.2457  0.0230
 9209TIP3    H149042   1.151   5.281   1.884  1.9524 -2.4739  2.3256
 9209TIP3    H249043   1.293   5.322   1.849  0.4332  0.8765 -0.5786
 9210TIP3   OH249044   1.013   4.642   2.386 -0.6449  0.0492  0.3135
 9210TIP3    H149045   1.088   4.589   2.357  0.0423  0.3083  1.5759
 9210TIP3    H249046   0.966   4.584   2.446 -1.6091 -0.1892 -0.6345
 9211TIP3   OH249047   2.309   3.028   4.140  0.2988  0.6337  0.0160
 9211TIP3    H149048   2.327   2.935   4.146 -2.3390  0.0199 -0.2814
 9211TIP3    H249049   2.293   3.055   4.231  0.5149  0.6830  0.0405
 9212TIP3   OH249050   0.061   1.316  12.905 -0.4734  0.5123  0.2148
 9212TIP3    H149051   0.127   1.385  12.909  1.5115 -1.3235  1.0882
 9212TIP3    H249052   0.075   1.274  12.821 -0.1422 -0.2075  0.6183
 9213TIP3   OH249053   0.359   1.474   1.388  0.8357 -0.1902  0.2118
 9213TIP3    H149054   0.325   1.517   1.466 -0.4550  1.1518 -1.0326
 9213TIP3    H249055   0.314   1.389   1.386 -1.6624  1.0503 -0.7322
 9214TIP3   OH249056   7.152   3.883   1.057  0.1524  0.2230 -0.5892
 9214TIP3    H149057   7.189   3.971   1.057  1.8874 -0.4764 -0.4777
 9214TIP3    H249058   7.223   3.827   1.086 -1.1601 -1.1414  0.1217
 9215TIP3   OH249059   7.031   6.996  13.930 -0.7457 -0.2913  0.6857
 9215TIP3    H149060   7.125   6.988  13.946 -0.1583 -0.1511 -2.1764
 9215TIP3    H249061   7.014   7.091  13.931 -0.5905 -0.2562 -0.1187
 9216TIP3   OH249062   3.014   2.469  13.374 -0.9071  0.3277  0.6290
 9216TIP3    H149063   3.026   2.413  13.296 -1.5181  0.8121  0.1764
 9216TIP3    H249064   2.923   2.496  13.369 -0.6390  1.3010  0.8945
 9217TIP3   OH249065   3.039   5.850   2.943 -0.2867 -0.1953 -0.0783
 9217TIP3    H149066   3.089   5.886   3.016  2.2673  1.2998 -2.3740
 9217TIP3    H249067   2.978   5.919   2.918 -2.0291 -1.1586  1.2754
 9218TIP3   OH249068   1.119   3.078  13.305 -0.2117  0.1723 -0.0605
 9218TIP3    H149069   1.138   2.984  13.313  0.1305 -0.1201 -3.1844
 9218TIP3    H249070   1.024   3.082  13.296 -0.0214 -0.2925 -3.1510
 9219TIP3   OH249071   6.236   5.307   0.096  0.3092 -0.4483  0.2964
 9219TIP3    H149072   6.331   5.312   0.106  0.4495  0.4482 -1.2292
 9219TIP3    H249073   6.207   5.253   0.170  2.0191 -0.9496  0.6425
 9220TIP3   OH249074   4.603   4.928  12.708 -0.0776  0.6990  0.0884
 9220TIP3    H149075   4.591   4.914  12.802  2.3508  0.6695  0.4734
 9220TIP3    H249076   4.665   5.001  12.702  2.4425 -1.3432 -1.2921
 9221TIP3   OH249077   0.585   0.225   4.987 -0.2304 -0.1667  0.2116
 9221TIP3    H149078   0.589   0.257   4.897 -0.7942 -0.8277 -0.0602
 9221TIP3    H249079   0.566   0.131   4.978  0.8842 -0.4942  0.9957
 9222TIP3   OH249080   2.623   5.486  12.560  0.0367 -0.6463 -0.3564
 9222TIP3    H149081   2.554   5.420  12.564  0.7756 -1.3706  1.0534
 9222TIP3    H249082   2.692   5.453  12.617  0.0522  1.7592  1.1857
 9223TIP3   OH249083   5.058   3.743  14.118  0.3115  0.5931 -0.3171
 9223TIP3    H149084   5.024   3.781  14.198  0.2240 -0.0502 -0.0389
 9223TIP3    H249085   5.020   3.655  14.115  2.8096 -0.6052  0.6164
 9224TIP3   OH249086   1.468   1.802  10.095 -0.2777  0.8711  0.4893
 9224TIP3    H149087   1.541   1.844  10.050  1.4179 -1.6104  0.6873
 9224TIP3    H249088   1.501   1.785  10.183 -1.1447 -0.1531  0.6373
 9225TIP3   OH249089   0.391   0.392  14.576 -0.2924 -0.3116 -1.1164
 9225TIP3    H149090   0.409   0.302  14.551 -0.1942 -0.3507 -0.9115
 9225TIP3    H249091   0.478   0.430  14.591 -0.3815 -0.6352  0.3491
 9226TIP3   OH249092   3.708   6.678   1.268  0.6700 -0.0451  0.2373
 9226TIP3    H149093   3.784   6.625   1.293 -0.2039  0.1945  4.0760
 9226TIP3    H249094   3.633   6.621   1.287 -0.1843  0.6682 -0.9003
 9227TIP3   OH249095   5.176   2.795  11.153 -0.1023  0.2208 -0.6013
 9227TIP3    H149096   5.271   2.799  11.148 -0.1084  2.0875  0.0677
 9227TIP3    H249097   5.152   2.724  11.093  1.6961 -0.3468 -0.7066
 9228TIP3   OH249098   3.757   7.179   4.906 -0.1020  0.3436 -0.4090
 9228TIP3    H149099   3.715   7.183   4.992  0.2936  1.1713 -0.2402
 9228TIP3    H249100   3.720   7.101   4.864  1.6344 -1.6867  1.5316
 9229TIP3   OH249101   6.945   5.426   0.009 -0.1874 -0.6611 -0.3527
 9229TIP3    H149102   6.854   5.403   0.028 -0.0663 -0.5626  0.3707
 9229TIP3    H249103   6.984   5.443   0.095  0.3622 -0.1403 -0.6961
 9230TIP3   OH249104   6.412   0.150   9.932 -0.0118  0.8793  0.5740
 9230TIP3    H149105   6.438   0.097  10.008  0.4845 -1.6118 -1.2029
 9230TIP3    H249106   6.330   0.112   9.903 -0.3061  1.9411 -0.0444
 9231TIP3   OH249107   1.614   2.739  10.639  0.1834  0.3361 -0.1482
 9231TIP3    H149108   1.692   2.730  10.584 -0.3467  0.4915 -0.9440
 9231TIP3    H249109   1.636   2.806  10.704  0.3104  1.2322 -1.0974
 9232TIP3   OH249110   3.327   3.384   1.257 -0.7572  0.5933  0.0255
 9232TIP3    H149111   3.330   3.292   1.281 -0.7560  1.0137  1.7278
 9232TIP3    H249112   3.394   3.426   1.311 -1.4371  1.7494  0.0051
 9233TIP3   OH249113   3.245   0.176  10.632  0.1038 -0.6561  0.1451
 9233TIP3    H149114   3.251   0.167  10.728 -1.1009 -0.4213  0.2580
 9233TIP3    H249115   3.298   0.104  10.598  0.6915 -0.6400  0.9881
 9234TIP3   OH249116   2.057   5.274  14.813  0.0336  0.2234  0.2483
 9234TIP3    H149117   2.147   5.244  14.801  0.0394 -0.2118  1.2604
 9234TIP3    H249118   2.063   5.369  14.814  0.3649  0.2225 -0.4557
 9235TIP3   OH249119   0.062   4.616  13.862  0.0999  0.2251 -0.0401
 9235TIP3    H149120  -0.000   4.685  13.885  0.2311  0.5334 -0.6048
 9235TIP3    H249121   0.088   4.635  13.772 -1.9581 -2.0988 -1.2561
 9236TIP3   OH249122   5.477   3.225  14.859 -0.1378 -0.0193 -0.3745
 9236TIP3    H149123   5.448   3.312  14.885 -0.5652  0.2597 -1.6994
 9236TIP3    H249124   5.475   3.174  14.939  0.1245  1.1887  0.4317
 9237TIP3   OH249125   6.733   4.712  12.551 -0.5187  0.0996  0.0115
 9237TIP3    H149126   6.685   4.785  12.589 -0.0538  1.1125 -1.2738
 9237TIP3    H249127   6.697   4.634  12.595 -0.1420  1.1539  2.3264
 9238TIP3   OH249128   6.267   0.153   4.260  0.0503  0.4928 -0.2503
 9238TIP3    H149129   6.328   0.103   4.315  0.7167 -0.3666 -1.6977
 9238TIP3    H249130   6.267   0.106   4.177 -2.3407  0.7044 -0.4155
 9239TIP3   OH249131   4.457   4.517  14.942 -0.2940 -0.3220 -0.1857
 9239TIP3    H149132   4.374   4.531  14.897 -0.9798  0.2191  1.2039
 9239TIP3    H249133   4.492   4.436  14.904 -2.4768 -1.7492  0.6913
 9240TIP3   OH249134   5.831   7.049   1.759 -0.1191 -0.1446  0.5075
 9240TIP3    H149135   5.820   7.132   1.713 -1.0198  0.1522  1.2510
 9240TIP3    H249136   5.917   7.017   1.729 -0.2179  0.5415 -0.5709
 9241TIP3   OH249137   7.078   1.628  11.664 -0.0981  0.4925 -0.4479
 9241TIP3    H149138   7.075   1.561  11.732  2.7982  2.2207  1.6531
 9241TIP3    H249139   7.010   1.603  11.602 -0.9176 -2.8607  1.5387
 9242TIP3   OH249140   6.310   5.870   3.542  0.6023  0.4705  0.2989
 9242TIP3    H149141   6.290   5.778   3.523 -1.0645  0.3143  2.4154
 9242TIP3    H249142   6.234   5.918   3.512  0.8470  0.9818  0.4874
 9243TIP3   OH249143   6.342   6.633  14.545 -0.6353 -0.4750  0.0042
 9243TIP3    H149144   6.426   6.628  14.591 -1.0780 -0.3879  0.8330
 9243TIP3    H249145   6.350   6.569  14.473  0.0888 -0.5536  0.1473
 9244TIP3   OH249146   2.930   0.380  15.172  0.6945 -0.2092  0.0809
 9244TIP3    H149147   2.878   0.393  15.093  1.1913 -0.3986 -0.2828
 9244TIP3    H249148   2.959   0.468  15.196  0.3429 -0.1225  0.1933
 9245TIP3   OH249149   0.262   1.518   3.459  0.8061  0.4185 -0.2227
 9245TIP3    H149150   0.311   1.498   3.539 -0.0056  1.6253  0.6114
 9245TIP3    H249151   0.277   1.611   3.444  0.4109  0.3487 -1.1177
 9246TIP3   OH249152   6.619   0.722  14.327 -0.0661 -0.0645 -0.2179
 9246TIP3    H149153   6.675   0.672  14.386  0.7327 -0.2614 -1.1134
 9246TIP3    H249154   6.667   0.804  14.312  0.0111 -0.2451 -1.0095
 9247TIP3   OH249155   1.641   1.270  12.893  0.1940  0.0509 -0.3151
 9247TIP3    H149156   1.612   1.225  12.814  2.5192  2.2934 -2.6456
 9247TIP3    H249157   1.667   1.200  12.953 -0.9337 -1.6981 -1.7647
 9248TIP3   OH249158   3.485   0.414  11.113 -0.5112 -0.0145  0.2460
 9248TIP3    H149159   3.487   0.486  11.177  2.0688 -1.0794  1.5150
 9248TIP3    H249160   3.505   0.456  11.030  1.6117  0.7542  1.0621
 9249TIP3   OH249161   6.071   3.131  10.397  0.5058 -0.6138 -0.2048
 9249TIP3    H149162   6.148   3.187  10.384  1.0688 -1.3257  0.0129
 9249TIP3    H249163   6.045   3.147  10.487  0.1709 -0.0952 -0.3906
 9250TIP3   OH249164   1.508   2.505  12.635  0.3676  0.1456 -0.3200
 9250TIP3    H149165   1.485   2.585  12.588  0.5399  0.2347 -0.2518
 9250TIP3    H249166   1.462   2.512  12.719  1.1069  0.5949  0.0511
 9251TIP3   OH249167   2.542   1.246  14.870 -0.0827  0.4042 -0.3929
 9251TIP3    H149168   2.627   1.273  14.906 -0.5063  1.3134 -0.0697
 9251TIP3    H249169   2.484   1.239  14.945 -0.1262 -0.9516 -0.5192
 9252TIP3   OH249170   5.989   6.416  13.681  0.2021 -0.5009 -0.4479
 9252TIP3    H149171   5.953   6.483  13.623 -1.5618 -1.1200 -0.1199
 9252TIP3    H249172   6.028   6.352  13.622  0.5081  0.0293 -0.8345
 9253TIP3   OH249173   1.173   2.903  10.127  0.1046  0.1195 -0.5017
 9253TIP3    H149174   1.109   2.973  10.141 -0.5538 -0.6991  0.9762
 9253TIP3    H249175   1.120   2.829  10.096  0.4973 -0.2582 -0.2778
 9254TIP3   OH249176   1.516   2.730  14.146 -0.1160  0.1658 -0.2323
 9254TIP3    H149177   1.462   2.808  14.158 -1.6718 -1.0985  1.4609
 9254TIP3    H249178   1.580   2.734  14.217 -0.1330 -0.0769 -0.2048
 9255TIP3   OH249179   2.508   6.802   2.595  0.0996  0.3999 -0.3044
 9255TIP3    H149180   2.524   6.787   2.688 -1.2859 -1.2507 -0.2788
 9255TIP3    H249181   2.595   6.808   2.556  0.6972  0.9982  1.0714
 9256TIP3   OH249182   6.876   4.316   0.130 -0.4632 -0.6963  0.1407
 9256TIP3    H149183   6.802   4.256   0.132 -0.3575 -0.8298  1.7477
 9256TIP3    H249184   6.876   4.357   0.217 -0.9464  2.1828 -1.1079
 9257TIP3   OH249185   2.634   0.141  14.777 -0.6962  0.3535  0.1811
 9257TIP3    H149186   2.581   0.166  14.853 -1.7293  1.8245 -0.9491
 9257TIP3    H249187   2.569   0.118  14.710  0.0854  1.6873 -1.0872
 9258TIP3   OH249188   3.677   0.983  11.647  0.0341 -0.1298  0.1417
 9258TIP3    H149189   3.669   1.057  11.707  1.6275  1.2095 -1.1916
 9258TIP3    H249190   3.672   0.905  11.703 -0.9826  0.9825  1.6712
 9259TIP3   OH249191   3.146   1.094   0.710  0.3072 -0.2818  0.1421
 9259TIP3    H149192   3.107   1.020   0.663  0.4974 -0.8538  0.8722
 9259TIP3    H249193   3.072   1.148   0.736  0.2563  0.6685 -1.8044
 9260TIP3   OH249194   4.917   4.998   1.500 -0.5380 -0.0961 -0.1720
 9260TIP3    H149195   4.857   5.045   1.443 -0.3232  0.8680  0.3754
 9260TIP3    H249196   4.984   5.062   1.524 -0.4404 -0.5620  0.8858
 9261TIP3   OH249197   6.115   5.240   3.862 -0.1293  0.0581  0.2560
 9261TIP3    H149198   6.193   5.201   3.900 -0.0366 -0.5358 -0.5187
 9261TIP3    H249199   6.045   5.219   3.924  0.2138  0.0768  0.6524
 9262TIP3   OH249200   3.841   5.958   3.590 -0.2325 -0.0628 -0.1762
 9262TIP3    H149201   3.915   5.912   3.630 -0.2648  0.5624  0.6331
 9262TIP3    H249202   3.774   5.959   3.659 -1.3911 -1.5013 -1.2266
 9263TIP3   OH249203   3.818   4.300   1.319 -0.5965 -0.0830  0.4619
 9263TIP3    H149204   3.847   4.350   1.242 -2.8729  1.9485  0.8067
 9263TIP3    H249205   3.753   4.238   1.286 -0.0727 -0.6554  0.4854
 9264TIP3   OH249206   6.091   5.076  12.059  0.3680 -0.1895 -0.2593
 9264TIP3    H149207   6.099   4.981  12.059 -0.2461 -0.2525 -0.7369
 9264TIP3    H249208   6.025   5.095  12.126  1.5843  0.0261  0.9141
 9265TIP3   OH249209   2.958   6.940   0.453  0.4688  0.3103  0.1904
 9265TIP3    H149210   2.994   7.018   0.409  0.1777  0.5251  0.3306
 9265TIP3    H249211   2.983   6.867   0.396  0.2512  0.5675 -0.2445
 9266TIP3   OH249212   1.416   1.048   4.993 -0.2098  0.1269 -0.1741
 9266TIP3    H149213   1.434   1.132   4.951 -0.8261  0.2336 -0.2438
 9266TIP3    H249214   1.347   1.009   4.939  1.8781 -1.6369 -1.7085
 9267TIP3   OH249215   1.627   5.247   1.060  0.0199 -0.5115  0.8008
 9267TIP3    H149216   1.548   5.271   1.108  0.2006  0.5525  0.5904
 9267TIP3    H249217   1.676   5.192   1.121  0.1181  0.5934  1.7724
 9268TIP3   OH249218   5.425   1.495  13.977  0.0438  0.1683 -0.0333
 9268TIP3    H149219   5.450   1.562  14.041  2.4341  0.4904 -1.1818
 9268TIP3    H249220   5.474   1.417  14.004 -1.3478 -0.6467  0.2602
 9269TIP3   OH249221   3.736   6.488  11.455 -0.4619  0.7507  0.1866
 9269TIP3    H149222   3.722   6.394  11.467 -1.8408  0.8843 -0.1482
 9269TIP3    H249223   3.780   6.516  11.535  1.3764 -0.4188 -0.3427
 9270TIP3   OH249224   5.465   3.865  14.452  0.1815  0.1778 -0.1779
 9270TIP3    H149225   5.442   3.828  14.537  1.1737  0.8866  0.4208
 9270TIP3    H249226   5.517   3.796  14.410 -0.4246 -0.2272 -0.2735
 9271TIP3   OH249227   4.395   5.187   1.260  0.4164  0.0768  0.4276
 9271TIP3    H149228   4.343   5.108   1.246 -1.5570  1.1367  1.3714
 9271TIP3    H249229   4.393   5.231   1.175  0.3133 -0.2173  0.2749
 9272TIP3   OH249230   5.155   0.285  12.325 -0.5638 -0.1520 -0.1648
 9272TIP3    H149231   5.172   0.198  12.361 -1.0460  0.2860  1.1831
 9272TIP3    H249232   5.060   0.297  12.333 -0.2329  1.5763  2.3896
 9273TIP3   OH249233   3.381   4.257  11.515  0.0696 -0.4014  0.0001
 9273TIP3    H149234   3.448   4.278  11.581  0.8419 -0.9237 -0.6089
 9273TIP3    H249235   3.362   4.341  11.473  2.2469 -0.6013 -1.5725
 9274TIP3   OH249236   1.650   3.779  11.089  0.2042 -0.2748  0.0198
 9274TIP3    H149237   1.661   3.734  11.005  1.2101 -0.0341  0.0064
 9274TIP3    H249238   1.634   3.871  11.065 -1.9302 -0.5822  0.0437
 9275TIP3   OH249239   4.258   0.661  12.762 -0.3392 -0.5822  0.0381
 9275TIP3    H149240   4.264   0.566  12.766 -0.2467 -0.6821 -1.7508
 9275TIP3    H249241   4.348   0.691  12.769 -0.4691 -0.5196  1.9350
 9276TIP3   OH249242   5.796   2.692  15.288 -0.2948 -0.8382  0.4355
 9276TIP3    H149243   5.845   2.774  15.289 -0.1355 -0.8866 -1.0333
 9276TIP3    H249244   5.831   2.644  15.213 -0.9010 -1.9404  0.8231
 9277TIP3   OH249245   5.414   5.896   4.669 -0.0020  0.0055  0.1977
 9277TIP3    H149246   5.474   5.831   4.706 -0.9886 -1.3986 -0.5676
 9277TIP3    H249247   5.417   5.880   4.575 -0.4657  0.8998  0.0240
 9278TIP3   OH249248   4.187   7.139  13.001  0.0053 -0.5488  0.3258
 9278TIP3    H149249   4.246   7.077  12.958  0.8891  1.1260 -1.0380
 9278TIP3    H249250   4.245   7.199  13.048 -0.8741 -1.2809  2.4837
 9279TIP3   OH249251   5.184   5.580   9.945 -0.0843 -0.2483 -0.5824
 9279TIP3    H149252   5.153   5.547   9.860 -1.1403 -1.6932  0.3208
 9279TIP3    H249253   5.234   5.507   9.982  1.1675  0.6992 -0.3242
 9280TIP3   OH249254   5.350   0.856  15.127  0.4426 -0.1351  0.4962
 9280TIP3    H149255   5.298   0.790  15.083  1.2938  0.5167 -1.6400
 9280TIP3    H249256   5.396   0.809  15.196 -1.4314 -1.0810  1.1541
 9281TIP3   OH249257   2.739   3.398  12.411 -0.1194 -0.2913  0.3144
 9281TIP3    H149258   2.801   3.455  12.366 -0.7891 -0.5257 -0.9804
 9281TIP3    H249259   2.653   3.428  12.380 -0.6499 -0.2433  1.7425
 9282TIP3   OH249260   5.296   3.679   4.288  0.6952  0.3065 -0.5691
 9282TIP3    H149261   5.223   3.720   4.335 -0.2390 -1.0008 -0.8197
 9282TIP3    H249262   5.355   3.650   4.357  0.8819  1.1515 -0.3543
 9283TIP3   OH249263   3.614   1.125   1.456 -0.1364 -0.4375  0.4211
 9283TIP3    H149264   3.582   1.174   1.380  1.5111  0.1087  0.0264
 9283TIP3    H249265   3.538   1.116   1.513 -1.6222 -1.5444 -1.6151
 9284TIP3   OH249266   6.694   3.274  14.602  0.1951  0.2827 -0.3679
 9284TIP3    H149267   6.615   3.221  14.589 -0.2078  1.2376 -1.9806
 9284TIP3    H249268   6.668   3.363  14.578  2.0006  0.4510 -1.9558
 9285TIP3   OH249269   3.141   1.497  14.303  0.3651 -0.3001  0.0979
 9285TIP3    H149270   3.109   1.587  14.306  1.2555  0.0974 -1.3174
 9285TIP3    H249271   3.122   1.462  14.390 -1.9961  0.5445  0.0081
 9286TIP3   OH249272   1.408   0.600   9.726  0.6497 -0.0989  0.0374
 9286TIP3    H149273   1.476   0.599   9.659 -0.1539 -2.5489 -0.8339
 9286TIP3    H249274   1.333   0.644   9.684  0.6174 -0.3337 -0.1475
 9287TIP3   OH249275   6.119   0.082  15.238 -0.0570  0.9470 -0.0630
 9287TIP3    H149276   6.074   0.013  15.189  1.9738  0.3622 -1.2120
 9287TIP3    H249277   6.172   0.128  15.173 -0.4289  2.8534  0.8909
 9288TIP3   OH249278   4.055   4.806  11.575 -0.2703 -0.0066 -0.2874
 9288TIP3    H149279   4.128   4.868  11.583  0.7095 -1.3389  2.3937
 9288TIP3    H249280   3.977   4.862  11.568  0.8137  1.4761 -0.9052
 9289TIP3   OH249281   3.960   4.909   3.584  0.0703  0.4809 -0.5124
 9289TIP3    H149282   4.016   4.934   3.511  0.5433  0.6263 -0.1072
 9289TIP3    H249283   3.929   4.821   3.563  0.8018  0.2219 -0.5406
 9290TIP3   OH249284   0.731   4.603  14.005  0.2942  0.5866 -0.5985
 9290TIP3    H149285   0.795   4.672  14.022  0.3150  0.4171  0.0450
 9290TIP3    H249286   0.776   4.522  14.029 -0.2709  0.4981  0.2058
 9291TIP3   OH249287   5.863   7.009   0.047  0.4310 -0.2128  0.3291
 9291TIP3    H149288   5.864   6.986  -0.045 -0.2677  1.1988 -0.0721
 9291TIP3    H249289   5.939   6.965   0.085  1.3344  0.0326 -1.1381
 9292TIP3   OH249290   6.450   5.022  12.367  0.2417  0.1271 -0.5862
 9292TIP3    H149291   6.528   4.967  12.359  0.2442  0.1967 -1.0640
 9292TIP3    H249292   6.437   5.058  12.279  0.4094  1.1258 -0.2057
 9293TIP3   OH249293   1.807   6.283  12.217 -0.3910  0.0548  0.0807
 9293TIP3    H149294   1.752   6.258  12.292 -0.1374  2.0658  0.9938
 9293TIP3    H249295   1.745   6.311  12.150 -0.5539  1.6792  0.8695
 9294TIP3   OH249296   3.261   3.335   1.838  0.2306 -0.2116  0.0058
 9294TIP3    H149297   3.270   3.358   1.746  3.3456  0.2923  0.3092
 9294TIP3    H249298   3.324   3.392   1.883  0.9993 -2.4980  2.0462
 9295TIP3   OH249299   5.101   4.199  14.619 -0.3199 -0.2081  0.3552
 9295TIP3    H149300   5.076   4.116  14.576 -0.3194  0.5463 -1.1641
 9295TIP3    H249301   5.019   4.230  14.658  0.0057 -1.7101  2.4456
 9296TIP3   OH249302   3.947   5.190  13.831 -0.2305 -0.5134  0.0448
 9296TIP3    H149303   3.996   5.226  13.757 -1.1028  1.6228  0.4432
 9296TIP3    H249304   3.992   5.225  13.908 -0.0818 -1.7146  0.5288
 9297TIP3   OH249305   3.793   1.636   4.681  0.1944 -0.2194  0.1055
 9297TIP3    H149306   3.771   1.631   4.588  1.4659  1.9785 -0.3932
 9297TIP3    H249307   3.709   1.636   4.726 -0.5427  0.7307 -1.2015
 9298TIP3   OH249308   0.389   5.684  11.250 -0.1783  0.2552  0.3117
 9298TIP3    H149309   0.450   5.684  11.324 -0.8153 -0.1530  0.8476
 9298TIP3    H249310   0.322   5.620  11.274 -1.1247  1.1061 -0.0207
 9299TIP3   OH249311   2.397   2.659   2.378 -0.3836 -0.1487  0.5952
 9299TIP3    H149312   2.423   2.743   2.342  0.5150 -0.1958  1.1325
 9299TIP3    H249313   2.427   2.595   2.313 -1.9152 -0.0221 -0.2910
 9300TIP3   OH249314   6.483   0.902  12.548 -0.2031  0.8268  0.3747
 9300TIP3    H149315   6.564   0.922  12.595 -0.4866 -0.4701  1.4869
 9300TIP3    H249316   6.475   0.807  12.555 -1.2326  0.8202 -0.7158
 9301TIP3   OH249317   2.475   4.126  13.000  0.1207  0.4660 -0.3097
 9301TIP3    H149318   2.507   4.215  12.980  1.8910  0.2273  1.2132
 9301TIP3    H249319   2.547   4.069  12.975 -0.8496 -0.5479 -0.8824
 9302TIP3   OH249320   5.798   2.419  11.287 -0.2115 -0.0959  0.2499
 9302TIP3    H149321   5.835   2.333  11.307  0.9518  0.3016 -0.0678
 9302TIP3    H249322   5.785   2.418  11.193 -0.9263 -0.1964  0.3498
 9303TIP3   OH249323   5.916   6.956   2.502  0.5420  0.2861 -0.0380
 9303TIP3    H149324   5.865   6.884   2.539  0.1859 -0.1005 -1.2166
 9303TIP3    H249325   5.852   7.027   2.491  0.9713  0.9311  1.4675
 9304TIP3   OH249326   1.131   6.347   0.987  0.3151  0.2127 -0.2551
 9304TIP3    H149327   1.069   6.409   1.026  1.2953 -0.4641  2.6952
 9304TIP3    H249328   1.077   6.279   0.948 -0.7797  0.8374  0.1395
 9305TIP3   OH249329   0.649   4.948   0.873  0.6569  0.0024  0.3229
 9305TIP3    H149330   0.657   5.026   0.927  1.4249 -1.5171  2.5143
 9305TIP3    H249331   0.718   4.889   0.904 -0.6661 -2.0373 -0.3734
 9306TIP3   OH249332   4.131   2.697   1.809 -0.1737 -0.4411 -0.4445
 9306TIP3    H149333   4.194   2.628   1.784 -1.3431 -1.5158 -0.5195
 9306TIP3    H249334   4.183   2.777   1.807  1.1888 -1.2745 -0.5797
 9307TIP3   OH249335   3.140   5.128  12.988  0.6493 -0.6200 -0.1519
 9307TIP3    H149336   3.130   5.037  12.963  0.7117 -0.1848 -1.9045
 9307TIP3    H249337   3.061   5.149  13.038 -0.6312 -0.9413 -1.9845
 9308TIP3   OH249338   2.077   4.419   0.786 -0.4555  0.0015 -0.0811
 9308TIP3    H149339   1.985   4.404   0.807 -0.8975  1.4264 -0.8373
 9308TIP3    H249340   2.075   4.466   0.702  1.0583 -1.8362 -1.2354
 9309TIP3   OH249341   3.641   2.650  10.992  0.1810 -0.2022  0.7169
 9309TIP3    H149342   3.602   2.651  11.079 -0.7010  0.1786  0.3236
 9309TIP3    H249343   3.594   2.581  10.945  0.7875 -0.5419  0.5939
 9310TIP3   OH249344   3.979   0.780  11.310 -0.1075  0.0901  0.0014
 9310TIP3    H149345   3.990   0.688  11.286 -0.0874  0.2995 -0.8181
 9310TIP3    H249346   4.067   0.813  11.324 -0.0857  0.0967 -0.1496
 9311TIP3   OH249347   0.708   2.195   0.358 -0.1811 -0.6112 -0.3024
 9311TIP3    H149348   0.621   2.213   0.393 -0.3292 -1.0431 -0.4434
 9311TIP3    H249349   0.726   2.105   0.383  0.7598 -0.1311  0.8193
 9312TIP3   OH249350   7.127   2.021   1.762  0.1218 -0.1720  0.6334
 9312TIP3    H149351   7.122   2.037   1.667 -0.1850 -0.0218  0.6754
 9312TIP3    H249352   7.191   1.950   1.770  1.3445  0.8521  0.4244
 9313TIP3   OH249353   6.788   6.538   0.562 -0.6954  0.1008  0.1187
 9313TIP3    H149354   6.742   6.550   0.645 -0.3493  1.4330  0.1389
 9313TIP3    H249355   6.836   6.620   0.549  0.8597 -0.8342 -0.4021
 9314TIP3   OH249356   6.438   1.886  14.146  0.0122  0.0676  0.2398
 9314TIP3    H149357   6.521   1.933  14.157  1.1440 -1.3315 -1.7066
 9314TIP3    H249358   6.402   1.920  14.065 -0.1251 -0.9855 -0.1612
 9315TIP3   OH249359   4.793   4.641  15.294 -0.3350 -0.0655  0.2777
 9315TIP3    H149360   4.884   4.613  15.305  0.1071  0.9278 -0.7126
 9315TIP3    H249361   4.741   4.570  15.333  0.8484 -0.7408  0.6646
 9316TIP3   OH249362   0.869   3.794   2.036  0.2008 -0.8858  0.1242
 9316TIP3    H149363   0.821   3.711   2.026  0.6101 -1.5598  2.8206
 9316TIP3    H249364   0.809   3.850   2.085  1.4697 -1.1752  2.1201
 9317TIP3   OH249365   1.247   1.758   1.183  0.6800  0.0076 -0.9923
 9317TIP3    H149366   1.232   1.665   1.168  1.3421  0.0588 -2.1016
 9317TIP3    H249367   1.219   1.773   1.273  3.0342 -1.7929  0.1382
 9318TIP3   OH249368   4.234   3.694  11.511 -0.1847  0.3864  0.3034
 9318TIP3    H149369   4.284   3.728  11.436  1.1702  0.1434  1.0665
 9318TIP3    H249370   4.217   3.603  11.488 -0.4352  0.5121 -0.0301
 9319TIP3   OH249371   3.379   5.868  15.159 -0.0009 -0.0817  0.1478
 9319TIP3    H149372   3.337   5.934  15.213 -1.3178 -0.9780  0.2501
 9319TIP3    H249373   3.315   5.797  15.151  0.6987 -0.6030 -1.3930
 9320TIP3   OH249374   4.823   3.473   1.996 -0.3092 -0.0482 -0.2733
 9320TIP3    H149375   4.759   3.538   2.026 -1.9160 -0.7288 -2.0459
 9320TIP3    H249376   4.816   3.474   1.901  2.0597 -0.4667 -0.5173
 9321TIP3   OH249377   2.529   3.283   1.926 -0.5195 -0.9671  0.2418
 9321TIP3    H149378   2.447   3.314   1.964 -0.6052  1.6522 -1.7541
 9321TIP3    H249379   2.503   3.235   1.848 -0.1845 -1.3479  0.3610
 9322TIP3   OH249380   5.617   5.898  12.753 -0.2290  0.1787  0.5742
 9322TIP3    H149381   5.612   5.973  12.812  2.8511  1.3966 -0.5061
 9322TIP3    H249382   5.698   5.852  12.778  0.8030  0.3255 -2.1088
 9323TIP3   OH249383   4.600   3.575  10.613 -0.4402 -1.0064  0.4652
 9323TIP3    H149384   4.552   3.644  10.566 -1.0008 -2.4476 -1.1918
 9323TIP3    H249385   4.539   3.547  10.681 -1.0343 -1.2249 -0.1403
 9324TIP3   OH249386   2.769   0.577  12.458 -0.0719 -0.1759 -0.3844
 9324TIP3    H149387   2.688   0.616  12.427 -1.4531 -1.6702  1.1729
 9324TIP3    H249388   2.835   0.646  12.447 -1.4895  1.0149 -1.8042
 9325TIP3   OH249389   4.278   1.692  13.889  0.0263  0.8984  0.2886
 9325TIP3    H149390   4.260   1.708  13.796 -0.2269 -0.9729 -0.0224
 9325TIP3    H249391   4.373   1.704  13.897  0.1167  0.6109 -0.3177
 9326TIP3   OH249392   3.581   5.669  12.119  0.5372 -0.3415 -0.4339
 9326TIP3    H149393   3.548   5.582  12.139 -1.8337  0.9030  1.6221
 9326TIP3    H249394   3.646   5.686  12.187  0.5568 -0.2808 -0.4670
 9327TIP3   OH249395   0.967   4.050   2.286 -0.2822  0.6984 -0.2262
 9327TIP3    H149396   0.972   3.969   2.336 -2.3073  1.8402  2.0866
 9327TIP3    H249397   1.035   4.042   2.220  1.7846 -1.4946  1.9503
 9328TIP3   OH249398   1.661   5.517  10.463 -0.1195 -0.4914  0.3695
 9328TIP3    H149399   1.666   5.530  10.558  1.1126 -1.0370  0.3940
 9328TIP3    H249400   1.748   5.485  10.438 -0.6562 -1.0832 -0.8366
 9329TIP3   OH249401   4.821   2.576  14.670 -0.2151  0.9097 -0.0612
 9329TIP3    H149402   4.797   2.662  14.638  0.8114  1.1090 -0.3165
 9329TIP3    H249403   4.799   2.516  14.599 -1.0515  0.9223  0.1663
 9330TIP3   OH249404   0.484   2.685   0.065 -0.5659  0.1876 -0.6766
 9330TIP3    H149405   0.514   2.773   0.044  0.8502 -0.3441 -1.0382
 9330TIP3    H249406   0.464   2.646  -0.020 -1.0820  0.1087 -0.5262
 9331TIP3   OH249407   4.558   4.111  12.146  1.2508 -0.1743 -0.3436
 9331TIP3    H149408   4.603   4.115  12.062  0.3911 -1.8924 -0.9356
 9331TIP3    H249409   4.570   4.021  12.175  0.0741 -0.0730  0.5406
 9332TIP3   OH249410   6.189   4.688  13.055  0.6427 -0.8081 -0.3451
 9332TIP3    H149411   6.106   4.641  13.063  0.9447 -1.4479 -0.8197
 9332TIP3    H249412   6.232   4.647  12.979  2.0371 -1.5191  0.7818
 9333TIP3   OH249413   4.744   1.088   1.850 -0.0409 -0.0492  0.2185
 9333TIP3    H149414   4.672   1.065   1.792  1.2541 -1.6219 -0.8449
 9333TIP3    H249415   4.718   1.052   1.935 -0.7432 -0.1183 -0.0155
 9334TIP3   OH249416   3.574   1.484  11.472 -0.1375 -0.2273 -0.4620
 9334TIP3    H149417   3.571   1.550  11.541 -0.9518 -2.2852  1.5783
 9334TIP3    H249418   3.663   1.491  11.436  0.2548  0.9858  0.6886
 9335TIP3   OH249419   1.416   0.148  15.302 -0.1112 -0.2874 -0.3497
 9335TIP3    H149420   1.505   0.150  15.267 -0.0704  1.6261 -0.2693
 9335TIP3    H249421   1.428   0.153  15.397 -0.2926 -0.5569 -0.3128
 9336TIP3   OH249422   5.163   3.461   3.470  0.0054 -0.1453 -0.0735
 9336TIP3    H149423   5.133   3.481   3.381 -1.6907 -0.4702  0.4044
 9336TIP3    H249424   5.214   3.381   3.461 -2.0123 -1.4355 -0.4593
 9337TIP3   OH249425   6.865   1.842  12.469  0.1680 -0.1390 -0.7212
 9337TIP3    H149426   6.817   1.781  12.412  0.5829 -1.1308 -0.0457
 9337TIP3    H249427   6.916   1.895  12.409 -1.7904  1.0052 -1.4775
 9338TIP3   OH249428   6.900   1.612  10.498  0.1604 -0.2692  0.3505
 9338TIP3    H149429   6.936   1.608  10.586  1.2919 -1.0066 -0.1292
 9338TIP3    H249430   6.807   1.633  10.511 -0.0463 -1.8140  1.8071
 9339TIP3   OH249431   1.885   2.901  14.554  0.1963  0.1062 -0.1914
 9339TIP3    H149432   1.885   2.899  14.650  0.1907 -1.0638 -0.2012
 9339TIP3    H249433   1.949   2.968  14.532  1.0236 -0.3788  0.6301
 9340TIP3   OH249434   1.907   2.815  12.385  0.5524 -0.0858  0.2055
 9340TIP3    H149435   1.865   2.847  12.465 -0.2226  0.9780 -0.6114
 9340TIP3    H249436   1.893   2.720  12.388  0.2089 -0.0225  1.1348
 9341TIP3   OH249437   2.144   5.923  12.999 -0.1427 -0.0519 -0.0815
 9341TIP3    H149438   2.176   5.856  12.938  1.1054  1.0216 -0.6802
 9341TIP3    H249439   2.206   5.919  13.072  0.7113  1.2478 -0.6985
 9342TIP3   OH249440   3.252   1.196   0.045 -0.1142  0.0490 -0.3119
 9342TIP3    H149441   3.221   1.273  -0.002 -1.3892 -0.2742 -0.0457
 9342TIP3    H249442   3.346   1.193   0.027  0.0824  1.9754  0.1446
 9343TIP3   OH249443   5.159   0.399   0.126  0.1541  0.7708  0.3242
 9343TIP3    H149444   5.151   0.306   0.108  0.1774  1.0759 -1.4120
 9343TIP3    H249445   5.242   0.407   0.175 -0.0703 -0.1466  0.8750
 9344TIP3   OH249446   5.766   1.274   1.826 -0.3769 -0.1838 -0.2798
 9344TIP3    H149447   5.789   1.262   1.734 -2.4071 -1.1011 -0.7265
 9344TIP3    H249448   5.670   1.280   1.826 -0.3530  0.9923  1.6595
 9345TIP3   OH249449   3.794   4.209  10.067  0.2980 -0.2386  0.2642
 9345TIP3    H149450   3.878   4.225  10.108  1.1606 -1.5472 -0.9089
 9345TIP3    H249451   3.778   4.287  10.013 -1.1606  1.8084  3.3722
 9346TIP3   OH249452   5.517   0.220  15.254  0.3821 -0.0561  0.1551
 9346TIP3    H149453   5.465   0.300  15.256  0.3767 -0.0559 -0.0065
 9346TIP3    H249454   5.468   0.158  15.308 -0.5267 -0.5068 -1.1380
 9347TIP3   OH249455   4.060   2.032   0.767 -0.0273 -0.1723  0.8486
 9347TIP3    H149456   4.061   2.107   0.826 -1.0097 -0.1446  0.8467
 9347TIP3    H249457   4.006   2.061   0.693  2.0972  0.2226 -0.6478
 9348TIP3   OH249458   4.707   6.758  13.515 -0.2232  0.5217 -0.4134
 9348TIP3    H149459   4.744   6.756  13.427 -0.7202 -1.3490 -0.6074
 9348TIP3    H249460   4.756   6.692  13.563  0.1835  1.6725  0.7940
 9349TIP3   OH249461   2.776   2.059   1.188 -0.3056  0.1559  0.3766
 9349TIP3    H149462   2.787   1.985   1.127 -1.0677 -0.5614  1.0886
 9349TIP3    H249463   2.792   2.136   1.134  0.4095 -0.5171 -0.4125
 9350TIP3   OH249464   6.054   2.092  14.461 -0.1288 -0.4630  0.5171
 9350TIP3    H149465   6.114   2.037  14.410  1.0778  0.2681  1.1330
 9350TIP3    H249466   6.030   2.163  14.402 -0.2853 -0.6790  0.3188
 9351TIP3   OH249467   3.271   1.097  11.100  0.2700  0.1369  0.2398
 9351TIP3    H149468   3.292   1.180  11.141 -1.9455  0.6567  0.4101
 9351TIP3    H249469   3.207   1.119  11.033 -1.1662 -1.5467  1.0001
 9352TIP3   OH249470   2.791   4.647  10.608 -0.1132  0.3156 -0.5216
 9352TIP3    H149471   2.815   4.655  10.516  0.4376  1.5556 -0.2936
 9352TIP3    H249472   2.867   4.680  10.655 -0.5022 -0.0333  0.3693
 9353TIP3   OH249473   5.386   3.202   9.996  0.3509  0.0938 -0.8175
 9353TIP3    H149474   5.388   3.283   9.945  0.1675  0.2398 -0.5928
 9353TIP3    H249475   5.301   3.164   9.976 -0.4925  1.0549  0.7763
 9354TIP3   OH249476   5.259   3.800  13.549  0.0160  0.0348  0.2745
 9354TIP3    H149477   5.354   3.799  13.538  0.1730  0.8264  1.3177
 9354TIP3    H249478   5.237   3.712  13.578  0.5540  0.0699  0.8177
 9355TIP3   OH249479   2.827   3.321  10.979  0.0983  0.0610 -0.2563
 9355TIP3    H149480   2.785   3.273  11.050 -2.2230  2.0542 -0.1846
 9355TIP3    H249481   2.765   3.316  10.906  1.1653  0.4588 -1.2189
 9356TIP3   OH249482   5.479   3.998  11.370  0.3112 -0.0512  0.0324
 9356TIP3    H149483   5.442   3.964  11.288 -0.8634 -0.5647  0.7638
 9356TIP3    H249484   5.433   3.951  11.439 -0.2760  1.9355  1.0584
 9357TIP3   OH249485   1.983   5.511  11.456  0.0348  0.1295 -0.4367
 9357TIP3    H149486   2.000   5.605  11.450  1.5309 -0.0920 -0.2225
 9357TIP3    H249487   2.070   5.471  11.462 -0.5611 -1.0122  3.2663
 9358TIP3   OH249488   1.292   4.366  11.372 -0.5468  0.9752  0.2017
 9358TIP3    H149489   1.292   4.270  11.381  0.0691  1.0000  0.5363
 9358TIP3    H249490   1.295   4.381  11.278 -2.2806  0.6797  0.0646
 9359TIP3   OH249491   1.648   5.166  14.254  0.6175  0.0248  0.4906
 9359TIP3    H149492   1.641   5.075  14.226 -1.3906  0.3267 -0.1922
 9359TIP3    H249493   1.647   5.216  14.173 -0.3253  0.7194  0.9055
 9360TIP3   OH249494   5.209   5.393  12.628  0.0613 -0.0981  0.1333
 9360TIP3    H149495   5.150   5.350  12.690 -0.1533  1.0155  0.7318
 9360TIP3    H249496   5.195   5.347  12.546 -0.9827 -0.4444  0.4879
 9361TIP3   OH249497   1.346   3.838   9.843  0.1866 -0.2419  0.2395
 9361TIP3    H149498   1.389   3.804   9.765 -1.1005 -1.3460 -0.0075
 9361TIP3    H249499   1.298   3.764   9.880  0.5519  0.3132  1.9500
 9362TIP3   OH249500   0.485   1.805  12.456  0.6574 -0.0165  0.0853
 9362TIP3    H149501   0.457   1.739  12.520 -0.9182  1.1550  0.6536
 9362TIP3    H249502   0.573   1.829  12.484  1.9216 -2.8509 -0.9834
 9363TIP3   OH249503   6.500   4.231   0.548  0.0404 -0.0549 -0.3062
 9363TIP3    H149504   6.595   4.236   0.544  0.1119 -1.4059 -0.7309
 9363TIP3    H249505   6.482   4.179   0.627 -0.3555  0.2948 -0.1615
 9364TIP3   OH249506   7.150   1.888  12.118  0.2541 -0.1140  0.0774
 9364TIP3    H149507   7.070   1.915  12.163  1.3057  0.5771  1.6325
 9364TIP3    H249508   7.148   1.936  12.036 -0.5584  0.4892  0.4291
 9365TIP3   OH249509   1.018   0.291  13.951 -0.1967 -0.5605  0.6070
 9365TIP3    H149510   0.960   0.244  14.010 -0.5739 -0.1197  0.5923
 9365TIP3    H249511   1.043   0.370  13.999 -1.1424  0.2009 -0.1064
 9366TIP3   OH249512   1.680   0.255  11.404  0.2032  0.0993 -0.3423
 9366TIP3    H149513   1.751   0.296  11.452  0.3575  0.4701 -0.8866
 9366TIP3    H249514   1.604   0.311  11.420 -0.1934 -0.7722  0.9634
 9367TIP3   OH249515   5.593   1.360  12.835  0.1911  0.9630 -0.3791
 9367TIP3    H149516   5.541   1.318  12.904  2.2073  1.1801  1.3908
 9367TIP3    H249517   5.542   1.437  12.810 -0.4289  1.1189  1.2210
 9368TIP3   OH249518   1.012   6.336  13.480 -0.9330  0.3457 -0.1914
 9368TIP3    H149519   1.030   6.249  13.444 -0.5170  0.2449  0.2485
 9368TIP3    H249520   1.038   6.330  13.572  1.2728  1.5898 -0.6559
 9369TIP3   OH249521   2.603   3.006  14.340  0.5741  0.1428 -0.5645
 9369TIP3    H149522   2.551   3.066  14.287  0.1399 -0.6495 -1.0519
 9369TIP3    H249523   2.592   3.037  14.429  1.6375  1.7511 -0.9412
 9370TIP3   OH249524   0.816   0.167  11.440 -0.6684 -0.3981  0.0436
 9370TIP3    H149525   0.744   0.193  11.498  0.6888  0.8540  1.2554
 9370TIP3    H249526   0.895   0.192  11.488  0.5359 -0.1585 -1.9610
 9371TIP3   OH249527   5.334   1.602   0.918 -0.3174  0.4190  0.3025
 9371TIP3    H149528   5.247   1.627   0.949 -0.4666  1.4078 -0.8417
 9371TIP3    H249529   5.324   1.514   0.884 -0.3552 -0.3370  2.1636
 9372TIP3   OH249530   5.498   5.658  11.463  0.2563  0.3404 -0.0532
 9372TIP3    H149531   5.516   5.601  11.538 -1.9383  1.3165  1.3268
 9372TIP3    H249532   5.409   5.635  11.437  0.1131  1.6725 -0.8231
 9373TIP3   OH249533   7.087   2.221  12.126  0.6114 -0.0732  0.1656
 9373TIP3    H149534   7.106   2.177  12.043  1.6040 -0.4681  0.5815
 9373TIP3    H249535   7.135   2.304  12.121 -0.7522  0.7302 -0.3582
 9374TIP3   OH249536   3.562   5.014  10.148  0.1904 -0.5520 -0.4747
 9374TIP3    H149537   3.549   5.068  10.070 -2.3023 -0.4051 -0.0540
 9374TIP3    H249538   3.483   4.960  10.153  0.9670 -1.6136  1.1391
 9375TIP3   OH249539   3.639   0.550   2.270  0.3444 -0.0699 -0.3259
 9375TIP3    H149540   3.690   0.591   2.340 -1.3597  0.1865  0.8223
 9375TIP3    H249541   3.698   0.483   2.234  1.4613  0.1572  0.9756
 9376TIP3   OH249542   4.527   0.075  12.313 -0.3638 -0.6122 -0.0439
 9376TIP3    H149543   4.585   0.048  12.242 -0.1639  1.2008 -0.6201
 9376TIP3    H249544   4.441   0.083  12.272  0.1403  2.5938 -0.7267
 9377TIP3   OH249545   1.802   6.678  14.298 -0.0620  0.2625 -0.0271
 9377TIP3    H149546   1.772   6.714  14.214  0.4030 -0.4824 -0.5227
 9377TIP3    H249547   1.893   6.653  14.283 -0.0784 -0.1975  0.6055
 9378TIP3   OH249548   3.007   2.516   1.056  0.3354  0.3239  0.5798
 9378TIP3    H149549   3.076   2.503   1.121  0.6929 -0.3413  0.0885
 9378TIP3    H249550   2.926   2.498   1.102  0.6481 -1.1802  0.6090
 9379TIP3   OH249551   3.165   6.496   0.760 -0.6096 -0.1394 -0.3532
 9379TIP3    H149552   3.260   6.503   0.745 -0.5854  0.2908 -0.0055
 9379TIP3    H249553   3.141   6.579   0.800 -1.2912  0.0981 -1.2287
 9380TIP3   OH249554   1.871   0.588  12.837  0.3850 -0.1321 -0.0313
 9380TIP3    H149555   1.904   0.558  12.922 -0.9427 -1.7577 -0.0233
 9380TIP3    H249556   1.775   0.582  12.845  0.1902  1.0895 -1.1695
 9381TIP3   OH249557   1.926   1.943  10.848  0.1886 -0.2245  0.2237
 9381TIP3    H149558   2.005   1.920  10.800 -0.4273  0.2485 -1.0551
 9381TIP3    H249559   1.950   1.932  10.940  1.3858 -1.1666 -0.1792
 9382TIP3   OH249560   2.494   2.598  10.527 -0.3889 -0.4921 -0.4172
 9382TIP3    H149561   2.530   2.672  10.478 -0.1832 -1.1264 -1.2373
 9382TIP3    H249562   2.562   2.531  10.525 -0.6048 -0.7471  0.2500
 9383TIP3   OH249563   5.647   1.058   5.130  0.1310  0.0578 -0.7511
 9383TIP3    H149564   5.707   1.047   5.056  0.3129  0.4409 -0.6658
 9383TIP3    H249565   5.646   0.974   5.174  0.5942  0.0427 -0.7641
 9384TIP3   OH249566   3.298   2.976   1.582 -0.3698  0.3166  0.1050
 9384TIP3    H149567   3.314   2.896   1.531 -1.1845  1.2908 -1.7875
 9384TIP3    H249568   3.350   2.965   1.661  0.1600 -1.7325 -0.4667
 9385TIP3   OH249569   4.556   1.997   0.920 -0.4581  0.4921  0.3553
 9385TIP3    H149570   4.483   1.988   0.981 -1.7459  0.8737 -1.0651
 9385TIP3    H249571   4.603   1.914   0.927 -1.1098  0.1669  1.1779
 9386TIP3   OH249572   7.070   6.337  13.616  0.5088 -0.0382  1.0230
 9386TIP3    H149573   7.058   6.410  13.677 -0.2309  0.9434 -0.2556
 9386TIP3    H249574   6.997   6.278  13.635  0.5459  0.0304  1.3918
 9387TIP3   OH249575   0.786   3.870   2.849  0.0615 -0.4703 -0.4980
 9387TIP3    H149576   0.723   3.941   2.835  1.1799  0.5246 -0.6477
 9387TIP3    H249577   0.758   3.801   2.789 -1.3825 -0.4056  0.0543
 9388TIP3   OH249578   4.392   3.117   4.687  0.0475 -0.3068 -0.6408
 9388TIP3    H149579   4.403   3.087   4.777  1.1304  0.2181 -0.5860
 9388TIP3    H249580   4.308   3.164   4.687 -0.5341 -1.3283 -0.1989
 9389TIP3   OH249581   2.275   6.853  13.950 -0.8379 -0.2513 -0.3991
 9389TIP3    H149582   2.266   6.906  13.871 -1.1382  0.0189 -0.1849
 9389TIP3    H249583   2.312   6.912  14.015 -0.0584 -0.6224 -0.4890
 9390TIP3   OH249584   6.140   5.698   0.402 -0.2281 -0.6904  0.2664
 9390TIP3    H149585   6.048   5.720   0.391  0.2197  0.9412 -0.5428
 9390TIP3    H249586   6.167   5.664   0.317 -0.0515 -1.1130  0.4850
 9391TIP3   OH249587   0.729   2.549   2.046  0.4121  0.0674 -0.0911
 9391TIP3    H149588   0.634   2.537   2.053  0.1631  0.2839 -2.4260
 9391TIP3    H249589   0.759   2.474   1.995  1.6735 -0.4424  1.3205
 9392TIP3   OH249590   0.301   5.008   1.444  0.5850  0.2220  0.4767
 9392TIP3    H149591   0.207   5.023   1.433  0.6964  2.9095  2.2284
 9392TIP3    H249592   0.308   4.922   1.484 -1.2135  0.3578  1.1389
 9393TIP3   OH249593   0.830   4.213   0.358 -0.1428 -0.1611  0.2760
 9393TIP3    H149594   0.853   4.130   0.401  1.2166  0.2956  0.4721
 9393TIP3    H249595   0.879   4.211   0.275 -1.5000 -0.3269 -0.5572
 9394TIP3   OH249596   2.397   0.032  11.299  0.1395 -0.4986  0.2998
 9394TIP3    H149597   2.429   0.081  11.375 -0.0296  0.5797 -0.2970
 9394TIP3    H249598   2.315  -0.007  11.328 -0.5824  0.9733  0.3045
 9395TIP3   OH249599   1.672   4.293  11.215  0.6236 -0.0401 -0.2220
 9395TIP3    H149600   1.735   4.221  11.209  0.5894 -0.1174  0.3599
 9395TIP3    H249601   1.659   4.307  11.309 -0.8223 -0.5504 -0.3144
 9396TIP3   OH249602   4.165   0.508   1.734 -0.4862 -0.1255  0.1356
 9396TIP3    H149603   4.233   0.478   1.673  1.1050  3.5567 -0.1629
 9396TIP3    H249604   4.084   0.472   1.698  1.0849 -4.4242  0.3094
 9397TIP3   OH249605   5.593   3.326  10.161  0.4905  0.7009 -0.3881
 9397TIP3    H149606   5.550   3.396  10.209  0.0853 -1.5720  2.9417
 9397TIP3    H249607   5.524   3.288  10.107 -0.8036 -0.3550  1.8497
 9398TIP3   OH249608   5.719   3.744   0.790  0.4281  0.1640  0.1061
 9398TIP3    H149609   5.683   3.727   0.703 -1.1885 -0.4171  0.8525
 9398TIP3    H249610   5.701   3.665   0.840 -1.3989  1.5718  1.8007
 9399TIP3   OH249611   2.134   2.976   2.469  0.2235 -0.8072 -0.3394
 9399TIP3    H149612   2.229   2.978   2.467  0.2710 -2.0874 -0.4355
 9399TIP3    H249613   2.109   3.047   2.529  1.3117 -1.7847  1.3494
 9400TIP3   OH249614   5.980   6.105  10.048 -0.5553  0.3723  0.6872
 9400TIP3    H149615   5.972   6.137  10.138 -1.6625 -0.9189  1.0719
 9400TIP3    H249616   5.924   6.163   9.997  0.4576  1.4208  0.7091
 9401TIP3   OH249617   3.217   4.718   1.014  0.5642 -0.4853  0.8041
 9401TIP3    H149618   3.220   4.768   0.933 -0.6987 -1.2480  0.2568
 9401TIP3    H249619   3.228   4.783   1.083  1.0221  0.2582  0.0401
 9402TIP3   OH249620   2.483   0.082  14.483  0.0335 -0.5700  0.1034
 9402TIP3    H149621   2.498   0.169  14.446  1.1816 -0.1767  1.4007
 9402TIP3    H249622   2.514   0.021  14.416  0.0535  0.0440 -0.4532
 9403TIP3   OH249623   3.486   0.500  15.135  0.0793  0.2261  0.1472
 9403TIP3    H149624   3.480   0.434  15.204 -0.0002  0.2321  0.1450
 9403TIP3    H249625   3.458   0.455  15.055 -0.9004  0.5313  0.3125
 9404TIP3   OH249626   3.260   1.084  12.417  0.0119  0.2391  0.4952
 9404TIP3    H149627   3.211   1.162  12.442  1.1465  0.9644  0.5201
 9404TIP3    H249628   3.320   1.114  12.349 -0.9193 -1.0560 -0.9722
 9405TIP3   OH249629   2.143   0.216  14.381 -0.2782 -0.2672 -0.2186
 9405TIP3    H149630   2.106   0.216  14.293 -0.2937  1.2192 -0.2476
 9405TIP3    H249631   2.097   0.145  14.427  0.0839 -1.3756 -1.5269
 9406TIP3   OH249632   4.506   5.344  12.128  0.0309 -0.2829  0.3768
 9406TIP3    H149633   4.422   5.355  12.084  0.5170  1.9116 -0.1008
 9406TIP3    H249634   4.483   5.312  12.215 -1.3643  0.7991  0.4430
 9407TIP3   OH249635   0.240   5.042   9.943  0.6834  0.6091  0.2786
 9407TIP3    H149636   0.245   4.979   9.872 -1.0970  0.9694 -0.2332
 9407TIP3    H249637   0.211   5.123   9.901 -3.0521  0.1914  1.6044
 9408TIP3   OH249638   4.558   3.029  12.082  0.0300 -0.3923  0.3653
 9408TIP3    H149639   4.477   3.008  12.036  0.0931 -1.1670  0.5991
 9408TIP3    H249640   4.548   2.989  12.168  0.9208 -1.0443  0.1738
 9409TIP3   OH249641   6.258   5.386  10.504  0.2244  0.0597  0.6082
 9409TIP3    H149642   6.195   5.439  10.455 -0.3644 -0.9761  0.2129
 9409TIP3    H249643   6.341   5.433  10.495 -0.3121  0.9785  0.3852
 9410TIP3   OH249644   5.959   2.754   0.554  0.4762 -0.9597  0.0242
 9410TIP3    H149645   5.933   2.753   0.646  1.1291 -0.8317  0.2204
 9410TIP3    H249646   5.999   2.840   0.542  1.0926 -1.2682 -0.1675
 9411TIP3   OH249647   6.552   5.266  15.099 -0.1314  0.0819 -0.0699
 9411TIP3    H149648   6.502   5.197  15.054 -2.2750  1.2877  0.3259
 9411TIP3    H249649   6.643   5.239  15.089 -0.8631 -3.1868  0.6778
 9412TIP3   OH249650   1.223   4.224   4.505 -0.5144 -0.2036 -0.1742
 9412TIP3    H149651   1.272   4.144   4.523 -1.4771 -0.8785 -0.4661
 9412TIP3    H249652   1.269   4.292   4.553  0.3183 -0.9349  0.0835
 9413TIP3   OH249653   4.216   3.111  13.233  0.6471  0.3579 -0.0915
 9413TIP3    H149654   4.150   3.162  13.188  1.4925  1.2059 -0.4155
 9413TIP3    H249655   4.169   3.037  13.271 -0.5602  1.2435  0.1651
 9414TIP3   OH249656   0.215   6.769   5.754 -0.8342 -0.2831  0.4813
 9414TIP3    H149657   0.214   6.863   5.773 -1.4891 -0.1003 -0.4142
 9414TIP3    H249658   0.128   6.750   5.719 -0.4226 -1.0488 -0.1591
 9415TIP3   OH249659   1.236   3.461   9.573 -0.6168  0.1379 -0.4205
 9415TIP3    H149660   1.285   3.541   9.593 -0.7475 -0.1799  1.3244
 9415TIP3    H249661   1.300   3.390   9.582 -0.8504 -0.0779 -0.4372
 9416TIP3   OH249662   2.128   3.291  10.947  0.1912  0.1554 -0.6550
 9416TIP3    H149663   2.114   3.347  11.024  2.7577  0.4140 -0.2776
 9416TIP3    H249664   2.103   3.345  10.873 -1.0023  0.3924 -0.1129
 9417TIP3   OH249665   4.918   0.308   1.182  0.3091  0.5518  0.3896
 9417TIP3    H149666   4.928   0.256   1.102 -1.0321  0.7299  0.0745
 9417TIP3    H249667   5.007   0.335   1.205  0.6864  0.9129 -1.3274
 9418TIP3   OH249668   2.086   5.660   3.591  0.4616 -0.3326 -0.5545
 9418TIP3    H149669   2.147   5.727   3.622  0.4221 -0.4653 -0.1815
 9418TIP3    H249670   2.111   5.580   3.638 -0.4224 -0.2291  0.1180
 9419TIP3   OH249671   3.269   3.841   3.181  0.6489  0.1855  0.0991
 9419TIP3    H149672   3.299   3.790   3.256  2.2091 -0.3338 -0.8447
 9419TIP3    H249673   3.321   3.810   3.108 -1.4491  0.0409 -1.4378
 9420TIP3   OH249674   2.534   1.124  10.446 -0.1069 -0.0714 -0.0385
 9420TIP3    H149675   2.567   1.048  10.400  0.7773 -0.3719  1.0405
 9420TIP3    H249676   2.511   1.186  10.377  2.2481 -0.0449 -0.8793
 9421TIP3   OH249677   2.483   4.485   5.519  0.3513  0.4489 -0.1322
 9421TIP3    H149678   2.472   4.529   5.603  0.8201  0.0396  0.1473
 9421TIP3    H249679   2.574   4.455   5.519 -0.6752 -3.1720  1.0028
 9422TIP3   OH249680   7.029   4.773   1.183  0.0061  0.5938  0.1812
 9422TIP3    H149681   6.996   4.858   1.210  0.3393  0.2631  1.7972
 9422TIP3    H249682   7.058   4.785   1.093 -2.2524  1.5033 -0.4731
 9423TIP3   OH249683   6.282   4.490   5.307  0.4189  0.2088 -0.0613
 9423TIP3    H149684   6.310   4.542   5.382  0.6569 -0.7930  0.5739
 9423TIP3    H249685   6.304   4.400   5.332 -0.3600 -0.2370 -0.9447
 9424TIP3   OH249686   3.801   5.827  14.741 -0.8328  0.3681 -0.1126
 9424TIP3    H149687   3.783   5.842  14.834 -2.0800 -1.7641  0.0531
 9424TIP3    H249688   3.895   5.840  14.732 -0.7109  0.7337  1.4139
 9425TIP3   OH249689   4.991   5.211  13.356 -0.0479 -0.0980 -0.1464
 9425TIP3    H149690   5.022   5.219  13.446  0.5534  1.1124 -0.4371
 9425TIP3    H249691   4.925   5.141  13.359  0.3221 -0.4101  1.1246
 9426TIP3   OH249692   2.542   1.854  15.283 -0.2912  0.2545  0.4656
 9426TIP3    H149693   2.489   1.819  15.354 -1.4552 -0.6543 -0.8075
 9426TIP3    H249694   2.488   1.844  15.205  1.8774 -1.0731 -0.9647
 9427TIP3   OH249695   1.828   4.173  13.030  0.2139  0.1534 -0.0113
 9427TIP3    H149696   1.806   4.086  12.996 -0.4577  0.8266 -1.4311
 9427TIP3    H249697   1.807   4.232  12.957 -1.1061  1.6938  1.5389
 9428TIP3   OH249698   0.649   3.749  14.677  0.5762 -0.2120  0.1290
 9428TIP3    H149699   0.643   3.823  14.737 -2.1955  0.0383 -0.3144
 9428TIP3    H249700   0.712   3.777  14.611  1.0759  0.9087  1.0479
 9429TIP3   OH249701   0.378   1.682  10.094 -0.0912 -0.2879 -0.4655
 9429TIP3    H149702   0.347   1.749  10.033 -0.8174 -0.4220 -0.2506
 9429TIP3    H249703   0.428   1.621  10.040  0.9021  0.6043 -0.6170
 9430TIP3   OH249704   3.917   6.136   3.354 -0.0138 -0.6605 -0.5746
 9430TIP3    H149705   3.827   6.168   3.361  0.0750 -0.6830  1.1933
 9430TIP3    H249706   3.923   6.067   3.421  1.7555  0.4735  0.5003
 9431TIP3   OH249707   1.733   6.019  13.264  0.2100 -0.1265  0.0668
 9431TIP3    H149708   1.641   6.039  13.282  0.1679 -1.8311  2.2044
 9431TIP3    H249709   1.741   6.023  13.169 -1.7348  1.3694 -0.0915
 9432TIP3   OH249710   3.643   2.672  11.256  0.1200  0.5639  0.5195
 9432TIP3    H149711   3.590   2.678  11.336 -1.0547  0.3320 -0.2322
 9432TIP3    H249712   3.714   2.613  11.280 -2.1407 -2.4302  0.4015
 9433TIP3   OH249713   3.189   1.348  10.680  0.6429 -0.1292  0.0263
 9433TIP3    H149714   3.147   1.303  10.753  0.1629  0.1211 -0.0923
 9433TIP3    H249715   3.156   1.303  10.602 -0.1422  0.6617 -0.1117
 9434TIP3   OH249716   1.442   6.055   0.213 -0.5917 -0.5157 -0.1948
 9434TIP3    H149717   1.468   5.964   0.228  0.5451 -0.0131  1.1615
 9434TIP3    H249718   1.472   6.073   0.124 -1.4073 -1.6376 -0.7202
 9435TIP3   OH249719   2.796   1.891  12.181  0.1593  0.4145 -0.2567
 9435TIP3    H149720   2.777   1.952  12.109  1.5048  0.4212 -0.6326
 9435TIP3    H249721   2.717   1.837  12.189 -0.2766  0.8887 -1.2657
 9436TIP3   OH249722   6.589   0.297   1.453 -0.7035 -0.0230 -0.3401
 9436TIP3    H149723   6.573   0.372   1.509 -0.6048 -0.3420  0.1241
 9436TIP3    H249724   6.576   0.221   1.510  0.4994 -0.3320 -0.4407
 9437TIP3   OH249725   5.077   0.010   3.604 -0.1548 -0.0056  0.2053
 9437TIP3    H149726   5.049   0.063   3.679  1.2170  1.1761 -0.0750
 9437TIP3    H249727   5.034   0.051   3.529  0.6411  0.5194  0.0288
 9438TIP3   OH249728   0.588   4.351  12.830  0.4806 -0.5366  0.3097
 9438TIP3    H149729   0.632   4.373  12.913  0.9952  2.6411 -0.6747
 9438TIP3    H249730   0.657   4.360  12.764 -0.4427 -0.8086 -0.7081
 9439TIP3   OH249731   6.455   4.989   2.690 -0.0184  0.0261 -0.0234
 9439TIP3    H149732   6.529   5.047   2.712  0.5587 -1.0214  0.8981
 9439TIP3    H249733   6.378   5.045   2.700  0.4378  0.4111  1.9320
 9440TIP3   OH249734   1.677   1.417  11.859  0.2561  0.3263 -0.0032
 9440TIP3    H149735   1.636   1.498  11.891  0.0333 -0.3609  1.5362
 9440TIP3    H249736   1.695   1.367  11.938  0.8091 -0.9409 -0.9091
 9441TIP3   OH249737   6.814   5.376   2.313  0.0918 -0.0401  0.1026
 9441TIP3    H149738   6.908   5.389   2.299  0.8521 -4.3033 -0.0957
 9441TIP3    H249739   6.795   5.421   2.395  2.6799 -0.3815  0.9723
 9442TIP3   OH249740   5.757   2.934  14.042 -0.3472 -0.2056 -0.0336
 9442TIP3    H149741   5.751   2.851  13.995 -0.7687 -0.2907  0.1576
 9442TIP3    H249742   5.817   2.988  13.990 -0.1784 -0.5815 -0.2299
 9443TIP3   OH249743   5.391   6.950  14.839  0.2492  0.8164 -0.5963
 9443TIP3    H149744   5.410   6.872  14.786 -1.4622 -0.5633  0.7115
 9443TIP3    H249745   5.328   7.000  14.787  1.2003  1.2678 -1.3495
 9444TIP3   OH249746   6.674   5.697  12.570 -0.4249 -0.4604  0.7054
 9444TIP3    H149747   6.755   5.719  12.615 -0.0529  2.1481 -1.0205
 9444TIP3    H249748   6.612   5.765  12.596 -1.3910 -1.1672  0.3299
 9445TIP3   OH249749   2.595   0.854  15.248 -0.1217  0.0387 -0.7396
 9445TIP3    H149750   2.599   0.937  15.199  0.6424  1.1696  1.1074
 9445TIP3    H249751   2.560   0.879  15.334  1.7015 -1.2248  0.4475
 9446TIP3   OH249752   6.993   7.062   0.745  0.0976  1.0334 -0.2913
 9446TIP3    H149753   6.992   6.973   0.710  1.8255  0.8705  0.0147
 9446TIP3    H249754   7.062   7.107   0.697 -0.1828  1.9774  0.1525
 9447TIP3   OH249755   1.992   4.069  12.804 -0.1408 -0.1860  0.6881
 9447TIP3    H149756   1.989   3.976  12.828  0.4303 -0.2560  0.5007
 9447TIP3    H249757   2.071   4.102  12.846  1.0531 -0.3767 -1.3024
 9448TIP3   OH249758   6.288   2.567  11.635  0.3404  0.0839 -0.2055
 9448TIP3    H149759   6.243   2.496  11.682  0.6416  0.7652  1.1705
 9448TIP3    H249760   6.228   2.590  11.564  0.3314 -1.6781 -0.8371
 9449TIP3   OH249761   1.230   4.691  10.113 -0.3992 -0.3079 -0.3486
 9449TIP3    H149762   1.305   4.640  10.143 -0.8695  0.2766  2.0623
 9449TIP3    H249763   1.255   4.782  10.130 -0.6093  0.1095 -2.1074
 9450TIP3   OH249764   1.191   5.407   1.572  0.1233 -0.3275 -0.3046
 9450TIP3    H149765   1.122   5.341   1.563 -0.2266  0.2894 -2.7544
 9450TIP3    H249766   1.273   5.357   1.572 -0.1944 -0.8523 -0.5684
 9451TIP3   OH249767   1.555   0.080   2.553 -0.9113  0.1593 -0.0626
 9451TIP3    H149768   1.488   0.064   2.487 -1.1531 -0.6503  0.3610
 9451TIP3    H249769   1.521   0.152   2.606 -1.9221 -0.8743  0.7461
 9452TIP3   OH249770   1.636   4.814   1.405 -0.5494 -0.1829 -0.6707
 9452TIP3    H149771   1.612   4.832   1.314 -0.1571  0.8696 -0.5796
 9452TIP3    H249772   1.556   4.829   1.454 -0.5399  0.0978 -0.7413
 9453TIP3   OH249773   4.200   5.270  13.417  0.7450 -0.0756 -0.3426
 9453TIP3    H149774   4.123   5.222  13.448 -0.4294  0.5989 -2.0612
 9453TIP3    H249775   4.239   5.212  13.351  1.8124 -0.4593  0.5944
 9454TIP3   OH249776   5.856   0.589  12.242 -0.6448 -0.1387  0.1498
 9454TIP3    H149777   5.921   0.654  12.215 -0.2977 -0.1014  1.0304
 9454TIP3    H249778   5.875   0.574  12.335 -1.5130 -0.5764  0.2645
 9455TIP3   OH249779   2.326   1.731  13.000  0.7893  0.2648 -0.9344
 9455TIP3    H149780   2.269   1.769  12.932 -1.0404  0.3903  0.5828
 9455TIP3    H249781   2.374   1.806  13.035  0.3948  0.4953 -0.8793
 9456TIP3   OH249782   5.796   0.558   0.543  0.3775 -0.4094 -0.0143
 9456TIP3    H149783   5.849   0.489   0.504  1.0426  0.1842 -0.1969
 9456TIP3    H249784   5.860   0.617   0.584 -0.1783  0.0504  0.2178
 9457TIP3   OH249785   6.409   6.856  11.445  0.0173  0.3900  0.7210
 9457TIP3    H149786   6.480   6.803  11.408 -0.1745 -0.6401  1.7603
 9457TIP3    H249787   6.343   6.859  11.376 -0.1093 -1.0388  0.7552
 9458TIP3   OH249788   6.171   5.054   1.437  0.3910 -0.2838  0.2587
 9458TIP3    H149789   6.190   5.033   1.345  0.4894  0.3016  0.1409
 9458TIP3    H249790   6.210   4.982   1.486  0.5001 -0.5095 -0.1481
 9459TIP3   OH249791   3.228   1.399  13.068 -0.4228  0.0020 -0.3457
 9459TIP3    H149792   3.303   1.341  13.053 -0.8690 -0.6530 -0.0858
 9459TIP3    H249793   3.183   1.403  12.984 -1.1373 -1.1102 -0.0318
 9460TIP3   OH249794   3.295   4.016   0.237  0.0611 -0.4837  0.3463
 9460TIP3    H149795   3.257   4.012   0.149 -2.7232  1.2955  1.2925
 9460TIP3    H249796   3.307   3.925   0.263  1.8307 -1.0564 -2.1389
 9461TIP3   OH249797   2.996   5.349  15.310  0.2830 -0.1367  0.0155
 9461TIP3    H149798   3.059   5.290  15.268  1.2431  1.0252 -0.2378
 9461TIP3    H249799   3.019   5.347  15.403  0.4108 -0.0433 -0.0141
 9462TIP3   OH249800   6.139   6.380  10.907  0.8855 -0.1624 -0.0908
 9462TIP3    H149801   6.120   6.326  10.829  0.0903 -0.2356  0.1422
 9462TIP3    H249802   6.074   6.352  10.971  0.6721  0.8530  0.1479
 9463TIP3   OH249803   4.701   0.465  14.799  0.1964  0.1297 -0.0627
 9463TIP3    H149804   4.639   0.392  14.809  2.6045 -2.0682 -0.0164
 9463TIP3    H249805   4.658   0.525  14.738 -2.5507 -0.5249  1.0848
 9464TIP3   OH249806   5.966   0.537   2.816 -0.0508  0.2506  0.0030
 9464TIP3    H149807   6.062   0.539   2.821 -0.1061  2.7691  3.1691
 9464TIP3    H249808   5.942   0.451   2.850  1.0627  0.2393  0.8156
 9465TIP3   OH249809   3.981   3.065  10.063 -0.5430  0.7774 -0.2176
 9465TIP3    H149810   3.951   3.125  10.131  0.3824  0.7780  0.2010
 9465TIP3    H249811   4.069   3.040  10.090 -0.9055 -0.7841 -0.3684
 9466TIP3   OH249812   0.261   4.306  14.481  0.5695 -0.2853  0.4677
 9466TIP3    H149813   0.313   4.385  14.495  1.9233 -1.2296  1.0248
 9466TIP3    H249814   0.245   4.304  14.387 -1.8955  2.0602  0.7323
 9467TIP3   OH249815   3.535   5.473  15.176  0.3249  0.2938 -0.5903
 9467TIP3    H149816   3.447   5.504  15.197  0.6534  1.3716 -0.7336
 9467TIP3    H249817   3.540   5.479  15.080  0.5014  0.0902 -0.5944
 9468TIP3   OH249818   1.124   6.988  12.827 -0.4796 -0.4946  0.7435
 9468TIP3    H149819   1.034   6.959  12.839 -0.4161 -0.1919  2.1154
 9468TIP3    H249820   1.177   6.918  12.865 -0.2119  0.0130  1.3228
 9469TIP3   OH249821   3.706   5.182   2.613 -0.7160  0.0024 -0.4970
 9469TIP3    H149822   3.798   5.157   2.619 -0.6313  0.4620  0.2905
 9469TIP3    H249823   3.672   5.132   2.538  0.5581  1.0670 -1.8340
 9470TIP3   OH249824   1.604   0.221  12.696  0.1618  0.3747  0.3197
 9470TIP3    H149825   1.598   0.313  12.724  0.8546  0.7833 -0.8028
 9470TIP3    H249826   1.658   0.224  12.617  0.6871 -1.0809  0.6066
 9471TIP3   OH249827   1.970   6.484  13.130 -0.1628  0.2721 -0.2214
 9471TIP3    H149828   2.001   6.396  13.108  1.4216  0.7116  0.0735
 9471TIP3    H249829   2.031   6.542  13.085  0.3934  1.1963  1.6318
 9472TIP3   OH249830   2.944   4.137  12.100 -0.5650  0.4874 -0.2914
 9472TIP3    H149831   2.936   4.225  12.063  0.8361  0.0997 -1.6214
 9472TIP3    H249832   2.961   4.081  12.024 -1.4047 -0.9424  0.5316
 9473TIP3   OH249833   4.617   0.415   5.368 -0.5137  0.1969  0.4619
 9473TIP3    H149834   4.642   0.334   5.323 -1.2532  0.1487  0.1351
 9473TIP3    H249835   4.698   0.444   5.411 -0.3957 -1.0445  1.0978
 9474TIP3   OH249836   2.134   3.062   1.924 -0.2434  0.2640  0.0975
 9474TIP3    H149837   2.072   3.020   1.863  0.7414  2.0162 -2.2435
 9474TIP3    H249838   2.091   3.054   2.009 -4.0889  1.9239 -1.4374
 9475TIP3   OH249839   0.266   5.328   0.360  1.0708 -0.3524 -0.0498
 9475TIP3    H149840   0.331   5.360   0.423 -0.2929  0.3319  1.0479
 9475TIP3    H249841   0.260   5.234   0.378  0.2092 -0.0559  1.3250
 9476TIP3   OH249842   5.398   5.662   9.052 -0.0536 -0.5681 -0.1859
 9476TIP3    H149843   5.368   5.751   9.071  1.0046  0.2197 -1.9661
 9476TIP3    H249844   5.329   5.605   9.087 -1.2244  0.9795  0.1228
 9477TIP3   OH249845   4.499   1.160   3.374 -0.1196 -0.5690 -0.0436
 9477TIP3    H149846   4.539   1.183   3.458  0.9186  0.5371 -0.8040
 9477TIP3    H249847   4.415   1.206   3.374  0.4451  0.5083 -0.1214
 9478TIP3   OH249848   3.406   1.057  13.941 -0.6238 -0.6355 -0.0081
 9478TIP3    H149849   3.397   1.146  13.907  2.7641 -0.1609  0.0236
 9478TIP3    H249850   3.386   1.065  14.035 -2.7853 -0.4846 -0.4368
 9479TIP3   OH249851   6.362   0.979   4.265  0.6028  0.1371 -0.0801
 9479TIP3    H149852   6.456   0.971   4.246  0.6824  0.2735  0.2661
 9479TIP3    H249853   6.358   1.029   4.346  0.2036  0.7476 -0.4688
 9480TIP3   OH249854   6.088   4.582  12.761 -0.7082 -0.1795 -0.4008
 9480TIP3    H149855   6.070   4.634  12.839 -0.6147 -0.4604 -0.1916
 9480TIP3    H249856   6.183   4.582  12.753 -0.7110 -0.2656 -0.4355
 9481TIP3   OH249857   1.832   5.640  12.674 -0.0859 -0.2058  0.1467
 9481TIP3    H149858   1.791   5.593  12.601 -0.3981  0.5175 -0.1567
 9481TIP3    H249859   1.918   5.664  12.642  1.3289 -3.1275  1.3346
 9482TIP3   OH249860   1.868   6.369  14.174 -0.1364  0.3288 -0.4129
 9482TIP3    H149861   1.922   6.313  14.119  0.4868  1.3223 -0.8504
 9482TIP3    H249862   1.855   6.448  14.122 -2.3962 -0.0228 -0.5074
 9483TIP3   OH249863   2.581   2.124  10.012  0.6138  0.4551 -0.0014
 9483TIP3    H149864   2.541   2.037  10.018 -0.0064  0.7198 -0.2452
 9483TIP3    H249865   2.624   2.136  10.097  1.0423 -0.2466 -0.1063
 9484TIP3   OH249866   1.050   3.598  11.802 -0.3645  0.1245 -0.3809
 9484TIP3    H149867   0.998   3.565  11.875 -0.3730 -0.4536 -0.6364
 9484TIP3    H249868   1.112   3.527  11.783 -0.7794  0.0046 -1.3349
 9485TIP3   OH249869   6.861   4.663  11.882  0.1197  0.0443 -0.1540
 9485TIP3    H149870   6.892   4.700  11.800  0.5450 -0.6308 -0.3099
 9485TIP3    H249871   6.781   4.710  11.902  0.0287  0.2272 -0.9474
 9486TIP3   OH249872   3.680   2.585  13.565  0.3751  0.2186 -0.0088
 9486TIP3    H149873   3.687   2.576  13.660 -1.9641 -1.1732  0.1244
 9486TIP3    H249874   3.665   2.679  13.551 -2.3400  0.1106  1.3696
 9487TIP3   OH249875   5.780   4.955   2.142 -0.4663  0.2521 -0.6866
 9487TIP3    H149876   5.693   4.942   2.179 -1.1886 -0.3426 -2.5105
 9487TIP3    H249877   5.800   4.873   2.098  2.5862 -1.0510  2.5564
 9488TIP3   OH249878   1.235   2.493  13.545  0.2777 -0.2001 -0.0852
 9488TIP3    H149879   1.317   2.530  13.577  0.7461  0.0431 -1.5001
 9488TIP3    H249880   1.171   2.564  13.556  0.3141 -0.2809  0.7142
 9489TIP3   OH249881   6.898   0.012  12.716  0.1417  0.1621  0.2646
 9489TIP3    H149882   6.899   0.070  12.639  1.3896  3.2330  2.4034
 9489TIP3    H249883   6.823   0.041  12.767  1.7205  1.1061  2.1622
 9490TIP3   OH249884   2.329   6.565  10.104  0.7958 -0.8971  0.3407
 9490TIP3    H149885   2.258   6.501  10.114  0.4605 -0.7133 -0.6930
 9490TIP3    H249886   2.286   6.644  10.071  1.3265 -0.4060  0.7983
 9491TIP3   OH249887   0.056   2.361  12.854 -0.0759 -0.5635 -0.4429
 9491TIP3    H149888   0.038   2.355  12.760  0.1271  1.2357 -0.6298
 9491TIP3    H249889   0.063   2.270  12.883 -0.2750 -1.1518 -2.1368
 9492TIP3   OH249890   5.610   2.385  15.325 -0.1693 -0.0412 -0.3162
 9492TIP3    H149891   5.691   2.396  15.375 -0.5695  3.5281 -0.2224
 9492TIP3    H249892   5.625   2.434  15.244 -1.9128 -0.0784 -0.6940
 9493TIP3   OH249893   0.792   3.505  14.398 -0.1773 -0.6543  0.2200
 9493TIP3    H149894   0.833   3.418  14.393 -1.0346 -1.1891  1.8405
 9493TIP3    H249895   0.851   3.562  14.348  1.2021 -1.8781  0.3828
 9494TIP3   OH249896   6.249   6.102  12.537  0.7350  0.8203 -0.0584
 9494TIP3    H149897   6.194   6.148  12.474 -0.2545 -0.4290 -0.1464
 9494TIP3    H249898   6.328   6.080  12.489  0.2297  0.3853 -0.7144
 9495TIP3   OH249899   0.934   7.048   2.000 -0.0238  0.3287  0.2151
 9495TIP3    H149900   0.856   6.994   1.995 -0.0555  0.4988 -1.3663
 9495TIP3    H249901   0.991   7.017   1.930 -0.6186  3.1778 -1.7028
 9496TIP3   OH249902   0.788   1.743  10.583  0.1195  0.4269 -0.1415
 9496TIP3    H149903   0.769   1.657  10.621  0.1846  1.1061  1.5185
 9496TIP3    H249904   0.771   1.805  10.654  3.9274  1.4806  0.0875
 9497TIP3   OH249905   6.456   4.726  15.189 -0.0208  0.1255 -0.0845
 9497TIP3    H149906   6.524   4.666  15.219  0.1744 -0.2624 -1.2499
 9497TIP3    H249907   6.469   4.805  15.242  1.4448  0.1168 -0.4026
 9498TIP3   OH249908   0.710   6.086   1.343 -0.4880 -0.0052 -0.2007
 9498TIP3    H149909   0.673   6.165   1.305  0.9147 -0.2253 -2.1467
 9498TIP3    H249910   0.637   6.046   1.391 -1.2408  2.3774  0.7750
 9499TIP3   OH249911   2.199   4.421  13.427  0.4173 -0.7779  0.0439
 9499TIP3    H149912   2.215   4.360  13.355 -0.9309 -0.9868 -0.0924
 9499TIP3    H249913   2.273   4.407  13.486  0.3708 -2.2204 -0.2104
 9500TIP3   OH249914   0.970   1.666   0.119 -0.3391  0.2892 -0.2274
 9500TIP3    H149915   1.033   1.621   0.176  0.5158  0.7654 -0.7850
 9500TIP3    H249916   0.891   1.611   0.123 -0.0300 -0.1056  0.7869
 9501TIP3   OH249917   0.746   6.039  11.354  0.0558 -0.1565  0.0515
 9501TIP3    H149918   0.768   5.946  11.350 -1.9818 -0.7202  0.6307
 9501TIP3    H249919   0.768   6.073  11.267 -0.4328 -1.5023 -0.6309
 9502TIP3   OH249920   7.115   2.058  11.919 -0.3461  0.4606  0.4610
 9502TIP3    H149921   7.161   2.016  11.846  1.5011  0.7396  1.4139
 9502TIP3    H249922   7.035   2.094  11.879  0.5127  0.4574 -1.3646
 9503TIP3   OH249923   0.529   5.433  15.307  0.5142  0.2239 -0.5770
 9503TIP3    H149924   0.589   5.462  15.376 -0.4680 -0.9808  0.8392
 9503TIP3    H249925   0.507   5.343  15.331 -2.6348  0.9187 -0.4567
 9504TIP3   OH249926   6.513   6.904  14.320 -0.5012 -0.2401 -0.2460
 9504TIP3    H149927   6.573   6.831  14.306 -1.3284 -1.0908  0.5635
 9504TIP3    H249928   6.428   6.863  14.338 -0.4075  0.8061  3.1229
 9505TIP3   OH249929   3.250   0.798  11.535 -0.1189  0.3145  0.2294
 9505TIP3    H149930   3.297   0.854  11.597  4.2609 -1.4171 -1.1030
 9505TIP3    H249931   3.244   0.849  11.455  0.6568  0.1256  0.0463
 9506TIP3   OH249932   0.314   5.512   9.941 -0.0574 -0.0148 -0.0659
 9506TIP3    H149933   0.232   5.546   9.976 -1.0997  1.1679 -3.3183
 9506TIP3    H249934   0.372   5.588   9.936  0.7561 -0.5504  0.7852
 9507TIP3   OH249935   6.469   2.668  12.787 -0.3792  0.1593  0.0703
 9507TIP3    H149936   6.468   2.691  12.880 -1.5999  1.6913 -0.2759
 9507TIP3    H249937   6.522   2.588  12.782 -0.6802 -0.2097  2.1280
 9508TIP3   OH249938   2.568   1.910   9.803 -0.0990 -0.6746 -0.7645
 9508TIP3    H149939   2.619   1.906   9.722  0.6992 -2.5420 -0.2260
 9508TIP3    H249940   2.506   1.838   9.795 -0.5769 -0.3469 -0.0714
 9509TIP3   OH249941   5.054   4.973   4.319 -0.1210 -0.2773  0.1737
 9509TIP3    H149942   4.985   4.945   4.379  0.1780 -1.7185 -0.1010
 9509TIP3    H249943   5.047   4.913   4.244 -0.2925  1.2776 -1.1170
 9510TIP3   OH249944   6.827   1.511   1.746 -0.0549  0.3423  0.0567
 9510TIP3    H149945   6.789   1.438   1.794 -0.9328  1.9724  2.0003
 9510TIP3    H249946   6.751   1.558   1.709  0.4457  0.5872 -0.6876
 9511TIP3   OH249947   2.770   5.804  11.107 -0.3222  0.0221 -0.3391
 9511TIP3    H149948   2.819   5.723  11.118 -1.4037 -0.6125 -0.0658
 9511TIP3    H249949   2.833   5.865  11.068  0.3644 -1.0843 -1.0148
 9512TIP3   OH249950   3.759   5.820   0.453  0.3378  0.1792  0.7098
 9512TIP3    H149951   3.752   5.745   0.393  1.0097  0.2009  0.5978
 9512TIP3    H249952   3.717   5.892   0.405 -0.8051 -0.2334  1.0379
 9513TIP3   OH249953   5.495   3.602  12.707  0.1141 -0.3436 -0.3870
 9513TIP3    H149954   5.525   3.568  12.623 -0.7939 -2.0192 -0.0873
 9513TIP3    H249955   5.545   3.683  12.719  2.8159 -1.7747 -0.9479
 9514TIP3   OH249956   3.723   0.835   1.458  0.1508  0.0509  0.0477
 9514TIP3    H149957   3.672   0.915   1.442  1.0190  0.5899 -0.1167
 9514TIP3    H249958   3.766   0.818   1.374 -1.2431 -1.4947 -0.3883
 9515TIP3   OH249959   4.110   7.000  13.383  0.5468  0.1600  0.7262
 9515TIP3    H149960   4.083   6.959  13.465 -0.0416 -2.4022 -0.6541
 9515TIP3    H249961   4.204   6.981  13.377  0.3547 -0.6868  0.2767
 9516TIP3   OH249962   1.601   5.272   2.656 -0.0932  0.1931 -0.1768
 9516TIP3    H149963   1.570   5.204   2.715 -1.1348  0.4501 -0.4149
 9516TIP3    H249964   1.693   5.249   2.639 -0.2909 -0.8708  0.1317
 9517TIP3   OH249965   0.267   6.064  12.312  0.0587 -0.1487  0.1617
 9517TIP3    H149966   0.295   6.084  12.223  0.3583  1.2010  0.5379
 9517TIP3    H249967   0.188   6.011  12.302 -0.0483  0.2104 -0.8967
 9518TIP3   OH249968   4.789   1.024   9.606  0.0219 -0.2269  0.1718
 9518TIP3    H149969   4.710   0.978   9.634  0.9579 -1.8260  0.2816
 9518TIP3    H249970   4.847   0.955   9.574  1.2427  0.9527 -0.2511
 9519TIP3   OH249971   1.895   0.795  13.830 -0.1696 -0.1105  0.0327
 9519TIP3    H149972   1.878   0.845  13.911  0.0156  2.7151 -1.5278
 9519TIP3    H249973   1.989   0.804  13.816 -0.0532 -1.3561 -0.0589
 9520TIP3   OH249974   6.377   4.024  10.685 -0.0800 -0.1503 -0.0157
 9520TIP3    H149975   6.377   3.947  10.628  1.6636 -0.1605 -0.0652
 9520TIP3    H249976   6.312   4.083  10.646 -0.2861 -0.9521 -0.9099
 9521TIP3   OH249977   4.615   5.819  10.012  0.5536  0.0508  0.3307
 9521TIP3    H149978   4.554   5.878   9.968  0.0309  1.1958  2.4656
 9521TIP3    H249979   4.693   5.819   9.955 -1.0642 -0.8586 -2.0423
 9522TIP3   OH249980   2.881   5.647   1.700  0.4632  0.4799  0.6002
 9522TIP3    H149981   2.884   5.742   1.697  0.1181  0.4922  0.6571
 9522TIP3    H249982   2.972   5.620   1.689  0.4547  0.7908 -0.3128
 9523TIP3   OH249983   6.840   3.541   4.137 -0.2058 -0.8273 -0.1393
 9523TIP3    H149984   6.770   3.557   4.075 -1.1861 -2.5883  0.4548
 9523TIP3    H249985   6.797   3.538   4.222  0.8827 -0.0565  0.4734
 9524TIP3   OH249986   2.693   5.667   1.076 -0.1319  0.6799  0.5920
 9524TIP3    H149987   2.784   5.644   1.094 -1.1066 -1.5918  3.5776
 9524TIP3    H249988   2.656   5.588   1.037 -1.4550  0.3562  2.3472
 9525TIP3   OH249989   5.651   2.507   2.536  0.2691  0.8129  0.1017
 9525TIP3    H149990   5.610   2.569   2.475  1.2169  2.0308  0.6564
 9525TIP3    H249991   5.643   2.549   2.622 -1.7114 -1.2120  1.0185
 9526TIP3   OH249992   5.176   6.770  10.513 -0.4472 -0.6335 -0.2659
 9526TIP3    H149993   5.133   6.852  10.538 -0.5586 -0.5936 -0.5823
 9526TIP3    H249994   5.241   6.796  10.449  0.9085 -0.5295  1.1016
 9527TIP3   OH249995   1.202   6.125  10.874  0.4378  0.0138 -0.3018
 9527TIP3    H149996   1.222   6.172  10.793 -0.5469 -1.5259 -1.4968
 9527TIP3    H249997   1.156   6.046  10.846  2.6134 -2.0647  1.5508
 9528TIP3   OH249998   5.303   4.231   0.591 -0.3302 -0.1503  0.6800
 9528TIP3    H149999   5.315   4.311   0.641  0.0719  0.8184 -0.8855
 9528TIP3    H250000   5.292   4.261   0.501  0.1116 -1.8679  0.0179
 9529TIP3   OH250001   7.173   2.870  11.818  0.6623 -0.5149 -0.3403
 9529TIP3    H150002   7.262   2.860  11.784  0.3708  0.3148 -1.4187
 9529TIP3    H250003   7.117   2.829  11.751  0.0717  1.1336 -0.8978
 9530TIP3   OH250004   1.254   7.133  13.961  0.1729  0.2131  0.4241
 9530TIP3    H150005   1.276   7.177  13.879 -0.9309  0.0716  0.0397
 9530TIP3    H250006   1.286   7.043  13.949 -0.0089  0.1868  0.1346
 9531TIP3   OH250007   3.332   4.433  15.296  0.3108 -0.7098 -0.3237
 9531TIP3    H150008   3.248   4.435  15.249  0.6747  1.0931 -1.0014
 9531TIP3    H250009   3.398   4.421  15.227  0.6967 -0.6909  0.0385
 9532TIP3   OH250010   0.704   1.562  11.870 -0.2120 -0.1787  0.1272
 9532TIP3    H150011   0.767   1.589  11.937 -1.2601  1.8250  0.3902
 9532TIP3    H250012   0.746   1.585  11.787  0.3352 -0.9917  0.1657
 9533TIP3   OH250013   1.696   4.890  14.535 -0.0059 -0.3441  0.4876
 9533TIP3    H150014   1.749   4.921  14.608 -1.4296 -1.0962  1.8842
 9533TIP3    H250015   1.631   4.959  14.522  1.6826  0.9915 -1.7842
 9534TIP3   OH250016   2.693   1.793  14.127  0.0109  0.1754 -0.1919
 9534TIP3    H150017   2.670   1.700  14.133  0.3269  0.1437  0.6913
 9534TIP3    H250018   2.688   1.813  14.034 -1.9002 -0.2505 -0.2211
 9535TIP3   OH250019   0.219   2.379  11.521 -0.0913 -0.5183 -0.1471
 9535TIP3    H150020   0.250   2.359  11.609  1.8898  1.1827 -0.3946
 9535TIP3    H250021   0.152   2.447  11.534 -1.0244 -1.4588  0.1190
 9536TIP3   OH250022   4.616   5.052  14.197  0.3413  1.0790  0.0655
 9536TIP3    H150023   4.700   5.006  14.190 -0.2795  0.1632 -4.1014
 9536TIP3    H250024   4.639   5.139  14.229  2.3353 -0.1874  2.4132
 9537TIP3   OH250025   0.964   3.155  10.521  0.2506  0.6458  0.4866
 9537TIP3    H150026   0.952   3.245  10.492 -2.6611 -0.1638 -1.1825
 9537TIP3    H250027   1.009   3.112  10.449  3.3017  1.0149  1.9972
 9538TIP3   OH250028   5.034   1.329  11.531 -0.3397  0.2103 -0.3158
 9538TIP3    H150029   5.128   1.340  11.520 -0.5301  1.3033 -1.0556
 9538TIP3    H250030   5.003   1.414  11.560 -0.9758 -0.4311  0.9427
 9539TIP3   OH250031   0.529   6.311   1.861  0.1749  0.6142 -0.2125
 9539TIP3    H150032   0.611   6.327   1.908 -0.2944  2.4392  0.0625
 9539TIP3    H250033   0.552   6.321   1.768  0.9080 -2.1085 -0.4131
 9540TIP3   OH250034   1.449   7.150  12.085  0.1066 -0.3115  0.1058
 9540TIP3    H150035   1.380   7.159  12.151  0.2878 -1.1224  0.4211
 9540TIP3    H250036   1.451   7.056  12.065  2.3311 -0.6024  1.4290
 9541TIP3   OH250037   4.295   0.170  12.587  0.4573  0.4759  0.3400
 9541TIP3    H150038   4.227   0.200  12.526  1.0747 -0.9425 -1.1065
 9541TIP3    H250039   4.247   0.121  12.654  0.0067 -0.2297 -0.4853
 9542TIP3   OH250040   3.014   5.806   0.121  0.2202  0.1003  0.1043
 9542TIP3    H150041   2.968   5.850   0.193  1.2099  0.0829  0.7671
 9542TIP3    H250042   3.006   5.713   0.141  0.9405  0.1138  0.4861
 9543TIP3   OH250043   3.821   5.071  12.605  0.4520 -0.1111  0.0961
 9543TIP3    H150044   3.874   5.149  12.591 -1.3865  1.4769  1.3685
 9543TIP3    H250045   3.852   5.036  12.689 -0.4640  0.8381  0.8593
 9544TIP3   OH250046   1.195   2.394  15.019  0.1123 -0.2744  0.0227
 9544TIP3    H150047   1.183   2.302  15.040  3.2023 -0.7395  0.2927
 9544TIP3    H250048   1.290   2.406  15.019 -0.1694  2.7959 -0.5655
 9545TIP3   OH250049   4.177   5.107  10.620 -0.0980  0.2834  0.3499
 9545TIP3    H150050   4.249   5.051  10.593  0.0652  0.7160 -0.1329
 9545TIP3    H250051   4.204   5.195  10.595 -1.1100  0.3607 -0.5311
 9546TIP3   OH250052   0.945   2.941  14.690  1.0008 -0.4606  0.2771
 9546TIP3    H150053   0.948   3.036  14.706  2.1852 -0.6933  1.5936
 9546TIP3    H250054   0.856   2.926  14.657 -0.2260  0.7492  2.7330
 9547TIP3   OH250055   7.177   0.827   0.808 -0.2049 -0.0760 -0.2446
 9547TIP3    H150056   7.192   0.916   0.839  0.8940 -0.4568  0.3777
 9547TIP3    H250057   7.092   0.802   0.846 -0.6568  0.7923 -0.6590
 9548TIP3   OH250058   6.104   0.048  12.930  0.3230  0.5091 -0.3080
 9548TIP3    H150059   6.081   0.098  13.008  1.1318  1.6658 -0.7667
 9548TIP3    H250060   6.021   0.028  12.888 -0.0142  2.4387 -0.6618
 9549TIP3   OH250061   4.001   0.638   0.195  0.1367  0.0786  0.1232
 9549TIP3    H150062   3.959   0.616   0.112 -0.3898  0.1835  0.3550
 9549TIP3    H250063   4.031   0.728   0.184 -1.8481  0.8762  0.7642
 9550TIP3   OH250064   5.556   6.762  12.211  0.1801  0.1389  0.6083
 9550TIP3    H150065   5.573   6.733  12.300  2.4555 -1.2141 -0.1818
 9550TIP3    H250066   5.629   6.727  12.160 -1.1244  0.7356 -1.8267
 9551TIP3   OH250067   7.049   2.357   3.636 -0.5608  0.1404  0.6048
 9551TIP3    H150068   7.086   2.445   3.645  1.3041 -0.6281  0.9214
 9551TIP3    H250069   7.065   2.315   3.721  0.4040 -1.1296 -0.1624
 9552TIP3   OH250070   3.610   7.194  13.591  0.3917 -0.5036  0.2433
 9552TIP3    H150071   3.695   7.234  13.573 -0.0831  0.9386  1.0639
 9552TIP3    H250072   3.602   7.125  13.525  0.8509  1.3677 -1.8974
 9553TIP3   OH250073   1.592   6.355  14.994 -0.2656  0.6669 -0.5267
 9553TIP3    H150074   1.498   6.350  15.013 -0.1266  1.1290  0.3001
 9553TIP3    H250075   1.608   6.279  14.938 -0.9005 -0.1053  0.3024
 9554TIP3   OH250076   2.505   0.438  15.031 -0.1984  0.2217  0.0846
 9554TIP3    H150077   2.477   0.346  15.021 -0.4839 -0.0431  2.6128
 9554TIP3    H250078   2.552   0.457  14.950 -0.6847 -1.9519 -0.8026
 9555TIP3   OH250079   4.159   3.730  15.180  0.6185 -0.2119  0.2321
 9555TIP3    H150080   4.131   3.763  15.266 -0.5318 -2.5469  0.8301
 9555TIP3    H250081   4.163   3.635  15.191 -1.7715 -0.8272 -2.8816
 9556TIP3   OH250082   3.739   6.528  12.344 -0.2433  0.7467 -0.5757
 9556TIP3    H150083   3.700   6.586  12.409  0.3238  0.2111  0.2517
 9556TIP3    H250084   3.833   6.532  12.361 -0.2498 -1.1549  0.1642
 9557TIP3   OH250085   0.520   6.684  13.580 -0.3984  1.0225 -0.3084
 9557TIP3    H150086   0.463   6.718  13.510  0.1328 -2.3534 -2.6138
 9557TIP3    H250087   0.462   6.630  13.634 -0.3780  1.9593  0.6890
 9558TIP3   OH250088   0.303   1.537  10.504  0.7903 -0.9073  0.1449
 9558TIP3    H150089   0.281   1.608  10.565 -0.1692  0.0227 -1.2119
 9558TIP3    H250090   0.220   1.492  10.489  1.1164 -1.4421 -0.0861
 9559TIP3   OH250091   4.177   0.333   3.184 -0.5850 -0.2056 -0.0859
 9559TIP3    H150092   4.214   0.417   3.155 -0.1563 -0.6115 -0.7245
 9559TIP3    H250093   4.127   0.302   3.109  0.5417 -1.2744 -0.4106
 9560TIP3   OH250094   4.191   2.306   3.233 -0.1953 -0.6757 -0.1687
 9560TIP3    H150095   4.208   2.232   3.292  0.6905  0.0022  0.4466
 9560TIP3    H250096   4.270   2.311   3.180  0.0255  0.2452  0.2412
 9561TIP3   OH250097   2.578   1.536  13.744  0.5299  0.3094 -0.1347
 9561TIP3    H150098   2.512   1.594  13.707  0.9991  0.4585 -0.7598
 9561TIP3    H250099   2.661   1.567  13.706  0.9853  0.2505  0.7809
 9562TIP3   OH250100   0.030   6.665  13.955 -0.3045 -0.3544 -0.0197
 9562TIP3    H150101   0.081   6.678  14.035  0.2757  0.7286 -0.5472
 9562TIP3    H250102   0.044   6.745  13.904  0.0386 -1.3833 -1.6065
 9563TIP3   OH250103   4.717   2.199   5.323 -0.1791 -0.3005 -0.1400
 9563TIP3    H150104   4.681   2.110   5.328  0.0409 -0.4557 -0.9862
 9563TIP3    H250105   4.811   2.187   5.333 -0.2507 -0.0240  0.9256
 9564TIP3   OH250106   1.316   4.667  12.568  0.0087  0.5345  0.2331
 9564TIP3    H150107   1.237   4.611  12.569 -0.8746  1.7263 -0.4170
 9564TIP3    H250108   1.383   4.614  12.611 -1.3155 -0.2694  1.3963
 9565TIP3   OH250109   0.792   6.800  13.762  0.2328  0.0895  0.4517
 9565TIP3    H150110   0.728   6.801  13.691  0.0575  0.0735  0.6090
 9565TIP3    H250111   0.877   6.803  13.718  0.1082  1.8254  0.2662
 9566TIP3   OH250112   4.517   0.884  12.197  0.1931  0.0794 -0.0235
 9566TIP3    H150113   4.568   0.881  12.115  1.0226  0.0281  0.4859
 9566TIP3    H250114   4.583   0.890  12.266 -0.4815 -0.4413  0.6834
 9567TIP3   OH250115   5.444   3.544   0.139 -0.1110  0.2390  0.3458
 9567TIP3    H150116   5.485   3.614   0.089  1.0405  0.2104  1.2184
 9567TIP3    H250117   5.514   3.481   0.154 -0.5424  0.0305  1.5852
 9568TIP3   OH250118   4.876   5.241   3.258  0.0286 -0.1873  0.5971
 9568TIP3    H150119   4.927   5.293   3.195  1.9650 -0.5480  1.7981
 9568TIP3    H250120   4.833   5.175   3.204  1.1963 -0.1368 -0.4450
 9569TIP3   OH250121   3.723   6.418   4.869 -0.6380  0.7896 -0.4876
 9569TIP3    H150122   3.737   6.424   4.964 -0.8969  0.3432 -0.4174
 9569TIP3    H250123   3.724   6.324   4.851  2.5919  0.8540 -1.3980
 9570TIP3   OH250124   1.632   0.459  10.266 -0.0023  0.6064 -0.1469
 9570TIP3    H150125   1.684   0.520  10.318  1.7273 -1.2086  0.3700
 9570TIP3    H250126   1.684   0.378  10.264 -3.6694 -2.1540  2.2467
 9571TIP3   OH250127   5.300   7.140  14.649  0.6148  0.3407  0.1054
 9571TIP3    H150128   5.386   7.169  14.618  0.1499  2.0933  0.3932
 9571TIP3    H250129   5.261   7.097  14.573  1.8267 -0.7405  0.0515
 9572TIP3   OH250130   5.353   2.718   2.612  0.5386  0.1742 -0.0893
 9572TIP3    H150131   5.352   2.790   2.676 -0.7045  0.2582 -0.1657
 9572TIP3    H250132   5.437   2.727   2.567  0.4864  1.4808  0.0215
 9573TIP3   OH250133   3.062   6.618   1.575  0.0068  0.1371 -0.3190
 9573TIP3    H150134   2.974   6.626   1.538  0.1282 -1.7808 -1.1144
 9573TIP3    H250135   3.097   6.538   1.537  1.4539 -0.0691  1.3287
 9574TIP3   OH250136   0.583   6.317  13.179  0.1429 -0.0680  0.9834
 9574TIP3    H150137   0.511   6.365  13.138  1.2611  0.1531 -0.8095
 9574TIP3    H250138   0.607   6.370  13.255 -2.2332 -0.6944  2.2802
 9575TIP3   OH250139   2.713   6.151  14.050  0.0407 -0.2080  0.2823
 9575TIP3    H150140   2.767   6.154  14.128 -2.9821 -0.4352  2.5791
 9575TIP3    H250141   2.770   6.181  13.979  2.2961  2.2425  2.9223
 9576TIP3   OH250142   2.400   3.059  12.592 -0.1838 -0.2113 -0.3911
 9576TIP3    H150143   2.381   3.078  12.501  1.0741 -1.2180 -0.9005
 9576TIP3    H250144   2.485   3.100  12.608  0.0649 -0.8711  0.0229
 9577TIP3   OH250145   1.090   1.390  12.552 -0.5080 -0.2377 -0.1358
 9577TIP3    H150146   1.147   1.402  12.628 -0.5079  1.7551 -0.3756
 9577TIP3    H250147   1.063   1.299  12.556  0.4543 -0.4963  1.5736
 9578TIP3   OH250148   1.083   0.240  13.467  0.8938  0.5094  0.2985
 9578TIP3    H150149   1.176   0.240  13.489  1.2911  2.9599 -1.1277
 9578TIP3    H250150   1.078   0.198  13.381  0.5119 -0.5483  0.8146
 9579TIP3   OH250151   2.849   2.571   1.529  0.0470  1.0740  0.2180
 9579TIP3    H150152   2.763   2.609   1.544 -0.1340  0.1439  1.7064
 9579TIP3    H250153   2.858   2.504   1.596  0.6929 -0.9337 -1.7321
 9580TIP3   OH250154   1.906   1.855  15.144 -0.3017  0.3659 -0.1396
 9580TIP3    H150155   1.970   1.787  15.165 -1.9983 -1.3294 -0.2769
 9580TIP3    H250156   1.954   1.916  15.088  1.1958 -0.8534 -0.2461
 9581TIP3   OH250157   1.643   5.820   0.023 -0.0058  0.1782  0.0795
 9581TIP3    H150158   1.710   5.784  -0.035 -0.3556  2.0781 -1.6127
 9581TIP3    H250159   1.690   5.845   0.103  1.0122  0.1180 -0.4923
 9582TIP3   OH250160   3.543   0.101  12.850  0.2367 -0.4785  0.4914
 9582TIP3    H150161   3.466   0.048  12.870  0.4669 -0.7862  0.5733
 9582TIP3    H250162   3.510   0.172  12.795 -0.1811 -0.3635  0.8826
 9583TIP3   OH250163   4.823   1.462  13.982 -0.5540 -0.7036 -0.0736
 9583TIP3    H150164   4.763   1.472  14.056 -2.3979 -2.9611 -1.1579
 9583TIP3    H250165   4.909   1.453  14.023 -1.1880  0.4845  1.6416
 9584TIP3   OH250166   4.588   4.482  13.305 -0.0620  0.2916 -0.4697
 9584TIP3    H150167   4.652   4.462  13.236  0.1185  0.5064 -0.3668
 9584TIP3    H250168   4.639   4.481  13.386 -0.1709  0.5552 -0.3969
 9585TIP3   OH250169   1.216   4.583   0.630 -0.0550 -0.5944  0.3245
 9585TIP3    H150170   1.291   4.566   0.687  0.7956  0.1093 -0.5458
 9585TIP3    H250171   1.155   4.632   0.685  0.5743 -0.2727  0.7518
 9586TIP3   OH250172   1.358   4.296  15.021  0.2011  0.1864  0.4349
 9586TIP3    H150173   1.389   4.265  15.106  1.1110 -0.3128 -0.0716
 9586TIP3    H250174   1.404   4.379  15.006  2.8619 -1.4279 -1.1482
 9587TIP3   OH250175   4.916   0.178   0.574 -0.4545  0.0948 -0.1185
 9587TIP3    H150176   5.005   0.198   0.547 -0.8213  0.7343 -0.8978
 9587TIP3    H250177   4.876   0.263   0.592 -1.1318 -0.1347 -0.5000
 9588TIP3   OH250178   2.371   1.315  12.647 -0.4762  0.6896 -0.4643
 9588TIP3    H150179   2.412   1.279  12.726 -0.3127  1.2270 -0.2950
 9588TIP3    H250180   2.414   1.400  12.635 -1.0079  0.9269 -0.7188
 9589TIP3   OH250181   6.358   0.404  10.823 -1.1807 -0.4800  0.3569
 9589TIP3    H150182   6.300   0.328  10.823 -1.8651 -0.0164 -1.4086
 9589TIP3    H250183   6.446   0.367  10.815 -1.3256 -1.1374  1.5682
 9590TIP3   OH250184   3.630   1.448  12.073 -0.1797 -0.1377 -0.1144
 9590TIP3    H150185   3.679   1.525  12.045 -0.3295 -0.7968 -2.3178
 9590TIP3    H250186   3.696   1.391  12.113  0.3320  0.1901 -0.4903
 9591TIP3   OH250187   1.083   2.017  13.821 -0.1090 -0.5482  0.3965
 9591TIP3    H150188   1.065   2.077  13.748  0.3690 -0.2155  0.5507
 9591TIP3    H250189   1.056   2.066  13.899 -1.2186 -1.1393  0.4102
 9592TIP3   OH250190   3.797   6.930  14.518 -0.0521  0.5400 -0.6443
 9592TIP3    H150191   3.802   6.975  14.434 -1.1484  0.2038 -0.9019
 9592TIP3    H250192   3.789   6.837  14.495 -0.8351  0.4848 -0.1859
 9593TIP3   OH250193   3.119   1.749  13.504 -0.3194 -0.0842  1.0632
 9593TIP3    H150194   3.056   1.810  13.544 -1.5648 -0.8275  0.2911
 9593TIP3    H250195   3.114   1.671  13.559 -0.7834 -0.4805  0.4811
 9594TIP3   OH250196   1.675   0.421   6.199  0.0721  0.8671 -0.5209
 9594TIP3    H150197   1.588   0.396   6.229  0.4390 -0.3814 -0.4463
 9594TIP3    H250198   1.667   0.514   6.178 -1.0407  0.9866  0.3288
 9595TIP3   OH250199   5.213   6.654   0.991  0.0489  0.4291 -0.2879
 9595TIP3    H150200   5.146   6.692   0.935 -1.0227 -0.7297  0.1377
 9595TIP3    H250201   5.185   6.563   1.003  1.1810  0.1792  0.6998
 9596TIP3   OH250202   0.675   4.286  10.699 -0.0316 -0.1524  0.2144
 9596TIP3    H150203   0.679   4.381  10.685 -0.5967 -0.3781 -1.8791
 9596TIP3    H250204   0.625   4.276  10.781  1.4509  1.3498  1.3664
 9597TIP3   OH250205   4.831   5.436  10.405  0.0010 -0.4586  0.0771
 9597TIP3    H150206   4.834   5.349  10.365  0.0407 -0.5384  0.2557
 9597TIP3    H250207   4.879   5.427  10.487 -0.2982 -0.3508  0.2633
 9598TIP3   OH250208   0.080   5.694  14.223 -0.2020 -0.2032  0.7611
 9598TIP3    H150209   0.094   5.615  14.172  0.5668 -0.2095  0.9690
 9598TIP3    H250210   0.079   5.664  14.314 -0.3672 -0.0377  0.8150
 9599TIP3   OH250211   6.947   5.372  15.071  0.2508 -0.9409  0.3593
 9599TIP3    H150212   6.955   5.421  15.153 -1.8937  0.6974 -0.3144
 9599TIP3    H250213   6.902   5.291  15.097 -0.9350 -0.1859  0.7784
 9600TIP3   OH250214   6.354   4.171   5.155  0.3855 -0.0363  0.6384
 9600TIP3    H150215   6.371   4.219   5.237  1.3224 -1.2880  1.1961
 9600TIP3    H250216   6.259   4.179   5.143  0.4534  1.6104  0.9083
 9601TIP3   OH250217   1.962   6.129   4.818 -0.1406 -0.0266 -0.6015
 9601TIP3    H150218   1.925   6.212   4.789 -0.0140  0.0792 -0.4634
 9601TIP3    H250219   1.924   6.114   4.904 -1.9620 -1.2589 -1.5603
 9602TIP3   OH250220   6.070   2.858   5.505 -0.2866  0.0895  0.1129
 9602TIP3    H150221   6.012   2.782   5.500 -0.1648 -0.1049  1.3409
 9602TIP3    H250222   6.154   2.822   5.533  0.5282  0.3376 -1.8803
 9603TIP3   OH250223   4.018   1.118   3.562  0.2003 -0.0085 -0.1109
 9603TIP3    H150224   4.087   1.085   3.620 -0.6017 -0.0170  0.8711
 9603TIP3    H250225   4.021   1.061   3.486  1.4231  0.1357 -0.1880
 9604TIP3   OH250226   6.220   3.535  11.260 -0.3090  0.6758 -0.2289
 9604TIP3    H150227   6.300   3.556  11.307 -0.0185 -0.9848  0.0961
 9604TIP3    H250228   6.157   3.600  11.289  0.5885  1.2696  0.4479
 9605TIP3   OH250229   5.330   4.428  10.456  0.2419 -0.4285 -0.3805
 9605TIP3    H150230   5.287   4.452  10.374  0.9878  1.7106 -0.2213
 9605TIP3    H250231   5.352   4.512  10.497 -1.3095 -1.3580  2.7037
 9606TIP3   OH250232   6.055   5.484  13.838  0.1077 -0.0405  0.0315
 9606TIP3    H150233   6.078   5.441  13.756  1.1392  0.3717  0.0872
 9606TIP3    H250234   6.124   5.549  13.851 -0.0518 -0.0786  1.2049
 9607TIP3   OH250235   5.666   2.771   0.603  0.4097  0.4776  0.1250
 9607TIP3    H150236   5.732   2.742   0.540 -1.3261 -3.0678 -0.2866
 9607TIP3    H250237   5.712   2.770   0.687  0.9648 -1.9668 -0.1375
 9608TIP3   OH250238   3.524   2.981  12.584  0.1246  1.1053 -0.1444
 9608TIP3    H150239   3.528   2.944  12.495  0.1963 -1.8573  0.9709
 9608TIP3    H250240   3.460   2.926  12.629  4.4454 -1.7862  3.3360
 9609TIP3   OH250241   3.638   3.135  15.097  0.1895 -0.5759  0.1794
 9609TIP3    H150242   3.729   3.164  15.087 -0.3107  1.1778  0.3855
 9609TIP3    H250243   3.637   3.047  15.059  1.5381  0.1456 -1.7164
 9610TIP3   OH250244   2.291   0.231   2.090 -0.0343 -0.1210 -0.0982
 9610TIP3    H150245   2.253   0.302   2.142  1.4772  0.3930  0.3471
 9610TIP3    H250246   2.327   0.170   2.154 -2.3950 -2.0179 -0.4134
 9611TIP3   OH250247   6.212   2.188  15.129  0.2301  0.2970 -0.2962
 9611TIP3    H150248   6.199   2.106  15.080  0.0664  1.2291 -1.8829
 9611TIP3    H250249   6.129   2.201  15.175  0.9047 -1.3622  1.4882
 9612TIP3   OH250250   6.619   1.474  13.972  0.3929  0.4032 -0.1044
 9612TIP3    H150251   6.686   1.428  14.024  0.0300  1.3587  1.2737
 9612TIP3    H250252   6.537   1.452  14.015 -0.0222  0.5011 -0.8449
 9613TIP3   OH250253   5.800   5.099  13.865  0.1374  0.1262  0.4494
 9613TIP3    H150254   5.833   5.175  13.913 -0.4556  0.6683  0.0235
 9613TIP3    H250255   5.869   5.078  13.803 -0.0582  0.8985 -0.0539
 9614TIP3   OH250256   4.876   6.152  11.862  0.0476  0.6983  0.2151
 9614TIP3    H150257   4.916   6.169  11.948  0.4067  0.8582  0.0176
 9614TIP3    H250258   4.937   6.093  11.818 -1.7060 -2.2100  1.3363
 9615TIP3   OH250259   6.395   1.245  14.022 -0.0282 -0.1864  0.2563
 9615TIP3    H150260   6.335   1.283  14.086 -0.4945 -0.3900 -0.0541
 9615TIP3    H250261   6.353   1.261  13.938  1.0409  0.9426 -0.0964
 9616TIP3   OH250262   4.069   6.953  13.658  0.6153 -0.0128 -0.2066
 9616TIP3    H150263   4.123   6.874  13.652  0.8526  0.0453  0.8565
 9616TIP3    H250264   3.984   6.921  13.686 -0.1443 -0.1779 -2.5053
 9617TIP3   OH250265   4.640   6.158   3.797  0.1605 -0.2726  0.6105
 9617TIP3    H150266   4.577   6.092   3.768 -0.5709  0.0197  1.4848
 9617TIP3    H250267   4.681   6.189   3.717  0.9367 -2.1853  0.2052
 9618TIP3   OH250268   1.131   6.101   5.311  0.2993  0.2832 -0.3577
 9618TIP3    H150269   1.145   6.138   5.399 -0.9874  0.7017 -0.3118
 9618TIP3    H250270   1.178   6.161   5.253 -1.9283  2.2093 -0.3024
 9619TIP3   OH250271   3.268   2.666   0.381  0.5318  0.1107 -0.5393
 9619TIP3    H150272   3.302   2.577   0.390  2.8151  0.8581 -0.9099
 9619TIP3    H250273   3.340   2.715   0.340 -0.9415  1.9570 -1.0814
 9620TIP3   OH250274   3.255   6.710  12.991 -0.4030  0.3199  0.0874
 9620TIP3    H150275   3.348   6.726  13.005 -0.6033  0.4823  1.3308
 9620TIP3    H250276   3.250   6.618  12.967 -0.0658 -0.1685  1.7627
 9621TIP3   OH250277   4.291   6.900  12.206  0.4794 -0.4195  0.8210
 9621TIP3    H150278   4.341   6.970  12.249 -0.4750  0.5744  0.3931
 9621TIP3    H250279   4.316   6.906  12.114 -0.0361 -0.2298  0.6856
 9622TIP3   OH250280   6.319   4.399   9.756 -0.5296  0.4817  0.6661
 9622TIP3    H150281   6.366   4.321   9.727 -1.7201 -0.4657  1.1852
 9622TIP3    H250282   6.384   4.469   9.755  0.5420 -0.5036  0.1106
 9623TIP3   OH250283   6.758   6.374  12.882  0.4666  0.2499  0.4088
 9623TIP3    H150284   6.765   6.468  12.893 -0.5083  0.6568 -1.7312
 9623TIP3    H250285   6.847   6.340  12.896  0.7256  1.3944  1.6635
 9624TIP3   OH250286   3.458   4.314   4.242 -0.1073  0.3718 -0.1600
 9624TIP3    H150287   3.536   4.284   4.288 -1.3203 -1.4719  0.8204
 9624TIP3    H250288   3.395   4.335   4.311 -0.9861  0.3922 -0.9340
 9625TIP3   OH250289   1.524   0.892   2.046  0.4016  0.2965  0.5223
 9625TIP3    H150290   1.551   0.917   1.958 -0.6301 -0.1716  0.0565
 9625TIP3    H250291   1.476   0.811   2.034 -0.9806  0.9570  1.3319
 9626TIP3   OH250292   2.276   1.369   0.588 -0.2683  0.3012 -0.7221
 9626TIP3    H150293   2.277   1.352   0.682 -1.8252 -1.0960 -0.9046
 9626TIP3    H250294   2.362   1.339   0.557 -0.2925 -0.6018  0.0521
 9627TIP3   OH250295   3.993   2.399  14.435  0.5590 -0.4163  0.4940
 9627TIP3    H150296   3.981   2.450  14.355  0.8688  0.4751  1.0025
 9627TIP3    H250297   4.066   2.340  14.415 -0.5585 -1.5375 -0.5026
 9628TIP3   OH250298   1.159   5.884  10.749 -0.1517 -0.0511 -0.6427
 9628TIP3    H150299   1.185   5.906  10.659  1.0337  0.6536 -0.1531
 9628TIP3    H250300   1.234   5.836  10.784 -0.7735 -0.6761 -0.1576
 9629TIP3   OH250301   0.456   1.112   4.226  0.2749 -0.1481  0.1655
 9629TIP3    H150302   0.365   1.082   4.234 -1.0333  3.2936 -0.1360
 9629TIP3    H250303   0.474   1.110   4.133  0.4981 -0.7192  0.2156
 9630TIP3   OH250304   4.742   6.040  11.279 -0.3927 -0.3833  0.4214
 9630TIP3    H150305   4.658   6.045  11.233 -0.1883  0.7517  0.1170
 9630TIP3    H250306   4.807   6.058  11.211 -0.0230  0.4138  0.9672
 9631TIP3   OH250307   0.718   6.512   1.697  0.0495 -0.0512  0.1041
 9631TIP3    H150308   0.656   6.566   1.745  1.1710  2.0904 -0.7030
 9631TIP3    H250309   0.802   6.527   1.741  0.4990 -0.6563 -0.5275
 9632TIP3   OH250310   2.337   1.857   3.423  0.2271 -0.3305 -0.8193
 9632TIP3    H150311   2.356   1.852   3.329  0.1466  1.3891 -0.9534
 9632TIP3    H250312   2.366   1.945   3.449  2.4572 -1.5416  1.2755
 9633TIP3   OH250313   7.087   2.880   1.932  0.1201  0.6048 -0.5073
 9633TIP3    H150314   7.069   2.789   1.955  0.3039  0.6033 -0.3664
 9633TIP3    H250315   7.015   2.905   1.873 -0.0150  0.4174 -0.4217
 9634TIP3   OH250316   5.928   4.163   4.882  0.4272 -0.7890 -0.5293
 9634TIP3    H150317   5.860   4.175   4.817 -0.0711  2.1007  0.3655
 9634TIP3    H250318   5.891   4.101   4.945 -0.5858 -0.7604 -1.0808
 9635TIP3   OH250319   1.844   5.085  11.788 -0.7744 -0.0928  0.3542
 9635TIP3    H150320   1.932   5.059  11.815 -0.9173  0.4262  1.3721
 9635TIP3    H250321   1.859   5.154  11.723 -0.4173 -1.9005 -1.6190
 9636TIP3   OH250322   5.508   5.656  15.079  0.0562 -0.0607  0.1084
 9636TIP3    H150323   5.462   5.603  15.144 -1.5678  1.2855  0.1035
 9636TIP3    H250324   5.441   5.712  15.041  1.4830  1.0961 -0.8091
 9637TIP3   OH250325   1.212   3.394  11.734 -0.0728 -0.0337 -0.3342
 9637TIP3    H150326   1.265   3.384  11.655 -0.7969  0.8927 -0.9571
 9637TIP3    H250327   1.167   3.310  11.743 -1.7009  0.5418 -2.2277
 9638TIP3   OH250328   2.267   4.601  13.030 -0.8157 -0.1280  0.1191
 9638TIP3    H150329   2.202   4.584  13.098 -0.0464  0.0665  0.9169
 9638TIP3    H250330   2.272   4.696  13.025  0.2964 -0.1259  0.9474
 9639TIP3   OH250331   0.730   5.725   1.324 -0.5471 -0.0754  0.0902
 9639TIP3    H150332   0.798   5.788   1.302 -0.9358 -0.0014 -0.9590
 9639TIP3    H250333   0.664   5.776   1.371 -1.5200  0.6573 -1.9493
 9640TIP3   OH250334   5.231   0.087   1.842  0.4546 -0.9124  0.1385
 9640TIP3    H150335   5.290   0.099   1.916 -1.2999 -2.4831  1.8882
 9640TIP3    H250336   5.286   0.044   1.775  2.1668  0.9203  0.2828
 9641TIP3   OH250337   6.703   7.109  15.133  0.0528  0.4154 -0.0890
 9641TIP3    H150338   6.715   7.124  15.039  4.3365 -1.5959 -0.1305
 9641TIP3    H250339   6.630   7.048  15.139 -0.5004  0.8138 -2.0522
 9642TIP3   OH250340   1.176   6.307   1.882 -0.4633  0.0109  0.6651
 9642TIP3    H150341   1.196   6.304   1.788 -0.5562  2.0009  0.5452
 9642TIP3    H250342   1.107   6.242   1.894  0.3417 -1.0865 -0.4294
 9643TIP3   OH250343   4.940   0.569   0.007 -0.2782  0.6217 -0.1796
 9643TIP3    H150344   5.030   0.567   0.038  0.5377  2.5683 -2.0944
 9643TIP3    H250345   4.928   0.487  -0.040  0.0225 -0.2413  1.2222
 9644TIP3   OH250346   5.099   2.186  13.284  0.1766  0.1207 -0.4976
 9644TIP3    H150347   5.101   2.281  13.267 -0.0716  0.1677 -0.2797
 9644TIP3    H250348   5.070   2.148  13.201 -0.3517  0.2913 -0.3988
 9645TIP3   OH250349   0.702   1.054  12.577  0.2939  0.1058 -0.0916
 9645TIP3    H150350   0.717   1.047  12.672  0.4725  1.0638 -0.0391
 9645TIP3    H250351   0.607   1.060  12.568  0.2327 -0.6803 -0.0306
 9646TIP3   OH250352   6.468   3.051  12.523  0.3542  0.4468  0.0665
 9646TIP3    H150353   6.465   3.142  12.494 -2.8651  1.0385  1.6991
 9646TIP3    H250354   6.443   3.000  12.446  0.1643  1.1507 -0.3491
 9647TIP3   OH250355   4.301   5.174  14.604 -0.6899  0.0388  0.2977
 9647TIP3    H150356   4.297   5.211  14.693  0.7709 -0.3530  0.5499
 9647TIP3    H250357   4.349   5.240  14.553 -0.8871 -0.0708 -0.0325
 9648TIP3   OH250358   4.915   1.309  13.413 -0.0313  0.1893 -0.0431
 9648TIP3    H150359   4.939   1.343  13.500 -0.4347 -1.6649  0.8423
 9648TIP3    H250360   4.958   1.224  13.408 -1.7692 -0.6951 -0.7634
 9649TIP3   OH250361   1.085   4.207  15.220  0.4396  0.4636 -0.5369
 9649TIP3    H150362   1.041   4.260  15.154 -1.6358 -2.6597 -1.8799
 9649TIP3    H250363   1.146   4.153  15.170  0.1242 -0.7080  0.3135
 9650TIP3   OH250364   5.445   3.889   3.405  0.2036 -0.0982 -0.4380
 9650TIP3    H150365   5.372   3.831   3.426  0.6157 -0.3658  0.2969
 9650TIP3    H250366   5.497   3.839   3.343  0.8382 -0.7621  0.5867
 9651TIP3   OH250367   4.045   3.772   0.687  0.3707  0.6416  0.3272
 9651TIP3    H150368   4.083   3.693   0.727  0.3275  0.8469  0.7837
 9651TIP3    H250369   3.995   3.739   0.612  1.2973  0.3528 -0.1762
 9652TIP3   OH250370   2.180   6.735  11.916  0.1819 -0.5342  0.2708
 9652TIP3    H150371   2.222   6.714  11.999  1.8402 -0.9076 -0.6297
 9652TIP3    H250372   2.184   6.654  11.866 -0.5388 -0.2300 -0.2947
 9653TIP3   OH250373   6.652   5.821  10.465 -0.4682  0.3282  0.1637
 9653TIP3    H150374   6.636   5.905  10.422  0.8804  1.8444  2.4219
 9653TIP3    H250375   6.747   5.814  10.472 -0.5473  0.6115  3.4822
 9654TIP3   OH250376   2.001   3.545   1.762 -0.0197  0.1211 -0.0303
 9654TIP3    H150377   2.018   3.552   1.668 -1.3248 -0.1476 -0.3080
 9654TIP3    H250378   1.925   3.487   1.769 -0.2885  0.5752  1.1579
 9655TIP3   OH250379   7.042   1.414  11.892  0.2594  0.1867  0.4220
 9655TIP3    H150380   7.066   1.348  11.827 -0.8286  1.2741 -1.1596
 9655TIP3    H250381   7.123   1.432  11.939  0.7064 -1.8396  0.5208
 9656TIP3   OH250382   3.404   6.209  12.821  0.2045 -0.0593 -0.0107
 9656TIP3    H150383   3.489   6.206  12.776 -1.2327 -1.9640 -2.8845
 9656TIP3    H250384   3.413   6.146  12.893  1.5634  0.6951  0.5226
 9657TIP3   OH250385   3.258   6.221  12.015 -0.2698 -0.4953 -0.1545
 9657TIP3    H150386   3.349   6.195  12.025 -0.3725 -0.8149 -0.0273
 9657TIP3    H250387   3.216   6.147  11.972 -0.4394 -0.2939 -0.3395
 9658TIP3   OH250388   1.237   1.754   1.440 -0.1665 -0.3126  0.4539
 9658TIP3    H150389   1.214   1.662   1.441 -0.3261 -0.2757  1.6626
 9658TIP3    H250390   1.285   1.768   1.522  1.5365  0.2658 -0.5704
 9659TIP3   OH250391   6.034   5.352   1.302  0.1545  0.0305  0.2115
 9659TIP3    H150392   6.066   5.283   1.244 -0.9929  1.0153 -1.7224
 9659TIP3    H250393   6.113   5.396   1.334  0.8365 -0.9247 -0.1298
 9660TIP3   OH250394   3.015   6.743   0.236  0.0833  0.3705  0.5934
 9660TIP3    H150395   3.022   6.660   0.282  1.0703 -0.2505 -0.6125
 9660TIP3    H250396   2.946   6.729   0.171 -0.1325  0.6805  0.7542
 9661TIP3   OH250397   1.773   6.198   2.120  0.3987 -0.2369 -0.5825
 9661TIP3    H150398   1.764   6.167   2.030  0.9291  0.1764 -0.7866
 9661TIP3    H250399   1.768   6.293   2.113  2.7319 -0.0413 -0.5039
 9662TIP3   OH250400   1.158   6.808   3.495 -0.3072  0.2899  0.4293
 9662TIP3    H150401   1.105   6.741   3.451  0.5149 -0.8139  1.0659
 9662TIP3    H250402   1.103   6.886   3.495 -0.8023  0.0021 -1.4890
 9663TIP3   OH250403   0.992   5.461  12.780 -0.3991 -0.4211 -0.6582
 9663TIP3    H150404   0.970   5.439  12.690  1.2015 -0.1569 -1.1448
 9663TIP3    H250405   0.977   5.381  12.829 -3.7529  0.0742 -0.6066
 9664TIP3   OH250406   5.392   5.386   3.742 -0.1206 -0.3629 -0.1319
 9664TIP3    H150407   5.474   5.353   3.779  0.4463  2.2622  1.1629
 9664TIP3    H250408   5.324   5.353   3.801  0.2098 -0.8959 -0.0439
 9665TIP3   OH250409   4.356   0.128  14.099  0.0660  0.1185  0.2357
 9665TIP3    H150410   4.318   0.041  14.089 -1.1659  0.7291 -0.7173
 9665TIP3    H250411   4.450   0.115  14.087 -0.0698 -1.1156  0.4079
 9666TIP3   OH250412   3.112   0.599  14.838  0.1366 -0.5490  0.2323
 9666TIP3    H150413   3.058   0.617  14.761 -0.7114 -1.3662  0.6268
 9666TIP3    H250414   3.059   0.630  14.912 -0.6360 -3.0225  0.7868
 9667TIP3   OH250415   4.679   3.250   3.397  0.2241 -0.1798 -0.7418
 9667TIP3    H150416   4.696   3.159   3.422 -1.4091  0.2126  2.3629
 9667TIP3    H250417   4.761   3.296   3.415  0.1706 -0.5865  0.7163
 9668TIP3   OH250418   6.605   0.102   1.645 -0.1984 -0.3001  0.2067
 9668TIP3    H150419   6.587   0.010   1.624 -0.4625 -0.4481  1.0403
 9668TIP3    H250420   6.599   0.106   1.741 -1.6520  0.8862  0.1051
 9669TIP3   OH250421   5.613   3.051   3.440 -0.4925 -0.3418 -0.1012
 9669TIP3    H150422   5.532   3.009   3.412 -1.3979  2.5991 -2.5290
 9669TIP3    H250423   5.676   3.028   3.372  0.2122 -1.0586  0.7672
 9670TIP3   OH250424   4.812   0.249   2.281 -0.6080 -0.4996  0.1509
 9670TIP3    H150425   4.800   0.163   2.241 -1.1765  0.2119 -1.2942
 9670TIP3    H250426   4.885   0.288   2.234  0.7175 -0.7569  1.8772
 9671TIP3   OH250427   5.738   4.481  14.706  0.1527 -0.4557 -0.0228
 9671TIP3    H150428   5.656   4.441  14.677 -0.0645 -0.2437  0.2977
 9671TIP3    H250429   5.805   4.416  14.686 -0.2977 -1.3746  1.3192
 9672TIP3   OH250430   3.541   3.487   1.373 -0.1238 -0.0961 -0.0657
 9672TIP3    H150431   3.632   3.496   1.345  0.1548 -2.0109  0.1235
 9672TIP3    H250432   3.530   3.558   1.438  1.1334  0.3357 -0.2836
 9673TIP3   OH250433   2.817   2.245  10.208  0.1809 -0.0033  0.2017
 9673TIP3    H150434   2.848   2.325  10.250 -0.2340  0.1680  0.1901
 9673TIP3    H250435   2.728   2.233  10.244 -0.3007  0.3160 -0.8492
 9674TIP3   OH250436   2.048   6.690   1.129  0.2394  0.1531 -0.7930
 9674TIP3    H150437   1.975   6.711   1.188 -1.2238 -0.6803 -2.2188
 9674TIP3    H250438   2.053   6.594   1.132  0.9199  0.1768 -1.1427
 9675TIP3   OH250439   5.244   3.654   1.685  0.3083 -0.5936 -0.6181
 9675TIP3    H150440   5.323   3.682   1.731 -0.5837  1.5814 -0.2479
 9675TIP3    H250441   5.197   3.600   1.748  0.4180  0.0620  0.0414
 9676TIP3   OH250442   2.867   5.175   4.147 -0.4583  0.4378  0.2531
 9676TIP3    H150443   2.938   5.237   4.162  0.5848 -0.5635 -0.3840
 9676TIP3    H250444   2.900   5.091   4.178 -1.8329  0.1616  1.0736
 9677TIP3   OH250445   2.322   3.890   3.940 -0.0294  0.4127  0.2417
 9677TIP3    H150446   2.408   3.929   3.956  0.7855  0.0595 -2.7015
 9677TIP3    H250447   2.339   3.795   3.940 -0.4816  0.3307 -0.0341
 9678TIP3   OH250448   5.655   3.276  14.063  0.2222  0.1081 -0.3027
 9678TIP3    H150449   5.653   3.218  14.139 -0.7018  0.6692  0.1100
 9678TIP3    H250450   5.744   3.311  14.062  0.0051  0.7697  1.0384
 9679TIP3   OH250451   1.463   4.619   3.268 -0.3278 -0.1086  0.2547
 9679TIP3    H150452   1.518   4.567   3.327  0.2199 -0.6026 -0.6793
 9679TIP3    H250453   1.391   4.561   3.244 -0.6794  0.1727  0.6133
 9680TIP3   OH250454   3.662   3.961   9.856  0.0816  0.3085  0.3775
 9680TIP3    H150455   3.677   4.025   9.925  0.5107 -0.2175  0.7790
 9680TIP3    H250456   3.601   3.898   9.895  1.1796 -0.6009  0.6820
 9681TIP3   OH250457   1.377   6.879  15.025 -0.0880  0.2283 -0.4854
 9681TIP3    H150458   1.375   6.800  15.079  0.6295 -0.2357 -1.1050
 9681TIP3    H250459   1.362   6.951  15.086 -1.0012 -0.3962  0.0555
 9682TIP3   OH250460   3.281   1.558  11.747 -0.5895  0.3906 -0.5617
 9682TIP3    H150461   3.216   1.578  11.679 -1.5240  0.7143  0.3910
 9682TIP3    H250462   3.358   1.608  11.722 -1.4218  1.7283 -0.6049
 9683TIP3   OH250463   6.249   2.849   2.612 -0.4044 -0.0864 -0.1580
 9683TIP3    H150464   6.299   2.885   2.539 -0.1517 -0.5730 -0.2264
 9683TIP3    H250465   6.193   2.782   2.571  0.8905 -1.5077  0.3033
 9684TIP3   OH250466   1.242   0.733   0.446 -0.1907 -0.1644 -0.5686
 9684TIP3    H150467   1.200   0.658   0.403  0.4968 -0.3961 -0.8535
 9684TIP3    H250468   1.169   0.787   0.477 -0.6938 -0.7859 -0.6470
 9685TIP3   OH250469   0.390   1.980   3.039 -0.1386 -0.5012 -0.1074
 9685TIP3    H150470   0.438   2.034   3.102 -1.7301  1.6362 -0.6369
 9685TIP3    H250471   0.309   1.957   3.084  0.0258 -1.5551 -0.3151
 9686TIP3   OH250472   1.073   2.322  14.258  0.0142  0.3735  0.2640
 9686TIP3    H150473   1.114   2.291  14.339  0.1385  0.2651  0.1598
 9686TIP3    H250474   0.989   2.357  14.286  0.3690  1.0256  0.5427
 9687TIP3   OH250475   0.413   0.834   3.097 -0.6136  0.3693 -0.0378
 9687TIP3    H150476   0.472   0.872   3.162 -2.9731  1.2128  1.7932
 9687TIP3    H250477   0.350   0.904   3.079 -1.5543 -0.7474 -1.2490
 9688TIP3   OH250478   2.875   4.839   2.209 -0.4372  0.0589  0.0621
 9688TIP3    H150479   2.958   4.883   2.196  0.1849 -1.4019 -1.2832
 9688TIP3    H250480   2.828   4.894   2.272  0.7456  1.9457 -0.6168
 9689TIP3   OH250481   4.719   3.592   1.044  0.0932 -0.3210  0.4283
 9689TIP3    H150482   4.781   3.654   1.006  1.3596 -2.7330 -1.7823
 9689TIP3    H250483   4.771   3.538   1.104 -0.3765 -0.8352  0.3908
 9690TIP3   OH250484   4.508   6.728   0.296  0.1326  0.6839  0.1042
 9690TIP3    H150485   4.414   6.745   0.302  0.0887  0.7742 -0.8301
 9690TIP3    H250486   4.523   6.659   0.361 -0.2464  1.9350  1.5724
 9691TIP3   OH250487   0.637   2.844   3.704 -0.4411  0.0322 -0.3001
 9691TIP3    H150488   0.677   2.860   3.789  1.3875  0.4288 -1.1644
 9691TIP3    H250489   0.712   2.840   3.644 -1.6789 -0.2054 -1.8838
 9692TIP3   OH250490   4.616   3.275   1.106 -0.5081 -0.4217 -0.4576
 9692TIP3    H150491   4.620   3.216   1.181  0.0587  1.0788  0.7309
 9692TIP3    H250492   4.694   3.330   1.115 -0.8813  0.3338 -1.6891
 9693TIP3   OH250493   4.405   4.346  13.886  0.0548 -0.4478  0.1143
 9693TIP3    H150494   4.385   4.320  13.796  0.9916  0.8582 -0.5052
 9693TIP3    H250495   4.499   4.327  13.896  0.5756  1.7440 -0.0756
 9694TIP3   OH250496   6.814   2.236  13.267 -0.1436 -0.6346  0.1037
 9694TIP3    H150497   6.903   2.251  13.299 -0.2229 -0.2682  0.1521
 9694TIP3    H250498   6.757   2.270  13.335 -0.3283 -1.1549  0.2136
 9695TIP3   OH250499   2.986   2.369   5.202  0.6955 -0.1669 -0.5545
 9695TIP3    H150500   3.068   2.360   5.250  0.5556 -0.8591 -0.4380
 9695TIP3    H250501   2.927   2.304   5.241  0.7350 -1.0975 -1.9696
 9696TIP3   OH250502   0.284   2.899   2.417 -0.0624  0.2866  0.2845
 9696TIP3    H150503   0.234   2.862   2.489 -0.4804  1.3776  0.5752
 9696TIP3    H250504   0.219   2.918   2.349  0.0015  1.2339  0.4655
 9697TIP3   OH250505   7.055   5.717  14.054 -0.3351 -0.5846 -0.7311
 9697TIP3    H150506   7.124   5.701  14.119 -0.1894 -0.5715 -0.8803
 9697TIP3    H250507   7.103   5.744  13.975 -0.5027 -0.7233 -0.8803
 9698TIP3   OH250508   2.158   7.128  11.358  0.0564 -0.1854 -0.1769
 9698TIP3    H150509   2.161   7.038  11.391  0.8984  0.2814  1.0879
 9698TIP3    H250510   2.095   7.172  11.415  2.1280  0.8405  1.4348
 9699TIP3   OH250511   2.484   0.991   0.135  0.7143  0.3390 -0.0569
 9699TIP3    H150512   2.389   0.990   0.122  0.8899  0.2934 -1.5213
 9699TIP3    H250513   2.496   0.962   0.226 -0.5499 -2.9381 -0.7821
 9700TIP3   OH250514   3.654   4.545  10.293 -0.5326  0.5139 -0.4585
 9700TIP3    H150515   3.613   4.465  10.261  0.8423  0.6883 -2.9339
 9700TIP3    H250516   3.583   4.608  10.301 -1.4002 -0.5045  0.0579
 9701TIP3   OH250517   6.796   2.213   9.388  0.4314  0.1310  0.0673
 9701TIP3    H150518   6.739   2.257   9.325  1.4685  1.1650 -0.1546
 9701TIP3    H250519   6.871   2.183   9.337  0.6586 -0.1952  0.5814
 9702TIP3   OH250520   0.329   4.250   1.941 -0.3679 -0.4162 -0.2004
 9702TIP3    H150521   0.258   4.309   1.965 -1.4474 -1.6596 -0.2384
 9702TIP3    H250522   0.285   4.173   1.905  0.9615 -1.7414  0.9218
 9703TIP3   OH250523   5.174   1.188   2.009  0.3551  0.0395  0.0830
 9703TIP3    H150524   5.172   1.194   1.914 -1.4559 -0.0260  0.0847
 9703TIP3    H250525   5.258   1.147   2.029  0.1668 -1.2225 -1.5579
 9704TIP3   OH250526   2.054   6.528  14.702 -0.4178 -0.1554 -0.4095
 9704TIP3    H150527   1.975   6.567  14.740 -0.4950  0.2980 -1.0194
 9704TIP3    H250528   2.029   6.506  14.612  0.4716  1.0786 -0.9958
 9705TIP3   OH250529   0.698   0.471  14.542 -0.7517 -0.5460 -0.4412
 9705TIP3    H150530   0.723   0.502  14.455 -0.5842 -0.0958 -0.2354
 9705TIP3    H250531   0.758   0.399  14.560 -2.5282 -2.4978 -1.8354
 9706TIP3   OH250532   2.998   3.117  13.622  0.4149 -0.4758 -0.1846
 9706TIP3    H150533   2.946   3.138  13.544 -3.1074 -1.2766  1.7696
 9706TIP3    H250534   2.983   3.190  13.682  1.4691 -0.8062  0.5071
 9707TIP3   OH250535   2.425   4.703  10.783  0.3045  0.0242 -0.0363
 9707TIP3    H150536   2.458   4.684  10.695  1.0196 -0.1598  0.2622
 9707TIP3    H250537   2.330   4.695  10.776  0.3261  0.3767 -0.8803
 9708TIP3   OH250538   4.965   1.610  11.685 -0.0379  0.4985 -0.4703
 9708TIP3    H150539   4.921   1.672  11.743  0.0011 -0.9365  1.1938
 9708TIP3    H250540   5.058   1.626  11.698  0.2481 -2.8073  3.6784
 9709TIP3   OH250541   6.673   2.661   0.792  0.3381 -0.1731  0.0157
 9709TIP3    H150542   6.601   2.698   0.742 -0.5594 -1.5993  0.1798
 9709TIP3    H250543   6.672   2.568   0.769  1.3218 -0.4385  0.9873
 9710TIP3   OH250544   4.764   0.745  13.746 -0.3009  0.4657 -0.1036
 9710TIP3    H150545   4.739   0.783  13.829 -1.0527  1.4035 -0.7413
 9710TIP3    H250546   4.693   0.685  13.724  0.1915 -0.2493  0.2091
 9711TIP3   OH250547   0.873   4.555  13.456  0.0323  0.5518 -0.6330
 9711TIP3    H150548   0.876   4.647  13.482  1.7525 -0.1199  1.9395
 9711TIP3    H250549   0.786   4.543  13.420  0.0696  3.3646 -1.9241
 9712TIP3   OH250550   2.672   3.186  14.855 -0.0271 -0.1889 -0.1671
 9712TIP3    H150551   2.723   3.137  14.920 -0.6946 -0.3740  0.2216
 9712TIP3    H250552   2.654   3.270  14.897  1.0513  0.3792 -0.8043
 9713TIP3   OH250553   1.478   1.760   1.058  0.6472 -0.2781  0.3667
 9713TIP3    H150554   1.545   1.784   1.122  0.2576  1.4298  0.1913
 9713TIP3    H250555   1.398   1.749   1.109  0.1200  2.0162  0.1499
 9714TIP3   OH250556   1.436   5.133   2.252 -0.2518  0.2933  1.1203
 9714TIP3    H150557   1.498   5.115   2.181 -2.9396  1.2850 -1.6857
 9714TIP3    H250558   1.476   5.092   2.329  3.7778  0.7691 -0.4619
 9715TIP3   OH250559   7.147   6.075  14.077  0.8684  0.8485 -1.0512
 9715TIP3    H150560   7.207   6.147  14.059  1.7213  0.5705  0.5495
 9715TIP3    H250561   7.177   6.037  14.159 -0.7525 -0.1020 -0.8399
 9716TIP3   OH250562   5.819   6.665   1.760 -0.0304 -0.1432  0.0316
 9716TIP3    H150563   5.858   6.579   1.746  1.3589  0.2257  1.3008
 9716TIP3    H250564   5.871   6.724   1.705 -0.7143 -0.0371 -0.5185
 9717TIP3   OH250565   6.490   6.504   0.623 -0.1541  0.3942  0.1134
 9717TIP3    H150566   6.520   6.533   0.537 -1.3543 -1.5607 -1.0403
 9717TIP3    H250567   6.516   6.574   0.683  2.2636  1.0164 -1.5457
 9718TIP3   OH250568   1.762   4.326  15.106  0.2825 -0.0675 -0.2339
 9718TIP3    H150569   1.793   4.270  15.036  0.1329  0.1932 -0.5115
 9718TIP3    H250570   1.699   4.385  15.064 -0.3598 -0.3857  0.2532
 9719TIP3   OH250571   6.818   1.714  15.213 -0.0201 -0.2751 -0.2266
 9719TIP3    H150572   6.796   1.623  15.195 -2.2894 -0.1773  1.5323
 9719TIP3    H250573   6.876   1.710  15.289  2.5302 -0.2955 -2.0312
 9720TIP3   OH250574   4.669   0.437   1.074 -0.1981  0.1395 -0.2482
 9720TIP3    H150575   4.726   0.422   0.999 -0.6723 -2.2242 -0.2176
 9720TIP3    H250576   4.726   0.473   1.141  1.1826 -1.6412 -0.3943
 9721TIP3   OH250577   5.482   6.711   4.016  0.6435 -0.1939 -0.3912
 9721TIP3    H150578   5.572   6.700   3.986  1.3814  4.1349 -0.5109
 9721TIP3    H250579   5.430   6.708   3.935  0.9324 -0.8507 -0.5579
 9722TIP3   OH250580   3.503   0.507   9.507 -0.0142 -0.2821  0.4490
 9722TIP3    H150581   3.448   0.579   9.477 -1.2294 -1.1457  0.5299
 9722TIP3    H250582   3.480   0.434   9.450  0.5325 -0.8582  0.9484
 9723TIP3   OH250583   0.336   2.293  13.615 -0.8161  0.8714  0.3825
 9723TIP3    H150584   0.300   2.369  13.662 -1.2955  0.2499  1.0517
 9723TIP3    H250585   0.354   2.229  13.684 -3.5094 -0.8980 -0.3585
 9724TIP3   OH250586   0.090   6.276  13.460 -0.1789  0.4121 -0.5979
 9724TIP3    H150587   0.005   6.301  13.494 -0.2407  1.1229 -1.2194
 9724TIP3    H250588   0.071   6.235  13.375  0.1799  2.8240 -1.9490
 9725TIP3   OH250589   4.270   1.998  14.852  0.3171 -0.1408  0.3520
 9725TIP3    H150590   4.279   1.949  14.934 -0.4605  0.4964  0.8415
 9725TIP3    H250591   4.298   2.086  14.874 -2.1133  0.6352  0.6082
 9726TIP3   OH250592   3.222   5.677   3.315  0.2018 -0.0234 -0.3378
 9726TIP3    H150593   3.237   5.739   3.387 -1.9289 -0.1497  0.2743
 9726TIP3    H250594   3.254   5.593   3.349  0.9540  0.2687 -0.2894
 9727TIP3   OH250595   3.948   1.380   3.534 -0.2688 -0.0471  0.0866
 9727TIP3    H150596   3.865   1.371   3.580  0.0422  0.9265  0.8726
 9727TIP3    H250597   3.991   1.296   3.545 -0.3366  0.0621  1.3426
 9728TIP3   OH250598   2.187   4.971  10.069  0.0022  0.2229 -0.1019
 9728TIP3    H150599   2.238   4.911  10.014 -0.1236  1.5905 -1.7907
 9728TIP3    H250600   2.229   5.056  10.056  0.7645  0.4539  2.9633
 9729TIP3   OH250601   0.733   4.076  14.471 -0.4879  0.0768 -0.1570
 9729TIP3    H150602   0.652   4.038  14.504 -0.1043  1.2750  2.5021
 9729TIP3    H250603   0.714   4.169  14.460  0.7004  0.6071  1.6070
 9730TIP3   OH250604   6.425   3.687   0.513 -0.4534 -1.1018 -0.4558
 9730TIP3    H150605   6.406   3.633   0.437  1.1686 -1.5676 -0.5823
 9730TIP3    H250606   6.506   3.733   0.490 -1.7903  1.4867 -0.3762
 9731TIP3   OH250607   4.919   6.778  13.860 -0.6479 -0.7374  0.2594
 9731TIP3    H150608   4.951   6.753  13.947 -0.1929 -0.3922  0.1922
 9731TIP3    H250609   4.998   6.792  13.808 -0.8837  0.5178  0.2000
 9732TIP3   OH250610   4.194   4.583   0.863 -0.1546  0.4752  0.1086
 9732TIP3    H150611   4.134   4.515   0.893 -0.3423  1.1261  1.2580
 9732TIP3    H250612   4.275   4.566   0.912 -0.3701  1.3786  0.7916
 9733TIP3   OH250613   5.744   4.794   4.029 -0.5593 -0.0149  0.1524
 9733TIP3    H150614   5.791   4.825   3.951 -0.0460  1.0937  0.8771
 9733TIP3    H250615   5.718   4.704   4.007 -0.9132  0.4575 -1.4968
 9734TIP3   OH250616   6.305   5.849  11.742  0.1512 -0.3948 -0.3887
 9734TIP3    H150617   6.320   5.864  11.836 -5.5372 -2.2412  1.2539
 9734TIP3    H250618   6.310   5.754  11.732 -0.8447 -0.3485 -1.5227
 9735TIP3   OH250619   2.626   2.307  13.789  0.0763  0.2931 -0.8700
 9735TIP3    H150620   2.531   2.307  13.776 -0.0743 -0.3643  0.1032
 9735TIP3    H250621   2.661   2.267  13.709 -0.7792 -3.3181  0.3524
 9736TIP3   OH250622   2.462   3.879  10.281  0.4884 -0.1124 -0.0160
 9736TIP3    H150623   2.400   3.806  10.285  0.6749 -0.2327  1.4091
 9736TIP3    H250624   2.544   3.840  10.253  0.1496 -0.1180 -1.0170
 9737TIP3   OH250625   4.255   3.705   3.332 -0.2724 -0.0068 -0.0713
 9737TIP3    H150626   4.300   3.677   3.412  1.4235 -2.0880 -1.6033
 9737TIP3    H250627   4.166   3.672   3.342 -0.1012 -0.1938  0.9846
 9738TIP3   OH250628   4.918   2.848   0.498  0.3194 -1.0859 -0.1169
 9738TIP3    H150629   4.941   2.920   0.557 -1.1051  0.4921 -1.3702
 9738TIP3    H250630   4.993   2.789   0.502  0.8920 -0.3031  2.1078
 9739TIP3   OH250631   6.890   4.318  10.689 -0.2131  0.0130 -0.1850
 9739TIP3    H150632   6.944   4.239  10.693 -0.3675 -0.1329 -0.7895
 9739TIP3    H250633   6.915   4.368  10.766  2.7457  1.2135 -1.7383
 9740TIP3   OH250634   1.278   6.958  14.767 -0.0548 -0.1958 -0.0105
 9740TIP3    H150635   1.328   6.933  14.845 -0.2999  2.5013  1.1044
 9740TIP3    H250636   1.205   7.009  14.800 -0.3519  0.7751 -2.0020
 9741TIP3   OH250637   1.205   6.671  13.399 -0.3558 -0.2516  0.5385
 9741TIP3    H150638   1.224   6.664  13.493  3.5173 -1.3679 -0.1471
 9741TIP3    H250639   1.222   6.583  13.364 -1.9592  0.0758 -1.2153
 9742TIP3   OH250640   0.916   5.070  13.394  0.2744  0.1505 -0.1235
 9742TIP3    H150641   1.009   5.079  13.416  0.4402 -1.5141 -0.0430
 9742TIP3    H250642   0.871   5.087  13.477  0.5022  0.7914 -0.1212
 9743TIP3   OH250643   0.102   3.102  12.613  0.2431  0.3818  0.0446
 9743TIP3    H150644   0.085   3.062  12.698  2.1559 -0.4622  0.0884
 9743TIP3    H250645   0.037   3.062  12.555  0.5792 -1.0623  0.5997
 9744TIP3   OH250646   3.237   2.878  15.245  0.2865 -1.0065 -0.7861
 9744TIP3    H150647   3.142   2.892  15.248  0.2222 -0.8238 -2.5571
 9744TIP3    H250648   3.252   2.833  15.162  1.6771 -1.8398 -0.1146
 9745TIP3   OH250649   0.508   0.190   1.771 -0.3562  0.6842  0.4094
 9745TIP3    H150650   0.555   0.273   1.777 -0.4078  0.7689 -0.2772
 9745TIP3    H250651   0.560   0.137   1.711 -0.5389  0.3670  0.5299
 9746TIP3   OH250652   0.671   5.400   0.899  0.2503 -0.3382 -0.2438
 9746TIP3    H150653   0.629   5.467   0.846  1.7001 -0.3222 -1.4367
 9746TIP3    H250654   0.677   5.324   0.841 -0.9500 -1.3999  0.9351
 9747TIP3   OH250655   6.190   6.058   0.417 -0.5771  0.4133  0.1278
 9747TIP3    H150656   6.161   6.128   0.476 -3.4438 -0.5908  0.0710
 9747TIP3    H250657   6.151   6.080   0.332  0.1645 -0.2393 -0.3978
 9748TIP3   OH250658   0.522   0.922   0.195  0.0329 -0.1510  0.3313
 9748TIP3    H150659   0.594   0.905   0.255 -1.4469 -0.7284  2.0613
 9748TIP3    H250660   0.526   1.017   0.179  1.1307 -0.1737  0.4007
 9749TIP3   OH250661   3.791   3.533   1.472  0.7321  0.4772  0.4325
 9749TIP3    H150662   3.823   3.611   1.428 -0.6279  1.6487  1.4096
 9749TIP3    H250663   3.795   3.554   1.565  2.2786 -1.4305  0.8822
 9750TIP3   OH250664   2.114   3.592   0.087 -0.0843 -0.1109  0.0611
 9750TIP3    H150665   2.173   3.666   0.068 -0.6347  0.3816  0.2374
 9750TIP3    H250666   2.029   3.633   0.102  0.1449 -0.4873  2.9762
 9751TIP3   OH250667   4.547   5.171  13.943 -0.2462  0.2065 -0.3082
 9751TIP3    H150668   4.631   5.200  13.908  0.5475 -0.3240  1.0908
 9751TIP3    H250669   4.569   5.120  14.021 -1.8755  0.1594  0.1663
 9752TIP3   OH250670   6.729   5.080   5.689  0.2131 -0.2910 -0.8409
 9752TIP3    H150671   6.784   5.154   5.714 -1.1554  1.0631 -1.6289
 9752TIP3    H250672   6.639   5.114   5.696 -0.6056 -2.5616  0.9364
 9753TIP3   OH250673   4.060   1.299  13.633 -0.0745  0.8492 -0.3449
 9753TIP3    H150674   4.013   1.379  13.658  0.2954  1.1703 -0.6517
 9753TIP3    H250675   4.132   1.330  13.578  1.0038  0.4362  0.8006
 9754TIP3   OH250676   6.450   2.961   9.705 -0.1734  0.3596  0.4257
 9754TIP3    H150677   6.359   2.994   9.707 -0.7047 -1.0165  0.0255
 9754TIP3    H250678   6.480   2.984   9.617 -1.0703 -1.4950 -0.4159
 9755TIP3   OH250679   3.349   2.525  12.757  0.6027 -0.2977 -0.3009
 9755TIP3    H150680   3.426   2.564  12.798  1.0743  1.0817 -2.3172
 9755TIP3    H250681   3.381   2.492  12.673 -1.0712  1.0050 -1.5404
 9756TIP3   OH250682   3.165   1.839   4.012 -0.2420  0.1866 -1.1982
 9756TIP3    H150683   3.244   1.827   4.064 -0.1186  1.3552 -1.1029
 9756TIP3    H250684   3.101   1.781   4.054  0.0851  0.4987 -0.2377
 9757TIP3   OH250685   5.889   4.218  13.072 -0.3003 -0.7051 -0.2368
 9757TIP3    H150686   5.889   4.218  13.168  0.3135 -1.0946 -0.2330
 9757TIP3    H250687   5.971   4.176  13.048 -0.5379 -0.7811 -0.9368
 9758TIP3   OH250688   5.832   6.060  12.287 -0.4418  0.5892 -0.1753
 9758TIP3    H150689   5.807   6.141  12.331 -0.1751 -0.6133  2.3695
 9758TIP3    H250690   5.797   5.990  12.343  2.5932 -1.0984 -0.1813
 9759TIP3   OH250691   0.400   5.321  13.655  0.5108  0.1723 -0.2447
 9759TIP3    H150692   0.448   5.336  13.736 -0.3629  0.1772  0.2912
 9759TIP3    H250693   0.404   5.404  13.608 -0.3124  0.6719  0.5354
 9760TIP3   OH250694   6.747   5.971  12.090  0.3939 -0.2652 -0.2370
 9760TIP3    H150695   6.830   5.939  12.056 -0.6924 -1.7879 -1.6112
 9760TIP3    H250696   6.681   5.929  12.035 -1.2718  1.5584  0.2554
 9761TIP3   OH250697   4.796   0.810   3.252 -0.1332  0.0060  0.5377
 9761TIP3    H150698   4.854   0.755   3.304 -0.4920 -1.5084 -0.5791
 9761TIP3    H250699   4.713   0.808   3.299 -0.4906 -1.4541 -0.0844
 9762TIP3   OH250700   5.128   6.001   3.493  0.1213  0.0211 -0.2212
 9762TIP3    H150701   5.064   5.973   3.428  0.3119 -0.4208 -0.2197
 9762TIP3    H250702   5.076   6.027   3.569 -0.1057  0.5855 -0.5646
 9763TIP3   OH250703   5.097   2.660   4.577  0.1951  0.3924 -0.0512
 9763TIP3    H150704   5.102   2.630   4.487  0.0966  2.2529 -0.7287
 9763TIP3    H250705   5.036   2.600   4.620 -0.2102 -0.1652 -1.3753
 9764TIP3   OH250706   2.156   1.724   4.529 -0.1000  0.0279  0.2456
 9764TIP3    H150707   2.129   1.695   4.616  0.0417 -0.2082  0.2125
 9764TIP3    H250708   2.215   1.797   4.546 -0.0659 -0.0225  0.3475
 9765TIP3   OH250709   1.846   0.170  14.306 -0.3887  0.2786 -0.1089
 9765TIP3    H150710   1.820   0.175  14.399 -0.2886  1.3184 -0.1263
 9765TIP3    H250711   1.878   0.257  14.286  1.2495 -0.4270 -0.6624
 9766TIP3   OH250712   4.375   6.174   2.624  0.0153  0.1321  0.0888
 9766TIP3    H150713   4.392   6.086   2.658 -2.1987 -0.0506  0.8923
 9766TIP3    H250714   4.325   6.159   2.544  0.7902  0.6679 -0.5089
 9767TIP3   OH250715   1.021   6.703   3.087 -0.2279  0.0599  0.0727
 9767TIP3    H150716   0.959   6.665   3.026  0.4139 -4.2108  1.7680
 9767TIP3    H250717   1.105   6.704   3.040  0.0796 -2.3768  0.4344
 9768TIP3   OH250718   5.835   2.373   1.492 -0.0963  0.3613  0.0279
 9768TIP3    H150719   5.809   2.374   1.585  1.5264  1.0809  0.5115
 9768TIP3    H250720   5.930   2.358   1.494 -0.1336 -0.2434 -1.5592
 9769TIP3   OH250721   1.078   6.744  14.660 -0.6233 -0.3616  0.4040
 9769TIP3    H150722   1.024   6.791  14.723 -0.3613  1.2016 -0.4784
 9769TIP3    H250723   1.164   6.785  14.666  0.2736 -2.2556  1.1842
 9770TIP3   OH250724   6.586   0.600  12.735 -0.2015  0.0975  0.3797
 9770TIP3    H150725   6.644   0.669  12.701 -2.1347  0.8186 -1.7228
 9770TIP3    H250726   6.508   0.647  12.765 -1.6685 -1.1404 -1.3139
 9771TIP3   OH250727   7.204   4.189   2.369  0.4599 -0.0482 -0.1862
 9771TIP3    H150728   7.261   4.265   2.375  0.4235  0.0893 -1.2576
 9771TIP3    H250729   7.216   4.157   2.279 -0.4183 -0.5886 -0.1288
 9772TIP3   OH250730   1.473   3.578   2.836  1.1355 -0.0025 -0.3282
 9772TIP3    H150731   1.382   3.609   2.834  1.2183  0.2546 -0.2028
 9772TIP3    H250732   1.467   3.488   2.869  0.9815  0.2366  0.3090
 9773TIP3   OH250733   4.804   5.909  14.279  0.1027 -0.4265 -0.4074
 9773TIP3    H150734   4.723   5.927  14.327  0.3843 -3.1664  1.3287
 9773TIP3    H250735   4.871   5.903  14.348  0.8505 -2.8170 -1.2430
 9774TIP3   OH250736   3.860   4.393  12.545  0.2661  0.0451 -0.2175
 9774TIP3    H150737   3.917   4.469  12.534  0.1398  0.3424  0.9795
 9774TIP3    H250738   3.904   4.322  12.499  1.0469  0.5305 -0.2341
 9775TIP3   OH250739   4.802   6.826   1.009  0.1553 -0.1785  0.1503
 9775TIP3    H150740   4.857   6.771   1.064 -1.1531 -0.9085  0.7726
 9775TIP3    H250741   4.746   6.765   0.962 -0.1936  0.5468 -0.4075
 9776TIP3   OH250742   3.054   1.156   4.677 -0.5442  0.0057  0.5819
 9776TIP3    H150743   3.052   1.250   4.692 -0.7052  0.0993 -0.0156
 9776TIP3    H250744   3.020   1.118   4.758 -1.2658  0.4950  0.5203
 9777TIP3   OH250745   5.582   4.767  13.181 -0.6149 -1.1293 -0.4116
 9777TIP3    H150746   5.627   4.703  13.125  0.5954 -0.6326 -0.0293
 9777TIP3    H250747   5.541   4.828  13.120  1.5299 -0.0096 -0.7912
 9778TIP3   OH250748   3.442   6.560   1.767  0.3464  0.1466 -0.3786
 9778TIP3    H150749   3.456   6.614   1.846  1.8443 -0.3210 -0.3044
 9778TIP3    H250750   3.480   6.612   1.696  1.7432 -0.7394 -0.3153
 9779TIP3   OH250751   5.727   7.110   2.315 -0.0689 -0.1644  0.1697
 9779TIP3    H150752   5.754   7.107   2.223  0.4217 -0.1891  0.3153
 9779TIP3    H250753   5.635   7.138   2.311  0.1368  0.4797 -0.2959
 9780TIP3   OH250754   6.421   5.402  10.270 -0.1999  0.0962  0.3551
 9780TIP3    H150755   6.515   5.390  10.283 -0.4352 -0.6074  1.5914
 9780TIP3    H250756   6.409   5.497  10.274  0.3225  0.1370  1.3121
 9781TIP3   OH250757   0.118   2.468  14.971 -0.0879 -0.1920  0.0857
 9781TIP3    H150758   0.046   2.412  14.943  2.0975 -2.6304 -1.1318
 9781TIP3    H250759   0.175   2.411  15.022  1.4595  1.3595  0.2028
 9782TIP3   OH250760   7.177   2.020   1.288  0.1778 -0.2078 -0.3926
 9782TIP3    H150761   7.116   2.044   1.217 -0.1179  3.0379  0.7783
 9782TIP3    H250762   7.239   2.093   1.291  0.1473 -0.2067  2.6550
 9783TIP3   OH250763   6.269   3.473   0.427 -0.0425  0.8426  0.3195
 9783TIP3    H150764   6.254   3.481   0.521 -0.8327 -0.5695  0.3365
 9783TIP3    H250765   6.306   3.386   0.416  1.7383  1.6474 -0.5199
 9784TIP3   OH250766   3.868   6.428   2.989  0.1991  0.0387 -0.2916
 9784TIP3    H150767   3.945   6.399   3.037  1.1193  1.3572 -0.9041
 9784TIP3    H250768   3.797   6.373   3.022  0.8288  0.6567  2.3860
 9785TIP3   OH250769   1.978   7.181   1.000 -0.3422 -0.2140  0.7984
 9785TIP3    H150770   1.963   7.241   0.927  0.6125 -0.7355  0.1609
 9785TIP3    H250771   2.059   7.212   1.041  1.5603 -2.4217 -1.0182
 9786TIP3   OH250772   4.902   2.405   1.196  0.2993 -0.5384 -0.4545
 9786TIP3    H150773   4.900   2.471   1.127 -0.2596 -0.5676 -0.4778
 9786TIP3    H250774   4.932   2.452   1.273 -0.5637 -0.1217 -0.3530
 9787TIP3   OH250775   5.136   3.313   2.710 -0.1338  0.1441 -0.0718
 9787TIP3    H150776   5.066   3.282   2.653  0.7515 -0.0107 -1.1307
 9787TIP3    H250777   5.216   3.276   2.672  0.6198  1.0740  0.5316
 9788TIP3   OH250778   0.603   2.729  14.418 -0.7049  0.5331 -0.0092
 9788TIP3    H150779   0.607   2.633  14.415 -1.7151  0.4976 -1.3646
 9788TIP3    H250780   0.675   2.757  14.361 -1.1939  0.5426 -0.6300
 9789TIP3   OH250781   3.972   4.382   3.560  0.1839  0.3297  0.0858
 9789TIP3    H150782   3.930   4.466   3.574 -0.7191  0.0670 -0.9501
 9789TIP3    H250783   3.901   4.318   3.566  0.7313 -0.2963  0.0880
 9790TIP3   OH250784   4.962   5.285   5.049  0.4198  0.4021  0.5277
 9790TIP3    H150785   4.886   5.296   5.106  1.3253  1.2719  1.6167
 9790TIP3    H250786   5.024   5.352   5.077  2.1451 -1.1089  0.5716
 9791TIP3   OH250787   5.683   3.450   0.299  0.3303  0.3076  0.5403
 9791TIP3    H150788   5.617   3.445   0.369  0.2229 -1.9081  0.3508
 9791TIP3    H250789   5.766   3.430   0.343  0.7769  2.0988  0.5888
 9792TIP3   OH250790   1.020   3.100  11.184  0.4127 -0.7904  0.2180
 9792TIP3    H150791   1.000   3.143  11.267  0.7185 -1.9745  0.9332
 9792TIP3    H250792   0.944   3.045  11.166 -0.0366  0.1041 -0.7603
 9793TIP3   OH250793   2.094   5.111   2.988 -0.0324  0.2765  0.0526
 9793TIP3    H150794   2.076   5.026   2.949 -1.2018  0.7521 -0.4796
 9793TIP3    H250795   2.070   5.100   3.080  1.2626 -0.3899  0.3369
 9794TIP3   OH250796   4.687   1.518  13.384 -0.2051 -0.1549 -0.0953
 9794TIP3    H150797   4.757   1.583  13.376 -0.9106  0.7912  1.0430
 9794TIP3    H250798   4.610   1.569  13.409 -0.2637 -1.5680  3.1472
 9795TIP3   OH250799   4.930   1.884  12.573  0.0631  0.4172 -0.2691
 9795TIP3    H150800   4.910   1.901  12.665  0.5652 -0.7049  0.0583
 9795TIP3    H250801   5.024   1.867  12.572 -0.1035 -0.5260 -0.8434
 9796TIP3   OH250802   4.471   6.706   4.526  0.5803 -0.2201  0.2135
 9796TIP3    H150803   4.521   6.719   4.607  1.3681 -0.8630 -0.1488
 9796TIP3    H250804   4.380   6.720   4.551  0.7791 -0.7373  1.2931
 9797TIP3   OH250805   0.228   1.244  14.977  0.0987  0.1325  0.0054
 9797TIP3    H150806   0.232   1.188  15.055 -0.5877  0.5537  0.3660
 9797TIP3    H250807   0.249   1.332  15.010  0.6130  0.1811 -0.4441
 9798TIP3   OH250808   2.677   5.540  11.630  0.1339 -0.4037  0.4390
 9798TIP3    H150809   2.707   5.615  11.578 -0.8882 -0.6321 -0.5115
 9798TIP3    H250810   2.605   5.574  11.683 -1.0767 -0.9266 -0.8050
 9799TIP3   OH250811   1.789   6.578   3.174  0.0017 -0.0626  0.5017
 9799TIP3    H150812   1.721   6.625   3.126  0.3971 -0.0178 -0.0315
 9799TIP3    H250813   1.801   6.627   3.255 -0.6832 -0.1394  0.6505
 9800TIP3   OH250814   4.020   5.995   3.118 -0.5070  0.0073  0.8629
 9800TIP3    H150815   3.956   6.043   3.170 -0.3308  2.0595 -0.6943
 9800TIP3    H250816   4.103   6.006   3.165 -0.7312  0.0148  1.2595
 9801TIP3   OH250817   5.534   5.275   5.130  0.7450  0.2392  0.2799
 9801TIP3    H150818   5.605   5.254   5.069 -0.3083  0.6787 -1.1461
 9801TIP3    H250819   5.572   5.261   5.216  1.9823 -1.4018 -0.4815
 9802TIP3   OH250820   6.432   2.713  12.352  0.3447 -0.8972 -0.0211
 9802TIP3    H150821   6.369   2.782  12.330 -1.6599 -2.2365  1.1350
 9802TIP3    H250822   6.397   2.634  12.310  3.4193 -1.0674 -2.6682
 9803TIP3   OH250823   6.601   5.932  14.756  0.1786 -0.0276  0.6510
 9803TIP3    H150824   6.560   6.005  14.709 -0.6039 -0.0970  1.2149
 9803TIP3    H250825   6.530   5.871  14.773  0.6895 -0.5781  0.8451
 9804TIP3   OH250826   2.581   2.312  12.831  0.4991 -0.3498  0.0319
 9804TIP3    H150827   2.670   2.326  12.801  0.1965  1.3820 -0.1600
 9804TIP3    H250828   2.558   2.393  12.877 -0.9683 -0.7678  0.0870
 9805TIP3   OH250829   1.575   0.088   1.494 -0.7053 -0.3705  0.1715
 9805TIP3    H150830   1.487   0.055   1.507 -0.6500 -0.5350  0.1315
 9805TIP3    H250831   1.576   0.121   1.404 -0.5417 -0.9575 -0.0496
 9806TIP3   OH250832   0.755   3.056   1.949 -0.0358 -0.2537 -0.7957
 9806TIP3    H150833   0.678   3.000   1.939 -0.9280  0.5689  1.1131
 9806TIP3    H250834   0.813   3.028   1.877 -0.9600 -2.7155 -0.7045
 9807TIP3   OH250835   2.921   6.666  14.135 -0.6098 -0.1036 -0.1338
 9807TIP3    H150836   2.973   6.713  14.201  0.2241 -0.3632 -0.5943
 9807TIP3    H250837   2.955   6.697  14.051 -0.7539 -0.7618 -0.4429
 9808TIP3   OH250838   2.575   5.235  11.769  0.6262  0.1129 -0.5075
 9808TIP3    H150839   2.659   5.276  11.749 -0.4293  2.7926  0.2136
 9808TIP3    H250840   2.538   5.214  11.684  1.2531  0.5056 -0.8851
 9809TIP3   OH250841   5.747   6.592   3.836  0.0357  0.0147 -0.0833
 9809TIP3    H150842   5.680   6.548   3.784 -0.1980 -0.3393  0.5071
 9809TIP3    H250843   5.764   6.532   3.908  0.9881  0.1026 -0.2244
 9810TIP3   OH250844   0.497   5.044   2.158 -0.1650  0.2519  0.0757
 9810TIP3    H150845   0.479   5.134   2.132  1.6178  0.1132 -1.9418
 9810TIP3    H250846   0.412   5.000   2.151 -0.4952  1.1137 -2.0409
 9811TIP3   OH250847   4.091   6.241  13.156  0.1060 -0.3204  0.2785
 9811TIP3    H150848   4.091   6.282  13.242 -0.7620 -1.5165  0.8868
 9811TIP3    H250849   4.118   6.150  13.172  0.8725 -0.3173 -0.8555
 9812TIP3   OH250850   0.608   6.334   3.540  0.5813  0.6093 -0.2806
 9812TIP3    H150851   0.626   6.275   3.467 -2.3230  0.2883 -0.8517
 9812TIP3    H250852   0.627   6.421   3.506  2.5395  0.2602 -0.2208
 9813TIP3   OH250853   5.852   1.936   4.019 -0.1663 -0.2820  0.0521
 9813TIP3    H150854   5.768   1.951   4.063 -0.4629 -0.6644 -0.3739
 9813TIP3    H250855   5.887   2.024   4.004 -0.3612 -0.1290  0.4746
 9814TIP3   OH250856   3.868   1.102   1.571  0.0288 -0.1379  1.1656
 9814TIP3    H150857   3.837   1.069   1.655 -1.7714  0.0011  0.5838
 9814TIP3    H250858   3.790   1.107   1.516  1.0072  0.7155 -0.2139
 9815TIP3   OH250859   5.912   6.879  10.703 -0.1691  0.0338  0.3050
 9815TIP3    H150860   5.952   6.915  10.782  0.5061  1.8074 -0.7811
 9815TIP3    H250861   5.822   6.911  10.705 -0.9906 -2.1594  1.6544
 9816TIP3   OH250862   1.252   4.221   2.272 -0.7763  0.3899 -0.6888
 9816TIP3    H150863   1.341   4.195   2.295 -0.9493 -0.9287 -1.4215
 9816TIP3    H250864   1.244   4.311   2.306  1.6809  1.5718 -2.8781
 9817TIP3   OH250865   7.208   3.474  15.274 -0.1470 -0.7624 -0.3846
 9817TIP3    H150866   7.119   3.460  15.241  0.2817 -1.3877 -1.2958
 9817TIP3    H250867   7.240   3.385  15.293 -0.3092 -0.4511  1.5726
 9818TIP3   OH250868   6.075   5.290  15.203  0.1192  0.8567  0.1623
 9818TIP3    H150869   6.124   5.292  15.120 -0.6143  1.0668 -0.2740
 9818TIP3    H250870   6.143   5.286  15.270  0.7893 -3.6210 -0.4746
 9819TIP3   OH250871   4.719   5.154   3.667 -0.1862 -0.3962 -0.3514
 9819TIP3    H150872   4.627   5.181   3.663  0.0106  0.1871 -1.9524
 9819TIP3    H250873   4.716   5.059   3.653 -0.6501 -0.7136  1.6697
 9820TIP3   OH250874   4.226   2.352   1.781  0.0449  0.5060  0.8313
 9820TIP3    H150875   4.281   2.274   1.786 -1.5820 -0.6703  1.3520
 9820TIP3    H250876   4.220   2.383   1.871 -1.8157 -0.6605  1.1727
 9821TIP3   OH250877   5.310   6.136  12.680  0.2814 -0.6282 -0.3305
 9821TIP3    H150878   5.300   6.046  12.711 -0.9825  0.3536  2.4565
 9821TIP3    H250879   5.236   6.148  12.620 -0.4026 -1.0254  0.4096
 9822TIP3   OH250880   3.099   5.060  10.345  0.4822  0.2606  0.4400
 9822TIP3    H150881   3.078   5.140  10.392 -0.0838 -0.3462  1.2530
 9822TIP3    H250882   3.019   5.040  10.295 -0.1423 -0.8549  1.8089
 9823TIP3   OH250883   4.105   6.353   3.131  0.4489 -0.6272 -0.0228
 9823TIP3    H150884   4.184   6.357   3.185  0.6424 -1.4775 -0.2306
 9823TIP3    H250885   4.100   6.262   3.103  1.6233  0.1905 -3.2943
 9824TIP3   OH250886   0.200   2.757  11.039  0.7537 -0.1854 -0.0126
 9824TIP3    H150887   0.247   2.768  10.956 -0.3527 -0.3469 -0.6846
 9824TIP3    H250888   0.175   2.846  11.064 -0.0536 -0.2431 -0.5595
 9825TIP3   OH250889   6.948   0.876   0.169 -0.1583  0.0174 -0.4267
 9825TIP3    H150890   6.986   0.880   0.082 -1.3516 -1.3762 -1.0566
 9825TIP3    H250891   6.946   0.783   0.190  0.0437  0.3258  1.0686
 9826TIP3   OH250892   3.970   6.133  14.740  0.1457  0.0254  0.0286
 9826TIP3    H150893   3.967   6.228  14.733 -0.3734 -0.0209 -0.5347
 9826TIP3    H250894   3.939   6.102  14.654  1.4592 -0.6455 -0.2213
 9827TIP3   OH250895   4.933   6.515   2.254 -0.5471  0.2313  0.3638
 9827TIP3    H150896   4.973   6.431   2.279 -0.8298  0.2549  0.9047
 9827TIP3    H250897   4.985   6.581   2.300  0.9165  0.5222 -1.5693
 9828TIP3   OH250898   5.997   7.188  13.316  0.4322  0.5938 -0.2434
 9828TIP3    H150899   6.087   7.195  13.349  0.8183  0.9994 -1.3317
 9828TIP3    H250900   5.981   7.094  13.308  0.7037  0.5155  0.1029
 9829TIP3   OH250901   5.545   7.209  10.943  0.4181 -0.0925  0.2850
 9829TIP3    H150902   5.506   7.155  11.012  2.5065 -1.8279  0.2013
 9829TIP3    H250903   5.472   7.225  10.882 -1.3246  0.9839  2.4887
 9830TIP3   OH250904   0.981   0.571   0.976 -0.3105  0.0750 -0.7683
 9830TIP3    H150905   0.890   0.597   0.991 -0.2300  0.5424 -1.0541
 9830TIP3    H250906   0.981   0.476   0.984 -0.6298  0.1519  0.2607
 9831TIP3   OH250907   3.028   3.606   3.266 -0.0161  0.0970  0.6326
 9831TIP3    H150908   3.077   3.548   3.325 -0.7019  0.7979  1.9337
 9831TIP3    H250909   3.023   3.689   3.313 -1.1014  0.4989 -0.1650
 9832TIP3   OH250910   4.706   0.626  13.406  0.4792  0.0693 -0.3958
 9832TIP3    H150911   4.631   0.668  13.449  0.7916  0.0123  0.2190
 9832TIP3    H250912   4.727   0.685  13.333  1.4103  1.4498  0.9212
 9833TIP3   OH250913   1.726   6.461   1.370 -0.0731 -0.1788 -0.6527
 9833TIP3    H150914   1.821   6.459   1.355  0.1484  0.4485  0.5062
 9833TIP3    H250915   1.718   6.482   1.463 -1.3615 -0.0758 -0.7769
 9834TIP3   OH250916   5.630   1.506   0.679  0.6660  0.1587  0.1059
 9834TIP3    H150917   5.634   1.585   0.625  1.2508 -1.1641 -1.9344
 9834TIP3    H250918   5.660   1.436   0.620 -0.9338 -1.7705  1.4503
 9835TIP3   OH250919   1.891   6.869  13.864 -0.1572  0.3203  0.2950
 9835TIP3    H150920   1.972   6.890  13.819 -0.9607  0.4701 -1.1445
 9835TIP3    H250921   1.836   6.946  13.852 -0.5555  0.1923  1.1865
 9836TIP3   OH250922   5.322   2.278   2.113 -0.0074 -0.2880 -0.3798
 9836TIP3    H150923   5.336   2.344   2.045  0.6080  0.5814  0.5774
 9836TIP3    H250924   5.387   2.297   2.180 -0.3291 -1.3912  0.2805
 9837TIP3   OH250925   6.947   1.022   9.635 -0.1291 -0.1502  0.7832
 9837TIP3    H150926   7.020   1.078   9.611 -1.0875  0.7154 -0.2105
 9837TIP3    H250927   6.869   1.071   9.610 -1.0123 -2.1799 -0.8417
 9838TIP3   OH250928   5.217   3.168  14.514  0.3231  0.0779 -0.1833
 9838TIP3    H150929   5.165   3.124  14.582 -2.0021  2.1865 -0.4841
 9838TIP3    H250930   5.260   3.239  14.560 -1.5420  1.7377 -0.8645
 9839TIP3   OH250931   5.099   4.568   1.608 -0.6048  0.3477  0.0849
 9839TIP3    H150932   5.163   4.501   1.584 -0.0296  0.8079  0.3103
 9839TIP3    H250933   5.121   4.643   1.553 -2.0612 -0.0554 -1.1099
 9840TIP3   OH250934   6.961   3.492   1.279  0.1691  0.1090 -0.2456
 9840TIP3    H150935   6.875   3.466   1.313  1.1195 -1.1742  1.3254
 9840TIP3    H250936   7.019   3.419   1.303  1.3279 -0.0356 -3.0744
 9841TIP3   OH250937   0.161   1.794  11.381  0.0147  0.7267  0.2444
 9841TIP3    H150938   0.074   1.812  11.417  0.2504  0.9068  0.7426
 9841TIP3    H250939   0.198   1.729  11.440 -1.0569 -1.9836 -1.8936
 9842TIP3   OH250940   2.314   6.593   2.635 -0.0892 -0.0078 -0.5096
 9842TIP3    H150941   2.320   6.498   2.639  0.6604  0.0595  0.7442
 9842TIP3    H250942   2.403   6.621   2.613  0.5851  0.4765  2.3618
 9843TIP3   OH250943   0.270   0.614   0.586 -0.6963  0.3170  0.4816
 9843TIP3    H150944   0.231   0.551   0.525 -0.1718  1.1121 -0.7218
 9843TIP3    H250945   0.227   0.697   0.565  1.9038  1.3708 -1.3068
 9844TIP3   OH250946   4.927   2.245  14.583 -0.0320 -0.0159 -0.4051
 9844TIP3    H150947   4.881   2.291  14.513 -1.6021 -0.7396  0.1277
 9844TIP3    H250948   4.861   2.189  14.624  1.1062 -0.4365  0.9506
 9845TIP3   OH250949   4.758   5.464   0.295 -0.0830 -0.2596 -0.1120
 9845TIP3    H150950   4.852   5.478   0.304 -0.2591  1.0678 -0.1107
 9845TIP3    H250951   4.730   5.528   0.229 -0.8148 -1.3792 -0.9193
 9846TIP3   OH250952   4.193   0.699  12.488  0.3005  0.4988  0.3319
 9846TIP3    H150953   4.200   0.685  12.583  0.0225  1.3519  0.4818
 9846TIP3    H250954   4.265   0.759  12.468 -0.0941  0.9067  0.1274
 9847TIP3   OH250955   3.569   6.452  15.224 -0.3091  0.4087  0.5789
 9847TIP3    H150956   3.633   6.455  15.296  0.8669 -2.2896 -0.2309
 9847TIP3    H250957   3.492   6.409  15.262  0.0503 -0.3861  0.4159
 9848TIP3   OH250958   0.193   7.016   9.436  0.3001 -0.0692  0.9179
 9848TIP3    H150959   0.181   6.936   9.488 -1.7139  0.6000  1.5496
 9848TIP3    H250960   0.108   7.031   9.394 -0.1577  2.9872  2.6724
 9849TIP3   OH250961   5.752   3.276   2.427  0.2485 -0.1963  0.4209
 9849TIP3    H150962   5.789   3.302   2.511  2.0831  1.2728 -0.7598
 9849TIP3    H250963   5.799   3.196   2.403 -1.4379 -1.5834  1.4682
 9850TIP3   OH250964   1.872   6.629  13.714  0.5685  0.7495 -0.2099
 9850TIP3    H150965   1.879   6.686  13.637  4.4087 -0.2648 -0.8460
 9850TIP3    H250966   1.900   6.684  13.787  2.1213  0.3906 -0.4827
 9851TIP3   OH250967   1.008   3.983   4.102  0.2867  0.5069  0.2740
 9851TIP3    H150968   1.036   3.980   4.010  1.1309  0.8715  0.5162
 9851TIP3    H250969   0.928   4.035   4.100  0.4788  0.7954 -0.2078
 9852TIP3   OH250970   6.450   1.042  11.797 -0.1715 -0.0967  0.0951
 9852TIP3    H150971   6.505   1.119  11.816 -0.4803  0.6957 -2.0529
 9852TIP3    H250972   6.471   0.981  11.868  1.0425  1.4502  1.1494
 9853TIP3   OH250973   6.343   3.830  11.183  0.2057 -0.0844 -0.1296
 9853TIP3    H150974   6.405   3.890  11.225  0.0732 -0.0185 -0.0231
 9853TIP3    H250975   6.319   3.768  11.251 -0.9401  0.7471  0.2771
 9854TIP3   OH250976   2.353   3.121  10.968 -0.4546  0.3431 -0.5253
 9854TIP3    H150977   2.279   3.176  10.945 -0.2920  1.2141  0.9457
 9854TIP3    H250978   2.331   3.035  10.931 -0.9206  1.2268 -2.4434
 9855TIP3   OH250979   1.793   1.721  10.726  0.2525  0.2321  0.0620
 9855TIP3    H150980   1.707   1.745  10.760 -0.0749 -0.2247 -0.4182
 9855TIP3    H250981   1.848   1.797  10.743 -0.9784  1.7592 -2.2303
 9856TIP3   OH250982   1.558   4.241  12.768 -0.2156 -0.8198 -0.0501
 9856TIP3    H150983   1.649   4.249  12.739 -0.2233 -1.3077 -0.2142
 9856TIP3    H250984   1.544   4.147  12.780 -0.3290 -0.6654  1.1893
 9857TIP3   OH250985   7.004   3.260  13.794  0.2138 -0.5949  0.0905
 9857TIP3    H150986   6.914   3.278  13.821  0.8505  0.0697  1.9437
 9857TIP3    H250987   7.051   3.243  13.876  1.7332 -1.1887 -0.8480
 9858TIP3   OH250988   6.308   3.575   1.224 -0.3676 -0.3065  0.3299
 9858TIP3    H150989   6.314   3.628   1.144  1.2902  0.1904  0.7416
 9858TIP3    H250990   6.351   3.628   1.291 -0.5660 -1.2762  1.2552
 9859TIP3   OH250991   4.425   3.593  15.337  0.0194 -0.2732  0.0216
 9859TIP3    H150992   4.367   3.551  15.401  0.5212 -0.2379  0.5006
 9859TIP3    H250993   4.508   3.546  15.345 -0.4355 -1.5213 -1.9280
 9860TIP3   OH250994   5.090   5.076  14.791  0.3900 -0.1343  0.2880
 9860TIP3    H150995   5.153   5.064  14.861 -1.3826 -0.2812  1.9362
 9860TIP3    H250996   5.073   4.988  14.758  0.0890 -0.2474  0.7369
 9861TIP3   OH250997   6.859   3.985   9.764 -0.3410 -0.1953 -0.2984
 9861TIP3    H150998   6.872   4.036   9.844 -0.5584  0.1998 -0.5132
 9861TIP3    H250999   6.814   4.044   9.705 -0.1676 -0.4823 -0.7229
 9862TIP3   OH251000   4.298   1.890   2.124 -0.3553  0.1968  0.4235
 9862TIP3    H151001   4.339   1.869   2.040 -0.6208 -0.2694  0.4059
 9862TIP3    H251002   4.209   1.914   2.101 -0.8476 -1.2721  0.6810
 9863TIP3   OH251003   1.616   2.170   4.653 -0.0963  0.6089  0.3051
 9863TIP3    H151004   1.577   2.137   4.734 -0.5350  1.8910  0.6429
 9863TIP3    H251005   1.543   2.212   4.607 -0.2182 -1.4490 -1.5292
 9864TIP3   OH251006   0.125   2.645   1.225 -0.1812 -0.0809 -0.5531
 9864TIP3    H151007   0.158   2.719   1.277 -1.4511 -0.0687  0.2876
 9864TIP3    H251008   0.093   2.583   1.291 -0.7290 -0.5981 -1.2968
 9865TIP3   OH251009   4.170   2.760   4.680 -0.5936  0.0539 -0.4013
 9865TIP3    H151010   4.116   2.699   4.730 -1.0247  1.0354  0.3637
 9865TIP3    H251011   4.240   2.785   4.741  0.7259 -1.1385 -1.3488
 9866TIP3   OH251012   1.968   4.849  11.980 -0.5495  0.1194  0.8273
 9866TIP3    H151013   2.046   4.860  12.035  0.7815 -0.4954 -0.8564
 9866TIP3    H251014   2.001   4.855  11.891 -2.5787  0.6124  0.0685
 9867TIP3   OH251015   0.971   4.805  12.949 -0.8223  0.3374 -0.9038
 9867TIP3    H151016   0.878   4.782  12.958 -0.9033  0.9501 -0.0855
 9867TIP3    H251017   0.988   4.865  13.021  0.5387 -0.7746 -0.2381
 9868TIP3   OH251018   3.878   5.135   2.987  0.1336 -0.1102 -0.2204
 9868TIP3    H151019   3.973   5.129   2.983  0.1178 -0.7548  0.1497
 9868TIP3    H251020   3.859   5.228   2.981  0.8349  0.0960  0.5922
 9869TIP3   OH251021   1.966   3.595   4.794  0.0399 -0.0219 -0.2056
 9869TIP3    H151022   1.958   3.653   4.870 -1.8320 -1.1279  0.5126
 9869TIP3    H251023   1.936   3.648   4.720 -0.4354  0.3387  0.2362
 9870TIP3   OH251024   5.676   2.954   4.066 -0.6289  0.9866  0.2975
 9870TIP3    H151025   5.765   2.982   4.043 -0.7577  0.9901 -0.2026
 9870TIP3    H251026   5.689   2.886   4.132 -0.2805  1.4910  0.7607
 9871TIP3   OH251027   2.767   2.579  13.597 -0.3090 -0.1833  0.3814
 9871TIP3    H151028   2.772   2.483  13.597  2.3626 -0.1162  0.6917
 9871TIP3    H251029   2.850   2.607  13.633 -0.4494  2.2975 -1.0118
 9872TIP3   OH251030   6.875   6.792  14.054 -0.2466 -0.0534 -0.1902
 9872TIP3    H151031   6.923   6.758  14.130 -2.6165  0.4636  1.6800
 9872TIP3    H251032   6.936   6.853  14.013  1.3787 -0.8889  0.8531
 9873TIP3   OH251033   3.457   3.903  12.444  0.6056 -0.3258 -0.0075
 9873TIP3    H151034   3.381   3.920  12.500  0.6707  0.2784 -0.0941
 9873TIP3    H251035   3.532   3.905  12.503  0.6891  0.4608 -0.1358
 9874TIP3   OH251036   3.860   0.427   1.009  0.3512 -0.1784  0.2650
 9874TIP3    H151037   3.854   0.375   0.928 -1.7368  1.1935 -0.5629
 9874TIP3    H251038   3.798   0.385   1.068 -0.1244  0.3986  0.1774
 9875TIP3   OH251039   5.380   5.039   4.109 -0.8505 -0.1393  0.9156
 9875TIP3    H151040   5.414   4.964   4.158 -0.1296  0.2778  1.0655
 9875TIP3    H251041   5.303   5.005   4.064 -1.4616 -0.5655  2.2376
 9876TIP3   OH251042   2.152   4.793  10.919  0.2275  0.1958 -0.3986
 9876TIP3    H151043   2.132   4.745  10.839 -0.1819  0.2625 -0.3431
 9876TIP3    H251044   2.131   4.731  10.989 -1.6023  0.8743 -0.2854
 9877TIP3   OH251045   6.885   3.172  10.644 -0.3283  0.0891  0.0567
 9877TIP3    H151046   6.899   3.092  10.694  0.5313  0.6732  0.7648
 9877TIP3    H251047   6.841   3.231  10.705 -2.7757 -0.4718 -1.0447
 9878TIP3   OH251048   2.318   4.889   5.554 -0.2261  0.6339  0.7415
 9878TIP3    H151049   2.279   4.924   5.474 -0.3355  0.6579  0.8050
 9878TIP3    H251050   2.395   4.944   5.570  0.1049  0.2823  0.3506
 9879TIP3   OH251051   6.534   7.119  10.043  0.0933 -0.7421  0.0739
 9879TIP3    H151052   6.464   7.108  10.108  0.6985  3.5653  1.8600
 9879TIP3    H251053   6.614   7.113  10.094  0.6675  0.7565 -0.5753
 9880TIP3   OH251054   3.470   1.727  13.866 -0.3234  0.4452 -0.6950
 9880TIP3    H151055   3.502   1.817  13.869 -0.7806  0.6252 -1.1305
 9880TIP3    H251056   3.384   1.731  13.908 -0.1421  0.1152 -0.2770
 9881TIP3   OH251057   5.285   1.946  15.000 -0.0690 -0.1827 -1.0546
 9881TIP3    H151058   5.231   1.868  15.016  0.5201 -0.6868 -1.4952
 9881TIP3    H251059   5.236   2.018  15.041  0.4134 -1.0985  1.2239
 9882TIP3   OH251060   6.632   5.176  13.468  0.5752  0.0593  0.3122
 9882TIP3    H151061   6.719   5.207  13.443  0.3805 -1.4321 -2.7538
 9882TIP3    H251062   6.573   5.219  13.406 -0.8233  0.4731  1.8696
 9883TIP3   OH251063   4.579   5.673   0.184 -0.1184 -0.2165 -0.3384
 9883TIP3    H151064   4.544   5.655   0.097  0.6630  2.4867 -1.3130
 9883TIP3    H251065   4.541   5.757   0.208  1.6215  0.2980  0.7976
 9884TIP3   OH251066   4.850   3.704  10.596 -0.2921 -0.2492 -0.6201
 9884TIP3    H151067   4.921   3.642  10.609 -0.1596 -0.3761 -1.8403
 9884TIP3    H251068   4.770   3.652  10.608 -0.1811 -0.4579 -0.7897
 9885TIP3   OH251069   2.702   5.047  14.996 -0.2649  0.0719 -0.2965
 9885TIP3    H151070   2.738   5.123  15.042  1.2874 -0.9522  0.2520
 9885TIP3    H251071   2.754   5.041  14.915 -0.9872  0.1238 -0.7682
 9886TIP3   OH251072   1.605   0.354  13.128  0.0283  0.3071 -0.1866
 9886TIP3    H151073   1.557   0.276  13.157 -1.1742  1.2080  0.3259
 9886TIP3    H251074   1.673   0.320  13.070  1.4398 -1.4158  2.2766
 9887TIP3   OH251075   2.040   2.927  13.423  0.0000 -0.3384  0.2164
 9887TIP3    H151076   1.953   2.896  13.398  0.0455 -0.5128  0.2770
 9887TIP3    H251077   2.095   2.907  13.347  0.3313 -1.6639  0.7756
 9888TIP3   OH251078   5.244   3.898  12.913  0.1777  0.3209 -0.1372
 9888TIP3    H151079   5.252   3.803  12.918 -0.0446  0.3590  1.9191
 9888TIP3    H251080   5.197   3.914  12.831  0.4762 -1.3049 -0.6662
 9889TIP3   OH251081   5.805   0.079  10.767 -0.4792  0.6692  0.2187
 9889TIP3    H151082   5.726   0.081  10.821 -0.5679  0.2269  0.1112
 9889TIP3    H251083   5.811   0.166  10.728 -0.3116  1.0522  1.0892
 9890TIP3   OH251084   3.918   3.967  15.083 -0.7548 -0.2208  0.2586
 9890TIP3    H151085   3.848   3.976  15.018  1.2160 -1.2749 -2.1685
 9890TIP3    H251086   3.922   3.873  15.100  1.4901 -0.5125 -1.4524
 9891TIP3   OH251087   0.192   6.060   5.058  0.0214  0.2829 -0.3075
 9891TIP3    H151088   0.107   6.102   5.069 -0.4222 -0.5379 -0.5286
 9891TIP3    H251089   0.197   5.997   5.129  0.5720  0.5247 -0.1276
 9892TIP3   OH251090   2.840   2.661  13.133 -0.4665  0.2837  0.0247
 9892TIP3    H151091   2.842   2.756  13.145  1.2559  0.1600  1.1009
 9892TIP3    H251092   2.841   2.648  13.039  0.9432  1.3457 -0.1330
 9893TIP3   OH251093   1.580   6.135   4.980 -0.2992  0.2396 -0.0273
 9893TIP3    H151094   1.550   6.204   4.920  1.1720  0.0287 -1.0622
 9893TIP3    H251095   1.600   6.181   5.062  1.3628  1.2118 -0.9278
 9894TIP3   OH251096   6.422   3.225  12.140 -0.6081  0.6469 -0.3518
 9894TIP3    H151097   6.421   3.130  12.128  1.1159  0.4338  0.9102
 9894TIP3    H251098   6.485   3.256  12.075  0.6185  0.6464  0.8135
 9895TIP3   OH251099   4.894   2.391   3.925 -0.0075  0.0665 -0.3995
 9895TIP3    H151100   4.903   2.295   3.924 -1.9439 -0.1802  0.3492
 9895TIP3    H251101   4.963   2.421   3.984  0.0323 -0.9627  0.0987
 9896TIP3   OH251102   1.278   3.454  13.328 -0.4315 -0.1783  0.0623
 9896TIP3    H151103   1.262   3.423  13.417 -1.8407  0.3939  0.0425
 9896TIP3    H251104   1.207   3.517  13.312  1.3354  1.7631 -0.5023
 9897TIP3   OH251105   4.072   0.091  13.401 -0.9734  0.5890 -0.4553
 9897TIP3    H151106   4.125   0.015  13.378  0.2502  1.6145 -1.2101
 9897TIP3    H251107   4.007   0.058  13.462  0.1592 -0.8511  0.0269
 9898TIP3   OH251108   1.702   6.634  15.088  0.7299  0.2650  0.2677
 9898TIP3    H151109   1.703   6.538  15.090  0.9913  0.2694  1.4468
 9898TIP3    H251110   1.654   6.659  15.167 -1.0221  1.1176 -0.9936
 9899TIP3   OH251111   2.172   4.735  13.477 -0.2857 -0.1461  0.1873
 9899TIP3    H151112   2.086   4.745  13.520 -0.1352 -0.4612  0.5626
 9899TIP3    H251113   2.215   4.666  13.526 -0.3732 -0.9967 -0.9003
 9900TIP3   OH251114   0.155   5.445   1.984 -0.1223 -0.3213  0.7730
 9900TIP3    H151115   0.116   5.505   1.920  0.2459 -0.7739  0.1094
 9900TIP3    H251116   0.145   5.490   2.068  0.1375  0.6666  0.2933
 9901TIP3   OH251117   3.789   4.986   0.590 -0.1744 -0.3999  0.2764
 9901TIP3    H151118   3.832   4.957   0.671  0.8670 -0.1097 -0.1525
 9901TIP3    H251119   3.774   4.905   0.540 -0.7010 -0.5647  0.6942
 9902TIP3   OH251120   1.633   3.484  14.100 -0.8416  0.0281  0.4632
 9902TIP3    H151121   1.681   3.409  14.138 -0.8014  0.1000  0.5557
 9902TIP3    H251122   1.654   3.557  14.158 -0.4098  0.2437  0.0392
 9903TIP3   OH251123   1.551   5.709  10.003  0.1591 -0.6509  0.4441
 9903TIP3    H151124   1.547   5.623   9.963 -2.8054 -0.0331 -0.8732
 9903TIP3    H251125   1.633   5.709  10.053  0.5447 -3.9629  0.0246
 9904TIP3   OH251126   3.926   1.755   0.439  0.2572 -0.0575 -0.0446
 9904TIP3    H151127   3.865   1.826   0.461 -0.4859 -0.7413  0.1302
 9904TIP3    H251128   3.873   1.692   0.390  1.1674  0.0037 -1.1522
 9905TIP3   OH251129   1.015   5.912   0.361  0.0385 -0.4968  0.2805
 9905TIP3    H151130   0.986   5.997   0.327  1.0171 -0.8429 -1.5190
 9905TIP3    H251131   1.044   5.931   0.450  1.3191  1.3179 -0.4624
 9906TIP3   OH251132   3.141   1.574  15.020 -0.6807  0.4349 -0.3735
 9906TIP3    H151133   3.121   1.572  14.927  0.6284  2.1054 -0.7423
 9906TIP3    H251134   3.061   1.543  15.063 -1.5646  0.3429 -2.0150
 9907TIP3   OH251135   5.070   6.570  13.580 -0.6094 -0.0468  0.6447
 9907TIP3    H151136   5.105   6.504  13.639 -1.7023 -1.4616 -0.2315
 9907TIP3    H251137   4.979   6.582  13.608 -0.6569  0.4926  0.2813
 9908TIP3   OH251138   2.619   0.844  14.761 -0.1432  0.2271 -0.2847
 9908TIP3    H151139   2.647   0.801  14.681  0.2065  0.6614 -0.4053
 9908TIP3    H251140   2.546   0.792  14.793 -0.2699  0.0366 -0.8731
 9909TIP3   OH251141   6.301   6.181   5.691  0.2043 -0.2535 -0.5624
 9909TIP3    H151142   6.378   6.135   5.658  0.1040 -0.9562  0.1534
 9909TIP3    H251143   6.321   6.274   5.680  1.0176 -0.4397 -0.6732
 9910TIP3   OH251144   0.462   2.630   2.475 -0.0624  0.0062  0.6947
 9910TIP3    H151145   0.405   2.706   2.488  1.1411  1.2734 -0.8764
 9910TIP3    H251146   0.477   2.628   2.380 -0.6303 -2.6755  0.5788
 9911TIP3   OH251147   7.005   0.417   4.910  0.4491  0.2431 -0.1684
 9911TIP3    H151148   7.096   0.394   4.892  0.3104  0.3830 -1.1334
 9911TIP3    H251149   6.960   0.333   4.915  0.1848  0.1935 -2.3298
 9912TIP3   OH251150   2.595   0.883   2.227 -0.6594  0.1831  0.1570
 9912TIP3    H151151   2.664   0.817   2.227 -0.6887  0.1232 -1.3748
 9912TIP3    H251152   2.514   0.833   2.221 -0.7986  0.2941  0.9961
 9913TIP3   OH251153   3.102   6.075  12.329 -0.1941 -0.1664  0.3977
 9913TIP3    H151154   3.022   6.125  12.345 -0.1749  0.2309 -0.6342
 9913TIP3    H251155   3.115   6.081  12.234 -0.3853 -2.4341  0.1899
 9914TIP3   OH251156   0.216   0.494  12.266 -0.7722 -0.0701 -0.1568
 9914TIP3    H151157   0.134   0.455  12.298 -0.3452 -0.6669  0.2333
 9914TIP3    H251158   0.192   0.583  12.242 -1.4714 -0.1356  0.2547
 9915TIP3   OH251159   1.852   3.613   0.650  0.2604 -0.3606  0.0518
 9915TIP3    H151160   1.904   3.552   0.598  0.3372 -0.7586  0.5877
 9915TIP3    H251161   1.910   3.639   0.722  1.7197  3.3307 -2.1361
 9916TIP3   OH251162   6.646   6.446  14.215 -0.1868 -0.0606  0.0378
 9916TIP3    H151163   6.621   6.522  14.268 -1.8048 -1.4342  1.3805
 9916TIP3    H251164   6.728   6.471  14.173 -0.4408  2.2388  0.7954
 9917TIP3   OH251165   4.690   5.095   2.567 -0.0327 -0.4307  0.1630
 9917TIP3    H151166   4.772   5.088   2.517 -0.2030  1.1234 -0.3845
 9917TIP3    H251167   4.700   5.031   2.638  1.2193 -0.9950 -0.4857
 9918TIP3   OH251168   5.936   1.540  12.773 -0.1695 -0.1392 -0.6456
 9918TIP3    H151169   5.872   1.522  12.705 -0.4667  1.5889 -0.8837
 9918TIP3    H251170   6.021   1.534  12.729 -0.1696 -1.6875 -0.5015
 9919TIP3   OH251171   2.174   4.718  10.667 -0.2643 -0.6784  0.1663
 9919TIP3    H151172   2.206   4.772  10.595  1.2176 -1.5650  0.1268
 9919TIP3    H251173   2.154   4.633  10.627  0.4815 -1.1481  0.7441
 9920TIP3   OH251174   3.572   6.004   1.405 -0.2066 -0.0022  0.3194
 9920TIP3    H151175   3.598   6.091   1.436 -0.0901 -0.1606  0.6786
 9920TIP3    H251176   3.632   5.944   1.451 -0.3612 -0.2795  0.1614
 9921TIP3   OH251177   3.245   3.221   4.668 -0.3995 -0.2113 -0.4196
 9921TIP3    H151178   3.265   3.313   4.685 -1.5084 -0.1156  0.4171
 9921TIP3    H251179   3.153   3.211   4.692 -1.0469 -0.9605 -2.8754
 9922TIP3   OH251180   6.624   0.947   2.257  0.2099  0.1717 -0.0853
 9922TIP3    H151181   6.719   0.956   2.258  0.2541 -0.2625 -0.2043
 9922TIP3    H251182   6.601   0.923   2.346  0.3574 -1.0722 -0.3539
 9923TIP3   OH251183   6.874   0.482   5.554 -0.6528 -0.5325 -0.4531
 9923TIP3    H151184   6.794   0.452   5.512 -0.6967 -0.8494 -0.1492
 9923TIP3    H251185   6.912   0.403   5.593 -0.7115 -0.2173  0.2657
 9924TIP3   OH251186   0.639   0.883   3.808  0.6035 -0.1674 -0.4129
 9924TIP3    H151187   0.656   0.791   3.788  1.7342 -0.7819  2.8176
 9924TIP3    H251188   0.666   0.893   3.899  1.9152  3.7339 -1.0411
 9925TIP3   OH251189   2.663   3.946   1.797  0.3654  0.0952  0.3072
 9925TIP3    H151190   2.590   3.957   1.737  1.5554  1.2401 -1.0067
 9925TIP3    H251191   2.715   3.875   1.759  1.4282  1.2088 -0.3746
 9926TIP3   OH251192   7.201   0.582   9.753  0.3939 -0.4534 -0.3268
 9926TIP3    H151193   7.137   0.636   9.706  1.8969  2.1588  0.4363
 9926TIP3    H251194   7.262   0.645   9.792  1.0253 -2.6248  2.5229
 9927TIP3   OH251195   0.580   0.395  14.043  0.0211 -0.1287 -0.2959
 9927TIP3    H151196   0.557   0.333  14.112 -0.0900  0.5727  0.3134
 9927TIP3    H251197   0.510   0.387  13.979  0.1101 -0.7673 -0.3205
 9928TIP3   OH251198   6.715   6.332   0.399 -0.4793 -0.3372 -0.0680
 9928TIP3    H151199   6.723   6.401   0.465  2.0448  1.3856 -1.9763
 9928TIP3    H251200   6.660   6.371   0.330 -0.4198 -0.8629 -0.4200
 9929TIP3   OH251201   0.156   1.272   0.038 -0.0478 -0.0098 -0.7816
 9929TIP3    H151202   0.153   1.329  -0.038 -1.6791 -0.1974 -0.9037
 9929TIP3    H251203   0.159   1.331   0.113  2.3040  0.1715 -0.9618
 9930TIP3   OH251204   4.626   6.509   0.411 -0.4031 -0.0798  0.1766
 9930TIP3    H151205   4.720   6.527   0.414 -0.6205  1.2457 -0.1882
 9930TIP3    H251206   4.604   6.482   0.500  0.6255 -2.2570 -0.1577
 9931TIP3   OH251207   0.631   5.809   2.295 -0.3381 -0.1358 -0.5903
 9931TIP3    H151208   0.584   5.759   2.362  2.2688 -0.2925  1.2722
 9931TIP3    H251209   0.640   5.896   2.332 -0.0463  0.1685 -1.3526
 9932TIP3   OH251210   2.588   2.538   0.841  0.2814 -0.0142 -0.1675
 9932TIP3    H151211   2.673   2.499   0.823 -0.5038 -1.8231 -0.2202
 9932TIP3    H251212   2.554   2.561   0.754 -0.3952 -1.8511 -0.4358
 9933TIP3   OH251213   1.891   6.959   4.900 -0.4630 -0.1925 -0.0404
 9933TIP3    H151214   1.940   6.888   4.859  1.8899  0.8938  0.6930
 9933TIP3    H251215   1.928   7.039   4.862 -1.9491  0.6919  0.3075
 9934TIP3   OH251216   6.940   4.179   4.872 -0.2817 -0.8677  0.0609
 9934TIP3    H151217   7.019   4.224   4.844 -0.0875 -2.4541 -2.1870
 9934TIP3    H251218   6.961   4.086   4.863 -1.6311 -1.3822  1.7320
 9935TIP3   OH251219   4.663   0.295   1.327  0.1787 -0.3593  0.2260
 9935TIP3    H151220   4.597   0.349   1.284  0.2797  0.3606  0.9474
 9935TIP3    H251221   4.737   0.294   1.267  0.6797  1.4316  0.7712
 9936TIP3   OH251222   1.007   6.857  11.794  0.1308  0.7081 -0.0089
 9936TIP3    H151223   1.061   6.823  11.723  0.0014  0.3046  0.0823
 9936TIP3    H251224   0.955   6.927  11.753 -1.4290 -0.8478 -0.8320
 9937TIP3   OH251225   2.596   1.231   3.013 -0.5474  0.8447 -0.3282
 9937TIP3    H151226   2.613   1.137   3.023  1.1081  0.9462 -1.6117
 9937TIP3    H251227   2.508   1.244   3.048 -0.1191 -0.8546  1.5512
 9938TIP3   OH251228   1.407   0.689   4.177 -0.6684 -0.3267 -0.3539
 9938TIP3    H151229   1.314   0.694   4.200 -0.4571  2.9721  0.2268
 9938TIP3    H251230   1.448   0.761   4.225  1.7521 -0.0129 -2.6446
 9939TIP3   OH251231   0.133   4.525  12.952 -0.6379  0.3939  0.1478
 9939TIP3    H151232   0.073   4.454  12.927  0.2069 -1.0514  1.9336
 9939TIP3    H251233   0.142   4.578  12.873 -0.6405 -1.9733 -1.5520
 9940TIP3   OH251234   0.802   0.597   2.389  0.5879  0.3300  0.3563
 9940TIP3    H151235   0.817   0.543   2.311 -0.8094 -0.3096  0.5048
 9940TIP3    H251236   0.890   0.617   2.421  1.1762  0.1197 -1.0475
 9941TIP3   OH251237   5.719   4.461  10.100  0.4896 -0.2683 -0.0543
 9941TIP3    H151238   5.719   4.387  10.161  0.1328  0.0370  0.3230
 9941TIP3    H251239   5.810   4.467  10.070  0.4603 -1.0253 -0.2923
 9942TIP3   OH251240   5.345   3.461  12.280 -0.1198  0.8424  0.7390
 9942TIP3    H151241   5.413   3.488  12.342  0.3635 -0.7930  0.9759
 9942TIP3    H251242   5.385   3.391  12.229 -0.5984  1.9837 -1.3204
 9943TIP3   OH251243   4.332   4.540   0.340 -0.1875  0.9050 -0.2214
 9943TIP3    H151244   4.308   4.540   0.247 -0.1036 -1.3097 -0.2822
 9943TIP3    H251245   4.395   4.612   0.348 -2.9283  3.6170 -1.0645
 9944TIP3   OH251246   3.357   1.347   2.400  0.2758 -0.1062  0.6843
 9944TIP3    H151247   3.277   1.301   2.376  0.8138 -1.1269  0.8111
 9944TIP3    H251248   3.339   1.381   2.488 -0.1091 -0.1086  0.6080
 9945TIP3   OH251249   0.117   3.324  10.395 -0.0365  0.0982 -0.0580
 9945TIP3    H151250   0.050   3.284  10.451 -1.9704  1.3678 -1.3263
 9945TIP3    H251251   0.117   3.268  10.316  1.2265 -0.5250  0.3621
 9946TIP3   OH251252   0.741   2.804   1.105  0.3528  0.0888 -0.0178
 9946TIP3    H151253   0.802   2.733   1.125  0.6538  0.2270 -0.4152
 9946TIP3    H251254   0.785   2.854   1.036  0.4689  1.0851  0.7574
 9947TIP3   OH251255   1.718   6.346  13.248 -0.6064  0.0148 -0.2569
 9947TIP3    H151256   1.813   6.330  13.246 -0.7128 -0.6489 -0.2896
 9947TIP3    H251257   1.704   6.395  13.328 -0.2862 -0.3014 -0.0005
 9948TIP3   OH251258   5.868   0.550  12.523 -0.0311  0.1681  0.6474
 9948TIP3    H151259   5.787   0.529  12.569  0.8168 -2.0915  1.2308
 9948TIP3    H251260   5.923   0.472  12.535  1.2599  0.6056 -1.8913
 9949TIP3   OH251261   5.034   4.078   0.571  0.1868 -0.1916 -0.3559
 9949TIP3    H151262   5.084   4.117   0.643  0.4761  0.1670 -0.7457
 9949TIP3    H251263   4.985   4.007   0.612 -0.2903  0.5264  0.3609
 9950TIP3   OH251264   3.461   1.353   3.396 -0.0093 -0.0378  0.0982
 9950TIP3    H151265   3.557   1.358   3.395  0.1219 -0.7358  2.2948
 9950TIP3    H251266   3.433   1.441   3.421  0.1442 -0.1600  0.7194
 9951TIP3   OH251267   3.431   1.162  12.205 -0.3974  0.1623  0.4819
 9951TIP3    H151268   3.425   1.231  12.139 -2.9330 -1.8029 -1.5446
 9951TIP3    H251269   3.483   1.093  12.164 -1.9254 -1.0515  0.4960
 9952TIP3   OH251270   2.053   2.798  14.189  0.4703 -0.1781 -0.5585
 9952TIP3    H151271   1.964   2.828  14.208  0.2672 -0.6644 -0.7470
 9952TIP3    H251272   2.058   2.796  14.093  1.3013  1.6993 -0.6016
 9953TIP3   OH251273   1.401   6.221  12.587 -0.2189  0.0072 -0.3247
 9953TIP3    H151274   1.423   6.160  12.517  1.9580 -0.4489  0.6625
 9953TIP3    H251275   1.396   6.165  12.665 -0.1310  0.8410  0.2858
 9954TIP3   OH251276   5.267   0.110  14.940  0.4781 -0.0763  0.2687
 9954TIP3    H151277   5.228   0.134  15.025  1.2785 -0.7661  0.8403
 9954TIP3    H251278   5.252   0.016  14.933 -1.3884  0.2652 -1.3154
 9955TIP3   OH251279   6.409   2.540   5.229  0.0714  0.3638  0.2452
 9955TIP3    H151280   6.455   2.468   5.274 -0.2885  0.3901  0.6530
 9955TIP3    H251281   6.406   2.511   5.138  0.2566  0.0266  0.3403
 9956TIP3   OH251282   2.882   6.385  14.250  0.0334 -0.3387  0.2101
 9956TIP3    H151283   2.814   6.404  14.316  0.7242  1.3321  0.4911
 9956TIP3    H251284   2.880   6.461  14.192  2.1589  0.1073  0.6660
 9957TIP3   OH251285   3.964   3.461  11.964  0.2640  0.4171  0.3379
 9957TIP3    H151286   3.919   3.457  12.049 -0.8696 -0.3770 -0.2744
 9957TIP3    H251287   3.934   3.543  11.925 -1.3577 -0.4736 -0.4043
 9958TIP3   OH251288   6.631   0.054   4.636  0.0107 -0.1339  0.2850
 9958TIP3    H151289   6.546   0.027   4.668  0.2708 -0.9066  0.3408
 9958TIP3    H251290   6.676   0.089   4.713 -0.6764  1.4236  0.0264
 9959TIP3   OH251291   5.161   1.903   3.182  0.2140  0.8343 -0.2899
 9959TIP3    H151292   5.108   1.982   3.169  1.0700  1.3190 -0.9264
 9959TIP3    H251293   5.250   1.930   3.162  1.0390  0.5095  2.5383
 9960TIP3   OH251294   5.012   6.196  10.398  0.6292 -0.1916 -0.2956
 9960TIP3    H151295   4.927   6.158  10.378 -0.0866  1.2933 -0.2268
 9960TIP3    H251296   5.027   6.260  10.328  0.2858  1.6735  1.2421
 9961TIP3   OH251297   3.933   6.653   1.807  0.3730 -0.1892 -0.3826
 9961TIP3    H151298   4.017   6.615   1.784  1.8242  1.8450  1.1754
 9961TIP3    H251299   3.902   6.694   1.726  1.7176  0.4574 -0.5902
 9962TIP3   OH251300   0.264   2.821  10.592 -0.3401 -0.1947  0.4140
 9962TIP3    H151301   0.212   2.802  10.514 -0.6619 -0.4465  0.6905
 9962TIP3    H251302   0.355   2.817  10.561 -0.4495 -0.7206  0.1511
 9963TIP3   OH251303   0.891   6.023  12.805 -0.0500 -0.1335  0.2917
 9963TIP3    H151304   0.983   6.036  12.783 -0.5186  1.0357 -1.1746
 9963TIP3    H251305   0.877   5.929  12.798  1.2883 -0.4802  1.7223
 9964TIP3   OH251306   3.647   4.195   1.652 -0.0235  0.1376 -0.9658
 9964TIP3    H151307   3.576   4.236   1.603  0.0271 -0.9516 -1.9972
 9964TIP3    H251308   3.686   4.267   1.702 -1.9860  0.7038 -0.1560
 9965TIP3   OH251309   3.259   6.909   0.604  0.1118 -0.4810  0.7398
 9965TIP3    H151310   3.280   6.969   0.533 -0.9567  0.7565  1.4166
 9965TIP3    H251311   3.231   6.829   0.560  1.3586 -0.4277 -0.1868
 9966TIP3   OH251312   4.630   3.690   2.086 -0.1268  0.4851  0.6124
 9966TIP3    H151313   4.601   3.740   2.162  0.3863  0.6872  0.6756
 9966TIP3    H251314   4.637   3.754   2.016 -1.5631  0.1341  0.1241
 9967TIP3   OH251315   1.827   5.828   0.978 -0.2553  0.3247 -0.3665
 9967TIP3    H151316   1.768   5.756   1.004 -0.5867  0.6221 -0.2830
 9967TIP3    H251317   1.882   5.790   0.910  0.5473 -0.4437  0.6672
 9968TIP3   OH251318   1.440   4.086  15.234  0.4201 -0.3293  0.3117
 9968TIP3    H151319   1.448   4.175  15.266 -0.8676 -0.0532 -0.0902
 9968TIP3    H251320   1.503   4.081  15.162 -1.2012  1.0404 -1.2798
 9969TIP3   OH251321   4.663   6.110  12.442  0.1445 -0.5197  0.3279
 9969TIP3    H151322   4.658   6.019  12.412  1.3237  0.4002 -3.1308
 9969TIP3    H251323   4.577   6.147  12.423 -0.2872 -0.7999  1.6010
 9970TIP3   OH251324   1.670   6.181   3.776 -0.3927 -0.2312 -0.4267
 9970TIP3    H151325   1.750   6.170   3.827 -1.5300 -1.7418  1.1637
 9970TIP3    H251326   1.648   6.274   3.786  0.8725  0.1056 -0.5126
 9971TIP3   OH251327   0.637   6.002   5.745  0.7243 -0.2445  0.5375
 9971TIP3    H151328   0.719   5.970   5.783  0.8285 -0.3091  0.2617
 9971TIP3    H251329   0.606   5.929   5.692  1.3618  0.3633 -0.7318
 9972TIP3   OH251330   5.745   3.788   1.436  0.3043  0.0980  0.2055
 9972TIP3    H151331   5.838   3.805   1.446 -0.0098  0.5004  3.3002
 9972TIP3    H251332   5.732   3.699   1.470 -0.2553 -0.7057 -1.8986
 9973TIP3   OH251333   6.399   0.279   2.983  0.4541 -0.3952  0.5989
 9973TIP3    H151334   6.357   0.241   3.059  1.2773 -1.4483  0.5421
 9973TIP3    H251335   6.399   0.210   2.917  0.4909  0.2298 -0.0782
 9974TIP3   OH251336   6.659   6.007   3.868  0.1592 -0.0549  1.2500
 9974TIP3    H151337   6.687   6.041   3.783  0.1828 -0.8037  0.9487
 9974TIP3    H251338   6.563   6.012   3.866  0.0656 -1.6281  0.4910
 9975TIP3   OH251339   6.703   6.990   2.135 -0.3201  0.3386  0.1145
 9975TIP3    H151340   6.767   6.954   2.073  0.2473  1.0659  0.2702
 9975TIP3    H251341   6.755   7.026   2.206 -0.8054  2.2148 -0.4239
 9976TIP3   OH251342   4.192   2.774   2.621 -0.1171  0.4995 -0.2699
 9976TIP3    H151343   4.125   2.706   2.614  3.1801 -3.1375 -0.3171
 9976TIP3    H251344   4.179   2.828   2.543 -3.7460  0.9330  0.4743
 9977TIP3   OH251345   2.235   6.844  10.090 -0.1384  0.9222 -0.3648
 9977TIP3    H151346   2.297   6.909  10.058 -0.3155  1.0412 -0.4681
 9977TIP3    H251347   2.231   6.859  10.185 -0.1778  1.0581 -0.3884
 9978TIP3   OH251348   4.669   3.105  10.309 -0.3671  0.4174 -0.4450
 9978TIP3    H151349   4.682   3.032  10.369 -0.3864  0.7886  0.0209
 9978TIP3    H251350   4.635   3.065  10.229 -1.8505  0.0613  0.3272
 9979TIP3   OH251351   5.092   4.443  12.375  0.4998  0.8195 -0.2485
 9979TIP3    H151352   5.018   4.382  12.381 -0.2373  1.8478  2.2532
 9979TIP3    H251353   5.056   4.520  12.332  0.4631  0.8385 -0.1840
 9980TIP3   OH251354   0.044   5.509  12.335  0.5124 -0.1210  0.7555
 9980TIP3    H151355  -0.037   5.547  12.303 -0.6552 -1.3022  2.1474
 9980TIP3    H251356   0.103   5.584  12.348 -0.6864  0.8602  0.6332
 9981TIP3   OH251357   6.363   0.035   1.401  0.6372  0.5725 -0.5528
 9981TIP3    H151358   6.448   0.050   1.360  2.2844 -2.0850  1.4795
 9981TIP3    H251359   6.345  -0.057   1.385 -0.1289  0.2201  1.8765
 9982TIP3   OH251360   2.787   1.207  13.161 -0.4450 -0.3472  0.4958
 9982TIP3    H151361   2.857   1.273  13.159 -0.2751 -0.5320  0.2225
 9982TIP3    H251362   2.823   1.133  13.112 -0.4463 -0.8365  1.2304
 9983TIP3   OH251363   5.366   1.743   2.320  0.3443 -0.0032  0.2065
 9983TIP3    H151364   5.352   1.722   2.227  2.3016 -0.0485 -0.1114
 9983TIP3    H251365   5.442   1.691   2.345  0.3446  0.6440  1.6237
 9984TIP3   OH251366   3.897   1.089  12.327  0.1242  0.0767 -0.0051
 9984TIP3    H151367   3.956   1.103  12.401 -1.3722  2.4657  0.8952
 9984TIP3    H251368   3.821   1.045  12.366 -1.0335  2.0897  0.1846
 9985TIP3   OH251369   3.929   3.809  12.313  0.3563 -0.7304 -0.2742
 9985TIP3    H151370   3.859   3.803  12.248 -1.9376  3.2046  1.5219
 9985TIP3    H251371   3.923   3.727  12.362 -0.9846 -1.7474 -2.0121
 9986TIP3   OH251372   2.915   2.325  14.990  0.3279 -0.3376  0.5545
 9986TIP3    H151373   2.921   2.284  14.904 -0.0236 -1.4290  1.0412
 9986TIP3    H251374   3.006   2.340  15.016  0.4409 -0.2130  0.0933
 9987TIP3   OH251375   2.282   6.298   4.793  0.0138 -0.1105 -0.2300
 9987TIP3    H151376   2.216   6.294   4.863 -1.9017  0.2510 -1.8948
 9987TIP3    H251377   2.363   6.270   4.834 -0.8380  0.8644  2.3336
 9988TIP3   OH251378   7.110   1.842  12.601 -0.1207  0.0991 -0.4450
 9988TIP3    H151379   7.147   1.761  12.566 -1.7181 -0.2488 -1.4328
 9988TIP3    H251380   7.025   1.851  12.557 -0.0501  2.2425 -0.2620
 9989TIP3   OH251381   0.455   5.571   2.778 -0.1981  0.0830 -0.0644
 9989TIP3    H151382   0.449   5.666   2.767  0.0267  0.1778  0.5698
 9989TIP3    H251383   0.445   5.536   2.690  1.8417  0.7955 -0.6298
 9990TIP3   OH251384   1.110   1.583  14.821 -0.0795 -0.0234  0.3289
 9990TIP3    H151385   1.186   1.617  14.867 -0.1889  0.1712  0.3680
 9990TIP3    H251386   1.083   1.507  14.872  0.0186 -0.0235  0.3809
 9991TIP3   OH251387   5.202   1.079  14.846  0.0007  0.0901  0.3241
 9991TIP3    H151388   5.261   1.116  14.912  0.2613 -0.8976  0.6621
 9991TIP3    H251389   5.234   0.990  14.832 -0.0562  0.2774 -1.1380
 9992TIP3   OH251390   6.922   2.984  11.871 -0.1919  0.1150 -0.1632
 9992TIP3    H151391   7.016   2.972  11.883 -0.4160  0.0766  1.8410
 9992TIP3    H251392   6.890   2.899  11.840 -0.0033 -0.9290  2.3231
 9993TIP3   OH251393   2.080   5.316  12.706  0.2831 -0.6315 -0.0165
 9993TIP3    H151394   2.129   5.234  12.719  0.7965 -0.6221 -1.6494
 9993TIP3    H251395   2.028   5.300  12.627  1.6157  1.1298 -1.3367
 9994TIP3   OH251396   3.768   0.237  11.976  0.3786 -0.0562 -0.6140
 9994TIP3    H151397   3.795   0.313  12.028  1.0754  0.0332 -1.1018
 9994TIP3    H251398   3.842   0.177  11.982  0.4683 -0.0398 -1.5119
 9995TIP3   OH251399   3.505   0.079   9.902  0.9759  0.2360 -0.3207
 9995TIP3    H151400   3.453   0.131   9.964  2.0697 -1.0832  1.8149
 9995TIP3    H251401   3.574   0.138   9.872  0.3885  0.9110 -0.3618
 9996TIP3   OH251402   0.782   1.250  10.832  0.2943  0.3572  0.6620
 9996TIP3    H151403   0.752   1.230  10.920 -0.7088  0.7805  0.4304
 9996TIP3    H251404   0.716   1.212  10.774  0.4362  0.9001  0.1208
 9997TIP3   OH251405   1.602   4.607   9.439 -0.0784  0.2570  0.2377
 9997TIP3    H151406   1.643   4.694   9.445  0.4400  0.0128  0.3342
 9997TIP3    H251407   1.579   4.586   9.530  0.7453 -0.1430  0.3676
 9998TIP3   OH251408   0.627   3.838  12.229  0.4116  0.0586 -0.2976
 9998TIP3    H151409   0.533   3.843  12.211  0.5237  1.6539 -0.5632
 9998TIP3    H251410   0.669   3.862  12.146  1.0777 -0.9238 -0.2659
 9999TIP3   OH251411   3.306   6.029   4.017 -0.4463  0.4505  0.2678
 9999TIP3    H151412   3.351   6.080   3.950  2.1942 -2.0423 -0.0833
 9999TIP3    H251413   3.261   5.960   3.969 -2.4940  1.3391  0.8314
10000TIP3   OH251414   2.632   5.393  14.889  0.2545  0.2413 -0.0257
10000TIP3    H151415   2.681   5.474  14.903 -0.8406  0.7664  0.8834
10000TIP3    H251416   2.697   5.324  14.900  0.8136  0.9224  1.1147
10001TIP3   OH251417   1.061   4.025   3.195 -0.2835  0.3089  0.0271
10001TIP3    H151418   1.080   3.945   3.243 -1.7686 -0.6147 -0.8240
10001TIP3    H251419   0.965   4.029   3.192 -0.2339  1.8447 -0.3923
10002TIP3   OH251420   0.513   0.362  12.606  0.0917 -0.3925  0.2445
10002TIP3    H151421   0.484   0.441  12.561  0.0124 -0.5015  0.0994
10002TIP3    H251422   0.449   0.296  12.580  1.6802 -1.2172 -1.8904
10003TIP3   OH251423   5.728   5.119  12.850  0.1937 -0.4993 -0.1619
10003TIP3    H151424   5.800   5.136  12.790  1.3113 -1.3473  0.8837
10003TIP3    H251425   5.672   5.056  12.804  0.0707  0.2181 -1.0094
10004TIP3   OH251426   3.160   3.442   0.984  0.5604  0.2434 -0.4405
10004TIP3    H151427   3.209   3.433   1.066  1.2176  0.5162 -0.8011
10004TIP3    H251428   3.223   3.417   0.916 -0.6693 -2.4434 -0.7281
10005TIP3   OH251429   4.655   3.580  15.107  0.8375  0.1368  0.0540
10005TIP3    H151430   4.698   3.527  15.040 -0.4441 -4.6594  2.5560
10005TIP3    H251431   4.722   3.592  15.174  0.6334  0.1445  0.2547
10006TIP3   OH251432   1.705   4.025  13.388 -0.1706  0.2590 -0.1847
10006TIP3    H151433   1.753   4.091  13.338 -0.0279  0.9324  0.8075
10006TIP3    H251434   1.628   4.072  13.422 -1.6264 -0.8163 -1.8190
10007TIP3   OH251435   7.031   1.852   4.719 -1.0712 -0.1304  0.2342
10007TIP3    H151436   7.039   1.912   4.644  2.3591  0.0173  0.5584
10007TIP3    H251437   7.051   1.766   4.683  1.0096 -0.0042  0.9590
10008TIP3   OH251438   6.447   2.449  10.587  0.6030  0.2373  0.0352
10008TIP3    H151439   6.537   2.427  10.614  0.5950 -0.0210 -0.1392
10008TIP3    H251440   6.459   2.499  10.506  0.6392  1.2441  0.6545
10009TIP3   OH251441   3.978   3.371  11.595 -0.6532 -0.2281 -0.5922
10009TIP3    H151442   4.028   3.369  11.513  0.7218  0.3728  0.2031
10009TIP3    H251443   4.027   3.431  11.651 -1.2282 -1.1225  0.9061
10010TIP3   OH251444   0.533   3.517  14.268  0.1535  0.3155 -0.7386
10010TIP3    H151445   0.625   3.543  14.264 -0.0607  1.7138  1.4001
10010TIP3    H251446   0.504   3.545  14.355 -1.8370 -1.7098 -0.6448
10011TIP3   OH251447   6.936   4.471  12.535 -0.3900 -0.9238 -0.7898
10011TIP3    H151448   6.855   4.447  12.580  0.0208  0.3924  0.7373
10011TIP3    H251449   6.908   4.510  12.453 -1.3320 -0.2290 -0.1550
10012TIP3   OH251450   7.092   3.954   0.413 -0.1520  0.3848  0.2011
10012TIP3    H151451   7.140   4.012   0.472 -0.2180 -0.3314  0.9849
10012TIP3    H251452   7.067   3.879   0.468  0.7189 -0.8264 -0.9755
10013TIP3   OH251453   5.281   2.477   0.136 -0.6486 -0.2147 -0.2564
10013TIP3    H151454   5.277   2.544   0.203  0.1094 -0.9517  0.5524
10013TIP3    H251455   5.316   2.522   0.059  2.1072 -0.1394  0.9421
10014TIP3   OH251456   4.720   4.407   3.639  0.3984 -0.0582 -0.6031
10014TIP3    H151457   4.722   4.313   3.659  1.2506  0.1338  0.3013
10014TIP3    H251458   4.781   4.446   3.701  0.9763  0.9473 -1.7509
10015TIP3   OH251459   2.788   5.901   3.085 -0.6853  0.6371 -0.2037
10015TIP3    H151460   2.750   5.966   3.143 -1.8183 -2.0320  2.2718
10015TIP3    H251461   2.848   5.852   3.140  0.4765 -0.1659 -2.0964
10016TIP3   OH251462   6.724   1.966  12.824  0.4214 -0.5896 -0.9920
10016TIP3    H151463   6.757   1.935  12.908  2.7467  0.0660 -1.5850
10016TIP3    H251464   6.697   1.887  12.778  0.2347 -1.0726 -0.0759
10017TIP3   OH251465   5.729   6.831  13.691 -0.8770  0.4748  0.0820
10017TIP3    H151466   5.660   6.764  13.696 -0.8099  0.2283 -1.8372
10017TIP3    H251467   5.688   6.910  13.724 -1.9884  0.2496 -0.7294
10018TIP3   OH251468   2.902   4.256  11.530 -0.1570 -0.1062  0.2816
10018TIP3    H151469   2.890   4.351  11.529  2.0754  0.2652  2.1981
10018TIP3    H251470   2.996   4.243  11.520 -0.5211 -2.2309 -1.1753
10019TIP3   OH251471   0.907   1.196   0.160 -0.6027 -0.3843 -0.4694
10019TIP3    H151472   0.842   1.266   0.157 -2.0285 -1.6506 -0.3183
10019TIP3    H251473   0.933   1.183   0.068  0.3413  0.9041 -0.4073
10020TIP3   OH251474   5.011   5.100   1.942  0.0026  0.5460  1.0026
10020TIP3    H151475   5.067   5.109   2.019  0.7072 -1.7472  0.8495
10020TIP3    H251476   5.053   5.030   1.891 -0.7237  1.6457 -1.2188
10021TIP3   OH251477   4.080   5.846  12.031  0.7525 -0.3171  0.3275
10021TIP3    H151478   4.006   5.795  11.998  0.7896 -0.1583 -0.0050
10021TIP3    H251479   4.076   5.929  11.983  0.2596  0.2966  1.4031
10022TIP3   OH251480   4.085   1.033   1.840  0.2928 -0.7570  0.0735
10022TIP3    H151481   3.990   1.028   1.846  0.3118 -0.4083  0.8948
10022TIP3    H251482   4.112   1.074   1.923  1.0165  0.7182 -0.8365
10023TIP3   OH251483   6.920   0.486  13.056 -0.0333  0.3304  0.4763
10023TIP3    H151484   6.864   0.505  12.980 -1.0805  1.3823  1.4894
10023TIP3    H251485   6.917   0.565  13.109  1.6872  0.0631  1.0437
10024TIP3   OH251486   0.761   2.660   9.902 -0.1862 -0.3798 -0.4486
10024TIP3    H151487   0.762   2.584   9.845 -1.7371 -0.3109 -0.6209
10024TIP3    H251488   0.729   2.627   9.986 -1.5151  0.1547 -0.7115
10025TIP3   OH251489   6.305   1.824   0.003 -0.4155  0.0514 -0.3682
10025TIP3    H151490   6.301   1.913   0.037  0.7945  0.3745 -0.9985
10025TIP3    H251491   6.263   1.828  -0.083  0.2224  0.1701 -0.6796
10026TIP3   OH251492   4.746   1.420   1.442  0.0293 -0.3845  0.1302
10026TIP3    H151493   4.773   1.459   1.525  1.7565 -1.3277  0.0546
10026TIP3    H251494   4.723   1.330   1.465 -0.9265 -0.2385 -0.1998
10027TIP3   OH251495   4.896   4.228  12.223  0.4163  0.0693 -0.2957
10027TIP3    H151496   4.826   4.283  12.259 -0.1643 -0.0196 -1.2673
10027TIP3    H251497   4.902   4.254  12.131 -0.8806 -2.4583 -1.1757
10028TIP3   OH251498   1.659   5.400  11.343  0.2180 -0.0362 -0.2635
10028TIP3    H151499   1.696   5.351  11.417 -0.1974 -3.0411 -1.8904
10028TIP3    H251500   1.590   5.454  11.383  0.6209 -0.8498  1.6504
10029TIP3   OH251501   2.103   4.345   2.236  0.0857 -0.3277 -0.1667
10029TIP3    H151502   2.192   4.371   2.261  0.5378 -1.2096 -0.8033
10029TIP3    H251503   2.114   4.304   2.150 -1.0772  0.4174 -0.6993
10030TIP3   OH251504   4.321   6.129   0.891  0.4369 -0.1031 -0.1009
10030TIP3    H151505   4.360   6.043   0.907 -0.2813 -0.1928  1.3596
10030TIP3    H251506   4.381   6.172   0.831  1.1902 -1.3569 -0.2754
10031TIP3   OH251507   5.521   2.461  13.383  0.2821 -0.1157 -0.8547
10031TIP3    H151508   5.506   2.535  13.442  0.5614 -1.0303  0.3990
10031TIP3    H251509   5.436   2.446  13.342  0.2912  1.0656 -1.3520
10032TIP3   OH251510   3.846   4.446   1.100 -0.2548  0.4221  0.1743
10032TIP3    H151511   3.880   4.405   1.021  1.9476  3.0494 -0.3888
10032TIP3    H251512   3.839   4.539   1.078 -4.2226  0.6634  1.6101
10033TIP3   OH251513   2.725   0.074   9.396  0.0023  0.3786 -0.2721
10033TIP3    H151514   2.812   0.074   9.357 -0.4953  2.2621 -1.4517
10033TIP3    H251515   2.730   0.006   9.464  2.1094 -0.1409 -0.8781
10034TIP3   OH251516   4.200   2.786  11.805 -0.7452 -0.5147 -0.1726
10034TIP3    H151517   4.151   2.776  11.724  0.9776  0.6707 -1.4213
10034TIP3    H251518   4.181   2.876  11.834 -2.9951 -1.5460  1.9562
10035TIP3   OH251519   0.953   0.182   3.775  0.3849  0.2507  0.5016
10035TIP3    H151520   1.031   0.161   3.827  0.2091 -0.6499  0.4140
10035TIP3    H251521   0.916   0.259   3.817  0.2086 -0.5022  1.7644
10036TIP3   OH251522   4.303   6.629  14.163 -0.4094  0.8320 -0.1430
10036TIP3    H151523   4.322   6.722  14.155  0.2863  0.9490  2.1286
10036TIP3    H251524   4.377   6.593  14.212 -0.0068 -1.2109 -2.0632
10037TIP3   OH251525   1.043   5.040  13.137  0.1291 -0.3646 -0.5247
10037TIP3    H151526   0.998   5.084  13.065 -1.3239 -1.4161 -0.3139
10037TIP3    H251527   1.000   5.072  13.216  0.4103 -0.6612 -0.2454
10038TIP3   OH251528   3.584   0.290   2.737 -0.2643 -0.0820 -0.0569
10038TIP3    H151529   3.637   0.367   2.720 -0.4933  0.1618  0.2994
10038TIP3    H251530   3.589   0.238   2.657 -0.7178  0.6677 -0.5906
10039TIP3   OH251531   5.330   2.543  11.643  0.1869  0.8905 -0.3333
10039TIP3    H151532   5.324   2.597  11.723  0.3978  0.9375 -0.3503
10039TIP3    H251533   5.414   2.567  11.604 -0.5169  1.8947 -1.3023
10040TIP3   OH251534   1.237   5.543   3.418 -0.2661 -0.1141  0.2659
10040TIP3    H151535   1.205   5.606   3.354  1.5470  2.0833  1.3508
10040TIP3    H251536   1.199   5.460   3.392 -2.4526  1.3378 -1.5053
10041TIP3   OH251537   0.854   2.292   1.406  0.4405  0.1306 -0.0345
10041TIP3    H151538   0.793   2.366   1.411  1.1265  0.8357 -1.3481
10041TIP3    H251539   0.940   2.334   1.393  1.7519 -0.6554  4.5540
10042TIP3   OH251540   6.220   3.176   1.494  0.7381 -0.6573 -0.2052
10042TIP3    H151541   6.288   3.180   1.561 -0.3717 -2.5526  1.1510
10042TIP3    H251542   6.211   3.082   1.474 -1.0290 -0.4130 -0.7651
10043TIP3   OH251543   0.174   1.084  11.741 -0.0454 -0.0278  0.3549
10043TIP3    H151544   0.249   1.080  11.682 -0.5375 -1.8085 -0.2082
10043TIP3    H251545   0.127   1.163  11.714  0.6646  0.1152 -0.5035
10044TIP3   OH251546   0.094   6.931  10.860 -0.7877 -0.0172 -0.1266
10044TIP3    H151547   0.182   6.924  10.823 -0.9059 -0.9169 -0.2718
10044TIP3    H251548   0.040   6.964  10.788 -0.3821  1.6457  0.2870
10045TIP3   OH251549   2.276   5.073   1.349 -0.3094  0.1716 -0.0465
10045TIP3    H151550   2.219   5.009   1.393 -0.1407 -0.1374 -0.2732
10045TIP3    H251551   2.354   5.077   1.403 -0.9715  1.4129  0.8719
10046TIP3   OH251552   6.942   4.203   5.403  1.1139  0.5092  0.1186
10046TIP3    H151553   6.967   4.165   5.487 -0.9714  0.0482  0.5901
10046TIP3    H251554   6.989   4.151   5.338 -0.0166 -1.5620  0.8616
10047TIP3   OH251555   3.558   4.925  14.248 -0.2085  0.7446  0.8054
10047TIP3    H151556   3.570   5.019  14.263 -1.7985  0.9335  1.0033
10047TIP3    H251557   3.479   4.902  14.296 -2.4032  0.2368 -2.6922
10048TIP3   OH251558   5.191   0.520  14.202 -0.3688 -0.5586  0.1366
10048TIP3    H151559   5.248   0.448  14.174 -0.4387 -0.2607 -0.8034
10048TIP3    H251560   5.108   0.478  14.223 -0.4444 -0.7417 -0.5188
10049TIP3   OH251561   1.289   0.215  11.347 -0.5071  0.2481  0.3048
10049TIP3    H151562   1.322   0.127  11.368  1.7759  1.0598  0.4257
10049TIP3    H251563   1.204   0.220  11.391  0.0491 -1.3208  1.6636
10050TIP3   OH251564   4.464   4.478   1.473  0.4708  0.2061  0.1701
10050TIP3    H151565   4.392   4.435   1.520  0.4305  0.2384  0.1378
10050TIP3    H251566   4.540   4.424   1.494  0.5475  0.5072  0.6803
10051TIP3   OH251567   0.399   2.497   1.773  0.2387  0.0219  0.1456
10051TIP3    H151568   0.310   2.464   1.779 -0.2538  1.4274  1.2323
10051TIP3    H251569   0.442   2.439   1.710 -0.7353 -2.1837  1.4053
10052TIP3   OH251570   3.303   6.578  14.266 -0.4125 -0.8424  0.0787
10052TIP3    H151571   3.262   6.564  14.181 -1.2098 -1.8441  0.6147
10052TIP3    H251572   3.397   6.565  14.251  0.1080  3.1704 -1.5587
10053TIP3   OH251573   4.105   1.658  13.328 -0.4511 -0.5431  0.4843
10053TIP3    H151574   4.119   1.704  13.245  0.3796 -2.8770 -0.7719
10053TIP3    H251575   4.017   1.684  13.355 -0.8752  0.0398 -1.3116
10054TIP3   OH251576   4.571   6.440   4.613 -0.3308  0.1191  0.1541
10054TIP3    H151577   4.632   6.371   4.585  0.6543  1.6806 -1.8950
10054TIP3    H251578   4.574   6.438   4.708  1.4090 -1.1828  0.1283
10055TIP3   OH251579   3.697   0.017  11.221  0.5250  0.1686  0.4894
10055TIP3    H151580   3.720   0.018  11.314  0.8652 -0.7973  0.4230
10055TIP3    H251581   3.637  -0.057  11.212 -0.5243  1.0346  0.1628
10056TIP3   OH251582   5.287   2.158   2.684 -0.2454  0.0523  0.0505
10056TIP3    H151583   5.341   2.227   2.646 -0.2965 -0.7501 -1.5722
10056TIP3    H251584   5.198   2.191   2.677 -0.3879 -0.5849 -1.7969
10057TIP3   OH251585   1.953   6.368  10.664 -0.1521  0.2838 -0.1424
10057TIP3    H151586   1.894   6.377  10.739  0.6083  1.6018  0.3250
10057TIP3    H251587   1.910   6.304  10.607 -0.2374 -1.5977  1.9050
10058TIP3   OH251588   5.477   3.072  12.313  0.0280  0.1149 -0.2545
10058TIP3    H151589   5.465   3.127  12.236 -0.0796 -1.3518 -1.3284
10058TIP3    H251590   5.558   3.024  12.296 -0.1261 -0.4126  0.4299
10059TIP3   OH251591   0.740   1.959  13.965 -0.0265  0.1954 -0.3953
10059TIP3    H151592   0.812   1.924  14.017  0.5100 -0.5121 -1.5778
10059TIP3    H251593   0.733   2.050  13.992  0.3601 -0.0989  0.7650
10060TIP3   OH251594   1.679   6.946   0.815 -0.2736  0.4862 -0.4765
10060TIP3    H151595   1.685   6.874   0.877 -0.4268  1.6516  0.9564
10060TIP3    H251596   1.741   6.924   0.745  0.0714 -0.7448  0.2009
10061TIP3   OH251597   3.408   6.292  14.338  0.4619 -0.0406 -0.3261
10061TIP3    H151598   3.314   6.289  14.323  0.7000 -0.2325 -1.9981
10061TIP3    H251599   3.438   6.203  14.320  1.0582  0.1856 -0.4939
10062TIP3   OH251600   3.873   4.732   0.464  0.6849 -0.4480 -0.2184
10062TIP3    H151601   3.870   4.663   0.397 -0.8836 -0.2081 -0.4251
10062TIP3    H251602   3.886   4.684   0.546 -1.4947 -1.1451 -0.2190
10063TIP3   OH251603   6.268   7.018   1.279  0.4876  0.5446 -0.3531
10063TIP3    H151604   6.204   7.020   1.208  0.5421 -0.9625 -0.4784
10063TIP3    H251605   6.242   6.943   1.332  1.1017  0.9962  0.6181
10064TIP3   OH251606   6.696   1.960   1.802 -0.1717 -0.3565 -0.0157
10064TIP3    H151607   6.744   2.043   1.799 -1.1734  0.3921  2.3132
10064TIP3    H251608   6.643   1.960   1.722 -1.4576  2.1504  0.7323
10065TIP3   OH251609   5.947   4.838   1.730 -0.4384 -0.8828 -0.2985
10065TIP3    H151610   5.942   4.775   1.802 -1.2084 -0.0468  0.4043
10065TIP3    H251611   6.036   4.829   1.696  0.9211  0.5947  2.5361
10066TIP3   OH251612   5.213   1.170   1.736  0.3187 -0.2710  0.0867
10066TIP3    H151613   5.118   1.162   1.744  0.1642  1.4454  0.3185
10066TIP3    H251614   5.227   1.214   1.652  0.8612  0.2371  0.4388
10067TIP3   OH251615   1.425   0.430  11.502 -0.6988 -0.1223  0.1020
10067TIP3    H151616   1.477   0.507  11.476  1.5658 -1.4643  0.3559
10067TIP3    H251617   1.362   0.418  11.431 -1.4515  2.2367  0.3022
10068TIP3   OH251618   5.410   1.867   0.292  0.9723  0.0787 -0.0970
10068TIP3    H151619   5.345   1.925   0.334  0.9031  1.0889 -1.5277
10068TIP3    H251620   5.440   1.811   0.363 -0.8607  0.1313  0.8009
10069TIP3   OH251621   1.422   2.140  13.504  0.0119  0.0538  0.6660
10069TIP3    H151622   1.337   2.147  13.459  1.4215  0.2960 -2.1657
10069TIP3    H251623   1.437   2.046  13.511  0.4068 -0.0261 -0.8045
10070TIP3   OH251624   4.301   0.760  14.064 -0.2064  0.4707 -0.2533
10070TIP3    H151625   4.310   0.853  14.082  2.6386  0.7083 -2.0899
10070TIP3    H251626   4.249   0.756  13.984 -1.8948  0.2949  0.8104
10071TIP3   OH251627   1.605   6.725   3.037 -0.3069 -0.1996 -0.2200
10071TIP3    H151628   1.574   6.675   2.961 -2.8903 -0.5834  0.9650
10071TIP3    H251629   1.560   6.809   3.030  2.0393  1.0721 -0.8293
10072TIP3   OH251630   5.323   2.665   2.103 -0.5022  0.2793  0.1035
10072TIP3    H151631   5.287   2.666   2.192 -0.4823 -1.5688  0.1724
10072TIP3    H251632   5.268   2.726   2.054 -1.9667 -0.3460  0.8852
10073TIP3   OH251633   2.815   5.368  13.323 -0.5732 -0.1109  0.2060
10073TIP3    H151634   2.731   5.393  13.361 -0.3787 -0.3603  0.8120
10073TIP3    H251635   2.879   5.422  13.368 -0.4036  0.1114 -0.2888
10074TIP3   OH251636   0.472   1.715  12.185 -0.4942 -0.1954 -0.0427
10074TIP3    H151637   0.527   1.783  12.144 -1.2675  1.1525  1.0437
10074TIP3    H251638   0.473   1.738  12.279 -0.1811 -2.1481  0.4628
10075TIP3   OH251639   3.316   0.892   0.008 -0.6461  0.3866  0.0964
10075TIP3    H151640   3.381   0.935   0.064 -0.0238 -1.2504  0.7129
10075TIP3    H251641   3.367   0.830  -0.044 -1.7135 -1.1873  0.8316
10076TIP3   OH251642   0.569   1.046  10.661 -0.0666  0.0957 -0.0182
10076TIP3    H151643   0.513   1.028  10.586  0.0264 -1.2255  0.2105
10076TIP3    H251644   0.657   1.020  10.632 -0.3219 -2.3848  1.1584
10077TIP3   OH251645   0.637   1.832  14.719 -0.5306  0.1949 -0.6074
10077TIP3    H151646   0.716   1.790  14.753 -1.2412 -0.7768 -0.0925
10077TIP3    H251647   0.620   1.905  14.779  0.4345  0.9474 -1.2169
10078TIP3   OH251648   2.561   5.943   3.447  0.5881 -0.1962  0.1047
10078TIP3    H151649   2.627   5.994   3.401 -0.0392 -0.9555 -1.7282
10078TIP3    H251650   2.599   5.855   3.453  0.6444 -0.1146  1.0177
10079TIP3   OH251651   0.133   1.808   1.814  0.1106  0.6744 -0.1541
10079TIP3    H151652   0.189   1.862   1.759  0.6158  1.1716  0.8180
10079TIP3    H251653   0.193   1.750   1.860 -0.2120  0.8190  0.4691
10080TIP3   OH251654   2.952   3.244  14.359 -0.4020  0.5628 -0.0351
10080TIP3    H151655   2.907   3.164  14.389 -1.0635  0.8260 -0.3009
10080TIP3    H251656   2.933   3.309  14.427 -0.7104  0.7656 -0.3106
10081TIP3   OH251657   1.753   6.692   1.796 -0.0290 -0.1234 -0.1655
10081TIP3    H151658   1.811   6.718   1.867  0.7170  0.4545 -0.9529
10081TIP3    H251659   1.802   6.713   1.716 -2.1508  2.5680 -0.9295
10082TIP3   OH251660   4.367   3.742  11.233  0.8328 -0.3223 -0.3378
10082TIP3    H151661   4.446   3.793  11.215  1.0463 -0.0471  1.1966
10082TIP3    H251662   4.296   3.791  11.191  0.9251  1.6868  1.6472
10083TIP3   OH251663   5.366   6.284   2.663 -0.1596  0.0874  0.0997
10083TIP3    H151664   5.381   6.248   2.750  0.0046 -0.0134  0.0295
10083TIP3    H251665   5.336   6.373   2.679 -0.5254 -0.0610  0.2731
10084TIP3   OH251666   4.060   6.580  14.659  0.3208 -0.1657 -0.1632
10084TIP3    H151667   4.128   6.515  14.642  0.8827  0.2576  0.4285
10084TIP3    H251668   3.993   6.532  14.708  0.6008 -0.3713  0.0226
10085TIP3   OH251669   2.646   0.053   3.486 -0.3556  0.1106 -0.4777
10085TIP3    H151670   2.641  -0.020   3.548  0.0204  0.9279  0.5623
10085TIP3    H251671   2.674   0.013   3.404  0.5705 -0.8188  0.2602
10086TIP3   OH251672   7.003   4.372   0.998  0.1966 -0.0518 -0.4743
10086TIP3    H151673   6.922   4.322   0.994 -0.5481  1.1455 -0.8606
10086TIP3    H251674   7.008   4.403   1.089  0.1558 -0.0072 -0.4876
10087TIP3   OH251675   5.722   1.369  14.422 -0.0404 -0.1017 -0.0034
10087TIP3    H151676   5.805   1.384  14.377 -0.8624 -1.0634 -1.9952
10087TIP3    H251677   5.700   1.278  14.403 -1.9412  0.3501 -0.2405
10088TIP3   OH251678   4.557   6.473  11.317 -0.1668 -0.0035 -0.0823
10088TIP3    H151679   4.576   6.566  11.328  0.1962  0.0557 -1.1214
10088TIP3    H251680   4.464   6.471  11.291  0.4681  0.3000 -2.6379
10089TIP3   OH251681   6.080   4.034  12.630 -0.1265 -0.2045 -0.3248
10089TIP3    H151682   6.133   4.114  12.622 -0.7114  0.2361  0.1059
10089TIP3    H251683   6.135   3.974  12.679 -0.6295  0.8494  1.6663
10090TIP3   OH251684   4.562   0.360  11.334  0.0191  0.4494 -0.1022
10090TIP3    H151685   4.576   0.440  11.283 -1.2255  0.4257 -0.5132
10090TIP3    H251686   4.476   0.328  11.306  2.0996 -3.4586 -3.3252
10091TIP3   OH251687   0.115   6.354   0.059 -0.2451 -0.0902  0.8933
10091TIP3    H151688   0.022   6.333   0.060 -0.8217  1.4937 -2.9471
10091TIP3    H251689   0.125   6.420   0.128 -1.9054 -0.3534  1.4342
10092TIP3   OH251690   4.783   3.163  15.086 -0.7327 -0.4103  0.2459
10092TIP3    H151691   4.821   3.250  15.075 -0.2618 -0.7107 -0.5789
10092TIP3    H251692   4.825   3.129  15.165 -0.0290 -0.3379 -0.0844
10093TIP3   OH251693   5.981   0.593   1.622 -0.1007 -0.4377  0.0687
10093TIP3    H151694   6.066   0.562   1.591 -0.7334 -1.3504 -0.8154
10093TIP3    H251695   5.982   0.573   1.716 -0.0897 -2.2994 -0.2830
10094TIP3   OH251696   4.363   1.179   4.882  0.2000  0.2182 -0.1118
10094TIP3    H151697   4.287   1.122   4.891 -0.3192  1.0424  0.9457
10094TIP3    H251698   4.436   1.119   4.866 -0.6127 -0.6062 -0.8458
10095TIP3   OH251699   1.705   2.995  13.916 -0.8121  0.0363 -0.2248
10095TIP3    H151700   1.786   3.003  13.966 -0.0780 -0.9795 -1.2052
10095TIP3    H251701   1.699   3.077  13.866 -0.9522  0.5543  0.6090
10096TIP3   OH251702   4.204   0.456   5.039  0.2858 -0.1992 -0.1406
10096TIP3    H151703   4.196   0.543   5.002 -0.9328 -0.9178 -1.6937
10096TIP3    H251704   4.297   0.434   5.030  0.6628  1.0563  0.5921
10097TIP3   OH251705   1.527   6.889  13.522  0.1101 -0.1093 -0.2481
10097TIP3    H151706   1.498   6.947  13.592 -1.8511 -0.6560 -0.5488
10097TIP3    H251707   1.526   6.943  13.444  0.8146  0.1107 -0.1067
10098TIP3   OH251708   3.799   5.869  13.810 -0.3917  0.1484 -0.1543
10098TIP3    H151709   3.722   5.923  13.790  0.2160  1.1461  0.1382
10098TIP3    H251710   3.840   5.912  13.885 -0.3530 -1.2113  0.6279
10099TIP3   OH251711   3.648   5.705   2.934 -0.3203 -0.2815  0.1211
10099TIP3    H151712   3.677   5.695   2.843 -0.9063  3.8180 -0.7086
10099TIP3    H251713   3.713   5.763   2.973 -0.7861 -0.9438  1.9869
10100TIP3   OH251714   5.915   5.875  13.814 -0.3900 -1.0414  0.2271
10100TIP3    H151715   5.966   5.950  13.846 -0.5875 -0.5411 -0.5992
10100TIP3    H251716   5.839   5.871  13.872 -0.4162 -0.5495  0.2299
10101TIP3   OH251717   5.056   4.098  10.673 -0.4183 -0.2172  0.1294
10101TIP3    H151718   4.998   4.058  10.738  0.0266 -1.4298 -0.1914
10101TIP3    H251719   4.997   4.127  10.603 -0.9487  1.4853  1.2170
10102TIP3   OH251720   1.367   5.558  12.906 -0.4713  0.4498 -0.1513
10102TIP3    H151721   1.323   5.563  12.821 -0.2277  0.6942 -0.2646
10102TIP3    H251722   1.446   5.610  12.895  0.7234 -1.3626 -0.4735
10103TIP3   OH251723   1.708   3.386  12.600  0.4738  0.0450 -0.3305
10103TIP3    H151724   1.673   3.386  12.511 -1.7356  0.1529  0.4751
10103TIP3    H251725   1.701   3.478  12.628  2.2430  0.2408 -0.3972
10104TIP3   OH251726   4.955   1.823  12.847  0.2661  0.4896  0.2092
10104TIP3    H151727   4.968   1.748  12.906 -0.1922  1.5637  1.7280
10104TIP3    H251728   5.040   1.867  12.845  0.4146  0.1964 -0.3470
10105TIP3   OH251729   6.373   0.408  10.059 -0.1008  0.4511  0.3197
10105TIP3    H151730   6.394   0.458   9.981  0.2886  1.0301  0.7831
10105TIP3    H251731   6.358   0.318  10.028 -0.4235  0.7746 -0.4686
10106TIP3   OH251732   6.879   7.208   0.006 -0.4507  0.3263 -0.3240
10106TIP3    H151733   6.839   7.272  -0.053  0.7929  1.9358  0.5175
10106TIP3    H251734   6.964   7.190  -0.033 -1.0836 -1.5337 -1.0042
10107TIP3   OH251735   5.573   1.533  11.834 -0.6627 -0.0598 -0.0779
10107TIP3    H151736   5.650   1.477  11.822 -0.6064 -0.5030  1.9247
10107TIP3    H251737   5.500   1.481  11.802 -0.4455 -0.7910  0.5706
10108TIP3   OH251738   3.405   4.690  10.406  0.2420 -0.4084 -0.0014
10108TIP3    H151739   3.365   4.769  10.370 -0.6392 -0.5754  0.5650
10108TIP3    H251740   3.444   4.718  10.489 -1.3515 -0.8089  0.9467
10109TIP3   OH251741   3.603   0.467  10.233  0.0803  0.0121  0.5987
10109TIP3    H151742   3.666   0.461  10.304  0.1703 -0.1827  0.5029
10109TIP3    H251743   3.656   0.460  10.153 -0.3488 -3.7111  0.4832
10110TIP3   OH251744   5.114   3.483   0.675  0.1469  0.2094  0.0771
10110TIP3    H151745   5.101   3.492   0.769 -1.0844 -1.1572  0.0621
10110TIP3    H251746   5.147   3.569   0.648 -1.9442  1.5161  1.3529
10111TIP3   OH251747   3.610   3.042   2.284 -0.8112 -1.1396 -0.5972
10111TIP3    H151748   3.521   3.017   2.309 -0.9318 -0.4864 -0.3595
10111TIP3    H251749   3.599   3.121   2.232 -0.3500 -0.8874 -0.3213
10112TIP3   OH251750   1.346   5.058   2.561  0.2367 -0.6847 -0.8149
10112TIP3    H151751   1.401   5.092   2.631  1.2813  0.6251 -2.1878
10112TIP3    H251752   1.288   5.131   2.538 -1.0528 -1.5512 -0.4199
10113TIP3   OH251753   5.397   6.345  14.707 -0.1892  0.3840 -0.0439
10113TIP3    H151754   5.319   6.293  14.727 -0.4999  0.7906 -0.1965
10113TIP3    H251755   5.455   6.284  14.660 -1.1680  0.5710 -1.5595
10114TIP3   OH251756   6.484   3.648   1.747 -0.4359  0.4717  0.8177
10114TIP3    H151757   6.497   3.553   1.760 -1.9325  0.1049 -0.1777
10114TIP3    H251758   6.552   3.673   1.685 -0.6521 -0.1652  0.3146
10115TIP3   OH251759   3.305   1.622   0.876  0.3290 -0.0509 -0.6388
10115TIP3    H151760   3.252   1.595   0.801 -0.0930 -1.6559  0.2159
10115TIP3    H251761   3.285   1.559   0.945  1.6615  0.6471  0.4398
10116TIP3   OH251762   2.408   2.124   2.404  0.2085 -0.3086  0.0001
10116TIP3    H151763   2.383   2.144   2.314 -0.2917 -1.5738 -0.1602
10116TIP3    H251764   2.347   2.057   2.433  1.8029 -1.6445  0.4692
10117TIP3   OH251765   1.071   2.700  14.592  0.1544 -0.0317 -0.5146
10117TIP3    H151766   1.032   2.652  14.519 -1.2793 -0.5814  0.5732
10117TIP3    H251767   1.026   2.785  14.591 -1.0571 -0.6253  0.6753
10118TIP3   OH251768   3.181   6.240   3.312 -0.7410  0.1987  0.1256
10118TIP3    H151769   3.243   6.311   3.296 -1.7359  0.6917 -1.8535
10118TIP3    H251770   3.165   6.243   3.406  0.1041  1.8426  0.2526
10119TIP3   OH251771   1.032   0.963  13.325  0.3290 -0.6355 -0.2411
10119TIP3    H151772   1.054   0.956  13.418 -1.4886  1.2872  0.3927
10119TIP3    H251773   1.098   1.024  13.290 -0.1513  0.1688  0.2354
10120TIP3   OH251774   6.821   2.661  10.941  0.2400 -0.2367 -0.5774
10120TIP3    H151775   6.802   2.640  10.849 -0.5898 -0.5523 -0.3470
10120TIP3    H251776   6.829   2.576  10.984 -2.0130 -0.1671  0.1427
10121TIP3   OH251777   1.569   6.421  13.467 -0.3081 -0.9932 -0.8522
10121TIP3    H151778   1.477   6.402  13.485  0.0768 -2.8669 -0.5911
10121TIP3    H251779   1.567   6.501  13.414 -1.9386  0.1137  0.7701
10122TIP3   OH251780   1.016   1.794  14.000 -0.1250  0.5409 -0.5866
10122TIP3    H151781   1.030   1.865  14.063 -0.9441  1.0244 -0.9298
10122TIP3    H251782   1.074   1.815  13.927  0.0671  0.5424 -0.4332
10123TIP3   OH251783   7.185   5.501   3.809  0.0134 -0.2421 -0.2802
10123TIP3    H151784   7.134   5.487   3.889  0.5696  0.0205  0.1255
10123TIP3    H251785   7.252   5.433   3.812  0.8159  0.5646  0.1200
10124TIP3   OH251786   5.762   7.029  13.481 -0.4409  0.2955  0.0301
10124TIP3    H151787   5.834   7.028  13.418 -0.0245  2.4342  0.3948
10124TIP3    H251788   5.758   6.939  13.515  1.2136 -0.1725 -0.9209
10125TIP3   OH251789   5.304   4.818   3.595 -0.1282 -0.4055 -0.3496
10125TIP3    H151790   5.285   4.830   3.688 -0.7552 -0.0991 -0.5057
10125TIP3    H251791   5.236   4.870   3.550  0.4077 -0.2245 -0.9660
10126TIP3   OH251792   7.133   6.627   4.208 -0.0426  0.1193  0.0266
10126TIP3    H151793   7.051   6.583   4.186  0.4471 -0.4684 -0.7325
10126TIP3    H251794   7.190   6.610   4.132  1.3829 -1.0476  1.2807
10127TIP3   OH251795   0.224   0.987  14.232 -0.0295 -0.1584  0.2655
10127TIP3    H151796   0.284   0.988  14.306  1.7143 -0.2176 -1.0901
10127TIP3    H251797   0.218   1.079  14.205 -0.9075 -0.0934  0.6333
10128TIP3   OH251798   2.820   4.357   0.118 -0.3875  0.2087 -0.5688
10128TIP3    H151799   2.855   4.328   0.202 -0.7512 -0.1755 -0.5481
10128TIP3    H251800   2.897   4.382   0.067 -0.1835  0.7918  0.0008
10129TIP3   OH251801   4.930   3.387  15.098 -0.0884 -0.1973  0.5611
10129TIP3    H151802   4.921   3.457  15.035  1.2350 -0.7094 -0.2408
10129TIP3    H251803   5.024   3.369  15.101 -0.5283 -3.4110 -0.9417
10130TIP3   OH251804   5.264   3.481  14.351  0.6226  0.6427 -0.0894
10130TIP3    H151805   5.300   3.394  14.333  1.9539  0.9401  0.9800
10130TIP3    H251806   5.281   3.531  14.271 -0.7561 -0.2353 -0.9690
10131TIP3   OH251807   0.640   4.695  14.475  0.8029 -0.0942  0.7115
10131TIP3    H151808   0.652   4.787  14.498  1.3256 -0.1155  0.5235
10131TIP3    H251809   0.612   4.697  14.384  2.6848 -0.2056  0.1011
10132TIP3   OH251810   4.182   3.637  10.954  0.4468  0.3430  0.0303
10132TIP3    H151811   4.263   3.619  10.906  0.4997  2.9047 -0.9578
10132TIP3    H251812   4.196   3.723  10.993 -1.7844  0.8334 -0.1310
10133TIP3   OH251813   2.831   4.315  14.903 -0.1395 -0.2701  0.0462
10133TIP3    H151814   2.845   4.265  14.822  0.6515 -1.1399  0.6889
10133TIP3    H251815   2.769   4.262  14.952 -0.8159  0.3867 -0.0909
10134TIP3   OH251816   6.647   6.890   0.593 -0.3661 -0.7777  0.3748
10134TIP3    H151817   6.629   6.960   0.656 -1.4403 -0.9553  0.2819
10134TIP3    H251818   6.574   6.895   0.531 -0.9436 -2.5389  0.8648
10135TIP3   OH251819   2.167   1.134   4.450 -0.1866 -0.1809  0.0425
10135TIP3    H151820   2.201   1.221   4.474 -0.8103  0.2504 -0.5744
10135TIP3    H251821   2.243   1.077   4.450  0.2564  0.4019  0.3399
10136TIP3   OH251822   4.809   3.954  14.079 -0.0834 -0.1016 -0.0764
10136TIP3    H151823   4.852   3.893  14.141  0.9453  0.3105 -0.3638
10136TIP3    H251824   4.848   3.932  13.994 -0.2266  0.4841 -0.2919
10137TIP3   OH251825   2.720   1.854   1.679  0.3643 -0.2950  0.0236
10137TIP3    H151826   2.718   1.830   1.586  3.3865  1.8754 -0.7732
10137TIP3    H251827   2.798   1.812   1.714 -2.8667 -4.7089  2.9894
10138TIP3   OH251828   5.315   2.711  11.868 -0.4527 -0.4230 -0.3245
10138TIP3    H151829   5.299   2.789  11.814 -1.2166  0.8379  1.6092
10138TIP3    H251830   5.337   2.746  11.954  0.8092 -2.3626  0.1929
10139TIP3   OH251831   4.095   0.936  11.074  0.0190  0.1392  0.2235
10139TIP3    H151832   4.118   0.907  11.162  0.0371  0.0703  0.1957
10139TIP3    H251833   4.134   1.023  11.067 -1.1232  0.7022  0.7603
10140TIP3   OH251834   2.979   4.275   0.765  0.0920 -0.2768  0.1828
10140TIP3    H151835   3.067   4.265   0.727  0.3600 -2.9260  1.2393
10140TIP3    H251836   2.929   4.321   0.698  2.3678  1.8069 -0.2418
10141TIP3   OH251837   1.702   1.995  10.452 -0.1281  0.1812 -0.1121
10141TIP3    H151838   1.648   2.073  10.456 -0.6961 -0.0680 -2.1252
10141TIP3    H251839   1.777   2.015  10.508 -1.4266  1.1910  1.3580
10142TIP3   OH251840   6.397   0.703   2.807  0.5695  0.4808 -0.7724
10142TIP3    H151841   6.338   0.728   2.736 -0.8015 -1.1340 -0.2533
10142TIP3    H251842   6.344   0.649   2.865  2.8441 -2.1198 -0.9142
10143TIP3   OH251843   1.586   2.316  14.923  0.4017  0.0095  0.9085
10143TIP3    H151844   1.601   2.264  14.844 -1.1674 -0.2318  0.7472
10143TIP3    H251845   1.532   2.390  14.894  2.5377  1.7699  1.1461
10144TIP3   OH251846   6.555   6.412   2.031 -0.0909 -0.3525  0.4017
10144TIP3    H151847   6.597   6.407   1.945  0.3098  0.3816  0.5491
10144TIP3    H251848   6.604   6.350   2.085 -1.0995 -1.7223 -0.1890
10145TIP3   OH251849   4.624   2.930   2.111  0.4628 -0.2033 -0.3203
10145TIP3    H151850   4.552   2.972   2.158  1.3197  1.0626 -0.0784
10145TIP3    H251851   4.699   2.987   2.128  0.8320  0.2833 -3.1898
10146TIP3   OH251852   1.084   6.006   0.979 -0.0817 -0.5004  0.1317
10146TIP3    H151853   1.006   6.010   0.923 -0.7038  0.0397  1.0203
10146TIP3    H251854   1.050   5.981   1.065  0.9805 -2.2970  0.0639
10147TIP3   OH251855   4.402   1.921  14.014 -0.4341  0.3228 -0.1230
10147TIP3    H151856   4.472   1.974  14.051  0.4100 -0.6113 -0.3447
10147TIP3    H251857   4.409   1.934  13.919  1.2259 -1.8627 -0.3689
10148TIP3   OH251858   0.043   2.111  12.394 -0.5238  0.3573  0.1875
10148TIP3    H151859  -0.024   2.102  12.327  0.5753  0.6386 -0.9975
10148TIP3    H251860  -0.002   2.095  12.477 -1.8041 -0.5165 -0.6570
10149TIP3   OH251861   5.434   1.222  13.248 -0.0348 -0.3340  0.7489
10149TIP3    H151862   5.508   1.281  13.232  0.4898 -1.2873 -0.5475
10149TIP3    H251863   5.366   1.252  13.189 -0.6683  0.4633  1.8531
10150TIP3   OH251864   5.124   6.989   5.322  0.1211 -0.1783 -0.4590
10150TIP3    H151865   5.109   6.903   5.283 -0.5796  0.0382 -0.6974
10150TIP3    H251866   5.065   6.993   5.397  0.7081 -0.1935  0.0116
10151TIP3   OH251867   0.707   3.827   5.167 -0.4996  0.5318  0.5775
10151TIP3    H151868   0.784   3.772   5.183 -0.8043  0.1800  0.8476
10151TIP3    H251869   0.726   3.909   5.213 -0.4317  0.3240  0.9203
10152TIP3   OH251870   1.518   6.512  11.814 -0.3112 -0.2587 -0.6426
10152TIP3    H151871   1.427   6.523  11.788 -1.0041  0.2469  1.7889
10152TIP3    H251872   1.554   6.600  11.814 -0.5500 -0.1442  0.7879
10153TIP3   OH251873   7.129   6.418  13.057 -0.3043  0.2841  0.1522
10153TIP3    H151874   7.206   6.450  13.104  1.2980 -1.4381 -1.1780
10153TIP3    H251875   7.077   6.497  13.040  2.5495  1.9719 -1.3922
10154TIP3   OH251876   6.292   2.151  12.360 -0.1720  0.1227 -0.3592
10154TIP3    H151877   6.280   2.130  12.267 -1.1958  0.1196 -0.2421
10154TIP3    H251878   6.204   2.147  12.397  0.0740  1.1481  0.3965
10155TIP3   OH251879   5.060   5.126   0.293  0.0340 -0.5720 -0.6633
10155TIP3    H151880   5.079   5.219   0.290 -0.6286 -0.1016  3.3469
10155TIP3    H251881   4.977   5.116   0.248 -1.4576  1.4280  1.4396
10156TIP3   OH251882   5.315   6.118   0.869  0.0880  0.6612  0.1516
10156TIP3    H151883   5.333   6.042   0.813  2.1448  0.3144  1.1890
10156TIP3    H251884   5.239   6.092   0.921 -0.3816  0.0715 -0.7879
10157TIP3   OH251885   0.563   0.838  14.045 -0.0244  0.0357 -0.0719
10157TIP3    H151886   0.601   0.895  14.112  1.3107 -2.3361  1.2888
10157TIP3    H251887   0.636   0.820  13.985 -0.0128 -1.3520  0.3264
10158TIP3   OH251888   7.020   3.347   2.345 -0.2164 -0.0163 -0.4158
10158TIP3    H151889   7.084   3.398   2.395 -1.1230 -1.3491  2.3513
10158TIP3    H251890   6.941   3.401   2.346  0.1215  0.5273 -1.6268
10159TIP3   OH251891   5.981   5.211   1.523  0.0134 -0.3204 -0.4366
10159TIP3    H151892   6.044   5.143   1.500  0.8345 -0.0076  0.7888
10159TIP3    H251893   5.982   5.271   1.449  2.5790  0.6723  0.3044
10160TIP3   OH251894   3.322   2.156  10.846  1.0573 -0.2424 -0.5888
10160TIP3    H151895   3.252   2.184  10.787 -0.9702 -1.7433  0.9472
10160TIP3    H251896   3.390   2.124  10.788 -0.0557  0.0838 -2.1502
10161TIP3   OH251897   2.362   6.141  13.839 -0.1712 -0.1127 -0.1751
10161TIP3    H151898   2.382   6.216  13.784  1.4462  0.4362  1.0866
10161TIP3    H251899   2.342   6.178  13.925  0.0819 -1.0785  0.3141
10162TIP3   OH251900   2.158   0.479  13.404  0.2887 -0.4329 -0.0372
10162TIP3    H151901   2.074   0.464  13.361  1.2433 -2.0982 -1.4730
10162TIP3    H251902   2.170   0.404  13.462 -0.0645  0.7850  1.6747
10163TIP3   OH251903   4.017   6.640  10.267 -0.2398 -0.4633  0.2993
10163TIP3    H151904   3.954   6.635  10.338 -1.5858  0.2141 -0.7987
10163TIP3    H251905   3.968   6.678  10.193  1.3724 -0.1497 -0.6730
10164TIP3   OH251906   6.324   6.409   1.058 -0.0278  0.5248  0.0190
10164TIP3    H151907   6.238   6.370   1.041  0.1211  0.3344 -0.3167
10164TIP3    H251908   6.381   6.370   0.991 -0.2759  2.7728 -1.6040
10165TIP3   OH251909   5.749   3.295  10.771  0.2260  0.2644 -0.0442
10165TIP3    H151910   5.766   3.389  10.765  1.8493 -0.0322 -1.0163
10165TIP3    H251911   5.836   3.256  10.781 -0.4891 -1.0952  1.2451
10166TIP3   OH251912   4.120   0.069  14.382 -0.1277  0.5345 -0.0722
10166TIP3    H151913   4.133   0.057  14.476  1.1296 -0.0832 -0.2914
10166TIP3    H251914   4.180   0.140  14.358  0.9993 -0.5585 -0.6833
10167TIP3   OH251915   3.671   1.636   0.869  0.3211  0.1557  0.1274
10167TIP3    H151916   3.622   1.665   0.946 -1.3982 -0.0726 -0.8343
10167TIP3    H251917   3.642   1.695   0.799 -0.4675 -1.5431 -1.0237
10168TIP3   OH251918   6.854   1.239   3.692  0.2856 -0.0251 -0.6330
10168TIP3    H151919   6.769   1.216   3.656 -0.5659  1.1578  0.5290
10168TIP3    H251920   6.865   1.183   3.768  0.5781 -0.2157 -0.8127
10169TIP3   OH251921   1.115   2.001  10.544  0.5750 -0.4365 -0.2826
10169TIP3    H151922   1.198   2.026  10.585  0.7760  0.8815 -1.4156
10169TIP3    H251923   1.140   1.952  10.466  0.2454 -1.2009  0.0858
10170TIP3   OH251924   1.925   2.432   1.195 -0.5717 -0.2150  0.3382
10170TIP3    H151925   1.974   2.503   1.152 -0.4238 -1.3617 -1.5059
10170TIP3    H251926   1.863   2.477   1.251  0.5194  1.3466  0.3771
10171TIP3   OH251927   3.864   4.734   1.113  0.0861  0.2456  0.1213
10171TIP3    H151928   3.819   4.772   1.189 -0.1208  1.5442 -0.6263
10171TIP3    H251929   3.957   4.742   1.136  0.0071 -1.4596  1.1979
10172TIP3   OH251930   3.286   4.128   9.630  0.2778 -0.2749  0.3238
10172TIP3    H151931   3.243   4.095   9.709 -4.2506  0.2183 -1.6323
10172TIP3    H251932   3.292   4.052   9.573  1.0831 -0.0799  0.1322
10173TIP3   OH251933   0.713   1.810   1.068 -0.0183 -0.2452 -0.3995
10173TIP3    H151934   0.808   1.814   1.067 -0.0442  0.2999 -1.0902
10173TIP3    H251935   0.690   1.801   1.161  0.7217 -1.1548 -0.2857
10174TIP3   OH251936   5.450   0.933  14.620  0.1321  0.0168  0.5575
10174TIP3    H151937   5.396   0.898  14.691 -1.5983 -0.1700 -0.7807
10174TIP3    H251938   5.500   0.858  14.588 -1.0667 -0.5364 -0.1044
10175TIP3   OH251939   0.915   3.459  12.971 -0.4606 -0.6963  0.2352
10175TIP3    H151940   0.990   3.399  12.964  1.0678  1.0308  1.0758
10175TIP3    H251941   0.911   3.502  12.885 -0.7227 -1.0381  0.0733
10176TIP3   OH251942   0.386   4.726  13.959 -0.2271 -0.9307 -0.1106
10176TIP3    H151943   0.394   4.730  13.864 -0.4982 -1.5884 -0.1703
10176TIP3    H251944   0.367   4.634  13.977 -0.0792 -0.8278  0.5878
10177TIP3   OH251945   5.754   6.969   9.937 -0.3190  0.0806 -0.6119
10177TIP3    H151946   5.689   6.954   9.868 -0.5430 -1.5536 -0.0959
10177TIP3    H251947   5.785   6.881   9.960 -0.6887  0.4991  1.7744
10178TIP3   OH251948   1.831   4.440  10.428  0.1285  0.0135  0.5569
10178TIP3    H151949   1.795   4.528  10.435  0.8753  0.2429  2.1041
10178TIP3    H251950   1.922   4.449  10.457 -0.0534 -1.4008  1.7221
10179TIP3   OH251951   0.363   4.569  14.516  0.0088  0.4665 -0.2900
10179TIP3    H151952   0.432   4.618  14.471  0.9117  0.6119  1.1814
10179TIP3    H251953   0.307   4.636  14.553  0.8866  0.4410  1.1822
10180TIP3   OH251954   6.491   6.669  12.281  0.7359 -0.6482  0.5525
10180TIP3    H151955   6.469   6.603  12.346  1.3088 -0.9457  0.4473
10180TIP3    H251956   6.505   6.619  12.200  0.5558 -0.3357  0.3271
10181TIP3   OH251957   6.985   5.161  12.767  0.7312 -0.4625 -0.1324
10181TIP3    H151958   6.971   5.072  12.734  2.1957 -0.7384 -0.0865
10181TIP3    H251959   6.969   5.217  12.692  1.0876 -0.8715 -0.5232
10182TIP3   OH251960   6.437   4.475  14.475 -0.4725  0.4724 -0.0574
10182TIP3    H151961   6.530   4.498  14.472  0.1023 -1.1433  2.4539
10182TIP3    H251962   6.399   4.521  14.400  2.2530  1.5040 -0.9473
10183TIP3   OH251963   5.402   4.186  14.081 -0.5180  0.2650  0.1268
10183TIP3    H151964   5.385   4.251  14.149 -0.0104  0.6801 -0.1347
10183TIP3    H251965   5.492   4.204  14.052 -0.2630 -0.7284  0.2420
10184TIP3   OH251966   5.385   2.781   4.558  1.2447 -0.3696 -0.6029
10184TIP3    H151967   5.418   2.810   4.473 -0.6532 -2.4925 -2.1800
10184TIP3    H251968   5.290   2.775   4.546  0.8963 -0.5451  1.7643
10185TIP3   OH251969   0.427   1.486  14.470  0.2160  0.2688 -0.0545
10185TIP3    H151970   0.492   1.530  14.415  0.2805 -1.6129 -1.5992
10185TIP3    H251971   0.349   1.542  14.464  1.3555  2.0500  1.0469
10186TIP3   OH251972   1.031   1.642  10.511 -0.6462  0.3514 -0.2508
10186TIP3    H151973   0.946   1.624  10.551 -1.8734  1.6279 -2.1058
10186TIP3    H251974   1.047   1.735  10.530 -0.0844  0.3416 -0.6476
10187TIP3   OH251975   0.816   0.702   5.366 -0.1532 -0.1514 -0.4694
10187TIP3    H151976   0.911   0.697   5.370 -0.2391 -1.4147  0.6814
10187TIP3    H251977   0.792   0.762   5.436 -0.2622 -1.0588  0.2925
10188TIP3   OH251978   5.386   5.418  15.168 -0.5384 -0.6222 -0.3714
10188TIP3    H151979   5.337   5.438  15.088  1.4075 -1.6150 -1.8860
10188TIP3    H251980   5.339   5.466  15.237 -2.3253  0.2058 -2.0555
10189TIP3   OH251981   3.051   1.085  10.935  0.0233  0.3271 -0.1532
10189TIP3    H151982   3.033   1.178  10.922 -0.4267  0.4463  1.2003
10189TIP3    H251983   2.993   1.059  11.006 -0.5273 -1.2262 -1.1259
10190TIP3   OH251984   5.537   1.872  12.179 -0.0283  0.0175 -0.3752
10190TIP3    H151985   5.462   1.925  12.153 -0.4381 -0.3693  0.0125
10190TIP3    H251986   5.561   1.824  12.100 -1.7923 -1.7985  0.1121
10191TIP3   OH251987   5.167   2.775  13.523 -0.1091 -0.2327  0.0349
10191TIP3    H151988   5.196   2.804  13.610  1.2116 -2.5637  0.4459
10191TIP3    H251989   5.084   2.820  13.510  0.2798  1.1667  1.9511
10192TIP3   OH251990   3.225   1.069   5.979  0.1273  0.4190  0.2845
10192TIP3    H151991   3.235   0.977   5.954  0.0523 -0.3440  2.8245
10192TIP3    H251992   3.134   1.089   5.960 -0.3574 -0.6209  1.3971
10193TIP3   OH251993   3.130   0.648   5.388 -0.2091 -0.0797 -0.8039
10193TIP3    H151994   3.112   0.566   5.435 -1.3398  1.8059  2.4562
10193TIP3    H251995   3.176   0.621   5.309  0.1365 -3.7896  0.4376
10194TIP3   OH251996   3.107   4.529   2.603 -0.4801 -0.2321  0.5549
10194TIP3    H151997   3.127   4.604   2.548  1.8275 -1.0070  0.2142
10194TIP3    H251998   3.032   4.487   2.561  2.2925 -1.8807 -3.2634
10195TIP3   OH251999   5.406   6.483   4.455  0.4924  0.2182  0.1784
10195TIP3    H152000   5.374   6.573   4.458  0.5463  0.4695 -3.1555
10195TIP3    H252001   5.331   6.432   4.425  1.2081 -0.3622 -0.6807
10196TIP3   OH252002   0.217   2.520   0.051  0.2936 -0.1253 -0.0391
10196TIP3    H152003   0.177   2.530   0.138 -0.2087 -1.2023 -0.1321
10196TIP3    H252004   0.257   2.605   0.034 -1.4115  0.7947  0.3223
10197TIP3   OH252005   4.593   4.217  10.521  0.3603 -0.1691 -0.1789
10197TIP3    H152006   4.541   4.139  10.538 -1.5632  0.8578 -1.0841
10197TIP3    H252007   4.679   4.196  10.557 -0.5811 -2.0219  1.1630
10198TIP3   OH252008   2.065   4.911   1.482 -0.1864 -0.2195 -0.1462
10198TIP3    H152009   1.989   4.964   1.507  1.1253  1.0249  1.3530
10198TIP3    H252010   2.060   4.834   1.539 -1.0443 -0.8646 -1.0316
10199TIP3   OH252011   4.774   0.325  14.484 -1.1515 -0.1241  0.0350
10199TIP3    H152012   4.729   0.389  14.539  0.1669 -0.5727  1.7229
10199TIP3    H252013   4.723   0.244  14.494 -1.3617 -0.0009 -0.0425
10200TIP3   OH252014   2.727   1.436  15.296 -0.0734 -0.3807 -0.7181
10200TIP3    H152015   2.694   1.346  15.304 -2.6569  0.5089 -0.4474
10200TIP3    H252016   2.669   1.487  15.352  0.1865  1.7322 -2.2914
10201TIP3   OH252017   5.697   6.533   2.879 -0.3209  0.6496 -0.1990
10201TIP3    H152018   5.645   6.525   2.799  1.5674  1.9406 -1.6651
10201TIP3    H252019   5.660   6.609   2.924 -0.3538  0.9514 -0.7247
10202TIP3   OH252020   1.927   6.140   1.416  0.1618  0.2162 -0.2277
10202TIP3    H152021   1.964   6.199   1.351 -1.4434  0.6092 -0.8302
10202TIP3    H252022   1.924   6.192   1.497  3.1154 -0.5918  0.5361
10203TIP3   OH252023   1.011   2.994   1.701 -0.1649  0.1994 -0.6917
10203TIP3    H152024   1.065   3.073   1.695 -3.2977  2.8376  2.1622
10203TIP3    H252025   1.051   2.943   1.771  0.1722  0.7670 -0.4590
10204TIP3   OH252026   3.222   0.910  13.808 -0.4603  0.1643  0.5143
10204TIP3    H152027   3.301   0.939  13.854  0.2387 -0.8644  0.0165
10204TIP3    H252028   3.215   0.969  13.733  1.1006 -1.0128 -0.6379
10205TIP3   OH252029   0.576   3.225  14.263 -0.4596 -0.4016  0.1254
10205TIP3    H152030   0.570   3.321  14.264  0.6992 -0.3056 -0.0950
10205TIP3    H252031   0.501   3.196  14.314 -2.2096  0.5268 -1.7871
10206TIP3   OH252032   6.946   1.619  12.218  0.3331  0.6680  0.5820
10206TIP3    H152033   6.925   1.562  12.292 -0.2250  1.6955  1.2521
10206TIP3    H252034   7.038   1.640  12.230  0.1803  1.0469  1.1632
10207TIP3   OH252035   1.906   6.551   4.111  0.6170 -0.1508  0.2145
10207TIP3    H152036   1.903   6.456   4.120 -1.7165 -0.1241  0.3613
10207TIP3    H252037   1.864   6.569   4.027  0.8748  0.7621  0.2668
10208TIP3   OH252038   3.246   1.809  11.529 -0.2075  0.5660  0.2307
10208TIP3    H152039   3.332   1.780  11.498 -1.0108 -0.1694 -1.4552
10208TIP3    H252040   3.252   1.805  11.624  0.9352 -1.6169  0.1249
10209TIP3   OH252041   0.100   6.535  13.197 -0.4296  0.0090 -0.0882
10209TIP3    H152042   0.102   6.552  13.292  1.8055 -1.0821  0.1111
10209TIP3    H252043   0.118   6.620  13.157  2.3225 -0.1611  0.6238
10210TIP3   OH252044   1.250   4.468   2.434 -0.7187  0.6033  0.9359
10210TIP3    H152045   1.222   4.414   2.509  1.5550 -0.8107  0.8835
10210TIP3    H252046   1.340   4.491   2.455 -0.8468  2.3138 -0.2586
10211TIP3   OH252047   6.873   1.459  15.131 -0.4154  0.5405 -0.4098
10211TIP3    H152048   6.961   1.469  15.168 -0.2671  1.1720 -0.9156
10211TIP3    H252049   6.886   1.468  15.036 -0.9116 -0.1730 -0.5559
10212TIP3   OH252050   2.739   2.503  14.166 -0.1454 -0.0659 -0.2066
10212TIP3    H152051   2.807   2.437  14.170  1.1477  1.2691  1.5920
10212TIP3    H252052   2.740   2.534  14.076 -0.7241 -2.3692 -1.0618
10213TIP3   OH252053   5.300   0.409   5.264 -0.1489 -0.0372  0.1710
10213TIP3    H152054   5.267   0.491   5.301  1.3115 -0.0826  1.6569
10213TIP3    H252055   5.355   0.372   5.332 -0.3715 -2.0375 -0.6660
10214TIP3   OH252056   5.130   3.957   2.029  0.9892 -0.1127 -0.0184
10214TIP3    H152057   5.134   3.911   1.945  0.5327  2.5052 -1.5776
10214TIP3    H252058   5.065   4.026   2.016 -1.8349 -1.7618  3.6897
10215TIP3   OH252059   2.379   3.480  13.448 -0.1997  0.1026 -0.2011
10215TIP3    H152060   2.334   3.405  13.486 -0.2230 -0.3807 -1.1619
10215TIP3    H252061   2.310   3.544  13.433 -0.4341 -0.2833 -0.8098
10216TIP3   OH252062   4.544   0.848   3.657  0.5515  0.2571  0.1073
10216TIP3    H152063   4.585   0.765   3.680  0.1304  0.4949  1.8464
10216TIP3    H252064   4.463   0.824   3.612  0.8391 -0.2578 -0.1387
10217TIP3   OH252065   6.910   2.615   4.555  0.8893 -0.9821  0.1548
10217TIP3    H152066   6.843   2.619   4.622  1.0976  2.0168  0.3401
10217TIP3    H252067   6.862   2.604   4.473  0.1493  0.4512  0.3544
10218TIP3   OH252068   1.398   3.560   0.598  0.5310  0.1121 -0.0897
10218TIP3    H152069   1.462   3.492   0.579 -0.2448 -0.0883 -2.2920
10218TIP3    H252070   1.448   3.631   0.639  1.7192 -0.8982  0.2545
10219TIP3   OH252071   0.866   1.886   2.679  0.0079  0.6343  0.2698
10219TIP3    H152072   0.864   1.815   2.743  2.0535 -0.1756 -0.4743
10219TIP3    H252073   0.796   1.945   2.707 -0.9477 -1.0229  1.6466
10220TIP3   OH252074   7.085   4.920  15.333 -0.1752  0.8658 -0.3857
10220TIP3    H152075   7.103   4.921  15.239 -0.4695 -1.9298 -0.5733
10220TIP3    H252076   6.993   4.893  15.339 -0.3446  1.6330  0.7162
10221TIP3   OH252077   1.252   0.211  12.400 -0.4425  0.0625 -0.5312
10221TIP3    H152078   1.276   0.193  12.491 -0.3224 -2.8516 -1.0586
10221TIP3    H252079   1.160   0.186  12.394 -0.1814 -0.7555 -1.4140
10222TIP3   OH252080   4.249   2.684  14.212 -0.8667 -0.2069  0.1984
10222TIP3    H152081   4.224   2.758  14.157  2.1946  3.1590  2.8201
10222TIP3    H252082   4.305   2.630  14.156  1.1255  2.4131 -0.5825
10223TIP3   OH252083   5.710   1.150   0.754  0.1882  0.3820  0.0657
10223TIP3    H152084   5.697   1.099   0.834  0.8513 -1.7543 -1.1300
10223TIP3    H252085   5.794   1.193   0.766  0.1657  0.2797  0.6094
10224TIP3   OH252086   4.991   2.283   5.397  0.2437  0.3335 -0.1315
10224TIP3    H152087   5.085   2.267   5.393  0.4183  1.5087 -1.8930
10224TIP3    H252088   4.982   2.356   5.459  0.3206 -0.6585  1.0844
10225TIP3   OH252089   2.228   6.968  13.703 -0.0030  0.0102 -0.1981
10225TIP3    H152090   2.213   7.055  13.665 -0.0426 -0.0179 -0.2458
10225TIP3    H252091   2.221   6.908  13.629 -3.5176 -0.4468  0.3425
10226TIP3   OH252092   4.718   0.009  15.175  0.3891 -1.0537  0.2783
10226TIP3    H152093   4.804   0.042  15.151 -0.0702 -0.1091 -0.0946
10226TIP3    H252094   4.675   0.082  15.219 -0.9456 -0.8392 -1.2960
10227TIP3   OH252095   0.470   2.132   3.249 -0.1307 -0.2211 -0.2739
10227TIP3    H152096   0.532   2.081   3.302 -2.4607 -0.6670  2.2624
10227TIP3    H252097   0.433   2.196   3.310 -1.0418  1.0791 -2.1000
10228TIP3   OH252098   6.334   3.482   0.725  0.0844  0.2642  0.0578
10228TIP3    H152099   6.393   3.549   0.690  0.1647  0.4445  0.5239
10228TIP3    H252100   6.388   3.403   0.732  0.3101  0.4628  0.6042
10229TIP3   OH252101   6.615   0.145   2.588  0.2458 -0.5326 -0.0188
10229TIP3    H152102   6.567   0.062   2.594 -0.3273 -0.1175  1.6762
10229TIP3    H252103   6.575   0.190   2.513 -0.9399 -0.8669  0.3938
10230TIP3   OH252104   3.243   2.379  12.112  0.6575  0.0833 -0.1280
10230TIP3    H152105   3.262   2.472  12.097  0.7196 -0.0023 -0.6033
10230TIP3    H252106   3.193   2.377  12.194 -1.0022  0.7324 -1.0709
10231TIP3   OH252107   3.501   4.291  10.221 -0.5309  0.2869  0.3719
10231TIP3    H152108   3.520   4.330  10.135  1.2739 -2.8290 -0.8148
10231TIP3    H252109   3.412   4.257  10.213 -0.1874 -0.4503 -0.5187
10232TIP3   OH252110   0.169   3.032   3.682 -0.4267  0.0739 -0.7331
10232TIP3    H152111   0.106   3.042   3.610 -0.7680 -2.0276 -0.8052
10232TIP3    H252112   0.254   3.027   3.639 -0.6175 -1.0348 -1.0182
10233TIP3   OH252113   5.662   3.502   0.927 -0.1919  0.1348  0.0062
10233TIP3    H152114   5.590   3.470   0.983  0.1123  0.5576  0.6555
10233TIP3    H252115   5.738   3.453   0.956  0.4368  1.8804  1.5077
10234TIP3   OH252116   4.141   1.755  10.902 -0.0710 -0.0781 -0.0844
10234TIP3    H152117   4.211   1.744  10.837 -0.8943  0.9687 -1.1960
10234TIP3    H252118   4.074   1.807  10.857 -0.7148  0.6132  1.5777
10235TIP3   OH252119   5.262   4.738   0.498 -0.0140  0.2869  0.0391
10235TIP3    H152120   5.313   4.709   0.574  0.3219 -0.2453 -0.3809
10235TIP3    H252121   5.209   4.662   0.474  0.3894  0.2188 -0.6758
10236TIP3   OH252122   3.444   1.767   2.595 -0.3614  0.0161  0.1365
10236TIP3    H152123   3.447   1.671   2.602  0.3517  0.0580  0.5530
10236TIP3    H252124   3.355   1.790   2.620 -0.8485 -0.6081 -0.9780
10237TIP3   OH252125   2.186   5.431   1.465  1.0044 -0.3099 -0.3925
10237TIP3    H152126   2.156   5.521   1.449  0.3024 -0.2789  0.9355
10237TIP3    H252127   2.210   5.398   1.378 -0.3743  0.5820 -1.1584
10238TIP3   OH252128   0.007   5.970   0.125  0.2744  0.0331 -0.0920
10238TIP3    H152129   0.076   6.031   0.148  0.4102 -0.0591 -0.2518
10238TIP3    H252130   0.013   5.900   0.191  0.8335 -0.3641 -0.5538
10239TIP3   OH252131   0.829   2.678   4.810 -0.1360  0.5488  0.1608
10239TIP3    H152132   0.815   2.583   4.803 -0.1773  0.6547 -1.5566
10239TIP3    H252133   0.780   2.704   4.888 -0.9434 -0.6831  0.0839
10240TIP3   OH252134   5.136   1.394  14.414 -0.3132  0.0624 -0.5951
10240TIP3    H152135   5.200   1.353  14.472  0.9171  1.1748 -1.1269
10240TIP3    H252136   5.147   1.488  14.429 -0.6508  0.3296 -1.9205
10241TIP3   OH252137   5.642   5.296   3.839  0.2220 -0.2372 -0.3920
10241TIP3    H152138   5.629   5.265   3.929 -3.2922  1.5606 -0.1048
10241TIP3    H252139   5.667   5.388   3.849  2.0140 -0.5857 -1.3061
10242TIP3   OH252140   4.626   0.298   4.442  0.2888 -0.2291  0.5174
10242TIP3    H152141   4.700   0.297   4.382 -0.6200  0.9483 -0.6862
10242TIP3    H252142   4.611   0.206   4.464 -0.5570 -0.9631 -2.6507
10243TIP3   OH252143   1.708   3.520   1.528 -0.4284  0.3508  0.1681
10243TIP3    H152144   1.683   3.463   1.455  1.6948  1.0821 -1.2069
10243TIP3    H252145   1.798   3.547   1.508  0.3650  0.3140  3.2526
10244TIP3   OH252146   5.315   2.050   1.323  0.6388  0.4272  0.2265
10244TIP3    H152147   5.328   1.961   1.290 -1.4009  0.8242 -1.9187
10244TIP3    H252148   5.379   2.103   1.275 -0.0953  0.5091 -0.6906
10245TIP3   OH252149   0.152   3.393  15.009 -0.0781  0.7550  0.2003
10245TIP3    H152150   0.115   3.391  15.097 -3.9681 -0.2314 -1.2743
10245TIP3    H252151   0.210   3.317  15.005 -0.2639  0.5100  1.7103
10246TIP3   OH252152   2.663   1.103   2.760 -0.2263 -0.2017  0.1286
10246TIP3    H152153   2.591   1.153   2.796 -0.2707 -0.2743  0.1413
10246TIP3    H252154   2.658   1.018   2.804 -0.2322 -0.2630  0.0108
10247TIP3   OH252155   6.563   2.894   0.398 -0.0148  0.4072 -0.0512
10247TIP3    H152156   6.518   2.941   0.328  0.2288 -0.6954 -0.9684
10247TIP3    H252157   6.504   2.822   0.420  0.3141  0.2381  0.2819
10248TIP3   OH252158   1.031   0.093   3.516 -0.0877  0.0269  0.1720
10248TIP3    H152159   1.123   0.121   3.516 -0.1370  0.2319 -1.1132
10248TIP3    H252160   0.991   0.144   3.587  0.8450 -0.2927  0.9571
10249TIP3   OH252161   2.442   1.565   3.111  0.4469  0.2614 -0.0125
10249TIP3    H152162   2.432   1.550   3.017  2.2799  1.1040 -0.3972
10249TIP3    H252163   2.420   1.481   3.152  1.7677 -0.8067 -1.3788
10250TIP3   OH252164   1.309   6.103   3.909 -0.3569  0.1147  0.8611
10250TIP3    H152165   1.343   6.134   3.825 -0.0956 -0.9692  0.5444
10250TIP3    H252166   1.234   6.048   3.886  0.7491 -1.5993  1.1739
10251TIP3   OH252167   3.207   6.954   2.106  0.2728 -0.7007  0.6012
10251TIP3    H152168   3.231   6.863   2.090  0.0638 -0.7481  0.5564
10251TIP3    H252169   3.231   6.970   2.197  2.5427 -0.0920 -0.0332
10252TIP3   OH252170   1.461   7.181   5.428  0.0828  0.1809 -0.0217
10252TIP3    H152171   1.495   7.267   5.449  1.3523 -0.0817 -0.8696
10252TIP3    H252172   1.538   7.126   5.417 -0.6628 -0.8292 -0.4450
10253TIP3   OH252173   3.713   2.043  14.672  0.5994 -0.0689  0.2727
10253TIP3    H152174   3.749   2.073  14.589  0.8620 -1.5177 -0.1647
10253TIP3    H252175   3.756   2.097  14.738 -0.7493  2.1534 -0.5891
10254TIP3   OH252176   4.228   3.731   1.596 -0.2207 -0.4850 -0.3513
10254TIP3    H152177   4.145   3.727   1.643 -0.2479 -2.2128 -0.4938
10254TIP3    H252178   4.292   3.756   1.663 -0.7795  0.5970 -0.1864
10255TIP3   OH252179   6.050   3.263   2.618 -0.3784 -0.5515  0.2883
10255TIP3    H152180   6.019   3.343   2.661  0.1353 -0.3410  0.2715
10255TIP3    H252181   6.113   3.226   2.680 -1.6074 -1.6633  0.9075
10256TIP3   OH252182   0.257   1.330  12.284  0.1328 -0.2336  0.0661
10256TIP3    H152183   0.337   1.361  12.327  0.8861  0.7766 -1.9570
10256TIP3    H252184   0.285   1.309  12.195 -1.9728  0.7520 -0.8840
10257TIP3   OH252185   4.350   3.603  13.963  0.1252  0.4435  0.3639
10257TIP3    H152186   4.413   3.596  13.892  0.9207  1.4029  0.9546
10257TIP3    H252187   4.355   3.518  14.008  1.2151  0.6157  0.5874
10258TIP3   OH252188   6.843   5.132  11.191 -0.0805 -0.4423 -0.2443
10258TIP3    H152189   6.825   5.038  11.183 -0.8302 -0.7092  3.1702
10258TIP3    H252190   6.938   5.138  11.185  0.0894 -1.6302  0.8994
10259TIP3   OH252191   3.619   1.826  13.631  0.6664  0.3978  0.0202
10259TIP3    H152192   3.542   1.835  13.574  0.3773  0.8039  0.4667
10259TIP3    H252193   3.619   1.733  13.656  0.8878  0.1820 -0.7626
10260TIP3   OH252194   3.219   3.807   2.427  0.3775 -0.6894  0.3467
10260TIP3    H152195   3.125   3.814   2.409  0.5938 -1.2520 -1.1150
10260TIP3    H252196   3.245   3.895   2.455 -0.1921  0.0181 -1.2448
10261TIP3   OH252197   0.862   0.377  12.175  0.3884  0.4075  0.4122
10261TIP3    H152198   0.901   0.419  12.098 -0.1224  0.8550  0.3867
10261TIP3    H252199   0.860   0.284  12.154 -0.1418  0.5719 -0.3012
10262TIP3   OH252200   3.033   7.068   0.696  0.3770 -0.1015 -0.1379
10262TIP3    H152201   3.034   7.029   0.784  1.1179  1.0583  0.3931
10262TIP3    H252202   3.032   6.993   0.637 -0.3180 -0.9083  0.8562
10263TIP3   OH252203   2.404   5.915  12.727 -0.1011 -0.1177  0.2945
10263TIP3    H152204   2.343   5.986  12.706 -1.0644 -0.5391  1.5189
10263TIP3    H252205   2.489   5.958  12.731 -0.1975  0.4000 -1.9042
10264TIP3   OH252206   2.962   5.253   1.597 -0.2219  0.4690 -0.5200
10264TIP3    H152207   2.988   5.315   1.529  0.1956  1.9631  0.9058
10264TIP3    H252208   3.023   5.180   1.588  1.5531  1.8284 -0.1492
10265TIP3   OH252209   5.187   6.624   3.238  0.4611  0.0986  1.2109
10265TIP3    H152210   5.126   6.667   3.299  0.4504 -0.9998  2.0064
10265TIP3    H252211   5.270   6.622   3.285  0.9996  1.0797  0.3488
10266TIP3   OH252212   3.658   0.173   2.971 -0.3801  0.0776  0.1894
10266TIP3    H152213   3.584   0.117   2.993 -0.0647 -0.0619  0.9015
10266TIP3    H252214   3.650   0.186   2.876 -2.7118  2.0481  0.5558
10267TIP3   OH252215   6.108   7.029   1.865 -0.7525 -0.0606  0.3733
10267TIP3    H152216   6.162   7.103   1.837 -1.0074 -0.3229 -0.8802
10267TIP3    H252217   6.056   7.063   1.938 -0.9223  1.0269 -0.2411
10268TIP3   OH252218   2.642   3.150  11.136  0.1790 -0.2452  0.9939
10268TIP3    H152219   2.640   3.081  11.203 -0.9332 -1.3603 -0.1368
10268TIP3    H252220   2.586   3.117  11.066  2.8355 -0.0509 -1.4192
10269TIP3   OH252221   2.290   5.857   2.602 -0.6771  0.8147 -0.1769
10269TIP3    H152222   2.298   5.762   2.611  0.9511  1.0092  0.9027
10269TIP3    H252223   2.275   5.871   2.508 -1.7866 -0.5292 -0.2247
10270TIP3   OH252224   1.682   6.229   4.324 -0.4065  0.3618  0.5544
10270TIP3    H152225   1.701   6.289   4.396 -0.3062 -0.3802  1.1629
10270TIP3    H252226   1.659   6.147   4.368  0.4707 -0.3385 -0.2732
10271TIP3   OH252227   4.051   1.660   3.860  0.3389  0.3135  0.1352
10271TIP3    H152228   3.968   1.708   3.861  0.6385  0.8378  1.8468
10271TIP3    H252229   4.029   1.573   3.894  0.8317  1.1341  2.7332
10272TIP3   OH252230   5.742   4.761  15.179  0.8025 -0.7682  0.2786
10272TIP3    H152231   5.669   4.823  15.186  0.7019 -0.3035 -3.1228
10272TIP3    H252232   5.806   4.793  15.243 -0.9025  0.3349  1.5356
10273TIP3   OH252233   5.087   0.035   2.899 -0.7024  0.1783 -0.3272
10273TIP3    H152234   5.174  -0.004   2.905 -0.2958  1.0112 -0.7087
10273TIP3    H252235   5.027  -0.040   2.901  0.0256 -0.4135 -0.2660
10274TIP3   OH252236   1.603   7.006   3.428 -0.1081 -0.3087 -0.3383
10274TIP3    H152237   1.555   7.075   3.473  0.1659 -1.1883  1.4113
10274TIP3    H252238   1.630   7.045   3.345 -1.4194  1.0976 -0.1376
10275TIP3   OH252239   6.245   6.848   2.095 -0.2426  0.0830  0.1464
10275TIP3    H152240   6.229   6.776   2.034  2.1517 -1.0622  0.7696
10275TIP3    H252241   6.171   6.845   2.155 -0.2716 -1.7675  0.0598
10276TIP3   OH252242   2.710   5.240   2.467 -0.0057 -0.2580 -0.1338
10276TIP3    H152243   2.659   5.290   2.532 -1.1364 -2.6844  0.9659
10276TIP3    H252244   2.659   5.247   2.386 -1.3864 -1.4348  0.5867
10277TIP3   OH252245   2.269   6.739  12.556  0.1021  0.2857 -0.6475
10277TIP3    H152246   2.227   6.716  12.473 -1.1779  0.8631 -0.1917
10277TIP3    H252247   2.306   6.656  12.588 -0.1611 -0.1211 -1.3664
10278TIP3   OH252248   3.915   6.381   4.659 -0.6500 -0.4222 -0.2544
10278TIP3    H152249   3.963   6.299   4.652 -0.2715 -0.1166 -1.5923
10278TIP3    H252250   3.895   6.390   4.752  1.3939 -0.8411  0.2669
10279TIP3   OH252251   1.857   1.210   2.855  0.2071  0.2516  0.1598
10279TIP3    H152252   1.919   1.146   2.822 -0.0616  0.4566 -0.7685
10279TIP3    H252253   1.792   1.158   2.903  0.7317 -0.0221  0.5839
10280TIP3   OH252254   2.261   2.559   0.767  0.7183 -0.3844 -0.3557
10280TIP3    H152255   2.351   2.560   0.801  0.1617  3.2192  1.5064
10280TIP3    H252256   2.206   2.544   0.844 -0.3875 -3.5189 -1.6072
10281TIP3   OH252257   5.052   5.516   4.297  0.4526 -0.6435  0.0868
10281TIP3    H152258   5.132   5.568   4.304  1.1197 -1.4439 -1.1793
10281TIP3    H252259   5.021   5.531   4.208 -0.0660 -1.3790  0.1270
10282TIP3   OH252260   2.573   5.439  13.425  0.1408 -0.4043  0.0543
10282TIP3    H152261   2.610   5.519  13.461 -0.8955  0.9843 -1.7728
10282TIP3    H252262   2.523   5.401  13.497 -0.0251  1.0441  0.7447
10283TIP3   OH252263   3.400   0.675   3.808  0.0286  0.0489  0.9189
10283TIP3    H152264   3.380   0.629   3.726 -2.4171  2.0197  0.2847
10283TIP3    H252265   3.495   0.671   3.815  0.1011 -3.7049  0.1736
10284TIP3   OH252266   0.117   5.720  12.150 -0.7318 -0.7325  0.6232
10284TIP3    H152267   0.205   5.701  12.116 -0.0990  0.6422  1.3984
10284TIP3    H252268   0.060   5.657  12.105  0.7398 -2.1953  0.7103
10285TIP3   OH252269   3.681   0.828  14.628 -0.1551 -0.2014  0.2659
10285TIP3    H152270   3.602   0.775  14.620  0.2830 -0.9681  0.9006
10285TIP3    H252271   3.651   0.917  14.612 -0.8441 -0.6526 -1.2010
10286TIP3   OH252272   6.389   6.933   3.677  0.3534  0.3974  0.2221
10286TIP3    H152273   6.407   6.840   3.690  1.2319  0.4803 -0.3752
10286TIP3    H252274   6.391   6.970   3.765 -1.7149 -0.4159  0.6864
10287TIP3   OH252275   0.402   2.347   3.810 -0.1580  0.3566  0.1071
10287TIP3    H152276   0.323   2.363   3.759 -0.6770 -1.0571  0.4235
10287TIP3    H252277   0.452   2.428   3.802 -1.4290  1.1197 -0.4576
10288TIP3   OH252278   4.514   6.765   2.268  1.2487  0.1621 -0.0027
10288TIP3    H152279   4.480   6.799   2.351 -1.7298  0.0241 -1.0554
10288TIP3    H252280   4.525   6.671   2.283 -1.5112 -0.2814 -0.3420
10289TIP3   OH252281   1.218   3.757   0.702 -0.4568 -0.4106  0.3097
10289TIP3    H152282   1.170   3.729   0.780 -1.0969  0.5653  0.2841
10289TIP3    H252283   1.244   3.675   0.659 -1.2318 -0.9610  0.8593
10290TIP3   OH252284   2.202   0.940  12.665  0.1306  0.0082 -0.5562
10290TIP3    H152285   2.145   1.016  12.670 -0.1002 -0.2558  1.8325
10290TIP3    H252286   2.143   0.866  12.649 -0.3102 -0.2673  1.9266
10291TIP3   OH252287   0.677   2.765   1.861 -0.0214  0.5718 -0.4731
10291TIP3    H152288   0.740   2.737   1.794  1.0426  0.8272  0.3929
10291TIP3    H252289   0.688   2.702   1.932 -1.4385  0.0556 -0.6876
10292TIP3   OH252290   5.031   4.359  11.186 -0.4294 -0.6354  0.1396
10292TIP3    H152291   5.050   4.331  11.276  0.8504 -1.8085 -0.4634
10292TIP3    H252292   5.109   4.406  11.159 -1.1798  0.5150 -0.0674
10293TIP3   OH252293   7.059   3.793  11.977 -0.3319 -0.2496 -0.2779
10293TIP3    H152294   6.981   3.747  12.008 -1.0173  0.7638 -0.4231
10293TIP3    H252295   7.034   3.886  11.981  1.2899  0.1722  0.8155
10294TIP3   OH252296   1.590   4.301   3.823  0.2085  0.7273 -0.4929
10294TIP3    H152297   1.506   4.265   3.853  0.0672  1.3607 -0.1099
10294TIP3    H252298   1.619   4.240   3.755 -1.9964  2.0613 -2.7781
10295TIP3   OH252299   2.022   2.265   0.103 -0.4395 -0.1876  0.2427
10295TIP3    H152300   2.023   2.310   0.188  0.0446  2.3943 -1.0385
10295TIP3    H252301   1.931   2.237   0.093 -0.6239 -0.0517  1.3644
10296TIP3   OH252302   3.427   0.592  13.788 -1.1097 -0.4551 -0.7329
10296TIP3    H152303   3.473   0.676  13.794 -0.9689 -0.6226  1.2349
10296TIP3    H252304   3.494   0.530  13.759 -1.2023  0.0750 -2.1505
10297TIP3   OH252305   5.188   0.112  13.239 -0.9465 -0.3229  0.0575
10297TIP3    H152306   5.186   0.021  13.271 -0.6066  0.5723  2.8315
10297TIP3    H252307   5.272   0.146  13.270 -0.0026  0.3904 -2.8918
10298TIP3   OH252308   0.669   2.196   3.826  0.1850  0.3536 -0.2629
10298TIP3    H152309   0.632   2.108   3.838 -0.1987  0.5938  0.3580
10298TIP3    H252310   0.599   2.256   3.851  0.5223  0.8358 -0.4524
10299TIP3   OH252311   5.507   5.201  11.153 -0.1135  0.3899 -0.2876
10299TIP3    H152312   5.514   5.168  11.242  0.3344 -0.9443 -0.7994
10299TIP3    H252313   5.465   5.131  11.103 -1.3130  1.5235 -0.9355
10300TIP3   OH252314   6.620   7.047  11.977 -0.3108 -0.1336 -0.4087
10300TIP3    H152315   6.572   6.965  11.964 -0.2304 -0.3605  0.6551
10300TIP3    H252316   6.597   7.074  12.065  1.4488 -0.1987  0.0940
10301TIP3   OH252317   1.689   1.829  14.525  0.2847 -0.3415  0.6290
10301TIP3    H152318   1.714   1.847  14.615 -0.0299 -0.6976  0.7911
10301TIP3    H252319   1.745   1.756  14.498 -0.6570 -1.2480  1.0469
10302TIP3   OH252320   5.584   6.096  11.264 -0.3346  0.2242  0.0418
10302TIP3    H152321   5.568   6.018  11.318 -1.0695  0.0445 -0.4232
10302TIP3    H252322   5.545   6.168  11.313 -1.6878 -0.0532 -0.5842
10303TIP3   OH252323   2.592   1.160   1.437 -0.0805  0.4679 -0.6800
10303TIP3    H152324   2.595   1.242   1.486  0.6821  0.4399 -0.6611
10303TIP3    H252325   2.608   1.092   1.503 -0.7226  0.2991 -0.6923
10304TIP3   OH252326   2.635   6.258   0.517 -0.1366  0.3786 -0.0609
10304TIP3    H152327   2.541   6.271   0.504 -0.4858 -0.9751  0.9331
10304TIP3    H252328   2.651   6.168   0.488  1.1063  0.9752 -1.3651
10305TIP3   OH252329   2.225   6.540   4.143  0.3518 -0.6726  0.1897
10305TIP3    H152330   2.131   6.545   4.127  0.2978  0.8626  0.8151
10305TIP3    H252331   2.237   6.459   4.192 -0.4749 -1.4546 -0.8321
10306TIP3   OH252332   4.963   0.417  12.904 -0.4164  0.4142  0.3133
10306TIP3    H152333   4.944   0.324  12.904  0.2100  0.2600 -1.0541
10306TIP3    H252334   5.022   0.430  12.829 -0.9482  1.9949  0.1188
10307TIP3   OH252335   3.177   2.204   5.506 -0.0858 -0.0465 -0.1336
10307TIP3    H152336   3.199   2.268   5.438  0.9435 -0.8328 -0.5720
10307TIP3    H252337   3.254   2.202   5.562  0.7511 -2.3238 -1.2657
10308TIP3   OH252338   4.075   4.405  15.220 -0.5227 -0.2233 -0.0691
10308TIP3    H152339   4.155   4.354  15.216 -0.4714 -0.3328  1.5736
10308TIP3    H252340   4.023   4.362  15.288 -1.0131  1.1373  0.4453
10309TIP3   OH252341   2.393   2.876   2.716  0.0234  0.0406  0.1788
10309TIP3    H152342   2.395   2.971   2.721 -1.0642  0.0411  1.0840
10309TIP3    H252343   2.480   2.851   2.685  0.2997  1.3259 -0.1193
10310TIP3   OH252344   2.362   6.491   4.623 -0.2980 -0.7393  0.3499
10310TIP3    H152345   2.419   6.479   4.547 -0.4840 -1.6378  0.3365
10310TIP3    H252346   2.322   6.405   4.636  0.5533 -0.9012  2.1284
10311TIP3   OH252347   1.601   2.521   0.858 -0.6446 -0.1529 -0.1594
10311TIP3    H152348   1.630   2.611   0.844  0.3261 -0.0453  2.0826
10311TIP3    H252349   1.654   2.468   0.798  0.4279  0.5679  0.1320
10312TIP3   OH252350   0.050   2.496   2.975 -0.2582  0.3345  0.2538
10312TIP3    H152351   0.065   2.591   2.977 -1.0694  0.4558  0.8235
10312TIP3    H252352  -0.039   2.485   3.008 -0.0703 -0.6531  0.4492
10313TIP3   OH252353   0.460   0.732  15.260 -0.1192  0.0014 -0.1158
10313TIP3    H152354   0.497   0.697  15.178 -0.4597 -0.9863  0.1417
10313TIP3    H252355   0.484   0.668  15.326 -0.6295  0.3369  0.3983
10314TIP3   OH252356   2.543   0.621  11.187  0.0260 -0.0588  0.2949
10314TIP3    H152357   2.592   0.703  11.180 -0.7700  0.3658 -0.4421
10314TIP3    H252358   2.606   0.558  11.222  0.7885  0.7425  0.3791
10315TIP3   OH252359   6.654   5.224   2.140  0.1757 -0.1144  0.1982
10315TIP3    H152360   6.674   5.265   2.056  0.6894  0.8684  0.7942
10315TIP3    H252361   6.694   5.280   2.206 -1.7081  0.1175  1.2359
10316TIP3   OH252362   4.478   6.677  12.819 -0.6829  0.4415 -0.6683
10316TIP3    H152363   4.480   6.658  12.725  2.5122  0.9714 -0.8024
10316TIP3    H252364   4.537   6.614  12.858 -0.9192  1.1036  0.8198
10317TIP3   OH252365   0.837   0.026   1.743 -0.4405  0.3562  0.0305
10317TIP3    H152366   0.806  -0.033   1.674 -1.5733  1.1462 -0.1556
10317TIP3    H252367   0.783   0.004   1.819  0.1735  0.1289  0.4153
10318TIP3   OH252368   6.319   3.110  13.771 -0.0346 -0.7173  0.2523
10318TIP3    H152369   6.255   3.137  13.705 -1.0037 -0.4165  1.2676
10318TIP3    H252370   6.293   3.021  13.794  0.5251 -0.9554 -0.0385
10319TIP3   OH252371   0.118   5.965  10.568 -0.0740 -0.4232  0.1033
10319TIP3    H152372   0.188   6.022  10.601  0.8509 -0.8771 -0.9886
10319TIP3    H252373   0.059   5.954  10.642  0.1460  1.2966  0.5861
10320TIP3   OH252374   6.841   5.560   1.483 -0.3160 -0.4977 -0.2392
10320TIP3    H152375   6.816   5.495   1.418  0.1246 -1.2956  0.3823
10320TIP3    H252376   6.816   5.644   1.443 -2.3570 -1.1121 -0.3910
10321TIP3   OH252377   6.694   2.239   4.309  0.1146 -0.2808  0.2288
10321TIP3    H152378   6.620   2.190   4.272 -1.5130  2.1068  0.0926
10321TIP3    H252379   6.758   2.172   4.332 -1.1209 -2.2951 -1.7676
10322TIP3   OH252380   0.524   7.048   4.300 -0.7997 -0.4221 -0.0287
10322TIP3    H152381   0.530   7.007   4.387  1.3964  1.5671  0.8599
10322TIP3    H252382   0.449   7.108   4.308 -1.5886 -1.3768 -0.0637
10323TIP3   OH252383   3.977   3.849   3.596 -0.1390  0.0062 -0.6472
10323TIP3    H152384   4.011   3.899   3.522 -0.3095 -0.0587 -0.7687
10323TIP3    H252385   4.000   3.902   3.673 -1.0679  0.7072 -0.8317
10324TIP3   OH252386   1.639   0.812   3.515 -0.2488 -0.1933 -0.2818
10324TIP3    H152387   1.690   0.746   3.468  0.4095  0.5623 -0.6499
10324TIP3    H252388   1.548   0.794   3.489 -0.1390 -1.2296 -0.0149
10325TIP3   OH252389   3.303   0.291   2.423 -0.1082  0.0011  0.1782
10325TIP3    H152390   3.257   0.366   2.459 -0.6009  0.2996 -1.0151
10325TIP3    H252391   3.322   0.316   2.332  0.5912 -0.9283  0.0496
10326TIP3   OH252392   0.717   1.705  15.036  0.0955  0.2261  0.4723
10326TIP3    H152393   0.800   1.722  15.081  0.0222  2.2069 -0.0418
10326TIP3    H252394   0.742   1.681  14.947  0.2139  4.0612 -0.7228
10327TIP3   OH252395   4.099   3.025   2.964  0.2978 -0.6040  0.1030
10327TIP3    H152396   4.020   3.007   2.913 -1.9390  0.6755  2.8180
10327TIP3    H252397   4.092   2.970   3.041  1.2128  0.6839  1.1673
10328TIP3   OH252398   3.354   5.408   4.165  0.1791  0.5167 -0.5529
10328TIP3    H152399   3.438   5.424   4.122  1.5441 -1.0240  1.3804
10328TIP3    H252400   3.375   5.402   4.258 -1.9010 -1.0159 -0.1046
10329TIP3   OH252401   3.279   0.097  11.274  0.0087 -0.0399  0.5775
10329TIP3    H152402   3.239   0.184  11.267 -0.7142 -0.4870 -2.2143
10329TIP3    H252403   3.363   0.106  11.229 -0.0154 -0.7434  0.3883
10330TIP3   OH252404   1.125   3.685  13.337  0.1350  0.0474  0.7879
10330TIP3    H152405   1.052   3.722  13.387 -1.0512 -0.9311 -0.1520
10330TIP3    H252406   1.128   3.736  13.257 -1.0214 -1.3041 -0.1754
10331TIP3   OH252407   2.006   0.035  14.635  0.2012  0.2964 -0.2551
10331TIP3    H152408   2.052   0.096  14.694 -0.2411 -0.1907  0.6208
10331TIP3    H252409   1.927   0.082  14.609 -1.4593 -0.7323  2.4384
10332TIP3   OH252410   2.355   1.558  11.169  0.1776 -0.1656  0.5918
10332TIP3    H152411   2.391   1.637  11.128  1.1561 -0.0854  1.5524
10332TIP3    H252412   2.319   1.507  11.097  2.0219 -0.1334 -0.4006
10333TIP3   OH252413   6.859   4.498  14.949 -0.2032 -0.2278  0.3545
10333TIP3    H152414   6.928   4.475  14.887  0.5073  1.8931  0.2665
10333TIP3    H252415   6.894   4.475  15.034  0.2636  0.0145  0.2311
10334TIP3   OH252416   2.355   3.841   0.791  0.1642 -0.5379 -0.2973
10334TIP3    H152417   2.399   3.860   0.708 -0.3047  0.1115 -0.4085
10334TIP3    H252418   2.415   3.783   0.838  0.6709 -0.4849 -0.8733
10335TIP3   OH252419   2.089   0.867  14.347 -0.2529 -0.1726 -0.8524
10335TIP3    H152420   2.054   0.778  14.344  1.0592 -0.6960 -1.9103
10335TIP3    H252421   2.019   0.919  14.388 -0.4438 -1.9230  1.2219
10336TIP3   OH252422   7.204   1.372  12.349  0.0100  0.9663 -0.0110
10336TIP3    H152423   7.170   1.445  12.402  1.9133  0.6330  1.8046
10336TIP3    H252424   7.297   1.390  12.339  0.4895 -1.0776  0.2960
10337TIP3   OH252425   0.243   4.585  12.166  0.2772 -0.0336 -0.7706
10337TIP3    H152426   0.266   4.543  12.083  0.4980  0.6373 -1.0611
10337TIP3    H252427   0.156   4.552  12.187  0.6164 -0.9426 -0.7804
10338TIP3   OH252428   3.847   6.982   2.379  0.2841  0.2087 -0.3208
10338TIP3    H152429   3.757   7.003   2.355  0.2325  0.9651  0.4956
10338TIP3    H252430   3.867   6.902   2.330 -0.7425  0.1751 -0.7005
10339TIP3   OH252431   2.053   1.637  13.038  0.3840 -0.2562 -0.4391
10339TIP3    H152432   2.006   1.618  12.957 -0.1208  0.1074 -0.2351
10339TIP3    H252433   2.113   1.708  13.014 -0.7718  0.8456 -0.1657
10340TIP3   OH252434   2.354   1.278   1.663  0.0742 -0.5356  0.1909
10340TIP3    H152435   2.306   1.319   1.591  0.2458 -3.2564 -1.5912
10340TIP3    H252436   2.306   1.306   1.742  0.5944  3.5304 -0.6808
10341TIP3   OH252437   1.132   3.774   1.961 -0.3639  0.3110  0.1125
10341TIP3    H152438   1.152   3.690   2.001 -0.6995  0.5398  0.7825
10341TIP3    H252439   1.042   3.793   1.987 -0.7701  0.2527 -1.1583
10342TIP3   OH252440   5.155   7.012   3.257 -0.4238 -0.4918 -0.3089
10342TIP3    H152441   5.136   7.051   3.342 -2.1540  0.7520 -1.2174
10342TIP3    H252442   5.248   7.029   3.243 -0.4406  0.5427  0.7174
10343TIP3   OH252443   1.254   6.520   2.307 -0.2663  0.0361  0.8189
10343TIP3    H152444   1.349   6.531   2.309 -0.5116  2.7888  2.5778
10343TIP3    H252445   1.231   6.529   2.214  1.1703 -0.9917  0.3261
10344TIP3   OH252446   3.797   2.168   1.550  0.4930  0.1526 -0.9662
10344TIP3    H152447   3.764   2.109   1.617  1.0393  1.4313  0.4769
10344TIP3    H252448   3.892   2.153   1.550  0.4625 -0.0809 -1.7099
10345TIP3   OH252449   2.356   6.462   0.387 -0.4003 -0.1626 -0.0290
10345TIP3    H152450   2.286   6.506   0.436 -0.4434  0.6911 -0.8370
10345TIP3    H252451   2.353   6.372   0.418 -2.0586 -0.2245 -0.2364
10346TIP3   OH252452   5.341   4.458  12.491  0.1880  0.3187  0.5145
10346TIP3    H152453   5.393   4.378  12.490 -0.3665 -0.0885  1.6393
10346TIP3    H252454   5.253   4.430  12.463  0.8925  1.3239 -3.1965
10347TIP3   OH252455   1.933   1.589  12.810 -0.0958  0.6686 -0.0246
10347TIP3    H152456   1.978   1.539  12.742  0.8896 -0.1199  1.1607
10347TIP3    H252457   1.920   1.676  12.772 -1.4626 -0.3352 -1.9755
10348TIP3   OH252458   2.645   4.165   4.354 -0.1312 -0.3041  0.0682
10348TIP3    H152459   2.611   4.206   4.274 -1.1121  1.6920  1.4223
10348TIP3    H252460   2.716   4.222   4.382 -0.0422 -0.7667  0.8161
10349TIP3   OH252461   4.476   5.582   1.918 -0.5195 -0.0818 -0.5302
10349TIP3    H152462   4.547   5.596   1.981  0.9852  0.1378 -2.1939
10349TIP3    H252463   4.512   5.612   1.835 -2.4833 -0.2630 -1.4933
10350TIP3   OH252464   4.017   4.544   2.356 -0.0381  0.1281 -0.3872
10350TIP3    H152465   3.969   4.529   2.437  1.5241 -1.7066  0.2719
10350TIP3    H252466   4.020   4.639   2.346 -3.2396  0.3277 -0.1858
10351TIP3   OH252467   0.317   6.011   2.254  0.1939 -0.2427 -0.8083
10351TIP3    H152468   0.373   6.086   2.276  1.7842 -0.5118 -3.4795
10351TIP3    H252469   0.236   6.050   2.221  0.3125  0.2510 -0.5221
10352TIP3   OH252470   4.175   3.207   5.291  0.3833 -0.0159  0.1655
10352TIP3    H152471   4.270   3.224   5.288  0.3911  0.0417  0.6812
10352TIP3    H252472   4.136   3.284   5.249  0.5748 -0.1244 -0.2153
10353TIP3   OH252473   5.173   4.335   3.124 -0.3119  0.2044  0.1030
10353TIP3    H152474   5.168   4.284   3.043 -2.4184  0.3904  0.0768
10353TIP3    H252475   5.212   4.275   3.188  2.5552  0.4335 -1.2557
10354TIP3   OH252476   6.638   2.705   5.158 -0.0799  0.1740 -0.3199
10354TIP3    H152477   6.603   2.620   5.181 -1.4135  0.6805 -0.4012
10354TIP3    H252478   6.701   2.725   5.227  1.9106 -1.7920 -1.4087
10355TIP3   OH252479   3.079   2.906   1.147  0.1628  0.2907  0.1726
10355TIP3    H152480   3.031   2.857   1.214 -0.4021  0.3440 -0.1949
10355TIP3    H252481   3.170   2.906   1.179 -0.1946  0.7954  1.2270
10356TIP3   OH252482   6.826   2.282   4.694 -0.9458 -0.1721 -0.1114
10356TIP3    H152483   6.902   2.298   4.639 -0.4658  0.0509  0.6050
10356TIP3    H252484   6.753   2.324   4.647 -0.4809  0.3150 -0.4073
10357TIP3   OH252485   0.719   1.302   4.637  0.0263  0.0062  0.0769
10357TIP3    H152486   0.766   1.383   4.621 -0.3574  0.4589  1.1151
10357TIP3    H252487   0.669   1.286   4.557 -0.1993  1.0077  0.0026
10358TIP3   OH252488   0.801   1.231  10.476 -0.2608 -0.5012 -0.2711
10358TIP3    H152489   0.788   1.168  10.404 -0.4598  1.2846 -1.8892
10358TIP3    H252490   0.713   1.263  10.495 -0.0956 -0.2833  0.1256
10359TIP3   OH252491   4.101   6.915   2.126 -0.1718 -0.4565  0.2137
10359TIP3    H152492   4.054   6.923   2.043 -2.0773  0.2591  1.2682
10359TIP3    H252493   4.089   7.001   2.168  2.2541 -0.2031  0.5200
10360TIP3   OH252494   2.712   3.969   1.016  0.1829 -1.0060  0.1138
10360TIP3    H152495   2.658   4.040   1.051 -0.2001 -1.9544  1.5191
10360TIP3    H252496   2.738   3.918   1.093 -0.4539 -3.0486 -0.9487
10361TIP3   OH252497   0.753   4.985   2.012 -0.6367  0.2015  0.1116
10361TIP3    H152498   0.665   4.982   2.049 -0.6564 -0.3935  0.0255
10361TIP3    H252499   0.790   5.067   2.044 -1.4743  0.8110 -0.4247
10362TIP3   OH252500   4.149   5.335   0.837  0.1027  0.3908 -0.7663
10362TIP3    H152501   4.176   5.269   0.774  0.5781  2.4333 -2.8351
10362TIP3    H252502   4.058   5.354   0.814 -0.3943 -0.2669  0.5318
10363TIP3   OH252503   0.823   6.094   3.607  0.0289  0.1891 -0.0916
10363TIP3    H152504   0.736   6.054   3.611 -0.3171  1.0003  0.6725
10363TIP3    H252505   0.876   6.030   3.559 -0.3088 -1.6012  1.7685
10364TIP3   OH252506   6.876   4.519   1.926  0.1009 -0.0452  0.1558
10364TIP3    H152507   6.783   4.512   1.906  0.6645 -0.2961 -2.7497
10364TIP3    H252508   6.883   4.491   2.017 -2.4283 -1.9342 -0.1364
10365TIP3   OH252509   0.969   1.203  14.208  0.2477 -0.0299 -0.4388
10365TIP3    H152510   0.963   1.180  14.300 -0.8478  0.5723 -0.3358
10365TIP3    H252511   0.977   1.298  14.208 -0.8027  0.0761 -0.9702
10366TIP3   OH252512   1.605   5.901   4.773  0.1229 -0.7417  0.1547
10366TIP3    H152513   1.616   5.990   4.807 -2.1051  0.1797 -1.3182
10366TIP3    H252514   1.691   5.879   4.737  1.0762  0.2695  1.6681
10367TIP3   OH252515   3.122   1.927   3.560  0.0336  0.0897  0.0053
10367TIP3    H152516   3.133   1.863   3.630  0.1120  0.7813  0.6359
10367TIP3    H252517   3.201   1.981   3.565 -0.8669  1.3971  0.7033
10368TIP3   OH252518   3.579   5.083   2.390  0.1285 -0.9235  0.6810
10368TIP3    H152519   3.508   5.144   2.371  1.0617 -0.2440 -0.7373
10368TIP3    H252520   3.593   5.036   2.309  1.4089 -0.9232  0.8788
10369TIP3   OH252521   3.934   2.269   2.165 -0.3398  0.0627  0.9060
10369TIP3    H152522   3.900   2.259   2.076 -1.1871 -1.3274  1.3481
10369TIP3    H252523   3.956   2.362   2.172  3.3171 -0.3157 -1.9941
10370TIP3   OH252524   0.923   0.703   3.440 -0.0041 -0.1258  0.3830
10370TIP3    H152525   0.977   0.625   3.453  0.5154  0.2592  0.5872
10370TIP3    H252526   0.957   0.743   3.360  0.1908  0.2556  0.6497
10371TIP3   OH252527   7.158   2.233   2.915 -0.2120 -0.8771 -0.2511
10371TIP3    H152528   7.221   2.298   2.947  0.0406 -1.0095 -0.4709
10371TIP3    H252529   7.189   2.150   2.952 -0.2632 -0.9412 -0.3531
10372TIP3   OH252530   1.511   6.352   3.577 -0.0969 -0.7720 -0.2169
10372TIP3    H152531   1.526   6.433   3.529  1.2196  0.5612  2.2615
10372TIP3    H252532   1.596   6.308   3.577  0.6457  0.4511  2.8125
10373TIP3   OH252533   0.310   0.546  14.254 -0.0376  0.3625  0.2251
10373TIP3    H152534   0.306   0.596  14.172 -0.9231 -0.1257 -0.0413
10373TIP3    H252535   0.314   0.455  14.226  2.7428  0.2634  0.6882
10374TIP3   OH252536   2.723   3.978  12.875  0.8736 -0.1620  0.2528
10374TIP3    H152537   2.779   4.030  12.818 -2.0658  1.2039 -1.6144
10374TIP3    H252538   2.700   3.901  12.823  2.2318 -1.5767  1.6265
10375TIP3   OH252539   5.592   0.491  10.542 -0.2775  0.5878  0.1159
10375TIP3    H152540   5.668   0.505  10.485 -0.1183 -1.0768 -0.1394
10375TIP3    H252541   5.547   0.575  10.543  0.8126  1.2166 -0.8580
10376TIP3   OH252542   4.870   2.186   2.367 -0.3555 -0.2449  0.5727
10376TIP3    H152543   4.849   2.258   2.427 -0.5311 -0.1046  0.3461
10376TIP3    H252544   4.867   2.108   2.421  3.3245  0.2072  1.7021
10377TIP3   OH252545   2.543   5.304   4.214 -0.3323 -0.2373 -0.8341
10377TIP3    H152546   2.495   5.232   4.175  0.8258 -0.5289 -1.7638
10377TIP3    H252547   2.507   5.382   4.172 -2.9789  0.0246  1.5562
10378TIP3   OH252548   6.329   6.437  11.256 -0.3754 -0.0547  0.2073
10378TIP3    H152549   6.370   6.352  11.237 -0.9891 -0.6004  1.2070
10378TIP3    H252550   6.390   6.480  11.316  0.2790  0.5335 -0.8510
10379TIP3   OH252551   5.932   2.579   2.993 -0.2224 -0.1354 -0.1198
10379TIP3    H152552   5.875   2.612   3.062  1.4125  3.0822 -0.1340
10379TIP3    H252553   6.020   2.603   3.021  0.9005 -2.2023 -1.5599
10380TIP3   OH252554   2.752   7.156  15.027  0.0611 -0.2178 -0.2305
10380TIP3    H152555   2.745   7.190  15.116  0.0557  0.6347 -0.5393
10380TIP3    H252556   2.769   7.234  14.974 -1.5499 -0.4596 -1.1865
10381TIP3   OH252557   5.352   3.178  11.218  0.0371  0.0498  0.1216
10381TIP3    H152558   5.413   3.153  11.149  0.2335 -0.5979  0.5181
10381TIP3    H252559   5.265   3.164  11.179  0.1310  0.8790 -0.4090
10382TIP3   OH252560   2.677   2.631  10.880 -0.4462 -0.3367  0.2641
10382TIP3    H152561   2.656   2.611  10.789  0.7886  0.2153 -0.1689
10382TIP3    H252562   2.761   2.587  10.896 -0.7453 -0.5995  1.2018
10383TIP3   OH252563   3.976   1.344   0.158  0.4398  0.1920 -0.1724
10383TIP3    H152564   4.001   1.436   0.167 -0.9291  0.5207  0.5285
10383TIP3    H252565   4.033   1.297   0.220  1.9211  0.3937 -1.3458
10384TIP3   OH252566   0.697   2.480   1.507  0.6232  0.2148 -0.4975
10384TIP3    H152567   0.745   2.545   1.559  1.5240 -0.3667 -0.5772
10384TIP3    H252568   0.633   2.443   1.567 -0.3938  1.6632 -0.6370
10385TIP3   OH252569   3.498   4.650   0.835  1.0048 -0.6017 -0.3409
10385TIP3    H152570   3.530   4.704   0.908 -0.1244 -0.1179 -0.1693
10385TIP3    H252571   3.408   4.680   0.822  0.5691 -1.9880 -0.6939
10386TIP3   OH252572   1.308   4.145  12.695 -0.2136  0.1837 -0.5250
10386TIP3    H152573   1.263   4.187  12.768  1.4291  0.1010  0.6041
10386TIP3    H252574   1.394   4.187  12.693  0.3115 -0.8834 -1.4371
10387TIP3   OH252575   2.541   5.592   4.760  0.2542  0.2825 -0.0824
10387TIP3    H152576   2.517   5.598   4.667  1.1054 -0.7560 -0.3849
10387TIP3    H252577   2.594   5.513   4.766  0.8116  0.7291  1.1627
10388TIP3   OH252578   6.674   2.650   1.079  0.1562 -0.2117 -0.3712
10388TIP3    H152579   6.691   2.654   0.985 -2.4637  0.2455 -0.8983
10388TIP3    H252580   6.639   2.562   1.094 -1.2106  0.3280 -0.2134
10389TIP3   OH252581   2.894   0.153  10.891 -0.4991 -0.3108  0.0963
10389TIP3    H152582   2.938   0.137  10.807  0.5897  0.7514  0.4348
10389TIP3    H252583   2.818   0.206  10.867 -0.4145 -0.3452 -0.2665
10390TIP3   OH252584   3.637   0.339  12.323  0.1020 -0.6079  0.2020
10390TIP3    H152585   3.703   0.301  12.382  0.4285 -0.7366 -0.2342
10390TIP3    H252586   3.640   0.283  12.246  3.7430  2.6193 -2.3835
10391TIP3   OH252587   1.695   4.077   4.191 -0.1308 -0.7882 -0.1008
10391TIP3    H152588   1.691   4.028   4.108 -0.1906 -0.9108 -0.0257
10391TIP3    H252589   1.782   4.057   4.226 -0.9185 -2.5605  0.9741
10392TIP3   OH252590   3.971   2.527   4.703  0.0700  0.4352  0.1080
10392TIP3    H152591   3.876   2.538   4.698  0.0745  0.1584 -0.7011
10392TIP3    H252592   3.985   2.481   4.786 -0.7851 -2.3459 -1.1908
10393TIP3   OH252593   5.427   5.729   5.894  0.3873  0.1446  0.1878
10393TIP3    H152594   5.392   5.797   5.836  0.5137  0.5165  0.5403
10393TIP3    H252595   5.508   5.767   5.929  0.5482 -0.2573  0.2568
10394TIP3   OH252596   0.405   2.943   0.740 -0.4693 -0.3938  0.2653
10394TIP3    H152597   0.420   2.997   0.818 -0.9545 -1.1691  0.9092
10394TIP3    H252598   0.312   2.958   0.719 -0.6478 -1.0963  0.5441
10395TIP3   OH252599   2.313   4.217  14.552  0.5412 -0.0355  0.0078
10395TIP3    H152600   2.371   4.147  14.522  0.8595  1.3007 -2.8021
10395TIP3    H252601   2.365   4.297  14.541 -1.4123  1.0956 -1.5480
10396TIP3   OH252602   2.132   4.742   3.953 -0.6314 -0.1463 -0.1000
10396TIP3    H152603   2.128   4.813   4.017 -2.3780  0.0453 -0.3813
10396TIP3    H252604   2.051   4.693   3.966  0.0432 -1.4577 -0.6457
10397TIP3   OH252605   4.965   5.022  11.816  0.8658  0.1493 -0.5154
10397TIP3    H152606   4.965   5.018  11.911 -1.6084 -3.4260 -0.4492
10397TIP3    H252607   5.031   4.957  11.789  0.7214  0.2801 -1.2120
10398TIP3   OH252608   4.053   1.602   1.668 -0.2334  0.0636  0.4571
10398TIP3    H152609   4.053   1.509   1.693 -0.7569  0.5396  2.3914
10398TIP3    H252610   3.995   1.644   1.731 -0.3493  1.6575 -0.6560
10399TIP3   OH252611   3.906   2.842   0.077  0.6013  0.1318 -0.4059
10399TIP3    H152612   3.893   2.813   0.168 -1.8247  3.6099  0.5777
10399TIP3    H252613   3.985   2.896   0.081  2.0764 -1.8504 -1.0869
10400TIP3   OH252614   1.018   4.298  11.647  0.4032  1.2689  0.4198
10400TIP3    H152615   1.030   4.391  11.626 -1.0313  1.5914  0.9153
10400TIP3    H252616   0.955   4.298  11.720  0.0911 -0.1056  0.1765
10401TIP3   OH252617   6.142   4.800   3.334  0.0895 -0.2511 -0.6461
10401TIP3    H152618   6.195   4.786   3.412 -0.3252  1.1889 -0.0918
10401TIP3    H252619   6.156   4.721   3.282  0.6399 -1.0903  0.7177
10402TIP3   OH252620   0.283   2.812   3.394 -0.8684 -0.2901  0.4830
10402TIP3    H152621   0.298   2.753   3.468 -1.4446  0.6645  1.4006
10402TIP3    H252622   0.190   2.835   3.400 -1.1684 -0.9660 -1.1446
10403TIP3   OH252623   1.364   3.124  13.175  0.4872 -0.7746 -0.6094
10403TIP3    H152624   1.302   3.129  13.248  1.3931 -1.1450  0.2108
10403TIP3    H252625   1.311   3.091  13.102 -1.1831  2.4973 -1.0705
10404TIP3   OH252626   5.712   4.110   2.910  0.1971  0.0797  0.0790
10404TIP3    H152627   5.635   4.166   2.904 -0.4926 -0.5318  2.2562
10404TIP3    H252628   5.758   4.142   2.987  1.3787 -0.4766 -0.3839
10405TIP3   OH252629   1.951   6.996   5.836  0.1098 -0.7520 -0.0357
10405TIP3    H152630   1.980   6.909   5.807  0.2071 -0.6603 -0.2143
10405TIP3    H252631   1.970   7.053   5.762 -0.2846 -0.6407 -0.0511
10406TIP3   OH252632   1.130   4.639   5.117 -0.1595  0.1278 -0.1041
10406TIP3    H152633   1.156   4.624   5.208 -0.7881 -0.2902  0.0087
10406TIP3    H252634   1.035   4.638   5.119 -0.1934 -1.3638 -1.0005
10407TIP3   OH252635   1.363   7.098   2.387  0.3325  0.2917 -0.1823
10407TIP3    H152636   1.405   7.079   2.303  0.4757 -0.9847  0.1536
10407TIP3    H252637   1.389   7.025   2.444 -0.7555  0.4944  0.6069
10408TIP3   OH252638   3.250   2.228   1.220 -0.0732  0.1878  0.0154
10408TIP3    H152639   3.291   2.167   1.282  0.0496 -0.5952 -0.8130
10408TIP3    H252640   3.227   2.174   1.144 -0.7685  1.0121 -0.3866
10409TIP3   OH252641   1.633   1.512  11.059 -0.5565 -0.0212 -0.9390
10409TIP3    H152642   1.616   1.604  11.080 -0.4256 -0.2601  0.2485
10409TIP3    H252643   1.560   1.464  11.097  0.7435 -0.6736  0.8493
10410TIP3   OH252644   2.114   6.950   3.456  0.0854  0.0908 -0.4547
10410TIP3    H152645   2.040   7.005   3.429 -1.4466 -2.2299 -1.2261
10410TIP3    H252646   2.162   6.933   3.375 -0.9818 -1.8019 -0.7490
10411TIP3   OH252647   6.683   3.931  10.181 -0.3765 -0.0930 -0.3960
10411TIP3    H152648   6.669   3.907  10.090 -1.2884 -0.9214 -0.0584
10411TIP3    H252649   6.612   3.888  10.228 -1.3478  2.2458  0.4236
10412TIP3   OH252650   6.887   2.372  13.730 -0.2131  0.5851  0.3732
10412TIP3    H152651   6.968   2.349  13.774  0.2566 -3.3394 -2.0284
10412TIP3    H252652   6.908   2.451  13.680  1.4963  0.7365  1.2631
10413TIP3   OH252653   4.201   1.415   0.890  0.1862  0.2039  0.2186
10413TIP3    H152654   4.112   1.384   0.870  0.1444  0.4778 -0.0328
10413TIP3    H252655   4.257   1.367   0.829  0.2508 -0.2392  0.6285
10414TIP3   OH252656   0.095   6.045   0.648  0.5041 -0.1055  0.2184
10414TIP3    H152657   0.054   6.057   0.734 -0.8288 -0.0206 -0.3974
10414TIP3    H252658   0.023   6.016   0.592  1.1873  0.5860 -1.0484
10415TIP3   OH252659   7.186   0.189   0.917  0.5676  0.6225 -0.2014
10415TIP3    H152660   7.210   0.280   0.900  1.3359  0.5589  0.4595
10415TIP3    H252661   7.158   0.188   1.008  0.8195  0.1523 -0.1235
10416TIP3   OH252662   1.625   5.677   3.012  0.6257 -0.4087  0.5381
10416TIP3    H152663   1.556   5.656   3.075  1.2378 -3.1453  0.4413
10416TIP3    H252664   1.580   5.687   2.929  0.0129  1.4608  1.0455
10417TIP3   OH252665   6.919   6.604   3.999  0.1429  0.6049  0.7098
10417TIP3    H152666   6.888   6.634   3.913 -0.8133  0.8743  1.1459
10417TIP3    H252667   6.892   6.512   4.003  0.0769  0.6284  0.7841
10418TIP3   OH252668   5.572   0.159  13.854 -0.5185 -0.0587 -0.1774
10418TIP3    H152669   5.591   0.133  13.764  0.8325 -1.4373  0.4719
10418TIP3    H252670   5.578   0.255  13.853 -1.2903  0.0046 -1.6967
10419TIP3   OH252671   4.923   2.920   3.541  0.3319 -0.3724  0.3040
10419TIP3    H152672   4.841   2.893   3.501 -0.7934 -0.3139  2.4236
10419TIP3    H252673   4.956   2.841   3.585  1.6989 -0.5256 -0.9120
10420TIP3   OH252674   0.031   2.755  14.404  0.3849 -0.1234  0.1866
10420TIP3    H152675   0.047   2.674  14.355 -1.8482  0.2981 -1.4221
10420TIP3    H252676   0.065   2.824  14.346 -0.2373  0.2410  0.2465
10421TIP3   OH252677   4.180   1.428   5.139 -0.1737  0.2049  0.2548
10421TIP3    H152678   4.242   1.461   5.074  0.0022 -1.0899 -0.2732
10421TIP3    H252679   4.115   1.498   5.148  1.2511  1.5097  0.6914
10422TIP3   OH252680   0.746   4.515   3.765  0.3728  0.0327 -0.1192
10422TIP3    H152681   0.787   4.434   3.797 -0.4735  0.0346  1.0234
10422TIP3    H252682   0.786   4.530   3.679  0.7920 -1.4166 -0.2003
10423TIP3   OH252683   6.673   4.162   5.636  0.2878 -0.1762 -0.5943
10423TIP3    H152684   6.742   4.227   5.646 -0.5420  0.6956 -0.4227
10423TIP3    H252685   6.716   4.078   5.654  0.4994  0.6051  3.5256
10424TIP3   OH252686   6.036   2.011   3.266 -0.3427 -0.1832 -0.1640
10424TIP3    H152687   6.131   2.014   3.280 -0.5515 -0.4825  1.5741
10424TIP3    H252688   6.005   1.944   3.327 -1.9435  1.5774  1.0517
10425TIP3   OH252689   3.881   5.243  14.293  0.6371  0.0417  0.3025
10425TIP3    H152690   3.914   5.156  14.271  0.0885 -0.0985  0.0071
10425TIP3    H252691   3.899   5.296  14.215 -1.1771 -0.4193 -0.5013
10426TIP3   OH252692   4.299   6.535  12.313  0.2264  0.3963 -0.6118
10426TIP3    H152693   4.372   6.583  12.274  0.6067 -0.1614 -0.5938
10426TIP3    H252694   4.294   6.454  12.263  0.0554  0.1303 -0.1743
10427TIP3   OH252695   2.336   4.627   4.207  0.2009 -0.3374 -0.2962
10427TIP3    H152696   2.319   4.587   4.121  1.7310 -1.7474  0.0150
10427TIP3    H252697   2.426   4.659   4.201  0.3232 -0.4574  0.7918
10428TIP3   OH252698   5.381   3.431  11.890 -0.4173  0.2765 -0.7091
10428TIP3    H152699   5.424   3.364  11.838 -0.5318  0.7265 -1.3881
10428TIP3    H252700   5.356   3.499  11.827 -0.9758  0.6093 -0.1420
10429TIP3   OH252701   0.452   3.436   5.556 -0.1448 -0.4211 -0.1256
10429TIP3    H152702   0.457   3.341   5.568 -0.3009 -0.2658  1.3394
10429TIP3    H252703   0.524   3.470   5.610  1.1126  0.2191 -2.0921
10430TIP3   OH252704   5.649   2.250   3.839 -0.3554 -0.5174 -0.2504
10430TIP3    H152705   5.569   2.201   3.860 -1.3921  0.5177 -1.6146
10430TIP3    H252706   5.677   2.286   3.923 -0.6274 -1.8579  0.4477
10431TIP3   OH252707   0.675   6.839   3.374 -0.0967 -0.4942 -0.3856
10431TIP3    H152708   0.713   6.886   3.448  2.4761 -1.3961 -1.0611
10431TIP3    H252709   0.689   6.897   3.299  2.2258 -1.7909 -1.0499
10432TIP3   OH252710   1.253   3.805   1.163  0.1475  0.3836  0.2273
10432TIP3    H152711   1.206   3.731   1.124 -0.3082  0.6354  0.2904
10432TIP3    H252712   1.329   3.818   1.106 -0.3550  0.5617 -0.4149
10433TIP3   OH252713   2.205   6.744   1.795 -0.2327  0.1992 -0.5812
10433TIP3    H152714   2.136   6.798   1.833 -0.2959 -0.2232 -0.0759
10433TIP3    H252715   2.283   6.800   1.798  0.0166 -0.1732  1.2109
10434TIP3   OH252716   0.885   6.362  13.918  0.4190 -0.0351  0.1050
10434TIP3    H152717   0.969   6.405  13.931 -0.2876  1.4324  0.0471
10434TIP3    H252718   0.906   6.270  13.905  2.0015  0.3018  0.1623
10435TIP3   OH252719   1.061   2.755   3.900 -0.2379 -0.0490 -0.1364
10435TIP3    H152720   1.054   2.804   3.982  0.3151  1.0467 -0.7270
10435TIP3    H252721   1.023   2.813   3.834  0.5700 -0.3364 -0.8763
10436TIP3   OH252722   3.326   6.828  14.492  0.1647  0.1091 -0.1343
10436TIP3    H152723   3.344   6.915  14.457 -1.9676  0.7742  0.3004
10436TIP3    H252724   3.325   6.770  14.415  2.4101  0.2470 -0.3417
10437TIP3   OH252725   6.354   3.432   5.055 -0.1355 -0.3906 -0.0016
10437TIP3    H152726   6.378   3.423   5.147  2.2225  0.8847 -0.4192
10437TIP3    H252727   6.258   3.425   5.055 -0.4650  1.9476  2.8776
10438TIP3   OH252728   5.155   3.882  13.200 -0.7115  0.0715  0.2924
10438TIP3    H152729   5.148   3.842  13.113 -3.2050  1.6772 -0.3503
10438TIP3    H252730   5.159   3.976  13.183  0.1893  0.3487  1.9020
10439TIP3   OH252731   0.427   2.231   5.344 -0.2356  0.0528 -0.2219
10439TIP3    H152732   0.333   2.249   5.354 -0.4987 -1.3324  0.0897
10439TIP3    H252733   0.470   2.299   5.396 -1.0852  0.4782 -0.0516
10440TIP3   OH252734   3.190   0.103   1.834 -0.0013 -0.0648 -0.0026
10440TIP3    H152735   3.115   0.111   1.892 -0.1578  2.5992 -0.4350
10440TIP3    H252736   3.251   0.046   1.880 -2.4165 -2.6923  0.1482
10441TIP3   OH252737   2.227   3.657  13.295 -0.3193  0.3880  0.3870
10441TIP3    H152738   2.274   3.594  13.241 -1.3270 -0.0530 -0.0114
10441TIP3    H252739   2.242   3.742  13.253  0.8045  0.3887  0.7617
10442TIP3   OH252740   2.377   0.422   4.069 -0.1108  0.2871  0.1431
10442TIP3    H152741   2.434   0.479   4.017 -0.9333  0.3152 -0.7660
10442TIP3    H252742   2.394   0.447   4.160  2.4735 -0.7812  0.0409
10443TIP3   OH252743   3.514   5.076  14.784 -0.5435  0.9314  0.1750
10443TIP3    H152744   3.606   5.081  14.761 -0.2607  1.1578  1.2892
10443TIP3    H252745   3.488   4.988  14.759 -0.0554  0.9034 -0.2501
10444TIP3   OH252746   6.489   6.803   0.911 -0.2244  0.2843  0.0500
10444TIP3    H152747   6.554   6.873   0.920 -0.5634  0.4688  1.1882
10444TIP3    H252748   6.435   6.831   0.837 -0.3534  1.2419  0.4878
10445TIP3   OH252749   0.946   1.608  13.336 -0.0772 -0.4282 -0.3446
10445TIP3    H152750   0.929   1.700  13.317 -1.7922 -0.4770  0.6854
10445TIP3    H252751   0.914   1.561  13.260 -0.1435 -0.2238 -0.4439
10446TIP3   OH252752   4.314   1.588   3.898 -0.0652  0.7921  0.3716
10446TIP3    H152753   4.320   1.494   3.917 -1.2076  0.6551  0.1339
10446TIP3    H252754   4.240   1.595   3.838  1.0147  1.6675 -0.9227
10447TIP3   OH252755   3.826   5.488   1.781  0.6180 -0.5538  0.6896
10447TIP3    H152756   3.888   5.544   1.827  0.3251  1.1825 -0.9122
10447TIP3    H252757   3.837   5.401   1.821  2.1809  0.2891  2.2003
10448TIP3   OH252758   4.037   5.853   0.859  0.6086  0.3427 -0.1995
10448TIP3    H152759   4.072   5.905   0.787  0.0945 -0.5431 -1.1218
10448TIP3    H252760   4.090   5.773   0.858 -0.1377 -0.1596 -0.3378
10449TIP3   OH252761   4.442   3.206  13.483  0.1785  0.3281 -0.1155
10449TIP3    H152762   4.504   3.144  13.444  0.9860  2.4078 -2.3255
10449TIP3    H252763   4.439   3.280  13.423 -2.0650  1.7403  1.5375
10450TIP3   OH252764   3.142   2.397   5.707  0.4067 -0.3856  0.2351
10450TIP3    H152765   3.135   2.323   5.647 -0.5077  0.1278 -0.3198
10450TIP3    H252766   3.136   2.358   5.794 -1.0264 -0.8880 -0.0695
10451TIP3   OH252767   5.286   1.193  13.569  0.6298  0.4678 -0.0612
10451TIP3    H152768   5.364   1.139  13.559 -0.1478 -0.8696  0.8022
10451TIP3    H252769   5.318   1.276  13.602  1.9171  0.7699 -1.8955
10452TIP3   OH252770   6.176   6.361   4.386  0.3103 -0.5254 -0.6906
10452TIP3    H152771   6.090   6.326   4.409  0.1693 -0.3467 -0.9393
10452TIP3    H252772   6.203   6.411   4.463  1.3530 -2.6910  0.4273
10453TIP3   OH252773   2.620   1.430   1.505  0.5420 -0.4922  1.0989
10453TIP3    H152774   2.622   1.448   1.599  0.6842  0.5080  0.9085
10453TIP3    H252775   2.563   1.498   1.468  0.4948 -0.8706  0.4552
10454TIP3   OH252776   2.932   2.008  13.845 -0.1276  0.2377  0.4056
10454TIP3    H152777   2.944   2.031  13.753  0.3210  2.2414  0.9077
10454TIP3    H252778   2.922   1.913  13.846 -0.3468  0.2105 -1.7204
10455TIP3   OH252779   0.966   5.841   2.141 -0.4984  0.2224 -0.3749
10455TIP3    H152780   1.033   5.813   2.079 -0.7578 -0.0853 -0.5174
10455TIP3    H252781   0.958   5.935   2.126  0.1563  0.3212 -0.1070
10456TIP3   OH252782   6.452   1.018   1.612  1.3178 -0.3542 -0.3701
10456TIP3    H152783   6.442   0.936   1.564 -0.3534 -0.8066  0.6559
10456TIP3    H252784   6.371   1.065   1.596  1.5328  0.3235  0.4776
10457TIP3   OH252785   2.877   4.149   1.847  0.1309  0.3916 -0.0146
10457TIP3    H152786   2.965   4.115   1.831 -0.0688 -0.8308  1.2598
10457TIP3    H252787   2.818   4.085   1.807 -0.2348 -0.6242  1.9951
10458TIP3   OH252788   1.324   3.480  15.158 -0.2671  0.1311 -0.3189
10458TIP3    H152789   1.299   3.399  15.114 -0.4687 -1.1308  1.9743
10458TIP3    H252790   1.241   3.526  15.174 -0.1583  0.8006 -1.5591
10459TIP3   OH252791   4.779   2.554  10.085  0.6410 -0.5999 -0.0119
10459TIP3    H152792   4.714   2.624  10.097  0.8860 -0.1818 -1.0082
10459TIP3    H252793   4.733   2.474  10.113 -0.3142 -0.3165 -0.7166
10460TIP3   OH252794   4.121   6.920   1.608 -0.1166  0.0975  1.0456
10460TIP3    H152795   4.084   6.995   1.654 -0.6228  2.8946 -3.3038
10460TIP3    H252796   4.208   6.948   1.580  0.3826 -1.6276  0.7122
10461TIP3   OH252797   2.440   0.504  13.814  0.0701  0.3864 -0.0699
10461TIP3    H152798   2.444   0.510  13.719  1.1075  1.8980  0.0379
10461TIP3    H252799   2.481   0.420  13.834 -0.1123  0.0723 -0.9553
10462TIP3   OH252800   1.887   5.214   2.615  0.2873  0.2051 -0.7611
10462TIP3    H152801   1.898   5.235   2.708  0.3331 -0.8696 -0.5106
10462TIP3    H252802   1.946   5.275   2.570  3.3255 -1.7751  0.1886
10463TIP3   OH252803   5.781   4.885   0.329  0.1186  0.2621 -0.0839
10463TIP3    H152804   5.695   4.922   0.350  0.0746  0.4405 -0.5889
10463TIP3    H252805   5.788   4.809   0.388 -0.8442 -0.3887 -0.7773
10464TIP3   OH252806   5.383   7.182  14.328 -0.2250  0.6656  0.1847
10464TIP3    H152807   5.340   7.101  14.354 -2.8377  2.4396  1.8784
10464TIP3    H252808   5.464   7.185  14.379  0.0663 -0.9477 -0.1344
10465TIP3   OH252809   6.542   1.953   1.564 -0.1188  0.2455  0.1712
10465TIP3    H152810   6.447   1.954   1.556 -0.1125 -1.3423 -0.5879
10465TIP3    H252811   6.572   1.894   1.494  1.2733 -0.6258  1.4255
10466TIP3   OH252812   2.884   4.730  12.731 -0.0200 -0.3761  0.1126
10466TIP3    H152813   2.923   4.644  12.747  0.8518 -0.1942 -0.8863
10466TIP3    H252814   2.814   4.738  12.796  2.3633 -0.1988  2.8769
10467TIP3   OH252815   4.792   1.662   1.344  0.3846  0.5836  0.2412
10467TIP3    H152816   4.809   1.572   1.373  0.0814  0.8661  1.3493
10467TIP3    H252817   4.703   1.659   1.308  0.0669  0.5901  1.0006
10468TIP3   OH252818   2.870   4.356  13.615 -0.1693  0.2982  0.1243
10468TIP3    H152819   2.780   4.326  13.628 -0.3697  1.4376  1.5066
10468TIP3    H252820   2.923   4.298  13.670  0.1366 -1.1026 -1.5274
10469TIP3   OH252821   5.451   2.766  13.037  0.1281 -0.0872  0.2895
10469TIP3    H152822   5.418   2.805  12.956  1.9419 -0.6240 -0.7549
10469TIP3    H252823   5.515   2.828  13.069  0.2306 -0.4103  0.7115
10470TIP3   OH252824   5.403   0.171   4.345 -0.5737  0.5000  0.0699
10470TIP3    H152825   5.421   0.168   4.251 -0.6855  1.1232  0.0252
10470TIP3    H252826   5.312   0.141   4.353 -0.9735  1.6200 -0.1485
10471TIP3   OH252827   5.862   4.275  14.157  0.4601  0.3296 -0.1932
10471TIP3    H152828   5.851   4.215  14.231  0.8874  0.2021 -0.2251
10471TIP3    H252829   5.922   4.228  14.098  1.1335  0.9609 -0.0262
10472TIP3   OH252830   3.718   3.965  12.963  0.1773  0.1974  0.1264
10472TIP3    H152831   3.694   3.923  12.881 -1.1127 -2.6857  1.8279
10472TIP3    H252832   3.728   3.893  13.025  2.6979  2.1003  2.1900
10473TIP3   OH252833   4.128   3.300   2.843 -0.0474  0.3145 -0.4616
10473TIP3    H152834   4.061   3.245   2.803 -0.9301  0.2673  1.0109
10473TIP3    H252835   4.208   3.281   2.793 -1.0934  0.3350 -2.2215
10474TIP3   OH252836   0.453   3.812  13.431  0.0454  0.0556  1.0284
10474TIP3    H152837   0.501   3.757  13.368 -0.4479 -1.9722  2.3215
10474TIP3    H252838   0.481   3.901  13.411 -1.2326 -0.2200 -3.1356
10475TIP3   OH252839   2.329   5.194   0.143  0.1019 -0.2521  0.0421
10475TIP3    H152840   2.316   5.134   0.216  0.0334  0.0679  0.2941
10475TIP3    H252841   2.423   5.214   0.144  0.2069 -0.6997 -0.3177
10476TIP3   OH252842   6.394   4.240   1.736  0.0467  0.0963 -0.1847
10476TIP3    H152843   6.359   4.233   1.647 -0.6037  0.8344  0.0031
10476TIP3    H252844   6.427   4.152   1.755 -0.5283 -0.2803 -0.8643
10477TIP3   OH252845   1.312   6.386  13.544  0.7072  0.0444 -0.3932
10477TIP3    H152846   1.252   6.351  13.610  0.1263  1.4741 -0.1337
10477TIP3    H252847   1.278   6.353  13.461  0.5785 -0.5505 -0.1113
10478TIP3   OH252848   2.967   3.593   4.134 -0.7226  0.4316  0.1638
10478TIP3    H152849   2.909   3.578   4.059  0.5213  0.7175 -0.8735
10478TIP3    H252850   3.038   3.646   4.100  0.7821 -0.8958  1.1150
10479TIP3   OH252851   7.141   1.599   1.735  0.1130 -0.5371  0.2291
10479TIP3    H152852   7.066   1.637   1.782 -0.2691 -1.6466  0.5382
10479TIP3    H252853   7.214   1.657   1.757 -0.9415  1.5495 -1.4217
10480TIP3   OH252854   5.033   0.853   2.415 -0.5603  0.3153  0.6858
10480TIP3    H152855   4.997   0.929   2.460 -2.2726 -0.3831  0.5618
10480TIP3    H252856   4.975   0.839   2.340 -0.3445 -1.1670  0.7585
10481TIP3   OH252857   0.071   6.807  11.845 -0.0217 -0.0231 -0.0027
10481TIP3    H152858   0.092   6.733  11.788 -0.7139  1.0919 -1.7562
10481TIP3    H252859   0.143   6.808  11.909 -0.1337 -2.3489  0.2694
10482TIP3   OH252860   6.170   3.873  14.677  0.0514  0.8574 -0.0596
10482TIP3    H152861   6.265   3.869  14.690 -0.1750  0.6097  1.9873
10482TIP3    H252862   6.154   3.962  14.647  0.7853  1.6492  1.7079
10483TIP3   OH252863   2.735   5.095  12.601  0.3457  0.1408 -0.4794
10483TIP3    H152864   2.821   5.121  12.568  0.8230  0.8166  1.2033
10483TIP3    H252865   2.715   5.014  12.555  1.6863  0.1955 -1.2106
10484TIP3   OH252866   3.937   3.228   1.714 -0.2515  0.7008  0.2753
10484TIP3    H152867   3.923   3.154   1.655  1.4185  0.6147 -0.0844
10484TIP3    H252868   3.919   3.194   1.801  1.3774 -0.4450  0.2104
10485TIP3   OH252869   0.333   0.871  11.067 -0.3697 -0.3231  0.0832
10485TIP3    H152870   0.238   0.870  11.064 -0.4960 -0.2437  2.3608
10485TIP3    H252871   0.360   0.807  11.000 -1.7954  2.2245 -3.2225
10486TIP3   OH252872   5.975   1.981   2.120  0.2434 -0.2432 -0.0679
10486TIP3    H152873   6.014   1.899   2.090 -1.2430  0.0081 -3.0611
10486TIP3    H252874   5.881   1.968   2.112 -0.0359  1.8173 -0.8344
10487TIP3   OH252875   0.932   5.179   0.744  0.1134 -0.2861  0.2056
10487TIP3    H152876   0.960   5.235   0.817  1.3241  1.8636 -1.7711
10487TIP3    H252877   1.010   5.127   0.723  0.0722 -0.1878 -0.1844
10488TIP3   OH252878   7.101   5.446   1.357  0.1658 -0.0746  0.1555
10488TIP3    H152879   7.098   5.540   1.373  0.5295 -0.1696  0.7661
10488TIP3    H252880   7.157   5.437   1.280  1.5188  0.0834  1.0966
10489TIP3   OH252881   6.061   1.783   0.689 -0.0368 -0.2151  0.5462
10489TIP3    H152882   6.126   1.716   0.673 -0.0100 -0.4068  1.3859
10489TIP3    H252883   5.991   1.738   0.738 -1.0566 -0.1462 -0.7932
10490TIP3   OH252884   5.826   4.057   3.917  0.7331 -0.6171  0.4312
10490TIP3    H152885   5.857   3.998   3.985 -0.5982 -1.8763  0.0133
10490TIP3    H252886   5.736   4.028   3.900 -0.5511  2.4903  1.2440
10491TIP3   OH252887   4.173   4.563   2.694 -0.2922  0.1994  0.4038
10491TIP3    H152888   4.176   4.655   2.718  1.9462 -0.0026  1.1027
10491TIP3    H252889   4.196   4.516   2.775 -0.7007 -0.9536 -0.1172
10492TIP3   OH252890   5.029   0.694  14.819 -0.0984  0.5925  0.4372
10492TIP3    H152891   4.976   0.622  14.783 -1.0438  2.5132 -2.4189
10492TIP3    H252892   4.975   0.731  14.889 -2.0818  1.6284 -1.5002
10493TIP3   OH252893   0.239   2.906  11.746 -0.6012 -0.0146 -0.2258
10493TIP3    H152894   0.284   2.966  11.687 -2.8688  1.1257 -0.9329
10493TIP3    H252895   0.258   2.819  11.711  0.6484  0.4366 -0.7256
10494TIP3   OH252896   6.560   0.910   4.007  0.4248  0.3429 -0.4563
10494TIP3    H152897   6.611   0.974   3.957  1.7881 -1.2896 -1.2795
10494TIP3    H252898   6.608   0.901   4.089  0.5493 -0.0001 -0.5641
10495TIP3   OH252899   1.156   2.333   4.551  0.2102 -0.0019  0.3356
10495TIP3    H152900   1.103   2.406   4.518 -1.0813 -0.3729  1.4932
10495TIP3    H252901   1.128   2.323   4.642  0.8802 -1.5015  0.3974
10496TIP3   OH252902   3.993   5.999   0.004 -0.4047  0.6051  0.1662
10496TIP3    H152903   4.003   6.030   0.094 -0.2120  0.8368  0.0661
10496TIP3    H252904   3.953   5.912   0.013 -0.1679  0.5233  0.4872
10497TIP3   OH252905   1.886   2.442   3.962  0.4625 -0.7896  0.6798
10497TIP3    H152906   1.868   2.389   4.039 -1.6615 -0.2055  0.6489
10497TIP3    H252907   1.851   2.392   3.888  0.8580 -0.5436  0.3155
10498TIP3   OH252908   0.242   6.599  11.765  0.0790 -0.3862  0.3247
10498TIP3    H152909   0.203   6.512  11.761 -1.1120  0.0815  1.3144
10498TIP3    H252910   0.330   6.584  11.799  0.0229 -1.2392  0.1159
10499TIP3   OH252911   2.208   1.607   0.086  0.3893  0.3143  0.4979
10499TIP3    H152912   2.157   1.611   0.005 -0.5649  2.0012  1.1354
10499TIP3    H252913   2.176   1.528   0.131 -0.2305  0.2562 -0.0343
10500TIP3   OH252914   0.421   5.975   0.151 -0.1315 -0.1769  0.1826
10500TIP3    H152915   0.507   5.937   0.134  0.2384  0.7609 -0.1178
10500TIP3    H252916   0.438   6.043   0.216 -0.9284 -1.1344  1.4324
10501TIP3   OH252917   3.008   1.042  12.965 -0.2355 -0.5084 -0.4298
10501TIP3    H152918   3.069   1.020  12.894  0.4466 -1.5301  0.4481
10501TIP3    H252919   2.994   0.959  13.011  0.7894  0.4440  1.7399
10502TIP3   OH252920   6.360   2.237   2.269 -0.0104 -0.0856  0.0305
10502TIP3    H152921   6.317   2.252   2.185  0.3914  0.8061 -0.0177
10502TIP3    H252922   6.288   2.220   2.329 -0.3103 -0.5692 -0.4528
10503TIP3   OH252923   0.277   1.662   4.051  0.1160  0.2923 -0.0914
10503TIP3    H152924   0.230   1.688   3.972  0.5467 -0.4975 -0.6287
10503TIP3    H252925   0.307   1.744   4.090 -1.1211  0.7701 -0.0867
10504TIP3   OH252926   3.848   6.247  14.511  0.4813 -0.1336 -0.5907
10504TIP3    H152927   3.808   6.198  14.439  0.7711 -1.7591  0.3141
10504TIP3    H252928   3.942   6.241  14.494  0.6228 -1.5734  0.5289
10505TIP3   OH252929   5.683   4.696   1.282 -0.1329 -0.0716 -0.4371
10505TIP3    H152930   5.746   4.731   1.345  0.4858  0.9212 -1.5707
10505TIP3    H252931   5.692   4.601   1.289  0.9259  0.0482 -0.0098
10506TIP3   OH252932   0.910   1.764   5.220  0.1901 -0.9630 -0.2532
10506TIP3    H152933   0.918   1.754   5.125  1.2177 -1.2047 -0.1543
10506TIP3    H252934   1.000   1.780   5.250 -0.2883  0.4129  0.5366
10507TIP3   OH252935   4.721   6.747   9.514 -0.2395 -0.7365  0.1977
10507TIP3    H152936   4.790   6.686   9.485 -0.2606 -0.1853 -1.0716
10507TIP3    H252937   4.648   6.690   9.537  0.5245 -1.3213  1.3311
10508TIP3   OH252938   1.634   5.352   1.362 -0.0521 -0.5707  0.9463
10508TIP3    H152939   1.636   5.444   1.336 -0.9814 -0.5772  0.8291
10508TIP3    H252940   1.726   5.325   1.360  0.0270 -0.3386 -1.5202
10509TIP3   OH252941   0.316   3.284   3.211 -0.1300  0.3426 -0.3029
10509TIP3    H152942   0.316   3.205   3.157  0.0198 -0.3163  0.6374
10509TIP3    H252943   0.229   3.322   3.198 -0.9290 -1.0366  0.7108
10510TIP3   OH252944   5.107   3.224   5.297  0.5631  0.1946 -0.0960
10510TIP3    H152945   5.195   3.256   5.317  1.0920 -0.0338 -1.8306
10510TIP3    H252946   5.105   3.135   5.331  1.8378 -0.6039 -1.9474
10511TIP3   OH252947   4.121   2.878   5.046  0.1156 -0.0217  0.5908
10511TIP3    H152948   4.076   2.858   5.129 -1.8741  1.2536 -0.1279
10511TIP3    H252949   4.165   2.796   5.024 -1.6106 -1.2821  1.5121
10512TIP3   OH252950   2.327   2.940   1.209  0.3848 -0.0020 -0.1198
10512TIP3    H152951   2.388   2.992   1.157  0.4881  1.1107  1.0623
10512TIP3    H252952   2.241   2.973   1.184  0.3820 -0.1781 -0.3376
10513TIP3   OH252953   2.645   2.075  14.634  0.1540  0.1145 -0.3502
10513TIP3    H152954   2.632   2.102  14.543 -1.8838  1.1625  0.1871
10513TIP3    H252955   2.570   2.018  14.653  0.1465  0.5055  0.8649
10514TIP3   OH252956   0.825   5.128  14.343  0.5510 -0.2305  0.1358
10514TIP3    H152957   0.913   5.164  14.352  0.8470 -1.2529  1.6470
10514TIP3    H252958   0.793   5.120  14.433 -0.9001 -0.3312 -0.3658
10515TIP3   OH252959   0.490   6.754   0.761 -0.0239  0.2861 -0.1372
10515TIP3    H152960   0.535   6.674   0.788 -0.2380  0.6256  1.2929
10515TIP3    H252961   0.496   6.811   0.837 -0.0981  1.5447 -1.0567
10516TIP3   OH252962   1.951   0.966   4.453  0.0424 -0.0327 -0.1432
10516TIP3    H152963   2.031   1.018   4.447  0.0985  0.0738  1.2054
10516TIP3    H252964   1.978   0.885   4.497 -0.1778 -0.9339 -1.6088
10517TIP3   OH252965   2.022   5.571  12.008  0.2552 -0.6059 -0.2771
10517TIP3    H152966   2.108   5.595  12.041  0.4540 -1.6026 -0.0295
10517TIP3    H252967   2.035   5.486  11.967 -0.7384 -1.0909  0.3648
10518TIP3   OH252968   2.775   0.445  12.226 -0.2053  0.0381 -0.2515
10518TIP3    H152969   2.806   0.481  12.310  0.9372 -1.4013 -0.0112
10518TIP3    H252970   2.684   0.421  12.242  0.2829 -1.1562  0.9246
10519TIP3   OH252971   2.242   3.662   1.198  0.1210 -0.5843 -0.8989
10519TIP3    H152972   2.181   3.623   1.135 -1.8765  0.4961  0.2519
10519TIP3    H252973   2.222   3.756   1.195  0.1238 -0.4681  1.1027
10520TIP3   OH252974   6.831   2.495   4.875 -0.0864  0.2697  0.1766
10520TIP3    H152975   6.908   2.504   4.932 -0.9378  0.0746  1.3876
10520TIP3    H252976   6.844   2.411   4.831  1.9176  1.6085 -2.0442
10521TIP3   OH252977   1.945   7.134   5.569 -0.6027  0.1435 -0.2178
10521TIP3    H152978   2.035   7.166   5.573 -0.5422  0.0925 -1.1470
10521TIP3    H252979   1.893   7.212   5.548 -0.8689  0.3093  0.9608
10522TIP3   OH252980   0.112   5.566   0.078 -0.7234  0.4447 -0.3294
10522TIP3    H152981   0.180   5.625   0.109  2.7878 -1.6322 -3.2819
10522TIP3    H252982   0.051   5.622   0.030 -0.1224  2.1331  0.7942
10523TIP3   OH252983   2.000   1.505   1.022  0.6690 -0.3153  0.2234
10523TIP3    H152984   1.946   1.576   1.058  0.0172  0.1378 -1.5420
10523TIP3    H252985   2.036   1.541   0.942  1.7189 -1.4317  0.1692
10524TIP3   OH252986   4.125   6.945  12.627 -0.5989 -0.2152  0.0662
10524TIP3    H152987   4.167   6.867  12.664  1.9415  2.1851  2.7853
10524TIP3    H252988   4.045   6.956  12.678  2.0045  2.0718  4.2332
10525TIP3   OH252989   1.858   5.530  13.099 -0.0557  0.2591 -0.1992
10525TIP3    H152990   1.923   5.479  13.050  0.4178  0.4381  0.2296
10525TIP3    H252991   1.856   5.490  13.186  1.0961  1.5872  0.4816
10526TIP3   OH252992   6.396   4.904  13.576  0.1196  0.1275  0.0704
10526TIP3    H152993   6.340   4.850  13.632  1.1130  0.4864  1.4556
10526TIP3    H252994   6.473   4.849  13.561  0.5164  0.6117  0.3171
10527TIP3   OH252995   3.955   5.065   5.113  0.1595  0.1731 -0.0633
10527TIP3    H152996   3.935   4.972   5.103  2.5446 -0.1865 -2.5728
10527TIP3    H252997   4.048   5.068   5.133  0.0004  2.0303  0.5940
10528TIP3   OH252998   4.914   5.633  12.948  0.1536  0.1618  0.1230
10528TIP3    H152999   4.922   5.658  13.040 -2.2893 -1.4507  0.8999
10528TIP3    H253000   4.927   5.538  12.948  2.9279  0.4434 -1.7014
10529TIP3   OH253001   5.309   2.252   3.983 -0.1075 -0.1629  0.0709
10529TIP3    H153002   5.281   2.275   3.895 -1.9974  0.2144  0.7312
10529TIP3    H253003   5.310   2.156   3.984  1.1333 -0.1848 -0.6824
10530TIP3   OH253004   1.837   6.564   4.771 -0.7144 -0.1123  0.0947
10530TIP3    H153005   1.861   6.519   4.690  0.5957 -0.1334  0.4807
10530TIP3    H253006   1.887   6.646   4.769 -0.8840  0.0127  0.7506
10531TIP3   OH253007   3.574   3.540   3.594 -0.5933 -0.3467 -0.2333
10531TIP3    H153008   3.488   3.548   3.555 -0.9023 -1.8315  0.0900
10531TIP3    H253009   3.634   3.533   3.520 -0.8397 -0.1845 -0.4502
10532TIP3   OH253010   4.035   2.872   1.371 -0.0786 -0.1925  0.5512
10532TIP3    H153011   3.961   2.874   1.431  0.0678 -0.6379  0.7466
10532TIP3    H253012   4.013   2.804   1.308 -0.1483  0.1493  0.2022
10533TIP3   OH253013   1.047   2.334   4.803  0.2926  0.5758 -0.0881
10533TIP3    H153014   1.074   2.294   4.885  0.1534 -0.6896 -0.6352
10533TIP3    H253015   0.951   2.333   4.806  0.2773 -0.2055 -0.5939
10534TIP3   OH253016   4.411   4.443   4.001  0.4638 -0.1532  0.8298
10534TIP3    H153017   4.322   4.414   3.981  1.2163 -2.0842  0.0660
10534TIP3    H253018   4.444   4.480   3.919  1.2622 -1.9625  0.2847
10535TIP3   OH253019   1.026   1.353  12.969 -0.1273 -0.3431  0.1493
10535TIP3    H153020   0.961   1.284  12.956  0.7415 -0.8962 -1.5001
10535TIP3    H253021   1.096   1.332  12.908  0.5262  1.5740  0.1697
10536TIP3   OH253022   6.580   4.511   5.584  0.1203  0.1273 -0.3089
10536TIP3    H153023   6.653   4.449   5.586 -0.0013  0.0013  0.1482
10536TIP3    H253024   6.581   4.553   5.670 -1.4065 -1.1080  0.3600
10537TIP3   OH253025   6.115   5.682  15.247  0.4072 -0.2749  0.0828
10537TIP3    H153026   6.117   5.753  15.182 -0.0039 -1.1096 -0.8561
10537TIP3    H253027   6.166   5.612  15.208  0.8298 -0.5075  1.0255
10538TIP3   OH253028   7.198   5.465  14.095 -0.3703  0.5595  0.0467
10538TIP3    H153029   7.250   5.411  14.036 -2.2352  0.2182 -1.4036
10538TIP3    H253030   7.133   5.404  14.131 -3.0313  1.8341 -2.2297
10539TIP3   OH253031   2.822   6.937   9.852  0.3288 -0.4447 -0.1543
10539TIP3    H153032   2.833   7.005   9.919 -1.4373 -1.2081  0.9618
10539TIP3    H253033   2.902   6.884   9.858  0.5375 -0.0409  0.8105
10540TIP3   OH253034   2.132   0.309   4.014  0.2322 -1.3001  0.0516
10540TIP3    H153035   2.060   0.371   4.028 -0.9885 -2.3948 -1.1568
10540TIP3    H253036   2.209   0.354   4.050 -0.6382  0.8000 -0.5482
10541TIP3   OH253037   2.366   5.105  10.562 -0.0125 -0.5536 -0.4057
10541TIP3    H153038   2.368   5.013  10.534  0.9414 -0.5029 -0.5427
10541TIP3    H253039   2.388   5.154  10.483  3.4171 -0.4392  0.4653
10542TIP3   OH253040   2.627   4.969   3.164  0.0100  0.5022 -0.4265
10542TIP3    H153041   2.588   5.050   3.131 -0.8521 -0.3067 -1.4725
10542TIP3    H253042   2.720   4.977   3.143  0.2370  1.9338  1.0045
10543TIP3   OH253043   0.180   3.125   0.195  0.3167 -0.2238  0.0297
10543TIP3    H153044   0.219   3.039   0.205 -1.2458 -1.2059 -1.8480
10543TIP3    H253045   0.090   3.115   0.227  0.4235  1.0295  0.8262
10544TIP3   OH253046   2.680   4.179   1.501  0.1082 -0.3343  0.0905
10544TIP3    H153047   2.713   4.099   1.542 -0.1295 -0.3775  0.2016
10544TIP3    H253048   2.747   4.245   1.519 -1.0999  0.3042  2.7548
10545TIP3   OH253049   1.142   5.522   3.096 -0.0862  0.2904  0.6607
10545TIP3    H153050   1.165   5.480   3.013  0.6963  3.9009 -1.1226
10545TIP3    H253051   1.053   5.555   3.083  0.0505  0.9176  1.2553
10546TIP3   OH253052   1.732   3.282   4.936 -0.0684 -0.2523 -0.5415
10546TIP3    H153053   1.699   3.370   4.919 -1.4280 -0.1422  2.1747
10546TIP3    H253054   1.657   3.233   4.968  1.0437 -1.9100 -0.3060
10547TIP3   OH253055   2.270   3.919   2.172  0.1228 -0.4124  0.3739
10547TIP3    H153056   2.187   3.893   2.213 -0.4107 -0.8427 -0.9268
10547TIP3    H253057   2.278   4.012   2.190 -1.5113  0.0251 -0.8748
10548TIP3   OH253058   6.061   0.167   1.715  0.1275 -0.5602  0.2654
10548TIP3    H153059   6.060   0.214   1.798  0.6308  0.2697 -0.1913
10548TIP3    H253060   6.111   0.087   1.732  0.1485 -0.4355  0.7772
10549TIP3   OH253061   4.188   4.051   1.719 -0.4499  0.0319  0.3289
10549TIP3    H153062   4.169   4.142   1.744 -0.0639  0.3279 -0.4272
10549TIP3    H253063   4.124   4.032   1.650  0.6421  0.3517 -0.8030
10550TIP3   OH253064   2.730   1.581   3.458 -0.0119 -0.1291  0.6369
10550TIP3    H153065   2.638   1.556   3.465  0.4345 -2.9554 -1.7452
10550TIP3    H253066   2.730   1.651   3.393 -0.3888 -1.1461 -0.4930
10551TIP3   OH253067   2.876   5.695   5.106  0.5116 -0.6650 -0.2626
10551TIP3    H153068   2.883   5.790   5.098 -1.5688 -0.4150  0.4688
10551TIP3    H253069   2.910   5.675   5.193 -0.5441 -0.3766  0.2284
10552TIP3   OH253070   3.933   2.243   2.627  0.2507  0.2404 -0.0207
10552TIP3    H153071   3.990   2.319   2.637  2.6540 -1.3935 -0.3871
10552TIP3    H253072   3.869   2.252   2.697  1.3133  1.8751  0.8172
10553TIP3   OH253073   5.776   5.959   4.874  0.4788 -0.5089  0.5018
10553TIP3    H153074   5.819   6.015   4.810  0.4961  0.2934  1.1950
10553TIP3    H253075   5.846   5.936   4.936  0.5722 -1.6577  0.0063
10554TIP3   OH253076   0.857   3.932   3.836  0.2901 -0.0460  0.2250
10554TIP3    H153077   0.888   3.842   3.824  0.0287 -0.2888  1.2501
10554TIP3    H253078   0.935   3.986   3.821  0.0565 -0.2872 -2.1988
10555TIP3   OH253079   6.083   6.098  12.122  0.5045  0.2397  0.2401
10555TIP3    H153080   6.105   6.087  12.030 -0.7073 -0.8458  0.0564
10555TIP3    H253081   6.081   6.008  12.157 -1.0613  0.4684  0.8234
10556TIP3   OH253082   4.041   5.641   5.739  0.4527  0.6654  0.4263
10556TIP3    H153083   3.960   5.622   5.787 -0.1494 -0.3480 -0.9171
10556TIP3    H253084   4.099   5.568   5.759  0.1008  0.0969 -0.5451
10557TIP3   OH253085   6.600   6.281   2.370 -0.4069 -0.0498  0.0861
10557TIP3    H153086   6.650   6.202   2.390 -1.8148 -0.9671  0.1202
10557TIP3    H253087   6.512   6.249   2.348 -1.7103  1.5901  2.3900
10558TIP3   OH253088   7.187   5.928   4.453 -0.5880 -0.5103 -0.0906
10558TIP3    H153089   7.152   5.992   4.392 -1.5400 -0.7273  0.2203
10558TIP3    H253090   7.147   5.950   4.537 -0.5860 -1.2491  0.1085
10559TIP3   OH253091   6.532   2.350   0.375 -0.5249  0.5889  0.5788
10559TIP3    H153092   6.437   2.345   0.362 -0.3771 -0.1123 -0.3141
10559TIP3    H253093   6.568   2.359   0.287  0.3471 -1.2701  0.6995
10560TIP3   OH253094   0.355   0.074   4.296 -0.4640  0.8192  0.0228
10560TIP3    H153095   0.282   0.014   4.314  0.0336 -0.1040 -0.9414
10560TIP3    H253096   0.314   0.160   4.289 -1.7593  0.1104 -2.1293
10561TIP3   OH253097   0.408   0.294  11.493 -0.1668  0.0417 -0.1111
10561TIP3    H153098   0.419   0.336  11.408 -1.5950 -2.4021 -1.6350
10561TIP3    H253099   0.497   0.285  11.527  0.4975  0.5727 -1.6255
10562TIP3   OH253100   2.419   1.258   2.353 -0.4821 -0.6409  0.1761
10562TIP3    H153101   2.414   1.338   2.406 -1.8040 -0.9058  0.4808
10562TIP3    H253102   2.508   1.227   2.365  0.1023  0.8583 -0.0464
10563TIP3   OH253103   5.519   1.519   5.217 -0.1126 -0.3228  0.5421
10563TIP3    H153104   5.578   1.480   5.151 -0.6292  0.8996 -0.6753
10563TIP3    H253105   5.569   1.513   5.299  1.7244  0.6210 -0.4344
10564TIP3   OH253106   0.011   2.946   3.377  0.0137 -0.1810  0.3071
10564TIP3    H153107   0.008   2.944   3.281  0.6229 -2.9425  0.2491
10564TIP3    H253108  -0.057   3.007   3.402 -0.9581 -0.2714 -1.8887
10565TIP3   OH253109   0.106   6.746   4.746 -0.7760 -0.6305 -0.1594
10565TIP3    H153110   0.112   6.788   4.833 -0.0044  0.6864 -0.8150
10565TIP3    H253111   0.019   6.772   4.714 -1.0526 -1.0974  0.1901
10566TIP3   OH253112   6.378   6.536  14.861  0.1271  0.8610 -0.0924
10566TIP3    H153113   6.456   6.562  14.811  0.3845  0.1516 -0.0757
10566TIP3    H253114   6.409   6.532  14.952  0.4349 -0.6999 -0.2354
10567TIP3   OH253115   6.002   6.903   3.326 -0.0078  0.5026 -0.1871
10567TIP3    H153116   5.997   6.807   3.329  1.6328  0.3677 -0.2805
10567TIP3    H253117   5.921   6.930   3.283  0.1430 -0.9574 -1.4960
10568TIP3   OH253118   3.494   5.923  13.735 -0.5614 -0.0922  0.9439
10568TIP3    H153119   3.503   5.848  13.677  2.4943  0.3541  0.6788
10568TIP3    H253120   3.486   5.886  13.822 -0.9047 -0.7262  0.6489
10569TIP3   OH253121   4.703   2.187  13.745  0.2403  0.0681  0.3128
10569TIP3    H153122   4.798   2.184  13.749  0.2163 -0.9380  0.5046
10569TIP3    H253123   4.683   2.257  13.683  1.1066  0.0987  0.0607
10570TIP3   OH253124   1.226   3.335   0.793 -0.2025  0.8317 -0.3507
10570TIP3    H153125   1.195   3.354   0.705 -0.6225  0.6677 -0.2364
10570TIP3    H253126   1.184   3.253   0.817  1.0056  0.1222 -0.5402
10571TIP3   OH253127   7.209   3.668   2.139  0.4221  0.1528  0.7540
10571TIP3    H153128   7.198   3.752   2.185 -2.0821 -0.3794  1.2783
10571TIP3    H253129   7.275   3.621   2.191  1.6526  1.6421  0.6095
10572TIP3   OH253130   5.580   3.621   1.949  0.0943  0.1781  0.2325
10572TIP3    H153131   5.544   3.674   1.877  0.0512 -0.8605 -0.5334
10572TIP3    H253132   5.528   3.647   2.026  0.6855  1.9089  0.1064
10573TIP3   OH253133   5.506   4.665   3.033  0.1014 -0.0498 -0.0213
10573TIP3    H153134   5.501   4.620   3.117 -0.0081  2.2010  1.2527
10573TIP3    H253135   5.442   4.620   2.978  1.1132 -2.4441  0.6025
10574TIP3   OH253136   0.195   5.618  13.398  0.2825  0.0157 -0.0407
10574TIP3    H153137   0.271   5.629  13.340  0.6293  0.8273  0.5484
10574TIP3    H253138   0.173   5.525  13.391  1.6643 -0.3482  0.1724
10575TIP3   OH253139   1.892   1.164   3.954 -0.3927 -0.6566  0.5955
10575TIP3    H153140   1.863   1.195   3.868 -0.6371 -2.4060 -0.0001
10575TIP3    H253141   1.888   1.068   3.948  0.1718 -0.8392  2.3630
10576TIP3   OH253142   2.742   6.779   5.004  0.2059  0.1630 -0.0276
10576TIP3    H153143   2.701   6.785   4.918 -0.2690 -1.1715  0.0787
10576TIP3    H253144   2.758   6.870   5.030  1.7858  0.5783 -2.1795
10577TIP3   OH253145   1.595   1.277  15.239  0.5550 -0.1930 -0.4422
10577TIP3    H153146   1.640   1.199  15.206 -1.1183 -1.0754 -0.8025
10577TIP3    H253147   1.516   1.242  15.281  0.3782  1.2397  0.4794
10578TIP3   OH253148   4.409   7.204   3.669 -0.8168 -0.4381 -0.4265
10578TIP3    H153149   4.399   7.109   3.671  2.1118 -0.8210 -0.2913
10578TIP3    H253150   4.452   7.225   3.752 -0.6709  0.9067 -0.8175
10579TIP3   OH253151   4.380   6.360   3.946 -0.0865  0.0617  0.2733
10579TIP3    H153152   4.305   6.420   3.947 -0.2162 -0.0529 -0.8707
10579TIP3    H253153   4.420   6.374   3.861  2.1337  1.2243  1.4289
10580TIP3   OH253154   0.095   1.068   1.149 -0.5538 -0.1065 -0.4516
10580TIP3    H153155   0.048   1.006   1.205  1.0684  0.4755  1.6739
10580TIP3    H253156   0.057   1.153   1.169 -0.0772  0.0839 -0.3252
10581TIP3   OH253157   6.808   2.413  14.031  0.3053  0.0883 -0.4240
10581TIP3    H153158   6.829   2.403  13.938  2.5975  0.9487 -0.0762
10581TIP3    H253159   6.733   2.473  14.032 -0.8613 -1.2777 -1.7352
10582TIP3   OH253160   1.651   5.061  14.969 -0.1916 -0.2524 -0.3265
10582TIP3    H153161   1.627   5.089  14.881  2.6340  0.2817 -1.0273
10582TIP3    H253162   1.683   4.971  14.958  0.8972  0.0743 -0.0436
10583TIP3   OH253163   0.182   3.022   1.132  0.6414 -0.3494 -0.2428
10583TIP3    H153164   0.161   3.092   1.195  0.8791  1.7076 -2.3153
10583TIP3    H253165   0.252   3.059   1.078 -0.0436 -1.7342 -2.1792
10584TIP3   OH253166   2.361   4.051   0.467 -0.1100  0.2726 -0.3418
10584TIP3    H153167   2.381   3.958   0.462 -0.7951  0.1452 -0.9212
10584TIP3    H253168   2.389   4.086   0.382 -0.1111  0.5383 -0.2329
10585TIP3   OH253169   3.201   2.675   0.662  0.2006 -0.4067 -0.0280
10585TIP3    H153170   3.216   2.659   0.569  1.8483  3.3559 -0.6185
10585TIP3    H253171   3.109   2.703   0.667  0.1675 -0.4124 -0.5672
10586TIP3   OH253172   0.954   4.931   0.980  0.4068  0.7917  0.6905
10586TIP3    H153173   0.932   5.024   0.982  1.1220  0.9886 -0.0876
10586TIP3    H253174   1.049   4.929   0.968  0.0968  0.0088 -2.6550
10587TIP3   OH253175   3.870   4.581   0.701 -0.4524 -0.0438 -0.1096
10587TIP3    H153176   3.819   4.503   0.722  2.0429 -1.1970  2.2569
10587TIP3    H253177   3.955   4.548   0.673  1.9859  1.5721  4.3716
10588TIP3   OH253178   3.933   1.463   1.426 -0.2765 -0.1906  0.5832
10588TIP3    H153179   3.852   1.448   1.474 -0.2861  0.9144  0.9481
10588TIP3    H253180   4.003   1.443   1.489 -0.2769  2.7177  1.6543
10589TIP3   OH253181   4.560   2.910   4.324 -0.3975  0.0043  0.2565
10589TIP3    H153182   4.525   2.998   4.339  0.8329  0.6131 -0.3221
10589TIP3    H253183   4.546   2.894   4.230  1.0646  0.3785 -0.0558
10590TIP3   OH253184   4.037   2.870  14.761 -0.1713  0.5414  0.6056
10590TIP3    H153185   3.984   2.792  14.743 -0.9482  1.4255 -1.2249
10590TIP3    H253186   4.106   2.839  14.819 -0.6424 -1.4450  0.1979
10591TIP3   OH253187   0.549   3.297   0.648  0.1145 -0.0541  0.4413
10591TIP3    H153188   0.469   3.265   0.689 -0.0497 -1.0428 -0.6090
10591TIP3    H253189   0.609   3.223   0.653  0.9387  0.6402  1.1113
10592TIP3   OH253190   2.573   1.635   1.971  0.5773 -0.6639 -0.0747
10592TIP3    H153191   2.659   1.675   1.988  0.5398  0.0722 -1.4467
10592TIP3    H253192   2.550   1.591   2.053  1.7346  0.1026  0.6927
10593TIP3   OH253193   1.786   4.060   2.368 -0.0190 -0.3835 -0.0467
10593TIP3    H153194   1.717   4.011   2.323 -0.9224 -1.3048  2.2249
10593TIP3    H253195   1.763   4.056   2.460  2.4207  0.3449  0.6776
10594TIP3   OH253196   4.888   3.203   5.498 -0.7743  0.5398 -0.6937
10594TIP3    H153197   4.795   3.218   5.518 -0.7600  1.0472 -0.9960
10594TIP3    H253198   4.906   3.260   5.423  0.6935  3.1807  1.4937
10595TIP3   OH253199   3.748   2.328   0.123 -0.0560  0.0365 -0.4656
10595TIP3    H153200   3.754   2.360   0.033  1.6929 -0.2067 -0.4722
10595TIP3    H253201   3.836   2.294   0.142 -0.6315 -0.6858  1.0467
10596TIP3   OH253202   1.387   6.824   3.333  0.0520  0.1113 -0.0137
10596TIP3    H153203   1.305   6.849   3.378 -2.1705 -0.0571 -3.6012
10596TIP3    H253204   1.430   6.908   3.315 -0.6157  0.4126 -0.2717
10597TIP3   OH253205   5.276   0.469  13.417  0.7835  0.2582  0.5781
10597TIP3    H153206   5.280   0.500  13.508  1.9429  1.3229  0.1893
10597TIP3    H253207   5.358   0.421  13.405  1.0586  0.9163 -0.1826
10598TIP3   OH253208   0.346   6.059   4.055 -0.1664  0.2568  0.4274
10598TIP3    H153209   0.303   5.979   4.025  0.5234 -0.3254  0.9531
10598TIP3    H253210   0.361   6.110   3.975  1.1876 -1.0369 -0.1799
10599TIP3   OH253211   5.738   0.199   9.908 -0.0998 -0.1071 -0.0379
10599TIP3    H153212   5.803   0.156   9.853 -0.3413 -0.5119 -0.0091
10599TIP3    H253213   5.786   0.226   9.986  1.2282  4.0922 -2.0603
10600TIP3   OH253214   7.130   6.510  14.555  0.1218 -0.0493  0.6897
10600TIP3    H153215   7.155   6.443  14.619  0.2198  0.6769  1.4281
10600TIP3    H253216   7.178   6.588  14.582  1.2380 -0.0747 -1.0858
10601TIP3   OH253217   1.676   4.105   3.594  0.6465  0.6807  0.3994
10601TIP3    H153218   1.707   4.045   3.527 -3.4374  0.6430 -1.7782
10601TIP3    H253219   1.660   4.050   3.670  1.0520 -0.1644 -0.1097
10602TIP3   OH253220   2.375   1.796  14.117  0.2732  0.5247  0.3471
10602TIP3    H153221   2.292   1.751  14.099  0.9009 -1.2272  1.5693
10602TIP3    H253222   2.419   1.799  14.032  0.1228 -1.0606  0.1776
10603TIP3   OH253223   6.823   0.146   3.700  0.1128 -0.0423  0.0478
10603TIP3    H153224   6.736   0.114   3.678 -0.6286 -0.1306  2.7847
10603TIP3    H253225   6.819   0.240   3.686 -0.0608 -0.1759 -0.8575
10604TIP3   OH253226   1.711   0.916   1.828 -0.3277 -0.5724 -0.2241
10604TIP3    H153227   1.784   0.855   1.838  0.2891  0.0961 -0.5536
10604TIP3    H253228   1.746   0.987   1.774 -0.7679  0.5031  0.8536
10605TIP3   OH253229   5.556   6.197  12.735  0.1201  0.2998 -0.0972
10605TIP3    H153230   5.542   6.274  12.789 -2.1000 -0.1322  0.0414
10605TIP3    H253231   5.468   6.163  12.718  0.8791 -0.7743 -2.2477
10606TIP3   OH253232   0.871   5.612   5.224 -0.0267 -0.6125 -0.4022
10606TIP3    H153233   0.867   5.707   5.233  0.5333 -0.6578  0.4151
10606TIP3    H253234   0.828   5.578   5.303  0.0655 -1.0313 -0.5281
10607TIP3   OH253235   3.000   3.620  10.513  0.4312  0.3881  0.4190
10607TIP3    H153236   2.989   3.600  10.420 -2.0174  0.5070  0.6312
10607TIP3    H253237   3.012   3.715  10.515 -1.5734  0.6713  0.3298
10608TIP3   OH253238   1.862   6.722  12.336 -0.2624  0.3610 -0.1420
10608TIP3    H153239   1.860   6.651  12.401 -1.0526  1.7565  1.4159
10608TIP3    H253240   1.770   6.740  12.317 -0.1936  2.4539  1.2127
10609TIP3   OH253241   4.389   4.706   1.623  0.2124 -0.4755 -0.6096
10609TIP3    H153242   4.315   4.700   1.563  0.0345  0.0868 -0.4534
10609TIP3    H253243   4.462   4.669   1.574  0.4769  1.5454 -1.8715
10610TIP3   OH253244   6.675   5.839  13.798 -0.1973  0.8819 -0.1773
10610TIP3    H153245   6.683   5.752  13.837  0.1347  1.4484  1.0550
10610TIP3    H253246   6.593   5.835  13.748 -0.3210 -0.0517  0.0804
10611TIP3   OH253247   1.003   0.688   4.276 -0.2705  0.2366  0.3724
10611TIP3    H153248   1.034   0.698   4.366 -1.9363  1.3056  0.8829
10611TIP3    H253249   0.935   0.620   4.281 -1.3251  1.2348  0.2268
10612TIP3   OH253250   1.588   1.725  11.865 -0.0697  0.0149 -0.0279
10612TIP3    H153251   1.635   1.803  11.896  0.3108  0.3565 -1.4210
10612TIP3    H253252   1.564   1.678  11.945 -0.1409  1.4642  0.8262
10613TIP3   OH253253   6.258   4.579   3.479  0.2580  0.0851 -0.7489
10613TIP3    H153254   6.350   4.582   3.508 -0.7920  2.8754  3.0850
10613TIP3    H253255   6.228   4.491   3.503  1.7697 -0.8092 -1.8952
10614TIP3   OH253256   6.335   5.920   0.839 -0.1174  0.8854 -0.1808
10614TIP3    H153257   6.333   5.898   0.746  1.1793  1.8534 -0.4715
10614TIP3    H253258   6.260   5.978   0.851 -1.5770 -0.9433 -0.1175
10615TIP3   OH253259   0.092   5.751   1.030 -0.2698  0.0967 -0.6919
10615TIP3    H153260   0.042   5.828   1.002 -0.1909  0.0149 -1.0556
10615TIP3    H253261   0.175   5.757   0.983 -0.6764 -0.7796 -1.5548
10616TIP3   OH253262   1.747   1.739   0.253  0.4134 -0.4220  0.0351
10616TIP3    H153263   1.716   1.742   0.343 -0.1649  0.9759 -0.1772
10616TIP3    H253264   1.817   1.674   0.253  1.3634  0.5175  1.7947
10617TIP3   OH253265   3.811   1.998  15.271 -0.3600 -0.2672  0.2196
10617TIP3    H153266   3.779   2.057  15.339  0.0146 -0.2900  0.4174
10617TIP3    H253267   3.750   2.009  15.198 -0.0514  0.6867  0.0928
10618TIP3   OH253268   6.825   3.156  14.208  0.1188 -0.2927 -0.3763
10618TIP3    H153269   6.877   3.226  14.248  0.3281 -1.0467  0.7109
10618TIP3    H253270   6.791   3.105  14.282 -1.7847 -0.1170 -1.0835
10619TIP3   OH253271   2.494   0.749  13.965 -0.2304 -0.2870  0.0609
10619TIP3    H153272   2.499   0.669  13.913  1.2965 -1.0343  1.3117
10619TIP3    H253273   2.433   0.728  14.036  0.1701 -0.3293  0.3899
10620TIP3   OH253274   2.412   4.330  11.146 -0.2157 -0.5707 -0.6932
10620TIP3    H153275   2.493   4.313  11.099 -1.0643  0.8052 -2.8316
10620TIP3    H253276   2.343   4.320  11.080 -1.8261 -1.6815  1.0436
10621TIP3   OH253277   7.000   4.765  13.573  0.2017 -0.0367 -0.2097
10621TIP3    H153278   6.975   4.857  13.579  0.1044 -0.1166  0.8576
10621TIP3    H253279   7.047   4.758  13.490 -2.2770  0.3468 -1.7464
10622TIP3   OH253280   3.429   5.502   2.134  0.2130 -0.8437  0.2878
10622TIP3    H153281   3.372   5.578   2.135  3.2120  1.6185  1.0748
10622TIP3    H253282   3.473   5.503   2.220  2.1474 -1.9247 -0.6111
10623TIP3   OH253283   6.272   3.199  11.664  0.2225 -0.2517  0.0480
10623TIP3    H153284   6.180   3.183  11.645 -0.1810  2.5923 -0.9844
10623TIP3    H253285   6.315   3.115  11.651 -2.1198 -1.5275  0.0189
10624TIP3   OH253286   4.999   2.024   1.836 -0.7233 -0.0861 -0.0661
10624TIP3    H153287   4.925   2.051   1.890 -0.4428  1.5544 -0.4335
10624TIP3    H253288   4.987   2.071   1.754 -0.7453 -1.9760 -1.2023
10625TIP3   OH253289   2.067   1.959   1.325  0.3266 -0.4266  0.3384
10625TIP3    H153290   2.032   1.958   1.235 -0.9214  1.0705  0.7679
10625TIP3    H253291   2.102   2.047   1.336 -2.0646  0.3787  2.2020
10626TIP3   OH253292   5.165   1.567   0.459 -0.8775 -0.2694 -0.6967
10626TIP3    H153293   5.258   1.556   0.438 -0.6591  1.3733 -0.7306
10626TIP3    H253294   5.125   1.592   0.376 -1.9593 -3.7698 -1.3884
10627TIP3   OH253295   0.204   2.297  10.645 -0.2665 -0.3824  0.4358
10627TIP3    H153296   0.120   2.257  10.624 -0.0698 -0.9641  0.7279
10627TIP3    H253297   0.222   2.356  10.572 -1.1951  0.1850  0.6383
10628TIP3   OH253298   1.715   1.533  11.338  0.1270  0.0025 -0.6396
10628TIP3    H153299   1.701   1.466  11.405  0.0963  0.0958 -0.5536
10628TIP3    H253300   1.682   1.493  11.258 -0.3338  0.0973 -0.4995
10629TIP3   OH253301   2.668   1.202   4.483  0.4107  0.1564 -0.0284
10629TIP3    H153302   2.698   1.283   4.442 -0.3433  0.4743  0.0345
10629TIP3    H253303   2.599   1.169   4.426 -0.0259  0.1270  0.5031
10630TIP3   OH253304   6.510   5.343   4.055 -0.1251  0.4422  0.2153
10630TIP3    H153305   6.424   5.313   4.084 -0.4140  0.4060 -0.6297
10630TIP3    H253306   6.561   5.351   4.135 -0.6148 -0.5033  0.6418
10631TIP3   OH253307   3.949   1.278   2.709  0.0335 -0.2452 -0.3289
10631TIP3    H153308   4.018   1.213   2.721  1.0701  0.5596 -1.6288
10631TIP3    H253309   3.918   1.297   2.797  0.4266 -1.7353  0.1493
10632TIP3   OH253310   1.419   6.039   4.579 -0.0274 -0.0803 -0.1644
10632TIP3    H153311   1.448   5.949   4.595  1.6566  0.4721  0.1071
10632TIP3    H253312   1.375   6.036   4.494 -0.8778 -1.3311  0.2903
10633TIP3   OH253313   2.761   2.437   3.850  0.4698  0.2009  0.0717
10633TIP3    H153314   2.748   2.433   3.945 -0.7072  0.5499 -0.0596
10633TIP3    H253315   2.741   2.349   3.819  1.3797 -0.0590  0.1949
10634TIP3   OH253316   1.140   2.508  10.275 -0.1243 -0.0093 -0.0783
10634TIP3    H153317   1.114   2.595  10.247 -0.7577 -0.0352  0.4253
10634TIP3    H253318   1.134   2.509  10.370  0.7912 -0.3160  0.0004
10635TIP3   OH253319   6.352   4.963   2.371  0.0404  0.4777  0.2708
10635TIP3    H153320   6.413   4.920   2.311  0.5482  1.0030  0.3913
10635TIP3    H253321   6.405   4.984   2.448 -0.5712 -0.0742  0.8582
10636TIP3   OH253322   2.854   6.273   1.025 -0.2926 -0.2598  0.2675
10636TIP3    H153323   2.922   6.205   1.022  0.8892  0.9203 -1.2450
10636TIP3    H253324   2.854   6.311   0.937 -0.6189  1.9861  1.1640
10637TIP3   OH253325   3.477   3.246   4.500 -0.1721 -0.2954  0.0928
10637TIP3    H153326   3.407   3.203   4.550 -0.4564  0.2593  0.1746
10637TIP3    H253327   3.528   3.293   4.566  0.6024 -1.1229  0.1046
10638TIP3   OH253328   1.474   4.487   1.262 -0.8616  0.5178 -0.0474
10638TIP3    H153329   1.419   4.454   1.333 -1.4162  0.5274 -0.4723
10638TIP3    H253330   1.556   4.513   1.306 -0.8755 -0.2585  0.4688
10639TIP3   OH253331   2.272   6.445   3.448 -0.2060  0.7581  0.2623
10639TIP3    H153332   2.352   6.401   3.421 -0.0167  0.3767  1.3931
10639TIP3    H253333   2.202   6.383   3.426 -0.0196  0.2760  0.9842
10640TIP3   OH253334   5.886   5.268   2.840 -0.0216 -0.1414  0.1285
10640TIP3    H153335   5.873   5.221   2.922 -2.1644  1.3875  0.7609
10640TIP3    H253336   5.814   5.237   2.783  0.5691 -0.0984 -0.6646
10641TIP3   OH253337   3.911   1.088   0.430  0.2960  0.2342 -0.0509
10641TIP3    H153338   3.892   1.182   0.434 -1.0915 -0.0560  1.1560
10641TIP3    H253339   3.827   1.046   0.447  1.4318 -1.1745  2.7904
10642TIP3   OH253340   0.093   1.787   2.637 -0.6770 -0.1125 -0.2801
10642TIP3    H153341   0.053   1.749   2.716 -3.0920  0.8857 -0.9303
10642TIP3    H253342   0.025   1.843   2.600  1.5237  2.1320 -1.2623
10643TIP3   OH253343   3.498   6.082   1.815 -0.4528 -0.1065 -0.3235
10643TIP3    H153344   3.551   6.157   1.841  2.8986 -2.1496 -0.5729
10643TIP3    H253345   3.407   6.112   1.821  0.6361  3.2797  1.4520
10644TIP3   OH253346   3.938   1.516  13.713 -0.5764 -0.1930  0.6210
10644TIP3    H153347   3.935   1.590  13.774 -2.4750 -0.3669  0.7824
10644TIP3    H253348   3.879   1.451  13.750  1.1945 -1.9374  0.5845
10645TIP3   OH253349   6.233   0.872   1.753  0.4156 -0.0706  0.0508
10645TIP3    H153350   6.246   0.843   1.663 -1.4845 -0.4398 -0.1335
10645TIP3    H253351   6.169   0.943   1.746  0.1865 -0.1619  1.1269
10646TIP3   OH253352   5.355   3.372  14.014 -0.2918  0.7319 -0.4648
10646TIP3    H153353   5.359   3.467  14.025  2.7816  0.5635  0.7015
10646TIP3    H253354   5.349   3.337  14.103 -0.4944 -0.2155 -0.8381
10647TIP3   OH253355   5.006   1.692  14.936  0.3674 -0.5514 -0.7748
10647TIP3    H153356   4.986   1.599  14.929 -0.9106 -0.6197  2.2419
10647TIP3    H253357   5.091   1.694  14.981 -0.4265 -0.3186  0.7679
10648TIP3   OH253358   5.415   5.457  11.974  0.5117 -0.6756  0.8490
10648TIP3    H153359   5.442   5.548  11.985 -0.2309 -0.7395  3.9809
10648TIP3    H253360   5.323   5.462  11.950  0.6639 -0.6202  0.2535
10649TIP3   OH253361   5.744   7.146   0.912 -0.4261  0.3886 -0.4931
10649TIP3    H153362   5.654   7.172   0.929 -0.9728 -1.3181 -0.5774
10649TIP3    H253363   5.797   7.218   0.946 -1.7608  0.7197  0.9815
10650TIP3   OH253364   2.421   5.328   1.634 -0.8488  0.7798 -0.1407
10650TIP3    H153365   2.490   5.394   1.625  0.7442 -1.0284 -2.0857
10650TIP3    H253366   2.356   5.353   1.568 -1.9466  2.2431  1.4079
10651TIP3   OH253367   0.606   3.446   0.409 -0.8539 -0.2294  0.1672
10651TIP3    H153368   0.544   3.389   0.364 -0.7136 -0.0355 -0.2797
10651TIP3    H253369   0.607   3.414   0.499 -0.1878 -1.4460 -0.2466
10652TIP3   OH253370   2.662   6.267  15.132 -0.3642 -0.7517  0.1973
10652TIP3    H153371   2.688   6.175  15.128 -2.1140 -1.3398  1.4629
10652TIP3    H253372   2.734   6.310  15.177  0.4534 -1.4892 -0.3628
10653TIP3   OH253373   4.492   2.909  14.939 -0.3882  0.0132  0.2116
10653TIP3    H153374   4.505   3.003  14.952 -0.2722 -0.0772  0.7838
10653TIP3    H253375   4.557   2.868  14.996 -0.8965 -0.4178  0.4870
10654TIP3   OH253376   1.279   5.067  13.850  0.6634  0.0966 -0.1151
10654TIP3    H153377   1.282   5.024  13.765 -0.5168 -0.2015 -0.0239
10654TIP3    H253378   1.346   5.021  13.902  0.4060 -0.6776 -0.4551
10655TIP3   OH253379   6.057   2.333   1.112 -0.1551 -0.0124  0.6636
10655TIP3    H153380   6.044   2.251   1.063  0.3060 -0.1756  0.8057
10655TIP3    H253381   5.990   2.392   1.078 -0.6074 -0.5030  0.6775
10656TIP3   OH253382   3.910   4.228  10.876  0.1444  0.1752 -0.0306
10656TIP3    H153383   3.993   4.261  10.910  0.1787 -1.0392  1.1445
10656TIP3    H253384   3.906   4.261  10.786  0.8347  2.1120  0.5962
10657TIP3   OH253385   4.819   7.052   2.415  0.1886  0.1051 -0.2450
10657TIP3    H153386   4.795   7.049   2.322 -2.0241  0.9340  0.2230
10657TIP3    H253387   4.872   7.131   2.423  1.9276 -0.9309 -1.0782
10658TIP3   OH253388   5.323   7.086   2.860 -0.1232 -0.4317 -0.1233
10658TIP3    H153389   5.281   7.002   2.846 -1.5483  0.1824  0.2404
10658TIP3    H253390   5.384   7.096   2.787  1.7244 -2.6986  0.9643
10659TIP3   OH253391   2.623   1.841  14.396  0.2017 -0.8483 -0.2356
10659TIP3    H153392   2.543   1.894  14.397  0.3762 -0.5767 -0.4605
10659TIP3    H253393   2.648   1.838  14.304  2.3091  1.8967  0.1016
10660TIP3   OH253394   2.827   5.927   1.657  0.1285  0.2163 -0.0058
10660TIP3    H153395   2.770   5.978   1.599 -0.3405 -0.7361 -0.4095
10660TIP3    H253396   2.854   5.989   1.725 -2.1068  0.4976  0.7121
10661TIP3   OH253397   6.544   0.232   3.710 -0.6495  0.2403  0.3883
10661TIP3    H153398   6.471   0.171   3.699 -0.0117 -0.3433 -0.7853
10661TIP3    H253399   6.502   0.314   3.736 -1.8102  0.1012 -0.9217
10662TIP3   OH253400   5.885   4.721  14.874  0.1475 -0.2224  0.1117
10662TIP3    H153401   5.864   4.799  14.823  2.9848 -0.1734 -1.1966
10662TIP3    H253402   5.950   4.751  14.937  1.0915 -1.4268 -0.2421
10663TIP3   OH253403   4.598   5.722   1.706 -0.3803  0.6482  0.4730
10663TIP3    H153404   4.552   5.713   1.623  0.5214  1.8606 -0.1719
10663TIP3    H253405   4.667   5.655   1.703 -0.2082  0.8402  0.1495
10664TIP3   OH253406   1.249   5.441  14.847 -0.0289  0.1432  0.4862
10664TIP3    H153407   1.193   5.409  14.918 -1.9376 -0.6266 -1.2762
10664TIP3    H253408   1.334   5.400  14.864 -0.7836 -1.0554  1.6021
10665TIP3   OH253409   6.483   6.388  13.721 -0.2478  0.0126  0.3582
10665TIP3    H153410   6.512   6.479  13.719  0.2678 -0.1446  0.4155
10665TIP3    H253411   6.444   6.374  13.634  0.8474 -0.0769 -0.1455
10666TIP3   OH253412   4.371   5.326  13.646  0.6292 -0.4506 -0.2408
10666TIP3    H153413   4.332   5.270  13.714  1.5905 -0.8895 -0.0315
10666TIP3    H253414   4.319   5.307  13.568 -1.3040  0.9914  0.6183
10667TIP3   OH253415   3.705   2.269  15.193 -0.6405 -0.0681 -0.8744
10667TIP3    H153416   3.744   2.340  15.142 -1.0348  2.2622  1.8275
10667TIP3    H253417   3.614   2.295  15.205 -0.9172 -1.2746 -0.2436
10668TIP3   OH253418   2.934   1.434  14.061 -0.1106 -0.2994  0.1431
10668TIP3    H153419   2.882   1.466  14.135  0.2231 -1.8275  1.0681
10668TIP3    H253420   3.019   1.477  14.072 -0.6449  0.9612 -0.4671
10669TIP3   OH253421   1.967   0.828  14.921 -0.1016 -0.0405 -0.3016
10669TIP3    H153422   2.024   0.884  14.867 -0.5385  0.0588 -0.6734
10669TIP3    H253423   2.017   0.810  15.000  0.3429  0.2574 -0.5152
10670TIP3   OH253424   5.814   0.329   4.121  0.3250  0.1440 -0.1489
10670TIP3    H153425   5.874   0.282   4.063 -0.2938  1.0829 -1.6104
10670TIP3    H253426   5.863   0.407   4.148  0.0771  0.5062 -0.7078
10671TIP3   OH253427   1.322   6.055   4.324 -0.3181 -1.4887 -0.5550
10671TIP3    H153428   1.247   6.109   4.299  0.3167 -0.6705 -0.7153
10671TIP3    H253429   1.391   6.078   4.262  1.5040  1.0115  2.1125
10672TIP3   OH253430   5.955   1.061  14.312  0.6100 -0.2076  0.6283
10672TIP3    H153431   5.897   0.998  14.354 -0.6291 -0.0934 -0.8164
10672TIP3    H253432   5.908   1.088  14.233  1.4554  1.9148  0.7777
10673TIP3   OH253433   6.108   4.588   1.303  0.3504  0.1575 -0.3262
10673TIP3    H153434   6.169   4.609   1.232  1.1722 -0.1233  0.2775
10673TIP3    H253435   6.052   4.519   1.268  1.0980 -0.3534 -0.5292
10674TIP3   OH253436   2.754   0.951  13.606 -0.0980 -0.0455  0.1213
10674TIP3    H153437   2.680   1.001  13.570  1.3981  1.1434 -1.4864
10674TIP3    H253438   2.737   0.947  13.700 -0.9744  2.3489  0.1309
10675TIP3   OH253439   1.783   6.786  13.264  0.1924  0.6283 -0.1139
10675TIP3    H153440   1.695   6.750  13.257  0.1479  0.4444  1.2338
10675TIP3    H253441   1.832   6.741  13.195 -0.8721  1.1269 -1.2420
10676TIP3   OH253442   3.757   1.874   2.240 -0.2451 -0.0213 -0.2441
10676TIP3    H153443   3.773   1.952   2.294 -0.1419 -0.7944  0.8893
10676TIP3    H253444   3.783   1.801   2.296 -0.3885 -0.8789 -1.2662
10677TIP3   OH253445   5.646   5.898   3.251 -0.1297 -0.1200  0.2269
10677TIP3    H153446   5.650   5.805   3.230  1.3940  0.1634 -0.8654
10677TIP3    H253447   5.642   5.901   3.347  1.6763 -1.2919  0.3825
10678TIP3   OH253448   7.178   5.889   2.591  0.0919 -0.0619  0.3783
10678TIP3    H153449   7.185   5.933   2.506  0.2071  0.0914  0.4670
10678TIP3    H253450   7.185   5.959   2.655 -1.2244 -0.0171  0.5036
10679TIP3   OH253451   2.392   5.908  11.082 -0.3051 -0.0556  0.2745
10679TIP3    H153452   2.357   5.819  11.094 -0.0066 -0.0000  1.7886
10679TIP3    H253453   2.442   5.924  11.162  1.0116  0.8636 -0.6955
10680TIP3   OH253454   1.243   0.083   2.962 -0.1768 -0.3997  0.3213
10680TIP3    H153455   1.253   0.107   2.870 -0.2143 -0.5007  0.2905
10680TIP3    H253456   1.148   0.082   2.976 -0.2222 -1.5571  0.0468
10681TIP3   OH253457   5.512   6.824   2.689 -0.1530  0.4034 -0.9228
10681TIP3    H153458   5.494   6.831   2.783  0.4175 -1.7598 -0.6134
10681TIP3    H253459   5.596   6.779   2.684 -2.3833 -4.1515 -2.4400
10682TIP3   OH253460   3.458   2.902   1.802  0.3205  0.0638 -0.0303
10682TIP3    H153461   3.496   2.815   1.813  2.7506  1.3907  3.4862
10682TIP3    H253462   3.383   2.903   1.861  1.9340  1.0884  2.1404
10683TIP3   OH253463   2.519   1.385  13.066 -0.5028  0.1688 -0.6812
10683TIP3    H153464   2.540   1.478  13.062  0.1517  0.0901  0.4396
10683TIP3    H253465   2.604   1.341  13.066 -0.6487 -0.2665  1.8718
10684TIP3   OH253466   1.984   4.002  14.006  0.0423  0.2629  0.3806
10684TIP3    H153467   2.010   3.909  14.006 -0.1322  0.2014 -0.3973
10684TIP3    H253468   1.936   4.014  14.087  0.7828 -0.1232  0.8891
10685TIP3   OH253469   1.205   5.286   2.191 -0.0858  0.1600  0.7746
10685TIP3    H153470   1.203   5.301   2.097 -0.2297  0.8980  0.8874
10685TIP3    H253471   1.284   5.232   2.205 -0.6101 -0.8032  0.1343
10686TIP3   OH253472   4.302   3.684  13.619 -0.2895 -0.5263 -0.0572
10686TIP3    H153473   4.304   3.716  13.709  0.7958  0.8270 -0.5298
10686TIP3    H253474   4.229   3.731  13.578  0.5116  0.4472 -0.4113
10687TIP3   OH253475   0.872   6.969   2.657 -0.2154  0.0562  0.1148
10687TIP3    H153476   0.896   6.997   2.569  1.4994  1.6236  1.0139
10687TIP3    H253477   0.944   6.998   2.712 -0.7678 -1.7486  1.9270
10688TIP3   OH253478   1.144   1.159   2.862  0.2282 -0.3024 -0.7444
10688TIP3    H153479   1.192   1.111   2.795 -0.0958  2.2874 -3.0074
10688TIP3    H253480   1.188   1.244   2.867 -0.0806 -0.2091  2.0278
10689TIP3   OH253481   3.390   0.853   4.557 -0.0601 -0.4092  0.2029
10689TIP3    H153482   3.377   0.935   4.604 -0.0248 -1.0278  1.3239
10689TIP3    H253483   3.483   0.853   4.534  0.2682 -0.7532  1.4429
10690TIP3   OH253484   0.900   0.335  13.081  0.4475  0.5535 -0.0948
10690TIP3    H153485   0.818   0.303  13.043  0.3876  1.0949 -0.4306
10690TIP3    H253486   0.940   0.387  13.012  1.8890 -1.0464 -0.5147
10691TIP3   OH253487   0.470   4.035   5.293 -0.3924 -0.1094 -0.0262
10691TIP3    H153488   0.513   3.978   5.229 -2.8352 -0.1479 -1.7641
10691TIP3    H253489   0.488   3.994   5.378  1.9010 -0.7475 -0.7418
10692TIP3   OH253490   1.439   1.856   0.566  0.1537  0.4300  0.3188
10692TIP3    H153491   1.406   1.769   0.541 -0.0801  0.4611  0.5173
10692TIP3    H253492   1.506   1.838   0.632  0.5760  0.3636 -0.1221
10693TIP3   OH253493   3.799   6.914   3.876  0.2971 -0.1000  0.1787
10693TIP3    H153494   3.728   6.975   3.897 -0.3229 -0.5824 -0.4783
10693TIP3    H253495   3.848   6.957   3.807  1.6233  0.9487  1.7096
10694TIP3   OH253496   2.297   3.003  14.941  0.4433  0.0053  0.2039
10694TIP3    H153497   2.383   2.971  14.968  0.0506 -0.0846  1.4162
10694TIP3    H253498   2.251   3.018  15.023  0.4395  3.2857 -0.2804
10695TIP3   OH253499   6.140   5.222   0.332  0.2112 -0.3083 -0.5146
10695TIP3    H153500   6.155   5.128   0.327  2.4060  0.0244 -1.5404
10695TIP3    H253501   6.189   5.250   0.410 -0.7784 -0.0542  0.0304
10696TIP3   OH253502   5.798   3.888   4.360  0.1986  0.0678 -0.5330
10696TIP3    H153503   5.882   3.934   4.359  0.9202 -1.1278  1.0280
10696TIP3    H253504   5.744   3.939   4.421  0.3571 -0.0964 -0.2543
10697TIP3   OH253505   3.813   6.995   4.179  0.1246  0.0217  0.0270
10697TIP3    H153506   3.756   7.066   4.206  1.6609  1.2652  0.1132
10697TIP3    H253507   3.843   7.019   4.092  0.5463 -0.5789 -0.0036
10698TIP3   OH253508   4.022   2.398   1.603  0.2672 -0.1577 -0.4329
10698TIP3    H153509   4.099   2.411   1.658  0.3097 -0.6863 -0.3642
10698TIP3    H253510   4.054   2.348   1.529 -0.4563 -2.5420  0.7668
10699TIP3   OH253511   3.856   4.407   2.125  0.0498  0.0297 -0.5306
10699TIP3    H153512   3.790   4.349   2.088  1.2432  0.2772 -3.2447
10699TIP3    H253513   3.806   4.478   2.166 -1.3710 -0.5445 -1.2182
10700TIP3   OH253514   5.940   5.958   5.254 -0.3881  0.4535 -0.6385
10700TIP3    H153515   5.879   6.010   5.306 -0.6213 -0.3714 -0.0662
10700TIP3    H253516   5.983   5.901   5.318 -2.3622 -2.2915 -1.5348
10701TIP3   OH253517   6.203   4.184  10.560  0.0447  0.0083 -0.3631
10701TIP3    H153518   6.114   4.218  10.552 -0.4743 -1.0586  0.5614
10701TIP3    H253519   6.239   4.191  10.471 -1.1025  0.0549 -0.8483
10702TIP3   OH253520   3.702   2.551   3.912 -0.0211  0.4552  0.1820
10702TIP3    H153521   3.746   2.477   3.955  0.8036  1.2916  0.8344
10702TIP3    H253522   3.772   2.597   3.866 -0.4805  0.9417 -0.0406
10703TIP3   OH253523   1.883   6.501  12.840  0.1967  0.3602  0.4486
10703TIP3    H153524   1.805   6.501  12.895 -0.9826  1.6300 -1.1207
10703TIP3    H253525   1.870   6.429  12.778 -0.4651  1.4551 -0.7299
10704TIP3   OH253526   6.290   0.066   2.832  0.0409 -0.3323  0.1851
10704TIP3    H153527   6.361   0.012   2.797 -0.2551 -0.3585 -0.3965
10704TIP3    H253528   6.211   0.017   2.811 -0.1870  0.0132  0.2380
10705TIP3   OH253529   7.011   6.282   1.455 -0.2565 -0.0310 -0.4185
10705TIP3    H153530   7.028   6.318   1.368  0.4033  0.1374 -0.2254
10705TIP3    H253531   7.094   6.292   1.501 -0.6730  0.0913  0.3062
10706TIP3   OH253532   2.761   6.426   3.166  0.2589  0.4311 -0.2367
10706TIP3    H153533   2.814   6.504   3.181  0.0372  1.3491 -3.3903
10706TIP3    H253534   2.822   6.353   3.174  1.0994  1.1537  0.1206
10707TIP3   OH253535   5.525   5.272  12.651 -0.4389 -0.4432 -0.4682
10707TIP3    H153536   5.506   5.212  12.723 -0.7275  0.5901  0.3570
10707TIP3    H253537   5.441   5.284  12.607 -0.9331  1.0766  0.7716
10708TIP3   OH253538   3.584   1.178  10.670  0.2077  0.2956  0.4844
10708TIP3    H153539   3.671   1.171  10.708 -0.2706 -0.7313  1.4389
10708TIP3    H253540   3.536   1.236  10.729 -0.4113 -0.9592  1.2415
10709TIP3   OH253541   5.153   2.741   0.492 -0.1170 -0.2101 -0.2971
10709TIP3    H153542   5.147   2.748   0.397  2.1893  2.8446 -0.3533
10709TIP3    H253543   5.245   2.722   0.509 -0.2881  0.2605  1.3303
10710TIP3   OH253544   0.804   1.256   5.502 -0.1950  0.3545  0.0131
10710TIP3    H153545   0.742   1.195   5.541 -0.8571  0.4640 -0.8527
10710TIP3    H253546   0.842   1.207   5.428 -0.7852  0.9984 -0.7306
10711TIP3   OH253547   6.336   0.328   4.038 -0.3010 -0.6162  0.4299
10711TIP3    H153548   6.328   0.291   4.126 -1.0977  0.0085  0.6408
10711TIP3    H253549   6.280   0.272   3.984 -3.0328  1.2294  1.0914
10712TIP3   OH253550   2.194   1.010   1.519 -0.5882  0.4195  0.0426
10712TIP3    H153551   2.247   0.991   1.597 -1.2501 -0.0826  0.3769
10712TIP3    H253552   2.167   1.101   1.530 -0.6921  0.3467  0.4173
10713TIP3   OH253553   3.589   6.932   3.671 -0.4579 -0.2536  0.0564
10713TIP3    H153554   3.632   7.018   3.668 -0.5420 -0.2128  0.0078
10713TIP3    H253555   3.501   6.951   3.702 -0.2538 -0.4137  0.7576
10714TIP3   OH253556   5.973   0.576   1.190 -0.0366  0.5001 -0.3061
10714TIP3    H153557   5.983   0.671   1.188 -2.3251  0.7850 -0.3956
10714TIP3    H253558   5.881   0.561   1.209  0.3833 -1.7294  0.3248
10715TIP3   OH253559   0.846   5.590   0.682  0.2911  0.2915  0.7131
10715TIP3    H153560   0.867   5.499   0.659  0.0471  0.2246  0.7472
10715TIP3    H253561   0.753   5.588   0.703  0.2239  0.6070  0.4456
10716TIP3   OH253562   5.051   4.330   3.742 -0.2577 -0.0827 -0.4677
10716TIP3    H153563   5.083   4.384   3.814 -2.2231  0.9191 -0.2640
10716TIP3    H253564   5.033   4.245   3.782  1.5784 -0.5279 -0.4957
10717TIP3   OH253565   0.051   3.535   2.983  0.1830  0.1845  0.6408
10717TIP3    H153566   0.041   3.630   2.988  0.4226  0.1736  1.4673
10717TIP3    H253567   0.101   3.520   2.903 -2.0893  0.5533 -0.9439
10718TIP3   OH253568   4.796   6.224   3.266 -0.0102 -0.3843 -0.2750
10718TIP3    H153569   4.823   6.140   3.302  0.1261 -0.0771  0.3559
10718TIP3    H253570   4.879   6.266   3.241  0.0067  0.0188  0.4451
10719TIP3   OH253571   1.861   4.730   0.492  0.2577  0.9571  0.1276
10719TIP3    H153572   1.892   4.763   0.408  1.3654  2.6931  1.1504
10719TIP3    H253573   1.776   4.691   0.474  0.8207  0.5948 -1.9157
10720TIP3   OH253574   6.798   2.808   4.775 -1.1566  0.0645 -0.5137
10720TIP3    H153575   6.778   2.739   4.839  0.9966  0.0804  0.2670
10720TIP3    H253576   6.772   2.889   4.819 -0.5734 -0.0044 -0.0247
10721TIP3   OH253577   6.761   0.713   3.348 -0.0698  0.9287  0.1997
10721TIP3    H153578   6.828   0.655   3.313 -0.1342  1.4309 -0.7978
10721TIP3    H253579   6.756   0.691   3.441 -1.2862 -1.8417 -0.4114
10722TIP3   OH253580   6.250   0.332   0.400 -0.0245  0.3018  0.1591
10722TIP3    H153581   6.316   0.292   0.343  0.1036  0.1657  0.4000
10722TIP3    H253582   6.197   0.385   0.342 -0.5140 -0.6251 -0.2589
10723TIP3   OH253583   5.456   4.481  15.317 -0.2619  0.3623 -0.5714
10723TIP3    H153584   5.380   4.432  15.350  0.3011  1.0688  2.0139
10723TIP3    H253585   5.430   4.573  15.325  0.7327  0.6036  0.1391
10724TIP3   OH253586   6.799   6.520   2.704  0.5937  0.6671 -0.0890
10724TIP3    H153587   6.732   6.505   2.637  0.9430 -0.1519 -0.2734
10724TIP3    H253588   6.814   6.614   2.703  1.0131  0.6076 -1.5881
10725TIP3   OH253589   3.175   1.448   3.295  0.6778 -0.7732  0.1022
10725TIP3    H153590   3.208   1.420   3.380 -0.7924 -2.2753  0.2095
10725TIP3    H253591   3.126   1.374   3.261 -1.1058  0.7285 -0.8251
10726TIP3   OH253592   0.134   5.382  14.434 -0.2203 -0.0719 -0.1606
10726TIP3    H153593   0.074   5.441  14.482  0.1751 -0.4272  0.8070
10726TIP3    H253594   0.174   5.438  14.368 -0.8098  0.4403 -0.0967
10727TIP3   OH253595   6.970   4.957   4.334 -0.2140 -0.0615  0.1943
10727TIP3    H153596   7.000   5.048   4.328 -0.2543 -0.0823 -0.3301
10727TIP3    H253597   6.917   4.944   4.256  0.4388 -0.7816 -0.1404
10728TIP3   OH253598   6.907   3.746   1.673  0.5216 -0.1145 -0.1281
10728TIP3    H153599   6.916   3.653   1.691 -1.2257 -0.0268  1.4410
10728TIP3    H253600   6.947   3.758   1.586  1.0850 -2.2336 -0.2038
10729TIP3   OH253601   4.651   0.456  12.929 -0.3426 -0.6918  0.3572
10729TIP3    H153602   4.683   0.543  12.951  1.1077 -1.1168  0.0554
10729TIP3    H253603   4.707   0.428  12.856 -0.8623 -1.8269  0.3749
10730TIP3   OH253604   4.086   6.339   3.426  0.0770  0.0290  0.2132
10730TIP3    H153605   4.068   6.421   3.380  2.6024  1.1521  1.0074
10730TIP3    H253606   4.029   6.274   3.385  1.2691  1.1832 -3.7099
10731TIP3   OH253607   0.671   6.607   2.346 -0.1776 -0.0821  0.0397
10731TIP3    H153608   0.586   6.606   2.390  0.0101 -1.4185  0.4114
10731TIP3    H253609   0.690   6.515   2.329  1.1913  0.1995 -0.0528
10732TIP3   OH253610   4.923   1.510  15.306  0.4028 -0.4541 -0.6021
10732TIP3    H153611   4.953   1.422  15.280  0.9313 -0.1709 -0.9817
10732TIP3    H253612   4.871   1.540  15.231 -1.3561 -1.1661  0.2810
10733TIP3   OH253613   2.514   5.345  14.030 -0.1104  0.3021 -0.2426
10733TIP3    H153614   2.474   5.326  13.946  0.4211  0.9554 -0.6497
10733TIP3    H253615   2.513   5.261  14.076  1.8243 -0.6932 -1.8491
10734TIP3   OH253616   5.409   0.561   4.710  0.4272  0.1506 -0.0322
10734TIP3    H153617   5.315   0.564   4.693  0.6183  0.6744 -1.0780
10734TIP3    H253618   5.432   0.469   4.697  0.0423 -0.0072  0.3640
10735TIP3   OH253619   0.996   6.958   0.353 -0.2132  0.0927  0.0851
10735TIP3    H153620   1.053   6.977   0.427  0.2360 -2.2620  0.4367
10735TIP3    H253621   0.942   6.885   0.383 -2.0781  0.9949 -0.9268
10736TIP3   OH253622   3.177   5.919   3.483 -0.1538  0.0007  0.0140
10736TIP3    H153623   3.209   5.966   3.559 -0.1360  0.1645 -0.0935
10736TIP3    H253624   3.082   5.919   3.493 -0.0724 -2.9881  1.8342
10737TIP3   OH253625   0.230   0.676  14.886  0.3530 -0.0184  0.2801
10737TIP3    H153626   0.188   0.596  14.857 -1.2311  0.7306  0.4189
10737TIP3    H253627   0.300   0.691  14.823 -1.9501  0.6930 -2.3000
10738TIP3   OH253628   5.849   1.155  14.095 -0.3775 -0.2723 -0.1806
10738TIP3    H153629   5.755   1.150  14.077 -0.9567  1.3601  1.9401
10738TIP3    H253630   5.877   1.236  14.052 -1.5215  2.9882  4.4254
10739TIP3   OH253631   2.175   1.597  14.416  0.0630 -0.1261  0.3595
10739TIP3    H153632   2.092   1.617  14.374  0.2615 -0.5663 -0.2529
10739TIP3    H253633   2.151   1.552  14.497 -0.2935 -0.0227  0.3118
10740TIP3   OH253634   2.965   6.808   3.980 -0.1788  0.0373 -0.3357
10740TIP3    H153635   2.886   6.759   4.002  0.4379 -1.6599 -1.6689
10740TIP3    H253636   3.037   6.749   4.003  0.6123  0.6200 -1.2382
10741TIP3   OH253637   6.777   7.000   0.154  0.4828  0.5643 -0.2069
10741TIP3    H153638   6.778   6.924   0.097  0.5142 -0.7123  1.4019
10741TIP3    H253639   6.771   7.075   0.095 -0.5771 -0.7207 -1.8108
10742TIP3   OH253640   2.283   6.752   1.296 -0.4986 -0.9721  0.0083
10742TIP3    H153641   2.200   6.741   1.249  1.1345 -1.1688 -3.0957
10742TIP3    H253642   2.341   6.686   1.257  2.1699  1.6087 -0.7534
10743TIP3   OH253643   1.582   6.037  14.027 -0.3017 -0.1217  0.7479
10743TIP3    H153644   1.558   6.112  14.081 -0.6152  0.0056  0.4390
10743TIP3    H253645   1.650   6.070  13.968  1.4125 -0.7367  2.2880
10744TIP3   OH253646   6.751   3.955  10.849  0.0007 -0.8108  0.2311
10744TIP3    H153647   6.747   3.860  10.839  2.5371 -0.8890 -0.9535
10744TIP3    H253648   6.665   3.980  10.880 -0.5826 -3.5529  1.0655
10745TIP3   OH253649   3.861   2.178  14.495 -0.2237  0.4841 -0.6982
10745TIP3    H153650   3.879   2.272  14.497 -0.6784  0.5607  0.4491
10745TIP3    H253651   3.928   2.142  14.435  1.9788  1.1313  1.2214
10746TIP3   OH253652   2.734   1.213  13.989 -0.4530  0.3213 -0.3017
10746TIP3    H153653   2.732   1.290  14.045 -4.5774  0.7356 -0.6616
10746TIP3    H253654   2.708   1.141  14.047  0.0148 -0.1522 -0.6742
10747TIP3   OH253655   2.691   5.351   1.067  0.3521 -0.2331  0.1768
10747TIP3    H153656   2.780   5.317   1.075  0.0512 -1.3094 -0.7337
10747TIP3    H253657   2.672   5.343   0.973 -0.9897 -0.8142  0.4800
10748TIP3   OH253658   3.136   4.330   1.335 -0.1700  0.3028  0.2272
10748TIP3    H153659   3.203   4.331   1.266  2.6107  0.1193  2.6999
10748TIP3    H253660   3.126   4.421   1.360  0.9415  0.1332  1.3816
10749TIP3   OH253661   2.130   0.465  11.350  0.3628  0.7232 -0.1740
10749TIP3    H153662   2.176   0.401  11.404 -0.0298  0.5513 -0.0422
10749TIP3    H253663   2.196   0.533  11.333  0.5160  0.7390  0.4462
10750TIP3   OH253664   5.939   1.680   1.847  0.1223  0.3085 -0.1422
10750TIP3    H153665   5.949   1.595   1.889  1.4543  0.6245  0.2244
10750TIP3    H253666   5.999   1.737   1.894 -0.5477  1.3923 -0.5708
10751TIP3   OH253667   0.917   5.047   2.671 -0.3227  0.1865 -0.2649
10751TIP3    H153668   0.964   5.041   2.588 -0.3490  1.1840 -0.3573
10751TIP3    H253669   0.830   5.011   2.651 -0.1597 -0.0745 -0.5252
10752TIP3   OH253670   1.381   5.673  15.085  0.2581 -0.0172  0.1094
10752TIP3    H153671   1.354   5.694  14.995 -0.9766 -1.3676  0.1283
10752TIP3    H253672   1.476   5.661  15.079  0.1691 -0.2558 -1.0513
10753TIP3   OH253673   3.254   4.908  10.190 -0.2214  0.0961  0.5874
10753TIP3    H153674   3.255   4.942  10.100  1.2112 -1.4901 -0.0337
10753TIP3    H253675   3.208   4.976  10.240  0.9234  2.0892 -0.9085
10754TIP3   OH253676   2.001   5.896  14.565 -0.7228  0.3195 -0.0792
10754TIP3    H153677   2.096   5.899  14.561 -0.6942  2.0151  0.8141
10754TIP3    H253678   1.971   5.944  14.488 -0.8108  0.8164  0.2551
10755TIP3   OH253679   5.240   0.224  11.078  0.3135 -0.4145 -0.5988
10755TIP3    H153680   5.253   0.201  10.986 -0.8996  3.0321 -1.8098
10755TIP3    H253681   5.315   0.279  11.100 -0.1844  0.0547 -0.0289
10756TIP3   OH253682   0.166   4.473   4.073  0.5433 -0.2349  0.7488
10756TIP3    H153683   0.202   4.416   4.005  0.5335 -2.0748  2.2224
10756TIP3    H253684   0.074   4.485   4.048  0.9343  0.4928 -0.4215
10757TIP3   OH253685   0.000   4.299   1.382 -0.8436  0.0577  0.0997
10757TIP3    H153686   0.001   4.255   1.468  1.0065  0.5230  0.3593
10757TIP3    H253687   0.021   4.229   1.320 -1.2404 -0.0837  0.1184
10758TIP3   OH253688   1.529   0.340   1.837  0.0578 -0.2813 -0.2750
10758TIP3    H153689   1.590   0.412   1.855  0.1612 -0.7077  1.1638
10758TIP3    H253690   1.512   0.301   1.922  0.5067 -2.3902 -1.0900
10759TIP3   OH253691   4.805   5.246   1.818  0.5819 -0.0789 -0.3040
10759TIP3    H153692   4.732   5.187   1.800 -0.5155  1.4332 -1.0176
10759TIP3    H253693   4.872   5.190   1.858 -0.9504 -1.5053  0.3767
10760TIP3   OH253694   1.881   3.629   3.544  0.6829  0.5192 -0.4281
10760TIP3    H153695   1.927   3.691   3.601  0.6326  1.6990 -1.6290
10760TIP3    H253696   1.790   3.633   3.574  0.5266  1.6424 -0.9724
10761TIP3   OH253697   1.191   0.763   3.607 -0.8076  0.0319 -0.0487
10761TIP3    H153698   1.174   0.674   3.640 -0.2634  0.3399  1.1401
10761TIP3    H253699   1.187   0.818   3.686 -1.4522  1.1153 -0.8165
10762TIP3   OH253700   0.328   6.257   4.511 -0.0748  0.1623 -0.5013
10762TIP3    H153701   0.301   6.214   4.430  0.7193 -0.8097 -0.2828
10762TIP3    H253702   0.423   6.269   4.501  0.1760 -0.7235  0.6001
10763TIP3   OH253703   2.763   7.026   2.570 -0.2232 -0.5935  0.0239
10763TIP3    H153704   2.697   7.087   2.602  1.1961  1.3070 -0.4994
10763TIP3    H253705   2.724   6.987   2.492 -1.4055 -0.8562  0.7252
10764TIP3   OH253706   2.274   6.419  13.635  0.2322 -0.2595  0.7504
10764TIP3    H153707   2.367   6.415  13.611 -0.2694 -0.7239 -1.2882
10764TIP3    H253708   2.265   6.503  13.680  1.3777  0.4602 -0.2900
10765TIP3   OH253709   5.522   2.909  14.754  0.3786  0.2505 -0.4675
10765TIP3    H153710   5.562   2.852  14.819  1.0856  1.8031  0.5124
10765TIP3    H253711   5.433   2.924  14.788 -0.0583 -0.8044 -1.0994
10766TIP3   OH253712   5.760   0.387  14.510 -0.0817  0.0003 -0.5069
10766TIP3    H153713   5.701   0.394  14.585  0.6402 -0.9936  0.1692
10766TIP3    H253714   5.702   0.370  14.436 -0.8859  1.8590 -0.3616
10767TIP3   OH253715   2.913   3.003   5.193 -0.0565  0.0044 -0.3735
10767TIP3    H153716   2.896   2.993   5.286  0.6634  1.9526  0.0143
10767TIP3    H253717   2.889   3.094   5.174  1.4458  0.1643 -1.6885
10768TIP3   OH253718   3.572   7.193   5.109  0.5228 -0.2168  0.2629
10768TIP3    H153719   3.532   7.257   5.167 -0.3187 -0.8323  0.3791
10768TIP3    H253720   3.519   7.114   5.120  1.7371 -1.0420  0.3791
10769TIP3   OH253721   1.090   1.724   0.500 -0.4160 -0.4940 -0.5718
10769TIP3    H153722   1.015   1.665   0.510  0.3876 -1.2489  1.4815
10769TIP3    H253723   1.164   1.666   0.482 -0.2634  0.2528 -2.6376
10770TIP3   OH253724   6.348   1.390   0.783 -0.1279 -0.0329  0.6116
10770TIP3    H153725   6.298   1.339   0.720 -3.8560  1.7263  1.8443
10770TIP3    H253726   6.336   1.345   0.867 -0.7374  1.0194  1.1259
10771TIP3   OH253727   2.947   0.933   1.514  0.2118 -0.2989 -0.0348
10771TIP3    H153728   2.862   0.928   1.558 -0.5210 -3.1525 -1.5053
10771TIP3    H253729   2.925   0.942   1.421  1.6262  1.1842 -0.2751
10772TIP3   OH253730   2.085   0.301  11.684  0.1414 -0.4084 -0.1420
10772TIP3    H153731   2.084   0.248  11.764  1.4894 -0.6256 -0.2446
10772TIP3    H253732   2.144   0.374  11.704 -1.8292  1.2189  0.0582
10773TIP3   OH253733   2.075   5.258  10.803 -0.3347  0.3635  0.5972
10773TIP3    H153734   2.109   5.301  10.725  0.9544  0.5914  1.2669
10773TIP3    H253735   2.018   5.323  10.843 -0.6943  0.3847  0.0709
10774TIP3   OH253736   2.418   2.282   4.091 -0.2483  0.4191 -0.0713
10774TIP3    H153737   2.372   2.235   4.161  0.6866  0.5251  0.6359
10774TIP3    H253738   2.494   2.227   4.072 -1.7186 -0.8721 -2.7424
10775TIP3   OH253739   0.903   4.997  11.797 -0.0219  0.6037 -0.0629
10775TIP3    H153740   0.959   4.964  11.727  0.2607  2.5734 -0.8158
10775TIP3    H253741   0.963   5.041  11.858 -0.4752  0.4975  0.4726
10776TIP3   OH253742   3.912   3.318   0.812  0.2003  0.0447  0.5711
10776TIP3    H153743   3.867   3.236   0.791  0.4250 -0.5991  2.3872
10776TIP3    H253744   3.960   3.299   0.893  1.2768  1.6139  0.3442
10777TIP3   OH253745   3.418   3.032  14.750  0.0971 -0.1595  0.8304
10777TIP3    H153746   3.401   3.089  14.675 -1.7531 -1.7272 -0.0737
10777TIP3    H253747   3.355   3.060  14.816  1.3789  0.8852  1.6513
10778TIP3   OH253748   1.581   1.157   2.648 -0.1116  0.5454 -0.0739
10778TIP3    H153749   1.537   1.237   2.677 -0.3081  0.5748 -0.4467
10778TIP3    H253750   1.540   1.137   2.564 -0.3043 -0.1417  0.1788
10779TIP3   OH253751   5.894   5.483  11.321 -0.2003 -0.1242  0.2140
10779TIP3    H153752   5.857   5.424  11.387 -1.3024  0.7472  0.4111
10779TIP3    H253753   5.844   5.464  11.242 -0.0125 -0.0192  0.0714
10780TIP3   OH253754   7.208   6.834   2.359 -0.2613  0.0915 -0.0465
10780TIP3    H153755   7.171   6.768   2.418  1.6882 -1.5716 -0.5464
10780TIP3    H253756   7.296   6.850   2.393  1.1753 -1.4024 -2.7199
10781TIP3   OH253757   6.611   1.162   3.602 -0.3710  0.0999  0.2493
10781TIP3    H153758   6.550   1.207   3.660 -0.3173  1.9987 -1.0505
10781TIP3    H253759   6.566   1.161   3.517  0.1850 -1.1854 -0.0502
10782TIP3   OH253760   4.771   3.278  14.733 -0.3175  0.1792  0.8015
10782TIP3    H153761   4.722   3.215  14.786  1.1884  0.0780  2.1477
10782TIP3    H253762   4.809   3.226  14.662 -0.5995 -0.0725  0.8315
10783TIP3   OH253763   1.924   3.104   4.768  0.2360 -0.1219 -0.2065
10783TIP3    H153764   1.966   3.179   4.727 -0.3309  0.0839 -0.4149
10783TIP3    H253765   1.880   3.140   4.845  1.1493 -0.4769  0.5049
10784TIP3   OH253766   0.939   0.114  12.090  0.2090  0.4682 -0.1477
10784TIP3    H153767   0.877   0.044  12.111 -0.2808  1.0367  0.3346
10784TIP3    H253768   0.994   0.121  12.169  0.6331  0.2374 -0.4200
10785TIP3   OH253769   4.111   3.871   3.863  0.0305 -0.1110 -0.5844
10785TIP3    H153770   4.120   3.788   3.817  1.5423 -0.7283  0.7035
10785TIP3    H253771   4.124   3.848   3.955 -0.4666  1.4185 -0.1101
10786TIP3   OH253772   0.675   3.111   1.613 -0.5082 -0.1307  0.2255
10786TIP3    H153773   0.752   3.072   1.655  1.5384  2.1007 -1.1579
10786TIP3    H253774   0.677   3.202   1.641 -0.5438  0.8171 -2.5544
10787TIP3   OH253775   1.419   6.822  13.844  0.4717  0.1989  0.4057
10787TIP3    H153776   1.411   6.902  13.791 -1.3071  1.0321  1.8156
10787TIP3    H253777   1.488   6.843  13.908  1.3734 -0.1578 -0.4163
10788TIP3   OH253778   6.680   5.753   1.395 -0.3398 -0.3227  0.1831
10788TIP3    H153779   6.594   5.757   1.436 -0.1101  0.1110  0.6242
10788TIP3    H253780   6.682   5.828   1.335 -0.8322 -1.1879 -0.9521
10789TIP3   OH253781   3.010   0.899  14.485  0.4151 -0.2569 -0.2501
10789TIP3    H153782   3.097   0.923  14.516  1.0141  0.6569 -2.4839
10789TIP3    H253783   3.015   0.905  14.390 -2.4080  0.9787 -0.4245
10790TIP3   OH253784   6.053   6.930   5.022 -0.2466 -0.2773  0.6463
10790TIP3    H153785   6.100   7.014   5.026 -0.8241  0.0829  0.0980
10790TIP3    H253786   5.996   6.939   4.946  0.9311 -1.8296 -0.4810
10791TIP3   OH253787   2.405   6.147   3.566 -0.0355 -0.3572  0.5541
10791TIP3    H153788   2.446   6.211   3.508  1.5643  0.1505  2.1557
10791TIP3    H253789   2.443   6.063   3.539 -1.0832 -0.4842 -0.6292
10792TIP3   OH253790   1.898   5.045   2.202  0.2159 -0.0677  0.3055
10792TIP3    H153791   1.923   4.989   2.275 -0.3573 -0.1085  0.4786
10792TIP3    H253792   1.815   5.009   2.171 -0.1900  0.7029  0.4503
10793TIP3   OH253793   2.587   5.128   1.684 -0.5713 -0.5391  0.3770
10793TIP3    H153794   2.496   5.158   1.688 -0.0796  0.9925  0.8854
10793TIP3    H253795   2.634   5.189   1.741  1.0481 -0.2907 -1.1417
10794TIP3   OH253796   1.418   3.130   3.228  0.3694  0.1839 -0.0373
10794TIP3    H153797   1.430   3.194   3.157  0.6179 -2.7539 -2.8504
10794TIP3    H253798   1.323   3.117   3.232  0.2733  1.0552  0.9179
10795TIP3   OH253799   3.522   4.130  15.236  0.4536  0.4458  0.5033
10795TIP3    H153800   3.460   4.194  15.202 -0.2050 -0.4230  0.0225
10795TIP3    H253801   3.607   4.174  15.231  0.3165  0.5919 -1.7550
10796TIP3   OH253802   0.524   6.829   3.035 -0.3922 -0.1113  0.7227
10796TIP3    H153803   0.462   6.818   3.107 -1.9498 -0.4169 -0.6050
10796TIP3    H253804   0.586   6.757   3.046 -0.4107  0.0322  1.9281
10797TIP3   OH253805   6.781   4.672  13.711 -0.1410 -0.6446 -0.3392
10797TIP3    H153806   6.799   4.706  13.798 -0.0233  0.0837 -0.6375
10797TIP3    H253807   6.855   4.701  13.658  0.1233 -1.6462 -0.5421
10798TIP3   OH253808   1.066   1.924  15.316 -0.7787  0.1596 -0.4356
10798TIP3    H153809   1.089   1.858  15.381  0.0218  0.6438 -0.2169
10798TIP3    H253810   0.984   1.961  15.349 -0.7209 -0.0485 -0.0453
10799TIP3   OH253811   6.300   7.035  11.884  0.0716  0.4357 -0.7574
10799TIP3    H153812   6.210   7.066  11.896 -0.3724 -0.7769 -0.8572
10799TIP3    H253813   6.313   6.971  11.953  0.3110 -0.5554 -1.6964
10800TIP3   OH253814   2.583   3.187   5.476  0.0102  0.2570  0.2678
10800TIP3    H153815   2.557   3.173   5.567  0.4258 -2.2471  0.0811
10800TIP3    H253816   2.657   3.127   5.464 -0.6289 -0.1446 -1.9588
10801TIP3   OH253817   4.822   6.414   3.826  0.4208 -0.2238  0.5547
10801TIP3    H153818   4.750   6.478   3.826 -0.1938 -0.8861  0.0275
10801TIP3    H253819   4.798   6.351   3.894  0.4984 -0.4456  0.3789
10802TIP3   OH253820   6.485   6.112   0.311 -0.8707 -0.3861  0.4429
10802TIP3    H153821   6.455   6.202   0.322 -1.4061 -0.5319  0.2343
10802TIP3    H253822   6.420   6.060   0.359 -0.0321 -0.5961  1.3870
10803TIP3   OH253823   0.625   4.448   2.511 -0.0795 -0.2863 -0.2453
10803TIP3    H153824   0.637   4.529   2.560 -0.0953  0.4565 -1.4358
10803TIP3    H253825   0.670   4.463   2.428 -1.1385 -1.0202 -0.9843
10804TIP3   OH253826   0.659   5.358  11.699 -0.5076 -0.0467  0.4343
10804TIP3    H153827   0.667   5.274  11.744  1.8025 -0.6431 -0.8808
10804TIP3    H253828   0.714   5.417  11.750  1.9523 -0.6751 -1.2976
10805TIP3   OH253829   5.985   0.532   4.234 -0.1545 -0.8303  1.0622
10805TIP3    H153830   5.940   0.617   4.227 -0.8644 -1.3206 -1.7890
10805TIP3    H253831   6.078   0.554   4.232 -0.3169 -0.1050 -0.9433
10806TIP3   OH253832   4.839   2.870   4.030 -0.6533 -0.7844  0.6094
10806TIP3    H153833   4.932   2.874   4.005 -1.2279 -0.2730 -1.6693
10806TIP3    H253834   4.832   2.930   4.104  0.3670  1.4878 -1.0026
10807TIP3   OH253835   0.308   0.977  12.049  0.0224  0.2595  0.2852
10807TIP3    H153836   0.338   0.901  11.999 -0.2071  0.3085  0.0701
10807TIP3    H253837   0.251   0.940  12.116 -0.7225  0.3048 -0.3095
10808TIP3   OH253838   1.884   4.101  14.301 -0.2708 -0.0518  0.6673
10808TIP3    H153839   1.799   4.127  14.337 -1.0744  0.1063 -1.2475
10808TIP3    H253840   1.946   4.159  14.344 -1.2941  0.7143  1.1572
10809TIP3   OH253841   1.766   2.242   0.124 -0.0027 -0.1478  0.0584
10809TIP3    H153842   1.727   2.162   0.090  1.2182 -0.4962 -0.5676
10809TIP3    H253843   1.692   2.292   0.158 -0.7569 -1.6201  0.6549
10810TIP3   OH253844   3.624   0.991   9.794 -0.7364 -0.0112  0.1578
10810TIP3    H153845   3.675   0.910   9.792 -2.0513 -0.8565 -1.8147
10810TIP3    H253846   3.625   1.022   9.703 -1.4292  1.4335  0.6176
10811TIP3   OH253847   6.968   3.921   4.018 -0.0444  0.4151 -0.0071
10811TIP3    H153848   7.026   3.998   4.023  0.4493  0.0688 -0.3335
10811TIP3    H253849   7.025   3.847   4.041 -0.5732  0.1689  0.5306
10812TIP3   OH253850   1.670   3.469  14.962  0.7174  0.1530 -0.2354
10812TIP3    H153851   1.678   3.374  14.950  1.6705  0.1210  0.4554
10812TIP3    H253852   1.679   3.505  14.874  0.0184 -0.4136 -0.5446
10813TIP3   OH253853   1.065   0.041  12.782 -0.5029 -0.2615  0.3627
10813TIP3    H153854   0.984   0.043  12.732  1.0895  0.7378 -2.4189
10813TIP3    H253855   1.091  -0.052  12.783 -2.0606 -0.7462  2.1416
10814TIP3   OH253856   6.398   5.299  14.729 -0.6411 -0.5472 -0.0940
10814TIP3    H153857   6.321   5.268  14.682  0.2073 -2.8356 -0.0679
10814TIP3    H253858   6.469   5.243  14.700  0.7394  0.5450  0.9870
10815TIP3   OH253859   1.128   1.882   3.383 -0.3742 -0.1569  0.0952
10815TIP3    H153860   1.204   1.894   3.326 -0.5718 -4.8207 -1.5456
10815TIP3    H253861   1.155   1.920   3.466  4.2515 -2.2798 -0.1091
10816TIP3   OH253862   5.422   5.027   1.864 -0.6971  0.1398 -0.3862
10816TIP3    H153863   5.418   4.984   1.949  0.4398  0.7987  0.0218
10816TIP3    H253864   5.483   4.974   1.813  1.3331  1.6116  0.3756
10817TIP3   OH253865   1.754   5.667   3.373  0.0876  0.4577  0.6044
10817TIP3    H153866   1.678   5.722   3.394  0.5016  1.4965 -0.5501
10817TIP3    H253867   1.829   5.726   3.379  0.9258 -0.6864  2.3306
10818TIP3   OH253868   5.247   3.465   5.575 -0.5465 -0.7617  0.0273
10818TIP3    H153869   5.182   3.431   5.636 -1.3113  1.0341  0.2782
10818TIP3    H253870   5.288   3.537   5.622  2.7075 -2.6686  0.4491
10819TIP3   OH253871   2.339   0.809  12.471 -0.6463 -0.1185  0.4231
10819TIP3    H153872   2.401   0.875  12.440 -0.2844 -0.9269 -0.6394
10819TIP3    H253873   2.268   0.859  12.511 -0.5502  0.9205 -0.6612
10820TIP3   OH253874   2.885   1.826   0.747 -0.6104  0.5385  0.4444
10820TIP3    H153875   2.860   1.915   0.771  0.8530  1.4242 -1.0887
10820TIP3    H253876   2.981   1.827   0.747 -0.5250 -1.5229  1.9900
10821TIP3   OH253877   0.739   6.545   3.401 -0.6188 -0.2397  0.0028
10821TIP3    H153878   0.695   6.511   3.323 -2.6662 -1.7265  1.6872
10821TIP3    H253879   0.694   6.627   3.420 -0.8278 -0.4022  0.2075
10822TIP3   OH253880   1.670   4.089   0.068 -0.3266 -0.2262 -0.0769
10822TIP3    H153881   1.641   4.041  -0.009  1.2948 -2.0791  0.3718
10822TIP3    H253882   1.732   4.030   0.111  1.2951  2.0333  0.8992
10823TIP3   OH253883   1.429   5.613   3.671 -0.0756  0.1028 -0.6105
10823TIP3    H153884   1.415   5.659   3.588  1.2040  0.4261 -0.6740
10823TIP3    H253885   1.470   5.678   3.728 -2.2592  0.3380  0.8144
10824TIP3   OH253886   2.083   3.368   4.947  0.3574  0.1767  0.1857
10824TIP3    H153887   2.032   3.447   4.931 -1.1405 -0.9696 -0.9817
10824TIP3    H253888   2.173   3.399   4.959 -0.5897  2.2896  2.6146
10825TIP3   OH253889   1.504   4.158   2.341 -0.3162  0.4091 -0.6089
10825TIP3    H153890   1.509   4.063   2.355 -1.4625  0.2973 -0.8243
10825TIP3    H253891   1.554   4.196   2.413 -0.6302 -0.3371  0.0188
10826TIP3   OH253892   4.737   6.225   0.185 -0.3236 -0.2786  0.1049
10826TIP3    H153893   4.795   6.300   0.197 -0.0733 -0.5239  0.4674
10826TIP3    H253894   4.722   6.193   0.274  0.6804 -1.4929 -0.1373
10827TIP3   OH253895   3.301   2.750   3.576 -0.3548 -0.4117 -0.3508
10827TIP3    H153896   3.213   2.783   3.589 -0.5476 -0.8624 -0.4643
10827TIP3    H253897   3.319   2.766   3.484  0.5766  1.7602  0.1677
10828TIP3   OH253898   4.112   5.403   2.434  0.6647 -0.6472 -0.0199
10828TIP3    H153899   4.072   5.320   2.462  1.1031 -1.0737 -0.6163
10828TIP3    H253900   4.205   5.384   2.430  0.6754 -0.4297 -1.1500
10829TIP3   OH253901   1.400   0.782   3.424  0.5387  0.5114 -0.1347
10829TIP3    H153902   1.368   0.700   3.385 -0.3079  0.8225 -0.1156
10829TIP3    H253903   1.336   0.802   3.493  2.0676 -0.0884  1.5289
10830TIP3   OH253904   3.481   0.654  14.649 -0.0992 -0.1442  0.0744
10830TIP3    H153905   3.408   0.593  14.639 -1.1562  1.0950 -0.1358
10830TIP3    H253906   3.556   0.599  14.671 -0.7108 -1.6294 -1.3537
10831TIP3   OH253907   2.367   1.338   4.644 -0.2360  0.1506 -0.1147
10831TIP3    H153908   2.321   1.321   4.726 -0.3854  0.6840 -0.0852
10831TIP3    H253909   2.458   1.351   4.670 -0.3727  0.8457  0.0329
10832TIP3   OH253910   3.508   3.528   4.151  0.1497  0.3400 -0.1666
10832TIP3    H153911   3.505   3.624   4.154 -0.7218  0.3198 -0.1797
10832TIP3    H253912   3.586   3.509   4.098  1.9816  0.9794  2.1574
10833TIP3   OH253913   2.136   0.361   1.481 -0.3881 -0.0319 -0.2579
10833TIP3    H153914   2.136   0.381   1.387  0.4863 -1.1806 -0.5236
10833TIP3    H253915   2.229   0.358   1.504 -0.4031 -3.6215 -0.2394
10834TIP3   OH253916   3.677   6.182  14.290  0.1778 -0.2872 -0.4225
10834TIP3    H153917   3.641   6.171  14.202 -1.9949 -0.6411  0.4482
10834TIP3    H253918   3.653   6.271  14.315  1.5880  0.1371 -0.5035
10835TIP3   OH253919   6.205   0.250   1.300  0.1063 -0.1885  0.1661
10835TIP3    H153920   6.282   0.209   1.339  2.0378  1.4868 -1.6432
10835TIP3    H253921   6.157   0.178   1.260  0.9984 -1.2106  0.8911
10836TIP3   OH253922   1.824   4.803   2.783 -0.3784  0.0544 -0.0072
10836TIP3    H153923   1.905   4.844   2.813  0.4721 -0.4413 -1.5270
10836TIP3    H253924   1.805   4.736   2.849  0.6819 -0.1041  0.1496
10837TIP3   OH253925   0.213   1.033   3.038 -0.1509  0.1783  0.6220
10837TIP3    H153926   0.153   1.052   2.967 -1.3009 -0.9943  1.2519
10837TIP3    H253927   0.159   0.994   3.107  1.1710 -0.1048  1.5569
10838TIP3   OH253928   4.937   3.200   2.520  0.2123 -0.2759  0.1613
10838TIP3    H153929   4.882   3.278   2.534  0.3257 -0.5346  2.4949
10838TIP3    H253930   5.012   3.233   2.472  0.1264  1.0398  0.8630
10839TIP3   OH253931   2.753   4.006   3.173  0.7275  0.0549 -0.0935
10839TIP3    H153932   2.721   3.966   3.092 -0.0140  1.8163 -0.7161
10839TIP3    H253933   2.711   3.955   3.242 -0.5650  0.0219 -0.8592
10840TIP3   OH253934   6.262   5.211   3.484 -0.3056 -0.1620  0.4157
10840TIP3    H153935   6.277   5.220   3.578  1.1385  3.1220  0.0143
10840TIP3    H253936   6.181   5.161   3.477 -1.3645  0.9091  3.4980
10841TIP3   OH253937   4.822   4.185   5.401  0.0472  0.1168 -0.3143
10841TIP3    H153938   4.734   4.179   5.437  0.2279 -0.9840 -0.0004
10841TIP3    H253939   4.879   4.190   5.478  0.5792 -4.1850 -0.1840
10842TIP3   OH253940   0.861   6.691   4.286  0.3849 -0.4343 -0.5033
10842TIP3    H153941   0.902   6.755   4.345 -0.5911 -0.7308  0.5324
10842TIP3    H253942   0.858   6.735   4.201 -0.0327  0.8080  0.1289
10843TIP3   OH253943   4.596   4.808   3.310 -0.4978 -0.5995 -0.2862
10843TIP3    H153944   4.660   4.801   3.382 -0.7813  1.0403  0.1887
10843TIP3    H253945   4.554   4.723   3.307  0.5570 -1.1799  0.5170
10844TIP3   OH253946   1.449   3.524   3.544 -0.3261 -0.4456 -0.2046
10844TIP3    H153947   1.399   3.528   3.463 -0.4621 -1.5411 -0.1886
10844TIP3    H253948   1.504   3.602   3.542 -1.5609  0.4446 -0.5200
10845TIP3   OH253949   2.987   3.787   0.756 -0.4809 -0.0957  0.0300
10845TIP3    H153950   2.900   3.826   0.754 -1.2166 -1.6361 -1.9411
10845TIP3    H253951   3.000   3.753   0.667  1.2454 -1.7653  0.8366
10846TIP3   OH253952   4.449   5.892   2.624  0.1820  0.4997  0.4314
10846TIP3    H153953   4.403   5.840   2.557  2.0758  0.5437 -0.9637
10846TIP3    H253954   4.516   5.833   2.658  1.1271  1.3962  0.1798
10847TIP3   OH253955   7.116   0.927   1.311 -0.4804  0.6285  0.4541
10847TIP3    H153956   7.183   0.879   1.359 -0.0840  0.7879  0.0624
10847TIP3    H253957   7.048   0.944   1.376  0.5827  1.8941  1.2822
10848TIP3   OH253958   1.067   4.308   6.106  0.3523  0.3401 -0.7594
10848TIP3    H153959   1.032   4.278   6.022  2.1885  0.6987 -1.6938
10848TIP3    H253960   1.148   4.354   6.084  2.7710 -2.4969  1.4186
10849TIP3   OH253961   6.737   3.346  13.950 -0.0121  0.0089  0.5228
10849TIP3    H153962   6.666   3.366  13.889  0.4402  0.2990  0.0907
10849TIP3    H253963   6.698   3.359  14.037 -0.6288 -0.3072  0.3066
10850TIP3   OH253964   5.683   0.106  15.063  0.0482  0.1176 -0.2747
10850TIP3    H153965   5.659   0.015  15.045  0.5263  0.3642 -2.5089
10850TIP3    H253966   5.645   0.124  15.149  0.6433 -2.4252  0.6353
10851TIP3   OH253967   5.796   3.382  11.858  0.6745  0.0966  0.0713
10851TIP3    H153968   5.804   3.398  11.952 -2.4999  2.3721  0.0930
10851TIP3    H253969   5.755   3.296  11.851  2.4639 -0.8646  0.5920
10852TIP3   OH253970   4.544   4.300   1.080  0.1823 -0.2155  0.0973
10852TIP3    H153971   4.619   4.334   1.129 -0.8747  1.4970  0.6254
10852TIP3    H253972   4.488   4.376   1.066 -0.9370 -1.2292 -1.2703
10853TIP3   OH253973   4.083   0.936  13.296  0.0853  0.6331 -0.2479
10853TIP3    H153974   4.124   0.853  13.321 -1.3060  0.1814  0.6566
10853TIP3    H253975   4.139   1.003  13.335  0.0327  0.0368  0.8834
10854TIP3   OH253976   0.767   2.716   2.267 -0.0565  0.2116  0.0049
10854TIP3    H153977   0.673   2.724   2.249 -0.6808 -1.1345  2.2607
10854TIP3    H253978   0.791   2.631   2.232  0.1572  0.2643  0.0245
10855TIP3   OH253979   6.145   4.204  12.895 -0.4681  0.3542  0.1481
10855TIP3    H153980   6.196   4.218  12.815 -0.5602  1.9804  0.3463
10855TIP3    H253981   6.133   4.291  12.931 -1.2558 -0.2670  1.4417
10856TIP3   OH253982   2.265   4.107   5.962  0.3607 -0.1796  0.1557
10856TIP3    H153983   2.248   4.061   5.880  2.1686  1.7606 -1.4398
10856TIP3    H253984   2.178   4.126   5.998 -0.6784  1.4685 -2.8767
10857TIP3   OH253985   7.176   3.827   0.777  0.2368  0.2747  0.5994
10857TIP3    H153986   7.159   3.841   0.870  3.0713  0.2037  1.2359
10857TIP3    H253987   7.148   3.909   0.735 -2.8241 -0.3955  1.1627
10858TIP3   OH253988   7.060   4.755   1.720  0.1579  0.0792 -0.0999
10858TIP3    H153989   7.129   4.810   1.684 -0.1663  0.5740  0.0278
10858TIP3    H253990   6.987   4.815   1.736  0.0138 -0.2726  0.6111
10859TIP3   OH253991   7.101   1.165  14.915 -0.0382 -0.3386  0.5437
10859TIP3    H153992   7.184   1.150  14.869 -1.2985 -2.0486 -1.3696
10859TIP3    H253993   7.047   1.212  14.851 -1.0777 -0.6803  1.1533
10860TIP3   OH253994   5.330   6.987   1.342  0.1566 -0.0653  0.3406
10860TIP3    H153995   5.391   7.060   1.343  0.5457 -0.3495 -1.0025
10860TIP3    H253996   5.349   6.939   1.423  0.4583  0.8574  0.8225
10861TIP3   OH253997   1.180   6.616   3.907  0.5783  0.0902 -0.7502
10861TIP3    H153998   1.275   6.625   3.894  0.7994 -0.9820 -0.0871
10861TIP3    H253999   1.157   6.538   3.856 -0.2904  1.3252 -2.3148
10862TIP3   OH254000   0.603   6.308   4.450  0.2600 -0.1734 -0.1729
10862TIP3    H154001   0.628   6.283   4.361 -1.2215  1.8912 -1.2640
10862TIP3    H254002   0.605   6.404   4.449 -0.8520 -0.0786  1.6893
10863TIP3   OH254003   1.254   4.661   3.561 -0.8218 -0.0510  0.2541
10863TIP3    H154004   1.270   4.627   3.649  1.1704  0.1055  0.0011
10863TIP3    H254005   1.339   4.655   3.518 -1.7865 -0.2699 -1.7259
10864TIP3   OH254006   3.382   6.231  15.193  0.2051 -0.9716 -0.1428
10864TIP3    H154007   3.314   6.232  15.126  1.2806 -1.4398 -1.2694
10864TIP3    H254008   3.335   6.245  15.275 -1.3258 -1.8931 -0.8252
10865TIP3   OH254009   3.509   0.936  12.574 -0.4915  0.2383 -0.5130
10865TIP3    H154010   3.420   0.901  12.573 -0.5725  0.4652 -1.1411
10865TIP3    H254011   3.560   0.875  12.521  0.2895 -1.3274  1.8464
10866TIP3   OH254012   1.970   3.437   3.072  0.4172 -0.3134 -0.1519
10866TIP3    H154013   1.904   3.474   3.130  0.0949 -1.9525  0.5619
10866TIP3    H254014   2.047   3.492   3.085 -0.4667  1.0044 -0.2460
10867TIP3   OH254015   0.946   6.551   0.034 -0.0338  0.0303  0.0036
10867TIP3    H154016   0.879   6.500  -0.011  0.3621 -0.2522 -0.2685
10867TIP3    H254017   0.896   6.614   0.088 -0.5339  1.6204 -2.1664
10868TIP3   OH254018   6.991   4.445  14.331  0.1501 -0.3412  0.1339
10868TIP3    H154019   7.067   4.435  14.389  1.6562 -0.5311 -1.7616
10868TIP3    H254020   6.952   4.358  14.329 -0.1703 -0.2383  1.1444
10869TIP3   OH254021   3.758   6.038  12.206 -0.2661  0.3602  0.0228
10869TIP3    H154022   3.765   5.944  12.220  1.8502  0.6496  1.1927
10869TIP3    H254023   3.822   6.058  12.138  0.0506  1.0956  0.5183
10870TIP3   OH254024   1.784   1.768   3.971 -0.2837 -0.0069 -0.4076
10870TIP3    H154025   1.814   1.818   4.047 -1.2636  0.2455 -0.1656
10870TIP3    H254026   1.840   1.691   3.969  1.2594  1.0784 -0.7874
10871TIP3   OH254027   5.113   5.574   0.941  0.2397  0.0433  0.4525
10871TIP3    H154028   5.191   5.582   0.996  0.3530  1.8746  0.0811
10871TIP3    H254029   5.144   5.535   0.860  1.0949  2.0076 -0.2279
10872TIP3   OH254030   6.534   5.569   4.949 -0.1844 -0.7413 -0.2571
10872TIP3    H154031   6.483   5.491   4.972 -1.2098 -0.2711 -0.8975
10872TIP3    H254032   6.537   5.568   4.854 -0.8959  0.4263 -0.3068
10873TIP3   OH254033   1.729   1.907  14.801  0.0998 -0.2406  0.0843
10873TIP3    H154034   1.738   1.911  14.896 -1.2151 -0.9548  0.2580
10873TIP3    H254035   1.659   1.970  14.781  1.2189  0.8517 -0.5735
10874TIP3   OH254036   3.883   4.230  14.702  0.7082 -0.1012  1.0627
10874TIP3    H154037   3.836   4.221  14.785 -0.9182  1.8348  0.4051
10874TIP3    H254038   3.913   4.141  14.683 -0.8484 -1.0183  2.5796
10875TIP3   OH254039   5.114   6.844   1.240  0.2975 -0.3119  0.1750
10875TIP3    H154040   5.146   6.769   1.190  1.7305  0.0207  0.5429
10875TIP3    H254041   5.194   6.887   1.271 -0.5431  0.3307  1.4954
10876TIP3   OH254042   6.620   5.983   0.882  0.0824 -0.8253  0.2900
10876TIP3    H154043   6.532   5.962   0.852  0.0013 -1.3331  0.8814
10876TIP3    H254044   6.677   5.958   0.809 -0.2207 -0.9274  0.0901
10877TIP3   OH254045   1.687   4.411   4.420  0.1990  0.3471  0.4835
10877TIP3    H154046   1.707   4.375   4.506 -1.0433  0.0039  0.6519
10877TIP3    H254047   1.709   4.341   4.359  0.9230  0.5301  0.5233
10878TIP3   OH254048   6.112   1.580   3.234  0.2662 -0.1731  0.3028
10878TIP3    H154049   6.060   1.579   3.153  1.5299  1.1659 -0.5901
10878TIP3    H254050   6.105   1.492   3.269 -1.0551 -0.5335 -0.7913
10879TIP3   OH254051   4.289   3.369   2.592  0.4148  0.4359  0.3685
10879TIP3    H154052   4.362   3.309   2.577  0.3672  0.5428 -0.3227
10879TIP3    H254053   4.312   3.416   2.672  1.7087  1.3841 -0.5350
10880TIP3   OH254054   5.944   1.842  14.966 -0.6715  0.3160  0.2417
10880TIP3    H154055   5.895   1.790  15.030 -1.4339 -1.1564 -1.4439
10880TIP3    H254056   5.877   1.876  14.907  0.1903 -3.3234 -3.2783
10881TIP3   OH254057   0.855   2.896   9.950  0.1478 -0.6418 -0.3615
10881TIP3    H154058   0.794   2.936   9.888  0.8252  0.7881 -0.1404
10881TIP3    H254059   0.834   2.802   9.948 -1.3906 -0.3058 -1.0038
10882TIP3   OH254060   6.566   2.802  13.402 -0.2174  0.3330 -0.6218
10882TIP3    H154061   6.497   2.862  13.430  0.3003  0.2622  0.8537
10882TIP3    H254062   6.542   2.779  13.312 -0.9908  1.9149 -0.8558
10883TIP3   OH254063   3.615   6.735  13.220  0.2686  0.3599 -0.8421
10883TIP3    H154064   3.656   6.821  13.231 -2.2905  1.4968  0.7765
10883TIP3    H254065   3.592   6.708  13.309  1.2801 -2.1972 -1.2947
10884TIP3   OH254066   5.763   5.643   3.545  0.6405  0.0884 -0.0097
10884TIP3    H154067   5.769   5.558   3.502 -0.4430 -0.8801  1.6091
10884TIP3    H254068   5.672   5.671   3.532  0.5674  0.2440  0.7451
10885TIP3   OH254069   1.337   4.111   4.971 -0.0549  0.4569 -0.1342
10885TIP3    H154070   1.288   4.193   4.978  0.3529  0.6365  0.8490
10885TIP3    H254071   1.274   4.047   4.938 -0.3893  1.1566 -0.8657
10886TIP3   OH254072   7.195   0.587   1.110  0.2782  0.5431  0.1676
10886TIP3    H154073   7.241   0.643   1.173  0.2864  1.3958 -0.5689
10886TIP3    H254074   7.111   0.567   1.152  1.3277 -1.1596  1.5920
10887TIP3   OH254075   1.103   1.527  10.256  0.3378  0.6201 -0.2950
10887TIP3    H154076   1.084   1.545  10.348 -2.7724 -1.2988 -0.4553
10887TIP3    H254077   1.194   1.497  10.256 -0.2038 -1.3930  2.5172
10888TIP3   OH254078   0.825   4.514   0.828 -0.0364 -0.1742  0.2352
10888TIP3    H154079   0.736   4.515   0.860 -1.3639  0.3373 -3.0100
10888TIP3    H254080   0.834   4.430   0.782 -0.2418  1.1849 -2.5348
10889TIP3   OH254081   3.514   1.768   3.970 -1.1100  0.3679  0.3010
10889TIP3    H154082   3.496   1.689   3.918  0.7430 -0.2855  0.5797
10889TIP3    H254083   3.547   1.735   4.053  2.5572  1.3376 -0.5948
10890TIP3   OH254084   5.622   4.320  13.987 -0.3789  0.1130 -0.1465
10890TIP3    H154085   5.706   4.321  14.032 -0.2283 -0.6902 -0.3941
10890TIP3    H254086   5.641   4.284  13.900 -1.0787 -0.7900  0.0492
10891TIP3   OH254087   4.675   3.090   1.321 -0.5774 -0.2823 -0.3762
10891TIP3    H154088   4.666   3.103   1.416 -0.4012  0.1290 -0.4134
10891TIP3    H254089   4.615   3.018   1.301  1.2065 -2.0681  0.4382
10892TIP3   OH254090   2.305   4.842  12.470 -0.0146  0.3748  0.4009
10892TIP3    H154091   2.308   4.843  12.565 -0.0611  1.1282  0.3949
10892TIP3    H254092   2.319   4.750  12.447  1.4387  0.3887  1.0908
10893TIP3   OH254093   4.562   1.157  14.175  0.6340  0.3576 -0.2396
10893TIP3    H154094   4.587   1.155  14.082 -0.6099  0.5276 -0.5956
10893TIP3    H254095   4.500   1.084  14.184  1.8420 -0.5794  0.8047
10894TIP3   OH254096   5.649   6.083  14.801  0.3226  0.2498 -0.1694
10894TIP3    H154097   5.584   6.013  14.797  0.5525 -0.0403  0.7880
10894TIP3    H254098   5.673   6.100  14.710  0.0944 -0.7538 -0.4220
10895TIP3   OH254099   5.960   3.052   0.821 -0.1012 -0.2003 -0.5619
10895TIP3    H154100   5.979   3.102   0.741 -1.6120 -1.3782 -1.7136
10895TIP3    H254101   6.011   3.096   0.889  0.5384  1.3852 -1.9887
10896TIP3   OH254102   0.335   6.875   3.244 -0.4283  0.3836 -1.3298
10896TIP3    H154103   0.313   6.964   3.215  2.0001  1.6865  0.3755
10896TIP3    H254104   0.351   6.884   3.338 -1.9511 -2.3183 -0.7157
10897TIP3   OH254105   5.805   3.175   0.565  0.0864 -0.3516 -0.0154
10897TIP3    H154106   5.761   3.232   0.628 -0.2902 -1.3734  0.6656
10897TIP3    H254107   5.733   3.130   0.519  0.3366  0.6504 -1.4615
10898TIP3   OH254108   5.761   3.163   3.805 -0.6584 -0.0705 -0.5285
10898TIP3    H154109   5.746   3.246   3.759  1.0967 -0.0907 -1.2358
10898TIP3    H254110   5.674   3.124   3.813 -1.4418  1.5155 -0.7822
10899TIP3   OH254111   2.388   3.530  10.269 -0.2861  0.5020  0.5506
10899TIP3    H154112   2.310   3.516  10.322 -0.3118  0.1484  0.4226
10899TIP3    H254113   2.372   3.479  10.189  1.0891 -1.5785  1.5107
10900TIP3   OH254114   5.315   2.566   1.371 -0.0170 -0.0954  0.1874
10900TIP3    H154115   5.243   2.503   1.370  0.8600 -1.1618 -1.6716
10900TIP3    H254116   5.394   2.512   1.365  0.9571  1.0572  1.7862
10901TIP3   OH254117   5.419   2.850   3.869 -0.0559 -0.4358 -0.6579
10901TIP3    H154118   5.507   2.869   3.838 -0.2843 -0.9284 -1.6514
10901TIP3    H254119   5.370   2.931   3.855  0.0199 -0.4394 -0.9449
10902TIP3   OH254120   4.110   1.410  14.686  0.4827  0.3518  0.4931
10902TIP3    H154121   4.024   1.432  14.650  1.1989  0.2015 -1.4269
10902TIP3    H254122   4.109   1.446  14.775 -0.9042  1.8914 -0.1072
10903TIP3   OH254123   6.311   6.724  14.223  0.2885  0.1046 -0.2001
10903TIP3    H154124   6.339   6.644  14.267  0.3011 -0.4795 -1.2447
10903TIP3    H254125   6.220   6.736  14.250  0.6571  0.4525  0.9579
10904TIP3   OH254126   3.883   6.574  11.679 -0.2625  0.4535  0.3132
10904TIP3    H154127   3.915   6.661  11.703 -0.9595  0.5989  0.7413
10904TIP3    H254128   3.819   6.552  11.747 -0.4456 -0.1901 -0.0559
10905TIP3   OH254129   4.797   4.485  13.514 -0.4428  0.2492 -0.3307
10905TIP3    H154130   4.728   4.523  13.568 -1.2665 -0.7592 -0.6513
10905TIP3    H254131   4.854   4.440  13.576  1.6322  3.4531  0.3080
10906TIP3   OH254132   6.603   6.353   5.428  0.1120 -0.1198 -0.2763
10906TIP3    H154133   6.528   6.395   5.386 -1.0506 -0.8529  1.0152
10906TIP3    H254134   6.569   6.273   5.466  1.9201 -1.3494 -1.0986
10907TIP3   OH254135   2.142   4.257  11.247  0.3380  0.5980 -0.1764
10907TIP3    H154136   2.190   4.239  11.327  1.9158  1.8481 -0.8033
10907TIP3    H254137   2.169   4.345  11.221 -1.2933  0.8276 -1.2882
10908TIP3   OH254138   3.447   4.974   1.362  0.1170  0.2463 -0.1673
10908TIP3    H154139   3.418   4.923   1.438  2.4521 -0.0034  0.6384
10908TIP3    H254140   3.515   5.031   1.396  0.6970  0.6655 -1.9514
10909TIP3   OH254141   6.382   6.630  13.976  0.8848  0.4536  0.1692
10909TIP3    H154142   6.323   6.609  13.904  0.6199 -2.7320  1.1893
10909TIP3    H254143   6.329   6.683  14.035 -0.0340  0.0468 -0.2672
10910TIP3   OH254144   5.293   4.153  13.015  0.4800 -0.3864  0.2934
10910TIP3    H154145   5.285   4.059  12.996  0.2957 -0.4026  0.4517
10910TIP3    H254146   5.214   4.174  13.064 -0.7118  0.3692 -1.8113
10911TIP3   OH254147   0.064   1.538  13.498 -0.1889  0.6655  0.4437
10911TIP3    H154148   0.003   1.593  13.448  1.1259  0.8664 -1.0215
10911TIP3    H254149   0.093   1.472  13.436  0.1046 -0.2151  1.4946
10912TIP3   OH254150   4.142   6.672   1.024  0.3013  0.5316  0.4448
10912TIP3    H154151   4.053   6.708   1.029 -0.2316 -0.8532  1.7224
10912TIP3    H254152   4.181   6.715   0.948 -0.8145  2.5848  0.9573
10913TIP3   OH254153   6.117   4.482  10.360  0.5213 -0.5978  0.5221
10913TIP3    H154154   6.098   4.454  10.449  1.2834 -0.4334  0.7508
10913TIP3    H254155   6.181   4.554  10.371  1.2223 -1.0983 -0.1731
10914TIP3   OH254156   0.619   6.659  10.555  0.1748  0.3266 -0.1696
10914TIP3    H154157   0.677   6.595  10.512  0.3638  0.4330 -0.0725
10914TIP3    H254158   0.567   6.607  10.616  0.8922  0.3762  0.5023
10915TIP3   OH254159   1.993   0.116  11.522 -0.0965 -0.3392  0.0554
10915TIP3    H154160   1.947   0.086  11.600  1.4783 -0.9404  0.7911
10915TIP3    H254161   2.058   0.178  11.554  0.3970 -0.3929 -0.7987
10916TIP3   OH254162   2.597   1.179   1.736  0.9836  0.9736  0.1392
10916TIP3    H154163   2.639   1.264   1.742  0.1261  1.3340  1.3362
10916TIP3    H254164   2.506   1.199   1.715  0.8405  0.3345  0.1301
10917TIP3   OH254165   6.188   4.583  14.364  0.5018  0.3418  0.2239
10917TIP3    H154166   6.184   4.531  14.283  1.1376  0.1708  0.3017
10917TIP3    H254167   6.121   4.544  14.420 -0.2049  0.6962 -0.3489
10918TIP3   OH254168   2.087   5.666  14.273  0.1022  0.0090 -0.0133
10918TIP3    H154169   2.002   5.622  14.281 -0.1493  0.6346  0.9828
10918TIP3    H254170   2.152   5.596  14.282 -0.2745 -0.1204  2.4380
10919TIP3   OH254171   6.075   4.370   3.261  0.1050  0.0283 -0.3033
10919TIP3    H154172   6.149   4.356   3.321  0.8450  0.4126 -1.1105
10919TIP3    H254173   5.997   4.362   3.317  0.7158 -1.2575  0.3917
10920TIP3   OH254174   0.909   7.142   1.482 -0.1753  0.0936  0.1645
10920TIP3    H154175   0.849   7.149   1.408  0.8911 -1.4435 -0.8838
10920TIP3    H254176   0.949   7.229   1.488 -0.6469  0.3841 -0.7244
10921TIP3   OH254177   4.928   3.628  13.792 -0.0871 -0.5170  0.2705
10921TIP3    H154178   4.913   3.589  13.878  2.0696 -1.0282  0.4791
10921TIP3    H254179   4.908   3.559  13.729 -1.6763 -0.1397  0.3218
10922TIP3   OH254180   2.093   2.577  10.758  0.9664  0.1997 -0.1324
10922TIP3    H154181   2.047   2.653  10.722  1.7243 -0.2426 -2.1515
10922TIP3    H254182   2.141   2.540  10.684  4.4575  0.4891  1.7875
10923TIP3   OH254183   6.096   4.825  12.344  0.0480 -0.2403 -0.2567
10923TIP3    H154184   6.157   4.889  12.380  0.4713 -0.2899 -0.8593
10923TIP3    H254185   6.121   4.819  12.251  1.0089 -2.3723  0.0843
10924TIP3   OH254186   5.083   1.111   0.913  0.6046 -0.1856  0.5114
10924TIP3    H154187   5.071   1.147   0.826 -1.7014 -0.4125  0.6742
10924TIP3    H254188   5.093   1.017   0.899 -1.1611 -0.4038  0.5332
10925TIP3   OH254189   1.985   3.120   0.337  0.4405  0.1219  0.5680
10925TIP3    H154190   1.934   3.079   0.407 -0.3799 -1.6435 -0.9804
10925TIP3    H254191   2.074   3.087   0.349  0.3566  0.0292  0.9362
10926TIP3   OH254192   2.127   5.275   1.249 -0.4418 -0.2028 -0.2905
10926TIP3    H154193   2.186   5.213   1.292 -0.2738 -1.4235 -2.1843
10926TIP3    H254194   2.039   5.249   1.278 -0.2592 -0.2905  0.1845
10927TIP3   OH254195   1.005   6.250   3.162 -0.1993 -0.2734 -0.3495
10927TIP3    H154196   0.942   6.180   3.145 -0.7555 -0.1287  0.9599
10927TIP3    H254197   0.998   6.265   3.256 -0.5075  1.9381 -0.6881
10928TIP3   OH254198   6.491   2.408   1.106 -0.4087  0.6349 -0.7660
10928TIP3    H154199   6.520   2.322   1.076  1.1414  1.3663 -1.4788
10928TIP3    H254200   6.453   2.392   1.193  0.2834 -0.6945 -0.6898
10929TIP3   OH254201   2.040   2.293   4.604  0.0318 -0.3607 -0.7702
10929TIP3    H154202   1.975   2.235   4.644  1.4889 -1.4668  0.1093
10929TIP3    H254203   1.996   2.328   4.526 -1.0160 -2.4256 -1.1734
10930TIP3   OH254204   6.526   0.072   3.161  0.7500  0.3321  0.2574
10930TIP3    H154205   6.584   0.141   3.193  0.4199  0.4992  0.5081
10930TIP3    H254206   6.439   0.100   3.190  0.1134  1.5232 -2.4596
10931TIP3   OH254207   1.992   6.359   5.396 -0.0031 -0.4624 -0.1409
10931TIP3    H154208   2.028   6.277   5.363 -0.4410 -0.9230  0.5236
10931TIP3    H254209   2.066   6.403   5.437 -0.1973 -1.4741  1.3600
10932TIP3   OH254210   5.738   0.616   0.086  0.4061 -0.7419  0.2242
10932TIP3    H154211   5.786   0.644   0.164  2.2610  0.6296 -1.3149
10932TIP3    H254212   5.723   0.522   0.100  0.7888 -0.5605  2.1395
10933TIP3   OH254213   0.279   1.970  14.596 -0.0951  0.2378 -0.5249
10933TIP3    H154214   0.239   1.974  14.683  1.3259  0.5752  0.1533
10933TIP3    H254215   0.262   2.055  14.557 -2.1203 -0.4541 -1.2591
10934TIP3   OH254216   1.484   0.755   3.124  0.2091 -0.3347  0.2530
10934TIP3    H154217   1.464   0.724   3.036 -1.4997  1.3038 -0.0023
10934TIP3    H254218   1.405   0.737   3.174 -1.1256  3.7518 -0.0312
10935TIP3   OH254219   0.777   1.468   0.196  0.6106  0.0287 -0.2596
10935TIP3    H154220   0.685   1.458   0.221  0.1438  2.1664 -0.8899
10935TIP3    H254221   0.824   1.472   0.280 -0.2234  1.4467  0.1734
10936TIP3   OH254222   0.413   6.909  13.149 -0.5532 -0.9531  0.7213
10936TIP3    H154223   0.426   6.906  13.054 -3.1516  0.3150  0.2314
10936TIP3    H254224   0.485   6.963  13.181  0.7702 -1.9671 -0.3833
10937TIP3   OH254225   1.571   3.848  11.820 -0.1444 -0.1379 -0.3948
10937TIP3    H154226   1.586   3.941  11.804  0.4358 -0.4273 -1.6542
10937TIP3    H254227   1.505   3.846  11.890  1.4814  1.1938  1.2827
10938TIP3   OH254228   6.007   5.479  12.179 -0.5468  0.1624  0.2216
10938TIP3    H154229   5.948   5.445  12.112 -0.5029 -1.4479  0.9334
10938TIP3    H254230   5.949   5.506  12.250 -0.4822 -1.4363  0.9282
10939TIP3   OH254231   2.192   4.082   0.729 -0.1093  1.0797  0.6696
10939TIP3    H154232   2.179   4.172   0.701 -0.3366  0.9228  0.2516
10939TIP3    H254233   2.268   4.052   0.680 -1.3292  0.3650 -0.9107
10940TIP3   OH254234   6.808   5.850  14.146 -0.9953 -0.5639  0.2414
10940TIP3    H154235   6.808   5.945  14.142 -2.6027 -0.5502 -0.1896
10940TIP3    H254236   6.887   5.823  14.098  1.1125  0.5612  2.8644
10941TIP3   OH254237   2.576   2.714   3.416  0.2785 -0.2696 -0.0961
10941TIP3    H154238   2.569   2.648   3.347  0.2248  0.4716 -0.8205
10941TIP3    H254239   2.494   2.763   3.411  0.5901  0.2668 -0.0091
10942TIP3   OH254240   4.994   1.247   2.945 -0.4480 -0.7991  0.0606
10942TIP3    H154241   4.964   1.336   2.963  1.2110 -0.4448  1.2857
10942TIP3    H254242   5.006   1.245   2.850  2.1163  1.2494  0.2204
10943TIP3   OH254243   1.082   0.982   4.342 -0.0346 -0.1476 -0.1845
10943TIP3    H154244   1.016   0.922   4.376 -1.0407  0.6578 -0.6325
10943TIP3    H254245   1.044   1.069   4.355  1.0374  0.3497 -0.2697
10944TIP3   OH254246   6.614   4.501  13.836 -0.4141 -0.3799  0.6618
10944TIP3    H154247   6.685   4.540  13.785 -0.0611 -0.2400  1.2559
10944TIP3    H254248   6.545   4.485  13.772  0.0669 -0.3074  0.1197
10945TIP3   OH254249   1.777   2.261  13.948  0.6288  0.2683 -0.1785
10945TIP3    H154250   1.700   2.263  14.006 -2.6012 -0.8969 -4.0113
10945TIP3    H254251   1.813   2.173  13.960 -0.3739 -0.1801 -0.3285
10946TIP3   OH254252   1.349   6.503   5.251 -0.7310 -0.3966  0.0519
10946TIP3    H154253   1.417   6.467   5.308 -1.0079 -1.2814 -0.1633
10946TIP3    H254254   1.269   6.501   5.304 -0.6997  0.1465  0.1246
10947TIP3   OH254255   3.316   3.859  10.924  0.5645 -0.1279  0.2446
10947TIP3    H154256   3.373   3.784  10.941  1.1807  0.2719 -0.0012
10947TIP3    H254257   3.356   3.931  10.974  0.8758  0.4087 -0.7558
10948TIP3   OH254258   4.910   5.277   4.674 -0.5326 -0.1471 -0.2359
10948TIP3    H154259   4.815   5.287   4.669 -0.5136  0.1291 -0.0913
10948TIP3    H254260   4.940   5.286   4.583 -0.6447 -0.2505 -0.2839
10949TIP3   OH254261   1.996   1.878   1.571  0.0904  0.6271 -0.1789
10949TIP3    H154262   2.041   1.794   1.561  3.3938  1.9663  1.8509
10949TIP3    H254263   2.016   1.926   1.491  0.0194  0.2889 -0.4036
10950TIP3   OH254264   6.695   4.965   3.573 -0.0079 -0.2903  0.5854
10950TIP3    H154265   6.681   4.873   3.549  0.9706 -0.4797  0.7235
10950TIP3    H254266   6.761   4.996   3.511  0.8940 -0.1530  1.5955
10951TIP3   OH254267   4.671   4.666  14.752  0.1132  0.0060 -0.2394
10951TIP3    H154268   4.667   4.627  14.840  0.7976  3.0231  1.2915
10951TIP3    H254269   4.591   4.719  14.746  0.2392  0.0898 -1.3219
10952TIP3   OH254270   4.879   0.105  13.926 -0.4617  0.1738 -0.1206
10952TIP3    H154271   4.922   0.025  13.894 -0.1076 -0.0825  0.9440
10952TIP3    H254272   4.951   0.165  13.943 -0.5138 -0.1476  1.3745
10953TIP3   OH254273   7.028   0.151   4.536  0.1438  0.0261  0.3230
10953TIP3    H154274   7.070   0.127   4.454 -1.4134 -1.8762  0.0107
10953TIP3    H254275   7.057   0.241   4.552  1.5708 -0.0285 -1.5747
10954TIP3   OH254276   1.041   3.372   4.101  0.9531 -0.3457 -0.1855
10954TIP3    H154277   1.110   3.430   4.132  1.9174 -1.0404 -0.9865
10954TIP3    H254278   1.029   3.397   4.009  0.1608 -0.2747 -0.0756
10955TIP3   OH254279   5.927   5.276  10.757  0.2708 -0.1394 -0.3471
10955TIP3    H154280   5.991   5.340  10.727  1.4225 -0.1149  1.9273
10955TIP3    H254281   5.920   5.213  10.685 -1.1726  2.5826 -2.8275
10956TIP3   OH254282   2.474   5.341  14.625  0.3519  0.3981  0.5471
10956TIP3    H154283   2.412   5.275  14.656 -0.7274  0.9560 -0.3672
10956TIP3    H254284   2.524   5.366  14.703  1.0635 -1.7404  0.8627
10957TIP3   OH254285   2.058   4.096   0.432 -0.3324 -0.3235  0.0464
10957TIP3    H154286   2.121   4.033   0.466  0.5691 -0.3887 -1.6762
10957TIP3    H254287   2.099   4.181   0.446 -0.7801 -0.2137  0.7664
10958TIP3   OH254288   3.384   3.265   3.960  0.4028 -0.5093 -0.4954
10958TIP3    H154289   3.369   3.360   3.960 -0.3556 -0.6192  0.1083
10958TIP3    H254290   3.470   3.255   4.001  1.9471  0.0867 -3.3320
10959TIP3   OH254291   1.761   3.212   1.571 -0.3678 -0.5412  0.0551
10959TIP3    H154292   1.766   3.116   1.579 -2.2460 -0.5743  1.4403
10959TIP3    H254293   1.829   3.234   1.507  1.3765 -2.6005  1.0489
10960TIP3   OH254294   1.852   1.319  13.102 -0.5973  0.2037 -0.2113
10960TIP3    H154295   1.845   1.230  13.068 -2.2080  0.4881 -0.7200
10960TIP3    H254296   1.774   1.331  13.156  0.3217  0.8500  1.0200
10961TIP3   OH254297   0.831   2.516   0.541  0.6349  0.1464 -0.3511
10961TIP3    H154298   0.851   2.590   0.484  0.8635 -0.9039 -1.6869
10961TIP3    H254299   0.908   2.459   0.536  1.9859  1.3695  3.3910
10962TIP3   OH254300   4.763   1.029   5.069 -0.7537  0.5427  0.3163
10962TIP3    H154301   4.716   0.979   5.136  0.5267  1.1799  1.7425
10962TIP3    H254302   4.793   0.963   5.007 -1.6035 -0.1161  0.5900
10963TIP3   OH254303   0.115   4.872   0.174 -0.6970  0.3556  0.1465
10963TIP3    H154304   0.172   4.942   0.144 -0.1669  0.5307  1.4847
10963TIP3    H254305   0.031   4.890   0.132 -1.4818  3.5764  2.6301
10964TIP3   OH254306   2.510   5.053   3.822  0.2132 -0.0097 -0.1800
10964TIP3    H154307   2.494   5.145   3.840 -1.5249 -0.8212  3.2834
10964TIP3    H254308   2.551   5.019   3.901 -2.3441 -2.8270  0.1216
10965TIP3   OH254309   2.754   1.060  10.961  0.5337 -0.2000 -0.1168
10965TIP3    H154310   2.746   1.152  10.987  1.5954 -0.5289  1.5221
10965TIP3    H254311   2.665   1.035  10.936  0.7346  2.1237 -3.9349
10966TIP3   OH254312   0.492   0.696   2.854 -0.7370  0.2167 -0.3656
10966TIP3    H154313   0.473   0.747   2.932 -1.1283  0.0459 -0.3459
10966TIP3    H254314   0.497   0.761   2.783  0.4820  0.4717 -0.0674
10967TIP3   OH254315   4.856   6.710  12.107 -0.7573  0.0476  0.1626
10967TIP3    H154316   4.896   6.781  12.057  0.5464 -1.1947 -0.6297
10967TIP3    H254317   4.900   6.712  12.192 -0.4418 -0.0489  0.0026
10968TIP3   OH254318   1.105   0.805  13.830  0.3651  0.4726  0.2046
10968TIP3    H154319   1.113   0.868  13.901 -1.6070 -1.1299  1.9837
10968TIP3    H254320   1.157   0.730  13.858 -0.4159 -0.1697 -0.0311
10969TIP3   OH254321   2.889   5.395   2.721 -0.3990  0.4591 -0.2452
10969TIP3    H154322   2.921   5.401   2.631  2.3252  0.3378  0.6317
10969TIP3    H254323   2.903   5.482   2.758  1.2909 -0.2311  0.8615
10970TIP3   OH254324   6.837   2.935   4.510  0.4368  0.2548 -0.2478
10970TIP3    H154325   6.754   2.925   4.463  0.0474  1.5083  0.1138
10970TIP3    H254326   6.830   2.876   4.584 -0.0175  0.1381 -0.3785
10971TIP3   OH254327   3.418   6.902  12.490  0.0516  0.5451 -0.6099
10971TIP3    H154328   3.332   6.916  12.450  0.6592  1.8913 -1.5163
10971TIP3    H254329   3.405   6.924  12.582 -0.3835  1.5818 -0.9049
10972TIP3   OH254330   3.685   4.543   4.533 -0.0730  0.4115  0.3481
10972TIP3    H154331   3.643   4.458   4.524 -0.4595  0.5344  0.9033
10972TIP3    H254332   3.711   4.547   4.625  2.1737 -0.1170 -0.1893
10973TIP3   OH254333   1.795   0.182  13.726  0.2439 -0.3470 -0.2646
10973TIP3    H154334   1.881   0.160  13.692  0.4706  1.4260 -0.8898
10973TIP3    H254335   1.744   0.210  13.650  0.1176  1.6635  0.5092
10974TIP3   OH254336   1.696   1.861  13.670  0.2854  0.2216 -0.1902
10974TIP3    H154337   1.641   1.876  13.593  0.2788  1.6077  0.0629
10974TIP3    H254338   1.664   1.923  13.735  1.3743  0.2390  0.3533
10975TIP3   OH254339   6.466   5.618   0.601 -0.1025 -0.3375  0.1001
10975TIP3    H154340   6.438   5.705   0.574 -0.3524  0.7434  3.3542
10975TIP3    H254341   6.540   5.634   0.660 -0.0878 -2.3265  0.7051
10976TIP3   OH254342   6.054   1.364   3.383 -0.4616 -0.3055 -0.3135
10976TIP3    H154343   5.968   1.374   3.423 -0.4973  2.6575 -0.8708
10976TIP3    H254344   6.109   1.327   3.452 -1.5144  0.5629  1.0484
10977TIP3   OH254345   0.900   6.310   1.426  0.0826  0.5904 -0.2205
10977TIP3    H154346   0.883   6.403   1.409 -0.3252  0.8646  1.4865
10977TIP3    H254347   0.984   6.293   1.383 -1.2879  0.8850 -3.2627
10978TIP3   OH254348   0.048   3.879   2.358 -0.4905  0.4944 -0.0900
10978TIP3    H154349   0.046   3.909   2.449  2.1997 -0.7815  0.5105
10978TIP3    H254350   0.140   3.886   2.333 -0.7473 -1.5207 -1.8735
10979TIP3   OH254351   3.348   7.105   0.148  0.1130  0.1097  0.7252
10979TIP3    H154352   3.408   7.168   0.187 -0.2375  0.8276  0.1301
10979TIP3    H254353   3.405   7.047   0.097  0.3621  0.4098  0.6572
10980TIP3   OH254354   3.951   2.347   4.919  0.3030  0.0133  0.4397
10980TIP3    H154355   3.963   2.330   5.012 -0.1881 -0.5806  0.4013
10980TIP3    H254356   3.857   2.341   4.905  0.3085  0.6927  0.0107
10981TIP3   OH254357   0.943   4.547  11.574  0.2884 -0.0095 -0.3073
10981TIP3    H154358   0.947   4.624  11.631  1.9751 -0.7299  0.6076
10981TIP3    H254359   0.849   4.529  11.565 -0.0488  0.5146  1.7172
10982TIP3   OH254360   1.578   5.186   0.232 -0.0609  0.0253 -0.3295
10982TIP3    H154361   1.537   5.267   0.261  0.5695 -0.2936  1.5518
10982TIP3    H254362   1.664   5.213   0.199  0.0576  0.1543  0.0827
10983TIP3   OH254363   6.573   6.104  13.168 -0.5733 -0.5547 -0.1444
10983TIP3    H154364   6.518   6.080  13.243  3.0042 -0.1251  2.9361
10983TIP3    H254365   6.639   6.034  13.164 -0.3460 -0.2782 -2.6417
10984TIP3   OH254366   0.970   1.049   1.527 -0.1587  0.2917  0.3060
10984TIP3    H154367   0.939   0.960   1.543  1.8876 -0.6202 -0.3826
10984TIP3    H254368   0.891   1.100   1.508 -1.2322 -1.9728 -1.8923
10985TIP3   OH254369   5.690   5.211   0.046  0.2792  0.7319 -0.3958
10985TIP3    H154370   5.733   5.290   0.078 -0.1339  1.4811 -1.6092
10985TIP3    H254371   5.718   5.203  -0.045  1.3782 -1.3047  0.0684
10986TIP3   OH254372   2.745   2.658   0.023 -0.2814  0.3322  0.0415
10986TIP3    H154373   2.684   2.693  -0.041  0.2595  2.6170  0.6654
10986TIP3    H254374   2.798   2.734   0.050  1.8659 -1.2471  0.5714
10987TIP3   OH254375   5.233   4.214  14.331  0.3245  0.1654 -1.1399
10987TIP3    H154376   5.139   4.205  14.315  0.3443 -0.4974 -0.9455
10987TIP3    H254377   5.240   4.275  14.405 -0.1905 -2.6407  1.4361
10988TIP3   OH254378   3.015   4.185  14.193 -0.1659 -0.3325  0.0215
10988TIP3    H154379   3.040   4.118  14.257  0.1647 -0.6311 -0.4156
10988TIP3    H254380   3.074   4.171  14.119 -1.3662 -0.8273 -0.8931
10989TIP3   OH254381   4.575   6.466   1.722  0.3213  0.3282 -0.0966
10989TIP3    H154382   4.511   6.490   1.656  1.8648  0.3010 -1.6645
10989TIP3    H254383   4.566   6.533   1.790 -1.2547  0.3755 -0.3237
10990TIP3   OH254384   6.438   5.297   4.951 -0.2415  0.0492  0.2526
10990TIP3    H154385   6.510   5.256   4.999  0.2470 -0.1944 -0.6803
10990TIP3    H254386   6.416   5.234   4.883 -1.9546 -0.2941  1.0617
10991TIP3   OH254387   0.228   0.375   4.595  0.0878  0.0991  1.0266
10991TIP3    H154388   0.277   0.298   4.624 -1.2763 -1.2317 -0.0276
10991TIP3    H254389   0.295   0.441   4.576  1.3609 -1.1183  1.1223
10992TIP3   OH254390   4.243   0.721  10.215  0.2454  0.2369  0.5998
10992TIP3    H154391   4.325   0.708  10.262  0.5453  0.1381  0.0526
10992TIP3    H254392   4.245   0.812  10.187  1.3235 -0.3750 -1.5449
10993TIP3   OH254393   0.355   5.088   9.458 -0.4090 -0.0185 -0.1381
10993TIP3    H154394   0.376   4.997   9.437  1.3810  0.0673  1.1331
10993TIP3    H254395   0.438   5.127   9.484 -1.1093  2.0443 -0.7837
10994TIP3   OH254396   2.152   6.157   3.669  0.7457 -0.0412 -0.4416
10994TIP3    H154397   2.107   6.194   3.593  0.6465  0.0182 -0.3533
10994TIP3    H254398   2.243   6.185   3.658  0.3461  1.8621  0.5995
10995TIP3   OH254399   2.974   1.059   4.388 -0.1577 -0.0226 -0.1321
10995TIP3    H154400   2.901   1.000   4.367 -0.8529  0.7947 -0.0459
10995TIP3    H254401   2.964   1.077   4.482  0.0550  0.2284 -0.1563
10996TIP3   OH254402   2.585   4.210   1.085  0.0665  0.2518 -0.4424
10996TIP3    H154403   2.497   4.209   1.048 -0.4463  1.1304  0.7248
10996TIP3    H254404   2.574   4.237   1.176  1.3468 -1.4009  0.2666
10997TIP3   OH254405   3.386   2.679   1.500  0.0457 -0.8404 -0.5461
10997TIP3    H154406   3.362   2.630   1.421  0.6801 -1.6830 -0.2218
10997TIP3    H254407   3.474   2.712   1.482 -0.9166  1.4764 -1.3597
10998TIP3   OH254408   5.443   3.454  12.934 -0.4718 -0.4158 -0.4238
10998TIP3    H154409   5.459   3.491  12.848  1.7119  1.6690  0.7534
10998TIP3    H254410   5.376   3.511  12.972 -0.1118 -0.1792 -0.1261
10999TIP3   OH254411   5.709   6.433  12.874  0.2885 -0.0754  0.4755
10999TIP3    H154412   5.640   6.443  12.939  1.3512  0.4986  1.5538
10999TIP3    H254413   5.780   6.490  12.905  0.4055  1.1589 -1.7923
11000TIP3   OH254414   3.387   0.529   2.165 -0.1867  0.0445 -0.4157
11000TIP3    H154415   3.393   0.510   2.072 -2.0875 -0.5788 -0.4478
11000TIP3    H254416   3.478   0.532   2.195  0.4119 -1.8080 -1.8855
11001TIP3   OH254417   5.086   6.023  11.779  0.3203  1.0203 -0.0636
11001TIP3    H154418   5.121   5.944  11.822 -0.3699  0.5911 -0.2706
11001TIP3    H254419   5.071   5.995  11.689 -0.8356  1.0971  0.0897
11002TIP3   OH254420   6.985   0.006  12.205 -0.1094 -0.4259 -0.1043
11002TIP3    H154421   7.015   0.027  12.116 -0.4743 -0.1467 -0.1643
11002TIP3    H254422   6.896   0.042  12.209 -0.4740 -1.3294  0.0342
11003TIP3   OH254423   5.396   6.885   1.585  0.4437 -0.0399 -0.0998
11003TIP3    H154424   5.335   6.834   1.639  1.6207 -1.4927 -0.0627
11003TIP3    H254425   5.465   6.823   1.563  1.2150  1.1884 -1.2866
11004TIP3   OH254426   5.427   4.190   3.671  0.1006 -0.4188  0.0160
11004TIP3    H154427   5.336   4.162   3.659 -0.8494  1.1335  2.8518
11004TIP3    H254428   5.459   4.137   3.744  1.1298 -0.1532 -0.2283
11005TIP3   OH254429   4.539   6.157  14.946 -0.1167  0.2742 -0.4480
11005TIP3    H154430   4.608   6.091  14.953  0.3762  0.8317  0.1125
11005TIP3    H254431   4.551   6.196  14.859 -0.1685 -0.1119 -0.6277
11006TIP3   OH254432   1.301   4.921  13.587  0.3866  0.0485  0.2784
11006TIP3    H154433   1.363   4.987  13.557 -1.4399  1.5463 -0.4056
11006TIP3    H254434   1.266   4.883  13.506 -1.3574  1.0086  0.5259
11007TIP3   OH254435   0.978   6.249  15.279  0.0981  0.1963 -0.0444
11007TIP3    H154436   1.027   6.290  15.350  0.6645 -1.6648  0.6828
11007TIP3    H254437   0.927   6.180  15.321 -2.3764  1.3487 -0.9345
11008TIP3   OH254438   4.450   0.610   4.254 -0.0605  0.6237  0.3170
11008TIP3    H154439   4.545   0.613   4.267  0.0753 -0.5364 -0.2612
11008TIP3    H254440   4.416   0.681   4.308  1.2363  1.8921 -0.4530
11009TIP3   OH254441   3.681   0.201  13.345  0.1599 -0.0422 -0.6119
11009TIP3    H154442   3.604   0.181  13.292  0.3778  0.5902 -1.1833
11009TIP3    H254443   3.657   0.279  13.394 -0.3280 -1.0604  0.8607
11010TIP3   OH254444   3.369   1.742  14.966 -0.4854  0.1156 -0.0292
11010TIP3    H154445   3.296   1.687  14.996  0.0540 -1.2817 -1.1413
11010TIP3    H254446   3.444   1.683  14.966  0.6647  1.5207  1.0386
11011TIP3   OH254447   6.936   5.261  14.047  0.3866 -0.0702  0.3295
11011TIP3    H154448   6.881   5.193  14.009  0.1743  0.9380 -1.2503
11011TIP3    H254449   6.992   5.214  14.109  0.6373 -1.7886 -1.1058
11012TIP3   OH254450   3.325   3.394   4.311 -0.3437  0.9007  0.2688
11012TIP3    H154451   3.395   3.434   4.260  0.4201  2.1435  2.1780
11012TIP3    H254452   3.369   3.359   4.389 -1.4860 -0.7293  0.2427
11013TIP3   OH254453   2.279   2.214   2.733  1.1640  0.1646 -0.0707
11013TIP3    H154454   2.238   2.278   2.675 -0.2290 -1.4612 -0.9601
11013TIP3    H254455   2.372   2.216   2.708  1.6668  3.3495  1.4573
11014TIP3   OH254456   3.624   3.877  13.515  0.3253 -0.6685  0.3801
11014TIP3    H154457   3.601   3.826  13.437 -0.6226 -0.8404  0.7603
11014TIP3    H254458   3.596   3.966  13.494  1.2106 -0.4566  0.0476
11015TIP3   OH254459   1.263   0.153  15.063 -0.2353  0.3656 -0.4806
11015TIP3    H154460   1.307   0.186  15.142  0.9521 -0.3028 -0.8356
11015TIP3    H254461   1.205   0.084  15.096  0.1522  0.1826 -0.1661
11016TIP3   OH254462   1.594   4.980   0.403 -0.1505 -0.8348 -0.3576
11016TIP3    H154463   1.568   5.047   0.340  2.2592  2.4774  1.8295
11016TIP3    H254464   1.680   4.950   0.372  0.6714  0.2151  0.8039
11017TIP3   OH254465   2.829   0.756   4.158 -0.2054 -0.0319  0.0406
11017TIP3    H154466   2.900   0.773   4.096 -1.5875  0.7424 -1.4054
11017TIP3    H254467   2.854   0.674   4.200  1.6747  0.3524 -0.2049
11018TIP3   OH254468   5.570   5.296   9.507  0.1301 -0.6993 -0.1262
11018TIP3    H154469   5.614   5.370   9.549  1.9151  0.2178 -3.2664
11018TIP3    H254470   5.496   5.335   9.461  0.3404 -1.0682 -0.7839
11019TIP3   OH254471   1.269   5.799   3.262  0.0342 -0.1002  0.1974
11019TIP3    H154472   1.270   5.873   3.202 -2.3533  0.6546  0.9573
11019TIP3    H254473   1.345   5.747   3.238  0.1392  1.0733 -2.2921
11020TIP3   OH254474   5.269   0.590   4.226  0.3887  0.0707 -0.1547
11020TIP3    H154475   5.337   0.563   4.287 -1.4214 -2.1109  1.0480
11020TIP3    H254476   5.311   0.656   4.171  3.6918 -1.7466 -0.0569
11021TIP3   OH254477   6.831   4.287  14.565 -0.4179  0.1550  0.3075
11021TIP3    H154478   6.789   4.372  14.565  0.0306  0.3830  0.5206
11021TIP3    H254479   6.789   4.238  14.494 -1.4231  0.1729  0.8788
11022TIP3   OH254480   1.937   1.044  14.518  0.1228  0.6388  0.0605
11022TIP3    H154481   1.899   1.091  14.444  0.0531  0.6625  0.1104
11022TIP3    H254482   1.861   1.013  14.568  0.1275 -1.6675 -1.2772
11023TIP3   OH254483   2.351   5.212   1.024 -0.0627 -0.1785 -0.1647
11023TIP3    H154484   2.442   5.196   1.049  0.2594  0.5198 -0.8657
11023TIP3    H254485   2.312   5.250   1.103  0.3226 -0.2085  0.0455
11024TIP3   OH254486   3.740   5.424   4.777  0.2525  0.2223 -0.6058
11024TIP3    H154487   3.782   5.343   4.807 -0.1748 -0.0609 -0.7632
11024TIP3    H254488   3.698   5.460   4.856  0.5631  0.3665 -0.5053
11025TIP3   OH254489   3.894   6.141   0.688 -0.2463 -0.2468 -0.4231
11025TIP3    H154490   3.802   6.117   0.677 -0.2635 -0.2164 -0.3433
11025TIP3    H254491   3.892   6.219   0.743 -0.0953 -1.0891  0.8088
11026TIP3   OH254492   5.723   3.373   3.614 -0.2290 -0.5241  0.0642
11026TIP3    H154493   5.724   3.453   3.563  1.2202 -0.8466 -0.4501
11026TIP3    H254494   5.633   3.342   3.608 -0.8362  1.0966  0.3543
11027TIP3   OH254495   0.652   3.513   4.554 -0.5892  0.1811 -0.2294
11027TIP3    H154496   0.709   3.568   4.608 -0.6188  1.2707 -1.2792
11027TIP3    H254497   0.671   3.539   4.464 -2.2734  0.1018 -0.6357
11028TIP3   OH254498   0.090   0.596   4.302 -0.5737 -0.1210  0.0144
11028TIP3    H154499   0.027   0.631   4.238 -0.2912 -0.8841 -0.7100
11028TIP3    H254500   0.050   0.612   4.387 -1.5353 -0.1749 -0.4157
11029TIP3   OH254501   1.986   0.271   5.637  0.1068 -0.0142  0.0618
11029TIP3    H154502   1.891   0.260   5.633  0.1653 -1.2734  1.4793
11029TIP3    H254503   1.999   0.354   5.684 -0.2727  0.1821 -0.1773
11030TIP3   OH254504   0.071   5.685  14.489 -0.4973 -0.1339  0.2924
11030TIP3    H154505  -0.015   5.723  14.510 -1.6006 -3.2646  2.0269
11030TIP3    H254506   0.120   5.690  14.571  0.3894  0.1249 -0.2404
11031TIP3   OH254507   4.515   2.842   1.649 -0.0584  0.4075  0.1945
11031TIP3    H154508   4.425   2.876   1.643 -0.2630  0.4464  2.5025
11031TIP3    H254509   4.507   2.762   1.700  0.9460 -1.0170 -1.7770
11032TIP3   OH254510   1.994   3.372   3.837  0.1457  0.2904  0.2201
11032TIP3    H154511   2.067   3.407   3.786  0.0049 -0.7376 -0.7315
11032TIP3    H254512   2.028   3.289   3.872 -0.1962  0.3554  0.7194
11033TIP3   OH254513   7.038   6.506   2.295  0.0583 -0.3117  0.0320
11033TIP3    H154514   7.011   6.562   2.368  0.1058  2.3840 -1.8830
11033TIP3    H254515   6.958   6.459   2.270 -0.9601  1.6507 -0.5828
11034TIP3   OH254516   2.567   5.883   4.876 -0.2328  0.0430 -0.5339
11034TIP3    H154517   2.610   5.807   4.836  0.8604  1.4252 -2.1102
11034TIP3    H254518   2.563   5.948   4.806 -1.4421  1.3424  0.6810
11035TIP3   OH254519   2.276   5.707   4.153  0.3638 -0.1648  0.0900
11035TIP3    H154520   2.286   5.752   4.069 -3.0375  1.8793  0.6092
11035TIP3    H254521   2.190   5.664   4.147  0.9552 -1.7529  1.8144
11036TIP3   OH254522   2.365   5.330  11.909  0.1101  0.0721 -0.0283
11036TIP3    H154523   2.445   5.314  11.858 -0.0526  0.5665 -0.4573
11036TIP3    H254524   2.294   5.315  11.846 -0.1702 -0.9668  0.5095
11037TIP3   OH254525   2.845   3.251   4.135  0.0884 -0.4833  0.3217
11037TIP3    H154526   2.766   3.246   4.188 -0.5098  1.1027 -0.3617
11037TIP3    H254527   2.916   3.252   4.200 -0.5884  0.6488  1.1007
11038TIP3   OH254528   6.751   6.955   4.608 -0.2928 -0.0387 -0.5601
11038TIP3    H154529   6.843   6.932   4.595 -0.1217  0.2153  0.1633
11038TIP3    H254530   6.750   7.005   4.690 -1.4020 -2.2418  0.8690
11039TIP3   OH254531   6.207   2.465  11.279  0.4914 -0.3109  0.0679
11039TIP3    H154532   6.151   2.537  11.310  1.0250  0.5537 -0.9071
11039TIP3    H254533   6.291   2.507  11.259  1.2202 -1.4384  0.6665
11040TIP3   OH254534   1.369   2.946   2.147 -0.7929 -0.9234 -0.3525
11040TIP3    H154535   1.386   2.854   2.123 -0.4715 -0.6084 -1.3828
11040TIP3    H254536   1.383   2.949   2.241 -0.2381 -1.8180 -0.3938
11041TIP3   OH254537   2.075   6.232   4.101  0.6804  0.4405  0.6256
11041TIP3    H154538   2.106   6.286   4.028 -0.9514  1.4277  0.6188
11041TIP3    H254539   1.981   6.251   4.107  0.1774 -1.8384  1.1027
11042TIP3   OH254540   6.153   5.097   2.093  0.0942 -0.5796  0.0428
11042TIP3    H154541   6.134   5.013   2.135  0.7614 -0.8894 -0.2604
11042TIP3    H254542   6.084   5.155   2.124  0.0316 -1.0525  0.8236
11043TIP3   OH254543   5.339   0.618   1.848 -0.1483  0.2676 -0.1165
11043TIP3    H154544   5.410   0.626   1.785  1.2631  0.1082  1.3918
11043TIP3    H254545   5.303   0.706   1.856 -0.2418  0.3195 -0.9950
11044TIP3   OH254546   0.648   6.641  14.587 -0.0449 -0.8070  0.1996
11044TIP3    H154547   0.614   6.664  14.674  1.0180  2.8763 -0.1829
11044TIP3    H254548   0.738   6.612  14.604  0.0327 -0.4686  0.3887
11045TIP3   OH254549   2.476   3.744  12.159  0.1940 -0.2190  0.6717
11045TIP3    H154550   2.498   3.747  12.066 -1.8689  0.1907  0.1428
11045TIP3    H254551   2.542   3.688  12.198  0.1537 -1.7749 -1.3339
11046TIP3   OH254552   3.745   2.904  14.212  0.2806  0.0651 -0.2689
11046TIP3    H154553   3.759   2.968  14.282  2.4885 -0.7372  0.0752
11046TIP3    H254554   3.817   2.919  14.151 -0.6442 -0.4131 -1.5142
11047TIP3   OH254555   6.017   0.541   3.150  0.4004 -0.0806  0.4839
11047TIP3    H154556   5.996   0.450   3.170  0.7067 -0.6524 -1.6253
11047TIP3    H254557   5.940   0.590   3.182 -0.3448 -1.2106  0.4849
11048TIP3   OH254558   4.515   4.531  13.606  0.3436  0.1166 -0.4852
11048TIP3    H154559   4.462   4.452  13.600  1.6642 -0.8148 -0.4424
11048TIP3    H254560   4.461   4.594  13.653 -0.8368 -0.6717 -0.7590
11049TIP3   OH254561   1.825   0.995   4.209 -0.2236  0.0132  0.0521
11049TIP3    H154562   1.847   0.969   4.298 -0.3768  0.0911  0.1126
11049TIP3    H254563   1.910   1.015   4.169 -0.2088  0.7504  0.4270
11050TIP3   OH254564   3.152   1.039   1.920 -0.1913  0.2696  0.0347
11050TIP3    H154565   3.191   1.096   1.987 -2.3471  2.2621 -0.3064
11050TIP3    H254566   3.216   1.040   1.848 -0.2435  2.5188 -0.0610
11051TIP3   OH254567   1.430   0.686   4.485  0.0042 -0.2576 -0.5073
11051TIP3    H154568   1.401   0.770   4.448  0.2208  0.9108  1.7800
11051TIP3    H254569   1.415   0.696   4.579  2.7163 -1.6897  0.1636
11052TIP3   OH254570   6.235   2.897  12.184  0.0794  0.3504  0.0920
11052TIP3    H154571   6.173   2.934  12.121 -2.3495 -1.8116  1.0644
11052TIP3    H254572   6.270   2.819  12.141  0.3243  0.2595  0.4498
11053TIP3   OH254573   7.206   4.809  12.181 -0.1858  0.4143 -0.7327
11053TIP3    H154574   7.119   4.843  12.201  0.0483 -0.2435  1.6413
11053TIP3    H254575   7.200   4.715  12.196  1.3170  0.5593  1.1417
11054TIP3   OH254576   2.908   1.876   2.269  0.1164  0.4307  0.0498
11054TIP3    H154577   2.889   1.970   2.266 -0.0996  0.3911  0.1074
11054TIP3    H254578   2.927   1.858   2.362  1.0527  0.5837 -0.1065
11055TIP3   OH254579   3.222   7.126  14.968 -0.5215  0.3966 -0.1740
11055TIP3    H154580   3.207   7.218  14.988 -2.0723  0.0199  0.4990
11055TIP3    H254581   3.135   7.088  14.958  0.0649 -1.1024  0.0459
11056TIP3   OH254582   6.337   0.385   2.263 -0.0362 -0.8481 -0.2061
11056TIP3    H154583   6.399   0.313   2.278 -1.1116 -1.5088  1.2925
11056TIP3    H254584   6.251   0.346   2.277 -0.6270  0.8174  1.1343
11057TIP3   OH254585   7.086   7.202  14.120  0.4282 -0.1525  0.2408
11057TIP3    H154586   7.180   7.194  14.104  1.2135 -0.2528  3.9249
11057TIP3    H254587   7.057   7.269  14.059  2.7233 -0.5426 -1.4303
11058TIP3   OH254588   5.646   6.058  13.809 -0.1798  0.2030  0.7633
11058TIP3    H154589   5.666   5.997  13.880 -1.3531 -2.2106 -0.8496
11058TIP3    H254590   5.697   6.026  13.734 -1.2382  0.8798 -0.2821
11059TIP3   OH254591   3.294   4.591   1.504  0.0452  0.5685 -0.1808
11059TIP3    H154592   3.288   4.677   1.544 -2.3022  0.7102 -0.7070
11059TIP3    H254593   3.346   4.604   1.424  1.4549  1.0301  0.7721
11060TIP3   OH254594   3.922   4.176   3.267 -0.2152 -0.5557 -0.1090
11060TIP3    H154595   3.891   4.102   3.214 -0.8903 -0.4091  0.0656
11060TIP3    H254596   3.850   4.192   3.329 -0.2999  0.5709 -0.4790
11061TIP3   OH254597   3.534   3.776   1.492  0.3671  0.0524  0.6185
11061TIP3    H154598   3.472   3.831   1.444 -1.8190 -2.1902  0.7031
11061TIP3    H254599   3.620   3.813   1.471 -0.7282  1.2122 -2.2822
11062TIP3   OH254600   4.733   3.856  13.125 -0.5039 -0.0043  0.0411
11062TIP3    H154601   4.658   3.800  13.106 -0.4136  0.3583 -1.5605
11062TIP3    H254602   4.696   3.933  13.166 -0.8436 -0.4205  0.5328
11063TIP3   OH254603   0.484   5.330  14.230 -0.4235  0.0167  0.4816
11063TIP3    H154604   0.502   5.310  14.322 -1.4056 -1.8214  0.3246
11063TIP3    H254605   0.569   5.327  14.187  0.3207  2.7346  1.5861
11064TIP3   OH254606   1.307   4.768   1.312  0.9276  0.0845 -0.4689
11064TIP3    H154607   1.238   4.710   1.281  0.7461 -0.3843  0.7297
11064TIP3    H254608   1.373   4.767   1.243 -0.4326  0.9047 -1.8434
11065TIP3   OH254609   5.175   6.519   1.262  0.3782 -0.1655 -0.3830
11065TIP3    H154610   5.138   6.435   1.290 -0.7582  0.2045 -0.7256
11065TIP3    H254611   5.139   6.532   1.174  0.3663  0.7795 -0.2392
11066TIP3   OH254612   0.527   4.696   1.670 -0.3222 -0.2893  0.0655
11066TIP3    H154613   0.532   4.621   1.729 -2.2787 -1.0675 -0.6793
11066TIP3    H254614   0.503   4.770   1.727 -2.0882 -1.0087  0.3310
11067TIP3   OH254615   0.512   3.355   2.422 -0.1390  0.4406 -0.2099
11067TIP3    H154616   0.544   3.273   2.460  0.9647  0.7659 -0.3813
11067TIP3    H254617   0.485   3.407   2.498 -2.5787 -0.7286 -0.1986
11068TIP3   OH254618   6.685   1.597  12.681  0.0805  0.6474 -0.0515
11068TIP3    H154619   6.624   1.524  12.675  0.3095  0.5898 -3.0941
11068TIP3    H254620   6.637   1.672  12.647 -0.0314  1.9482  2.7017
11069TIP3   OH254621   3.309   0.701  11.919 -0.3889  0.0836 -0.6597
11069TIP3    H154622   3.218   0.673  11.910 -0.5165  0.2919 -0.0687
11069TIP3    H254623   3.309   0.793  11.894 -1.0916  1.2002  2.8813
11070TIP3   OH254624   2.797   1.717  12.512  0.6592 -0.0593 -0.6533
11070TIP3    H154625   2.730   1.784  12.502  0.0161 -0.7463 -1.1020
11070TIP3    H254626   2.816   1.689  12.423 -0.2591 -1.5797 -0.4193
11071TIP3   OH254627   5.060   3.541   0.948 -0.9971 -0.2818  1.2223
11071TIP3    H154628   5.091   3.523   1.036  2.1957 -0.9673  0.1005
11071TIP3    H254629   5.059   3.636   0.941 -0.7796 -0.2345  1.8316
11072TIP3   OH254630   6.935   5.444  13.066 -0.2569  0.3877  0.3724
11072TIP3    H154631   7.023   5.456  13.103  0.3542 -0.0777 -0.8975
11072TIP3    H254632   6.888   5.523  13.093 -0.3874 -0.6185  3.5597
11073TIP3   OH254633   4.795   1.277   0.469  0.1809  0.1335 -0.1077
11073TIP3    H154634   4.791   1.367   0.501 -0.5625 -0.2089  0.8057
11073TIP3    H254635   4.878   1.272   0.421  0.1878  1.3216 -0.2470
11074TIP3   OH254636   0.372   6.196   4.780  0.4339  0.2521 -0.2927
11074TIP3    H154637   0.371   6.219   4.687 -0.7303 -2.0305 -0.9190
11074TIP3    H254638   0.306   6.253   4.819 -0.6906 -0.3269 -1.3050
11075TIP3   OH254639   4.564   4.097   1.272 -1.1162 -0.2812  0.0288
11075TIP3    H154640   4.620   4.053   1.208  0.0443  1.0574  0.0723
11075TIP3    H254641   4.597   4.187   1.275 -4.1840  0.9868 -0.9912
11076TIP3   OH254642   4.194   5.755   4.705  0.4657  0.0534  0.3687
11076TIP3    H154643   4.205   5.669   4.665 -1.5591  0.0388 -0.2315
11076TIP3    H254644   4.141   5.805   4.643 -1.7811  0.4065  2.4233
11077TIP3   OH254645   4.569   5.454  15.056 -0.6017  0.2699  0.5117
11077TIP3    H154646   4.590   5.378  15.001  1.0634  0.2297  1.1367
11077TIP3    H254647   4.617   5.526  15.015  1.8401 -0.0242  2.5917
11078TIP3   OH254648   5.735   1.798  13.391 -0.5185  0.1318  0.8624
11078TIP3    H154649   5.812   1.773  13.340  0.0483  2.1607  0.6197
11078TIP3    H254650   5.694   1.868  13.340 -2.6095 -0.9785  0.9383
11079TIP3   OH254651   1.446   3.853   2.539  0.1087  0.0228 -0.4333
11079TIP3    H154652   1.397   3.792   2.595  0.7367  1.2593  1.5549
11079TIP3    H254653   1.535   3.819   2.538 -0.3692 -1.4441 -2.9190
11080TIP3   OH254654   4.059   4.295   0.365  0.0980 -0.2465 -0.4767
11080TIP3    H154655   4.101   4.222   0.318  2.8775  0.8306  0.1515
11080TIP3    H254656   3.978   4.258   0.399 -0.1127 -2.1488 -2.7958
11081TIP3   OH254657   4.448   6.845  11.824  0.4186 -0.1183 -0.2248
11081TIP3    H154658   4.520   6.782  11.823 -1.5490 -2.5806 -2.3661
11081TIP3    H254659   4.490   6.931  11.815  3.1638 -1.1787  1.4544
11082TIP3   OH254660   0.997   0.476  11.975 -0.1043  0.2901  0.2615
11082TIP3    H154661   1.072   0.483  12.035 -1.2373 -1.7792  2.0461
11082TIP3    H254662   0.943   0.552  11.996 -0.4227 -0.3280  1.8541
11083TIP3   OH254663   5.254   2.083  11.591 -0.5240 -0.1907  0.1548
11083TIP3    H154664   5.338   2.038  11.580 -0.6251 -0.4659  0.4753
11083TIP3    H254665   5.272   2.174  11.567 -0.1164 -0.2332  0.2877
11084TIP3   OH254666   6.071   0.721  12.673  0.8389 -0.3565 -1.1089
11084TIP3    H154667   6.055   0.655  12.741 -1.4412  0.3708 -0.8603
11084TIP3    H254668   6.024   0.687  12.596  2.0540 -0.3908 -1.8509
11085TIP3   OH254669   1.536   2.871   2.734 -0.0304 -0.3555 -0.1264
11085TIP3    H154670   1.460   2.898   2.683 -0.9014 -1.4446  0.5699
11085TIP3    H254671   1.585   2.814   2.675  0.1670  0.1929 -0.5075
11086TIP3   OH254672   1.387   6.371  10.129  0.0416 -0.3214 -0.6355
11086TIP3    H154673   1.440   6.389  10.051 -1.2846  4.7107 -0.6746
11086TIP3    H254674   1.298   6.364  10.096 -0.4469  1.1336  0.3035
11087TIP3   OH254675   3.676   0.747   0.211  0.1003 -0.6948  0.0065
11087TIP3    H154676   3.747   0.795   0.169 -0.8405  0.8230  0.0999
11087TIP3    H254677   3.716   0.663   0.235  1.4618 -0.4395 -1.2028
11088TIP3   OH254678   1.039   0.612  10.879  0.1132  0.2305 -0.1163
11088TIP3    H154679   1.002   0.697  10.852  1.2280  0.9112  0.4107
11088TIP3    H254680   1.054   0.622  10.973  0.1082 -0.6223 -0.0225
11089TIP3   OH254681   3.269   5.992   0.762  0.5956 -0.1011 -0.6670
11089TIP3    H154682   3.313   6.050   0.824  1.8587 -1.3709 -0.3015
11089TIP3    H254683   3.277   6.036   0.678  0.2841  0.8960 -0.1834
11090TIP3   OH254684   7.099   1.624   4.592 -0.2864  0.1680 -0.2668
11090TIP3    H154685   7.165   1.592   4.530  0.6659  0.2089  0.7107
11090TIP3    H254686   7.030   1.660   4.536  1.0180  1.1587 -1.2996
11091TIP3   OH254687   7.090   5.869  12.751 -0.1577 -0.2056 -0.5563
11091TIP3    H154688   7.080   5.932  12.680 -0.9039  0.1322 -0.1691
11091TIP3    H254689   7.152   5.910  12.811 -0.3651  0.0025 -0.4830
11092TIP3   OH254690   3.579   3.116  11.247  0.0957  0.5733 -0.3981
11092TIP3    H154691   3.640   3.051  11.212 -2.0520 -0.9876 -1.4809
11092TIP3    H254692   3.587   3.191  11.189 -0.3094 -0.3431 -1.6915
11093TIP3   OH254693   3.597   1.304   1.237 -0.1957  0.6532 -0.1452
11093TIP3    H154694   3.687   1.315   1.206  0.3560  0.1137  1.1884
11093TIP3    H254695   3.568   1.394   1.256  0.1909  0.7990 -0.2254
11094TIP3   OH254696   4.108   3.275  15.048  0.4357  0.4476 -0.5180
11094TIP3    H154697   4.053   3.337  14.999 -0.5072 -0.6484 -0.8900
11094TIP3    H254698   4.154   3.224  14.981 -0.9007 -1.0936 -0.3263
11095TIP3   OH254699   6.653   0.701   0.200  0.3244  0.3976  0.4761
11095TIP3    H154700   6.618   0.783   0.236 -0.0284  0.0317  0.9878
11095TIP3    H254701   6.715   0.729   0.133  2.0767  1.1471  2.3186
11096TIP3   OH254702   4.980   6.652   3.050  0.8271  0.7988  0.1741
11096TIP3    H154703   5.037   6.646   3.127  2.7666  1.9559 -1.0828
11096TIP3    H254704   5.017   6.723   2.998 -0.3023 -0.0454 -1.9342
11097TIP3   OH254705   4.977   2.622  13.727  0.1337 -0.3979  0.0908
11097TIP3    H154706   4.945   2.698  13.776 -0.9140 -2.1761  2.3420
11097TIP3    H254707   5.059   2.599  13.771  0.6615 -0.3383 -0.8468
11098TIP3   OH254708   0.556   2.255  11.992 -0.6950 -0.0458  0.6461
11098TIP3    H154709   0.541   2.342  12.027 -3.1677 -0.4858  0.8398
11098TIP3    H254710   0.542   2.197  12.067 -2.2080 -0.7644 -0.1523
11099TIP3   OH254711   7.134   0.894   9.861  0.4119  0.4425  0.0409
11099TIP3    H154712   7.215   0.848   9.841  0.9718  1.6484 -0.5833
11099TIP3    H254713   7.093   0.909   9.776 -0.4175 -0.0400  0.3401
11100TIP3   OH254714   6.608   4.641   5.808  0.1568 -0.1119  0.0492
11100TIP3    H154715   6.579   4.730   5.825 -1.2784 -0.9408  2.5075
11100TIP3    H254716   6.694   4.635   5.849  0.7296  0.4035 -1.0480
11101TIP3   OH254717   2.627   1.449  10.381 -0.3696 -0.8999  0.0455
11101TIP3    H154718   2.558   1.503  10.341  0.2100 -0.2824 -0.1308
11101TIP3    H254719   2.681   1.422  10.307  1.4086  1.2310  0.4637
11102TIP3   OH254720   5.771   2.175  15.175 -0.2253  0.3815  0.0987
11102TIP3    H154721   5.691   2.194  15.223 -0.4951  1.0237 -0.5786
11102TIP3    H254722   5.742   2.163  15.084  0.5264  1.3963 -0.2967
11103TIP3   OH254723   5.287   3.560  11.652  0.0220 -0.3561  0.1067
11103TIP3    H154724   5.311   3.526  11.566 -0.4235 -1.3320  0.3653
11103TIP3    H254725   5.201   3.600  11.639 -0.1262 -0.6655  0.1430
11104TIP3   OH254726   6.609   2.343   2.311  0.7804  0.2926 -0.2087
11104TIP3    H154727   6.663   2.274   2.350  0.2336  1.1777  2.2981
11104TIP3    H254728   6.534   2.297   2.275 -0.1462 -0.4313  2.4252
11105TIP3   OH254729   5.263   2.885   1.699  0.2237 -0.6864  0.4335
11105TIP3    H154730   5.210   2.965   1.701  0.0484 -0.7444 -1.0390
11105TIP3    H254731   5.273   2.861   1.791  1.7238  1.9780  1.0774
11106TIP3   OH254732   1.483   6.971  13.247  0.2425 -0.0839  0.4706
11106TIP3    H154733   1.453   6.929  13.166 -1.5562  3.0295 -0.6758
11106TIP3    H254734   1.570   7.004  13.226 -0.0366  0.3304 -0.0444
11107TIP3   OH254735   6.339   2.657   4.438  0.1260 -0.3331  0.4143
11107TIP3    H154736   6.261   2.614   4.404 -1.3799 -0.0314  3.1870
11107TIP3    H254737   6.342   2.741   4.393 -0.9292 -0.5065 -0.0067
11108TIP3   OH254738   0.681   2.166  12.681  0.2218 -0.1356  0.0211
11108TIP3    H154739   0.643   2.079  12.671 -0.4914  0.2557 -0.7547
11108TIP3    H254740   0.617   2.214  12.733 -1.6365  1.2493 -3.2384
11109TIP3   OH254741   2.585   0.302   2.721 -0.1111  0.3234  0.3336
11109TIP3    H154742   2.552   0.220   2.758  2.7203 -0.8831  0.4371
11109TIP3    H254743   2.657   0.276   2.665 -0.0066  2.6805 -0.7632
11110TIP3   OH254744   3.370   6.088   0.509 -0.3257  0.2208 -0.1309
11110TIP3    H154745   3.341   6.083   0.418 -0.1842 -1.6958 -0.1145
11110TIP3    H254746   3.462   6.114   0.504 -0.7017  1.5746 -0.4310
11111TIP3   OH254747   2.641   0.158   4.509 -0.0589 -0.2662  0.1118
11111TIP3    H154748   2.608   0.135   4.422 -0.0949 -1.4769  0.4310
11111TIP3    H254749   2.671   0.249   4.500 -0.5204 -0.2123 -1.0256
11112TIP3   OH254750   3.900   1.279  15.202 -0.1002  0.5308 -0.0427
11112TIP3    H154751   3.924   1.292  15.293 -1.4306  1.5505  0.2106
11112TIP3    H254752   3.811   1.242  15.205  0.7204 -1.6836 -0.9212
11113TIP3   OH254753   1.045   0.714  12.448 -0.6600 -0.6873  0.0772
11113TIP3    H154754   1.003   0.783  12.397  1.1346  0.0077 -0.5379
11113TIP3    H254755   0.989   0.702  12.524 -0.1341  2.7685  1.1705
11114TIP3   OH254756   6.160   2.306   1.382 -0.0801 -0.8067 -0.6411
11114TIP3    H154757   6.207   2.390   1.383  0.7972 -1.2790 -1.2721
11114TIP3    H254758   6.110   2.308   1.301 -1.8538  0.0351  0.3938
11115TIP3   OH254759   4.664   6.380   5.208  0.1238  0.3519 -0.5163
11115TIP3    H154760   4.635   6.409   5.294  0.9425  1.4334 -0.5692
11115TIP3    H254761   4.712   6.299   5.225 -0.9730 -0.2430 -0.1632
11116TIP3   OH254762   2.387   3.296   1.247 -0.7952 -0.5901  0.7819
11116TIP3    H154763   2.405   3.382   1.209 -3.1340  0.0290  0.9031
11116TIP3    H254764   2.473   3.262   1.271  0.2278  1.5885  0.4797
11117TIP3   OH254765   2.639   5.039  14.648 -0.2182  0.5208 -0.4519
11117TIP3    H154766   2.576   5.103  14.680 -0.3659 -0.6734  1.8576
11117TIP3    H254767   2.702   5.090  14.598 -3.5353  1.6686 -3.9815
11118TIP3   OH254768   4.627   1.319  10.610 -0.5183 -0.0670 -0.5834
11118TIP3    H154769   4.561   1.385  10.631 -1.7926 -1.1503 -1.0812
11118TIP3    H254770   4.613   1.299  10.517  1.4288  0.6652 -1.0918
11119TIP3   OH254771   6.792   0.974  15.107 -0.0663 -0.2342  0.0120
11119TIP3    H154772   6.791   1.031  15.184  3.1944 -0.4506  0.3581
11119TIP3    H254773   6.723   0.909  15.124 -2.5513  2.3432  0.5044
11120TIP3   OH254774   4.566   5.825   2.869 -0.2117  0.2208  0.0754
11120TIP3    H154775   4.471   5.833   2.877 -0.3984 -1.4106 -0.2822
11120TIP3    H254776   4.593   5.779   2.949  0.3324  0.9209  0.3087
11121TIP3   OH254777   3.234   0.828  12.534  0.1624 -0.4670 -0.5827
11121TIP3    H154778   3.248   0.909  12.485  1.2321  0.4623  1.1649
11121TIP3    H254779   3.150   0.795  12.502 -0.4504  1.4940 -1.1313
11122TIP3   OH254780   1.327   4.794  14.213 -0.1613 -0.1699 -0.1317
11122TIP3    H154781   1.305   4.772  14.304  0.7017  0.9600  0.3831
11122TIP3    H254782   1.338   4.889  14.214 -0.2261 -0.1332 -1.4537
11123TIP3   OH254783   1.627   2.654  14.925 -0.3756  0.2187 -0.1432
11123TIP3    H154784   1.631   2.745  14.895 -0.7823 -0.0374 -0.9998
11123TIP3    H254785   1.707   2.614  14.891  0.3458  0.5009  1.1385
11124TIP3   OH254786   1.828   7.023  15.129 -0.0454 -0.1863 -0.0430
11124TIP3    H154787   1.804   7.032  15.221  0.1942 -3.2302  0.4290
11124TIP3    H254788   1.758   6.969  15.092  0.0465  0.7028 -1.5803
11125TIP3   OH254789   6.121   6.020   3.130 -0.1048 -0.2628 -0.0258
11125TIP3    H154790   6.097   6.063   3.048 -0.3998 -0.2863  0.0441
11125TIP3    H254791   6.214   6.036   3.140 -0.4152  1.2712  0.5495
11126TIP3   OH254792   3.519   5.363   2.722  0.0024 -0.5490  0.4397
11126TIP3    H154793   3.449   5.343   2.784 -1.4806 -0.7517 -1.2070
11126TIP3    H254794   3.545   5.277   2.687  2.2693 -0.6569  2.1778
11127TIP3   OH254795   7.170   3.498   0.387  0.5106  0.5262 -0.0404
11127TIP3    H154796   7.208   3.549   0.316  0.1150  2.2934  0.9450
11127TIP3    H254797   7.212   3.532   0.466  0.4377 -0.8998  0.6373
11128TIP3   OH254798   1.319   0.187   4.773 -0.0638  0.4428  0.0952
11128TIP3    H154799   1.342   0.217   4.685 -2.1758  1.1006 -0.2898
11128TIP3    H254800   1.307   0.092   4.764 -0.7739  0.5826 -0.4470
11129TIP3   OH254801   4.058   0.378   1.969  0.1733 -0.8389 -0.4984
11129TIP3    H154802   4.068   0.283   1.962  1.0910 -0.7476 -0.4677
11129TIP3    H254803   4.112   0.413   1.899  0.2275 -0.3172 -0.1981
11130TIP3   OH254804   6.021   5.054   4.478  0.2345 -0.2792 -0.2980
11130TIP3    H154805   5.998   5.137   4.437  1.0988  1.5551  2.6209
11130TIP3    H254806   5.960   4.991   4.440 -0.5405  1.6579 -2.5307
11131TIP3   OH254807   5.023   4.492   1.874  0.3221  0.3464 -0.0425
11131TIP3    H154808   4.938   4.535   1.884 -0.1559 -0.2077 -1.4297
11131TIP3    H254809   5.056   4.526   1.791 -0.3219 -2.2840 -1.4857
11132TIP3   OH254810   2.801   3.423   3.272  0.3499  0.1161  0.3016
11132TIP3    H154811   2.802   3.391   3.182  0.9568  1.5720 -0.2373
11132TIP3    H254812   2.846   3.507   3.268  0.5190  0.1354  2.0005
11133TIP3   OH254813   3.789   4.189  15.231  0.1832  0.4070  0.3217
11133TIP3    H154814   3.848   4.208  15.305  1.4302 -1.2356 -0.2033
11133TIP3    H254815   3.820   4.106  15.196 -1.7683  0.0639 -0.7127
11134TIP3   OH254816   6.627   0.908   4.544  0.3267 -0.6641  0.0018
11134TIP3    H154817   6.634   0.976   4.610  0.2044  0.3815 -1.0232
11134TIP3    H254818   6.534   0.884   4.543 -0.2295  1.3041 -1.6555
11135TIP3   OH254819   3.775   3.220   3.814  0.1404  0.0038 -0.3156
11135TIP3    H154820   3.687   3.200   3.783  0.0821 -0.2259 -0.0124
11135TIP3    H254821   3.781   3.315   3.811 -1.2221  0.2839  2.5596
11136TIP3   OH254822   2.232   7.197   4.286  0.3704  0.5657  0.0981
11136TIP3    H154823   2.211   7.205   4.193  0.0035  1.3304  0.2372
11136TIP3    H254824   2.327   7.186   4.289  0.5397  1.7673 -0.3188
11137TIP3   OH254825   0.707   1.815   1.333 -0.2294 -0.1876  0.0990
11137TIP3    H154826   0.617   1.819   1.364 -0.3962 -1.0064 -0.2601
11137TIP3    H254827   0.751   1.889   1.375 -0.6805 -0.7154  1.5212
11138TIP3   OH254828   0.395   6.562   5.050  0.3423 -0.9396 -0.0765
11138TIP3    H154829   0.305   6.530   5.049 -0.0630  0.1562 -0.1553
11138TIP3    H254830   0.409   6.598   4.962  0.3212  0.3005  0.4148
11139TIP3   OH254831   4.295   3.407   1.725 -0.0725 -0.3726  0.1267
11139TIP3    H154832   4.316   3.475   1.790 -0.6809 -0.6383  0.6099
11139TIP3    H254833   4.234   3.449   1.665  1.6417  0.3581 -1.2006
11140TIP3   OH254834   6.793   6.527  10.731 -0.3440 -0.1303 -0.2412
11140TIP3    H154835   6.788   6.567  10.644  0.3572 -2.0198 -1.2199
11140TIP3    H254836   6.703   6.501  10.750 -0.7345  1.4467  0.2277
11141TIP3   OH254837   1.456   3.025   1.192 -0.5186  0.1529 -0.4526
11141TIP3    H154838   1.465   3.099   1.252 -0.7035 -0.3543  0.2268
11141TIP3    H254839   1.361   3.008   1.189 -0.4932  0.0681 -0.7460
11142TIP3   OH254840   2.259   6.249   1.337 -0.4719 -0.1901  0.2542
11142TIP3    H154841   2.339   6.197   1.342 -0.2236  0.0571 -0.7983
11142TIP3    H254842   2.271   6.303   1.259 -1.2383  0.5842  0.6583
11143TIP3   OH254843   6.064   3.682  14.833 -0.3791  0.1021  0.1688
11143TIP3    H154844   6.094   3.744  14.766 -1.4490  0.9611  0.4497
11143TIP3    H254845   6.082   3.596  14.795 -0.3552  0.5762 -0.9516
11144TIP3   OH254846   5.722   2.400  14.948 -0.1586 -0.0615  0.0553
11144TIP3    H154847   5.810   2.383  14.983  0.4300 -2.7418 -2.3026
11144TIP3    H254848   5.674   2.319  14.962 -2.3650  1.3575  1.3051
11145TIP3   OH254849   1.547   2.609   4.553  0.1150  0.3220  0.4171
11145TIP3    H154850   1.570   2.649   4.469 -0.7416 -1.6161 -0.8309
11145TIP3    H254851   1.630   2.574   4.586  0.7293  2.3322  1.1576
11146TIP3   OH254852   1.264   3.139   2.902  0.4535 -0.9982 -0.1927
11146TIP3    H154853   1.345   3.189   2.911 -0.4100  0.4238 -0.1090
11146TIP3    H254854   1.244   3.143   2.808  0.2266 -0.9654 -0.1409
11147TIP3   OH254855   6.285   6.115  13.846 -0.2400  0.1410  0.3665
11147TIP3    H154856   6.291   6.207  13.873 -0.7457 -0.7859  4.2550
11147TIP3    H254857   6.373   6.080  13.860 -1.0452 -0.9086  3.5011
11148TIP3   OH254858   5.628   2.035  13.323 -0.0769 -0.2939  0.2379
11148TIP3    H154859   5.653   2.104  13.384  0.8746  0.8932 -1.4097
11148TIP3    H254860   5.538   2.058  13.297 -0.1252 -0.2488  0.4419
11149TIP3   OH254861   5.635   0.950   0.261 -0.3678 -0.4872  0.3916
11149TIP3    H154862   5.728   0.964   0.279 -0.5812  2.1318 -0.1568
11149TIP3    H254863   5.593   0.953   0.347 -0.3756  3.0316  0.4170
11150TIP3   OH254864   3.194   5.106  14.349  0.3123  0.0166  0.0314
11150TIP3    H154865   3.200   5.108  14.254  2.2641  0.2891  0.1238
11150TIP3    H254866   3.182   5.197  14.375 -0.4190 -0.0797  0.0531
11151TIP3   OH254867   4.061   2.601  11.533 -0.1130 -0.8354  0.0138
11151TIP3    H154868   4.057   2.693  11.559  2.0963 -0.3014 -1.2673
11151TIP3    H254869   4.016   2.554  11.603 -2.0505  1.2627  0.2852
11152TIP3   OH254870   2.435   2.446   2.216  0.4364  0.3103 -0.1943
11152TIP3    H154871   2.523   2.416   2.197  1.0540  1.1830  1.0768
11152TIP3    H254872   2.377   2.378   2.182  1.5788 -0.0963 -1.3729
11153TIP3   OH254873   3.026   6.341   1.980 -0.4615  0.7245  0.1104
11153TIP3    H154874   3.080   6.399   1.927  1.1806 -0.4113  0.4286
11153TIP3    H254875   2.950   6.321   1.926 -0.7259  2.5704 -0.2661
11154TIP3   OH254876   1.052   1.240  11.943 -0.5318  0.2402 -0.0332
11154TIP3    H154877   1.042   1.158  11.992  1.2503  0.4683  0.7917
11154TIP3    H254878   0.971   1.247  11.892 -0.8341 -1.9074  0.0421
11155TIP3   OH254879   3.399   3.313   9.748  0.1580  0.7758 -0.9378
11155TIP3    H154880   3.473   3.282   9.695  1.5486  1.1138  0.7017
11155TIP3    H254881   3.418   3.282   9.836 -1.1753  1.7146 -0.2813
11156TIP3   OH254882   3.419   1.262  11.401  0.7129 -0.7846 -1.1172
11156TIP3    H154883   3.482   1.323  11.441 -0.6042 -0.5776  0.7719
11156TIP3    H254884   3.370   1.316  11.339 -0.7191  0.2846  0.8256
11157TIP3   OH254885   5.670   2.884   1.477  0.0070  0.2725 -0.0195
11157TIP3    H154886   5.583   2.860   1.444 -0.1386  0.2232  0.3915
11157TIP3    H254887   5.729   2.823   1.433 -0.2251 -0.0390  0.0896
11158TIP3   OH254888   3.379   4.015  13.411 -0.3580  0.0809  0.1623
11158TIP3    H154889   3.304   4.070  13.391 -0.3667 -0.5374 -1.7327
11158TIP3    H254890   3.344   3.926  13.413  0.1575 -0.1255  0.2416
11159TIP3   OH254891   2.065   0.939   5.075  0.5903  0.1565  0.5810
11159TIP3    H154892   2.061   0.952   4.980  0.6929 -0.4805  0.4795
11159TIP3    H254893   2.121   0.861   5.085  1.7387  1.0399  1.2352
11160TIP3   OH254894   4.089   0.525  13.282  0.2995  0.0492 -0.3858
11160TIP3    H154895   4.171   0.478  13.294  0.8415  0.7862 -1.0596
11160TIP3    H254896   4.079   0.531  13.187 -0.5496 -0.0666 -0.3043
11161TIP3   OH254897   2.885   5.802   3.845  0.0147 -0.1411 -0.4102
11161TIP3    H154898   2.918   5.748   3.773  0.2324 -1.2467  0.4874
11161TIP3    H254899   2.870   5.740   3.916  1.6331  1.1500  1.1540
11162TIP3   OH254900   5.449   5.239  14.414  0.4001 -0.0036 -0.2428
11162TIP3    H154901   5.411   5.153  14.395  0.3818  0.0274 -0.3513
11162TIP3    H254902   5.475   5.273  14.328 -2.1343  1.2958 -0.6072
11163TIP3   OH254903   3.559   3.991  12.168 -0.7892  0.2631 -0.1979
11163TIP3    H154904   3.519   3.954  12.247  0.2297  0.9981  0.6944
11163TIP3    H254905   3.487   4.032  12.121 -1.0981  1.6959  1.4412
11164TIP3   OH254906   5.326   2.423   1.890  0.4158  0.1956 -0.0172
11164TIP3    H154907   5.292   2.501   1.848 -0.2245 -0.1257 -0.1047
11164TIP3    H254908   5.387   2.386   1.826  0.4906  0.4574 -0.0977
11165TIP3   OH254909   5.405   0.885  13.632 -0.1748  0.2597  0.6039
11165TIP3    H154910   5.449   0.946  13.573  0.8462  1.7993  2.8149
11165TIP3    H254911   5.466   0.875  13.705 -1.3942 -1.5381  1.4408
11166TIP3   OH254912   3.051   0.062  13.744 -0.0443 -0.1520  0.1467
11166TIP3    H154913   3.044   0.151  13.710 -0.0521 -0.1424  0.1730
11166TIP3    H254914   3.126   0.064  13.803 -0.8906  0.2015  1.2629
11167TIP3   OH254915   3.026   6.235   0.043  1.0851  0.6149 -0.5350
11167TIP3    H154916   2.963   6.196   0.104  2.3945 -1.8322 -0.6275
11167TIP3    H254917   2.979   6.309   0.004 -1.4177 -0.5920  0.0143
11168TIP3   OH254918   2.884   4.719   2.646 -0.4275 -0.0886  0.1297
11168TIP3    H154919   2.874   4.777   2.721 -0.6867 -1.4076  1.1510
11168TIP3    H254920   2.973   4.734   2.615 -0.2963  0.4277  0.7432
11169TIP3   OH254921   1.120   0.429   4.765 -0.6783 -0.1178  0.5444
11169TIP3    H154922   1.040   0.378   4.772 -0.9950  0.5280  1.9426
11169TIP3    H254923   1.190   0.364   4.752 -1.4617 -0.6493 -1.4131
11170TIP3   OH254924   2.983   2.995  13.235  0.6480  0.3863 -0.0006
11170TIP3    H154925   3.016   3.078  13.267 -0.7495  1.8511 -2.1184
11170TIP3    H254926   2.893   2.991  13.267  0.2288  0.4186 -1.1548
11171TIP3   OH254927   6.679   6.797   2.372 -0.4675 -0.4941 -0.1139
11171TIP3    H154928   6.766   6.832   2.355 -0.8074  0.5522  0.2006
11171TIP3    H254929   6.659   6.742   2.296  0.9337 -1.7441  0.3641
11172TIP3   OH254930   2.981   2.642   5.473 -0.2720 -0.2845 -0.7495
11172TIP3    H154931   3.070   2.619   5.446 -0.0676  1.1211 -1.3913
11172TIP3    H254932   2.993   2.715   5.534 -0.8790 -1.7849  1.2383
11173TIP3   OH254933   1.451   1.896   1.950 -0.2143 -0.2153  0.2469
11173TIP3    H154934   1.425   1.988   1.944 -0.9392 -0.2293  2.4337
11173TIP3    H254935   1.518   1.886   1.883  0.2533  2.0401  0.3044
11174TIP3   OH254936   2.846   1.413   1.843  0.0448 -0.1938 -0.3120
11174TIP3    H154937   2.911   1.440   1.778  0.0967 -2.3529 -1.2459
11174TIP3    H254938   2.868   1.322   1.864 -1.8100 -0.5406  0.4042
11175TIP3   OH254939   6.453   1.619   0.101 -0.3321  0.7993 -0.1120
11175TIP3    H154940   6.397   1.694   0.080 -0.8708  0.4137 -0.0812
11175TIP3    H254941   6.417   1.547   0.048 -0.7561  0.1893  0.9616
11176TIP3   OH254942   1.940   4.674   1.626 -0.1849 -0.1071  0.5488
11176TIP3    H154943   1.847   4.670   1.651 -0.2605  0.5297  0.3754
11176TIP3    H254944   1.981   4.606   1.679 -0.9344 -1.1798 -0.2037
11177TIP3   OH254945   0.258   4.655   2.043  0.3591 -0.4262 -0.3462
11177TIP3    H154946   0.214   4.720   1.989  0.3515  0.2932  0.5142
11177TIP3    H254947   0.312   4.705   2.103  3.0500 -1.2819 -1.8822
11178TIP3   OH254948   3.033   1.801   1.088 -0.4803 -0.0440 -0.4386
11178TIP3    H154949   3.010   1.719   1.045 -1.2614  0.5317 -1.1687
11178TIP3    H254950   2.952   1.852   1.087  0.8382  2.3784 -3.8192
11179TIP3   OH254951   4.285   5.303  11.461  0.5272  0.1806  0.3948
11179TIP3    H154952   4.338   5.264  11.530  1.6901  1.2561  0.1528
11179TIP3    H254953   4.343   5.305  11.385  0.2161  1.5579  0.1703
11180TIP3   OH254954   5.324   1.412   2.929  0.0926 -0.3212  0.5031
11180TIP3    H154955   5.420   1.408   2.931  0.0478 -1.6750  0.5318
11180TIP3    H254956   5.298   1.408   3.021  0.0357  2.5284  0.7180
11181TIP3   OH254957   6.083   5.715   0.701 -0.2202  0.4310  0.3342
11181TIP3    H154958   6.065   5.704   0.795  2.4382  0.5574  0.9533
11181TIP3    H254959   6.099   5.626   0.670  0.1204  0.4970  0.3132
11182TIP3   OH254960   2.740   1.495   5.425  0.0279  0.1741  0.6693
11182TIP3    H154961   2.822   1.520   5.467 -0.0504  3.2033 -0.6888
11182TIP3    H254962   2.671   1.536   5.478 -0.5912 -1.5527  1.2672
11183TIP3   OH254963   5.403   1.802   4.657  0.1291  0.1208 -0.2802
11183TIP3    H154964   5.344   1.731   4.682 -1.1417  0.6893 -1.4957
11183TIP3    H254965   5.440   1.774   4.573  1.1919  0.0169  0.2092
11184TIP3   OH254966   7.074   4.482   4.607  0.0865 -0.1720  0.1691
11184TIP3    H154967   7.044   4.573   4.605 -0.0931 -0.1908  1.2558
11184TIP3    H254968   7.167   4.486   4.583 -0.2352  0.1344 -1.0742
11185TIP3   OH254969   3.395   1.557  13.277 -0.6815 -0.6273  0.0205
11185TIP3    H154970   3.320   1.518  13.233 -0.4423 -2.0842  0.8007
11185TIP3    H254971   3.455   1.483  13.290  1.2185  0.6114 -1.2119
11186TIP3   OH254972   1.425   7.056  10.766 -0.0250  0.2140  0.2269
11186TIP3    H154973   1.458   7.135  10.723 -0.2277  0.7205  0.9983
11186TIP3    H254974   1.504   7.006  10.788  0.0519 -0.9916 -2.4276
11187TIP3   OH254975   5.132   2.644  12.715  0.0996 -0.3278 -0.6407
11187TIP3    H154976   5.208   2.586  12.715 -0.3882 -0.9752  0.0838
11187TIP3    H254977   5.134   2.685  12.628  1.0256 -0.6536 -0.7882
11188TIP3   OH254978   2.304   5.560   0.426  0.4378 -0.1903 -0.2658
11188TIP3    H154979   2.280   5.537   0.336 -0.8833 -0.1040  0.0503
11188TIP3    H254980   2.356   5.640   0.418 -1.0594  0.7673 -0.8621
11189TIP3   OH254981   5.822   0.854   5.453 -0.4672  0.3097  0.2223
11189TIP3    H154982   5.769   0.859   5.532 -0.1579  1.5487  0.3698
11189TIP3    H254983   5.768   0.804   5.391 -2.2387  2.2784  0.0729
11190TIP3   OH254984   0.311   2.076  14.195  0.1989 -0.5514 -0.2977
11190TIP3    H154985   0.311   1.982  14.212 -3.4132 -0.5176  0.6691
11190TIP3    H254986   0.256   2.113  14.264  1.7510  2.3821 -0.4645
11191TIP3   OH254987   1.617   4.645   9.982 -0.3568 -0.4860  0.6336
11191TIP3    H154988   1.577   4.693  10.055 -0.4917  1.4918 -0.6738
11191TIP3    H254989   1.708   4.632  10.009 -0.0115  1.5521  0.5982
11192TIP3   OH254990   1.767   3.735  11.642 -0.6367 -0.1110  0.0622
11192TIP3    H154991   1.816   3.817  11.630  1.0223 -0.9399  0.7943
11192TIP3    H254992   1.685   3.762  11.684 -1.0954  1.3807 -1.6672
11193TIP3   OH254993   0.746   0.329  10.900 -0.0179 -0.0114 -0.7363
11193TIP3    H154994   0.841   0.332  10.894  0.0944  1.5828  0.8852
11193TIP3    H254995   0.728   0.249  10.950  0.6782  0.8627  1.0180
11194TIP3   OH254996   3.807   5.145   1.025  0.2398 -0.4223 -0.6999
11194TIP3    H154997   3.809   5.155   0.929 -0.0161  2.5545 -0.4745
11194TIP3    H254998   3.717   5.166   1.049  0.8998  1.3018  0.3726
11195TIP3   OH254999   5.531   1.352  15.272  0.1951 -0.2358 -0.8760
11195TIP3    H155000   5.578   1.420  15.322  1.3968 -0.8891 -1.0856
11195TIP3    H255001   5.462   1.324  15.331  0.7419 -0.0224 -0.1056
11196TIP3   OH255002   5.902   4.542  14.279  0.0633  0.0774  0.3953
11196TIP3    H155003   5.812   4.573  14.265 -1.0122 -1.4802  3.0421
11196TIP3    H255004   5.906   4.458  14.233  0.2676  0.2857  0.0312
11197TIP3   OH255005   2.343   0.967  10.160 -0.6492  0.2358 -0.2969
11197TIP3    H155006   2.302   0.946  10.076 -2.0108 -1.6775  0.7715
11197TIP3    H255007   2.271   0.963  10.223  0.3909  1.3701  1.0237
11198TIP3   OH255008   5.724   0.388  12.867  0.5232 -0.3907  0.1498
11198TIP3    H155009   5.687   0.397  12.779  1.5599  0.2124 -0.2474
11198TIP3    H255010   5.649   0.400  12.926  0.1638  1.4446 -0.6024
11199TIP3   OH255011   5.903   7.207  12.727 -0.0694 -0.0295  0.3055
11199TIP3    H155012   5.809   7.194  12.737 -0.0051 -1.3317 -0.4556
11199TIP3    H255013   5.926   7.153  12.651  1.4078 -0.3396  0.9436
11200TIP3   OH255014   1.665   2.785   0.809 -0.1594 -0.1112 -0.3627
11200TIP3    H155015   1.671   2.774   0.714 -2.8747 -3.4256 -0.3492
11200TIP3    H255016   1.622   2.870   0.820 -0.6900 -0.1053 -2.1674
11201TIP3   OH255017   6.384   3.137   4.977 -0.4367  0.1842  0.0277
11201TIP3    H155018   6.326   3.145   4.902  1.5899 -1.0168 -1.7982
11201TIP3    H255019   6.390   3.043   4.993 -0.4653  0.3916  1.4393
11202TIP3   OH255020   3.666   4.551   5.072 -0.7973  0.5159  0.3461
11202TIP3    H155021   3.760   4.534   5.069 -1.0671 -0.9915 -0.6537
11202TIP3    H255022   3.646   4.559   5.166  0.1646 -0.1434  0.6188
11203TIP3   OH255023   1.770   5.626   1.531 -0.0441 -0.2093 -0.4751
11203TIP3    H155024   1.773   5.712   1.574 -2.5404 -0.8874  1.3253
11203TIP3    H255025   1.729   5.643   1.446 -0.6773  0.3973 -0.0677
11204TIP3   OH255026   1.995   1.938  14.721 -0.3160  0.1615  0.2308
11204TIP3    H155027   1.901   1.924  14.724 -0.1212 -1.6453 -0.6466
11204TIP3    H255028   2.006   2.030  14.700 -1.8160  1.3224  3.8169
11205TIP3   OH255029   6.008   2.542   5.565  0.0851  0.7944 -0.3765
11205TIP3    H155030   5.958   2.477   5.516  0.6225  1.5525 -1.9931
11205TIP3    H255031   6.031   2.497   5.646  0.5454 -1.1026 -1.4817
11206TIP3   OH255032   0.555   2.867  13.878  0.0733 -0.2515 -0.2352
11206TIP3    H155033   0.533   2.798  13.941 -0.2368 -0.4055 -0.5057
11206TIP3    H255034   0.587   2.819  13.801 -0.4460 -0.1053 -0.5423
11207TIP3   OH255035   2.371   5.599  10.528 -0.8229 -0.0075 -0.4718
11207TIP3    H155036   2.341   5.686  10.502  0.7382  0.7789  0.2547
11207TIP3    H255037   2.435   5.615  10.598  1.1039 -1.5665 -1.7506
11208TIP3   OH255038   7.061   2.801   1.092  0.3073 -0.3467 -0.3105
11208TIP3    H155039   7.097   2.816   1.004 -0.9466  0.4429 -0.7230
11208TIP3    H255040   7.074   2.884   1.137 -2.2298  0.4867 -0.9583
11209TIP3   OH255041   1.276   6.078  15.238  0.1176 -0.4475 -0.2667
11209TIP3    H155042   1.221   6.074  15.160  0.8124 -0.7850 -0.7528
11209TIP3    H255043   1.274   5.989  15.273  0.8821 -0.6281 -0.6680
11210TIP3   OH255044   6.036   4.677   2.807 -0.6355 -0.4619 -0.6518
11210TIP3    H155045   6.068   4.745   2.748 -0.5198  0.3614  0.3271
11210TIP3    H255046   5.977   4.724   2.867  2.8120 -0.1589  2.9629
11211TIP3   OH255047   1.000   3.930   0.291 -0.2551  0.2521 -0.1414
11211TIP3    H155048   1.054   3.978   0.355 -0.1419  0.1698 -0.1738
11211TIP3    H255049   1.037   3.954   0.206  0.9727 -1.2625 -0.0971
11212TIP3   OH255050   6.047   2.088  10.795  0.8332 -0.2232  0.9830
11212TIP3    H155051   6.108   2.133  10.738  0.7726 -0.1605  0.9672
11212TIP3    H255052   5.969   2.144  10.797  0.6352 -0.4847  0.7059
11213TIP3   OH255053   0.182   3.060  13.867  0.0663 -0.5250  0.0028
11213TIP3    H155054   0.259   3.064  13.925 -1.3822 -1.6255  2.1267
11213TIP3    H255055   0.112   3.099  13.918 -1.2712 -1.5131 -1.0184
11214TIP3   OH255056   2.212   3.820   0.288 -0.3792 -0.4639 -0.1802
11214TIP3    H155057   2.291   3.764   0.287  0.7519  1.0086  1.1603
11214TIP3    H255058   2.189   3.826   0.381 -1.2674  0.2441 -0.4353
11215TIP3   OH255059   4.405   6.633   3.531 -0.0909  0.5470  0.2369
11215TIP3    H155060   4.457   6.714   3.523 -0.7166  0.9757  0.4073
11215TIP3    H255061   4.315   6.663   3.531 -0.4834 -0.3569 -2.5966
11216TIP3   OH255062   4.037   3.519   3.120 -0.2829  0.4455 -0.1977
11216TIP3    H155063   4.114   3.500   3.067 -0.7845  0.7050 -1.0316
11216TIP3    H255064   3.964   3.481   3.071 -0.6546 -0.0741  0.7352
11217TIP3   OH255065   6.933   2.549   5.241  0.0041 -0.1543 -0.1977
11217TIP3    H155066   6.857   2.491   5.249 -0.3750  0.2205 -1.0094
11217TIP3    H255067   6.898   2.637   5.254 -0.1119  0.2229 -2.5906
11218TIP3   OH255068   3.139   3.140  12.576  0.1688 -0.3030  0.4634
11218TIP3    H155069   3.061   3.086  12.562 -0.7048  0.5585  1.7267
11218TIP3    H255070   3.170   3.114  12.663 -0.7569  1.7188  1.4760
11219TIP3   OH255071   5.206   2.495  13.436 -0.4190  0.2329 -0.1736
11219TIP3    H155072   5.187   2.510  13.343  0.4880  0.9995 -0.2562
11219TIP3    H255073   5.163   2.568  13.481 -1.5366 -0.5691  0.1129
11220TIP3   OH255074   6.569   1.593  14.565  0.1582  0.3836  0.0828
11220TIP3    H155075   6.591   1.609  14.657 -0.9806  0.2074  0.4013
11220TIP3    H255076   6.592   1.674  14.520  0.3137  0.6281  0.5941
11221TIP3   OH255077   4.797   3.812   5.673  0.0013  0.4249 -0.8248
11221TIP3    H155078   4.850   3.781   5.747  0.6338  0.1376 -1.3858
11221TIP3    H255079   4.716   3.844   5.713 -0.8109 -2.1243 -0.1838
11222TIP3   OH255080   4.120   5.744  13.250  0.2370  0.2658 -0.0753
11222TIP3    H155081   4.156   5.701  13.327  2.5576  2.4008  0.1443
11222TIP3    H255082   4.097   5.672  13.191  2.3833 -1.3351  0.9101
11223TIP3   OH255083   4.303   2.424  13.451  0.1920 -0.3812  0.3456
11223TIP3    H155084   4.361   2.407  13.377 -0.0224  0.0225  0.0802
11223TIP3    H255085   4.282   2.338  13.486  0.8730 -0.5362  0.3839
11224TIP3   OH255086   5.727   2.258   5.146  0.5935  0.4043 -0.3057
11224TIP3    H155087   5.790   2.323   5.176  0.9912 -0.2322  0.2698
11224TIP3    H255088   5.642   2.303   5.149  0.8335  0.8243  0.2888
11225TIP3   OH255089   6.281   2.161   4.213 -0.0358 -0.2782  0.2387
11225TIP3    H155090   6.228   2.085   4.236  1.6405 -1.4141  0.5578
11225TIP3    H255091   6.371   2.129   4.217  0.6234  1.0951 -1.9464
11226TIP3   OH255092   3.512   4.654  13.782  0.0600 -0.0674  0.9744
11226TIP3    H155093   3.551   4.729  13.737  0.1542 -1.5203 -1.5157
11226TIP3    H255094   3.563   4.578  13.751 -2.2936 -1.5837  0.5592
11227TIP3   OH255095   0.092   6.588   3.961 -0.0165  0.3748  0.0891
11227TIP3    H155096   0.115   6.497   3.981 -1.6476 -0.1704 -0.3272
11227TIP3    H255097   0.090   6.592   3.866  0.3014  0.9344  0.1008
11228TIP3   OH255098   6.989   6.050   4.638 -0.3628 -0.7902 -0.0577
11228TIP3    H155099   7.003   6.027   4.730 -1.1311  0.6198  0.4233
11228TIP3    H255100   6.992   6.145   4.636 -0.5389 -0.7964 -1.4744
11229TIP3   OH255101   0.333   4.344   1.246  0.3842 -0.0836  0.7772
11229TIP3    H155102   0.270   4.275   1.262 -0.2469 -0.6045 -3.0808
11229TIP3    H255103   0.294   4.422   1.286 -2.7465 -0.4113 -1.3056
11230TIP3   OH255104   5.830   2.320   3.027 -0.3175 -0.1046  0.3726
11230TIP3    H155105   5.859   2.408   3.000 -0.9330 -0.1368 -0.4094
11230TIP3    H255106   5.742   2.333   3.061 -1.0960 -0.6602 -1.3459
11231TIP3   OH255107   3.953   1.162  13.409  0.5667 -0.0943 -0.2788
11231TIP3    H155108   3.879   1.102  13.414  1.1293 -0.8336 -0.6195
11231TIP3    H255109   3.950   1.213  13.490 -0.3623 -0.0515 -0.3370
11232TIP3   OH255110   3.571   4.225   0.988  0.3894 -0.4228  0.4499
11232TIP3    H155111   3.624   4.282   0.932 -3.2035  2.8158 -0.0791
11232TIP3    H255112   3.552   4.149   0.934 -0.7367  1.3768 -1.8710
11233TIP3   OH255113   2.035   6.761   4.787 -0.2559 -0.1855  0.4114
11233TIP3    H155114   2.038   6.727   4.697 -0.8070  0.7391  0.0220
11233TIP3    H255115   2.121   6.739   4.824  0.5194  0.6649 -0.8157
11234TIP3   OH255116   5.347   6.587   0.589 -0.1131 -0.5485  0.2883
11234TIP3    H155117   5.268   6.534   0.594 -0.2957 -0.2747  0.3476
11234TIP3    H255118   5.419   6.526   0.605 -0.2701 -0.9131 -0.3699
11235TIP3   OH255119   2.232   5.590   2.567  0.5163 -0.3320  0.0624
11235TIP3    H155120   2.141   5.564   2.584  0.1322 -0.4475 -1.9529
11235TIP3    H255121   2.277   5.508   2.549  1.1546 -0.3178  1.4838
11236TIP3   OH255122   0.860   1.563  14.495  0.6459  0.7703  0.6390
11236TIP3    H155123   0.934   1.508  14.466  1.2477  0.7424  2.1222
11236TIP3    H255124   0.900   1.647  14.517  0.0284  1.1691  0.2611
11237TIP3   OH255125   0.488   5.462  13.910 -0.4175  0.6734  0.0911
11237TIP3    H155126   0.525   5.420  13.987 -2.3031 -0.7218  0.2753
11237TIP3    H255127   0.531   5.548  13.908 -0.3807  0.8106  2.7399
11238TIP3   OH255128   3.563   0.630   2.999 -0.0472  0.3519 -0.1554
11238TIP3    H155129   3.616   0.691   2.947  0.0089 -0.5280 -1.1737
11238TIP3    H255130   3.474   0.665   2.993  0.5722  3.0042  3.2566
11239TIP3   OH255131   2.724   6.749  12.519  0.0381  0.2983  0.0978
11239TIP3    H155132   2.639   6.787  12.500  0.8455  1.8882 -0.5797
11239TIP3    H255133   2.761   6.728  12.433  0.4806 -0.0377  0.3628
11240TIP3   OH255134   6.571   1.116  13.142 -0.2066  0.2775 -0.1711
11240TIP3    H155135   6.505   1.058  13.180 -0.7196 -0.0248 -1.4872
11240TIP3    H255136   6.537   1.204  13.159 -0.4165  0.1462  0.0924
11241TIP3   OH255137   6.572   4.614   2.542  0.1608  0.4829  0.0830
11241TIP3    H155138   6.508   4.647   2.605 -1.1225  2.0218 -1.9054
11241TIP3    H255139   6.633   4.687   2.529  1.9464 -0.6991  1.3643
11242TIP3   OH255140   0.086   6.447   6.000 -0.8958 -0.0470 -0.4753
11242TIP3    H155141   0.052   6.358   6.011 -1.6305 -0.1526 -2.9692
11242TIP3    H255142   0.008   6.500   5.981 -0.1888  0.6162 -1.6384
11243TIP3   OH255143   1.916   3.293   2.052  0.0248 -0.1267 -0.0702
11243TIP3    H155144   2.002   3.290   2.010 -0.3702 -3.1672 -0.9389
11243TIP3    H255145   1.858   3.331   1.986  0.6756  2.3376  0.6708
11244TIP3   OH255146   1.623   3.905   2.848 -0.1744 -0.0392  0.2934
11244TIP3    H155147   1.539   3.878   2.885 -1.0415  0.4451 -1.2476
11244TIP3    H255148   1.688   3.875   2.912 -1.4504 -1.1388  1.1258
11245TIP3   OH255149   0.413   1.817   5.166 -0.5078  0.1752 -0.0254
11245TIP3    H155150   0.366   1.823   5.250  1.8576 -4.5296  2.0173
11245TIP3    H255151   0.366   1.749   5.118 -0.1596  0.8511 -1.3651
11246TIP3   OH255152   2.109   2.514  13.920  0.0283 -0.0019  0.1973
11246TIP3    H155153   2.027   2.503  13.968  0.7374 -0.1748  1.4334
11246TIP3    H255154   2.110   2.607  13.895 -0.3117  0.1237  0.6320
11247TIP3   OH255155   2.127   5.121  10.332  0.0599 -0.0118  0.2364
11247TIP3    H155156   2.147   5.044  10.279  0.5773  1.0346 -1.1459
11247TIP3    H255157   2.173   5.105  10.415  0.5715 -0.9650 -0.2112
11248TIP3   OH255158   0.538   1.985   1.655  0.6636  0.0888  0.2429
11248TIP3    H155159   0.463   2.040   1.676  0.7180  1.1264 -1.9757
11248TIP3    H255160   0.586   2.034   1.588  2.3122 -1.3824  0.2664
11249TIP3   OH255161   5.169   0.541  15.064 -0.1033 -0.3129 -0.1752
11249TIP3    H155162   5.180   0.550  14.969 -1.2167 -0.0035 -0.2911
11249TIP3    H255163   5.074   0.539  15.077  0.0320 -1.8258  0.8023
11250TIP3   OH255164   0.056   4.609  14.436 -0.3768 -0.3288  0.0254
11250TIP3    H155165   0.089   4.571  14.355 -2.1583  0.1765 -0.9910
11250TIP3    H255166   0.014   4.536  14.482  0.2354 -0.5183  0.2962
11251TIP3   OH255167   3.461   2.377  15.312  0.2821 -0.5127 -0.1148
11251TIP3    H155168   3.371   2.406  15.329  1.1221  2.4203 -0.1342
11251TIP3    H255169   3.510   2.404  15.389  1.2049 -2.1462 -0.0811
11252TIP3   OH255170   4.569   6.640   2.692  0.5064 -0.3229 -0.3629
11252TIP3    H155171   4.616   6.591   2.625 -1.9867 -1.8198 -1.1727
11252TIP3    H255172   4.504   6.690   2.643 -1.4732 -1.5708  0.8542
11253TIP3   OH255173   4.549   6.573  14.716 -0.6480 -0.7921  0.0081
11253TIP3    H155174   4.560   6.607  14.627  0.3377 -0.2438  0.3221
11253TIP3    H255175   4.582   6.483  14.711 -0.2983 -0.6593 -0.1070
11254TIP3   OH255176   2.848   4.593  14.517  0.0892  0.2988 -0.1283
11254TIP3    H155177   2.795   4.630  14.445  1.6994  0.9840 -1.0159
11254TIP3    H255178   2.789   4.593  14.592 -1.8463 -0.9411 -1.5409
11255TIP3   OH255179   1.632   0.729  15.287 -0.5447  0.0316  0.2881
11255TIP3    H155180   1.658   0.758  15.374 -1.3470  0.6868  0.3171
11255TIP3    H255181   1.694   0.659  15.266 -0.3858 -0.1806  1.4048
11256TIP3   OH255182   2.474   3.076   3.159 -0.4726 -0.2539 -0.1997
11256TIP3    H155183   2.442   3.157   3.120 -0.2162  0.4091  0.9314
11256TIP3    H255184   2.475   3.093   3.253  0.5406 -1.2250 -0.0131
11257TIP3   OH255185   0.831   1.285  12.272  0.6763  0.2110  0.2152
11257TIP3    H155186   0.910   1.334  12.297 -0.3328  1.4790  1.0770
11257TIP3    H255187   0.768   1.353  12.249  0.1361 -0.8131 -1.5008
11258TIP3   OH255188   6.629   5.135   5.075  0.4838  0.4332 -0.3802
11258TIP3    H155189   6.700   5.070   5.081  1.6728  1.8115  1.6989
11258TIP3    H255190   6.612   5.160   5.166 -3.3884 -0.4798 -0.6866
11259TIP3   OH255191   2.522   6.529   4.398 -0.2197  0.0482  0.0103
11259TIP3    H155192   2.512   6.590   4.326 -2.3418  1.2340  1.2079
11259TIP3    H255193   2.509   6.442   4.359 -3.1915  0.7538 -0.8395
11260TIP3   OH255194   5.735   0.152   0.669 -0.1018  0.0881  0.8197
11260TIP3    H155195   5.757   0.198   0.589 -0.2700  2.7984  2.2211
11260TIP3    H255196   5.674   0.083   0.641  0.3288  0.5431 -1.4171
11261TIP3   OH255197   3.324   4.240   0.795 -0.2936  0.0085 -0.1026
11261TIP3    H155198   3.366   4.257   0.879 -1.0895 -0.9035  0.5111
11261TIP3    H255199   3.276   4.158   0.809  1.8210 -1.7650 -2.2776
11262TIP3   OH255200   6.504   4.177   3.695 -0.0755  0.3371  0.4695
11262TIP3    H155201   6.540   4.089   3.684 -2.8423 -1.1695  2.1936
11262TIP3    H255202   6.529   4.202   3.784  0.8626  1.4366 -0.0761
11263TIP3   OH255203   0.876   2.949   2.399 -0.4292 -0.5339  0.1039
11263TIP3    H155204   0.858   2.870   2.348 -2.3471  0.3614 -0.7315
11263TIP3    H255205   0.813   2.945   2.471 -0.0240 -0.1275  0.4853
11264TIP3   OH255206   2.353   3.600  13.700  0.3084 -0.0349 -0.0755
11264TIP3    H155207   2.285   3.638  13.645  1.0401  0.9614 -0.3297
11264TIP3    H255208   2.411   3.555  13.639  0.5678  0.2089 -0.0140
11265TIP3   OH255209   6.201   1.682   3.503 -0.4964 -0.4328 -0.0476
11265TIP3    H155210   6.145   1.758   3.486  1.3478  0.9426 -0.2365
11265TIP3    H255211   6.193   1.629   3.424 -2.0223 -0.6152  0.1973
11266TIP3   OH255212   4.577   0.104  12.721  0.6671  0.2478 -0.4516
11266TIP3    H155213   4.621   0.038  12.668  0.9430 -0.5467  0.7079
11266TIP3    H255214   4.498   0.125  12.672  0.4495 -1.1447 -0.7564
11267TIP3   OH255215   4.389   6.773   2.501 -0.5938 -0.2135 -0.4961
11267TIP3    H155216   4.405   6.867   2.510  0.4571 -0.4050 -0.2676
11267TIP3    H255217   4.295   6.766   2.486 -1.0599  0.7257  1.6857
11268TIP3   OH255218   4.389   4.810   4.274 -0.4069 -0.1558  0.2363
11268TIP3    H155219   4.365   4.818   4.182  0.4960  0.2385  0.0229
11268TIP3    H255220   4.424   4.721   4.283  2.0680  0.6661 -0.4574
11269TIP3   OH255221   0.314   5.045  14.951 -0.4758  0.0479  0.4673
11269TIP3    H155222   0.285   4.981  15.016 -0.0989  0.3057  0.9009
11269TIP3    H255223   0.286   5.129  14.986 -1.3721  0.0938 -0.3240
11270TIP3   OH255224   3.458   6.252   0.848  0.6049 -0.4392  0.3766
11270TIP3    H155225   3.463   6.167   0.891  2.1380  0.7164  2.7242
11270TIP3    H255226   3.518   6.246   0.774  1.3028 -1.1837  0.9865
11271TIP3   OH255227   5.739   2.971  12.956 -0.5665 -0.3276  0.4814
11271TIP3    H155228   5.824   3.015  12.968  0.0791 -1.8745  1.9573
11271TIP3    H255229   5.681   3.015  13.018 -0.1020 -1.0443  1.4535
11272TIP3   OH255230   3.674   4.600  14.053 -0.1075 -0.1759  0.5986
11272TIP3    H155231   3.730   4.597  14.131  0.4896 -2.5946  0.1545
11272TIP3    H255232   3.603   4.539  14.072 -0.5133 -0.0259 -0.3805
11273TIP3   OH255233   6.943   3.433  11.424 -0.6176  0.1526 -0.1087
11273TIP3    H155234   6.975   3.490  11.353  0.3621 -0.2480 -0.0031
11273TIP3    H255235   7.008   3.443  11.494  0.9152 -2.8327 -0.9365
11274TIP3   OH255236   3.423   4.709   2.172  0.0835  0.0546 -0.3242
11274TIP3    H155237   3.507   4.754   2.173  0.2998 -0.3419  0.4451
11274TIP3    H255238   3.419   4.664   2.257 -0.3150 -1.0086 -0.8828
11275TIP3   OH255239   5.982   1.670   3.001 -0.5050 -0.0258  0.2749
11275TIP3    H155240   6.002   1.735   2.934 -2.5101 -0.0777 -0.4506
11275TIP3    H255241   5.910   1.619   2.964  0.6960 -2.4184  0.9864
11276TIP3   OH255242   0.498   3.752   1.535 -0.2674  0.1240  0.1459
11276TIP3    H155243   0.537   3.722   1.453 -0.3546 -1.7529  0.7365
11276TIP3    H255244   0.570   3.750   1.598 -0.4832  0.2746  0.3992
11277TIP3   OH255245   3.313   3.509   5.583 -0.4052 -0.1749  0.3119
11277TIP3    H155246   3.398   3.512   5.626 -0.6504 -1.3082  0.9378
11277TIP3    H255247   3.290   3.416   5.582 -0.8111 -0.0959 -1.4981
11278TIP3   OH255248   5.340   6.578   2.595  0.4620  0.2657 -0.5669
11278TIP3    H155249   5.415   6.637   2.597  0.2157  0.5672 -0.2250
11278TIP3    H255250   5.263   6.635   2.602  0.1958 -0.0364 -0.9479
11279TIP3   OH255251   0.001   3.441   0.773 -0.3935  0.6049  0.1094
11279TIP3    H155252  -0.044   3.357   0.768  2.3161 -0.9438 -0.9519
11279TIP3    H255253   0.023   3.462   0.682 -0.5496  2.1982  0.4167
11280TIP3   OH255254   3.212   0.396  14.323 -0.4666 -0.4024  0.2474
11280TIP3    H155255   3.267   0.400  14.402  0.6916 -2.3386 -0.3926
11280TIP3    H255256   3.248   0.464  14.266 -1.5132  1.2389  1.4279
11281TIP3   OH255257   0.141   4.285  13.947  0.4319 -0.4374 -0.4069
11281TIP3    H155258   0.068   4.315  14.001  0.1911  0.2377 -1.0875
11281TIP3    H255259   0.106   4.282  13.858  0.3918 -2.9561 -0.3787
11282TIP3   OH255260   0.920   3.339   4.443 -0.3143  0.0516  0.0488
11282TIP3    H155261   0.959   3.255   4.468 -1.7979 -0.5110  0.5765
11282TIP3    H255262   0.828   3.319   4.427 -0.9777  1.7829  1.3831
11283TIP3   OH255263   6.410   0.679  10.435  0.3208 -0.0387 -0.0840
11283TIP3    H155264   6.351   0.652  10.365  0.0146 -0.0698  0.1833
11283TIP3    H255265   6.369   0.646  10.515  0.1636  0.8368  0.2067
11284TIP3   OH255266   4.899   1.587   2.104  0.4647  0.0807 -0.3867
11284TIP3    H155267   4.931   1.560   2.190  0.2377  2.2437  0.4377
11284TIP3    H255268   4.915   1.681   2.101 -1.7959  0.4944 -1.7119
11285TIP3   OH255269   6.865   1.024   1.443 -0.8199 -0.5635  0.3398
11285TIP3    H155270   6.887   1.049   1.532 -0.6335 -0.9532  0.4091
11285TIP3    H255271   6.843   1.106   1.399 -1.5327 -0.4413  0.9074
11286TIP3   OH255272   3.868   0.717   0.839 -0.6758 -0.2884  0.6089
11286TIP3    H155273   3.805   0.666   0.789 -0.3209 -0.0017 -0.1484
11286TIP3    H255274   3.922   0.761   0.773  1.3018 -1.6958  1.1817
11287TIP3   OH255275   6.073   0.569   3.839 -0.6631  0.4117  0.4392
11287TIP3    H155276   6.108   0.600   3.923  0.3748  0.7401 -0.0909
11287TIP3    H255277   6.117   0.624   3.774  0.4936 -1.5255 -0.4815
11288TIP3   OH255278   2.839   2.927  13.994 -0.2757 -0.0251 -0.0683
11288TIP3    H155279   2.922   2.967  13.968  0.0424 -1.1482 -0.8596
11288TIP3    H255280   2.844   2.923  14.089  0.5659 -0.0362 -0.1021
11289TIP3   OH255281   1.186   3.071   1.224  0.1047 -0.2182 -0.1457
11289TIP3    H155282   1.135   3.150   1.244  0.9439  0.1876  0.4195
11289TIP3    H255283   1.149   3.004   1.281 -0.4478 -0.1896 -0.4534
11290TIP3   OH255284   2.630   6.539  10.816 -0.0781  0.3091 -0.5771
11290TIP3    H155285   2.593   6.589  10.744  0.0901  1.2883 -0.0077
11290TIP3    H255286   2.626   6.598  10.891  0.3136 -0.4646  0.0733
11291TIP3   OH255287   2.100   5.737  11.356  0.2097 -0.3038 -0.2046
11291TIP3    H155288   2.171   5.743  11.420 -0.3664 -0.7535  0.4991
11291TIP3    H255289   2.070   5.827  11.345  0.1100 -0.2554  0.4086
11292TIP3   OH255290   1.403   1.426   9.826 -0.6209 -0.4806  0.4118
11292TIP3    H155291   1.341   1.439   9.898  0.6194  0.3409  1.3580
11292TIP3    H255292   1.487   1.409   9.868 -0.4256 -3.1816 -0.8297
11293TIP3   OH255293   5.978   3.983   9.866  0.1638 -0.4424 -0.1894
11293TIP3    H155294   6.072   3.992   9.852  0.1325 -0.2284 -0.2683
11293TIP3    H255295   5.955   3.901   9.823  0.0750  0.1964 -1.4136
11294TIP3   OH255296   3.770   6.700   4.839 -0.0965 -0.1836 -0.4789
11294TIP3    H155297   3.772   6.605   4.827  0.2567  0.0417 -2.5336
11294TIP3    H255298   3.682   6.719   4.872  0.6425 -1.4247  2.6326
11295TIP3   OH255299   4.852   4.867   0.111  0.3123 -0.1158  0.2013
11295TIP3    H155300   4.814   4.784   0.081  0.4843  0.1037 -0.6512
11295TIP3    H255301   4.937   4.871   0.067  0.5442  0.2494  0.6821
11296TIP3   OH255302   1.098   4.608   2.948  0.0274 -0.0430 -0.7599
11296TIP3    H155303   1.043   4.612   2.870  1.5347  0.0785 -1.8456
11296TIP3    H255304   1.151   4.687   2.945  0.6001 -0.3837  0.0028
11297TIP3   OH255305   1.358   3.831   5.093 -0.0679  0.4814  0.3372
11297TIP3    H155306   1.356   3.913   5.142  0.1726  0.2762  0.6935
11297TIP3    H255307   1.266   3.815   5.069  0.1872  2.4020 -2.3544
11298TIP3   OH255308   0.263   4.434   5.177  0.0279 -0.3647 -0.4913
11298TIP3    H155309   0.241   4.340   5.176  0.4030 -0.4541 -1.2598
11298TIP3    H255310   0.188   4.476   5.135 -0.7203 -0.1700  0.9852
11299TIP3   OH255311   1.116   3.033   0.623 -0.2170  0.3982 -0.0099
11299TIP3    H155312   1.029   3.009   0.590 -0.4270  0.7769  0.2619
11299TIP3    H255313   1.138   3.114   0.576  0.6585 -0.4934 -1.2124
11300TIP3   OH255314   2.607   3.796  14.477  0.0760  0.7374  0.2628
11300TIP3    H155315   2.515   3.814  14.498 -0.6445 -0.4490 -1.5916
11300TIP3    H255316   2.636   3.873  14.428  0.7210  1.9837  2.4982
11301TIP3   OH255317   2.240   1.187  13.049 -0.0071 -0.5409 -0.1005
11301TIP3    H155318   2.190   1.257  13.006 -1.0246  0.1003  2.0053
11301TIP3    H255319   2.213   1.107  13.003 -1.8590 -0.0098 -0.0442
11302TIP3   OH255320   2.385   6.104  12.285 -0.3923 -0.3502  0.4961
11302TIP3    H155321   2.296   6.071  12.297 -0.5400  0.2791  1.1870
11302TIP3    H255322   2.389   6.183  12.338  0.1075  0.4893 -0.7346
11303TIP3   OH255323   4.843   1.050   2.490 -0.2527 -0.2489  0.0475
11303TIP3    H155324   4.839   1.146   2.486 -0.3306 -0.2423  0.2812
11303TIP3    H255325   4.760   1.024   2.530 -0.6933 -0.4791 -0.9828
11304TIP3   OH255326   2.489   4.426   3.391 -0.3586  0.6026 -0.3068
11304TIP3    H155327   2.451   4.361   3.332  2.8504  0.4437 -2.4485
11304TIP3    H255328   2.507   4.502   3.336 -1.3707  2.2574  1.5204
11305TIP3   OH255329   6.932   1.728   1.576  0.0917 -0.0199 -0.1941
11305TIP3    H155330   6.838   1.716   1.590  0.2735 -1.4497 -0.0294
11305TIP3    H255331   6.971   1.646   1.607  1.3438  0.3363 -0.7769
11306TIP3   OH255332   4.756   4.929  13.632 -0.5485  0.0584 -0.2042
11306TIP3    H155333   4.717   5.000  13.581  0.9255  1.3009  0.3220
11306TIP3    H255334   4.769   4.965  13.719  2.4706  0.0572 -0.5460
11307TIP3   OH255335   1.380   4.238  11.138 -0.0227  0.1668  0.1904
11307TIP3    H155336   1.471   4.250  11.111  0.8445 -0.2966  2.6366
11307TIP3    H255337   1.381   4.159  11.191 -2.0189 -0.2415 -0.2981
11308TIP3   OH255338   5.195   4.070  15.280 -0.1274  0.3419  0.0061
11308TIP3    H155339   5.127   4.116  15.230 -2.1713  0.1609  2.4150
11308TIP3    H255340   5.272   4.071  15.222 -0.4944  5.2421 -0.8414
11309TIP3   OH255341   6.622   1.817   1.355 -0.0269  0.0914  0.3396
11309TIP3    H155342   6.687   1.861   1.300  0.1577  1.2405  1.4340
11309TIP3    H255343   6.576   1.759   1.295  1.2008  0.1526 -0.7037
11310TIP3   OH255344   3.902   0.401   4.103  0.0780  0.0485  0.1005
11310TIP3    H155345   3.947   0.338   4.047 -0.5516  1.5455 -2.2010
11310TIP3    H255346   3.854   0.346   4.166  1.9296 -1.6469  0.1404
11311TIP3   OH255347   1.879   5.632  13.513  0.1826 -0.0361  0.3982
11311TIP3    H155348   1.923   5.708  13.476  1.3355 -0.7196  0.3091
11311TIP3    H255349   1.849   5.582  13.437 -0.7112  0.3917  0.4575
11312TIP3   OH255350   5.570   2.998   1.744 -0.2534  0.1174  0.1278
11312TIP3    H155351   5.601   2.961   1.661 -0.7950  1.6124 -0.7758
11312TIP3    H255352   5.589   2.930   1.809 -0.1717 -1.2567 -1.2698
11313TIP3   OH255353   4.702   4.249  15.077 -0.4146 -0.3477  0.5143
11313TIP3    H155354   4.617   4.254  15.032 -0.1013  0.3920 -0.0113
11313TIP3    H255355   4.758   4.311  15.030  0.1469 -0.1278  1.4439
11314TIP3   OH255356   3.435   1.757   1.123 -0.6973  0.5493 -0.7746
11314TIP3    H155357   3.346   1.735   1.094 -0.4932  1.1218 -1.8680
11314TIP3    H255358   3.479   1.788   1.044  1.3816 -2.4405 -0.9415
11315TIP3   OH255359   4.217   0.706   1.891  0.0832  0.6503 -0.2536
11315TIP3    H155360   4.237   0.772   1.824 -1.6135  1.1660 -0.3127
11315TIP3    H255361   4.184   0.631   1.842 -2.4180  1.5051 -0.0107
11316TIP3   OH255362   4.220   0.509   3.919 -0.4139  0.2090  0.2393
11316TIP3    H155363   4.187   0.466   3.840  0.1371 -0.3161  0.2875
11316TIP3    H255364   4.144   0.515   3.977 -0.8399  0.6513 -0.3430
11317TIP3   OH255365   3.709   4.751  13.229 -0.1387  0.0683  0.0771
11317TIP3    H155366   3.770   4.679  13.242 -0.3525  0.2879  3.2789
11317TIP3    H255367   3.624   4.710  13.219  0.2256 -0.1801 -2.8929
11318TIP3   OH255368   1.218   2.841   1.875  0.8580  0.1009 -0.3758
11318TIP3    H155369   1.304   2.802   1.856  0.2666 -1.2248 -0.4634
11318TIP3    H255370   1.217   2.851   1.970  0.4933 -1.4861 -0.1786
11319TIP3   OH255371   6.809   1.447  13.579 -0.5602 -0.0592 -0.0100
11319TIP3    H155372   6.817   1.439  13.484 -2.2049 -0.3015 -0.1561
11319TIP3    H255373   6.851   1.368  13.613 -0.9277 -0.5190 -0.5985
11320TIP3   OH255374   5.253   4.294   0.066 -0.1710 -0.0987 -0.4346
11320TIP3    H155375   5.243   4.211   0.019  0.9213 -0.5178  0.0314
11320TIP3    H255376   5.170   4.307   0.111 -1.0427  0.0382 -2.0374
11321TIP3   OH255377   0.246   5.831  14.041  0.6549  0.5705 -0.1219
11321TIP3    H155378   0.193   5.794  14.111  0.4396  1.8207  0.4059
11321TIP3    H255379   0.266   5.757  13.983 -0.6111 -0.1541  0.3402
11322TIP3   OH255380   6.945   5.210   0.441 -0.2667 -0.8419 -0.1424
11322TIP3    H155381   6.938   5.302   0.468  1.2444 -0.5050 -0.7949
11322TIP3    H255382   7.002   5.170   0.507  2.0974 -0.4009 -1.8074
11323TIP3   OH255383   5.916   6.101   1.513  0.4093  0.5128  0.0391
11323TIP3    H155384   5.924   6.181   1.566  0.2641  0.5851 -0.0493
11323TIP3    H255385   5.824   6.077   1.520  0.8878 -1.0158  2.0865
11324TIP3   OH255386   7.049   3.832  10.885  0.1169  0.3350 -0.1589
11324TIP3    H155387   6.999   3.892  10.940  1.0289  1.6439 -0.7097
11324TIP3    H255388   6.985   3.799  10.822  0.0843  2.9196 -1.6430
11325TIP3   OH255389   3.561   2.180   2.188 -0.4901  0.2294  0.3882
11325TIP3    H155390   3.497   2.217   2.249  2.2200  0.6438  3.2435
11325TIP3    H255391   3.581   2.093   2.223  1.7770  0.8142  0.7348
11326TIP3   OH255392   1.873   3.260   2.314 -0.0446 -0.2379  0.1880
11326TIP3    H155393   1.881   3.263   2.219 -0.1276 -0.2062  0.1825
11326TIP3    H255394   1.957   3.295   2.345  0.5670 -1.6049  0.1415
11327TIP3   OH255395   1.448   4.428  13.658 -0.5171  0.1731 -0.3905
11327TIP3    H155396   1.390   4.503  13.666 -0.9879 -0.1830 -0.4418
11327TIP3    H255397   1.460   4.398  13.749 -0.3415  0.2946 -0.3715
11328TIP3   OH255398   1.151   6.740  11.997 -0.5872  0.1327 -0.9664
11328TIP3    H155399   1.177   6.662  11.947 -1.3313 -0.5520 -0.2945
11328TIP3    H255400   1.110   6.797  11.932  0.6612  0.3253 -1.6212
11329TIP3   OH255401   4.087   5.768  14.773  0.2606  0.4517 -0.3195
11329TIP3    H155402   4.157   5.781  14.838  0.8274  3.1984 -1.3215
11329TIP3    H255403   4.131   5.778  14.688 -0.4913 -2.9451 -1.2391
11330TIP3   OH255404   5.933   2.929   1.529  0.8232 -0.4078 -0.4543
11330TIP3    H155405   5.919   2.908   1.621 -0.2207  0.3971 -0.4116
11330TIP3    H255406   5.846   2.954   1.496  1.0279 -1.4392 -1.8604
11331TIP3   OH255407   5.781   6.229   2.787 -0.2699 -0.3808 -0.2982
11331TIP3    H155408   5.804   6.293   2.855  1.0698 -1.5261  0.3875
11331TIP3    H255409   5.699   6.261   2.751  0.1513  1.5050  0.2893
11332TIP3   OH255410   5.066   4.700   5.685 -0.0304  0.1710  0.0260
11332TIP3    H155411   4.993   4.689   5.746 -1.0514  0.6774 -1.0598
11332TIP3    H255412   5.106   4.613   5.680 -1.5468 -0.5392 -0.5305
11333TIP3   OH255413   5.557   4.731   1.802  0.3381  0.3407 -0.1279
11333TIP3    H155414   5.512   4.649   1.784 -0.7836  0.9237 -0.0879
11333TIP3    H255415   5.561   4.775   1.717  0.1115  0.6337  0.0103
11334TIP3   OH255416   0.814   1.990   0.004 -0.6658 -0.2232  0.1775
11334TIP3    H155417   0.758   2.007  -0.073 -2.0813 -0.9815  0.9865
11334TIP3    H255418   0.766   1.924   0.053  1.7144 -2.1126  0.1454
11335TIP3   OH255419   0.478   5.553  12.717  0.0861 -0.7234 -0.0269
11335TIP3    H155420   0.400   5.571  12.664 -0.7564 -0.4295  1.2633
11335TIP3    H255421   0.463   5.465  12.752  0.5608 -0.8558 -0.1558
11336TIP3   OH255422   7.200   3.702   0.186  0.1579  0.0597 -0.6099
11336TIP3    H155423   7.240   3.739   0.107  0.3510  1.1808 -0.0165
11336TIP3    H255424   7.106   3.701   0.166 -0.3640  4.4434  0.6083
11337TIP3   OH255425   6.409   5.102   4.679  0.0450  0.1756 -0.9758
11337TIP3    H155426   6.478   5.123   4.616  2.1335  0.7663  1.3575
11337TIP3    H255427   6.453   5.050   4.746 -2.1730 -0.7642 -0.1492
11338TIP3   OH255428   4.559   1.016   2.837  0.1510  0.3910  0.9862
11338TIP3    H155429   4.625   0.951   2.812 -0.1321 -0.7016  2.9148
11338TIP3    H255430   4.560   1.080   2.765  1.7226 -0.7673 -0.0877
11339TIP3   OH255431   2.929   3.975   2.645 -0.3058  0.0896 -0.4118
11339TIP3    H155432   3.024   3.983   2.655 -0.4628 -0.6061  3.0328
11339TIP3    H255433   2.916   3.962   2.551  3.0525 -0.4260 -0.9551
11340TIP3   OH255434   3.163   3.995   2.055 -0.1633  0.2496  0.4714
11340TIP3    H155435   3.215   4.075   2.047 -1.7102  1.2166 -0.3268
11340TIP3    H255436   3.074   4.025   2.075 -0.9083 -1.2299 -0.3817
11341TIP3   OH255437   6.495   2.683  10.437 -0.3182 -0.1262  0.4213
11341TIP3    H155438   6.473   2.776  10.427  0.2393  0.1931  2.0202
11341TIP3    H255439   6.585   2.676  10.405 -0.3653 -0.1244  0.2877
11342TIP3   OH255440   0.378   3.708   1.908  0.2352 -0.9965 -0.1731
11342TIP3    H155441   0.317   3.634   1.900 -0.1729 -0.6213 -0.7137
11342TIP3    H255442   0.461   3.669   1.931 -0.1789 -1.5436  0.4194
11343TIP3   OH255443   5.922   3.204   1.634  0.1075  0.6082 -0.3488
11343TIP3    H155444   5.907   3.244   1.720 -3.1409 -2.1810  0.6041
11343TIP3    H255445   5.935   3.111   1.652 -0.4008 -0.0198 -2.8183
11344TIP3   OH255446   1.839   5.736   3.818  0.7592 -0.9525 -0.2060
11344TIP3    H155447   1.856   5.794   3.892  0.2719 -0.6746 -0.3086
11344TIP3    H255448   1.851   5.791   3.741 -2.6117 -0.1051 -0.2810
11345TIP3   OH255449   5.816   1.405   1.555  0.0818  0.8448 -0.0629
11345TIP3    H155450   5.730   1.363   1.562  1.1188 -1.4076  0.1513
11345TIP3    H255451   5.828   1.420   1.462 -0.7639  1.7052 -0.0447
11346TIP3   OH255452   5.730   5.283   2.623 -0.1771 -0.1352 -0.5392
11346TIP3    H155453   5.716   5.377   2.626  2.2459  0.2638  1.5503
11346TIP3    H255454   5.782   5.269   2.543  1.8447  0.7736  0.5487
11347TIP3   OH255455   6.587   2.987   9.952 -0.4842 -0.4698 -0.4142
11347TIP3    H155456   6.531   2.958   9.880 -1.2599  0.0139 -0.0183
11347TIP3    H255457   6.530   3.043  10.005  0.2163 -0.4387  0.3112
11348TIP3   OH255458   6.184   4.947  11.002  0.2067  0.1911  0.2038
11348TIP3    H155459   6.140   5.011  11.059  1.4544  0.9068  0.4081
11348TIP3    H255460   6.266   4.927  11.047  0.1522 -1.0449 -0.2098
11349TIP3   OH255461   1.886   5.575   0.138 -0.2801 -0.1489  0.3011
11349TIP3    H155462   1.803   5.543   0.175  0.2428 -0.9953  0.7797
11349TIP3    H255463   1.928   5.622   0.210  0.0006 -0.3816  0.2904
11350TIP3   OH255464   4.034   6.318   0.879  0.0131 -0.1169 -0.1992
11350TIP3    H155465   4.112   6.261   0.878  1.2670  1.5084 -1.7624
11350TIP3    H255466   4.046   6.373   0.956 -0.8767 -1.4540  0.9475
11351TIP3   OH255467   3.860   0.204  14.782  0.2036  0.1938  0.5256
11351TIP3    H155468   3.816   0.240  14.859  0.1401  0.2601  0.4591
11351TIP3    H255469   3.839   0.110  14.784  0.3732  0.1602  0.7012
11352TIP3   OH255470   4.011   5.375   5.203  0.9696 -0.0447 -0.5411
11352TIP3    H155471   4.016   5.429   5.124  1.6517 -2.1839 -2.0337
11352TIP3    H255472   4.098   5.381   5.243  0.7659  0.6631 -0.1892
11353TIP3   OH255473   3.542   4.918   0.464 -0.3715 -0.1266  0.3564
11353TIP3    H155474   3.607   4.966   0.412 -0.9811  0.4783  0.1364
11353TIP3    H255475   3.498   4.986   0.515  0.4798 -0.7491  1.9871
11354TIP3   OH255476   1.647   4.757  11.152 -0.8653 -0.6518  0.4322
11354TIP3    H155477   1.700   4.690  11.107 -0.0276  0.1681  0.1587
11354TIP3    H255478   1.625   4.717  11.236  0.4501 -0.9115  0.6747
11355TIP3   OH255479   4.642   3.300   5.453  0.0373  0.1960  0.0020
11355TIP3    H155480   4.619   3.375   5.509 -0.3015  0.3637 -0.3541
11355TIP3    H255481   4.600   3.320   5.369  1.0861  0.2620 -0.5155
11356TIP3   OH255482   7.052   1.226  15.227  0.6048  0.5222  0.1729
11356TIP3    H155483   7.021   1.227  15.137  1.1636  1.4308 -0.0227
11356TIP3    H255484   7.126   1.167  15.227 -0.4148 -0.8071  0.4125
11357TIP3   OH255485   3.818   5.655   4.617 -0.0366  0.0085 -0.1853
11357TIP3    H155486   3.769   5.611   4.686  3.3420 -3.4796  0.3666
11357TIP3    H255487   3.827   5.589   4.548  1.7613  1.3020 -1.2826
11358TIP3   OH255488   4.535   3.406   4.993 -0.3964 -0.1621  0.2389
11358TIP3    H155489   4.559   3.481   5.048  1.4162  0.1337 -0.8654
11358TIP3    H255490   4.619   3.373   4.960 -1.3176 -1.3681 -1.0028
11359TIP3   OH255491   2.992   2.443   2.896 -0.1906  0.3540  0.2875
11359TIP3    H155492   2.919   2.485   2.940 -0.4849 -0.3898  0.5243
11359TIP3    H255493   2.967   2.441   2.803  1.0854  3.3019 -0.2292
11360TIP3   OH255494   4.693   4.438  14.618  0.0156 -0.2956 -0.6649
11360TIP3    H155495   4.660   4.523  14.647 -0.5304 -0.9442  0.6897
11360TIP3    H255496   4.788   4.449  14.613  0.0371  0.1148  0.4637
11361TIP3   OH255497   3.850   1.790  12.900 -0.3896  0.0188  0.1950
11361TIP3    H155498   3.818   1.877  12.876  0.8629  0.2883 -0.5789
11361TIP3    H255499   3.800   1.768  12.978 -0.6920  1.4674  0.4528
11362TIP3   OH255500   7.126   0.308   3.070 -0.6478 -0.2499 -0.1278
11362TIP3    H155501   7.168   0.222   3.075 -0.7019 -0.2164  1.5762
11362TIP3    H255502   7.198   0.368   3.047 -0.2297 -0.5149  0.4554
11363TIP3   OH255503   2.181   6.872   0.927  0.4369 -0.6544  0.6029
11363TIP3    H155504   2.161   6.795   0.980 -1.0016 -1.6207 -1.2475
11363TIP3    H255505   2.131   6.860   0.846  3.2710  0.2208 -1.4651
11364TIP3   OH255506   4.272   0.439  12.375 -0.0762  0.3928 -0.2131
11364TIP3    H155507   4.213   0.363  12.375  1.6613 -1.0780  2.1943
11364TIP3    H255508   4.221   0.509  12.417 -0.4647 -0.5558  0.9450
11365TIP3   OH255509   2.130   0.915   4.789  0.0073  0.7175  0.0110
11365TIP3    H155510   2.053   0.884   4.742 -0.4246  1.6596  0.0668
11365TIP3    H255511   2.131   1.009   4.773  0.6048  0.8528  0.7964
11366TIP3   OH255512   2.430   4.223  14.258 -0.1393  0.1589  0.1579
11366TIP3    H155513   2.343   4.203  14.222 -0.8595  0.6878  1.5282
11366TIP3    H255514   2.473   4.273  14.188 -1.2750  0.6813 -0.2103
11367TIP3   OH255515   2.514   2.551   3.183  0.2774  0.4898 -0.2111
11367TIP3    H155516   2.422   2.528   3.198  0.5978 -0.7493 -0.1051
11367TIP3    H255517   2.510   2.641   3.149 -1.0875 -0.1136 -1.7764
11368TIP3   OH255518   4.439   1.019  15.284  0.1743  0.7980  0.2185
11368TIP3    H155519   4.402   1.083  15.223 -0.7037  1.4619  1.3938
11368TIP3    H255520   4.455   1.069  15.364 -2.5357 -0.8056  1.9140
11369TIP3   OH255521   5.989   4.072   2.555  0.5195  0.0545 -0.4652
11369TIP3    H155522   5.985   4.099   2.646 -0.3763  0.1039 -0.5109
11369TIP3    H255523   6.081   4.084   2.530  0.4897  1.3935  0.0158
11370TIP3   OH255524   4.869   5.509  14.778 -0.5097  0.1318  0.1714
11370TIP3    H155525   4.832   5.515  14.690 -1.3604 -1.9220  0.3599
11370TIP3    H255526   4.795   5.524  14.836 -0.3912 -0.7415  0.5479
11371TIP3   OH255527   0.107   2.221  13.473  0.7864 -0.2018 -0.3781
11371TIP3    H155528   0.057   2.301  13.491 -2.7912 -2.2617 -0.3267
11371TIP3    H255529   0.179   2.224  13.536  0.0861  2.3977  0.4312
11372TIP3   OH255530   3.617   0.747  13.385  0.4864 -0.0661  0.0202
11372TIP3    H155531   3.568   0.704  13.315 -0.8637 -1.7066  1.8650
11372TIP3    H255532   3.695   0.694  13.397 -0.3768 -1.1496  1.1840
11373TIP3   OH255533   1.427   0.698   5.115  0.2448  0.8170 -0.3165
11373TIP3    H155534   1.435   0.733   5.027  2.8710 -1.5634 -1.1634
11373TIP3    H255535   1.421   0.603   5.102 -1.0121  0.4925  2.0527
11374TIP3   OH255536   1.541   7.087  12.748  0.1265 -0.6334 -0.0372
11374TIP3    H155537   1.618   7.115  12.698 -0.7554  3.1796  0.3939
11374TIP3    H255538   1.499   7.022  12.692  1.8847 -0.3505 -1.8296
11375TIP3   OH255539   1.768   2.998   1.899 -0.1582 -0.0114 -0.6088
11375TIP3    H155540   1.756   3.043   1.982  0.2963 -0.4881 -0.2727
11375TIP3    H255541   1.822   3.057   1.846 -1.8334  1.0430 -1.2127
11376TIP3   OH255542   2.771   3.263  13.414 -0.2110  0.8320  0.0664
11376TIP3    H155543   2.749   3.170  13.401 -1.6539  1.0306  0.7701
11376TIP3    H255544   2.739   3.306  13.335  0.7532  0.7087 -0.4056
11377TIP3   OH255545   0.685   5.676  15.123 -0.3928 -0.0891  0.1989
11377TIP3    H155546   0.776   5.666  15.150  0.5078  1.4960 -1.9021
11377TIP3    H255547   0.661   5.764  15.152 -0.7766  0.0286 -0.4458
11378TIP3   OH255548   6.060   3.403   5.022 -0.1191  0.0605  0.3372
11378TIP3    H155549   6.073   3.371   4.933  1.3840 -1.3827  1.0117
11378TIP3    H255550   5.983   3.356   5.054  1.0865 -1.7634  0.7460
11379TIP3   OH255551   2.121   4.392  10.123  0.1988  0.4563 -0.2407
11379TIP3    H155552   2.143   4.306  10.158 -1.5858 -0.3066 -0.8921
11379TIP3    H255553   2.188   4.409  10.056 -0.0846 -0.9475 -0.9041
11380TIP3   OH255554   4.886   2.261   2.107  0.0983  0.2611 -0.4703
11380TIP3    H155555   4.889   2.223   2.195 -1.0078  0.9250 -0.1218
11380TIP3    H255556   4.976   2.254   2.075  0.8573  1.3110  1.2805
11381TIP3   OH255557   1.891   3.670   0.231 -0.3039 -0.1919 -0.2553
11381TIP3    H155558   1.897   3.622   0.313 -3.5610  2.4392  1.7791
11381TIP3    H255559   1.814   3.634   0.187 -0.3139  0.3616 -0.7074
11382TIP3   OH255560   0.987   5.248  14.050 -0.4692 -0.5514 -0.6859
11382TIP3    H155561   1.003   5.155  14.063 -0.5259 -0.3499  1.1297
11382TIP3    H255562   1.069   5.290  14.075 -0.7979 -0.0514 -0.4272
11383TIP3   OH255563   4.895   5.139   4.090  0.1178 -0.3124  0.5229
11383TIP3    H155564   4.827   5.143   4.157  1.4885 -0.1159  1.9495
11383TIP3    H255565   4.881   5.217   4.036 -0.4868 -0.0245  1.0904
11384TIP3   OH255566   3.608   5.929  15.309 -0.2676  0.4732  0.2185
11384TIP3    H155567   3.526   5.930  15.260 -0.7334  0.3503  0.9735
11384TIP3    H255568   3.648   5.845  15.286 -0.4202  0.4702 -0.0406
11385TIP3   OH255569   6.833   6.370   2.212 -0.0749  0.0593 -0.1372
11385TIP3    H155570   6.773   6.362   2.286 -2.0139 -1.3105 -1.7649
11385TIP3    H255571   6.839   6.281   2.176  3.4480 -0.0215  0.2480
11386TIP3   OH255572   3.956   3.691   0.084  0.0748 -0.4676  0.0265
11386TIP3    H155573   3.899   3.767   0.097  0.8930 -0.0065  1.0464
11386TIP3    H255574   4.038   3.715   0.127  0.4880 -1.7672 -0.0046
11387TIP3   OH255575   1.193   6.596   1.701  0.3624  0.8552  0.1388
11387TIP3    H155576   1.221   6.660   1.635 -0.7184  0.4381 -0.7643
11387TIP3    H255577   1.226   6.512   1.667  0.4370  0.7355  0.5096
11388TIP3   OH255578   7.037   4.487  13.646 -0.5918 -0.4494 -0.0069
11388TIP3    H155579   6.996   4.445  13.571 -0.5191 -0.4162 -0.0648
11388TIP3    H255580   7.038   4.580  13.624 -0.5631 -0.4409  0.0312
11389TIP3   OH255581   1.936   4.229   0.107  0.5200 -0.0770  0.0831
11389TIP3    H155582   1.919   4.204   0.198 -0.4527 -2.0956 -0.5973
11389TIP3    H255583   1.849   4.230   0.066  1.0354 -0.2149 -1.0545
11390TIP3   OH255584   4.165   1.577   5.776 -0.2606 -0.9201 -0.4749
11390TIP3    H155585   4.165   1.581   5.871  1.3076 -0.1271 -0.4673
11390TIP3    H255586   4.122   1.658   5.748 -0.6979 -1.1409 -0.4546
11391TIP3   OH255587   2.465   3.925   5.018 -0.8414  0.4039  0.0224
11391TIP3    H155588   2.436   3.893   4.933  0.7349 -1.1680  0.0241
11391TIP3    H255589   2.442   3.856   5.079 -1.7199  1.4088  0.8490
11392TIP3   OH255590   4.638   6.004   4.912  0.7206 -0.0925  0.6811
11392TIP3    H155591   4.583   6.052   4.851  0.8983 -1.0867 -0.2990
11392TIP3    H255592   4.718   6.055   4.919  0.2942  0.5506  0.8799
11393TIP3   OH255593   4.199   5.605   0.915 -0.0170  0.2687  0.1142
11393TIP3    H155594   4.184   5.514   0.890 -0.1530  0.4037 -0.3074
11393TIP3    H255595   4.150   5.615   0.997 -3.1795  0.9377 -1.6573
11394TIP3   OH255596   0.440   6.953  13.982  0.6136 -0.2498  0.3527
11394TIP3    H155597   0.391   6.958  14.064 -0.5893  0.1322 -0.3547
11394TIP3    H255598   0.451   7.044  13.955 -1.1980 -0.3980 -1.1201
11395TIP3   OH255599   5.003   1.691   4.525  0.0244 -0.2543 -0.1695
11395TIP3    H155600   5.059   1.629   4.573  1.2208 -1.2821 -2.7313
11395TIP3    H255601   5.059   1.767   4.510 -0.4050  0.1349  0.1571
11396TIP3   OH255602   2.606   5.875   3.974 -0.2993 -0.0476  0.1491
11396TIP3    H155603   2.563   5.960   3.977 -0.1423  0.0813 -0.8804
11396TIP3    H255604   2.664   5.875   4.050 -0.4699  0.6813  0.2871
11397TIP3   OH255605   4.138   6.953   3.238  0.2547 -0.1850  0.1068
11397TIP3    H155606   4.073   6.927   3.173  0.5415  2.0885 -1.1960
11397TIP3    H255607   4.222   6.937   3.196  0.5756 -1.7236  1.2254
11398TIP3   OH255608   5.833   2.270   4.365  0.1948  0.7907  0.4152
11398TIP3    H155609   5.784   2.345   4.399 -1.3643 -0.4901  1.1338
11398TIP3    H255610   5.813   2.270   4.271 -1.3371  0.2488  0.7014
11399TIP3   OH255611   0.221   4.307   1.623  0.4530  0.3849  0.7583
11399TIP3    H155612   0.209   4.370   1.694 -0.3129  3.8979 -2.1436
11399TIP3    H255613   0.309   4.324   1.590 -0.0837  0.6531 -0.6169
11400TIP3   OH255614   6.765   1.162  15.320  0.0801 -0.0037  0.4158
11400TIP3    H155615   6.763   1.140  15.413 -0.0837  0.5975  0.5594
11400TIP3    H255616   6.858   1.168  15.299  0.1279 -0.7036  0.3968
11401TIP3   OH255617   3.053   5.145   4.471  0.0464 -0.5076  0.2359
11401TIP3    H155618   3.022   5.054   4.465  0.6309 -0.6686 -0.5233
11401TIP3    H255619   3.086   5.164   4.383 -0.3845  0.5579  0.2926
11402TIP3   OH255620   3.296   1.734   4.275 -0.0583  0.5002  0.0510
11402TIP3    H155621   3.354   1.744   4.351  1.3719  2.1729 -1.1655
11402TIP3    H255622   3.210   1.762   4.307  0.7248  2.1689  0.8449
11403TIP3   OH255623   1.793   4.816   0.893 -0.8672  0.5906  0.0999
11403TIP3    H155624   1.862   4.797   0.956 -1.5233 -1.1449  0.3484
11403TIP3    H255625   1.829   4.884   0.838  0.4734  0.7569  1.1399
11404TIP3   OH255626   1.619   4.674   5.904  0.0925 -0.5101 -0.0764
11404TIP3    H155627   1.545   4.653   5.847  0.3671  1.4570 -1.2566
11404TIP3    H255628   1.664   4.746   5.860  0.9078  0.4578  2.1623
11405TIP3   OH255629   4.626   1.550   0.845  0.1960  0.2979  0.0600
11405TIP3    H155630   4.546   1.524   0.889  0.6827  1.5538  1.7941
11405TIP3    H255631   4.683   1.583   0.915  1.6536  0.8243 -1.3030
11406TIP3   OH255632   6.864   4.161   2.916 -0.7853  0.1819  0.2215
11406TIP3    H155633   6.887   4.241   2.869  0.6489  0.2714  0.9865
11406TIP3    H255634   6.769   4.156   2.912 -0.7589  0.6577 -1.8642
11407TIP3   OH255635   4.589   1.427  12.128  0.1860 -0.6701  0.1558
11407TIP3    H155636   4.665   1.451  12.181 -0.2673  0.3344  0.3669
11407TIP3    H255637   4.626   1.399  12.044  0.7549  4.1720 -1.5224
11408TIP3   OH255638   5.885   5.440   0.035 -0.5137 -0.0876 -0.1827
11408TIP3    H155639   5.940   5.409  -0.037 -0.5173  0.1439 -0.2863
11408TIP3    H255640   5.869   5.532   0.014 -1.6713 -0.3729 -0.6257
11409TIP3   OH255641   0.437   1.030  12.526 -0.2174 -0.1832 -0.1278
11409TIP3    H155642   0.356   1.081  12.519  0.2799  0.8137  1.0078
11409TIP3    H255643   0.438   0.976  12.447 -2.3134 -0.7099  0.1329
11410TIP3   OH255644   4.141   6.569  13.088 -0.5293  0.2940 -0.6057
11410TIP3    H155645   4.182   6.486  13.114 -0.1569  0.6365 -0.0832
11410TIP3    H255646   4.082   6.590  13.161  0.8243  1.4712  0.1935
11411TIP3   OH255647   6.055   5.131  11.146  0.1841  0.2873  0.4429
11411TIP3    H155648   6.035   5.117  11.238 -0.7402 -0.4363  0.1521
11411TIP3    H255649   5.983   5.088  11.099  2.0635 -1.8543 -0.6653
11412TIP3   OH255650   5.569   1.687  12.835 -0.3287  0.3320 -0.2454
11412TIP3    H155651   5.569   1.773  12.877 -0.4090 -0.4797  1.4845
11412TIP3    H255652   5.481   1.679  12.798 -0.1304  1.2232 -0.9325
11413TIP3   OH255653   1.187   5.817   5.476 -0.0757 -0.3937 -0.6367
11413TIP3    H155654   1.153   5.736   5.513  1.2382 -0.7559 -0.1565
11413TIP3    H255655   1.282   5.808   5.481  0.1512  1.8315  1.0030
11414TIP3   OH255656   0.878   0.180   4.315  0.3904  0.3519  0.2368
11414TIP3    H155657   0.899   0.103   4.367 -1.2280 -1.0828 -1.1063
11414TIP3    H255658   0.963   0.208   4.279  1.1532 -0.1096  1.6157
11415TIP3   OH255659   3.580   3.344   4.713  0.1746 -0.2436 -0.2551
11415TIP3    H155660   3.602   3.257   4.748  2.2655  0.7124  0.9776
11415TIP3    H255661   3.544   3.392   4.787 -0.3191  0.1728 -0.7561
11416TIP3   OH255662   6.459   3.031   3.669  0.5494 -0.2610  0.1506
11416TIP3    H155663   6.430   3.086   3.741  2.6195  0.7730  0.2593
11416TIP3    H255664   6.426   3.075   3.590  1.2266  0.5190  0.2985
11417TIP3   OH255665   0.950   6.700   0.914 -0.3572  0.0829  0.4087
11417TIP3    H155666   0.999   6.705   0.831 -2.0425 -0.8784 -0.6949
11417TIP3    H255667   1.007   6.745   0.977  1.3175  0.2060 -1.0861
11418TIP3   OH255668   2.463   6.409   3.828 -0.1600  0.2639  0.5516
11418TIP3    H155669   2.422   6.445   3.907 -0.1532  0.6668  0.3733
11418TIP3    H255670   2.549   6.450   3.826  0.9400 -1.7776  1.8117
11419TIP3   OH255671   3.404   1.974   4.367 -0.0422  0.0478 -0.0437
11419TIP3    H155672   3.321   2.020   4.378  0.9449  1.6589  1.0113
11419TIP3    H255673   3.417   1.971   4.273 -1.6392 -0.9077 -0.2703
11420TIP3   OH255674   5.061   6.991  15.234 -0.0798  0.5617 -0.0227
11420TIP3    H155675   4.983   6.940  15.213  0.1673  0.3474 -0.4351
11420TIP3    H255676   5.110   6.935  15.294  1.1424 -0.5723 -1.9757
11421TIP3   OH255677   4.356   0.707   3.532  0.1327 -0.3936  0.0001
11421TIP3    H155678   4.322   0.619   3.515  0.6327 -0.5085 -0.4414
11421TIP3    H255679   4.316   0.761   3.464 -2.1595  0.2512  1.7342
11422TIP3   OH255680   5.385   5.088   0.740 -0.2262 -0.5359  0.1728
11422TIP3    H155681   5.344   5.059   0.658 -0.4717  0.8217 -0.2088
11422TIP3    H255682   5.430   5.169   0.717  1.4721 -1.2206  0.9273
11423TIP3   OH255683   1.640   4.514   1.506 -0.6067  0.3878 -0.3936
11423TIP3    H155684   1.598   4.515   1.592 -0.4433 -0.7093 -0.2884
11423TIP3    H255685   1.686   4.598   1.501  0.6682 -0.1578  1.2411
11424TIP3   OH255686   4.335   0.096   3.173  0.0723  0.6863  0.4185
11424TIP3    H155687   4.371   0.183   3.154 -0.4695  0.8130 -0.0430
11424TIP3    H255688   4.343   0.088   3.268 -0.1958  1.3886  0.5055
11425TIP3   OH255689   1.101   6.548  11.056 -0.3916 -0.0555 -0.1495
11425TIP3    H155690   1.053   6.603  11.117 -1.3904 -0.6606 -0.3611
11425TIP3    H255691   1.190   6.584  11.055  0.0502 -0.8666  2.7114
11426TIP3   OH255692   0.596   1.959   0.515  0.2785  0.4343  0.1837
11426TIP3    H155693   0.513   1.967   0.469  1.4451 -0.9694 -2.3788
11426TIP3    H255694   0.624   1.868   0.499  2.0753  0.7211  1.3496
11427TIP3   OH255695   4.593   2.195   5.727 -0.6778 -0.1857  0.6320
11427TIP3    H155696   4.543   2.266   5.768 -0.7767  0.9660 -1.3797
11427TIP3    H255697   4.527   2.142   5.682 -0.5696 -1.4478  1.8740
11428TIP3   OH255698   5.079   1.500   3.611 -0.1195 -0.6019  1.0282
11428TIP3    H155699   5.013   1.505   3.681 -0.7121  0.9898  0.4074
11428TIP3    H255700   5.075   1.586   3.569  2.1740 -0.5701  0.7858
11429TIP3   OH255701   1.622   6.859  10.286  0.4902 -0.4458 -0.0662
11429TIP3    H155702   1.644   6.826  10.199 -1.4713 -0.8696 -0.4415
11429TIP3    H255703   1.539   6.817  10.307 -1.5129  3.1776  0.0203
11430TIP3   OH255704   4.163   2.851  13.395 -0.3241  0.0509  0.5716
11430TIP3    H155705   4.084   2.881  13.440 -0.7620 -2.2296  1.4526
11430TIP3    H255706   4.225   2.830  13.465  0.3248 -0.1257 -0.0374
11431TIP3   OH255707   2.110   6.186   0.435 -0.4303 -0.2411  0.4111
11431TIP3    H155708   2.029   6.137   0.452 -1.1722  0.9429  0.4341
11431TIP3    H255709   2.124   6.177   0.341  0.0258 -1.3423  0.5690
11432TIP3   OH255710   4.985   2.968   1.449  0.1705 -0.2640  0.5279
11432TIP3    H155711   5.005   2.925   1.532  0.8878 -0.2339  0.3783
11432TIP3    H255712   5.039   3.047   1.449  1.0338 -0.8257 -0.4472
11433TIP3   OH255713   5.432   1.564  10.725  0.6674 -0.2716  0.1713
11433TIP3    H155714   5.472   1.566  10.637  1.0817 -0.5752  0.3485
11433TIP3    H255715   5.403   1.474  10.736  1.1321 -0.3722  0.5744
11434TIP3   OH255716   2.769   2.803  11.687  0.2814  0.8703  0.0387
11434TIP3    H155717   2.727   2.739  11.745  0.0816  0.2782 -0.7473
11434TIP3    H255718   2.700   2.830  11.627  0.8694  0.2974 -0.9126
11435TIP3   OH255719   2.651   4.719   4.110  0.6239  0.6172  0.1843
11435TIP3    H155720   2.709   4.696   4.037  0.7824  2.2528 -0.2598
11435TIP3    H255721   2.708   4.717   4.187  1.1815  1.6996 -0.1751
11436TIP3   OH255722   6.706   2.433   3.535  0.0114  0.2221 -0.2121
11436TIP3    H155723   6.678   2.389   3.455  0.9918  0.6304 -0.7999
11436TIP3    H255724   6.669   2.521   3.529 -0.3985  0.0735  0.0720
11437TIP3   OH255725   1.194   6.196   5.585 -0.7396 -0.1949  0.0900
11437TIP3    H155726   1.146   6.236   5.658  0.3863 -1.7572  1.7700
11437TIP3    H255727   1.287   6.207   5.608 -0.3711 -1.4921 -0.6423
11438TIP3   OH255728   2.956   5.517  12.986 -0.2426  0.0686  0.2771
11438TIP3    H155729   3.040   5.541  13.024 -0.2590  0.3332  0.1497
11438TIP3    H255730   2.931   5.436  13.031  0.5506 -0.5490 -0.3726
11439TIP3   OH255731   3.676   6.492   1.036 -0.1993 -0.0978 -0.0648
11439TIP3    H155732   3.675   6.408   0.991 -2.2540 -0.9409  1.4056
11439TIP3    H255733   3.730   6.477   1.114  1.7597  0.8061 -1.1833
11440TIP3   OH255734   3.538   4.083   3.273  0.8129  0.5780 -0.2372
11440TIP3    H155735   3.496   4.152   3.223 -2.3200 -0.9141  0.1133
11440TIP3    H255736   3.564   4.126   3.355 -0.6143  1.4630 -0.2177
11441TIP3   OH255737   0.520   3.858   3.901 -0.0623 -0.4767  0.3735
11441TIP3    H155738   0.455   3.928   3.897 -0.2094 -0.6358 -0.0297
11441TIP3    H255739   0.532   3.830   3.810  2.0801  0.9285  0.1530
11442TIP3   OH255740   2.549   3.526   5.128  0.2026  0.4765  0.3478
11442TIP3    H155741   2.644   3.527   5.144  0.2872  1.2842 -0.1367
11442TIP3    H255742   2.510   3.555   5.210  0.3615 -0.1262  0.6374
11443TIP3   OH255743   4.943   0.270  11.901  0.2451  0.1705 -0.3947
11443TIP3    H155744   4.866   0.321  11.928  0.6716 -0.0633  1.4158
11443TIP3    H255745   4.917   0.178  11.915  0.0156 -0.0536 -2.1533
11444TIP3   OH255746   1.914   3.567  15.050  0.2589 -0.0613  0.4022
11444TIP3    H155747   1.833   3.525  15.023 -1.2169  2.2286  0.9898
11444TIP3    H255748   1.976   3.549  14.979 -0.9790 -1.2023 -0.4304
11445TIP3   OH255749   1.433   2.316   3.600 -0.1469  0.2913 -0.1962
11445TIP3    H155750   1.381   2.318   3.520  0.5326 -1.3143 -0.7113
11445TIP3    H255751   1.489   2.394   3.595  0.4442 -0.2070 -1.6673
11446TIP3   OH255752   5.663   1.285   1.036  0.5043  0.2154 -0.0430
11446TIP3    H155753   5.590   1.250   0.985  0.0634  1.6961 -0.4786
11446TIP3    H255754   5.664   1.378   1.015  3.1022  0.0999 -0.7424
11447TIP3   OH255755   4.812   5.635   5.131 -1.1037 -0.3244  0.0764
11447TIP3    H155756   4.824   5.644   5.226 -0.8362 -1.5615  0.1767
11447TIP3    H255757   4.895   5.600   5.099 -1.1373  0.2299 -0.6466
11448TIP3   OH255758   6.391   1.714   1.739  0.0094  0.8081  0.2618
11448TIP3    H155759   6.377   1.806   1.761 -2.7304 -0.0249  2.6415
11448TIP3    H255760   6.401   1.671   1.824  1.1193 -1.1145 -0.7951
11449TIP3   OH255761   6.939   6.117  14.692  0.0100 -0.2259 -0.3778
11449TIP3    H155762   6.898   6.031  14.681  0.1830 -0.3287 -0.2248
11449TIP3    H255763   7.014   6.116  14.633  0.1052 -0.2401 -0.2567
11450TIP3   OH255764   3.675   5.687  11.654  0.5202  0.3380 -0.3919
11450TIP3    H155765   3.685   5.627  11.580 -2.1325  3.2556 -3.4364
11450TIP3    H255766   3.588   5.668  11.690  1.0570  0.1488  0.8721
11451TIP3   OH255767   5.313   5.230   1.715 -0.2247 -0.0637  0.0925
11451TIP3    H155768   5.263   5.259   1.791 -1.6286  0.2770 -0.9094
11451TIP3    H255769   5.370   5.161   1.748 -0.8137  0.0642  1.4410
11452TIP3   OH255770   1.701   2.735   1.891 -0.1600  0.3715  0.2064
11452TIP3    H155771   1.696   2.701   1.980  0.1547 -0.7539 -0.1870
11452TIP3    H255772   1.737   2.823   1.900  1.8099 -0.4690  1.0458
11453TIP3   OH255773   6.836   4.965  10.304 -0.3504  0.0474  0.0570
11453TIP3    H155774   6.867   4.889  10.255 -0.4031  0.9157 -1.3804
11453TIP3    H255775   6.915   5.008  10.334 -0.1073  1.4349 -2.3277
11454TIP3   OH255776   0.439   6.482   2.729  0.0100 -0.1907 -0.0277
11454TIP3    H155777   0.443   6.443   2.817 -1.1562 -0.2733  0.0049
11454TIP3    H255778   0.362   6.540   2.732  0.5971  0.6388 -0.6697
11455TIP3   OH255779   6.268   5.796   1.714 -0.1267  0.1491  0.4424
11455TIP3    H155780   6.272   5.860   1.785 -0.9488 -1.1835  1.7605
11455TIP3    H255781   6.178   5.800   1.682 -0.5446 -1.1407  1.3612
11456TIP3   OH255782   0.890   5.454   1.341 -0.5238  0.2814  0.3201
11456TIP3    H155783   0.983   5.476   1.330 -0.1406 -1.5780 -0.6547
11456TIP3    H255784   0.851   5.469   1.255 -1.0242  0.5720  0.5930
11457TIP3   OH255785   3.474   2.241   4.233 -0.3710  0.3292 -0.4998
11457TIP3    H155786   3.450   2.211   4.320 -2.3346  0.0866 -1.0749
11457TIP3    H255787   3.468   2.162   4.178  1.8638  0.2420 -0.7238
11458TIP3   OH255788   3.975   1.628  11.906  0.3311 -0.1941  0.0853
11458TIP3    H155789   3.995   1.707  11.856 -0.4579 -0.3321 -0.4647
11458TIP3    H255790   3.961   1.560  11.840  1.2687 -0.8754  0.5546
11459TIP3   OH255791   6.098   4.426  13.381  0.1472 -0.2090 -0.1315
11459TIP3    H155792   6.033   4.493  13.358 -0.9590 -0.5101  1.8635
11459TIP3    H255793   6.046   4.346  13.393  0.8986 -0.5349  1.1764
11460TIP3   OH255794   6.218   5.176   2.604 -0.2961  0.4371  0.2509
11460TIP3    H155795   6.181   5.264   2.614  0.1437  1.1984 -3.3700
11460TIP3    H255796   6.299   5.190   2.555 -0.3164 -2.0023 -0.6014
11461TIP3   OH255797   7.090   5.919   3.495  0.1072 -0.7310  0.1429
11461TIP3    H155798   7.021   5.900   3.431 -0.0082  0.6778 -0.1910
11461TIP3    H255799   7.118   5.834   3.526  0.4218 -1.4977 -2.0549
11462TIP3   OH255800   5.114   2.295   4.227 -0.0762 -0.1109  0.7948
11462TIP3    H155801   5.023   2.271   4.209  0.0360 -1.9192  2.3329
11462TIP3    H255802   5.159   2.283   4.144 -0.9201 -0.9010  0.4342
11463TIP3   OH255803   3.684   1.541   3.298  0.2700  0.0938  0.2189
11463TIP3    H155804   3.665   1.583   3.382  2.7424 -0.6792  1.2502
11463TIP3    H255805   3.698   1.449   3.320 -0.4557 -0.4030 -1.2860
11464TIP3   OH255806   7.156   6.877  15.288 -0.0025 -0.2854 -0.2597
11464TIP3    H155807   7.136   6.785  15.272  1.7914 -0.6709 -0.4677
11464TIP3    H255808   7.108   6.924  15.220  0.1674 -1.1868 -1.0249
11465TIP3   OH255809   0.796   5.793   3.037  0.2477  0.2463  0.2460
11465TIP3    H155810   0.847   5.714   3.054 -0.2112 -0.4374 -1.4276
11465TIP3    H255811   0.834   5.831   2.958 -1.3728  0.0949 -0.6462
11466TIP3   OH255812   3.566   7.087   0.693  0.5830  0.5277  0.2257
11466TIP3    H155813   3.510   7.122   0.624 -0.0528  0.9639  0.9602
11466TIP3    H255814   3.517   7.013   0.729  1.5139 -0.5924 -0.6921
11467TIP3   OH255815   0.459   6.676   3.966 -0.5727 -0.3680  0.2063
11467TIP3    H155816   0.520   6.691   4.037 -0.2281 -0.2959 -0.1035
11467TIP3    H255817   0.459   6.581   3.954  0.1096 -0.3033 -0.3437
11468TIP3   OH255818   5.794   2.660   1.800 -0.5906  0.2078 -0.1274
11468TIP3    H155819   5.738   2.712   1.857 -0.0570  1.0666 -0.3627
11468TIP3    H255820   5.734   2.616   1.739 -1.0653  0.3266  0.2574
11469TIP3   OH255821   4.693   1.139   1.430 -0.0812  0.2228  0.4879
11469TIP3    H155822   4.620   1.085   1.399 -0.2514  0.0374  1.1912
11469TIP3    H255823   4.763   1.124   1.366 -0.2540 -0.5442  0.4727
11470TIP3   OH255824   0.276   3.660  14.229  0.3261  0.1353  0.7030
11470TIP3    H155825   0.225   3.679  14.307  0.6028 -2.5418  1.6328
11470TIP3    H255826   0.358   3.623  14.262  1.1630  0.4972 -0.8452
11471TIP3   OH255827   2.799   4.694   3.576  0.4298 -0.1873  0.3709
11471TIP3    H155828   2.744   4.772   3.586 -0.4361 -0.9408  1.8326
11471TIP3    H255829   2.889   4.727   3.586  0.3174  1.0308 -1.8946
11472TIP3   OH255830   7.181   0.835  12.528 -0.4561  0.2916 -0.0133
11472TIP3    H155831   7.210   0.848  12.438 -1.2896  0.3979 -0.2720
11472TIP3    H255832   7.105   0.777  12.521 -0.7998  0.6613  0.5827
11473TIP3   OH255833   3.554   7.076  10.946  0.3194 -0.2178 -0.5384
11473TIP3    H155834   3.471   7.124  10.951  0.9629  0.8948 -0.0789
11473TIP3    H255835   3.617   7.142  10.917  1.5670 -0.3225  1.7273
11474TIP3   OH255836   6.668   6.981   3.231 -0.1315  0.1891  0.4533
11474TIP3    H155837   6.731   6.929   3.180 -0.3118  0.1048  0.3175
11474TIP3    H255838   6.657   7.062   3.181 -0.3004  0.1110  0.3655
11475TIP3   OH255839   2.039   5.002   5.139 -0.0068  0.0750  0.5383
11475TIP3    H155840   2.014   5.069   5.075 -0.1837 -0.6321 -0.1426
11475TIP3    H255841   2.091   5.050   5.204 -0.2267  0.8963  0.1254
11476TIP3   OH255842   0.759   1.410   5.111 -0.1328  0.3700  0.6997
11476TIP3    H155843   0.719   1.473   5.170 -1.3774  0.8554 -0.5805
11476TIP3    H255844   0.687   1.382   5.054  1.3142  1.2960 -1.7357
11477TIP3   OH255845   4.640   5.415   0.537 -0.1764  0.7019 -0.0630
11477TIP3    H155846   4.709   5.366   0.581 -1.7472  0.2676  2.0884
11477TIP3    H255847   4.670   5.423   0.447  1.5930 -1.5072  0.2363
11478TIP3   OH255848   0.641   3.044  15.175 -0.0918  0.0280 -0.8953
11478TIP3    H155849   0.591   2.996  15.242  1.1274  1.3916  1.1049
11478TIP3    H255850   0.579   3.107  15.138 -0.6393 -0.3662 -0.6565
11479TIP3   OH255851   2.600   2.114   0.051  0.6619  0.2460 -0.1699
11479TIP3    H155852   2.665   2.163  -0.000  1.1457 -0.2781 -0.0679
11479TIP3    H255853   2.581   2.037  -0.002  0.8555 -0.0889  0.2368
11480TIP3   OH255854   3.752   5.157  12.882  0.3335 -0.2518  0.0149
11480TIP3    H155855   3.665   5.122  12.898  1.0047 -1.8552  0.3201
11480TIP3    H255856   3.787   5.174  12.969  1.3027 -2.1934  0.0651
11481TIP3   OH255857   2.139   1.274   1.055  0.3660 -0.0321 -0.4313
11481TIP3    H155858   2.078   1.345   1.034 -0.0333  0.0136  0.8125
11481TIP3    H255859   2.165   1.291   1.146 -1.3914 -2.6559  0.6633
11482TIP3   OH255860   0.827   2.778   1.408 -0.0640  0.6294 -0.2047
11482TIP3    H155861   0.861   2.733   1.331 -2.6047 -1.7969 -0.0623
11482TIP3    H255862   0.759   2.837   1.374 -0.0469  0.7895  0.0323
11483TIP3   OH255863   2.446   4.953  11.675  0.1880 -0.2717  0.1254
11483TIP3    H155864   2.438   4.922  11.765 -0.1522  0.2736  0.2909
11483TIP3    H255865   2.535   4.929  11.648 -0.3576 -2.2465 -0.0965
11484TIP3   OH255866   5.227   0.737   0.126  0.4182  0.3756 -0.1213
11484TIP3    H155867   5.203   0.801   0.192 -0.1016  1.3748 -1.2330
11484TIP3    H255868   5.321   0.748   0.114  0.4364  0.5004  0.1315
11485TIP3   OH255869   0.556   0.036   0.468 -0.7260 -0.8951  0.4786
11485TIP3    H155870   0.471   0.028   0.426 -0.8671  2.1317 -0.0239
11485TIP3    H255871   0.535   0.053   0.560 -0.5674 -2.3493  0.7987
11486TIP3   OH255872   2.662   3.100  10.467  0.0148  0.2177 -0.4786
11486TIP3    H155873   2.720   3.088  10.542 -0.3698  1.1534 -0.0106
11486TIP3    H255874   2.574   3.103  10.504 -0.4226 -1.8031 -1.2445
11487TIP3   OH255875   2.598   1.224   3.387  0.1811 -0.0599  0.3038
11487TIP3    H155876   2.518   1.229   3.334  0.0499 -0.4343  0.4599
11487TIP3    H255877   2.642   1.145   3.356  1.3350  1.0317 -0.9403
11488TIP3   OH255878   1.359   7.093  15.206  0.6853 -0.3996 -0.0494
11488TIP3    H155879   1.393   7.065  15.291 -0.4633 -0.4617  0.4054
11488TIP3    H255880   1.326   7.181  15.221 -0.5340 -0.8273 -0.1338
11489TIP3   OH255881   2.232   1.039   0.070  0.2534 -0.4116 -0.0232
11489TIP3    H155882   2.240   1.046  -0.025 -3.0757 -0.2289 -0.4010
11489TIP3    H255883   2.266   1.122   0.104  0.3771  0.0090 -1.1515
11490TIP3   OH255884   2.936   0.427  14.248  0.1580 -0.0117  0.0843
11490TIP3    H155885   3.013   0.399  14.298 -0.1129 -1.7435 -0.4039
11490TIP3    H255886   2.963   0.420  14.156 -0.2766  0.3683 -0.0776
11491TIP3   OH255887   5.134   0.813   1.800  0.4834  0.5980  0.1437
11491TIP3    H155888   5.091   0.875   1.858 -1.1099  0.0735 -0.4225
11491TIP3    H255889   5.157   0.865   1.723  1.0463  0.9200  0.5225
11492TIP3   OH255890   4.425   1.026   0.241  0.6103 -0.2049  0.5989
11492TIP3    H155891   4.414   0.981   0.325  1.7989 -0.4085  0.6708
11492TIP3    H255892   4.494   0.976   0.196 -1.1838 -1.1640 -1.2583
11493TIP3   OH255893   6.641   3.085  15.327 -0.1391  0.2109 -0.0145
11493TIP3    H155894   6.721   3.054  15.370 -0.1634 -1.3960 -1.0254
11493TIP3    H255895   6.661   3.081  15.234 -0.5653  2.2713 -0.2298
11494TIP3   OH255896   3.794   1.688   1.330  0.5369  0.0679  0.0382
11494TIP3    H155897   3.779   1.717   1.421  0.1344  1.1756 -0.3628
11494TIP3    H255898   3.817   1.769   1.283  1.0580 -0.5468 -0.7856
11495TIP3   OH255899   1.695   2.500   2.731  0.2565  0.2413 -0.1664
11495TIP3    H155900   1.765   2.457   2.682 -1.5155  0.4432 -3.1257
11495TIP3    H255901   1.655   2.430   2.782  0.2596 -0.7191 -1.4273
11496TIP3   OH255902   1.049   5.242   3.052 -0.6439 -0.1012 -0.1697
11496TIP3    H155903   1.084   5.271   3.136  0.1618  1.5331 -1.0238
11496TIP3    H255904   1.127   5.222   2.999 -0.9445  2.0713 -1.5732
11497TIP3   OH255905   4.866   1.420   3.144 -0.3363 -0.7639 -0.8180
11497TIP3    H155906   4.802   1.443   3.212  0.0361  0.4172 -0.8499
11497TIP3    H255907   4.912   1.343   3.180 -0.3577 -0.3494  0.1314
11498TIP3   OH255908   3.057   0.889   1.055  0.6237 -0.2572  0.0247
11498TIP3    H155909   3.116   0.855   0.989  1.6458 -0.4295  0.9883
11498TIP3    H255910   3.022   0.970   1.018  2.4803  0.5464 -0.0676
11499TIP3   OH255911   4.807   6.758   5.378 -0.5199  0.0758 -0.2927
11499TIP3    H155912   4.795   6.853   5.388 -0.5913 -0.0797  1.2083
11499TIP3    H255913   4.722   6.726   5.349 -1.0555  0.2352  1.0495
11500TIP3   OH255914   1.960   4.924   3.151 -0.1339  0.2982 -0.0436
11500TIP3    H155915   1.871   4.900   3.125 -1.0054  1.4344  1.7207
11500TIP3    H255916   1.958   4.927   3.246  1.7543  0.5690  0.0340
11501TIP3   OH255917   5.494   2.361  11.366 -0.7734  0.0742  0.0223
11501TIP3    H155918   5.497   2.294  11.298 -0.4893 -0.0338  0.1407
11501TIP3    H255919   5.570   2.417  11.349 -1.5026  0.8994 -0.6163
11502TIP3   OH255920   5.161   6.857   3.033 -0.3087 -0.4413  0.2109
11502TIP3    H155921   5.239   6.803   3.046  0.2522  0.1860 -0.4724
11502TIP3    H255922   5.165   6.921   3.103 -1.2390 -1.5472  1.3269
11503TIP3   OH255923   5.889   3.255  12.142  0.0448  0.1236 -0.9572
11503TIP3    H155924   5.859   3.288  12.226 -1.6156 -1.5123 -0.8474
11503TIP3    H255925   5.984   3.245  12.152  0.2314  2.3322 -0.1784
11504TIP3   OH255926   5.717   0.349   0.055  0.0554 -0.1113  0.5706
11504TIP3    H155927   5.783   0.279   0.057 -0.0856 -0.2814  2.9580
11504TIP3    H255928   5.640   0.310   0.014  0.6824 -0.6407 -0.1243
11505TIP3   OH255929   4.597   5.901   3.951  0.3676 -0.0036  0.3271
11505TIP3    H155930   4.641   5.979   3.916 -0.4288  0.1519 -0.3672
11505TIP3    H255931   4.569   5.926   4.039 -0.0504  0.5615  0.0370
11506TIP3   OH255932   0.418   3.054   0.456 -0.5378 -0.0160 -0.3050
11506TIP3    H155933   0.378   3.002   0.526 -0.0946  0.0732  0.0199
11506TIP3    H255934   0.466   3.123   0.502  0.6257 -0.5764 -0.6365
11507TIP3   OH255935   1.588   6.227   4.654 -0.3171 -0.2936 -0.8730
11507TIP3    H155936   1.560   6.254   4.742  1.1706  0.0672 -0.4747
11507TIP3    H255937   1.525   6.160   4.628 -0.1889 -1.1974  0.9396
11508TIP3   OH255938   3.337   0.468   3.609  0.4103  0.0552 -0.2859
11508TIP3    H155939   3.285   0.393   3.581  1.3699 -0.2892 -1.2118
11508TIP3    H255940   3.400   0.431   3.672  0.9622  0.0563 -0.8339
11509TIP3   OH255941   6.179   5.172   1.148 -0.2258 -0.0074 -0.2643
11509TIP3    H155942   6.232   5.240   1.106 -2.0305  0.5985 -1.6430
11509TIP3    H255943   6.229   5.091   1.134 -0.2981  0.3066 -2.8700
11510TIP3   OH255944   5.301   6.312   0.673  0.1436  0.3705  0.5343
11510TIP3    H155945   5.298   6.237   0.732  2.7323 -2.4667 -2.4924
11510TIP3    H255946   5.221   6.306   0.622  0.5108 -0.6915  0.0431
11511TIP3   OH255947   6.365   4.133  13.062  0.6245  0.6290  0.2400
11511TIP3    H155948   6.284   4.184  13.052  0.8063  0.6256 -1.5533
11511TIP3    H255949   6.430   4.180  13.010  0.4734 -2.0353 -2.6902
11512TIP3   OH255950   5.550   5.949   0.623  0.4344  0.3010 -0.5027
11512TIP3    H155951   5.533   5.877   0.562 -1.3134  0.5820 -0.4092
11512TIP3    H255952   5.486   5.936   0.693 -1.1601  2.9220 -1.3486
11513TIP3   OH255953   0.950   2.552   4.150  0.1922 -0.7766 -0.6670
11513TIP3    H155954   0.984   2.487   4.089  2.0661 -1.6016  1.1449
11513TIP3    H255955   1.028   2.595   4.186 -0.8302 -0.1584  0.9474
11514TIP3   OH255956   3.012   3.070   0.608 -0.2223 -0.1200 -0.2732
11514TIP3    H155957   3.084   3.007   0.608  1.3802  1.5510  1.3808
11514TIP3    H255958   2.947   3.033   0.549  1.3319 -2.4688 -0.6477
11515TIP3   OH255959   0.135   5.342  11.741 -0.1641 -0.3805 -0.4138
11515TIP3    H155960   0.168   5.298  11.820 -0.2265  0.3916  0.0534
11515TIP3    H255961   0.046   5.369  11.763  0.3793  1.3294 -0.1094
11516TIP3   OH255962   2.425   3.591   0.252  0.0013  0.1182  0.1064
11516TIP3    H155963   2.490   3.530   0.219 -0.6060 -0.0648 -0.7928
11516TIP3    H255964   2.365   3.537   0.304  0.6595  0.3191  1.0978
11517TIP3   OH255965   2.824   6.201   2.423  0.0704 -0.0398  0.0282
11517TIP3    H155966   2.879   6.156   2.487 -0.7034  0.2082  0.8886
11517TIP3    H255967   2.886   6.242   2.362  0.8058 -0.8552  0.2127
11518TIP3   OH255968   5.116   1.670  11.420  0.5513 -0.4839 -0.5853
11518TIP3    H155969   5.144   1.682  11.329  0.4274 -0.4953 -0.6241
11518TIP3    H255970   5.031   1.713  11.425  1.4167  1.2505  0.0162
11519TIP3   OH255971   6.683   1.335  10.882  0.3281  0.4510 -0.9482
11519TIP3    H155972   6.599   1.379  10.896  0.8395  1.6093 -1.4760
11519TIP3    H255973   6.661   1.242  10.883 -1.0815  0.7476 -1.8073
11520TIP3   OH255974   6.171   2.878  13.846  0.5355  1.2168  0.3958
11520TIP3    H155975   6.166   2.810  13.913  2.1315 -0.1341 -0.7526
11520TIP3    H255976   6.084   2.879  13.806  0.3300  0.2146  0.7925
11521TIP3   OH255977   1.818   2.983   3.897 -0.1235 -0.1611 -0.5948
11521TIP3    H155978   1.872   2.990   3.975  0.7027 -2.3059 -0.9226
11521TIP3    H255979   1.844   2.900   3.856 -1.4767  0.2471 -2.4299
11522TIP3   OH255980   6.227   6.636   1.874  0.5429 -0.6517  0.2201
11522TIP3    H155981   6.239   6.545   1.901  0.1057 -0.3464  1.4972
11522TIP3    H255982   6.193   6.630   1.785 -0.7015 -1.7907  0.7387
11523TIP3   OH255983   1.885   6.096   3.090 -0.6345  0.1329  0.5313
11523TIP3    H155984   1.831   6.174   3.090 -0.8629 -0.0234  0.7618
11523TIP3    H255985   1.904   6.079   2.998 -0.6051  0.4439  0.4811
11524TIP3   OH255986   2.965   4.685  10.858 -0.0578 -0.2127 -0.0238
11524TIP3    H155987   2.992   4.774  10.880 -2.0370  0.8425 -1.5690
11524TIP3    H255988   2.893   4.666  10.918  0.3836 -0.8048  0.3246
11525TIP3   OH255989   5.732   6.349  12.359  0.2882 -0.0643 -0.4287
11525TIP3    H155990   5.644   6.311  12.362  0.0888  0.4425  0.2990
11525TIP3    H255991   5.769   6.330  12.445  0.2430  1.2260 -0.1002
11526TIP3   OH255992   4.794   2.225   4.819  0.1513  0.2686 -0.0386
11526TIP3    H155993   4.798   2.233   4.914 -0.2415 -0.0023  0.0011
11526TIP3    H255994   4.788   2.131   4.803 -1.9655  0.4018 -0.2423
11527TIP3   OH255995   4.261   1.436  12.065 -0.1586 -0.1462  0.2764
11527TIP3    H155996   4.284   1.413  11.975  0.1010 -2.5310  0.8994
11527TIP3    H255997   4.170   1.465  12.060 -0.2940 -0.7071 -0.6788
11528TIP3   OH255998   2.288   2.660  14.574  0.2660 -0.2542  0.2517
11528TIP3    H155999   2.383   2.667  14.577  0.3159 -1.1982  1.4210
11528TIP3    H256000   2.257   2.721  14.642  0.0755 -0.5173  0.4037
11529TIP3   OH256001   6.204   0.295  13.407 -0.0924 -0.4323 -0.4823
11529TIP3    H156002   6.291   0.335  13.418 -0.6039  0.7356 -0.5254
11529TIP3    H256003   6.143   0.366  13.425 -1.0324 -0.7362 -2.2586
11530TIP3   OH256004   2.473   5.884   1.861 -0.1737  0.2557  0.6930
11530TIP3    H156005   2.395   5.830   1.856 -0.2027  0.3842 -0.3411
11530TIP3    H256006   2.529   5.839   1.924 -0.7392 -0.2747  0.8227
11531TIP3   OH256007   6.373   0.298   1.840  0.3910  0.3098 -0.0065
11531TIP3    H156008   6.457   0.342   1.850  1.5664 -1.6322 -0.7324
11531TIP3    H256009   6.373   0.230   1.908  1.2367 -2.2814 -2.4112
11532TIP3   OH256010   5.957   1.388  13.942 -0.7917 -0.0808 -0.1120
11532TIP3    H156011   6.001   1.337  13.874  1.3537  0.9977  0.3645
11532TIP3    H256012   5.964   1.478  13.912 -1.9675  0.2052  0.4215
11533TIP3   OH256013   3.468   0.680  13.190  0.2008 -0.2447 -0.3254
11533TIP3    H156014   3.474   0.712  13.100  1.5458 -1.6825 -0.8010
11533TIP3    H256015   3.375   0.662  13.204 -0.5753  3.1820 -0.1875
11534TIP3   OH256016   3.840   5.784  14.163  0.2592 -0.4218 -0.6944
11534TIP3    H156017   3.803   5.831  14.238  1.6159 -1.7364  0.8762
11534TIP3    H256018   3.852   5.851  14.096 -1.5091  0.6951  0.0311
11535TIP3   OH256019   7.157   6.504  11.136  0.2008  0.0979 -0.2545
11535TIP3    H156020   7.154   6.579  11.195 -0.9035 -0.9334  1.0628
11535TIP3    H256021   7.248   6.501  11.106  1.0405  0.1374  2.1153
11536TIP3   OH256022   1.482   3.334   0.924  0.3403  0.0321 -0.4566
11536TIP3    H156023   1.536   3.393   0.871 -0.6932  0.9193 -0.5484
11536TIP3    H256024   1.398   3.331   0.878 -1.8316  3.5665  2.7756
11537TIP3   OH256025   6.493   2.342   2.013  0.1443 -0.0045  0.2491
11537TIP3    H156026   6.461   2.391   1.936  0.0284 -0.8883 -0.2754
11537TIP3    H256027   6.584   2.371   2.023  0.4503 -0.5456 -0.7894
11538TIP3   OH256028   4.459   6.752   1.543 -0.1372 -0.5513 -0.2471
11538TIP3    H156029   4.424   6.784   1.626  1.3287 -1.6960  0.8494
11538TIP3    H256030   4.504   6.828   1.505 -2.6810  0.6259 -1.1515
11539TIP3   OH256031   6.796   5.184   0.211  0.4304  0.1137  0.4635
11539TIP3    H156032   6.854   5.207   0.283  0.6611  0.2943  0.2215
11539TIP3    H256033   6.851   5.133   0.151  0.0734 -0.5860  0.7194
11540TIP3   OH256034   1.177   0.989  14.052 -0.0741 -0.7662  0.8062
11540TIP3    H156035   1.133   1.036  14.123 -0.8252 -0.5703  0.2322
11540TIP3    H256036   1.228   1.055  14.007 -0.0689 -0.7664  0.8120
11541TIP3   OH256037   5.467   5.968   2.237 -0.3400 -0.1935 -0.7129
11541TIP3    H156038   5.536   5.938   2.177  1.2286 -1.9166  1.7186
11541TIP3    H256039   5.400   5.900   2.232  0.1727 -0.7766  0.0044
11542TIP3   OH256040   2.049   4.931  14.730 -0.2465 -0.6309  0.1502
11542TIP3    H156041   2.054   4.969  14.818 -1.4293 -0.4361  0.1380
11542TIP3    H256042   2.141   4.922  14.704  0.1553 -1.2504  1.6311
11543TIP3   OH256043   6.900   1.651  13.737  0.8703 -0.1231  0.4420
11543TIP3    H156044   6.855   1.583  13.686 -1.1769 -0.2048  2.1871
11543TIP3    H256045   6.989   1.618  13.749  0.5798 -1.3902 -0.6925
11544TIP3   OH256046   4.981   1.107   5.220 -0.2908  0.2518 -0.0120
11544TIP3    H156047   4.900   1.095   5.270 -0.8538 -0.5631 -1.0926
11544TIP3    H256048   4.952   1.122   5.130  0.7073  1.6722 -0.1366
11545TIP3   OH256049   2.755   6.025   3.754 -0.8071 -0.4125  0.0762
11545TIP3    H156050   2.678   6.064   3.796 -0.9495 -0.1547 -0.4109
11545TIP3    H256051   2.784   5.958   3.815 -1.0580 -0.1017  0.5462
11546TIP3   OH256052   6.504   3.076   1.406  0.1622  0.2507  1.0713
11546TIP3    H156053   6.433   3.046   1.348 -0.7231  0.9096  1.7838
11546TIP3    H256054   6.493   3.171   1.410  1.6708  0.4750  0.4649
11547TIP3   OH256055   2.134   5.285   1.732 -0.5678 -0.3614 -0.4823
11547TIP3    H156056   2.040   5.292   1.715 -0.4987  0.9686 -0.4266
11547TIP3    H256057   2.175   5.324   1.655  0.0488 -2.9033 -1.5549
11548TIP3   OH256058   0.349   3.886   3.556  0.3493  0.3192  0.6678
11548TIP3    H156059   0.303   3.814   3.513 -1.2474  1.2748  0.7293
11548TIP3    H256060   0.421   3.843   3.604  1.7395 -0.8453 -2.2339
11549TIP3   OH256061   4.753   2.857  14.539  0.0425  0.2075  0.2436
11549TIP3    H156062   4.693   2.821  14.604 -0.4216  1.4195  0.5259
11549TIP3    H256063   4.781   2.941  14.577 -0.7168  1.2368 -1.3835
11550TIP3   OH256064   6.012   5.680   5.660  0.2294 -0.3883 -0.0353
11550TIP3    H156065   5.980   5.590   5.670 -0.6122 -0.0328  0.5727
11550TIP3    H256066   5.961   5.731   5.723 -0.3247  0.7723 -1.3672
11551TIP3   OH256067   7.205   3.680  13.569 -0.0447  0.6260  0.2999
11551TIP3    H156068   7.245   3.745  13.627 -1.1008 -0.1315  1.9309
11551TIP3    H256069   7.279   3.641  13.523  0.7585  1.7437  0.5911
11552TIP3   OH256070   0.592   4.092   0.599 -0.2784 -0.2842  0.1777
11552TIP3    H156071   0.593   3.999   0.622  1.5526 -0.1358  0.8521
11552TIP3    H256072   0.613   4.094   0.506  1.7150 -0.5142  0.5678
11553TIP3   OH256073   4.008   3.825  14.419  0.5780  0.0137  0.2775
11553TIP3    H156074   4.040   3.739  14.446 -0.8539 -0.8503 -0.6506
11553TIP3    H256075   3.978   3.813  14.329  1.1322  1.7099 -0.1650
11554TIP3   OH256076   2.424   5.138   5.514 -0.5756  0.2454 -0.0048
11554TIP3    H156077   2.505   5.130   5.565 -0.3823  0.7115 -0.2262
11554TIP3    H256078   2.362   5.180   5.573  0.2080  2.5556 -0.6889
11555TIP3   OH256079   3.746   6.331   2.072  1.0518 -0.1429 -0.1381
11555TIP3    H156080   3.814   6.399   2.076  1.9380 -1.0620  1.2344
11555TIP3    H256081   3.689   6.359   2.000  1.9825  1.4882 -0.3026
11556TIP3   OH256082   1.145   4.550  14.694  0.0102 -0.0965  0.1001
11556TIP3    H156083   1.100   4.466  14.696 -1.8672  0.8565 -0.0534
11556TIP3    H256084   1.089   4.609  14.745  0.5230  1.3985 -0.9795
11557TIP3   OH256085   5.810   5.233   5.024  0.0979 -0.8400  0.1558
11557TIP3    H156086   5.882   5.268   5.077  0.3006 -0.3160 -0.4455
11557TIP3    H256087   5.829   5.140   5.016  1.3022 -0.5390 -0.8573
11558TIP3   OH256088   0.468   4.132  15.333 -0.1284  0.6008 -0.5006
11558TIP3    H156089   0.453   4.223  15.357  0.5584  0.7845 -0.7480
11558TIP3    H256090   0.383   4.089  15.347 -0.9559  1.6271 -1.9915
11559TIP3   OH256091   2.585   1.487  11.398  0.0395  0.3322 -0.6657
11559TIP3    H156092   2.522   1.417  11.411  0.0968  0.3146 -0.4841
11559TIP3    H256093   2.533   1.567  11.404 -0.1484  0.2856 -1.5852
11560TIP3   OH256094   5.962   6.873  12.671 -0.3379  0.1606  0.3117
11560TIP3    H156095   6.057   6.857  12.671 -0.2379  0.7055 -0.1078
11560TIP3    H256096   5.941   6.891  12.579 -0.5141  1.9248  0.6647
11561TIP3   OH256097   1.847   3.016   4.436  0.2663 -0.1289  0.1180
11561TIP3    H156098   1.766   3.036   4.482  0.0130  0.2842 -0.4968
11561TIP3    H256099   1.915   3.023   4.504  0.2145  2.8579  0.0022
11562TIP3   OH256100   5.841   5.731  10.772  0.2386  0.0052  0.0203
11562TIP3    H156101   5.886   5.751  10.854 -0.0977 -1.5352  0.6230
11562TIP3    H256102   5.769   5.674  10.797  0.2062 -0.6152 -1.3544
11563TIP3   OH256103   1.522   4.553   5.382  0.5122 -0.0839  0.0845
11563TIP3    H156104   1.470   4.631   5.359  1.3473 -0.2233 -2.5500
11563TIP3    H256105   1.570   4.580   5.460 -0.4155  1.4923  0.1723
11564TIP3   OH256106   3.723   6.548  14.119  0.2961 -0.1383 -0.2524
11564TIP3    H156107   3.711   6.566  14.026  1.1047 -0.2934 -0.3966
11564TIP3    H256108   3.815   6.566  14.135 -0.4152  2.8018  1.2006
11565TIP3   OH256109   4.369   0.501  13.817 -0.1986  0.0597 -0.5649
11565TIP3    H156110   4.277   0.520  13.799 -0.4205 -0.5185 -0.0708
11565TIP3    H256111   4.367   0.418  13.864  0.6842 -0.7993 -1.9741
11566TIP3   OH256112   3.596   1.803   0.646  0.2853  0.0368 -0.1554
11566TIP3    H156113   3.511   1.797   0.603  0.0772 -2.0844  0.4325
11566TIP3    H256114   3.657   1.824   0.575 -0.2923 -1.7644 -1.2511
11567TIP3   OH256115   4.921   5.883   3.912  0.2495  0.1227  0.3866
11567TIP3    H156116   4.954   5.936   3.840 -0.5514 -0.1944 -0.2314
11567TIP3    H256117   4.957   5.923   3.991 -0.1544  1.4514 -0.0756
11568TIP3   OH256118   5.603   3.697  14.113 -0.2318 -0.2649 -0.0300
11568TIP3    H156119   5.621   3.646  14.034 -1.0162 -0.0198 -0.3779
11568TIP3    H256120   5.620   3.637  14.185 -0.6064 -0.8554 -0.4225
11569TIP3   OH256121   0.549   3.362   1.227 -0.0527 -0.4691 -0.4635
11569TIP3    H156122   0.508   3.344   1.143 -0.4845 -0.6689 -0.2089
11569TIP3    H256123   0.495   3.317   1.291  0.2248 -0.2470 -0.0668
11570TIP3   OH256124   1.155   4.391   0.450  0.6696  0.3887 -0.0073
11570TIP3    H156125   1.176   4.458   0.515  0.9609 -0.2071  0.5274
11570TIP3    H256126   1.061   4.377   0.459  0.0697  2.5237 -1.8887
11571TIP3   OH256127   5.687   3.791  11.189  0.0777  0.0267  0.0532
11571TIP3    H156128   5.608   3.738  11.172 -0.3999  0.9635 -0.7136
11571TIP3    H256129   5.673   3.872  11.140  0.8735  0.8085  1.0761
11572TIP3   OH256130   0.036   4.907   5.376 -0.2356  0.1982 -0.2841
11572TIP3    H156131   0.008   4.847   5.446  1.4898  0.0626  0.3454
11572TIP3    H256132  -0.044   4.949   5.347 -1.1859 -0.7755  0.8274
11573TIP3   OH256133   5.184   2.163  15.182 -0.0516  0.5296 -0.2023
11573TIP3    H156134   5.202   2.127  15.269  0.7473 -0.2601 -0.6777
11573TIP3    H256135   5.270   2.194  15.152 -0.2167  0.2632 -0.9481
11574TIP3   OH256136   5.315   5.600   1.356 -0.1586 -0.6371 -0.0383
11574TIP3    H156137   5.247   5.533   1.351 -0.5493 -0.2401 -0.1266
11574TIP3    H256138   5.333   5.623   1.264  0.1123 -0.7540 -0.0167
11575TIP3   OH256139   5.292   0.650  13.636  0.4134  0.2562 -0.1189
11575TIP3    H156140   5.204   0.664  13.600  0.3770 -0.0081 -0.1317
11575TIP3    H256141   5.329   0.738  13.643  0.3872  0.3208 -0.7329
11576TIP3   OH256142   2.127   5.835  15.279 -0.0259 -0.1139  0.2961
11576TIP3    H156143   2.135   5.914  15.332  0.9282 -1.1777  1.8175
11576TIP3    H256144   2.217   5.807  15.264 -0.3352 -0.6484 -0.6966
11577TIP3   OH256145   3.808   3.725   3.176 -0.0728  0.2761  0.5144
11577TIP3    H156146   3.856   3.672   3.112 -1.8650 -1.7498  0.7464
11577TIP3    H256147   3.858   3.807   3.181  1.7816 -0.6510 -1.2400
11578TIP3   OH256148   4.980   4.507  14.665 -0.0555  0.6743  0.3435
11578TIP3    H156149   4.959   4.523  14.573  0.5694  0.7521  0.2154
11578TIP3    H256150   5.075   4.499  14.668 -0.1414 -0.4536  0.7996
11579TIP3   OH256151   5.973   2.264  13.085  0.7415  0.2446 -0.2450
11579TIP3    H156152   5.909   2.333  13.104  0.9467  1.2134 -2.7493
11579TIP3    H256153   6.058   2.308  13.091  1.0640 -0.4846  0.8039
11580TIP3   OH256154   1.804   6.122   1.114  0.4431 -0.2239  0.4538
11580TIP3    H156155   1.754   6.088   1.188 -1.9577 -0.3369 -1.0993
11580TIP3    H256156   1.892   6.087   1.126  0.0412 -0.5255  3.0180
11581TIP3   OH256157   2.994   0.449   2.682 -0.1255 -0.2772  0.0262
11581TIP3    H156158   3.001   0.356   2.702 -1.8753 -0.6866 -1.0334
11581TIP3    H256159   3.073   0.469   2.631 -1.4323 -2.1316 -2.9658
11582TIP3   OH256160   3.368   4.095   0.482 -0.1840 -0.3562  0.6963
11582TIP3    H156161   3.333   4.023   0.536  0.4292 -1.3040 -0.1329
11582TIP3    H256162   3.319   4.089   0.400  0.2635 -0.1850  0.4178
11583TIP3   OH256163   5.527   3.967   2.090 -0.3033  0.2779 -0.3647
11583TIP3    H156164   5.485   3.886   2.116 -0.9453  0.7514  0.0902
11583TIP3    H256165   5.516   3.971   1.995  3.2800 -2.1692 -1.1014
11584TIP3   OH256166   3.015   5.248   2.220  0.4186  0.2203  0.4524
11584TIP3    H156167   2.936   5.296   2.244  0.8506  1.0790  0.1847
11584TIP3    H256168   3.050   5.217   2.304  0.8993  1.6015  0.7928
11585TIP3   OH256169   3.063   4.147  14.719 -0.1774  0.5116  0.0872
11585TIP3    H156170   2.984   4.152  14.665 -0.5008  1.6499  0.6387
11585TIP3    H256171   3.046   4.076  14.780 -0.1517 -0.2310 -0.7378
11586TIP3   OH256172   6.571   2.067  14.785 -0.3180 -0.2826  0.3069
11586TIP3    H156173   6.511   2.141  14.778 -0.4089 -0.3608  0.2619
11586TIP3    H256174   6.536   2.014  14.857  0.8070  0.7019  1.6334
11587TIP3   OH256175   5.104   5.277  13.852 -0.1191 -0.2822 -0.2511
11587TIP3    H156176   5.099   5.282  13.757 -0.9149 -1.4443 -0.2954
11587TIP3    H256177   5.012   5.272  13.881  0.1391 -1.0953  0.4810
11588TIP3   OH256178   1.242   0.780  10.464 -0.0427 -0.4159  0.3293
11588TIP3    H156179   1.272   0.725  10.391 -0.5384  0.3311 -0.4448
11588TIP3    H256180   1.253   0.724  10.541 -1.1930 -1.8687 -0.5109
11589TIP3   OH256181   0.458   0.244  13.153  0.0632 -0.3409  0.0647
11589TIP3    H156182   0.524   0.213  13.091 -1.4969 -2.5288 -0.6571
11589TIP3    H256183   0.417   0.164  13.186 -1.7424  0.8918  1.0005
11590TIP3   OH256184   3.032   4.521   1.527 -0.0075 -0.5592  0.3598
11590TIP3    H156185   3.126   4.508   1.529 -0.1249 -1.3925  2.2108
11590TIP3    H256186   3.019   4.590   1.461  1.8034 -0.8921 -0.4042
11591TIP3   OH256187   1.680   2.366   1.992  0.2656 -0.4621  0.2106
11591TIP3    H156188   1.729   2.373   1.910  1.2719 -1.7606  0.6623
11591TIP3    H256189   1.693   2.275   2.020 -1.5684 -0.5610  0.8932
11592TIP3   OH256190   6.041   1.452  12.262 -0.3503  1.2679 -0.0263
11592TIP3    H156191   6.132   1.465  12.236 -0.9889  1.3117 -2.5112
11592TIP3    H256192   6.037   1.362  12.294  0.8302  1.7501  1.5787
11593TIP3   OH256193   3.279   5.534  15.228  0.2252 -0.3021 -0.1309
11593TIP3    H156194   3.282   5.453  15.278 -0.5241  0.5612  1.4013
11593TIP3    H256195   3.199   5.527  15.176 -0.1197 -0.3303  0.3993
11594TIP3   OH256196   3.355   2.917   2.776 -0.3181  0.1203 -0.8034
11594TIP3    H156197   3.422   2.851   2.760  0.9459  1.4301 -1.1006
11594TIP3    H256198   3.365   2.939   2.868  0.6243  1.3097 -1.1713
11595TIP3   OH256199   4.624   4.252   0.452 -0.4336 -0.2384 -0.1093
11595TIP3    H156200   4.642   4.173   0.401 -0.3297 -0.4200  0.2070
11595TIP3    H256201   4.534   4.240   0.483 -0.7841  0.2396 -0.9110
11596TIP3   OH256202   0.918   1.614  12.519 -0.1374  0.2482  0.5166
11596TIP3    H156203   1.005   1.584  12.492 -0.8300  0.2748 -1.9066
11596TIP3    H256204   0.865   1.535  12.521 -0.8260  0.6368 -1.2557
11597TIP3   OH256205   3.021   2.572  14.040  0.4662  0.5646  0.6417
11597TIP3    H156206   3.011   2.477  14.046  1.4551  0.5035  1.6206
11597TIP3    H256207   2.996   2.605  14.127  0.3627  1.1700  0.3910
11598TIP3   OH256208   1.783   4.254   2.114 -0.4274 -0.6355 -0.1418
11598TIP3    H156209   1.719   4.236   2.183 -0.0962 -0.1909  0.2967
11598TIP3    H256210   1.819   4.169   2.091  0.5629 -0.6690  1.3387
11599TIP3   OH256211   5.966   5.679   0.978  1.0554 -0.0463  0.9167
11599TIP3    H156212   5.986   5.763   1.019  1.9477 -0.8919  2.2923
11599TIP3    H256213   5.874   5.664   0.998  0.7267  0.8471  0.1622
11600TIP3   OH256214   1.382   1.153  13.607 -0.6954  0.5888 -0.0734
11600TIP3    H156215   1.409   1.244  13.620  1.3306  0.0063  0.1863
11600TIP3    H256216   1.304   1.158  13.551  0.4512  2.4054 -1.6185
11601TIP3   OH256217   0.488   3.141   6.126  0.1797  0.0778  0.0743
11601TIP3    H156218   0.413   3.164   6.069  0.1335  0.0886  0.1395
11601TIP3    H256219   0.500   3.047   6.113 -0.2941 -0.0567  0.6038
11602TIP3   OH256220   6.390   5.690  10.351  0.2964  0.0142 -0.1621
11602TIP3    H156221   6.472   5.721  10.388  0.5723 -0.0787 -0.6919
11602TIP3    H256222   6.323   5.739  10.399  0.6445 -0.1244  0.4730
11603TIP3   OH256223   6.380   3.204   0.421  0.0772  0.1293  0.7154
11603TIP3    H156224   6.401   3.145   0.493 -1.6155  0.3430  1.4277
11603TIP3    H256225   6.352   3.146   0.350  1.6215 -0.0729  0.2324
11604TIP3   OH256226   5.282   5.562   0.301 -0.3241 -0.0002  0.5197
11604TIP3    H156227   5.332   5.533   0.224  0.7083  1.8692  0.4277
11604TIP3    H256228   5.310   5.502   0.371  1.1141  0.2047  0.1626
11605TIP3   OH256229   6.786   4.774  15.038 -0.4562  0.2385  0.1423
11605TIP3    H156230   6.770   4.680  15.049  3.0533 -0.5945 -0.6434
11605TIP3    H256231   6.743   4.796  14.955  0.5483 -1.2946 -0.8510
11606TIP3   OH256232   3.348   4.364   2.891  0.0122 -0.3700  0.6407
11606TIP3    H156233   3.386   4.346   2.977 -1.6845  1.2143  1.8001
11606TIP3    H256234   3.276   4.301   2.883 -0.5690  0.2499  0.9198
11607TIP3   OH256235   4.884   2.414  14.094  0.3804 -0.0837 -0.0059
11607TIP3    H156236   4.971   2.445  14.120  1.7397 -1.2593 -2.7084
11607TIP3    H256237   4.856   2.358  14.166  0.9214  1.8745  1.8161
11608TIP3   OH256238   4.761   2.784   5.217 -0.2424  0.3976  0.3834
11608TIP3    H156239   4.694   2.716   5.226  0.3990 -0.3883 -0.5771
11608TIP3    H256240   4.819   2.770   5.292 -0.4021  0.2364  0.4787
11609TIP3   OH256241   3.331   7.105  13.607 -0.4412  0.2309  0.4457
11609TIP3    H156242   3.327   7.058  13.690  1.4090 -1.6603 -0.4603
11609TIP3    H256243   3.421   7.136  13.601 -0.4152 -0.0508 -1.0381
11610TIP3   OH256244   4.749   7.185   1.108 -0.5075  0.7338  0.2021
11610TIP3    H156245   4.691   7.250   1.068 -1.1992  2.2003  3.2402
11610TIP3    H256246   4.691   7.113   1.132 -0.5913  0.9751  0.7491
11611TIP3   OH256247   4.652   6.967   1.844 -0.1068 -0.1634 -0.6131
11611TIP3    H156248   4.711   6.973   1.920 -1.6219 -0.4192  0.6415
11611TIP3    H256249   4.636   7.059   1.820  2.1112 -0.1090 -2.0752
11612TIP3   OH256250   1.472   6.069   5.325 -0.4491  0.2922 -0.1064
11612TIP3    H156251   1.424   6.047   5.405 -0.0952  0.8728  0.2678
11612TIP3    H256252   1.409   6.117   5.271 -0.9873 -0.9156 -0.6005
11613TIP3   OH256253   4.352   5.119   5.104 -0.0249 -0.1843 -0.5335
11613TIP3    H156254   4.309   5.119   5.190 -1.0460 -1.7786 -1.0115
11613TIP3    H256255   4.287   5.154   5.044  0.0904 -0.6232 -0.9222
11614TIP3   OH256256   0.572   0.504   5.197  0.3569 -0.1984 -0.0131
11614TIP3    H156257   0.583   0.595   5.167  0.0178  0.1794  0.9512
11614TIP3    H256258   0.498   0.509   5.259  1.7819 -0.7109  1.8082
11615TIP3   OH256259   0.936   5.742   4.000 -0.9354 -0.0418  0.1863
11615TIP3    H156260   0.939   5.717   4.092 -2.1302 -0.5388  0.1023
11615TIP3    H256261   0.855   5.792   3.991  0.4881  2.4282 -0.0243
11616TIP3   OH256262   1.266   0.075   1.182 -0.4847  0.1239  0.0054
11616TIP3    H156263   1.242   0.126   1.104 -0.0509 -1.7656 -1.4493
11616TIP3    H256264   1.195   0.012   1.192  0.4280 -0.9865 -0.1581
11617TIP3   OH256265   5.117   0.361   4.467  0.0411 -0.1939 -0.0993
11617TIP3    H156266   5.129   0.337   4.559 -1.4371 -0.4459  0.0557
11617TIP3    H256267   5.129   0.456   4.466 -1.6813  0.0867  0.7211
11618TIP3   OH256268   6.287   6.591  11.582 -0.8549 -0.2587  0.2450
11618TIP3    H156269   6.265   6.625  11.496  0.9095  0.0829 -0.1002
11618TIP3    H256270   6.370   6.546  11.570 -0.3218  0.2265  1.8624
11619TIP3   OH256271   3.467   3.527   0.020 -0.4293 -0.2848 -0.0414
11619TIP3    H156272   3.481   3.457   0.084 -0.4337  0.3356  0.6419
11619TIP3    H256273   3.469   3.482  -0.065 -1.7065 -1.3053  0.4391
11620TIP3   OH256274   0.882   3.952   1.580 -0.6111 -0.0862  0.2316
11620TIP3    H156275   0.832   3.994   1.511  0.3650 -1.7811 -1.6435
11620TIP3    H256276   0.820   3.894   1.624 -0.6831 -1.1225 -1.1534
11621TIP3   OH256277   6.757   6.982   1.358 -0.1218 -0.2271 -0.1559
11621TIP3    H156278   6.681   6.932   1.385  1.1598 -2.0275  0.2692
11621TIP3    H256279   6.721   7.057   1.310 -2.2103 -0.0684  1.5190
11622TIP3   OH256280   2.354   4.403  14.835 -0.6457  0.5486 -0.3336
11622TIP3    H156281   2.339   4.451  14.754 -1.7254  0.7865 -0.0052
11622TIP3    H256282   2.294   4.329  14.831 -0.0947  0.0774 -0.1308
11623TIP3   OH256283   6.291   1.787  13.312  0.3414  0.4686 -0.4658
11623TIP3    H156284   6.316   1.748  13.228 -2.4620  0.3788 -1.3521
11623TIP3    H256285   6.222   1.730  13.345  1.0674  0.7787  1.7163
11624TIP3   OH256286   1.120   2.677   0.197  0.0694  0.1520  0.2979
11624TIP3    H156287   1.191   2.676   0.133 -0.1765 -1.2140  0.0195
11624TIP3    H256288   1.064   2.603   0.172 -1.2813  1.0008  0.6985
11625TIP3   OH256289   0.768   1.562   3.112  0.0367 -0.0239  0.6514
11625TIP3    H156290   0.690   1.582   3.061 -0.2490  1.3275  1.5333
11625TIP3    H256291   0.753   1.474   3.147  0.1124 -0.8387 -1.2850
11626TIP3   OH256292   5.580   5.603   4.497  0.1451 -0.3659  0.2830
11626TIP3    H156293   5.534   5.525   4.528 -2.2773  1.9825  3.1896
11626TIP3    H256294   5.616   5.643   4.576 -0.7582  2.6596 -0.7082
11627TIP3   OH256295   4.633   5.137   4.208 -0.4981 -0.1489 -0.8544
11627TIP3    H156296   4.628   5.089   4.291  1.0500 -1.3911 -1.4228
11627TIP3    H256297   4.567   5.206   4.216  0.8815  0.9964  2.2012
11628TIP3   OH256298   3.922   3.135  14.145  0.4049 -0.5158  0.0108
11628TIP3    H156299   3.988   3.075  14.109  1.0510  1.3237 -2.0964
11628TIP3    H256300   3.853   3.136  14.079  1.8663  3.3859 -1.7539
11629TIP3   OH256301   6.487   0.290  14.599  0.2789 -0.1325  0.6987
11629TIP3    H156302   6.480   0.195  14.602 -1.1907 -0.0862 -0.2005
11629TIP3    H256303   6.561   0.307  14.541 -0.1805 -0.7277 -0.0697
11630TIP3   OH256304   5.490   3.651   2.937  0.4792 -1.1029  0.8506
11630TIP3    H156305   5.525   3.675   2.851  0.3953 -0.8826  0.8789
11630TIP3    H256306   5.521   3.561   2.950  1.0852 -0.8954  0.8991
11631TIP3   OH256307   5.973   1.337   0.807  0.1462  0.1466 -0.0444
11631TIP3    H156308   6.029   1.262   0.828 -1.6652 -1.0956  0.6194
11631TIP3    H256309   6.002   1.406   0.867  3.0711  0.7030 -1.9035
11632TIP3   OH256310   3.159   2.615   4.555  0.1853 -0.8889  0.4155
11632TIP3    H156311   3.094   2.548   4.538  1.7015 -2.3406  0.0459
11632TIP3    H256312   3.110   2.688   4.593 -1.6580 -1.8061 -0.1047
11633TIP3   OH256313   1.217   0.159   3.829  0.2795 -0.0908  0.1054
11633TIP3    H156314   1.228   0.181   3.736 -3.3394 -1.6717 -0.8958
11633TIP3    H256315   1.250   0.235   3.876  1.4263  1.1537 -2.4880
11634TIP3   OH256316   2.398   2.731   3.779  0.0543  0.2954  0.4697
11634TIP3    H156317   2.484   2.772   3.786 -0.4518  1.6359 -0.5099
11634TIP3    H256318   2.389   2.678   3.858  0.2063  3.2191  2.6057
11635TIP3   OH256319   6.109   5.164   1.797  0.4233  0.0490 -0.6704
11635TIP3    H156320   6.016   5.143   1.788  0.0829  1.6496 -1.2662
11635TIP3    H256321   6.122   5.240   1.741  2.1428 -0.2390 -0.7115
11636TIP3   OH256322   5.998   1.620  13.816  0.0493  0.1728 -0.4491
11636TIP3    H156323   6.090   1.624  13.842 -0.1451  1.0108  0.1229
11636TIP3    H256324   5.963   1.706  13.836 -0.5843  0.2532 -1.7673
11637TIP3   OH256325   2.360   2.566   4.056  0.2094 -0.9714 -0.2769
11637TIP3    H156326   2.392   2.476   4.063  0.1486 -0.9146  0.8087
11637TIP3    H256327   2.265   2.556   4.048  0.1714 -0.9927  0.1881
11638TIP3   OH256328   4.019   2.870   4.015  0.1644  0.0316  0.0308
11638TIP3    H156329   4.006   2.850   4.107  0.6269 -0.5943 -0.0346
11638TIP3    H256330   4.106   2.908   4.010  0.0093  0.3814 -0.1079
11639TIP3   OH256331   2.809   1.953  15.072  0.5292 -0.4019 -0.4100
11639TIP3    H156332   2.750   2.020  15.038  1.7020  0.9553  0.1024
11639TIP3    H256333   2.802   1.881  15.010  0.4071  0.8247 -1.8913
11640TIP3   OH256334   6.009   2.339  14.951  0.3410  0.1602 -0.5814
11640TIP3    H156335   6.030   2.246  14.947 -0.6713 -0.1578  0.8149
11640TIP3    H256336   5.996   2.365  14.860  0.3393 -1.1388 -0.9629
11641TIP3   OH256337   0.940   6.651  13.039  0.0726  0.7463 -0.4012
11641TIP3    H156338   0.938   6.686  13.128 -3.8143  2.0022 -0.8032
11641TIP3    H256339   1.033   6.643  13.019  1.1382  3.3779  2.6231
11642TIP3   OH256340   6.027   2.882   1.208 -0.1011  0.2394 -0.5352
11642TIP3    H156341   6.049   2.817   1.141  1.5628  1.4059 -1.1905
11642TIP3    H256342   6.026   2.833   1.290  0.3962 -0.7420 -1.0977
11643TIP3   OH256343   6.234   6.511   2.354 -0.7732  0.3728 -0.2657
11643TIP3    H156344   6.231   6.600   2.391 -0.4038 -0.3452  1.6272
11643TIP3    H256345   6.278   6.459   2.421 -0.4499 -1.1383 -1.5961
11644TIP3   OH256346   6.900   0.458   2.999  0.1574  0.0150  0.5120
11644TIP3    H156347   6.977   0.401   2.998 -0.9090 -1.5144 -0.3204
11644TIP3    H256348   6.845   0.424   2.928 -1.9159  0.1150  1.9800
11645TIP3   OH256349   4.711   1.296   2.562 -0.0930 -0.6461 -0.4699
11645TIP3    H156350   4.635   1.264   2.513 -0.8235  0.3093  0.0248
11645TIP3    H256351   4.675   1.360   2.623  0.8818 -1.4126  0.9529
11646TIP3   OH256352   5.467   3.285   3.707  1.5760  0.7992 -0.1456
11646TIP3    H156353   5.395   3.329   3.751  1.8148 -0.3140  1.4126
11646TIP3    H256354   5.432   3.264   3.620  0.0529  0.3667  0.5353
11647TIP3   OH256355   3.542   1.164   2.539 -0.7511  0.0173  0.4028
11647TIP3    H156356   3.508   1.078   2.562  1.0220  0.0844  3.8060
11647TIP3    H256357   3.463   1.217   2.522 -1.9824 -1.5694  0.9792
11648TIP3   OH256358   6.904   3.645   2.120  0.5186 -0.0211  1.1642
11648TIP3    H156359   6.917   3.714   2.185  1.1406 -0.5617  1.6319
11648TIP3    H256360   6.992   3.627   2.087  0.2267  0.1614  0.2411
11649TIP3   OH256361   5.764   4.089   2.379 -0.8062  0.9655 -0.1752
11649TIP3    H156362   5.723   4.084   2.466 -0.3054 -1.1985 -0.0100
11649TIP3    H256363   5.858   4.088   2.397 -0.6859 -0.7006 -0.7474
11650TIP3   OH256364   3.581   2.089   0.171 -0.3019  0.1483 -0.0148
11650TIP3    H156365   3.545   2.082   0.083 -0.5970  0.8850  0.0383
11650TIP3    H256366   3.646   2.158   0.165  0.4092 -0.5003  0.1196
11651TIP3   OH256367   2.959   5.429  14.126 -0.0711 -0.6437 -0.3433
11651TIP3    H156368   2.934   5.390  14.042 -0.7829 -0.5448 -0.1862
11651TIP3    H256369   3.046   5.394  14.144 -0.7105 -2.2167 -0.1819
11652TIP3   OH256370   4.284   4.228   1.287 -0.3493 -0.1356  0.5351
11652TIP3    H156371   4.353   4.200   1.227 -1.0090 -2.3040  0.7279
11652TIP3    H256372   4.275   4.322   1.269 -0.0878 -0.5559 -2.3116
11653TIP3   OH256373   6.215   1.742   1.527  0.4923 -0.1805 -0.1236
11653TIP3    H156374   6.258   1.753   1.612 -1.2618  0.9019  0.6954
11653TIP3    H256375   6.189   1.831   1.502 -0.2885 -0.6637 -1.0865
11654TIP3   OH256376   3.344   3.745  12.788 -0.0903 -0.2988  0.2638
11654TIP3    H156377   3.373   3.822  12.838  0.5635  0.5461 -1.3366
11654TIP3    H256378   3.252   3.762  12.771  0.2906  0.6725 -0.9577
11655TIP3   OH256379   2.469   4.664  12.673 -0.0739  0.3354  0.1058
11655TIP3    H156380   2.539   4.679  12.609  0.3792  0.4685  0.6140
11655TIP3    H256381   2.410   4.601  12.631 -0.2689  1.0891 -0.7926
11656TIP3   OH256382   0.544   3.920   2.480 -0.1260 -0.0065 -0.4173
11656TIP3    H156383   0.450   3.910   2.465  0.1716 -2.2968 -1.1637
11656TIP3    H256384   0.566   3.849   2.539  1.4833 -0.9296 -2.0292
11657TIP3   OH256385   1.033   0.252   0.940 -0.0527 -0.3119  0.2188
11657TIP3    H156386   1.123   0.261   0.972 -0.0860  1.6507 -0.1693
11657TIP3    H256387   1.039   0.270   0.846 -0.9632  0.6295  0.3324
11658TIP3   OH256388   2.583   5.960  13.895 -0.7411 -0.7119 -0.2021
11658TIP3    H156389   2.509   6.012  13.861 -2.5401 -2.7604  0.3590
11658TIP3    H256390   2.635   6.022  13.945 -2.0864  0.8275 -0.6200
11659TIP3   OH256391   3.047   0.495   4.196  0.2312 -0.0339 -0.3702
11659TIP3    H156392   3.019   0.467   4.283  1.0025  1.8997  0.5667
11659TIP3    H256393   3.050   0.415   4.145  0.5053 -1.3527  1.5935
11660TIP3   OH256394   4.877   5.253  14.855 -0.7123 -0.2257 -0.4878
11660TIP3    H156395   4.878   5.196  14.778  0.0400 -0.2193 -0.4950
11660TIP3    H256396   4.899   5.340  14.821  0.8776 -0.4481 -0.1205
11661TIP3   OH256397   0.468   2.864   4.369 -0.1010 -0.0277 -0.0422
11661TIP3    H156398   0.471   2.826   4.282 -0.3252 -0.7780  0.2686
11661TIP3    H256399   0.461   2.789   4.428 -1.6879  0.5199  0.5296
11662TIP3   OH256400   2.923   2.705   0.571 -0.5866  0.0891  0.1896
11662TIP3    H156401   2.884   2.624   0.538  0.1634 -0.6094  0.9601
11662TIP3    H256402   2.963   2.745   0.495  0.3818 -1.0627  0.0682
11663TIP3   OH256403   5.089   5.044   4.755 -0.1724  0.2083  0.1211
11663TIP3    H156404   5.092   5.140   4.746  0.2173  0.1371 -0.6423
11663TIP3    H256405   5.039   5.015   4.679 -0.4514 -0.1877  0.4540
11664TIP3   OH256406   1.679   1.530  14.041 -0.1625  0.4145  0.6761
11664TIP3    H156407   1.750   1.472  14.069 -1.2154 -0.2060  2.1971
11664TIP3    H256408   1.626   1.476  13.983 -0.3274  0.3292  0.9054
11665TIP3   OH256409   0.299   0.307   0.148 -0.2043  0.6884  0.2210
11665TIP3    H156410   0.377   0.324   0.201  0.6199 -1.4795 -0.2036
11665TIP3    H256411   0.235   0.273   0.210 -0.2272  0.8351  0.2792
11666TIP3   OH256412   5.886   7.178  10.320  0.0833 -0.4458 -0.3891
11666TIP3    H156413   5.956   7.116  10.338 -0.9388 -1.2034  1.2852
11666TIP3    H256414   5.903   7.210  10.232  2.3256 -0.8429 -0.1492
11667TIP3   OH256415   4.961   4.549   4.876  0.4496  0.0125 -0.1992
11667TIP3    H156416   4.911   4.534   4.956 -1.5154  1.0035 -1.1873
11667TIP3    H256417   5.000   4.636   4.887 -2.5553  1.6788 -1.5609
11668TIP3   OH256418   4.520   6.304   3.429  0.3408  0.0309 -0.0035
11668TIP3    H156419   4.600   6.284   3.382  0.0518 -0.4594 -0.2886
11668TIP3    H256420   4.474   6.367   3.373  1.2909  1.6399  0.9336
11669TIP3   OH256421   3.577   3.462  13.792  0.3649 -0.2849 -0.0891
11669TIP3    H156422   3.627   3.391  13.753  0.1728  0.5929 -2.0729
11669TIP3    H256423   3.546   3.427  13.875  0.4715 -2.4310 -0.8942
11670TIP3   OH256424   4.404   3.344   3.393 -0.9310  0.0076  0.8596
11670TIP3    H156425   4.429   3.416   3.451 -2.4391  1.6483 -0.4118
11670TIP3    H256426   4.477   3.337   3.331 -2.3806  3.2910 -1.4984
11671TIP3   OH256427   4.241   3.747   2.292  0.9576  0.5117 -0.0532
11671TIP3    H156428   4.281   3.666   2.325  1.3808  1.1683  1.0980
11671TIP3    H256429   4.314   3.808   2.285  0.2617  1.6376  1.7718
11672TIP3   OH256430   5.736   1.548  14.060  0.4670  0.2661 -0.5493
11672TIP3    H156431   5.738   1.468  14.113  0.5073  0.0117 -0.9233
11672TIP3    H256432   5.726   1.516  13.970  0.6183  0.6780 -0.7156
11673TIP3   OH256433   6.178   4.453   9.962  0.2346  0.0961  0.3034
11673TIP3    H156434   6.217   4.426   9.878 -0.2815 -2.3654  0.7919
11673TIP3    H256435   6.241   4.515   9.998  1.3824 -0.2124 -1.0598
11674TIP3   OH256436   5.818   0.440  13.413 -0.2629 -0.2053 -0.1231
11674TIP3    H156437   5.910   0.457  13.433 -0.8082  0.8055  1.7328
11674TIP3    H256438   5.785   0.522  13.376 -1.0904  0.4834  1.9771
11675TIP3   OH256439   6.501   5.265   1.593 -0.7314  0.7743  0.0905
11675TIP3    H156440   6.453   5.278   1.511 -0.8509  1.9639  0.3307
11675TIP3    H256441   6.586   5.305   1.577  0.1817 -1.2511 -0.3033
11676TIP3   OH256442   1.813   2.194  14.479  0.0073 -0.0569 -0.5071
11676TIP3    H156443   1.871   2.181  14.404 -0.8330  0.4766 -1.2673
11676TIP3    H256444   1.739   2.134  14.463 -0.5983  0.6900 -0.5568
11677TIP3   OH256445   4.656   5.864  15.185 -0.6383 -0.2939 -0.1702
11677TIP3    H156446   4.665   5.950  15.225 -2.5617 -0.4831  0.7731
11677TIP3    H256447   4.635   5.806  15.259 -0.4793 -1.3736 -0.9490
11678TIP3   OH256448   4.132   3.238   1.066  0.8837  0.1955 -0.3868
11678TIP3    H156449   4.117   3.182   1.142 -1.2076  1.1726 -0.0264
11678TIP3    H256450   4.126   3.327   1.100 -2.1029  0.7128 -1.9068
11679TIP3   OH256451   4.514   0.730  10.694 -0.2917 -0.9399 -0.0183
11679TIP3    H156452   4.482   0.806  10.742 -0.2390 -1.2923  0.5984
11679TIP3    H256453   4.593   0.703  10.742  0.1576 -0.8857 -0.7211
11680TIP3   OH256454   6.513   4.595   9.716  0.1530  0.0799 -0.0199
11680TIP3    H156455   6.600   4.588   9.678 -0.3923 -1.7098 -1.0441
11680TIP3    H256456   6.459   4.632   9.647 -0.1743 -0.1012  0.1338
11681TIP3   OH256457   0.089   3.610  10.041  0.1938 -0.6364 -0.4121
11681TIP3    H156458   0.149   3.684  10.033 -0.1472 -0.1763  0.9856
11681TIP3    H256459   0.145   3.533  10.039  0.9309 -0.1955  1.4152
11682TIP3   OH256460   1.702   3.816  14.026  0.2793 -0.3039  0.0674
11682TIP3    H156461   1.688   3.910  14.034  0.1259 -0.3192 -0.0192
11682TIP3    H256462   1.725   3.803  13.933  2.2044 -0.1028  0.4654
11683TIP3   OH256463   4.779   5.288  14.541 -0.0487  0.0668 -0.1774
11683TIP3    H156464   4.746   5.202  14.566  1.6080 -0.0260  1.9574
11683TIP3    H256465   4.873   5.274  14.527  0.0680  1.3486 -0.7906
11684TIP3   OH256466   5.620   5.299   3.543  0.7474 -0.1821 -0.0902
11684TIP3    H156467   5.618   5.287   3.638 -2.0852 -1.1775 -0.1776
11684TIP3    H256468   5.708   5.333   3.525  1.1762  0.6347  2.9284
11685TIP3   OH256469   1.795   0.623   2.623  0.1825  0.0360 -0.0884
11685TIP3    H156470   1.721   0.681   2.604 -0.0485 -0.3658 -0.4462
11685TIP3    H256471   1.856   0.677   2.673  0.0693  0.6552 -0.6011
11686TIP3   OH256472   2.702   3.399  13.851 -0.3226  0.2737  0.4484
11686TIP3    H156473   2.725   3.367  13.938  0.8587 -1.8254 -0.5696
11686TIP3    H256474   2.746   3.483  13.844  0.9680 -0.3127  1.2590
11687TIP3   OH256475   6.088   0.246   2.239  0.1243 -0.1798 -0.4828
11687TIP3    H156476   6.013   0.301   2.217 -0.3236 -0.2499  0.8330
11687TIP3    H256477   6.052   0.173   2.288  1.1117  0.2141  0.9166
11688TIP3   OH256478   5.175   1.901   4.557  0.5358  0.1400 -0.0473
11688TIP3    H156479   5.231   1.966   4.515  0.2354  1.4147  1.4117
11688TIP3    H256480   5.236   1.845   4.606  0.7139 -0.0198 -0.4497
11689TIP3   OH256481   5.240   0.115   5.226 -0.0302 -0.3048  0.1216
11689TIP3    H156482   5.178   0.094   5.156 -0.1391  0.6041 -0.0642
11689TIP3    H256483   5.280   0.197   5.199  1.2265 -0.8490  0.2764
11690TIP3   OH256484   7.097   2.575   4.321  0.0388  0.0568 -0.4103
11690TIP3    H156485   7.173   2.625   4.352 -0.0967  0.5062 -0.7980
11690TIP3    H256486   7.043   2.564   4.399  1.0147 -1.2283  0.1249
11691TIP3   OH256487   6.932   4.900   0.288 -0.3720  0.0775  0.1450
11691TIP3    H156488   6.982   4.849   0.352 -0.7049  0.1035  0.4266
11691TIP3    H256489   6.978   4.984   0.283 -0.1254 -0.0598  0.0652
11692TIP3   OH256490   1.066   1.964   1.552  0.3122  0.0109  0.0279
11692TIP3    H156491   0.999   1.911   1.597 -1.2097  2.2317  0.5586
11692TIP3    H256492   1.114   1.901   1.499 -1.7820 -1.8205  0.1345
11693TIP3   OH256493   5.207   1.824  13.988 -0.0972  0.1961 -0.3304
11693TIP3    H156494   5.190   1.911  13.951  0.1152  0.6312  0.5738
11693TIP3    H256495   5.285   1.794  13.941  0.0957  0.6888 -0.3391
11694TIP3   OH256496   3.776   1.591   2.100 -0.4179  0.0424 -0.0464
11694TIP3    H156497   3.722   1.585   2.179 -1.4498 -1.3632 -0.8065
11694TIP3    H256498   3.862   1.616   2.132 -0.7131 -0.8472  1.5847
11695TIP3   OH256499   6.411   0.131   2.349  0.7114  0.7120  0.2221
11695TIP3    H156500   6.434   0.057   2.292  1.1577  0.4723  0.7127
11695TIP3    H256501   6.360   0.092   2.419 -2.1738  1.3575 -1.3680
11696TIP3   OH256502   0.908   6.471   5.547  0.5368 -0.1130  0.2740
11696TIP3    H156503   0.844   6.536   5.518  0.9199 -0.2084 -0.8372
11696TIP3    H256504   0.957   6.516   5.616 -0.0302  0.3234  0.4049
11697TIP3   OH256505   2.109   6.368   2.189 -0.1868 -0.8808  0.1491
11697TIP3    H156506   2.151   6.437   2.240  2.0636 -2.1998  0.1802
11697TIP3    H256507   2.139   6.383   2.099 -0.0050 -1.5773  0.0904
11698TIP3   OH256508   1.487   3.120   0.668  0.0239 -0.1889 -0.6137
11698TIP3    H156509   1.445   3.092   0.587 -1.6519 -2.1037  0.8105
11698TIP3    H256510   1.488   3.216   0.663 -0.3868 -0.2507 -2.6737
11699TIP3   OH256511   4.440   5.985   1.524  0.4589 -0.4452 -0.5716
11699TIP3    H156512   4.446   6.004   1.618  1.2290  0.9060 -0.8685
11699TIP3    H256513   4.451   6.070   1.482 -3.9195 -0.2650 -1.8497
11700TIP3   OH256514   2.875   6.591  12.996 -0.8810  0.3683 -0.0267
11700TIP3    H156515   2.853   6.549  13.080 -1.8103  0.3488 -0.2727
11700TIP3    H256516   2.886   6.683  13.018 -2.3383  0.5725 -0.0715
11701TIP3   OH256517   3.237   2.413   5.352  0.0805 -0.5419  0.5073
11701TIP3    H156518   3.232   2.495   5.403 -2.3580 -0.4826  0.2932
11701TIP3    H256519   3.272   2.440   5.267  0.2203  0.1071  0.7611
11702TIP3   OH256520   6.624   1.492   2.026 -0.2735 -0.2709 -0.6942
11702TIP3    H156521   6.625   1.455   1.938 -1.3877  1.1009 -1.3317
11702TIP3    H256522   6.654   1.583   2.014 -0.0791 -0.1758  0.3978
11703TIP3   OH256523   5.272   4.647   2.889  0.1974  0.2134  0.0264
11703TIP3    H156524   5.203   4.712   2.895  0.4608  0.4339  0.8767
11703TIP3    H256525   5.236   4.577   2.835 -1.3074 -0.4151  1.7304
11704TIP3   OH256526   5.502   2.413  13.845  0.0408 -0.3691 -0.4990
11704TIP3    H156527   5.516   2.395  13.939 -1.3906 -2.4281 -0.6026
11704TIP3    H256528   5.572   2.363  13.801  0.0949 -0.2390 -0.5599
11705TIP3   OH256529   6.415   5.691   3.882  0.3139 -0.4040  0.1499
11705TIP3    H156530   6.323   5.678   3.901  0.7711 -1.9882  1.4915
11705TIP3    H256531   6.446   5.605   3.851  0.8919  0.6377 -2.4823
11706TIP3   OH256532   5.278   6.657   4.153 -0.0009  0.3888 -0.0886
11706TIP3    H156533   5.274   6.565   4.127  0.2311 -0.0901  1.4536
11706TIP3    H256534   5.343   6.696   4.093 -0.1354 -0.4214 -0.7816
11707TIP3   OH256535   3.816   2.425   4.361  0.1631  0.4661 -0.0559
11707TIP3    H156536   3.901   2.468   4.365  0.3449  0.0573  0.4452
11707TIP3    H256537   3.785   2.422   4.451 -0.3842  0.6066 -0.2317
11708TIP3   OH256538   3.982   0.033   1.036  0.5437  0.0772 -0.1763
11708TIP3    H156539   3.907   0.017   0.980  0.9340 -0.1966 -0.6215
11708TIP3    H256540   4.014  -0.054   1.059  1.2489  0.1944 -0.6972
11709TIP3   OH256541   3.485   4.802   1.884  0.5464 -0.4144 -0.0626
11709TIP3    H156542   3.420   4.785   1.953 -0.6463  0.9122 -0.8093
11709TIP3    H256543   3.477   4.727   1.825  1.9717 -1.8520  1.4609
11710TIP3   OH256544   3.201   2.931  13.086  0.9884  0.5674  0.4452
11710TIP3    H156545   3.112   2.950  13.118  1.0721  0.2389  0.8875
11710TIP3    H256546   3.249   3.013  13.097  0.9121  0.5635  0.8165
11711TIP3   OH256547   1.699   5.884  11.166  1.0169 -0.0400 -0.5450
11711TIP3    H156548   1.767   5.952  11.169  1.4618 -0.4747  1.7520
11711TIP3    H256549   1.648   5.899  11.246  0.8470 -2.1017 -0.2185
11712TIP3   OH256550   2.102   0.106  12.791  0.9669  0.5368 -0.2297
11712TIP3    H156551   2.035   0.077  12.853  1.6433  0.0635  0.3047
11712TIP3    H256552   2.056   0.113  12.708  0.4031 -0.4544 -0.0228
11713TIP3   OH256553   2.970   4.177  13.781 -0.5425  0.1413  0.4068
11713TIP3    H156554   3.010   4.203  13.865  2.5078  1.3845 -1.2584
11713TIP3    H256555   3.023   4.103  13.752 -0.6667  0.6088 -1.0577
11714TIP3   OH256556   1.192   6.078  10.227  0.6547 -0.0049 -0.2599
11714TIP3    H156557   1.139   5.999  10.240  0.4056 -0.3011 -2.5499
11714TIP3    H256558   1.130   6.144  10.196  0.7606  1.3408  2.2078
11715TIP3   OH256559   5.080   5.706  13.753  0.8170 -0.1750  0.1705
11715TIP3    H156560   5.140   5.666  13.691  0.7722 -0.1270  0.0961
11715TIP3    H256561   4.993   5.690  13.716  0.7845 -0.2499  0.2802
11716TIP3   OH256562   0.181   7.052  12.427 -0.4902  0.1536 -0.1160
11716TIP3    H156563   0.108   7.028  12.371 -0.7302 -0.1672  0.3273
11716TIP3    H256564   0.148   7.124  12.480 -1.0433 -1.0224  1.2111
11717TIP3   OH256565   2.264   1.067   0.513  0.2877 -0.4520  0.1920
11717TIP3    H156566   2.331   1.006   0.483 -1.1245 -0.5077 -3.3779
11717TIP3    H256567   2.283   1.149   0.467 -1.6678 -0.2959 -0.4302
11718TIP3   OH256568   5.107   4.141  12.398  0.0180 -0.3731  0.0761
11718TIP3    H156569   5.168   4.117  12.329  0.7372  2.1050 -0.2528
11718TIP3    H256570   5.024   4.156  12.352  0.2843  0.4460 -0.1633
11719TIP3   OH256571   3.919   6.052   0.997 -0.5941  0.1066 -0.0007
11719TIP3    H156572   3.973   5.986   0.952  1.9132  1.0785  1.3783
11719TIP3    H256573   3.935   6.133   0.948 -2.2885  0.0773 -0.6493
11720TIP3   OH256574   1.879   4.894   3.471 -0.0246 -0.1859  0.2909
11720TIP3    H156575   1.925   4.844   3.538 -0.3557  1.6589  1.9876
11720TIP3    H256576   1.786   4.876   3.487 -0.0816 -0.2149 -0.0682
11721TIP3   OH256577   3.358   7.154   1.990 -0.3008 -0.0714 -0.1843
11721TIP3    H156578   3.325   7.069   2.018 -1.0376 -0.1981 -1.3437
11721TIP3    H256579   3.357   7.208   2.069 -1.7759 -0.5560  0.1614
11722TIP3   OH256580   2.661   5.750   2.497  0.3418 -0.1614 -0.0859
11722TIP3    H156581   2.621   5.751   2.584 -0.6470  1.1557 -0.5152
11722TIP3    H256582   2.754   5.765   2.512  0.5496 -2.1259  0.8625
11723TIP3   OH256583   6.989   3.835   2.311  0.4209  0.6901  0.3027
11723TIP3    H156584   6.967   3.907   2.251  1.7589  1.2029  0.3864
11723TIP3    H256585   7.078   3.854   2.339  0.5066 -0.5859  0.9679
11724TIP3   OH256586   0.452   2.491   2.045  0.2508 -0.1857 -0.0191
11724TIP3    H156587   0.428   2.502   1.953  1.3572  0.0734 -0.2911
11724TIP3    H256588   0.410   2.409   2.071 -0.4429 -0.0385 -0.6178
11725TIP3   OH256589   4.753   5.663   1.394  0.0213  0.2571 -0.8088
11725TIP3    H156590   4.817   5.704   1.453  0.7944  0.6292 -1.8834
11725TIP3    H256591   4.779   5.693   1.307 -1.2182 -0.1422 -1.3235
11726TIP3   OH256592   1.037   2.742   2.973  0.3223 -0.5126 -0.0955
11726TIP3    H156593   1.066   2.716   2.886  1.4962  1.4035 -0.3537
11726TIP3    H256594   1.110   2.794   3.007 -0.7518  0.0768  1.3877
11727TIP3   OH256595   2.494   5.213   3.121  0.3272  0.5025  0.4032
11727TIP3    H156596   2.420   5.200   3.181  0.0908  0.2667  0.0644
11727TIP3    H256597   2.518   5.305   3.133  0.3802  0.4134  0.9720
11728TIP3   OH256598   1.642   5.810  11.846 -0.3269  0.1278 -0.0815
11728TIP3    H156599   1.697   5.736  11.822  2.1801  2.2723 -1.5600
11728TIP3    H256600   1.657   5.874  11.776 -3.2508  1.6216  0.5109
11729TIP3   OH256601   5.764   3.093  14.250  0.0509 -0.0752 -0.3679
11729TIP3    H156602   5.772   3.041  14.170  2.4346 -1.9191  0.9572
11729TIP3    H256603   5.830   3.161  14.242  0.8338 -0.7374  0.3390
11730TIP3   OH256604   5.358   3.509  14.930  0.7193  0.2392 -0.2952
11730TIP3    H156605   5.420   3.511  15.002  0.3701  0.7753 -0.0039
11730TIP3    H256606   5.386   3.580  14.872  1.6693 -0.8773 -1.2732
11731TIP3   OH256607   1.766   4.533   2.432 -0.2532 -0.4432  0.2077
11731TIP3    H156608   1.819   4.485   2.495  1.3673  2.0243  0.8898
11731TIP3    H256609   1.814   4.523   2.349  0.2789  0.2557  0.4246
11732TIP3   OH256610   3.084   4.342  15.024  0.1926  0.3077 -0.3915
11732TIP3    H156611   2.993   4.342  14.995  0.4667 -0.3908 -1.2560
11732TIP3    H256612   3.110   4.434  15.020 -0.5934  0.5727  0.2771
11733TIP3   OH256613   2.730   3.277   0.648 -0.1568 -0.5844 -0.6066
11733TIP3    H156614   2.637   3.272   0.627 -0.2144 -1.1330 -0.2308
11733TIP3    H256615   2.747   3.200   0.702  0.4366 -0.2924 -0.3651
11734TIP3   OH256616   6.708   5.950  15.073  0.2242  0.2085 -0.7328
11734TIP3    H156617   6.629   5.954  15.127  1.8661  0.6990  1.8039
11734TIP3    H256618   6.683   5.991  14.990 -2.1031  0.5279  0.0747
11735TIP3   OH256619   4.524   1.761  12.560 -1.0650  0.4202 -0.1289
11735TIP3    H156620   4.431   1.773  12.538 -0.6730  3.5625 -0.5811
11735TIP3    H256621   4.543   1.832  12.622  0.9734 -0.3717  0.2143
11736TIP3   OH256622   0.766   2.109  14.355 -0.1663  0.3492  0.7758
11736TIP3    H156623   0.785   2.088  14.446 -0.8607  0.7627  1.0235
11736TIP3    H256624   0.736   2.200  14.356 -1.2175  0.0333  0.2996
11737TIP3   OH256625   3.366   3.079   4.903 -0.3473  0.7230 -0.2761
11737TIP3    H156626   3.372   2.987   4.876  1.4114  0.5071  0.7505
11737TIP3    H256627   3.333   3.124   4.825 -2.0409 -0.8599 -0.5482
11738TIP3   OH256628   0.593   4.159   0.948  0.2525 -0.1054 -0.4552
11738TIP3    H156629   0.513   4.109   0.967  0.1438 -0.0855 -0.8447
11738TIP3    H256630   0.656   4.093   0.918 -0.1871  0.0849 -1.8909
11739TIP3   OH256631   0.287   1.475  15.179 -0.6626  0.3892 -0.0534
11739TIP3    H156632   0.344   1.538  15.134 -1.3000  0.4840 -0.7422
11739TIP3    H256633   0.230   1.529  15.234  0.5100  0.2423  1.3793
11740TIP3   OH256634   3.818   1.290  11.170  0.1084 -0.0620 -0.6267
11740TIP3    H156635   3.840   1.303  11.078  0.3474  0.8784 -0.4435
11740TIP3    H256636   3.812   1.195  11.180 -2.7360 -0.1587 -2.2664
11741TIP3   OH256637   2.885   7.004  12.812  0.2579  0.1618 -0.2811
11741TIP3    H156638   2.946   6.987  12.740 -1.7828  1.0747 -2.3167
11741TIP3    H256639   2.798   6.987  12.776 -0.9550  1.9616  1.5432
11742TIP3   OH256640   0.900   0.255   4.784  0.4285  0.6435 -0.4786
11742TIP3    H156641   0.936   0.191   4.722  0.8854  0.6730 -0.2468
11742TIP3    H256642   0.840   0.308   4.731  1.2467  1.0422 -1.0346
11743TIP3   OH256643   6.058   4.992   0.897  0.1168  0.5261  0.1463
11743TIP3    H156644   6.019   4.931   0.959 -1.0689 -0.1479 -1.2017
11743TIP3    H256645   6.152   4.992   0.919 -0.1602 -0.2439  1.4356
11744TIP3   OH256646   7.016   0.597  11.863  0.4477 -0.5455 -0.0077
11744TIP3    H156647   7.050   0.647  11.937  0.3492 -0.5306  0.0267
11744TIP3    H256648   7.063   0.632  11.787 -1.2909  1.2556 -0.3409
11745TIP3   OH256649   3.561   4.922   4.586  0.9241 -0.1990  0.3826
11745TIP3    H156650   3.636   4.878   4.546  2.5344  1.8271  0.9675
11745TIP3    H256651   3.532   4.985   4.521  0.0663 -0.5720  0.3872
11746TIP3   OH256652   1.193   0.822   1.526 -0.3199  0.3696  0.1491
11746TIP3    H156653   1.102   0.797   1.542 -0.4221 -0.3455 -1.3652
11746TIP3    H256654   1.191   0.869   1.443  0.9427 -1.6552 -1.1264
11747TIP3   OH256655   5.657   3.815  12.768 -0.0580 -0.2884 -0.2685
11747TIP3    H156656   5.714   3.870  12.714  0.7710  0.1020  0.9650
11747TIP3    H256657   5.605   3.876  12.819 -0.7965 -0.6563 -0.5583
11748TIP3   OH256658   6.711   3.688  13.125 -0.1408 -0.1546  0.4156
11748TIP3    H156659   6.781   3.738  13.167 -0.0471  0.8648 -0.8648
11748TIP3    H256660   6.692   3.737  13.045  0.0806 -2.2828 -1.0154
11749TIP3   OH256661   6.490   2.733  13.154 -0.7549 -0.0899  0.3708
11749TIP3    H156662   6.473   2.642  13.178 -1.1110  0.3372  1.7963
11749TIP3    H256663   6.404   2.773  13.147 -0.6152  0.0766 -0.6004
11750TIP3   OH256664   2.637   0.712  13.126  0.3110  0.0027 -0.3341
11750TIP3    H156665   2.598   0.646  13.068  2.6955 -0.2770 -1.7604
11750TIP3    H256666   2.576   0.786  13.122 -1.5832 -1.4815  0.0026
11751TIP3   OH256667   2.781   5.104  13.848 -0.1132  0.4095 -0.2377
11751TIP3    H156668   2.809   5.047  13.776  1.0376 -1.2240  1.3825
11751TIP3    H256669   2.859   5.154  13.871  0.8407 -1.9990  2.3735
11752TIP3   OH256670   1.647   5.170  14.712 -0.3294  0.3465 -0.3601
11752TIP3    H156671   1.711   5.163  14.641  0.1598  1.6329 -0.0739
11752TIP3    H256672   1.612   5.258  14.704  0.2087  0.7640  1.3748
11753TIP3   OH256673   4.848   2.666   0.292 -0.3357  0.2563 -0.5254
11753TIP3    H156674   4.755   2.643   0.283  0.0958 -1.7852 -0.1589
11753TIP3    H256675   4.851   2.723   0.369 -1.2899  0.5609 -0.6947
11754TIP3   OH256676   6.465   0.870   1.221  0.6236  0.5475  0.2518
11754TIP3    H156677   6.551   0.889   1.259  0.7702  0.8496 -0.2332
11754TIP3    H256678   6.475   0.784   1.181  1.3294  1.4591 -1.6434
11755TIP3   OH256679   5.951   1.438   1.959  0.3049  0.3121  0.2798
11755TIP3    H156680   5.883   1.385   1.917  1.0294 -0.1328 -0.3743
11755TIP3    H256681   5.962   1.399   2.045  2.2253 -1.9630 -0.8855
11756TIP3   OH256682   4.855   4.855   3.686  0.1237 -0.0975  0.1911
11756TIP3    H156683   4.927   4.792   3.683  0.0334 -0.2100  0.3545
11756TIP3    H256684   4.779   4.806   3.653  0.3480  0.3405 -1.0423
11757TIP3   OH256685   6.434   5.016  15.204 -0.6223  0.0873  0.2456
11757TIP3    H156686   6.490   5.089  15.231  0.1034 -0.6375  0.7174
11757TIP3    H256687   6.372   5.005  15.276 -0.9496  0.4479  0.0236
11758TIP3   OH256688   0.692   5.791   2.032  0.4184  0.3965  0.7347
11758TIP3    H156689   0.786   5.780   2.042  0.1983 -1.4533  1.1915
11758TIP3    H256690   0.658   5.787   2.122 -0.2340 -0.8164  0.4544
11759TIP3   OH256691   3.393   2.516   2.355  0.0694 -0.5996 -0.0297
11759TIP3    H156692   3.424   2.599   2.394 -2.8649 -0.7084  3.0053
11759TIP3    H256693   3.435   2.449   2.409 -0.4862 -0.9500 -0.0395
11760TIP3   OH256694   3.653   4.263   4.743  0.2559 -0.1457 -0.1954
11760TIP3    H156695   3.670   4.339   4.799  1.3268 -1.1304  0.8696
11760TIP3    H256696   3.614   4.198   4.802  2.1132 -1.4921 -0.3500
11761TIP3   OH256697   0.522   6.296  10.468 -0.6089  0.2064  0.3320
11761TIP3    H156698   0.593   6.236  10.492 -0.1976  0.4297 -0.2934
11761TIP3    H256699   0.566   6.378  10.447 -0.7359 -0.4043 -2.7263
11762TIP3   OH256700   4.549   0.859   3.337  0.1955 -0.1779 -0.0974
11762TIP3    H156701   4.542   0.954   3.337  0.0932 -0.1851 -0.3234
11762TIP3    H256702   4.460   0.828   3.351  0.3258 -0.2378  0.6871
11763TIP3   OH256703   5.672   3.808   5.552  0.3280  0.0888 -0.2501
11763TIP3    H156704   5.651   3.721   5.585  1.8460  0.3381  1.5217
11763TIP3    H256705   5.641   3.868   5.621 -3.6878  1.3441 -2.7694
11764TIP3   OH256706   3.641   2.781  15.287  0.0782 -0.4922  0.2041
11764TIP3    H156707   3.634   2.795  15.193  0.0440 -1.4917  0.0400
11764TIP3    H256708   3.731   2.804  15.309 -0.4430  1.6192  0.2925
11765TIP3   OH256709   7.177   1.181  14.070 -0.7247 -0.3260  0.6008
11765TIP3    H156710   7.166   1.153  14.161 -1.0523  1.2005  1.0517
11765TIP3    H256711   7.265   1.216  14.066 -0.7766 -0.2212  0.3698
11766TIP3   OH256712   1.829   7.031   2.515  0.1483  0.0860 -0.1796
11766TIP3    H156713   1.873   6.948   2.531 -1.0277 -0.7894 -1.3370
11766TIP3    H256714   1.844   7.049   2.422 -0.9702  0.3292 -0.3257
11767TIP3   OH256715   5.572   0.774  12.754 -0.0163 -0.4923 -0.6416
11767TIP3    H156716   5.658   0.780  12.797 -0.9595 -1.3395  1.5005
11767TIP3    H256717   5.532   0.696  12.792 -2.1730  0.4909 -0.7696
11768TIP3   OH256718   6.601   5.019   9.939  0.0000  0.2732 -0.3057
11768TIP3    H156719   6.609   5.072  10.018 -4.1540 -0.5016  0.8749
11768TIP3    H256720   6.535   5.064   9.886 -1.4211 -2.0495 -0.6591
11769TIP3   OH256721   3.111   2.993  14.003 -0.1490 -0.0015 -0.1365
11769TIP3    H156722   3.165   3.028  14.074 -0.2099 -0.2410  0.0257
11769TIP3    H256723   3.153   2.911  13.979 -1.1766 -0.8535  0.8758
11770TIP3   OH256724   4.408   6.629   1.287  0.1467  0.1229 -0.2008
11770TIP3    H156725   4.430   6.657   1.376 -0.3457 -1.4744  0.4474
11770TIP3    H256726   4.435   6.538   1.283 -2.6511 -0.7760 -0.6426
11771TIP3   OH256727   5.848   0.366  14.104 -0.3911 -0.2219 -0.2520
11771TIP3    H156728   5.785   0.429  14.138 -0.9586 -0.4397 -0.8689
11771TIP3    H256729   5.861   0.392  14.012 -2.3274 -2.2259 -1.2095
11772TIP3   OH256730   4.487   3.267   2.757 -0.2580  0.2356 -0.3176
11772TIP3    H156731   4.425   3.225   2.817 -1.2440 -0.0595 -1.4922
11772TIP3    H256732   4.570   3.223   2.773 -0.4026  0.4288  1.0845
11773TIP3   OH256733   7.081   5.418   2.269 -0.1029  0.4367  0.4834
11773TIP3    H156734   7.168   5.452   2.250 -0.4052 -0.3436 -2.7753
11773TIP3    H256735   7.091   5.323   2.267 -1.2371  0.3194 -1.3649
11774TIP3   OH256736   6.155   1.117   2.129 -0.0628 -0.0369  0.4664
11774TIP3    H156737   6.237   1.163   2.149 -0.2148  0.0167  0.9951
11774TIP3    H256738   6.164   1.032   2.171 -0.1385 -0.1613  0.2313
11775TIP3   OH256739   6.215   1.950   1.344  0.1212 -0.2212 -1.0416
11775TIP3    H156740   6.164   1.943   1.264 -0.2965 -0.2097 -0.7794
11775TIP3    H256741   6.305   1.928   1.318 -0.0802 -0.5750 -1.4324
11776TIP3   OH256742   2.748   3.580   3.004  0.0867  0.7292  0.8506
11776TIP3    H156743   2.731   3.606   2.914 -1.5975  2.8446  1.6878
11776TIP3    H256744   2.817   3.639   3.034  0.1741  0.4836  1.1428
11777TIP3   OH256745   0.102   4.266  14.684  0.1007  0.2618  0.1573
11777TIP3    H156746   0.167   4.272  14.614  0.9810 -0.3121  0.9142
11777TIP3    H256747   0.098   4.173  14.706  0.0422  0.4691  1.0680
11778TIP3   OH256748   6.617   6.718   1.661  0.3236  0.9372  0.1078
11778TIP3    H156749   6.650   6.685   1.577  2.0984 -0.4478  1.2867
11778TIP3    H256750   6.650   6.807   1.666  0.8143  0.7877 -0.3505
11779TIP3   OH256751   5.925   4.683   0.728 -0.6792 -0.2900 -0.3584
11779TIP3    H156752   5.974   4.602   0.735 -0.5524 -0.1535  0.3937
11779TIP3    H256753   5.858   4.665   0.662 -1.0082 -1.1847  0.2007
11780TIP3   OH256754   0.613   0.054   1.410 -0.5660 -0.4347  0.0967
11780TIP3    H156755   0.568   0.022   1.332 -1.1301 -0.8789  0.5936
11780TIP3    H256756   0.562   0.019   1.483  0.4495 -0.7366  0.6725
11781TIP3   OH256757   5.839   6.876   2.949 -0.3972 -0.2445 -0.4922
11781TIP3    H156758   5.825   6.871   2.854 -2.2221  0.8208 -0.3378
11781TIP3    H256759   5.760   6.835   2.986 -0.0355 -0.0179  0.5582
11782TIP3   OH256760   4.774   2.883   1.846 -0.0123  0.0361 -0.3996
11782TIP3    H156761   4.737   2.934   1.919  1.1647  1.6188 -0.8587
11782TIP3    H256762   4.698   2.841   1.805 -0.8375  0.1595  0.9397
11783TIP3   OH256763   1.898   4.505   3.599 -0.1524  0.4793  0.3898
11783TIP3    H156764   1.937   4.593   3.594  0.8568 -0.0016 -1.4781
11783TIP3    H256765   1.970   4.449   3.630 -0.2547  0.0522 -0.1324
11784TIP3   OH256766   3.259   1.511   2.951  0.6394  0.3597 -0.5588
11784TIP3    H156767   3.342   1.540   2.991  0.0386  1.5921 -0.1381
11784TIP3    H256768   3.198   1.509   3.025  0.2004 -0.1572 -0.9382
11785TIP3   OH256769   5.027   1.903  14.754  0.2820 -0.2804  0.3772
11785TIP3    H156770   5.041   1.815  14.791  1.3850  0.1218  0.9605
11785TIP3    H256771   4.982   1.951  14.822  1.6592  0.2445  0.9460
11786TIP3   OH256772   3.003   0.900  14.185 -0.4015  0.1886 -0.2811
11786TIP3    H156773   2.977   0.905  14.093  0.6671 -0.8215 -0.6676
11786TIP3    H256774   2.944   0.834  14.222 -0.6833  0.4320 -0.2918
11787TIP3   OH256775   1.492   6.647  14.845  0.7838  0.8112  0.2033
11787TIP3    H156776   1.455   6.659  14.932 -0.3952  0.7228 -0.2555
11787TIP3    H256777   1.521   6.555  14.844  0.5561  0.7355  0.4164
11788TIP3   OH256778   0.485   2.276  14.109 -0.2474 -0.6905  0.3012
11788TIP3    H156779   0.416   2.214  14.134 -1.5735 -0.2719 -2.0104
11788TIP3    H256780   0.521   2.307  14.192 -2.0726 -1.7612  1.5655
11789TIP3   OH256781   6.043   6.227   0.608 -0.6449  0.6262 -0.1540
11789TIP3    H156782   5.989   6.160   0.565 -0.2865  0.9402 -1.1195
11789TIP3    H256783   5.980   6.287   0.648 -0.9737 -0.1231  0.4739
11790TIP3   OH256784   6.056   1.084   1.719 -0.5111  0.1803  0.3632
11790TIP3    H156785   5.998   1.110   1.648  0.6103  0.6669 -0.4065
11790TIP3    H256786   6.107   1.163   1.739  1.5591 -0.8071 -0.6540
11791TIP3   OH256787   0.396   0.143   2.670  0.0344  0.0868 -0.1671
11791TIP3    H156788   0.436   0.057   2.687 -1.6632 -0.5950  0.6544
11791TIP3    H256789   0.414   0.194   2.749  0.1997  0.1500 -0.2455
11792TIP3   OH256790   6.944   1.726   2.590 -0.0462 -0.1941  0.5476
11792TIP3    H156791   6.898   1.651   2.550  1.1356  0.1822 -1.6881
11792TIP3    H256792   6.966   1.696   2.678 -1.5948 -1.6217  0.4989
11793TIP3   OH256793   2.541   3.556   9.552 -0.1272 -0.3494 -0.1550
11793TIP3    H156794   2.469   3.519   9.501 -0.0687 -2.4742  1.1829
11793TIP3    H256795   2.614   3.496   9.536  0.9697  1.0128 -0.4039
11794TIP3   OH256796   6.645   3.577   3.590  0.2492  0.1582 -0.0520
11794TIP3    H156797   6.671   3.613   3.505  0.5761 -0.6400 -0.2991
11794TIP3    H256798   6.563   3.531   3.572 -1.1781  2.2468  0.6229
11795TIP3   OH256799   2.639   0.508   1.844  0.3411  0.4322 -0.5774
11795TIP3    H156800   2.597   0.496   1.929  0.0522  1.5727 -0.5317
11795TIP3    H256801   2.612   0.433   1.792 -2.0283  1.2549 -0.6503
11796TIP3   OH256802   6.553   4.821   0.085  0.2737 -0.1121  0.5555
11796TIP3    H156803   6.509   4.884   0.142 -0.5814  0.4204 -0.6454
11796TIP3    H256804   6.584   4.752   0.144 -1.8842 -0.3331  1.5047
11797TIP3   OH256805   1.684   6.776  10.025 -0.0390 -0.1171 -0.1240
11797TIP3    H156806   1.690   6.685   9.997  0.2112 -0.2796  0.4433
11797TIP3    H256807   1.725   6.826   9.954 -0.0241 -0.4569 -0.3559
11798TIP3   OH256808   2.961   0.277   4.775 -0.3746  0.1126 -0.3069
11798TIP3    H156809   2.971   0.344   4.707 -3.0267  0.2124 -0.7160
11798TIP3    H256810   2.874   0.294   4.812 -0.2036 -1.7611  1.0939
11799TIP3   OH256811   6.728   0.795   1.503  0.0395  0.0783  0.3509
11799TIP3    H156812   6.752   0.887   1.500  0.6741 -0.0506  1.0410
11799TIP3    H256813   6.766   0.763   1.585  0.6581 -1.0167 -0.3333
11800TIP3   OH256814   1.462   4.767  14.800 -0.2059 -0.1313 -0.0896
11800TIP3    H156815   1.421   4.813  14.873 -0.1781 -1.0055  0.4886
11800TIP3    H256816   1.428   4.811  14.722 -0.4064  0.6692  0.4378
11801TIP3   OH256817   0.678   5.070   2.360  0.4472  0.0472  0.4532
11801TIP3    H156818   0.705   5.161   2.367 -1.8228  0.7116  1.7269
11801TIP3    H256819   0.610   5.070   2.292 -2.1146  0.1100  2.8119
11802TIP3   OH256820   3.843   5.182   4.889 -0.3151  0.2890 -0.3937
11802TIP3    H156821   3.891   5.157   4.968  1.2191  0.1288 -1.3540
11802TIP3    H256822   3.828   5.100   4.843 -4.6971 -0.2665  1.4766
11803TIP3   OH256823   6.371   2.891   2.338  0.0308 -0.0716 -0.1903
11803TIP3    H156824   6.461   2.899   2.306 -0.0760 -1.6197 -1.0058
11803TIP3    H256825   6.328   2.973   2.312  0.8493  0.0991 -1.0660
11804TIP3   OH256826   2.081   7.166   2.162  0.1425  0.6164 -0.2183
11804TIP3    H156827   1.988   7.189   2.156  0.3335  1.4130 -0.3167
11804TIP3    H256828   2.120   7.240   2.209  1.0003  1.1231 -1.6497
11805TIP3   OH256829   3.635   2.393   1.457  0.5152  0.7326  0.2436
11805TIP3    H156830   3.639   2.449   1.534  1.0781  0.9752  0.0441
11805TIP3    H256831   3.665   2.307   1.488  0.5553  0.7810  0.3396
11806TIP3   OH256832   5.251   5.761   4.136 -0.0159 -0.2063 -0.0704
11806TIP3    H156833   5.227   5.740   4.226 -0.3454 -2.8369 -0.6746
11806TIP3    H256834   5.325   5.703   4.116 -1.5496 -1.5924 -2.2125
11807TIP3   OH256835   3.126   0.292   3.543 -0.1244  0.0164  0.4092
11807TIP3    H156836   3.122   0.241   3.462 -0.4329 -0.5498  0.7720
11807TIP3    H256837   3.046   0.268   3.590 -0.9760  1.8338  0.0053
11808TIP3   OH256838   4.265   1.560   2.229 -0.0248 -0.3063 -0.3143
11808TIP3    H156839   4.214   1.489   2.267 -0.9849  1.2638  1.5147
11808TIP3    H256840   4.336   1.574   2.291 -2.4265  3.2652  1.9657
11809TIP3   OH256841   0.092   2.553   0.290 -0.1921  0.2126 -0.4816
11809TIP3    H156842   0.137   2.552   0.375  1.2559 -2.4339 -1.1870
11809TIP3    H256843   0.019   2.614   0.303  0.8850  1.0992  2.1493
11810TIP3   OH256844   6.210   5.801   5.192 -0.0890  0.4666  0.4793
11810TIP3    H156845   6.215   5.831   5.283  0.9910  0.2640  0.5093
11810TIP3    H256846   6.224   5.706   5.197 -0.4611  0.3887  0.1353
11811TIP3   OH256847   6.926   2.665  12.921 -0.4566  0.2209  0.1451
11811TIP3    H156848   7.013   2.643  12.888 -0.2524 -0.6602  1.1995
11811TIP3    H256849   6.866   2.616  12.865 -0.1906 -0.2413  0.2600
11812TIP3   OH256850   0.581   4.456   3.345 -0.2567 -0.0347  0.0918
11812TIP3    H156851   0.617   4.529   3.294  0.2821  1.5981  2.6372
11812TIP3    H256852   0.608   4.378   3.297 -0.9390  1.3738 -2.8082
11813TIP3   OH256853   6.414   3.034   0.189 -0.1828  0.3584  0.1241
11813TIP3    H156854   6.470   3.004   0.118  0.0575 -0.3759  0.6199
11813TIP3    H256855   6.350   3.091   0.146  0.6235  0.8021 -0.5198
11814TIP3   OH256856   0.856   5.725  14.474 -0.1140 -0.0283  1.0416
11814TIP3    H156857   0.876   5.726  14.568  2.4963 -0.0015  0.5681
11814TIP3    H256858   0.832   5.816  14.455  1.4174  0.4890  1.3618
11815TIP3   OH256859   0.524   6.782   0.085  0.3989  0.0172 -0.0485
11815TIP3    H156860   0.527   6.689   0.110 -2.0117 -0.0978  0.0947
11815TIP3    H256861   0.468   6.822   0.151 -1.7786  0.7661 -2.2018
11816TIP3   OH256862   0.195   2.531  11.198  0.1344 -0.5748 -0.3294
11816TIP3    H156863   0.250   2.477  11.141 -2.0465 -1.1547 -1.9673
11816TIP3    H256864   0.200   2.618  11.160 -0.8781 -0.8454 -1.1043
11817TIP3   OH256865   6.879   2.685  13.570  0.5331 -1.0823 -0.0436
11817TIP3    H156866   6.786   2.670  13.585  0.8491 -2.0891  1.1390
11817TIP3    H256867   6.914   2.707  13.657  1.1456  0.8332 -0.7343
11818TIP3   OH256868   2.299   0.986   4.129  0.5059 -0.0266  0.1042
11818TIP3    H156869   2.358   1.032   4.068  1.1286 -0.9418 -0.0119
11818TIP3    H256870   2.230   1.049   4.148  1.5120  1.0749  0.2206
11819TIP3   OH256871   2.044   3.178   2.623 -0.7849 -0.2801 -0.7661
11819TIP3    H156872   2.059   3.243   2.555 -0.3165 -2.5377 -2.9443
11819TIP3    H256873   1.961   3.203   2.663 -0.0858  2.2264 -0.7355
11820TIP3   OH256874   3.349   1.299  14.175  0.7388 -0.0356  0.0683
11820TIP3    H156875   3.309   1.378  14.212  0.7993  0.1335 -0.2216
11820TIP3    H256876   3.443   1.315  14.180  0.7370  0.3503 -0.9216
11821TIP3   OH256877   5.837   3.124  13.537  0.4971 -0.3076  0.1310
11821TIP3    H156878   5.817   3.215  13.516  0.4798 -0.1350  0.8721
11821TIP3    H256879   5.769   3.098  13.599 -0.4488 -1.3361 -1.2910
11822TIP3   OH256880   3.291   6.681  15.259 -0.5829  0.8465 -0.3717
11822TIP3    H156881   3.315   6.612  15.321  2.1390  2.4167  0.5177
11822TIP3    H256882   3.325   6.651  15.175 -1.5454  0.0926 -0.5130
11823TIP3   OH256883   5.694   6.308   4.345 -0.5657  0.6525  0.2965
11823TIP3    H156884   5.718   6.395   4.376 -2.0337  0.7442  1.3104
11823TIP3    H256885   5.599   6.309   4.342 -0.6216 -0.9434  0.4233
11824TIP3   OH256886   6.524   5.445   5.287 -0.0602 -0.5559 -0.4878
11824TIP3    H156887   6.599   5.499   5.265  0.0995  0.9058  3.0525
11824TIP3    H256888   6.561   5.360   5.309  0.5590  0.0493  0.8850
11825TIP3   OH256889   6.216   0.294  14.931  0.2354  0.1750 -0.1198
11825TIP3    H156890   6.261   0.378  14.941 -0.6155  0.6567 -0.2551
11825TIP3    H256891   6.126   0.317  14.907 -0.9291 -0.6373  2.9877
11826TIP3   OH256892   2.540   5.739   0.413  0.0473  0.0910  0.1495
11826TIP3    H156893   2.553   5.769   0.323  0.7831 -1.0936 -0.1579
11826TIP3    H256894   2.508   5.816   0.459 -1.5420  0.4264 -1.3807
11827TIP3   OH256895   1.827   7.159   5.099  0.4802  0.1308  0.3642
11827TIP3    H156896   1.878   7.109   5.164  1.1977 -0.1057 -0.3655
11827TIP3    H256897   1.789   7.092   5.042  0.5004  0.3716  0.0684
11828TIP3   OH256898   0.180   1.396   3.811  0.3040 -0.7134 -0.1992
11828TIP3    H156899   0.259   1.398   3.757  0.4879 -2.0982 -0.0165
11828TIP3    H256900   0.211   1.385   3.900 -0.0322  0.8718  0.1424
11829TIP3   OH256901   0.785   6.306  14.734 -0.4619 -0.4771  0.6566
11829TIP3    H156902   0.754   6.226  14.778 -2.1498  0.3277  0.9894
11829TIP3    H256903   0.880   6.293  14.727 -0.6884 -2.5696  0.5834
11830TIP3   OH256904   0.096   4.525   0.683  0.3158  0.0865  0.4064
11830TIP3    H156905   0.151   4.564   0.750  1.9842  0.2476 -0.9706
11830TIP3    H256906   0.158   4.485   0.622 -1.2023 -1.7254 -0.0463
11831TIP3   OH256907   3.587   3.452   5.675 -0.3175 -0.0708 -0.1196
11831TIP3    H156908   3.587   3.364   5.637  0.8471 -0.0968 -0.1000
11831TIP3    H256909   3.660   3.451   5.737 -0.0301  1.0301 -0.4213
11832TIP3   OH256910   5.599   3.020   5.000 -0.0775 -0.5215 -0.1813
11832TIP3    H156911   5.564   3.036   4.912  1.3977  1.6283 -0.4818
11832TIP3    H256912   5.555   3.083   5.056  0.0109 -0.9170  0.3465
11833TIP3   OH256913   5.262   4.886  12.752  0.5450 -0.2673 -0.2727
11833TIP3    H156914   5.295   4.810  12.801 -0.0075 -0.6738 -0.5293
11833TIP3    H256915   5.231   4.851  12.669  0.3901  0.2558 -0.4435
11834TIP3   OH256916   5.147   3.762   9.337  0.3858  0.1777  0.4872
11834TIP3    H156917   5.221   3.704   9.355  0.7160  0.3437 -0.3116
11834TIP3    H256918   5.187   3.846   9.315 -0.0614  0.4498  0.7023
11835TIP3   OH256919   5.606   3.417   3.955  0.2712  0.2894  0.2186
11835TIP3    H156920   5.660   3.343   3.982 -0.7132 -0.1746  0.9982
11835TIP3    H256921   5.592   3.404   3.861 -0.4032 -0.8714  0.4673
11836TIP3   OH256922   3.135   6.014   4.689 -1.1283  0.6238 -0.9115
11836TIP3    H156923   3.076   6.041   4.618 -2.6463 -0.9196 -0.3231
11836TIP3    H256924   3.087   6.035   4.769 -0.9912 -0.8170 -0.4201
11837TIP3   OH256925   0.512   3.465   3.254  0.2029 -0.7470 -0.9155
11837TIP3    H156926   0.453   3.391   3.267 -0.5358  0.0982  0.7089
11837TIP3    H256927   0.463   3.525   3.197 -1.6341  1.0473  2.2871
11838TIP3   OH256928   0.196   6.125   0.206  0.3051 -1.1240  0.5671
11838TIP3    H156929   0.207   6.218   0.225  1.2938 -1.4913  1.9506
11838TIP3    H256930   0.268   6.104   0.147  1.4433 -1.4488  2.0052
11839TIP3   OH256931   2.181   4.998   0.996 -0.0888 -0.1459  0.6170
11839TIP3    H156932   2.111   5.026   0.937  0.0729  0.5318  0.7382
11839TIP3    H256933   2.236   5.076   1.006  0.3397 -0.4971  1.0091
11840TIP3   OH256934   0.105   3.008   1.956 -0.0677  0.2015  0.8277
11840TIP3    H156935   0.023   2.966   1.933  0.7332  0.2158 -2.5483
11840TIP3    H256936   0.173   2.953   1.918  1.2100  2.4090 -0.3420
11841TIP3   OH256937   5.249   2.333  11.495 -0.4468  0.4267  0.3221
11841TIP3    H156938   5.323   2.346  11.436 -0.7744  2.1379  0.2344
11841TIP3    H256939   5.263   2.397  11.565 -0.0878 -1.5171  2.1254
11842TIP3   OH256940   2.918   1.702  13.911 -0.1184  0.2080 -0.5795
11842TIP3    H156941   2.877   1.641  13.972  0.8750 -0.5751 -0.6566
11842TIP3    H256942   2.892   1.671  13.824 -1.8348  1.5413 -0.5926
11843TIP3   OH256943   2.254   5.456  14.944 -0.4686 -0.3919 -0.4914
11843TIP3    H156944   2.308   5.449  15.023 -1.2244 -0.7065  0.0105
11843TIP3    H256945   2.177   5.506  14.971 -0.8420 -0.6944 -0.9671
11844TIP3   OH256946   4.896   5.167   2.960  0.3887  1.1879  0.0971
11844TIP3    H156947   4.984   5.132   2.976  0.2688  1.3866  1.2619
11844TIP3    H256948   4.909   5.261   2.950  0.3966  1.1276 -0.4713
11845TIP3   OH256949   0.787   2.052   3.069  0.3104  0.2195 -0.3481
11845TIP3    H156950   0.878   2.060   3.041 -0.5318  1.6057 -3.0270
11845TIP3    H256951   0.772   2.129   3.124  1.1067 -0.8123  1.3833
11846TIP3   OH256952   2.265   4.677  11.622 -0.1987  0.3982  1.1545
11846TIP3    H156953   2.325   4.604  11.632 -1.3478 -1.2652 -2.2660
11846TIP3    H256954   2.320   4.754  11.621  1.6300 -0.8526  0.3846
11847TIP3   OH256955   2.430   1.438   1.089 -0.2042  0.8245  0.0978
11847TIP3    H156956   2.503   1.475   1.139 -0.4879  0.6645  0.6340
11847TIP3    H256957   2.354   1.450   1.145 -0.5588  0.8062 -0.3749
11848TIP3   OH256958   5.062   2.469   0.614  0.5239  0.6632 -0.2328
11848TIP3    H156959   5.027   2.555   0.589 -3.9710 -1.1834 -1.2059
11848TIP3    H256960   5.078   2.424   0.532 -4.8057 -1.9283 -0.2981
11849TIP3   OH256961   1.488   3.248   2.543  0.3130 -0.7744 -0.3831
11849TIP3    H156962   1.518   3.326   2.496  0.3131  0.2000  1.1458
11849TIP3    H256963   1.562   3.188   2.540  0.3386 -0.6994 -1.5335
11850TIP3   OH256964   2.840   3.945   3.670 -0.8511 -0.1421 -0.6216
11850TIP3    H156965   2.890   4.026   3.657  0.0356 -0.6946 -0.7813
11850TIP3    H256966   2.844   3.929   3.764 -2.6049  0.9608 -0.3274
11851TIP3   OH256967   0.296   1.733  10.966  0.3803 -0.3752 -0.0925
11851TIP3    H156968   0.370   1.768  11.016  0.2467 -0.4653  0.1710
11851TIP3    H256969   0.230   1.802  10.969 -0.4658 -1.1840  1.6943
11852TIP3   OH256970   3.782   3.989  10.594 -0.3760  0.0775 -0.0034
11852TIP3    H156971   3.727   4.055  10.551  2.2622  1.4246 -1.5858
11852TIP3    H256972   3.871   4.023  10.585  0.9071 -2.7176  1.0624
11853TIP3   OH256973   6.714   1.737   2.256  0.0039  0.4397 -0.1685
11853TIP3    H156974   6.747   1.715   2.168  1.5911 -0.1794  0.5464
11853TIP3    H256975   6.621   1.714   2.252 -0.2227  1.4854 -2.0189
11854TIP3   OH256976   3.347   4.745   0.501  0.0899 -0.3012 -0.3496
11854TIP3    H156977   3.409   4.816   0.486 -0.1039 -0.2786 -1.0600
11854TIP3    H256978   3.370   4.678   0.436 -1.3494  0.1929 -1.4128
11855TIP3   OH256979   3.462   5.930  14.470 -0.2824  0.5472  0.1766
11855TIP3    H156980   3.499   5.952  14.556  1.3191  0.3288 -0.4201
11855TIP3    H256981   3.378   5.976  14.468 -0.1505  0.9360  1.6694
11856TIP3   OH256982   4.832   1.945  14.549 -0.1679 -0.2078 -0.0868
11856TIP3    H156983   4.889   1.913  14.620 -1.5993 -0.6875  0.9070
11856TIP3    H256984   4.882   1.928  14.469  0.5166 -1.9205  0.6374
11857TIP3   OH256985   1.135   4.305   2.634 -1.2712 -0.0459 -0.1398
11857TIP3    H156986   1.068   4.316   2.567 -0.3318 -0.9567 -1.2818
11857TIP3    H256987   1.163   4.214   2.626 -0.6099  0.0354  0.9962
11858TIP3   OH256988   2.241   5.283   2.214 -0.6167 -0.1620  0.1779
11858TIP3    H156989   2.257   5.356   2.274  0.8875 -0.2773 -0.0407
11858TIP3    H256990   2.179   5.317   2.150 -0.1807  0.8205  0.2646
11859TIP3   OH256991   7.205   0.167   0.184  0.5171 -0.2169 -1.0274
11859TIP3    H156992   7.158   0.111   0.246  0.3979  0.6999 -0.2562
11859TIP3    H256993   7.216   0.114   0.106 -1.1314 -0.7162 -0.9508
11860TIP3   OH256994   6.802   0.363   2.297 -0.8800 -1.1475  0.7497
11860TIP3    H156995   6.850   0.290   2.334  0.2128 -1.2398 -0.7708
11860TIP3    H256996   6.720   0.325   2.264 -1.0727 -1.3657  1.4773
11861TIP3   OH256997   2.334   6.677   0.154 -0.0405 -0.4894 -0.4827
11861TIP3    H156998   2.318   6.626   0.234 -2.4446  1.6964  0.5884
11861TIP3    H256999   2.426   6.703   0.161  0.1041 -1.2446  1.0296
11862TIP3   OH257000   1.150   6.604  14.401  0.0961 -0.0862 -0.6745
11862TIP3    H157001   1.142   6.664  14.475  0.4877 -0.2886 -0.4652
11862TIP3    H257002   1.236   6.625  14.363  0.0009 -0.1482 -0.9286
11863TIP3   OH257003   3.845   5.065   4.458 -0.1157 -0.1259 -0.7372
11863TIP3    H157004   3.775   5.116   4.498  0.4347 -1.2270  1.8861
11863TIP3    H257005   3.814   4.975   4.460  0.2536 -0.3017 -2.1806
11864TIP3   OH257006   5.679   4.635   0.178  0.0422 -0.6039 -0.6962
11864TIP3    H157007   5.596   4.653   0.223 -0.3869 -1.7228 -1.0209
11864TIP3    H257008   5.722   4.721   0.175 -0.1977 -0.3659  1.2330
11865TIP3   OH257009   3.705   0.772  10.025 -0.2614 -0.8310  0.0877
11865TIP3    H157010   3.775   0.768   9.960 -1.7448 -0.8094 -1.5899
11865TIP3    H257011   3.639   0.711   9.994 -2.3108  1.3031 -0.0518
11866TIP3   OH257012   1.254   7.107  13.447 -0.1806  0.6895  0.0280
11866TIP3    H157013   1.302   7.067  13.375  1.0824  1.5024  0.3927
11866TIP3    H257014   1.164   7.074  13.437  0.3569 -0.5582 -0.8827
11867TIP3   OH257015   5.699   6.385  11.511  0.1670  0.3683 -0.0983
11867TIP3    H157016   5.761   6.319  11.540 -0.3771 -0.5281 -0.9297
11867TIP3    H257017   5.694   6.447  11.584  2.1955  0.5961 -0.1166
11868TIP3   OH257018   1.213   3.355   1.078 -0.0407 -0.2445 -0.3579
11868TIP3    H157019   1.181   3.264   1.083  0.1040 -0.3113 -0.6737
11868TIP3    H257020   1.236   3.368   0.986  1.5816 -0.4423 -0.0129
11869TIP3   OH257021   0.749   3.441   4.182  0.2468  0.4945 -0.1859
11869TIP3    H157022   0.838   3.417   4.156  1.2646  3.3792  0.2399
11869TIP3    H257023   0.693   3.400   4.117  1.9450 -0.7808 -0.9139
11870TIP3   OH257024   4.782   6.069  13.866 -0.1398  0.2672 -0.3443
11870TIP3    H157025   4.848   6.088  13.798  0.5777 -1.6259 -0.2333
11870TIP3    H257026   4.727   6.148  13.869  0.7941  1.0276 -1.9793
11871TIP3   OH257027   6.666   4.687   3.268  0.0443  0.0631  0.3727
11871TIP3    H157028   6.594   4.712   3.326 -0.9439 -3.7116  1.0651
11871TIP3    H257029   6.745   4.708   3.318 -0.6322  1.2712  0.9895
11872TIP3   OH257030   3.428   4.622   1.194 -0.5784 -0.1802  0.4105
11872TIP3    H157031   3.467   4.708   1.173  1.9439 -0.7441  2.3114
11872TIP3    H257032   3.370   4.604   1.120  1.2831  1.7193 -1.6781
11873TIP3   OH257033   2.857   3.137   1.583 -0.3396  0.2558  0.2680
11873TIP3    H157034   2.891   3.152   1.495 -1.7894  1.7706 -0.0965
11873TIP3    H257035   2.900   3.057   1.612  0.4383 -0.0955 -1.6763
11874TIP3   OH257036   1.956   6.787   1.629  0.3120  0.1011  0.0718
11874TIP3    H157037   1.998   6.861   1.673 -0.6032  1.7114 -1.6337
11874TIP3    H257038   2.028   6.731   1.602  1.0237  0.3144  1.4449
11875TIP3   OH257039   5.858   2.858   2.592 -0.0499 -0.1655 -0.2090
11875TIP3    H157040   5.898   2.784   2.639 -0.0985 -1.4989 -2.1251
11875TIP3    H257041   5.782   2.819   2.549 -1.2191  1.4829  0.2894
11876TIP3   OH257042   0.080   3.964  10.814 -0.3937  0.0529 -0.5082
11876TIP3    H157043   0.029   4.023  10.758  0.5049  1.3634  0.0045
11876TIP3    H257044   0.014   3.921  10.869 -1.0468  1.0222 -0.4971
11877TIP3   OH257045   0.061   6.012  14.751  0.4994  0.8593  0.3111
11877TIP3    H157046   0.012   5.954  14.693  0.6536  1.6285 -0.6190
11877TIP3    H257047   0.091   5.956  14.822 -4.0668  0.8062  2.5136
11878TIP3   OH257048   6.184   0.998   0.198 -0.0960 -0.1694 -0.2641
11878TIP3    H157049   6.255   1.040   0.148  0.7421 -1.2576 -0.0382
11878TIP3    H257050   6.174   0.912   0.156 -0.7436 -0.3271  0.2079
11879TIP3   OH257051   3.672   1.793  14.463  0.1317 -0.2985 -0.7514
11879TIP3    H157052   3.699   1.738  14.389 -0.8665 -2.8905  0.6765
11879TIP3    H257053   3.576   1.792  14.460  0.0908  0.5248 -0.0803
11880TIP3   OH257054   4.219   2.958  10.131 -0.1604  0.0087  0.3799
11880TIP3    H157055   4.187   2.946  10.221  0.8676  1.7270  1.0171
11880TIP3    H257056   4.314   2.967  10.141 -0.0403  0.2994 -0.8788
11881TIP3   OH257057   3.196   5.955   3.151  0.2819 -0.0236  0.0526
11881TIP3    H157058   3.225   5.994   3.234  1.2047  0.4670 -0.4785
11881TIP3    H257059   3.242   5.871   3.147  2.6377  1.2230 -1.2984
11882TIP3   OH257060   5.486   5.582   0.718 -0.8330  0.6648  0.4640
11882TIP3    H157061   5.530   5.652   0.670 -2.2756  0.5284 -1.1711
11882TIP3    H257062   5.532   5.503   0.692  0.1984  0.8805  1.5745
11883TIP3   OH257063   1.188   4.629  14.435 -0.2167  0.5833 -0.1465
11883TIP3    H157064   1.171   4.620  14.528 -0.3447 -2.0583 -0.3461
11883TIP3    H257065   1.176   4.541  14.400  3.4220  0.6764 -2.0700
11884TIP3   OH257066   1.885   4.615   4.028 -0.0955 -0.1980  0.3690
11884TIP3    H157067   1.813   4.581   3.976 -0.1221  0.0818  0.2186
11884TIP3    H257068   1.853   4.613   4.119 -1.3518  2.4497  0.0796
11885TIP3   OH257069   2.906   3.934   3.978  0.7688  0.2668  0.0892
11885TIP3    H157070   2.996   3.961   3.996  1.4995 -0.6117 -1.9972
11885TIP3    H257071   2.894   3.854   4.029 -0.2545  2.3502  3.5116
11886TIP3   OH257072   5.216   6.259   3.757  0.0173  0.0488  0.3052
11886TIP3    H157073   5.137   6.211   3.781 -0.2837  0.7855  0.8105
11886TIP3    H257074   5.189   6.317   3.686  0.7150 -1.5291 -1.3313
11887TIP3   OH257075   5.624   4.182  12.427 -0.1861  0.0119 -0.1542
11887TIP3    H157076   5.580   4.252  12.377  0.3023  1.8087  1.7750
11887TIP3    H257077   5.708   4.170  12.382 -0.7952 -0.2448 -1.2454
11888TIP3   OH257078   4.403   0.322   0.597  0.2132 -0.1429  0.4695
11888TIP3    H157079   4.487   0.279   0.588  0.5377  0.5018  0.3464
11888TIP3    H257080   4.402   0.355   0.687  0.8390  1.3609 -0.0508
11889TIP3   OH257081   1.824   6.843  13.528 -0.0526 -0.4271  0.1143
11889TIP3    H157082   1.824   6.812  13.438  1.0094 -2.7464  0.8410
11889TIP3    H257083   1.733   6.870  13.544 -0.6998 -1.7737 -1.0706
11890TIP3   OH257084   2.723   1.439  10.854  0.3584  0.5380 -0.5674
11890TIP3    H157085   2.681   1.382  10.790 -0.2436  2.2201 -1.7657
11890TIP3    H257086   2.687   1.412  10.938  1.3995 -1.9363 -0.8536
11891TIP3   OH257087   0.840   3.454  13.726  0.4965 -0.1452 -0.3341
11891TIP3    H157088   0.884   3.384  13.677  0.7864 -0.5353  0.4635
11891TIP3    H257089   0.748   3.447  13.699  0.6768 -0.2517 -0.9336
11892TIP3   OH257090   3.799   5.320   5.530 -0.3893  0.3981  0.1727
11892TIP3    H157091   3.891   5.345   5.540  0.0030 -0.9298  0.0437
11892TIP3    H257092   3.755   5.359   5.606  0.4527  0.2083  0.7704
11893TIP3   OH257093   1.079   7.056   2.799 -0.0854 -0.0958 -0.2845
11893TIP3    H157094   1.153   7.113   2.778  1.4883 -1.6568  0.8461
11893TIP3    H257095   1.052   7.083   2.886 -0.6790  0.2537 -0.5669
11894TIP3   OH257096   4.697   3.034   2.475 -0.4808  0.2171  0.3167
11894TIP3    H157097   4.700   2.939   2.482  2.3490  0.3754  3.8048
11894TIP3    H257098   4.788   3.060   2.462 -1.1166  2.5265 -0.0010
11895TIP3   OH257099   2.078   5.224  12.153 -0.0982 -0.0210 -0.2704
11895TIP3    H157100   2.109   5.206  12.241 -0.1052  2.1920  0.2418
11895TIP3    H257101   2.085   5.140  12.107  1.6095 -0.7925  1.3034
11896TIP3   OH257102   3.847   1.101   9.994  0.0073  0.6148  0.0062
11896TIP3    H157103   3.846   1.052  10.076  1.1768  0.8269  0.1740
11896TIP3    H257104   3.819   1.039   9.927  0.5412 -0.0077  0.3531
11897TIP3   OH257105   2.510   2.877  12.087 -0.4102 -0.2382 -0.0116
11897TIP3    H157106   2.442   2.857  12.152  0.4678 -1.6247  0.5247
11897TIP3    H257107   2.572   2.933  12.134 -0.6419  0.1780 -0.1931
11898TIP3   OH257108   6.367   6.053   1.365 -0.2794  0.0417 -0.6180
11898TIP3    H157109   6.306   6.119   1.399 -1.1489 -0.8968 -0.3111
11898TIP3    H257110   6.382   6.079   1.274  1.4565  2.1453  0.1875
11899TIP3   OH257111   0.024   0.956  14.545  0.1460  0.1318  0.0459
11899TIP3    H157112   0.112   0.919  14.554  0.1061  0.4464  2.4142
11899TIP3    H257113   0.034   1.047  14.572 -0.5100  0.8634 -1.9742
11900TIP3   OH257114   5.949   3.060   2.435 -0.2733  0.0934  0.2872
11900TIP3    H157115   5.936   2.986   2.494 -3.0951  0.8521  0.7382
11900TIP3    H257116   5.994   3.125   2.488  1.8997 -1.0766 -0.0058
11901TIP3   OH257117   5.271   5.038   1.329  0.1246  0.0452 -0.4363
11901TIP3    H157118   5.364   5.022   1.317  0.0153 -2.2995  1.1683
11901TIP3    H257119   5.235   5.042   1.240  1.7223  1.1926 -1.0760
11902TIP3   OH257120   0.570   4.404   4.792 -0.4541  0.3224 -0.1930
11902TIP3    H157121   0.583   4.406   4.886 -1.3855 -1.1862 -0.0162
11902TIP3    H257122   0.578   4.312   4.767 -0.1497  0.6939 -1.6049
11903TIP3   OH257123   0.481   3.159  10.308 -0.3779  0.5901 -0.0171
11903TIP3    H157124   0.557   3.211  10.333  0.2019  0.1174 -0.7642
11903TIP3    H257125   0.511   3.105  10.235 -1.3413  0.1671 -0.1217
11904TIP3   OH257126   1.901   5.369  10.396 -0.0128  0.2928 -0.6724
11904TIP3    H157127   1.972   5.305  10.396  0.9287  1.2765  0.5005
11904TIP3    H257128   1.822   5.318  10.379  0.4421 -1.5183  1.9645
11905TIP3   OH257129   1.632   5.415   3.517  0.2109  0.4717 -0.2596
11905TIP3    H157130   1.668   5.494   3.478  0.0181  1.0125  0.6276
11905TIP3    H257131   1.538   5.421   3.500  0.3000  0.0105 -0.9234
11906TIP3   OH257132   7.185   5.347  15.243 -0.1077  0.4105 -0.5318
11906TIP3    H157133   7.106   5.351  15.296  0.4047  0.0890  0.2836
11906TIP3    H257134   7.235   5.426  15.267  0.2901  0.0812 -0.2583
11907TIP3   OH257135   2.824   5.338  14.630 -0.3660 -0.0936 -0.2916
11907TIP3    H157136   2.755   5.392  14.592 -0.6368 -0.5167 -0.4049
11907TIP3    H257137   2.864   5.294  14.554  0.8026  1.0231 -0.3676
11908TIP3   OH257138   1.279   2.910  12.716  0.1849  0.0846 -0.3654
11908TIP3    H157139   1.193   2.869  12.725 -0.0995  0.7847  0.0893
11908TIP3    H257140   1.261   3.002  12.699  0.7621 -0.2336 -3.3543
11909TIP3   OH257141   0.660   0.550   4.057 -0.2902 -0.1871  0.5345
11909TIP3    H157142   0.649   0.525   3.965 -1.1454 -0.6689  0.7613
11909TIP3    H257143   0.645   0.644   4.059  2.6195  0.3892 -0.2775
11910TIP3   OH257144   0.761   7.096   4.890  0.4381  0.0439 -0.5780
11910TIP3    H157145   0.778   7.083   4.797  3.1613  0.5993 -0.2520
11910TIP3    H257146   0.790   7.015   4.932 -2.0880 -0.7842 -0.2444
11911TIP3   OH257147   2.205   6.203  14.561 -0.3887 -0.1795  0.2182
11911TIP3    H157148   2.171   6.229  14.646 -0.5506  1.2142 -0.2497
11911TIP3    H257149   2.300   6.198  14.573 -0.2496  1.5018  0.1543
11912TIP3   OH257150   7.106   6.611  15.224 -0.9387  0.1559  0.0710
11912TIP3    H157151   7.108   6.524  15.186  0.8881  0.1760  0.0041
11912TIP3    H257152   7.030   6.654  15.185 -0.9514 -0.8856 -1.0781
11913TIP3   OH257153   6.477   5.162   0.586 -0.5123  0.0092  0.5874
11913TIP3    H157154   6.412   5.232   0.584  0.4409  0.9320  0.9894
11913TIP3    H257155   6.436   5.093   0.638 -1.1824  0.5651  0.8098
11914TIP3   OH257156   4.735   6.383  15.029  0.3175  0.5212 -0.1647
11914TIP3    H157157   4.654   6.372  14.980 -0.4664 -0.7332  1.3187
11914TIP3    H257158   4.713   6.445  15.098 -0.2203 -1.7135  1.8137
11915TIP3   OH257159   5.634   1.400  13.177  0.0518 -0.5230 -0.0284
11915TIP3    H157160   5.679   1.465  13.123  1.4563 -1.2164  0.2636
11915TIP3    H257161   5.702   1.364  13.234 -1.0572 -1.0053  1.0366
11916TIP3   OH257162   6.988   4.125  15.283 -0.2340  0.0413  0.9723
11916TIP3    H157163   7.054   4.140  15.351  0.4404  1.2385  0.1016
11916TIP3    H257164   6.905   4.121  15.330  0.4861 -2.1224  2.1728
11917TIP3   OH257165   6.522   0.504  11.414 -0.1340 -0.5500 -0.2381
11917TIP3    H157166   6.492   0.523  11.325  1.4870 -1.0467 -0.9412
11917TIP3    H257167   6.607   0.462  11.402 -0.1860 -1.2547  1.5426
11918TIP3   OH257168   0.690   2.499   1.225  0.4589  0.2011 -0.0535
11918TIP3    H157169   0.773   2.465   1.192  0.4469  0.0947  0.0254
11918TIP3    H257170   0.690   2.476   1.318 -0.1196 -0.7262 -0.2702
11919TIP3   OH257171   3.720   1.495   5.616 -0.4790 -0.0767  0.0780
11919TIP3    H157172   3.656   1.480   5.686 -0.6294  3.0722  0.7597
11919TIP3    H257173   3.804   1.470   5.654 -0.6205  1.1549  1.2821
11920TIP3   OH257174   1.818   5.806   2.691  0.3182  0.6086  0.4622
11920TIP3    H157175   1.814   5.896   2.661  0.9688  0.5366  0.1390
11920TIP3    H257176   1.843   5.755   2.614  0.8631  0.2731  0.8509
11921TIP3   OH257177   2.092   2.214  13.609  0.1432  0.6418 -0.0534
11921TIP3    H157178   2.110   2.196  13.701 -0.9756 -0.5843 -0.0381
11921TIP3    H257179   2.005   2.253  13.609 -0.5986 -0.9073 -0.6800
11922TIP3   OH257180   4.903   6.059   2.242  0.5970  0.0080  0.0629
11922TIP3    H157181   4.954   6.032   2.319  0.9762 -1.9782 -0.8186
11922TIP3    H257182   4.946   6.139   2.211  1.0742  0.2498  1.2947
11923TIP3   OH257183   3.865   5.019   0.150  0.4056  0.0899 -0.0887
11923TIP3    H157184   3.863   4.981   0.062 -4.0150 -0.5401  0.0539
11923TIP3    H257185   3.926   4.963   0.198  0.4868 -1.5737 -1.9763
11924TIP3   OH257186   5.334   2.453  14.737 -0.2027  0.2490  0.1268
11924TIP3    H157187   5.248   2.437  14.698  0.2592  1.3720 -1.5012
11924TIP3    H257188   5.323   2.535  14.786 -0.0883  0.3673 -0.0426
11925TIP3   OH257189   4.731   3.217  14.069  0.1241  0.1183  0.1438
11925TIP3    H157190   4.735   3.206  13.974  0.8078  0.9225  0.0591
11925TIP3    H257191   4.823   3.218  14.096  0.0288  2.0381  0.5270
11926TIP3   OH257192   1.157   3.128   2.319 -0.5953  0.1356 -0.1356
11926TIP3    H157193   1.085   3.134   2.255  1.2173  0.0616 -2.3291
11926TIP3    H257194   1.192   3.040   2.308 -0.0061  0.2526  0.7064
11927TIP3   OH257195   1.172   4.855  11.663  0.4967 -0.1996  0.4328
11927TIP3    H157196   1.197   4.810  11.583  0.1198 -0.2329  0.3317
11927TIP3    H257197   1.214   4.804  11.733 -0.9164 -1.4626  0.4186
11928TIP3   OH257198   6.020   2.898  14.521 -0.8712 -0.2509 -0.1129
11928TIP3    H157199   6.088   2.961  14.496 -1.8311  0.4885 -0.9802
11928TIP3    H257200   5.938   2.947  14.510 -1.4807 -0.0075  4.0730
11929TIP3   OH257201   6.272   0.828   3.153 -0.4670 -0.1386  0.3475
11929TIP3    H157202   6.189   0.857   3.117 -0.3372 -0.2303 -0.0277
11929TIP3    H257203   6.330   0.820   3.077  0.0719  0.5521  0.6717
11930TIP3   OH257204   5.922   6.625   2.282  0.5923  0.1454  0.4702
11930TIP3    H157205   5.926   6.596   2.373 -0.6021 -1.2004  0.1234
11930TIP3    H257206   5.969   6.709   2.282  1.4506 -0.2830  2.1241
11931TIP3   OH257207   0.401   0.599  12.568  0.9251  0.0443  0.3286
11931TIP3    H157208   0.422   0.599  12.662  1.2503 -1.1050  0.2631
11931TIP3    H257209   0.305   0.601  12.565  0.9119  0.0313  0.6809
11932TIP3   OH257210   3.035   7.156   2.551 -0.2628  0.5231  0.6069
11932TIP3    H157211   3.028   7.204   2.468  0.9977 -0.3064  0.0049
11932TIP3    H257212   2.951   7.110   2.558 -0.3587  0.5382 -0.2511
11933TIP3   OH257213   3.143   0.836  13.135  0.4190  0.5958 -0.2263
11933TIP3    H157214   3.207   0.882  13.079  0.9105 -0.2702 -0.3825
11933TIP3    H257215   3.149   0.745  13.109 -0.1645  0.3489  0.4706
11934TIP3   OH257216   2.265   1.522   4.074  0.8282 -0.0937 -0.2295
11934TIP3    H157217   2.329   1.571   4.023 -1.0598  3.4062  0.4176
11934TIP3    H257218   2.317   1.463   4.129  3.4099  1.7564 -0.5353
11935TIP3   OH257219   5.451   5.590  12.325 -0.4034  0.0859  0.1275
11935TIP3    H157220   5.488   5.592  12.413 -0.2386  0.3394  0.0537
11935TIP3    H257221   5.426   5.498  12.311  0.6679 -0.1924 -0.0143
11936TIP3   OH257222   6.798   4.047  10.433 -0.4573  0.1728 -0.4255
11936TIP3    H157223   6.742   4.019  10.360 -1.1450 -2.9804  1.1082
11936TIP3    H257224   6.737   4.082  10.498 -0.0809  1.1433 -0.5898
11937TIP3   OH257225   4.584   1.001  14.636 -0.4976  0.6404 -0.7796
11937TIP3    H157226   4.588   0.970  14.546  0.9927 -0.6111 -0.3157
11937TIP3    H257227   4.591   1.096  14.628 -1.4466  0.6409 -2.0161
11938TIP3   OH257228   6.509   0.294   3.427  0.2166  0.2157  0.4699
11938TIP3    H157229   6.602   0.298   3.407 -0.0914  0.9089 -0.9602
11938TIP3    H257230   6.505   0.267   3.519  1.8637  1.5408  0.9808
11939TIP3   OH257231   5.102   0.351  14.875 -0.0599 -0.3143 -0.3543
11939TIP3    H157232   5.084   0.298  14.798  1.7897  0.3962 -1.3281
11939TIP3    H257233   5.188   0.322  14.906  0.5685  1.4163 -0.3522
11940TIP3   OH257234   7.062   0.048   0.408 -0.8620  0.1679 -0.1383
11940TIP3    H157235   7.054   0.096   0.490 -2.5891  2.7574 -1.6873
11940TIP3    H257236   6.975   0.011   0.392 -0.1551 -1.6169 -0.1217
11941TIP3   OH257237   4.914   5.119  15.104  0.0233  0.9274  0.0256
11941TIP3    H157238   4.919   5.185  15.035  0.7839 -1.0375 -1.9229
11941TIP3    H257239   4.973   5.049  15.076 -1.0999 -0.8291  1.7031
11942TIP3   OH257240   5.944   0.743  10.661  0.5499 -0.1171  0.2562
11942TIP3    H157241   5.970   0.706  10.577 -0.8552 -0.1152 -0.2031
11942TIP3    H257242   5.953   0.838  10.649 -1.1054 -0.0246 -0.4281
11943TIP3   OH257243   4.577   4.631  11.006 -0.1453 -0.5289  0.1183
11943TIP3    H157244   4.584   4.536  11.014  0.1259 -0.5889 -0.7758
11943TIP3    H257245   4.503   4.645  10.947  0.7410 -0.2467 -0.9711
11944TIP3   OH257246   1.190   3.252  14.275  0.4944 -0.3253 -0.2941
11944TIP3    H157247   1.104   3.281  14.246  0.3045 -0.8076 -0.2151
11944TIP3    H257248   1.244   3.251  14.196  0.6202  0.6291 -0.2401
11945TIP3   OH257249   1.471   1.835   5.257 -0.2079 -0.2341 -0.1752
11945TIP3    H157250   1.410   1.775   5.300 -1.8517  0.8389 -0.8905
11945TIP3    H257251   1.542   1.846   5.320  0.2269 -2.9497 -0.0543
11946TIP3   OH257252   1.038   4.408   1.450  0.6742 -0.6206  0.6427
11946TIP3    H157253   0.947   4.432   1.434  1.0600  0.6934  0.2824
11946TIP3    H257254   1.063   4.459   1.527  1.3299 -0.3845  0.2809
11947TIP3   OH257255   1.439   3.942   0.185 -0.1851 -0.3190 -0.0927
11947TIP3    H157256   1.428   3.894   0.103 -1.1484  3.1089 -2.1592
11947TIP3    H257257   1.528   3.978   0.180  0.0156 -0.6503  0.7733
11948TIP3   OH257258   1.470   0.819   2.858 -0.4663  0.1899  0.4215
11948TIP3    H157259   1.397   0.852   2.910 -0.2364  2.5033 -0.6159
11948TIP3    H257260   1.456   0.854   2.771  1.2648 -0.3076 -0.1074
11949TIP3   OH257261   3.135   2.060   2.705  0.0958  0.2826 -0.0201
11949TIP3    H157262   3.045   2.044   2.733  0.2001  0.2307  0.2900
11949TIP3    H257263   3.145   2.155   2.707 -0.8968  0.5563 -3.0144
11950TIP3   OH257264   0.650   1.625   5.244 -0.6219  0.1108  0.3345
11950TIP3    H157265   0.592   1.651   5.173 -1.0756  1.2826  1.1106
11950TIP3    H257266   0.718   1.691   5.245  0.3052 -0.8102 -0.0407
11951TIP3   OH257267   6.915   3.540  14.563  0.4780  0.4367 -0.0862
11951TIP3    H157268   6.822   3.526  14.543  0.2216  2.2844 -0.4075
11951TIP3    H257269   6.942   3.460  14.609 -0.9380 -0.6529 -1.0564
11952TIP3   OH257270   7.127   1.354   0.622  0.0430  0.0672  0.4362
11952TIP3    H157271   7.058   1.410   0.658  0.4977 -1.0677  3.3173
11952TIP3    H257272   7.093   1.327   0.536 -1.0079  3.1333 -0.2742
11953TIP3   OH257273   3.209   3.955  15.319  0.8400 -0.0239  0.7402
11953TIP3    H157274   3.225   3.862  15.304  0.2910  0.1486 -1.1771
11953TIP3    H257275   3.254   3.999  15.247 -1.1992  0.9841  0.0099
11954TIP3   OH257276   3.392   3.370   3.093 -1.1591  0.1047  0.3093
11954TIP3    H157277   3.366   3.279   3.109 -1.3658 -0.1705 -1.3718
11954TIP3    H257278   3.467   3.363   3.034 -1.7472  1.0340 -0.5711
11955TIP3   OH257279   1.965   0.032   2.685 -0.0648  0.0909  0.3000
11955TIP3    H157280   1.943  -0.054   2.648 -0.6563  1.0962 -1.8920
11955TIP3    H257281   1.881   0.069   2.711  0.4177 -0.9893  3.8573
11956TIP3   OH257282   6.825   6.043  12.743 -0.3854 -0.1362  0.0358
11956TIP3    H157283   6.910   6.051  12.699  0.4484  0.5711  1.6394
11956TIP3    H257284   6.826   6.115  12.807 -1.3481 -1.3058  1.4141
11957TIP3   OH257285   3.200   1.360  14.550  0.6102 -0.5307  1.0289
11957TIP3    H157286   3.222   1.273  14.516  2.4752 -0.5098  2.0421
11957TIP3    H257287   3.285   1.401  14.567 -0.2325  1.6662  0.1916
11958TIP3   OH257288   5.314   5.412   2.888 -0.3012  0.2559  0.0391
11958TIP3    H157289   5.366   5.492   2.875  0.0508  0.0039 -0.1322
11958TIP3    H257290   5.224   5.443   2.897  0.0377  0.8175  1.7842
11959TIP3   OH257291   5.635   2.198  10.520  1.0345 -0.8299  0.6308
11959TIP3    H157292   5.575   2.221  10.449  1.6388 -0.6067  0.1852
11959TIP3    H257293   5.698   2.139  10.480  0.2141 -2.3290  1.4774
11960TIP3   OH257294   1.991   4.879   1.165 -0.2591  0.2338  0.5185
11960TIP3    H157295   2.020   4.822   1.236  1.7392 -1.4380 -1.4873
11960TIP3    H257296   2.068   4.932   1.144 -0.3844 -0.2165 -1.2063
11961TIP3   OH257297   6.115   4.864   0.651 -0.0812 -0.5368  0.1003
11961TIP3    H157298   6.116   4.919   0.730 -0.2013 -1.8983  1.0916
11961TIP3    H257299   6.055   4.793   0.672 -0.0727 -0.9618 -1.2165
11962TIP3   OH257300   2.422   0.885   3.882 -0.4770 -0.0694 -0.5869
11962TIP3    H157301   2.377   0.969   3.879 -0.0477  0.1513 -0.9885
11962TIP3    H257302   2.510   0.906   3.914 -1.1421 -0.7273  1.8522
11963TIP3   OH257303   6.157   5.659  12.032  1.2064 -0.0496 -0.1725
11963TIP3    H157304   6.093   5.687  11.967 -1.3550  0.3199  2.2961
11963TIP3    H257305   6.123   5.576  12.066  2.4250 -0.2144  0.7294
11964TIP3   OH257306   6.129   3.767   4.746  0.1200 -0.4812 -0.5531
11964TIP3    H157307   6.154   3.859   4.760 -0.3292 -0.6588  1.8957
11964TIP3    H257308   6.102   3.737   4.833 -1.0799 -2.5502 -1.5917
11965TIP3   OH257309   5.178   1.827   2.792 -0.0280  0.0952  0.4961
11965TIP3    H157310   5.183   1.820   2.697 -1.4173  0.6182  0.3495
11965TIP3    H257311   5.268   1.835   2.821  0.3136  2.6770 -1.0193
11966TIP3   OH257312   6.152   2.958  15.115  0.5079 -0.1409  0.3763
11966TIP3    H157313   6.091   2.895  15.153 -0.5840  1.3642  1.2414
11966TIP3    H257314   6.183   3.010  15.190  0.6016  0.9903 -0.4207
11967TIP3   OH257315   7.042   6.665   1.744 -0.0039  0.3070 -0.1875
11967TIP3    H157316   6.984   6.620   1.683  1.2615 -0.8688 -0.6001
11967TIP3    H257317   7.095   6.595   1.783  1.5900  1.3534 -0.3555
11968TIP3   OH257318   2.092   2.688   1.845 -0.3885  0.2815 -0.1638
11968TIP3    H157319   2.060   2.763   1.796  2.3828  1.1164 -0.8566
11968TIP3    H257320   2.037   2.686   1.924  0.7567  4.3818  0.9694
11969TIP3   OH257321   2.579   4.296  14.666 -0.4400 -0.0192  0.0766
11969TIP3    H157322   2.554   4.357  14.735 -1.0706  0.7393 -0.7983
11969TIP3    H257323   2.544   4.212  14.694 -1.3248  0.4260  0.3373
11970TIP3   OH257324   1.150   6.417   0.692  0.5049  0.2874 -0.0994
11970TIP3    H157325   1.158   6.389   0.783 -2.5118 -1.0857 -0.1458
11970TIP3    H257326   1.184   6.507   0.692  2.0752 -0.2148  1.9794
11971TIP3   OH257327   2.001   3.881   1.110  0.1466  0.0716 -0.3339
11971TIP3    H157328   2.072   3.934   1.146  0.1663 -0.5000  0.5078
11971TIP3    H257329   1.962   3.936   1.042 -0.3141  1.4937  1.0060
11972TIP3   OH257330   6.110   5.533  14.133 -0.0129 -0.0918 -0.0497
11972TIP3    H157331   6.043   5.541  14.201  0.0007 -0.1957 -0.0229
11972TIP3    H257332   6.066   5.558  14.052 -0.1560 -0.4094 -0.0714
11973TIP3   OH257333   1.258   1.919   3.146  0.3268 -0.2552 -0.1960
11973TIP3    H157334   1.328   1.945   3.086  1.2785 -3.3102 -0.5704
11973TIP3    H257335   1.177   1.949   3.104  1.1866  0.6720 -1.2555
11974TIP3   OH257336   5.810   5.175   2.367  0.7749  0.0246 -0.6342
11974TIP3    H157337   5.881   5.111   2.362  1.4056  0.7074 -0.6877
11974TIP3    H257338   5.838   5.246   2.309  0.4064  0.6378 -0.0809
11975TIP3   OH257339   0.344   0.412  15.190  0.2392  0.2609  0.8356
11975TIP3    H157340   0.307   0.326  15.171 -2.4359  1.7521 -1.4314
11975TIP3    H257341   0.309   0.435  15.276 -0.1654 -0.3076  0.8269
11976TIP3   OH257342   2.918   2.274   3.397 -0.4387 -0.1760  0.4417
11976TIP3    H157343   2.828   2.283   3.365 -0.8775 -0.5215  1.5291
11976TIP3    H257344   2.927   2.181   3.415  1.3068 -0.7842 -2.8945
11977TIP3   OH257345   1.759   1.774  14.075  0.3432  0.0303 -0.5280
11977TIP3    H157346   1.827   1.758  14.141 -0.7330 -0.3666  0.5328
11977TIP3    H257347   1.710   1.692  14.072 -1.0236  0.8117 -0.1309
11978TIP3   OH257348   0.004   1.113   0.224  0.3835  0.3245  0.0403
11978TIP3    H157349   0.045   1.158   0.151  0.7749 -1.3161 -0.7932
11978TIP3    H257350  -0.006   1.023   0.195 -1.4785  0.1025  1.1994
11979TIP3   OH257351   0.988   0.093   4.583  0.1717 -0.5222  0.3988
11979TIP3    H157352   1.052   0.063   4.519  0.1067  1.4080 -0.6547
11979TIP3    H257353   0.923   0.023   4.587  0.1371 -0.6710 -1.7324
11980TIP3   OH257354   2.208   0.432   1.236  0.3874  1.0124 -0.0992
11980TIP3    H157355   2.268   0.505   1.226 -1.6984  2.7971 -0.3254
11980TIP3    H257356   2.140   0.447   1.170  0.1927 -1.5202 -0.6051
11981TIP3   OH257357   1.741   3.150   2.531 -0.0288  0.2312 -0.0955
11981TIP3    H157358   1.771   3.213   2.466 -0.1021 -0.5643 -0.9146
11981TIP3    H257359   1.769   3.065   2.497 -0.4897 -0.2392  0.6731
11982TIP3   OH257360   2.279   4.529  14.602 -0.2253 -0.0045  0.1432
11982TIP3    H157361   2.186   4.532  14.577 -0.2507 -0.8884  0.1062
11982TIP3    H257362   2.326   4.528  14.519 -0.2645 -1.5605  0.1082
11983TIP3   OH257363   5.473   3.791   1.756  0.2492  0.5563  0.1189
11983TIP3    H157364   5.447   3.872   1.799  3.1611  0.0304  3.3274
11983TIP3    H257365   5.538   3.818   1.691  2.1582  0.8474  2.0382
11984TIP3   OH257366   6.290   3.116  15.292 -0.5264  0.1114  0.0385
11984TIP3    H157367   6.374   3.155  15.265 -0.4141  0.0241  0.2636
11984TIP3    H257368   6.238   3.191  15.322 -0.6811  0.2222 -0.4868
11985TIP3   OH257369   1.244   4.888  13.248 -0.2028  0.2762 -0.6440
11985TIP3    H157370   1.326   4.921  13.212  0.9626 -1.9022 -0.2046
11985TIP3    H257371   1.176   4.937  13.203  1.3206  2.0871 -1.1043
11986TIP3   OH257372   4.943   3.203   3.486 -0.1870 -0.4736 -0.3053
11986TIP3    H157373   4.954   3.129   3.547 -0.7781 -0.6157 -0.3664
11986TIP3    H257374   4.993   3.274   3.526 -1.9425 -0.0471  1.2403
11987TIP3   OH257375   5.866   5.417   0.306  0.0731  0.0324  0.1512
11987TIP3    H157376   5.930   5.348   0.322  0.5238  0.2496 -0.6877
11987TIP3    H257377   5.866   5.429   0.211 -1.6591 -0.3932  0.0567
11988TIP3   OH257378   4.715   1.845   3.058 -0.4459 -0.3375  0.4787
11988TIP3    H157379   4.697   1.798   3.140 -0.2848 -1.8516 -0.3101
11988TIP3    H257380   4.633   1.889   3.037 -0.9726 -1.2044  0.6678
11989TIP3   OH257381   7.142   6.413   4.651  0.1400  0.3138 -0.1948
11989TIP3    H157382   7.173   6.452   4.569 -0.2051  1.1695  0.0777
11989TIP3    H257383   7.218   6.413   4.708  0.7276 -1.4391 -0.9070
11990TIP3   OH257384   0.331   1.293   4.018  0.4077 -0.1559 -0.3014
11990TIP3    H157385   0.408   1.349   4.014 -0.5569  1.2015 -0.7964
11990TIP3    H257386   0.363   1.206   3.997  1.9321  0.2202  0.3492
11991TIP3   OH257387   0.703   0.894   1.352 -0.2804 -0.3171 -0.2670
11991TIP3    H157388   0.752   0.867   1.429 -0.4249  0.3312  0.0617
11991TIP3    H257389   0.731   0.834   1.283 -2.0202 -2.6187  0.8802
11992TIP3   OH257390   5.787   3.750   0.063  0.3294 -0.0654  0.3130
11992TIP3    H157391   5.801   3.802  -0.016  0.2127  0.8548  0.8764
11992TIP3    H257392   5.766   3.662   0.032 -2.6476  0.9180 -0.7755
11993TIP3   OH257393   1.097   5.811   0.105 -0.1340 -0.0304 -0.4736
11993TIP3    H157394   1.086   5.852   0.191 -1.6161  0.5325 -0.9076
11993TIP3    H257395   1.192   5.811   0.091  0.0652  0.8070  0.7095
11994TIP3   OH257396   4.386   5.861   0.472  0.0787  0.0482  0.7028
11994TIP3    H157397   4.412   5.774   0.502  0.7077 -1.2432 -3.0577
11994TIP3    H257398   4.291   5.855   0.461 -0.0028  0.1666  1.3052
11995TIP3   OH257399   4.467   1.192   3.044  0.2013  0.6946  0.1515
11995TIP3    H157400   4.457   1.130   3.116 -2.0137 -0.5697 -1.1549
11995TIP3    H257401   4.539   1.156   2.991  1.9772  1.7351  1.7179
11996TIP3   OH257402   3.353   0.140   0.794 -0.0603 -0.3935 -0.5379
11996TIP3    H157403   3.258   0.137   0.803 -0.0328 -1.2254 -0.4637
11996TIP3    H257404   3.383   0.053   0.820  0.7085 -0.2011 -0.7405
11997TIP3   OH257405   2.082   4.769   2.148 -0.0293  0.1595 -0.0645
11997TIP3    H157406   2.113   4.856   2.174 -0.8800 -0.0710  1.9118
11997TIP3    H257407   2.026   4.785   2.072  0.7507  1.1937 -0.4387
11998TIP3   OH257408   3.260   0.603   4.654  0.2106  0.4071 -0.2944
11998TIP3    H157409   3.324   0.533   4.662  0.7352  1.0154  1.1713
11998TIP3    H257410   3.308   0.676   4.616  0.0845  0.4829 -0.3099
11999TIP3   OH257411   1.921   7.166   3.415  0.2749 -0.0096  0.2527
11999TIP3    H157412   1.983   7.238   3.408 -0.7192  0.7639 -1.3370
11999TIP3    H257413   1.844   7.196   3.366 -0.8726 -1.4341  1.0856
12000TIP3   OH257414   5.393   6.275   1.454  0.0896 -0.6279 -0.3860
12000TIP3    H157415   5.429   6.362   1.441 -0.3827  0.1221  2.5303
12000TIP3    H257416   5.327   6.265   1.386 -0.6223  1.7738 -0.1284
12001TIP3   OH257417   1.774   1.155   4.525 -0.5264 -0.2267 -0.1198
12001TIP3    H157418   1.834   1.117   4.462 -0.9971  1.2135 -1.4906
12001TIP3    H257419   1.769   1.090   4.595  3.5715  0.1063  0.7118
12002TIP3   OH257420   0.897   1.085   4.926 -0.4581  0.0169 -0.2553
12002TIP3    H157421   0.814   1.128   4.907 -0.8488 -0.9844 -0.9330
12002TIP3    H257422   0.938   1.073   4.840 -0.1844 -0.5986 -0.0472
12003TIP3   OH257423   0.454   4.407   3.000 -0.4852  0.2614 -0.3129
12003TIP3    H157424   0.465   4.315   3.025 -1.3498  0.4277  0.7430
12003TIP3    H257425   0.363   4.427   3.021 -0.1604  1.5179 -0.0176
12004TIP3   OH257426   6.471   2.535  14.383 -0.5577 -0.8539  0.0473
12004TIP3    H157427   6.404   2.568  14.443  1.0067 -1.1502  2.0707
12004TIP3    H257428   6.488   2.608  14.324 -1.5484 -0.2457  0.4871
12005TIP3   OH257429   4.405   6.023   2.366 -0.8053  0.3368  0.1889
12005TIP3    H157430   4.422   5.973   2.286 -0.1158  1.8356 -0.6384
12005TIP3    H257431   4.492   6.034   2.405 -0.8195  1.6733 -0.1342
12006TIP3   OH257432   4.807   7.063  10.441 -0.0638 -0.1074  0.2783
12006TIP3    H157433   4.891   7.019  10.451 -0.1039 -0.6371 -1.4090
12006TIP3    H257434   4.823   7.133  10.378 -0.5678  0.7787  1.0968
12007TIP3   OH257435   7.209   3.095   2.527  0.2505  0.4327  0.0428
12007TIP3    H157436   7.199   3.000   2.530  2.1001  0.2336  1.5267
12007TIP3    H257437   7.140   3.128   2.585 -0.1513 -0.0091 -0.1725
12008TIP3   OH257438   0.900   4.825   2.975 -1.2314  0.2692 -0.0098
12008TIP3    H157439   0.850   4.904   2.954 -2.6615 -0.6572 -0.2715
12008TIP3    H257440   0.989   4.856   2.992 -0.6422  1.4882 -4.3027
12009TIP3   OH257441   3.732   1.167   4.617 -0.3494  0.0280  0.7921
12009TIP3    H157442   3.765   1.225   4.685 -2.0047 -0.0338  1.6887
12009TIP3    H257443   3.796   1.175   4.546  0.0068  2.1561  1.2804
12010TIP3   OH257444   2.687   3.722   2.477  0.7789 -0.2811 -0.2529
12010TIP3    H157445   2.725   3.732   2.564 -0.8032  0.4458  0.4044
12010TIP3    H257446   2.759   3.690   2.423  1.9940 -0.0540  1.1504
12011TIP3   OH257447   1.218   2.926   3.079 -0.4089 -0.6126 -0.4486
12011TIP3    H157448   1.253   2.978   3.007 -0.0810 -0.7039 -0.3586
12011TIP3    H257449   1.184   2.991   3.141 -2.1428 -0.5699 -1.3901
12012TIP3   OH257450   1.695   1.796   2.291 -0.3414  0.3311  0.4647
12012TIP3    H157451   1.607   1.760   2.299  0.1317 -1.3227 -1.0718
12012TIP3    H257452   1.744   1.758   2.363 -0.5317  0.1105  0.4780
12013TIP3   OH257453   3.649   3.123   1.738 -0.2204 -0.0492 -0.4425
12013TIP3    H157454   3.606   3.208   1.729 -1.7859 -0.7739 -0.0650
12013TIP3    H257455   3.579   3.063   1.761  1.1244 -1.1543  0.9612
12014TIP3   OH257456   7.146   6.424  11.975  0.6054 -0.1760 -0.3740
12014TIP3    H157457   7.168   6.384  11.891  1.8307 -1.4782  0.5305
12014TIP3    H257458   7.226   6.418  12.027 -0.8052 -1.9156  1.8296
12015TIP3   OH257459   6.614   4.923   0.954 -0.8935 -0.0095 -0.3564
12015TIP3    H157460   6.594   4.831   0.942 -0.4604 -0.0783 -0.5921
12015TIP3    H257461   6.683   4.941   0.890  0.7241 -0.1152  1.2591
12016TIP3   OH257462   7.057   2.853  14.186 -0.0238  0.4097 -0.3728
12016TIP3    H157463   7.139   2.902  14.184 -2.1553  4.3564 -2.2332
12016TIP3    H257464   7.025   2.862  14.276 -0.3323  2.6201 -0.6509
12017TIP3   OH257465   3.945   4.618  12.383 -0.3396  0.5202 -0.1287
12017TIP3    H157466   3.901   4.670  12.316 -0.6529 -0.5226 -0.7690
12017TIP3    H257467   4.038   4.626  12.362 -0.3913  0.7299 -0.2845
12018TIP3   OH257468   5.598   5.481   0.324 -0.4027 -0.6944  0.5457
12018TIP3    H157469   5.569   5.461   0.413  0.4695  0.6291  1.1688
12018TIP3    H257470   5.690   5.456   0.323  0.1555  1.1669  0.7101
12019TIP3   OH257471   1.948   6.974   5.302  0.0182 -0.2840  0.3336
12019TIP3    H157472   1.939   7.015   5.388 -1.3467 -0.1183  0.1333
12019TIP3    H257473   1.963   6.881   5.322  1.9042  0.0659  0.7615
12020TIP3   OH257474   4.623   2.268  15.149  0.1614  0.0785 -0.4315
12020TIP3    H157475   4.583   2.259  15.062  0.7575  0.4304 -0.7527
12020TIP3    H257476   4.717   2.268  15.131  0.3149 -0.9542  0.3292
12021TIP3   OH257477   0.247   0.968   0.945 -0.4252 -0.0097  0.0841
12021TIP3    H157478   0.269   0.887   0.991  1.3885  0.3768 -0.0343
12021TIP3    H257479   0.196   1.018   1.008 -2.7381 -1.7208 -0.2749
12022TIP3   OH257480   3.313   0.859  14.533 -0.3309 -0.5302  0.4200
12022TIP3    H157481   3.388   0.807  14.563 -0.5484 -0.2229  1.5814
12022TIP3    H257482   3.274   0.893  14.614 -0.7026  0.7313 -0.2545
12023TIP3   OH257483   1.249   2.246  12.278 -0.5936 -0.3727  0.6714
12023TIP3    H157484   1.245   2.328  12.229  0.7539 -0.9314 -0.4093
12023TIP3    H257485   1.291   2.270  12.360  1.5922 -0.2958 -0.4141
12024TIP3   OH257486   1.749   2.616   9.315  0.0304  0.0832 -0.4228
12024TIP3    H157487   1.680   2.567   9.359 -0.3147 -0.1741 -1.2356
12024TIP3    H257488   1.829   2.592   9.361 -0.4769  0.8313  0.9103
12025TIP3   OH257489   3.641   3.557   2.871  0.3030 -0.4184 -0.0944
12025TIP3    H157490   3.623   3.465   2.852  1.4145 -0.5301 -0.7375
12025TIP3    H257491   3.628   3.602   2.788 -1.3707  0.2186  0.4812
12026TIP3   OH257492   5.769   5.061   3.290  0.5513  0.2046  0.5097
12026TIP3    H157493   5.678   5.032   3.287  0.5497  0.2548 -1.6143
12026TIP3    H257494   5.821   4.982   3.274  0.7671  0.5015 -0.3201
12027TIP3   OH257495   0.338   0.177  12.491  0.4222 -0.3359 -0.4008
12027TIP3    H157496   0.245   0.192  12.475  0.5762  0.5505 -0.5156
12027TIP3    H257497   0.377   0.172  12.404  0.6612  0.5237 -0.3508
12028TIP3   OH257498   5.190   1.444  12.970  0.8383  0.0589 -0.5286
12028TIP3    H157499   5.259   1.381  12.991  0.0959 -0.5780  0.0694
12028TIP3    H257500   5.123   1.429  13.037  1.2313  2.4320  0.5104
12029TIP3   OH257501   5.608   6.076   1.512  0.4018  0.8141 -0.5839
12029TIP3    H157502   5.583   6.000   1.460 -0.9344  0.3676  0.6459
12029TIP3    H257503   5.545   6.144   1.488  0.8396  1.1541 -0.7901
12030TIP3   OH257504   0.751   3.143   3.634  0.0686  0.2876 -0.3650
12030TIP3    H157505   0.678   3.204   3.624 -1.7591 -1.4360  1.5728
12030TIP3    H257506   0.754   3.125   3.728  0.9706 -2.0781 -0.7911
12031TIP3   OH257507   2.383   4.571   3.927 -0.3112  0.3252 -0.3138
12031TIP3    H157508   2.330   4.650   3.928 -2.1613 -0.8162 -1.3244
12031TIP3    H257509   2.455   4.591   3.866 -1.2955  0.9301 -1.3267
12032TIP3   OH257510   5.115   0.213  11.564 -0.6792  0.1864 -1.2181
12032TIP3    H157511   5.099   0.122  11.587 -1.4771  0.1108 -2.0116
12032TIP3    H257512   5.208   0.216  11.539 -0.4791 -0.2610 -0.5480
12033TIP3   OH257513   3.771   2.907  11.182  0.1044 -0.6857  0.0343
12033TIP3    H157514   3.712   2.833  11.195 -0.1882 -0.4123  0.2901
12033TIP3    H257515   3.826   2.881  11.108  1.9802 -2.4017  1.9116
12034TIP3   OH257516   2.743   3.005   0.843  0.0997 -0.0072  0.5085
12034TIP3    H157517   2.831   3.027   0.872  0.6046  1.2838 -1.7193
12034TIP3    H257518   2.749   2.914   0.816  1.0714  0.3597 -0.5928
12035TIP3   OH257519   5.925   5.335   3.519  0.8929 -0.1044  0.0093
12035TIP3    H157520   5.955   5.244   3.516  0.6137 -0.2282  0.7444
12035TIP3    H257521   5.955   5.372   3.436  1.7762 -0.6274  0.0708
12036TIP3   OH257522   1.238   5.457  13.976 -0.1307  0.0201 -0.3631
12036TIP3    H157523   1.223   5.449  13.882 -0.9552  0.0710 -0.2391
12036TIP3    H257524   1.256   5.550  13.990  2.0813 -0.2863 -0.7469
12037TIP3   OH257525   4.551   3.048   0.665  0.8688  0.0184  0.0071
12037TIP3    H157526   4.480   3.111   0.673  0.1892 -0.6779 -0.3559
12037TIP3    H257527   4.630   3.098   0.686  0.5771  1.4638 -2.0180
12038TIP3   OH257528   2.764   1.061  14.361 -0.3010 -0.2748 -0.6221
12038TIP3    H157529   2.778   1.005  14.437  0.6408  0.4202 -0.2653
12038TIP3    H257530   2.818   1.138  14.377 -2.3976  1.2795 -0.5564
12039TIP3   OH257531   6.225   6.052   2.587  0.2222  0.1978  0.3053
12039TIP3    H157532   6.153   6.045   2.650 -0.5912  0.0399 -0.6100
12039TIP3    H257533   6.188   6.017   2.505  1.6647 -0.8274  0.0596
12040TIP3   OH257534   4.124   2.542   0.090 -0.1157  0.0174 -0.2924
12040TIP3    H157535   4.174   2.622   0.079 -1.1722  0.7282 -0.0786
12040TIP3    H257536   4.185   2.480   0.129  0.6963  0.7364 -0.4057
12041TIP3   OH257537   5.504   1.600  11.484 -0.1327  0.5686 -0.5425
12041TIP3    H157538   5.532   1.630  11.397 -1.0303 -1.1757 -1.5071
12041TIP3    H257539   5.585   1.570  11.526  0.0588 -0.6880 -1.7147
12042TIP3   OH257540   0.937   0.495  13.348  0.2781 -1.0403 -0.8430
12042TIP3    H157541   0.911   0.403  13.347 -2.6888 -0.5601  3.6380
12042TIP3    H257542   0.857   0.543  13.369  2.4260  2.0739  1.1606
12043TIP3   OH257543   4.326   1.921   0.123  0.1796 -0.1679 -0.0113
12043TIP3    H157544   4.354   1.989   0.060  0.6069  1.0654  1.4395
12043TIP3    H257545   4.408   1.884   0.155  0.1759  1.4417  2.1152
12044TIP3   OH257546   3.673   6.918   1.382  0.2689 -0.7730  0.1459
12044TIP3    H157547   3.667   6.831   1.342 -0.3608 -0.5212 -0.3298
12044TIP3    H257548   3.758   6.952   1.352 -0.5828 -0.2158 -1.8169
12045TIP3   OH257549   4.945   3.162  13.552 -0.1334  0.5358 -0.2232
12045TIP3    H157550   4.921   3.080  13.509  0.2813 -0.5549  1.4749
12045TIP3    H257551   5.028   3.142  13.596  0.9137  2.4317 -1.2118
12046TIP3   OH257552   2.020   6.046   0.832 -0.0936  0.1727 -0.4779
12046TIP3    H157553   2.039   6.051   0.925  0.2574  0.8302 -0.5814
12046TIP3    H257554   1.928   6.072   0.825 -1.4495 -3.7939  0.1146
12047TIP3   OH257555   2.247   6.387   1.103 -0.0072 -0.2430 -0.1733
12047TIP3    H157556   2.206   6.334   1.034 -1.4977  1.1465 -0.4082
12047TIP3    H257557   2.332   6.413   1.066 -0.2456 -0.5693 -0.9764
12048TIP3   OH257558   1.996   2.044   0.604 -0.0257  0.6014 -0.1613
12048TIP3    H157559   2.072   2.094   0.576 -0.9192  2.2653  0.2771
12048TIP3    H257560   2.011   1.956   0.569  2.0998  0.8795 -0.0245
12049TIP3   OH257561   4.525   1.793   2.239  0.3472  0.3103 -0.1195
12049TIP3    H157562   4.564   1.729   2.178  0.8354  0.7510 -0.2832
12049TIP3    H257563   4.469   1.847   2.184  2.6378  2.2486 -0.6875
12050TIP3   OH257564   0.441   0.022  13.992  0.5813 -0.4834 -0.3028
12050TIP3    H157565   0.502   0.078  14.041  0.1434 -0.3256  0.0654
12050TIP3    H257566   0.444   0.056  13.903  0.0197  0.3948 -0.0010
12051TIP3   OH257567   6.422   4.490   4.343 -0.4983  0.1457  0.2808
12051TIP3    H157568   6.434   4.583   4.360  1.1994 -0.0197  0.0727
12051TIP3    H257569   6.333   4.471   4.376 -0.4525  1.5871  1.3182
12052TIP3   OH257570   6.666   5.687   0.788  0.0038 -0.9256  0.5282
12052TIP3    H157571   6.731   5.754   0.765  0.0195 -1.0010  0.3472
12052TIP3    H257572   6.684   5.667   0.880 -0.7769  0.1807  0.9512
12053TIP3   OH257573   0.248   3.195   6.012  0.6205  0.4712 -0.0366
12053TIP3    H157574   0.269   3.245   5.933  0.0506 -1.4075 -1.4601
12053TIP3    H257575   0.163   3.230   6.041  0.0447  0.1277 -1.2369
12054TIP3   OH257576   1.895   3.800   2.908 -0.4441 -0.5309 -0.2944
12054TIP3    H157577   1.942   3.881   2.886 -0.0122 -0.3914  1.0525
12054TIP3    H257578   1.959   3.731   2.892  0.0759 -0.3805  1.0649
12055TIP3   OH257579   5.060   5.569  12.226  0.1998  0.5539 -0.1498
12055TIP3    H157580   4.998   5.503  12.257  2.8291 -1.4130  1.3683
12055TIP3    H257581   5.056   5.564  12.131 -0.3219 -1.1822 -0.0588
12056TIP3   OH257582   1.661   2.352  13.401  0.0106 -1.1537  0.1135
12056TIP3    H157583   1.583   2.383  13.356  0.9088 -0.0012 -0.7159
12056TIP3    H257584   1.634   2.271  13.443 -1.4910 -1.0322 -0.5543
12057TIP3   OH257585   5.919   6.601   9.551  0.5174  0.3522 -0.4757
12057TIP3    H157586   5.855   6.666   9.525 -0.8147 -0.6775  0.0894
12057TIP3    H257587   5.999   6.624   9.503 -0.5548  1.0768 -1.9796
12058TIP3   OH257588   5.522   4.335  10.896 -0.5227  0.3756 -0.0258
12058TIP3    H157589   5.526   4.350  10.801 -0.7173  0.6961  0.0143
12058TIP3    H257590   5.433   4.360  10.920 -0.0697  1.6186  0.4638
12059TIP3   OH257591   3.334   6.645   4.451  0.0184  0.4694  0.2295
12059TIP3    H157592   3.408   6.649   4.390  0.1743  0.4766  0.4200
12059TIP3    H257593   3.374   6.631   4.537 -0.2732 -1.3637  0.1057
12060TIP3   OH257594   2.972   4.202  11.814 -0.3418  0.3377  0.2525
12060TIP3    H157595   2.925   4.217  11.732  1.1975  2.6619 -0.2934
12060TIP3    H257596   3.064   4.213  11.791  0.2917 -0.9653  1.9277
12061TIP3   OH257597   7.015   0.318   1.164 -0.4602  0.0848 -0.1183
12061TIP3    H157598   7.007   0.407   1.198  1.7896  0.3766 -0.2143
12061TIP3    H257599   6.931   0.277   1.186 -0.9276  1.7066  1.4203
12062TIP3   OH257600   2.505   1.976   2.125 -0.1459 -0.4615  0.0629
12062TIP3    H157601   2.595   1.943   2.126  0.1171  0.2428 -0.2876
12062TIP3    H257602   2.483   1.986   2.032  0.9561  3.4817  0.0490
12063TIP3   OH257603   3.468   2.720  12.915  0.3545 -0.0883 -0.3409
12063TIP3    H157604   3.539   2.749  12.973 -1.1902  0.3966  1.4035
12063TIP3    H257605   3.413   2.664  12.970  0.7808 -2.7532 -2.3989
12064TIP3   OH257606   6.396   2.992   0.605 -0.3877  0.6039  0.6241
12064TIP3    H157607   6.488   2.984   0.580 -1.1830 -2.0374 -2.2325
12064TIP3    H257608   6.378   2.913   0.657 -1.3884  0.0994 -0.4309
12065TIP3   OH257609   5.276   6.332  13.317 -0.3716 -0.0223  0.3316
12065TIP3    H157610   5.245   6.256  13.366 -0.4025 -0.6994 -0.6969
12065TIP3    H257611   5.250   6.314  13.226 -1.9830  2.0710  0.3159
12066TIP3   OH257612   2.692   6.116   3.272  0.4072 -0.3411  0.0072
12066TIP3    H157613   2.775   6.153   3.242 -0.1033  0.5629 -0.3258
12066TIP3    H257614   2.631   6.190   3.274  0.0606 -0.6127  2.0079
12067TIP3   OH257615   2.403   1.653   4.874  0.4610 -0.4251  0.1512
12067TIP3    H157616   2.388   1.606   4.956 -0.0899  0.3032  0.4806
12067TIP3    H257617   2.472   1.603   4.830  0.5354 -1.0086  0.9083
12068TIP3   OH257618   2.411   3.662   1.511  0.8487  0.2178  0.0282
12068TIP3    H157619   2.372   3.730   1.566  0.4497  0.7045 -0.8276
12068TIP3    H257620   2.505   3.674   1.520  0.7964  1.6132 -0.9456
12069TIP3   OH257621   1.452   2.112   2.215  0.3096  0.3432  0.5630
12069TIP3    H157622   1.472   2.119   2.308  1.1250 -1.0350  0.5248
12069TIP3    H257623   1.531   2.075   2.176 -0.1383  0.5903 -0.6297
12070TIP3   OH257624   6.390   4.730   5.200 -0.4124  0.8615  0.2823
12070TIP3    H157625   6.473   4.689   5.223 -1.4085  0.1164  3.0114
12070TIP3    H257626   6.331   4.656   5.184 -1.1443  1.3023  0.8642
12071TIP3   OH257627   2.105   2.723   2.391  0.0899  0.3915 -0.2673
12071TIP3    H157628   2.121   2.804   2.440  0.8336  1.0550 -1.5557
12071TIP3    H257629   2.179   2.667   2.412 -0.1925  0.2090  0.2673
12072TIP3   OH257630   0.521   6.704  11.975 -0.0400 -0.0284  0.1270
12072TIP3    H157631   0.507   6.663  11.889  1.4981 -0.6864  0.1621
12072TIP3    H257632   0.497   6.637  12.038 -1.7762  0.6660  0.2536
12073TIP3   OH257633   5.856   6.732   0.318  0.6823  0.3397 -0.3794
12073TIP3    H157634   5.944   6.757   0.288  1.4773 -0.2087  1.3411
12073TIP3    H257635   5.872   6.682   0.399 -1.3316  2.4941  1.4898
12074TIP3   OH257636   5.172   3.268   2.060 -0.0283 -0.1684  0.0912
12074TIP3    H157637   5.105   3.219   2.109  0.0748 -0.4472 -0.0461
12074TIP3    H257638   5.208   3.329   2.124 -1.6893  1.2843 -0.2909
12075TIP3   OH257639   7.173   4.660  15.040  0.4186  0.3438  0.1891
12075TIP3    H157640   7.268   4.661  15.029  0.4204 -1.1474 -0.1906
12075TIP3    H257641   7.158   4.619  15.125  0.1153 -1.4982 -0.6871
12076TIP3   OH257642   3.346   3.043   2.366 -0.0180 -0.0603  0.0009
12076TIP3    H157643   3.273   2.984   2.383 -0.0013 -0.0615  0.0702
12076TIP3    H257644   3.313   3.105   2.302 -0.0978 -0.0257  0.0753
12077TIP3   OH257645   0.095   4.613   4.313 -0.6485  0.7562  0.0478
12077TIP3    H157646   0.177   4.613   4.362 -1.2585 -0.2829  1.1175
12077TIP3    H257647   0.104   4.543   4.249 -1.1407 -0.2099  0.9965
12078TIP3   OH257648   0.567   3.709   3.023 -0.1828 -0.1184  0.3143
12078TIP3    H157649   0.557   3.783   2.963  0.1905 -0.8394 -0.6600
12078TIP3    H257650   0.480   3.695   3.059 -0.8173 -0.8314 -1.4515
12079TIP3   OH257651   4.169   4.871   0.213 -0.4879 -0.1834  0.3745
12079TIP3    H157652   4.226   4.948   0.216  1.2483 -1.3723 -0.2426
12079TIP3    H257653   4.152   4.850   0.305 -0.6726  0.6932  0.5531
12080TIP3   OH257654   4.279   4.558   1.931  0.0037 -0.1145 -0.1316
12080TIP3    H157655   4.240   4.645   1.925  0.5459  0.0908 -0.9156
12080TIP3    H257656   4.298   4.546   2.024  0.2927  0.7806 -0.0683
12081TIP3   OH257657   7.121   3.032  11.521  0.0048 -0.2853  0.0678
12081TIP3    H157658   7.041   3.077  11.492 -0.0099 -1.3150 -1.6384
12081TIP3    H257659   7.089   2.951  11.561  0.1672 -0.4751 -0.1839
12082TIP3   OH257660   1.570   0.418   1.317  0.1266  0.1890 -0.3251
12082TIP3    H157661   1.566   0.414   1.413 -1.0731  0.3121 -0.3564
12082TIP3    H257662   1.561   0.327   1.290 -1.1130  0.3007 -0.3467
12083TIP3   OH257663   1.688   5.627   4.065 -0.2005  0.3651 -0.2425
12083TIP3    H157664   1.736   5.637   3.983  1.1252 -0.7344  0.3576
12083TIP3    H257665   1.651   5.714   4.083  2.1657  1.4661 -0.3796
12084TIP3   OH257666   6.787   3.871  14.561 -0.2002 -0.2075 -0.0444
12084TIP3    H157667   6.786   3.939  14.628 -0.2024 -0.9422  0.7209
12084TIP3    H257668   6.810   3.917  14.480 -0.5017  0.7471  0.3959
12085TIP3   OH257669   0.364   3.542   5.197 -0.4232  0.1411 -0.1555
12085TIP3    H157670   0.451   3.503   5.208 -0.7092 -0.5233 -0.2104
12085TIP3    H257671   0.360   3.564   5.104 -0.5333 -0.3646 -0.2720
12086TIP3   OH257672   1.744   1.552   4.833 -0.6164  0.1381  0.0661
12086TIP3    H157673   1.738   1.489   4.905  1.4320 -0.5336 -0.3042
12086TIP3    H257674   1.733   1.499   4.754 -0.4100  0.4906 -0.2017
12087TIP3   OH257675   4.603   3.841   4.255 -0.3436  0.2553 -0.4541
12087TIP3    H157676   4.539   3.863   4.322  0.3458  0.8024  0.0332
12087TIP3    H257677   4.554   3.789   4.191 -0.8040 -1.0519  0.9010
12088TIP3   OH257678   2.681   1.194   4.775  0.4649  0.1557 -0.1836
12088TIP3    H157679   2.605   1.154   4.818  0.6832  0.1109  0.1741
12088TIP3    H257680   2.662   1.189   4.682 -0.9193  2.0405 -0.0510
12089TIP3   OH257681   4.626   0.550  11.524  0.0891  1.0438 -0.0373
12089TIP3    H157682   4.586   0.612  11.465 -0.4251  0.1902 -0.6075
12089TIP3    H257683   4.636   0.470  11.473 -1.6974 -0.1843  1.3908
12090TIP3   OH257684   0.120   2.266   1.246  0.6604 -0.0054  0.1233
12090TIP3    H157685   0.042   2.320   1.234 -0.1592 -1.3268 -0.7174
12090TIP3    H257686   0.189   2.328   1.270  0.1862  1.6750 -2.4544
12091TIP3   OH257687   4.249   5.371   5.337 -0.3163  0.2886  0.3762
12091TIP3    H157688   4.250   5.283   5.375 -1.3161  0.1447  0.1072
12091TIP3    H257689   4.340   5.399   5.338  0.0139 -0.7525  0.4750
12092TIP3   OH257690   4.065   5.330   5.576 -0.1234  0.0006 -0.1206
12092TIP3    H157691   4.122   5.355   5.503  0.5670 -2.8261 -0.7090
12092TIP3    H257692   4.122   5.334   5.653  0.7227 -1.9560 -0.5787
12093TIP3   OH257693   0.176   4.233   0.228  0.1678  0.3520 -0.5644
12093TIP3    H157694   0.094   4.184   0.221  0.1997  0.2010  0.1142
12093TIP3    H257695   0.188   4.271   0.141 -0.4492  0.1023 -0.7648
12094TIP3   OH257696   2.032   2.894   4.911 -0.1069 -0.0650 -0.3496
12094TIP3    H157697   2.090   2.834   4.863 -0.3882 -0.9888  0.4345
12094TIP3    H257698   1.950   2.893   4.861 -1.1198 -2.6320  1.1627
12095TIP3   OH257699   5.856   5.105  12.620  0.3952  0.5018 -0.0990
12095TIP3    H157700   5.900   5.151  12.548 -0.0823  1.5071  0.2373
12095TIP3    H257701   5.894   5.017  12.619 -2.1500 -0.8232 -3.9579
12096TIP3   OH257702   2.452   4.813   3.427 -0.5224 -0.7945 -0.5040
12096TIP3    H157703   2.501   4.817   3.509 -1.0357 -1.1683 -0.1708
12096TIP3    H257704   2.517   4.789   3.361  0.4830  2.1251 -0.7293
12097TIP3   OH257705   1.104   3.810   1.423  0.6656  0.2772 -0.4149
12097TIP3    H157706   1.071   3.762   1.499  2.0846  0.4623  0.3386
12097TIP3    H257707   1.025   3.827   1.370 -0.3023 -0.1210  0.8437
12098TIP3   OH257708   5.739   5.938   1.789 -0.3781 -0.5105 -0.0450
12098TIP3    H157709   5.818   5.935   1.736  0.2424  0.3828  0.7940
12098TIP3    H257710   5.705   5.848   1.787 -0.6483 -0.4043 -2.2936
12099TIP3   OH257711   2.061   5.456   5.189  0.5839 -0.2812 -0.1372
12099TIP3    H157712   2.018   5.519   5.246  0.8436 -0.4968  0.3024
12099TIP3    H257713   2.043   5.487   5.100 -0.0632 -0.1012  0.0541
12100TIP3   OH257714   1.216   1.982   1.828  0.2333 -0.8003  0.0025
12100TIP3    H157715   1.245   2.039   1.756  2.3211 -1.5847  0.1619
12100TIP3    H257716   1.127   2.011   1.846  0.4199  0.8800 -1.4446
12101TIP3   OH257717   6.853   5.339   1.058 -0.0198 -0.2698 -0.0380
12101TIP3    H157718   6.819   5.404   1.119 -1.0247  0.0535 -0.9162
12101TIP3    H257719   6.916   5.387   1.004 -1.0794  0.1067 -0.9701
12102TIP3   OH257720   5.530   0.505  12.686 -1.1240  0.2373  0.3530
12102TIP3    H157721   5.523   0.489  12.591 -2.2653 -0.4702  0.5381
12102TIP3    H257722   5.479   0.435  12.726 -0.2294  0.2276  1.5290
12103TIP3   OH257723   4.890   6.361   4.160  0.5454  0.5282  0.1413
12103TIP3    H157724   4.902   6.413   4.239  0.6548 -0.7766  1.0121
12103TIP3    H257725   4.796   6.361   4.144  0.3262 -0.6620  1.3142
12104TIP3   OH257726   6.210   5.954   4.535  0.1510  0.2646 -0.7251
12104TIP3    H157727   6.215   5.893   4.609 -1.0055  0.4155 -0.5063
12104TIP3    H257728   6.195   6.040   4.575 -0.5099  0.3445 -1.1213
12105TIP3   OH257729   0.532   7.086  14.371  0.4253  0.1289 -0.2834
12105TIP3    H157730   0.624   7.093  14.399  0.3996  1.0791 -0.4331
12105TIP3    H257731   0.536   7.086  14.275  0.2382  0.5265 -0.2892
12106TIP3   OH257732   4.923   1.236  15.204  0.1636  0.2046  0.2422
12106TIP3    H157733   4.905   1.182  15.281 -1.3330 -0.0892 -0.2606
12106TIP3    H257734   4.942   1.173  15.134 -0.5142  0.3584 -0.0924
12107TIP3   OH257735   2.316   1.468   5.353  0.5277 -0.7954  0.0210
12107TIP3    H157736   2.243   1.530   5.352 -0.2621 -1.7093 -0.9355
12107TIP3    H257737   2.379   1.506   5.415  0.2253  1.1251 -0.7615
12108TIP3   OH257738   2.963   6.172  14.575 -0.1397  0.0388  0.0254
12108TIP3    H157739   2.917   6.237  14.628  1.6892  0.8648  0.6573
12108TIP3    H257740   2.898   6.144  14.511 -1.3504  1.5730  0.5199
12109TIP3   OH257741   4.294   4.796  14.459  0.0822  0.0875  0.2702
12109TIP3    H157742   4.313   4.866  14.396 -0.8738  0.5847  0.5105
12109TIP3    H257743   4.239   4.734  14.410 -1.0079  0.6792  0.6968
12110TIP3   OH257744   2.191   3.715  12.157 -0.1897 -0.8688 -0.1020
12110TIP3    H157745   2.156   3.795  12.194 -1.2483 -2.2569  2.0731
12110TIP3    H257746   2.286   3.726  12.160 -0.2824  1.1811 -2.0474
12111TIP3   OH257747   4.156   0.134   4.678 -0.9455  1.0400  0.3257
12111TIP3    H157748   4.122   0.056   4.723  2.9482  0.1718  2.2768
12111TIP3    H257749   4.123   0.208   4.729 -2.2107  0.5075  0.3137
12112TIP3   OH257750   3.940   4.337   2.988  0.0473  0.2228  0.2250
12112TIP3    H157751   3.887   4.326   2.909  1.2580 -0.3128 -0.5346
12112TIP3    H257752   3.878   4.326   3.060 -1.1670  1.1190 -0.6255
12113TIP3   OH257753   5.624   4.066   3.321  0.7904 -0.3093 -0.0343
12113TIP3    H157754   5.675   3.997   3.278  1.6367  0.3109 -0.0520
12113TIP3    H257755   5.539   4.026   3.338  0.3816 -0.5938 -2.3245
12114TIP3   OH257756   5.902   4.103  12.327 -0.1129  0.0574  0.2888
12114TIP3    H157757   5.924   4.009  12.326  2.2736  0.5662  0.1465
12114TIP3    H257758   5.903   4.128  12.235 -0.3209  0.3131  0.3572
12115TIP3   OH257759   4.581   1.616   2.850  0.2633 -0.2919 -0.2019
12115TIP3    H157760   4.551   1.571   2.771 -0.6043  0.5608 -0.3688
12115TIP3    H257761   4.560   1.708   2.835 -2.5211 -0.3992  2.1462
12116TIP3   OH257762   2.730   5.566   0.087  0.3490  0.2869  0.0700
12116TIP3    H157763   2.686   5.521   0.159  0.0943 -1.1327 -0.9495
12116TIP3    H257764   2.819   5.530   0.086  0.8897  1.5283  0.7061
12117TIP3   OH257765   6.244   5.912  14.492 -0.0587 -0.0850  0.3933
12117TIP3    H157766   6.206   5.866  14.417  1.0447 -0.2612 -0.0764
12117TIP3    H257767   6.334   5.882  14.495  0.5250  1.5843  0.4572
12118TIP3   OH257768   5.368   2.258   0.706  0.0033 -0.0279  0.1033
12118TIP3    H157769   5.276   2.240   0.725 -0.0745 -0.1727 -0.4037
12118TIP3    H257770   5.413   2.175   0.725  0.4181  0.6933  2.7321
12119TIP3   OH257771   4.360   6.068   3.981 -0.4127  0.1798 -0.3930
12119TIP3    H157772   4.329   6.027   3.900 -1.3850  1.4454 -0.6838
12119TIP3    H257773   4.386   6.156   3.956  1.3564 -0.1050  0.2874
12120TIP3   OH257774   7.113   0.344   3.866 -0.2640  0.1021  0.2626
12120TIP3    H157775   7.186   0.302   3.911 -0.1427  1.1634  1.1050
12120TIP3    H257776   7.151   0.386   3.790 -0.2491 -0.6089 -0.1232
12121TIP3   OH257777   6.508   2.926   3.288  0.7358  0.2489 -0.4882
12121TIP3    H157778   6.563   3.000   3.313  0.7964 -0.2621  0.9775
12121TIP3    H257779   6.546   2.894   3.207  1.8301  0.6898 -0.1614
12122TIP3   OH257780   1.497   1.285  12.622  0.4789  0.1867  0.2452
12122TIP3    H157781   1.430   1.302  12.689  1.9364  0.5474  1.6773
12122TIP3    H257782   1.491   1.359  12.562 -0.2309  0.3349  0.4871
12123TIP3   OH257783   4.238   2.018  10.442 -0.1920  0.9215 -0.6063
12123TIP3    H157784   4.176   2.089  10.423  0.9592  2.5148  1.2976
12123TIP3    H257785   4.279   2.043  10.524  0.3317 -1.9611  0.1011
12124TIP3   OH257786   3.197   6.787  10.282 -0.1106 -0.5738  0.7479
12124TIP3    H157787   3.201   6.878  10.309 -0.0411  0.0069 -1.0519
12124TIP3    H257788   3.286   6.766  10.253 -0.1502 -1.1872  1.0448
12125TIP3   OH257789   1.561   5.969   2.023  0.2097 -1.0606 -0.4125
12125TIP3    H157790   1.571   5.988   1.929  1.5041  1.1665  0.0892
12125TIP3    H257791   1.529   6.051   2.060 -0.2983 -1.9226  1.1092
12126TIP3   OH257792   2.334   3.093  12.328  0.3774  0.4404 -0.6168
12126TIP3    H157793   2.287   3.160  12.278 -0.5386 -0.1898 -0.6299
12126TIP3    H257794   2.322   3.013  12.277  1.1545  0.1897 -0.4176
12127TIP3   OH257795   3.011   0.090   9.349 -0.2518  0.1323 -0.3101
12127TIP3    H157796   3.102   0.065   9.363 -0.0346  1.5919  1.0699
12127TIP3    H257797   3.013   0.185   9.339 -1.5368  0.0987 -1.1484
12128TIP3   OH257798   6.596   6.393   3.713 -0.3879 -0.0602 -0.4802
12128TIP3    H157799   6.508   6.429   3.714 -1.2776 -1.6929 -3.8237
12128TIP3    H257800   6.585   6.302   3.743  0.9348  0.7085  2.7923
12129TIP3   OH257801   0.610   2.884  11.664  0.0611 -0.5395 -0.6565
12129TIP3    H157802   0.635   2.895  11.755 -1.5709  0.1949 -0.2541
12129TIP3    H257803   0.618   2.790  11.648 -1.4356 -0.9684  0.8436
12130TIP3   OH257804   1.551   4.453  10.779 -0.3780 -0.5535  0.3965
12130TIP3    H157805   1.543   4.508  10.702 -1.7796 -2.3763 -0.8390
12130TIP3    H257806   1.469   4.467  10.827 -0.5888 -1.2757  0.2559
12131TIP3   OH257807   5.978   4.844  12.618 -0.2397 -0.0071 -0.1669
12131TIP3    H157808   6.059   4.871  12.662  0.6260 -0.8907 -1.1540
12131TIP3    H257809   6.008   4.799  12.539 -1.7212  0.0957 -0.8151
12132TIP3   OH257810   4.803   0.726   2.946 -0.1283 -0.6711 -0.1693
12132TIP3    H157811   4.827   0.807   2.901 -0.4597 -1.0873 -1.1146
12132TIP3    H257812   4.823   0.743   3.038  0.2813  0.3022 -0.4263
12133TIP3   OH257813   2.870   3.191  12.803  0.5603  0.4034 -0.4645
12133TIP3    H157814   2.934   3.120  12.804  0.5042  0.3579  0.3042
12133TIP3    H257815   2.923   3.270  12.795  1.1126  0.6993  3.7933
12134TIP3   OH257816   7.115   4.284   0.404 -0.0509  0.0994  1.0487
12134TIP3    H157817   7.062   4.238   0.469 -0.2362  0.4281  1.1327
12134TIP3    H257818   7.200   4.295   0.445 -0.0783  0.0432  1.1209
12135TIP3   OH257819   2.308   5.655   2.140  0.3747  0.2276  0.6991
12135TIP3    H157820   2.319   5.655   2.045  0.9368 -0.6953  0.7479
12135TIP3    H257821   2.391   5.622   2.174  0.1043  0.3418  1.4987
12136TIP3   OH257822   1.551   0.407  13.682 -0.3013  0.9585 -0.8407
12136TIP3    H157823   1.463   0.436  13.704  1.2155  3.7079  2.5311
12136TIP3    H257824   1.572   0.454  13.601 -2.4889 -1.3819 -2.9432
12137TIP3   OH257825   2.682   6.770   1.790  0.7379  0.1981  0.1040
12137TIP3    H157826   2.635   6.689   1.773 -0.6684  1.0824 -0.3889
12137TIP3    H257827   2.631   6.838   1.746  1.8945  1.3632  0.4657
12138TIP3   OH257828   1.940   0.736   3.608 -0.1739 -0.7674  0.0926
12138TIP3    H157829   1.941   0.808   3.545  0.5780  0.3588  1.3597
12138TIP3    H257830   1.994   0.668   3.567  0.5946  0.0793 -0.3241
12139TIP3   OH257831   7.090   2.546   3.354  0.6126 -0.6668  0.4927
12139TIP3    H157832   7.053   2.557   3.266  0.9478  0.2472  0.4555
12139TIP3    H257833   7.073   2.454   3.376 -0.5575 -0.5949 -0.0292
12140TIP3   OH257834   3.832   0.029   0.562  0.2552 -0.0777  0.0734
12140TIP3    H157835   3.815  -0.025   0.639  0.0765  0.7624  0.6470
12140TIP3    H257836   3.810  -0.026   0.488 -0.9827 -0.4220  0.6670
12141TIP3   OH257837   0.655   3.851   1.043 -0.2655  0.4157 -0.1984
12141TIP3    H157838   0.701   3.908   0.982  1.1087 -1.8654 -1.4359
12141TIP3    H257839   0.563   3.876   1.035 -0.0099  0.7974 -2.5295
12142TIP3   OH257840   6.698   4.962   1.576  0.4254  0.0206  0.2586
12142TIP3    H157841   6.656   4.882   1.544  1.2703 -0.2429 -0.2046
12142TIP3    H257842   6.685   4.959   1.670  0.2495 -0.5425  0.2231
12143TIP3   OH257843   3.724   5.284  13.992 -0.8881 -0.4538  0.0925
12143TIP3    H157844   3.754   5.374  13.998 -0.8369 -0.5053  0.6881
12143TIP3    H257845   3.769   5.248  13.916 -0.4030 -0.1673  0.2394
12144TIP3   OH257846   3.776   6.673  14.422  0.4019 -0.3355  0.7165
12144TIP3    H157847   3.838   6.628  14.365 -0.5100 -1.8166  0.8536
12144TIP3    H257848   3.759   6.612  14.493 -2.6234 -0.8506 -0.2896
12145TIP3   OH257849   6.321   4.749   0.233 -0.3593  0.6275 -0.2334
12145TIP3    H157850   6.404   4.701   0.239 -0.3619  0.6880  0.3488
12145TIP3    H257851   6.290   4.731   0.145 -0.2498 -0.2712 -0.1070
12146TIP3   OH257852   1.394   1.375  12.370 -0.1392 -0.9313  0.1109
12146TIP3    H157853   1.353   1.290  12.382 -0.4036 -0.9294 -0.6752
12146TIP3    H257854   1.477   1.356  12.327 -0.2401 -0.7916 -0.1499
12147TIP3   OH257855   0.550   3.822   4.192  0.4938  0.8399 -0.1259
12147TIP3    H157856   0.460   3.803   4.167  0.4231  0.5202  0.3688
12147TIP3    H257857   0.542   3.883   4.265  0.6487 -0.1643  0.7492
12148TIP3   OH257858   5.682   3.435  14.893 -0.2840 -0.0460  0.1020
12148TIP3    H157859   5.660   3.501  14.958 -0.8022 -1.9056  1.9153
12148TIP3    H257860   5.711   3.359  14.944 -0.7377 -1.6100 -1.8336
12149TIP3   OH257861   5.258   3.238   2.929  0.1494  0.1959 -0.0042
12149TIP3    H157862   5.346   3.274   2.944  0.2716  0.6095 -1.5126
12149TIP3    H257863   5.231   3.277   2.846 -2.3095  1.6616  1.4002
12150TIP3   OH257864   6.083   1.365   1.719 -0.0103 -0.3312  0.0451
12150TIP3    H157865   6.058   1.404   1.802  2.0795 -1.2063  1.1526
12150TIP3    H257866   6.015   1.393   1.658 -1.0037  1.2521  1.7799
12151TIP3   OH257867   5.051   6.897   1.629  0.0679 -0.1376 -0.2072
12151TIP3    H157868   5.034   6.984   1.665  0.4684 -0.0954 -0.1231
12151TIP3    H257869   5.077   6.844   1.704  4.4244  0.8068 -0.8133
12152TIP3   OH257870   4.232   3.301  14.523 -0.4347 -0.0050 -0.3834
12152TIP3    H157871   4.287   3.342  14.589 -0.5102  0.0184 -0.3365
12152TIP3    H257872   4.215   3.213  14.557  0.2704 -0.3139 -0.7821
12153TIP3   OH257873   5.067   0.296  13.664 -0.7025  0.6461 -0.1030
12153TIP3    H157874   5.086   0.360  13.732 -2.5177 -2.0981  3.2929
12153TIP3    H257875   4.988   0.329  13.621  1.1743  3.0633 -2.0412
12154TIP3   OH257876   2.947   3.545   4.396 -0.1740 -0.3522 -0.0484
12154TIP3    H157877   2.927   3.451   4.389 -0.7342 -0.1848 -0.6988
12154TIP3    H257878   2.954   3.575   4.306  2.0293 -0.1790  0.1246
12155TIP3   OH257879   5.910   4.433   1.826  0.3911  0.0476  0.8237
12155TIP3    H157880   5.942   4.366   1.766 -1.1008 -0.1595  0.2010
12155TIP3    H257881   5.871   4.500   1.769  2.3218  1.7472  1.4039
12156TIP3   OH257882   6.730   4.290  12.375  0.3058 -0.0618 -0.2333
12156TIP3    H157883   6.745   4.384  12.369  0.5543  0.0683  1.7479
12156TIP3    H257884   6.763   4.255  12.291  0.9711  1.5093 -0.6631
12157TIP3   OH257885   5.259   6.999  13.542 -0.2733 -0.3378  0.4358
12157TIP3    H157886   5.320   6.926  13.534 -0.1215 -0.0615 -1.6715
12157TIP3    H257887   5.309   7.069  13.582  1.0477  0.0689 -1.7700
12158TIP3   OH257888   7.094   0.168   0.655  0.3002 -0.9416  0.2404
12158TIP3    H157889   7.128   0.186   0.743  0.5230 -1.4749  0.2665
12158TIP3    H257890   7.008   0.209   0.654  1.7800  2.5502 -0.5868
12159TIP3   OH257891   6.988   0.154   2.331 -0.4480  0.3026  0.2362
12159TIP3    H157892   7.057   0.190   2.276 -0.0248 -1.3946 -0.4116
12159TIP3    H257893   7.033   0.126   2.411 -1.1195  3.1251  1.7239
12160TIP3   OH257894   1.775   3.299  10.887  0.2760 -0.2807  0.0651
12160TIP3    H157895   1.811   3.240  10.954  2.7649  0.2967 -0.6871
12160TIP3    H257896   1.681   3.279  10.887  0.5874 -2.1646  1.8576
12161TIP3   OH257897   2.614   4.776  14.575  0.3994  0.1966  1.0030
12161TIP3    H157898   2.608   4.870  14.587 -0.0801  0.2006  0.7574
12161TIP3    H257899   2.577   4.739  14.656 -0.4886  0.2229  0.6168
12162TIP3   OH257900   2.875   6.620   0.739 -0.0441  0.1576  0.0457
12162TIP3    H157901   2.829   6.685   0.791  1.0040 -0.3478  1.6782
12162TIP3    H257902   2.964   6.620   0.773  0.3605 -1.0923 -0.9176
12163TIP3   OH257903   3.117   7.005   4.919 -0.5986 -0.0892 -0.0947
12163TIP3    H157904   3.206   7.038   4.932 -0.6579 -0.2815  0.8711
12163TIP3    H257905   3.102   7.013   4.825  0.4451 -0.0681 -0.2706
12164TIP3   OH257906   6.796   0.738  14.044  0.1431 -0.0339 -0.0358
12164TIP3    H157907   6.706   0.723  14.073  0.6576 -2.8271  0.3687
12164TIP3    H257908   6.839   0.777  14.120 -0.6340  1.1018 -0.1502
12165TIP3   OH257909   2.043   3.434   0.571 -0.4547 -0.7296 -0.4403
12165TIP3    H157910   2.027   3.415   0.479  0.9563 -0.4976 -0.7546
12165TIP3    H257911   2.068   3.349   0.609 -0.0299 -0.6333 -0.5032
12166TIP3   OH257912   3.987   3.042  14.529 -0.3452 -0.5888 -0.5207
12166TIP3    H157913   4.009   2.974  14.592 -0.0843  0.5890  0.6908
12166TIP3    H257914   4.011   3.004  14.444  1.3125 -1.4055  0.2624
12167TIP3   OH257915   3.832   2.193   0.878 -0.0892 -0.5851 -0.3628
12167TIP3    H157916   3.840   2.232   0.791  1.5284  1.7230  0.7126
12167TIP3    H257917   3.753   2.231   0.914 -0.4583 -1.1208 -0.5837
12168TIP3   OH257918   1.598   3.169  14.347 -0.2796  0.4653 -0.3392
12168TIP3    H157919   1.568   3.145  14.259 -0.0993 -1.2935  0.0558
12168TIP3    H257920   1.524   3.216  14.386 -0.7064  0.4311 -1.0849
12169TIP3   OH257921   2.155   1.481  12.674  0.2665 -0.1715 -0.1140
12169TIP3    H157922   2.198   1.399  12.651  1.4459  1.0695 -2.7578
12169TIP3    H257923   2.226   1.542  12.694 -0.3431  1.1039 -1.6015
12170TIP3   OH257924   6.090   6.913   4.297  0.0139  0.7901 -0.2511
12170TIP3    H157925   6.137   6.864   4.229 -0.9725  0.3994 -0.6728
12170TIP3    H257926   6.155   6.973   4.333  0.9428 -0.0166 -0.5355
12171TIP3   OH257927   2.876   2.312   3.130  0.2648  0.8987 -0.1137
12171TIP3    H157928   2.862   2.406   3.144 -0.4461  0.5177  2.1790
12171TIP3    H257929   2.922   2.283   3.208  0.3019 -0.7211 -0.6998
12172TIP3   OH257930   5.544   3.800  13.488 -0.0308 -0.0182 -0.3470
12172TIP3    H157931   5.598   3.879  13.492 -0.0788 -0.0247  0.8389
12172TIP3    H257932   5.526   3.787  13.395 -0.5084  1.6968 -0.5255
12173TIP3   OH257933   5.606   0.595   5.783  0.0702 -0.0088  0.2326
12173TIP3    H157934   5.599   0.577   5.690  0.9719 -0.3492  0.2156
12173TIP3    H257935   5.689   0.554   5.809 -0.2144  0.0043  1.1986
12174TIP3   OH257936   0.893   2.196   0.171  0.2070  0.6014  0.1652
12174TIP3    H157937   0.819   2.226   0.224 -0.8659  1.4414 -1.7061
12174TIP3    H257938   0.859   2.121   0.123  0.5821  0.9311 -0.6395
12175TIP3   OH257939   2.940   3.178   1.308  0.3333 -0.2916 -0.2919
12175TIP3    H157940   2.977   3.100   1.267 -1.1901 -1.6021  0.6942
12175TIP3    H257941   2.925   3.238   1.236  0.8367 -1.2091 -1.1909
12176TIP3   OH257942   1.387   5.954  13.081  0.1075  0.0285 -0.0537
12176TIP3    H157943   1.417   6.010  13.153  0.2163 -0.5713  0.3681
12176TIP3    H257944   1.321   5.898  13.120  1.0314 -1.1442 -0.1153
12177TIP3   OH257945   3.458   0.274  15.286 -0.3853  0.2352  0.5422
12177TIP3    H157946   3.380   0.219  15.279  0.9753 -1.9005  1.0640
12177TIP3    H257947   3.516   0.225  15.344  1.2779  1.8520  0.3319
12178TIP3   OH257948   1.463   5.761  12.551 -0.2745 -0.1909 -0.1610
12178TIP3    H157949   1.440   5.668  12.555 -0.4120 -0.2290 -1.3028
12178TIP3    H257950   1.532   5.772  12.616 -1.9436 -0.5516  1.7707
12179TIP3   OH257951   3.832   1.537  12.760 -0.0245 -0.4789 -0.3478
12179TIP3    H157952   3.790   1.483  12.828  0.4642  0.4026  0.6815
12179TIP3    H257953   3.823   1.627  12.792  0.5022 -0.0738 -1.3080
12180TIP3   OH257954   6.453   0.194   0.189 -0.3389 -0.8871 -0.4492
12180TIP3    H157955   6.547   0.211   0.191 -0.6076  0.9514  2.2908
12180TIP3    H257956   6.437   0.152   0.104  2.9550 -1.5387 -0.8531
12181TIP3   OH257957   6.789   3.607  13.506 -0.1794  0.3190 -0.4226
12181TIP3    H157958   6.803   3.512  13.513 -1.2555  0.2025  0.3688
12181TIP3    H257959   6.701   3.615  13.468 -0.4881  0.9924  0.4131
12182TIP3   OH257960   3.555   4.546   3.565 -0.2511  0.4509 -0.4000
12182TIP3    H157961   3.562   4.458   3.528 -1.1097  0.3785 -0.4179
12182TIP3    H257962   3.492   4.537   3.636 -3.6319  1.7665 -2.9214
12183TIP3   OH257963   3.455   6.199   2.120  0.1274 -0.2333 -0.9353
12183TIP3    H157964   3.550   6.187   2.128  0.3243  1.6176  0.0149
12183TIP3    H257965   3.429   6.236   2.204 -1.3659 -0.1958 -1.3962
12184TIP3   OH257966   3.558   3.146   5.148  0.4501 -0.3420 -0.0355
12184TIP3    H157967   3.606   3.215   5.103  0.2202  0.5499  1.0238
12184TIP3    H257968   3.625   3.083   5.175  0.9176  0.4073  0.5953
12185TIP3   OH257969   5.489   6.413  13.053 -0.2515 -0.0920  0.0767
12185TIP3    H157970   5.422   6.471  13.018 -0.4891  0.2667  1.0844
12185TIP3    H257971   5.439   6.343  13.096 -0.0366  0.6490  1.6225
12186TIP3   OH257972   3.829   6.607   5.511  0.6894 -0.1005  0.1303
12186TIP3    H157973   3.873   6.663   5.575  1.0733  0.0719 -0.2763
12186TIP3    H257974   3.827   6.659   5.430 -2.6970  0.9965  0.7741
12187TIP3   OH257975   4.702   6.598  15.213 -0.1564 -0.6389  0.1305
12187TIP3    H157976   4.644   6.615  15.287  0.1228 -0.1493  0.2398
12187TIP3    H257977   4.788   6.629  15.241  0.0515 -0.8756 -0.2254
12188TIP3   OH257978   5.480   1.546   3.519 -0.5814  0.0579  0.4709
12188TIP3    H157979   5.482   1.595   3.437 -0.3210  0.7105  0.8544
12188TIP3    H257980   5.526   1.603   3.582  1.4492 -1.4994  0.4829
12189TIP3   OH257981   6.210   1.901  14.301 -0.0193 -0.0959  0.7439
12189TIP3    H157982   6.165   1.913  14.218  0.0630  0.1561  0.7328
12189TIP3    H257983   6.302   1.917  14.281  0.1112 -0.8612  0.7132
12190TIP3   OH257984   2.936   2.631  11.271 -0.1641 -0.1869  0.0554
12190TIP3    H157985   3.001   2.590  11.214 -1.2019 -2.8538  0.6110
12190TIP3    H257986   2.959   2.599  11.359 -1.4723 -0.1644  0.4261
12191TIP3   OH257987   1.777   3.982   1.997  0.2245 -0.1558 -0.8822
12191TIP3    H157988   1.792   4.009   1.906  2.0684 -0.7549 -0.8112
12191TIP3    H257989   1.834   3.905   2.008  1.9524  1.3218  1.4459
12192TIP3   OH257990   3.958   0.658   5.236 -0.1494 -0.0517  0.4417
12192TIP3    H157991   3.928   0.584   5.288  0.2441 -0.4138  0.1611
12192TIP3    H257992   4.018   0.705   5.294  0.9580 -0.9332  0.0424
12193TIP3   OH257993   3.538   5.818   3.534  0.2051 -0.0714  0.0807
12193TIP3    H157994   3.561   5.728   3.556 -1.3975 -0.8548 -1.1714
12193TIP3    H257995   3.551   5.823   3.439 -2.2025  0.1479 -0.3058
12194TIP3   OH257996   3.613   1.169  12.425 -0.4180  0.0136  0.1557
12194TIP3    H157997   3.584   1.181  12.334 -0.2059  2.0658  0.3116
12194TIP3    H257998   3.536   1.138  12.471 -1.0184  0.6614 -0.3927
12195TIP3   OH257999   0.347   0.495   5.355 -0.1127  0.4692 -0.2778
12195TIP3    H158000   0.263   0.488   5.309 -1.3109 -0.3120  1.8486
12195TIP3    H258001   0.323   0.511   5.446  2.1566  2.8658  0.0169
12196TIP3   OH258002   7.042   7.050  14.613  0.7673 -0.9204  0.3375
12196TIP3    H158003   7.084   7.129  14.645  1.4033 -0.9431 -0.4174
12196TIP3    H258004   6.953   7.077  14.590  0.6643 -0.6581  1.0080
12197TIP3   OH258005   5.034   7.170  11.721  0.1906 -0.0845 -0.3295
12197TIP3    H158006   4.999   7.150  11.808 -1.2913 -0.9325 -1.0691
12197TIP3    H258007   4.958   7.202  11.671  1.1024  0.8209 -1.1957
12198TIP3   OH258008   2.170   6.675   4.533 -0.9605 -0.0413  0.0549
12198TIP3    H158009   2.243   6.613   4.539 -1.4935 -0.7571 -0.6571
12198TIP3    H258010   2.203   6.745   4.476 -0.2780  0.4660  1.0385
12199TIP3   OH258011   2.916   0.683   0.840  0.9788  0.0365  0.3422
12199TIP3    H158012   2.842   0.650   0.891  1.3197  0.1539  0.9288
12199TIP3    H258013   2.989   0.683   0.902  1.4778 -0.1176 -0.2429
12200TIP3   OH258014   1.968   7.208   4.810 -0.3593 -0.3249  0.0567
12200TIP3    H158015   1.904   7.260   4.762  0.7590  1.0918  0.0533
12200TIP3    H258016   1.994   7.264   4.883  1.5922 -0.4669 -0.4850
12201TIP3   OH258017   0.740   2.333   4.440  0.0420 -1.0135  0.5018
12201TIP3    H158018   0.783   2.296   4.362 -0.0177 -0.6359  0.2890
12201TIP3    H258019   0.809   2.384   4.483  0.1594 -1.4692  0.8654
12202TIP3   OH258020   0.702   1.226   2.019 -0.0416  0.2301 -0.7117
12202TIP3    H158021   0.667   1.311   1.994 -0.6837 -0.2945 -1.6719
12202TIP3    H258022   0.698   1.174   1.939 -0.7351 -1.0461  0.1152
12203TIP3   OH258023   0.898   2.524   3.746  0.1551 -0.2310  0.4929
12203TIP3    H158024   0.848   2.457   3.700  1.7630 -0.9289 -0.2854
12203TIP3    H258025   0.882   2.506   3.839 -0.6228 -0.7498  0.2682
12204TIP3   OH258026   3.412   0.050   2.239  0.5230  0.1216  0.2358
12204TIP3    H158027   3.490  -0.003   2.256  0.1523 -0.8139 -0.8865
12204TIP3    H258028   3.376   0.067   2.327  1.1814 -0.6749  0.6794
12205TIP3   OH258029   5.537   2.919   0.203 -0.5460 -0.0621  0.4127
12205TIP3    H158030   5.451   2.919   0.245 -1.0767  1.2070 -0.6104
12205TIP3    H258031   5.519   2.899   0.111  0.4536 -1.4819  0.4900
12206TIP3   OH258032   3.444   2.009   4.075 -0.3529  0.0988 -0.1946
12206TIP3    H158033   3.410   2.068   4.007  2.2839  1.6834 -0.2846
12206TIP3    H258034   3.470   1.930   4.027 -4.5269 -1.6504  0.0146
12207TIP3   OH258035   5.633   5.624   1.493 -0.1837  0.1719 -0.4791
12207TIP3    H158036   5.662   5.548   1.442  2.5048  1.3562 -0.9058
12207TIP3    H258037   5.564   5.664   1.439  0.1182 -0.5762 -1.4418
12208TIP3   OH258038   1.104   1.695  11.056 -0.1384  0.4521 -0.2251
12208TIP3    H158039   1.060   1.678  11.140  0.5640 -0.1779  0.0247
12208TIP3    H258040   1.139   1.610  11.030 -0.4777  0.6164 -1.2435
12209TIP3   OH258041   4.087   1.902  14.013  0.8126  0.6404  0.0715
12209TIP3    H158042   4.065   1.834  14.077 -1.6843  0.3697 -0.9756
12209TIP3    H258043   4.164   1.868  13.967 -1.2498 -2.3244 -1.4951
12210TIP3   OH258044   0.469   3.542  14.735 -0.3665  0.3797  0.2797
12210TIP3    H158045   0.529   3.609  14.701 -0.2227 -0.0719 -0.3927
12210TIP3    H258046   0.526   3.472  14.767 -0.5219  0.3930  0.5892
12211TIP3   OH258047   2.938   6.923  14.587  0.1363  0.0003  0.4735
12211TIP3    H158048   2.894   6.966  14.514  2.0059 -0.0468 -0.7662
12211TIP3    H258049   2.894   6.839  14.596 -0.5304  0.2698 -0.1827
12212TIP3   OH258050   3.389   2.503   3.177  0.3756  0.3087  0.1637
12212TIP3    H158051   3.307   2.473   3.137  0.4709 -1.7397  1.3412
12212TIP3    H258052   3.365   2.584   3.222 -1.3691 -0.8183  1.4343
12213TIP3   OH258053   2.777   2.190  13.995 -0.6290 -0.1319 -0.5646
12213TIP3    H158054   2.723   2.229  13.926 -2.0105 -0.5989  0.2059
12213TIP3    H258055   2.828   2.123  13.950 -1.8990 -0.7920 -1.0712
12214TIP3   OH258056   6.174   1.087   0.887 -0.3234  0.0089  0.0853
12214TIP3    H158057   6.142   1.032   0.816 -0.5781 -1.2916  1.1681
12214TIP3    H258058   6.254   1.044   0.916 -0.5748  0.1487  1.0167
12215TIP3   OH258059   6.108   4.755   4.959  0.0251 -0.8054  0.5618
12215TIP3    H158060   6.072   4.673   4.993 -0.7413 -0.3852  0.7677
12215TIP3    H258061   6.035   4.816   4.958  1.1393  0.6971  2.9472
12216TIP3   OH258062   2.819   6.854   2.895  0.6863  0.0822 -0.1555
12216TIP3    H158063   2.822   6.781   2.834 -1.1839 -0.4995  0.4065
12216TIP3    H258064   2.758   6.917   2.855 -0.2877 -0.1540  0.9110
12217TIP3   OH258065   2.517   4.366  14.034  0.4491 -0.2507 -0.1623
12217TIP3    H158066   2.541   4.434  13.971 -1.4165  0.0792 -0.5488
12217TIP3    H258067   2.459   4.307  13.986 -1.3823  0.2488  1.3169
12218TIP3   OH258068   3.955   5.265   0.255  0.1618 -0.5872  0.3413
12218TIP3    H158069   4.025   5.278   0.191 -0.4397 -1.0350 -0.4184
12218TIP3    H258070   3.917   5.180   0.233 -0.4295 -0.4856  0.9246
12219TIP3   OH258071   4.932   5.297   2.571 -0.0126  0.2569  0.1142
12219TIP3    H158072   4.921   5.212   2.529 -1.8180  1.2318 -1.5598
12219TIP3    H258073   4.898   5.284   2.660  2.8169 -1.5390  1.0933
12220TIP3   OH258074   1.310   5.848   1.488  0.2828  0.5295  0.2862
12220TIP3    H158075   1.282   5.778   1.547  0.6092  0.1994  0.0593
12220TIP3    H258076   1.366   5.803   1.423 -0.5209  0.7820 -0.6082
12221TIP3   OH258077   5.436   2.890   4.224 -0.4492 -0.5260 -0.1724
12221TIP3    H158078   5.472   2.935   4.301 -0.7407 -1.6013  0.6289
12221TIP3    H258079   5.505   2.896   4.158  0.2643 -0.5495  0.5525
12222TIP3   OH258080   5.360   3.422  10.862 -0.1100  0.2359 -0.0620
12222TIP3    H158081   5.398   3.489  10.806  0.1732  1.1186  1.1468
12222TIP3    H258082   5.356   3.344  10.807 -0.1157  1.1449 -1.3817
12223TIP3   OH258083   2.750   5.542  14.460  0.0402  0.7816  0.7317
12223TIP3    H158084   2.791   5.584  14.385  0.2715  0.3416  0.6078
12223TIP3    H258085   2.777   5.595  14.535  2.0040 -0.2681  0.8417
12224TIP3   OH258086   4.006   0.019  11.422 -0.5020  0.2199  0.1153
12224TIP3    H158087   4.066  -0.049  11.392 -0.3483  1.0345 -1.5485
12224TIP3    H258088   3.928  -0.028  11.451  0.2506 -0.7413  0.6619
12225TIP3   OH258089   1.607   0.532  11.053 -0.2535 -0.6398  0.0606
12225TIP3    H158090   1.676   0.479  11.015  1.7602 -0.2297  2.8739
12225TIP3    H258091   1.548   0.470  11.095 -0.7068 -0.8915 -0.9275
12226TIP3   OH258092   5.354   0.578   1.354  0.5996  0.4670 -0.1009
12226TIP3    H158093   5.390   0.663   1.379 -0.5227  0.3032  2.4070
12226TIP3    H258094   5.424   0.516   1.372  0.5821  0.6229  0.5496
12227TIP3   OH258095   6.637   2.212   1.476  0.3779  0.1662  0.0175
12227TIP3    H158096   6.578   2.245   1.407  0.5083  2.3482  0.8637
12227TIP3    H258097   6.593   2.134   1.509 -0.9843  0.5436 -0.7943
12228TIP3   OH258098   5.686   4.810   2.619 -0.2502  0.1412 -0.2966
12228TIP3    H158099   5.777   4.802   2.590 -0.1530  0.3821 -0.0632
12228TIP3    H258100   5.662   4.900   2.597 -0.0940  0.4046  0.5981
12229TIP3   OH258101   3.586   6.639   3.480 -0.3886  0.1530 -0.0177
12229TIP3    H158102   3.521   6.577   3.514  0.9636 -2.2610 -1.5758
12229TIP3    H258103   3.602   6.699   3.553 -2.9471 -0.2862  1.0171
12230TIP3   OH258104   5.586   3.980  14.130  0.2073 -0.2219  0.2519
12230TIP3    H158105   5.496   4.012  14.146 -0.0071 -0.0924 -1.1183
12230TIP3    H258106   5.578   3.885  14.132 -0.4375 -0.2797 -2.0407
12231TIP3   OH258107   5.593   2.071   0.350 -0.0518 -0.5745  0.3417
12231TIP3    H158108   5.565   1.980   0.359  1.1165 -1.2020 -1.7610
12231TIP3    H258109   5.540   2.106   0.278  2.1447 -0.8469 -1.5455
12232TIP3   OH258110   4.525   6.104   3.145  0.2055  0.0721 -0.5675
12232TIP3    H158111   4.610   6.143   3.164 -0.5542  1.2004  0.6667
12232TIP3    H258112   4.528   6.018   3.186  0.1604  0.7833  0.9995
12233TIP3   OH258113   6.995   2.613  13.306 -0.2430  0.1026  0.2844
12233TIP3    H158114   6.946   2.668  13.245 -0.1489 -0.2541 -0.1130
12233TIP3    H258115   6.961   2.637  13.392  0.9652  2.0296  0.2945
12234TIP3   OH258116   7.201   1.252   3.605 -0.0469 -0.2824  0.6440
12234TIP3    H158117   7.143   1.265   3.680 -1.8208  0.8685 -0.8381
12234TIP3    H258118   7.275   1.310   3.622 -0.8517  0.6439  1.1038
12235TIP3   OH258119   5.176   3.515  13.551 -1.0410  0.5127 -0.2123
12235TIP3    H158120   5.219   3.522  13.636 -3.7016 -1.7353  1.5015
12235TIP3    H258121   5.187   3.424  13.525 -2.7333  0.4392 -0.7966
12236TIP3   OH258122   1.390   2.933  14.782  0.7253  0.4950  0.3227
12236TIP3    H158123   1.424   2.906  14.697 -0.3350 -0.3192  0.1467
12236TIP3    H258124   1.465   2.976  14.825  1.2805  0.8896 -0.9889
12237TIP3   OH258125   3.554   0.051  14.796  0.2858 -0.1526  0.4231
12237TIP3    H158126   3.611  -0.026  14.791  1.2199  0.3683  2.3827
12237TIP3    H258127   3.492   0.031  14.866 -1.3943 -0.2984 -1.0313
12238TIP3   OH258128   0.291   5.922   0.417  0.1534 -0.3615 -0.0635
12238TIP3    H158129   0.233   5.977   0.469  2.5372  1.1490  1.2273
12238TIP3    H258130   0.284   5.956   0.328 -0.9903 -0.3125  0.0336
12239TIP3   OH258131   0.962   1.158  12.480 -0.3194  0.0538 -0.1047
12239TIP3    H158132   0.904   1.099  12.528  0.3278 -0.6201 -0.1395
12239TIP3    H258133   0.904   1.208  12.422 -1.2976  1.7768  2.2058
12240TIP3   OH258134   2.920   6.004  10.980  0.1122  0.0954  0.3918
12240TIP3    H158135   3.015   6.008  10.968  0.1233  1.9410  0.7339
12240TIP3    H258136   2.886   6.058  10.908 -0.8520 -2.1849 -0.9765
12241TIP3   OH258137   2.619   1.905   0.369  0.0641 -0.5429  0.6141
12241TIP3    H158138   2.593   1.901   0.277  2.4062 -0.1661 -0.1249
12241TIP3    H258139   2.714   1.916   0.367  0.0116  1.2152  3.0713
12242TIP3   OH258140   2.753   5.999   0.582  0.4453 -0.0159 -0.4276
12242TIP3    H158141   2.809   5.988   0.659  0.3321 -0.0220 -0.3455
12242TIP3    H258142   2.665   6.007   0.618  0.4834  0.8687 -0.5041
12243TIP3   OH258143   0.502   4.053  13.330  0.1106 -0.4596 -0.2999
12243TIP3    H158144   0.524   4.124  13.390  1.8764 -0.9342 -0.3356
12243TIP3    H258145   0.497   4.096  13.244  0.7553 -0.3045 -0.2637
12244TIP3   OH258146   7.167   0.715   4.525  0.5615  0.1301  0.1354
12244TIP3    H158147   7.146   0.808   4.536 -2.1431  0.0049 -2.6350
12244TIP3    H258148   7.085   0.674   4.499  2.1219 -2.6421 -0.9474
12245TIP3   OH258149   6.674   5.304  10.368 -0.2038  0.3684 -0.1018
12245TIP3    H158150   6.700   5.396  10.366 -0.2453  0.3894  0.2098
12245TIP3    H258151   6.659   5.286  10.461  1.3599 -0.4041  0.0265
12246TIP3   OH258152   7.143   1.936   0.652  0.4045  0.2653  0.5169
12246TIP3    H158153   7.104   1.850   0.640  3.1644 -1.1031  0.7693
12246TIP3    H258154   7.132   1.979   0.567  0.4791 -0.9952 -0.1583
12247TIP3   OH258155   3.612   5.667   0.270 -0.4876 -0.2614 -0.5619
12247TIP3    H158156   3.541   5.633   0.216 -1.5273 -0.8915  1.1281
12247TIP3    H258157   3.568   5.723   0.334  0.7701  0.9300 -0.6847
12248TIP3   OH258158   1.462   2.769   1.767  0.7199  0.4471  0.1451
12248TIP3    H158159   1.530   2.743   1.830  0.4682 -0.4355  0.0616
12248TIP3    H258160   1.467   2.703   1.698 -0.1180  0.4621  0.0596
12249TIP3   OH258161   4.780   5.524   2.606 -0.4427 -0.8957  0.1281
12249TIP3    H158162   4.762   5.521   2.700  1.4001  0.8479  0.5969
12249TIP3    H258163   4.850   5.460   2.592 -1.2762 -1.7507 -0.2326
12250TIP3   OH258164   2.581   6.731   4.215  0.5138  0.0586  0.3624
12250TIP3    H158165   2.665   6.730   4.262  0.9724  0.8844 -0.4011
12250TIP3    H258166   2.602   6.693   4.130 -0.2002 -0.9731  0.6376
12251TIP3   OH258167   1.407   6.377  11.090 -0.0983  0.1697 -0.0928
12251TIP3    H158168   1.401   6.460  11.044 -2.0269 -0.5326 -1.2326
12251TIP3    H258169   1.419   6.312  11.020 -0.2314 -0.6567  0.6339
12252TIP3   OH258170   2.174   3.118   4.934  0.0802  0.1308  0.3678
12252TIP3    H158171   2.122   3.038   4.928  1.8460 -1.0369 -0.1407
12252TIP3    H258172   2.110   3.189   4.927 -1.3341 -1.2168 -1.4991
12253TIP3   OH258173   1.106   0.117  14.609  0.0189 -0.2210 -0.5507
12253TIP3    H158174   1.115   0.101  14.516 -2.1998 -1.1713 -0.6723
12253TIP3    H258175   1.035   0.181  14.615 -0.3327 -0.6897  0.5009
12254TIP3   OH258176   5.125   0.281  10.240  0.2317 -0.1932  0.0271
12254TIP3    H158177   5.189   0.336  10.285  0.3645 -0.7433  0.5188
12254TIP3    H258178   5.089   0.337  10.171  1.4163  0.0452 -0.4143
12255TIP3   OH258179   4.964   3.494   0.425  0.1627  0.1543 -0.1155
12255TIP3    H158180   5.011   3.476   0.506  0.5726  1.3194 -0.0714
12255TIP3    H258181   5.033   3.500   0.358 -0.1904 -1.0533 -0.6180
12256TIP3   OH258182   1.483   3.859  12.507 -1.1413  0.0795 -0.3103
12256TIP3    H158183   1.503   3.766  12.511  2.0385  0.4952 -2.6319
12256TIP3    H258184   1.541   3.899  12.572 -3.0196  0.4879  1.2213
12257TIP3   OH258185   3.371   1.029  13.388 -0.1687  0.0785  0.1017
12257TIP3    H158186   3.283   1.057  13.366  0.2200  1.1281 -0.1630
12257TIP3    H258187   3.418   1.026  13.305 -0.0672 -0.9484  0.1753
12258TIP3   OH258188   3.898   6.208   5.112 -0.5973  0.0161  0.3271
12258TIP3    H158189   3.856   6.294   5.114 -1.9975 -0.5881 -1.2021
12258TIP3    H258190   3.959   6.213   5.039 -0.5568 -0.2425  0.3421
12259TIP3   OH258191   6.410   6.861  14.952 -0.4240  0.1024  0.1506
12259TIP3    H158192   6.383   6.769  14.945  0.3695 -0.1824  0.6952
12259TIP3    H258193   6.328   6.910  14.953 -0.9008 -0.6819  0.8864
12260TIP3   OH258194   5.207   1.145   2.449  0.0517  0.6229  0.3310
12260TIP3    H158195   5.163   1.173   2.368  0.0314 -1.4991 -0.4733
12260TIP3    H258196   5.298   1.134   2.423  0.2451  0.9492  0.8778
12261TIP3   OH258197   2.091   2.535  15.132  0.4319 -0.3616  0.8860
12261TIP3    H158198   2.049   2.598  15.074  3.7869 -0.8260 -2.4506
12261TIP3    H258199   2.143   2.588  15.193 -0.4879  0.0978  1.2813
12262TIP3   OH258200   6.094   4.957   4.169  0.3849  0.1720 -0.1489
12262TIP3    H158201   6.158   4.952   4.240  0.4895 -2.3742 -0.3352
12262TIP3    H258202   6.010   4.963   4.213  0.5495  0.3095  0.1489
12263TIP3   OH258203   2.304   3.348  15.260  0.1003 -0.2176  0.8022
12263TIP3    H158204   2.241   3.416  15.237  0.4590  0.0653  0.6542
12263TIP3    H258205   2.253   3.284  15.310 -0.3887 -0.1819  0.3556
12264TIP3   OH258206   6.525   5.223   0.103  0.4445 -0.1091  0.8299
12264TIP3    H158207   6.615   5.217   0.136  0.4344 -0.1002  0.8588
12264TIP3    H258208   6.481   5.146   0.138  0.0792  0.5712  1.9205
12265TIP3   OH258209   6.061   6.765  14.341 -0.1275  0.2035  0.1535
12265TIP3    H158210   6.068   6.724  14.428  2.9031  2.0611  0.9274
12265TIP3    H258211   5.997   6.835  14.353  0.8968  0.9983  1.1882
12266TIP3   OH258212   4.051   6.120  15.006  0.4993 -0.5286 -0.0261
12266TIP3    H158213   4.040   6.111  14.912  0.2088 -0.7011  0.0207
12266TIP3    H258214   4.010   6.204  15.028 -2.0120 -1.7257  0.3195
12267TIP3   OH258215   0.022   7.196   9.710  0.4410  0.3741 -0.1019
12267TIP3    H158216  -0.051   7.222   9.653  1.6242  1.0784 -1.3577
12267TIP3    H258217   0.095   7.251   9.683  1.6779 -0.8516  0.5766
12268TIP3   OH258218   5.591   0.778   2.736  0.1880  0.9597  0.8507
12268TIP3    H158219   5.554   0.796   2.649 -0.7059  0.8700  1.1939
12268TIP3    H258220   5.517   0.791   2.796  0.9435  1.6226  1.6685
12269TIP3   OH258221   0.843   4.946   1.752 -0.1661 -0.4814 -0.2745
12269TIP3    H158222   0.780   4.993   1.697 -0.8101 -1.3373 -0.2857
12269TIP3    H258223   0.811   4.957   1.841 -0.3559 -0.9344 -0.2824
12270TIP3   OH258224   0.520   6.128   2.861  0.1766 -0.0185  0.5788
12270TIP3    H158225   0.433   6.109   2.826  0.0692  0.8756  0.3133
12270TIP3    H258226   0.507   6.136   2.955 -0.2176  0.9842  0.4555
12271TIP3   OH258227   3.995   3.039   4.871  0.1557  0.4782 -0.4043
12271TIP3    H158228   4.022   2.971   4.932 -1.8708  1.5032  1.8520
12271TIP3    H258229   3.967   2.993   4.793 -2.4659 -1.5200  1.5418
12272TIP3   OH258230   4.511   0.512  12.588 -0.7001  0.3021  0.3734
12272TIP3    H158231   4.536   0.602  12.606  1.4553 -0.3607  1.1243
12272TIP3    H258232   4.539   0.496  12.498 -1.0645  0.3763  0.2463
12273TIP3   OH258233   3.661   3.104  12.072 -0.5626  0.1862 -0.2710
12273TIP3    H158234   3.700   3.104  12.159  0.5010  1.9588 -0.7049
12273TIP3    H258235   3.727   3.143  12.015 -1.1124 -1.2065 -1.9603
12274TIP3   OH258236   0.851   5.652   4.235  0.4000  0.0675 -0.2780
12274TIP3    H158237   0.896   5.568   4.228  0.6649  0.1097  0.8265
12274TIP3    H258238   0.813   5.652   4.323  2.1599  1.9619  0.5555
12275TIP3   OH258239   2.667   2.009  12.853  0.3994 -0.6022 -0.6462
12275TIP3    H158240   2.610   2.084  12.837  1.8083  0.7887  0.5940
12275TIP3    H258241   2.635   1.972  12.935  0.6159 -0.4717 -0.5033
12276TIP3   OH258242   3.707   3.995   0.493 -0.2057 -0.3000  0.2478
12276TIP3    H158243   3.617   3.972   0.468 -0.1201 -0.4664  0.0898
12276TIP3    H258244   3.699   4.079   0.538 -0.3825 -0.0779 -0.1953
12277TIP3   OH258245   3.378   0.644   9.758 -0.1827  0.2304 -0.0886
12277TIP3    H158246   3.392   0.657   9.664  1.0100 -0.2677 -0.0085
12277TIP3    H258247   3.358   0.731   9.792 -2.7094  0.1225 -1.0809
12278TIP3   OH258248   2.629   4.926   2.395  0.1293 -0.0106  0.1682
12278TIP3    H158249   2.634   4.955   2.487 -1.8550 -0.9318  0.6217
12278TIP3    H258250   2.626   5.007   2.345  3.1202  0.5478  0.7034
12279TIP3   OH258251   5.417   6.402   1.085 -0.4341 -0.1258 -0.2105
12279TIP3    H158252   5.443   6.311   1.095  0.0921 -0.1677 -1.7044
12279TIP3    H258253   5.356   6.418   1.157  0.8885 -1.1068  1.1735
12280TIP3   OH258254   2.367   6.719   3.963 -0.8404 -0.0579  0.2426
12280TIP3    H158255   2.291   6.769   3.934 -0.9638  0.2652  1.0930
12280TIP3    H258256   2.342   6.682   4.048  0.3730  1.1289  1.1704
12281TIP3   OH258257   5.348   5.039  13.676  0.4802  0.0639  0.2391
12281TIP3    H158258   5.366   4.976  13.606 -2.0297  0.5462 -0.9853
12281TIP3    H258259   5.314   4.986  13.748 -3.2900 -0.0667 -1.3914
12282TIP3   OH258260   7.013   0.203   3.313  0.7077 -0.2782 -0.3246
12282TIP3    H158261   7.030   0.279   3.368  2.3432  0.2126 -1.4211
12282TIP3    H258262   7.038   0.231   3.225 -0.8718 -1.3577 -1.1694
12283TIP3   OH258263   5.983   5.620   9.490  0.0146  0.2055  0.1843
12283TIP3    H158264   5.906   5.599   9.436  0.3330  0.9511 -0.5666
12283TIP3    H258265   5.977   5.714   9.504  1.9046  0.6606 -1.6487
12284TIP3   OH258266   5.460   1.326  10.981  0.2800 -0.8485  0.1226
12284TIP3    H158267   5.448   1.332  10.886 -0.9341 -0.0028  0.2973
12284TIP3    H258268   5.485   1.235  10.997  0.2135 -1.0742 -0.9743
12285TIP3   OH258269   4.659   6.895  14.065 -0.2703 -0.0603 -0.3305
12285TIP3    H158270   4.611   6.830  14.013 -0.5358  0.7550 -1.1423
12285TIP3    H258271   4.616   6.894  14.150 -0.3613 -0.8407 -0.3802
12286TIP3   OH258272   1.866   7.123   4.526 -0.0652  0.4085 -0.1355
12286TIP3    H158273   1.946   7.176   4.526  0.7158 -0.7280 -0.1426
12286TIP3    H258274   1.823   7.146   4.608 -0.3385  1.8902 -0.6632
12287TIP3   OH258275   5.834   6.116   3.115  0.4546  0.0258  0.4050
12287TIP3    H158276   5.925   6.107   3.145  0.4689 -1.1282  0.0621
12287TIP3    H258277   5.806   6.027   3.095 -0.9499  0.2936  1.0417
12288TIP3   OH258278   3.858   5.260   0.505  0.1362 -0.0044  0.6208
12288TIP3    H158279   3.900   5.272   0.420  0.2902 -0.0270  0.6944
12288TIP3    H258280   3.834   5.167   0.508  0.2363 -0.0289  0.6516
12289TIP3   OH258281   4.525   2.075  14.249  0.0311  0.0914  0.5395
12289TIP3    H158282   4.575   1.994  14.263  0.0265  0.2334  1.4412
12289TIP3    H258283   4.479   2.089  14.331 -1.5210 -0.0432 -0.2658
12290TIP3   OH258284   1.634   4.997  13.947  0.0396  0.0660  0.0123
12290TIP3    H158285   1.726   4.971  13.943  0.2388  0.8671 -1.8894
12290TIP3    H258286   1.634   5.088  13.917 -1.0110  1.2968  3.3456
12291TIP3   OH258287   6.011   4.040   4.278  0.1723 -0.7285  0.3878
12291TIP3    H158288   5.956   4.115   4.303 -0.7227 -1.0582 -0.5064
12291TIP3    H258289   6.047   4.065   4.192  2.5434  0.0545  1.5309
12292TIP3   OH258290   3.480   2.055   2.741  0.4332  0.7092 -0.3051
12292TIP3    H158291   3.395   2.081   2.707 -0.3316  0.9779  1.7077
12292TIP3    H258292   3.495   1.969   2.703  0.1168  1.3914 -2.0827
12293TIP3   OH258293   1.529   4.327   0.544  0.8769 -0.7687 -1.2857
12293TIP3    H158294   1.533   4.291   0.456 -3.3866 -1.1122 -1.5578
12293TIP3    H258295   1.517   4.251   0.601  0.4080 -0.3654 -0.8274
12294TIP3   OH258296   3.593   4.823   1.011  0.3138  0.4354  0.4471
12294TIP3    H158297   3.686   4.809   1.029  0.3063 -1.3818 -0.7027
12294TIP3    H258298   3.582   4.918   1.013  1.9110  0.6383  1.8417
12295TIP3   OH258299   6.057   1.535  10.299 -0.1075  0.5065  0.7226
12295TIP3    H158300   5.993   1.486  10.350  0.7872 -0.5702  0.8314
12295TIP3    H258301   6.137   1.532  10.351  0.4749  0.4643 -0.1514
12296TIP3   OH258302   6.848   3.062   2.903 -0.0048 -0.4742 -0.1990
12296TIP3    H158303   6.836   3.007   2.980  0.3260 -0.8420 -0.4104
12296TIP3    H258304   6.781   3.032   2.842  0.2672 -0.7372 -0.3681
12297TIP3   OH258305   7.135   3.308  10.651 -1.1438  0.1251  0.0332
12297TIP3    H158306   7.086   3.386  10.625 -3.9356 -0.9328  1.6810
12297TIP3    H258307   7.067   3.241  10.664  0.9897 -2.0817  0.4173
12298TIP3   OH258308   5.455   7.081   3.810  0.1238  0.4174  0.4321
12298TIP3    H158309   5.522   7.100   3.744 -1.3423  1.2343 -0.8994
12298TIP3    H258310   5.482   6.998   3.849  0.6963 -0.4819 -1.7348
12299TIP3   OH258311   1.035   3.949   5.332 -0.4687  0.1046 -0.4641
12299TIP3    H158312   0.948   3.958   5.368 -0.2992  1.2942 -0.2983
12299TIP3    H258313   1.029   3.875   5.272 -0.9793 -1.3329  1.2755
12300TIP3   OH258314   0.527   5.845   3.006  0.2857 -0.2931 -0.4611
12300TIP3    H158315   0.461   5.777   3.016 -1.8351  1.7973  1.0379
12300TIP3    H258316   0.609   5.803   3.032 -0.4071 -2.9366 -2.1578
12301TIP3   OH258317   4.704   5.795   2.505 -0.0118  0.8792 -0.1959
12301TIP3    H158318   4.630   5.772   2.448  0.4754 -0.2862 -0.3947
12301TIP3    H258319   4.739   5.711   2.533  0.1309  1.4396  1.3723
12302TIP3   OH258320   0.694   0.209  12.472  0.2804  0.4578 -0.2554
12302TIP3    H158321   0.649   0.265  12.536  0.9997  1.9859 -1.0290
12302TIP3    H258322   0.635   0.206  12.397 -0.9672 -2.0473  0.7078
12303TIP3   OH258323   1.628   6.532   0.337  0.0010  0.9100 -0.7502
12303TIP3    H158324   1.715   6.510   0.303 -0.2885 -1.0232 -0.3440
12303TIP3    H258325   1.638   6.620   0.372  1.9067  0.5900 -0.3774
12304TIP3   OH258326   5.044   2.349  12.737  0.3497 -0.2623  0.1441
12304TIP3    H158327   5.131   2.385  12.753 -0.0235  0.4029  0.7579
12304TIP3    H258328   4.992   2.423  12.706  0.6123 -1.1748 -2.7137
12305TIP3   OH258329   3.503   3.198   0.628 -0.4771 -0.1004 -0.8945
12305TIP3    H158330   3.460   3.135   0.570 -1.4968 -0.4816  0.2436
12305TIP3    H258331   3.522   3.149   0.707 -0.7136  0.8645 -0.2231
12306TIP3   OH258332   6.840   4.577  12.935 -0.3170  0.2627 -0.2034
12306TIP3    H158333   6.914   4.543  12.884 -1.3196  1.7755 -2.8887
12306TIP3    H258334   6.850   4.672  12.933 -2.1139  0.4936 -0.3379
12307TIP3   OH258335   0.725   5.704  12.970  0.5835 -0.3401 -0.1378
12307TIP3    H158336   0.790   5.641  13.002 -0.1084 -0.6694  0.6374
12307TIP3    H258337   0.641   5.662  12.986  0.1341  0.5567 -0.1043
12308TIP3   OH258338   2.101   5.206  14.489  0.3293 -0.1896  0.0516
12308TIP3    H158339   2.065   5.274  14.548 -1.0090  0.4884 -1.4545
12308TIP3    H258340   2.182   5.178  14.531 -0.4977  0.3605  2.1383
12309TIP3   OH258341   5.719   2.320  12.180 -0.9170  0.2326 -0.1889
12309TIP3    H158342   5.693   2.257  12.247 -1.3341  0.2837 -0.2978
12309TIP3    H258343   5.662   2.300  12.105 -0.2304 -0.0376 -0.6392
12310TIP3   OH258344   2.657   6.809   4.757 -0.5072 -0.4073 -0.3239
12310TIP3    H158345   2.713   6.771   4.690 -0.1200 -0.6701  0.1427
12310TIP3    H258346   2.670   6.904   4.748 -2.7860 -0.1913 -2.6432
12311TIP3   OH258347   2.039   0.204  11.260 -0.0417  0.0460 -0.0494
12311TIP3    H158348   2.015   0.164  11.344  0.6534 -0.0261  0.1231
12311TIP3    H258349   2.019   0.297  11.271 -2.3139 -0.3204 -0.6952
12312TIP3   OH258350   1.802   4.188   0.710  0.5499  0.2471  0.2893
12312TIP3    H158351   1.826   4.281   0.712  0.1647  0.3382  1.3737
12312TIP3    H258352   1.710   4.187   0.734  0.6167 -0.4293  0.5327
12313TIP3   OH258353   4.690   3.604   0.517 -0.4506  0.6272 -0.3003
12313TIP3    H158354   4.699   3.699   0.528  0.0797  0.6103 -0.5574
12313TIP3    H258355   4.760   3.581   0.456  0.0613 -0.0796  0.5274
12314TIP3   OH258356   6.069   1.409  11.342  0.1711  0.1048 -0.0702
12314TIP3    H158357   6.077   1.390  11.248  3.6283 -0.2084  0.1563
12314TIP3    H258358   6.102   1.331  11.385  1.9335  1.5127  1.2643
12315TIP3   OH258359   6.923   0.813  10.781  0.1428  0.0540  0.0480
12315TIP3    H158360   6.922   0.729  10.735  1.4569 -0.5269  1.0370
12315TIP3    H258361   6.935   0.790  10.873  0.2296  1.3257  0.3695
12316TIP3   OH258362   6.070   3.912   0.034 -0.0039  0.2081 -0.2405
12316TIP3    H158363   5.995   3.897  -0.023  0.8381 -0.1569 -1.2954
12316TIP3    H258364   6.050   3.994   0.078 -0.1024  1.2600 -2.1134
12317TIP3   OH258365   6.233   6.953  13.528  0.5940 -0.2837 -0.1310
12317TIP3    H158366   6.235   7.044  13.556 -2.1184  1.1622 -3.8057
12317TIP3    H258367   6.289   6.949  13.451 -0.2162 -1.3886 -0.7058
12318TIP3   OH258368   6.262   2.516   2.164 -0.2357  0.2483 -0.0624
12318TIP3    H158369   6.195   2.465   2.118 -3.6324  0.4286  4.0444
12318TIP3    H258370   6.327   2.452   2.192 -1.1620 -0.7813 -0.2122
12319TIP3   OH258371   6.807   7.059  13.422 -0.1482 -0.0984 -0.5172
12319TIP3    H158372   6.731   7.108  13.454  0.8803  0.9817  0.3806
12319TIP3    H258373   6.782   6.967  13.431 -0.7223  0.2069  1.4296
12320TIP3   OH258374   0.477   0.660   0.892  0.0409 -0.2879  0.7369
12320TIP3    H158375   0.393   0.638   0.933 -0.3025 -1.7078 -0.6045
12320TIP3    H258376   0.458   0.739   0.840 -0.7912 -1.1946 -0.4001
12321TIP3   OH258377   6.785   6.038   1.362 -0.0683 -0.2130 -0.1399
12321TIP3    H158378   6.777   6.022   1.268 -1.7281 -0.5213  0.0235
12321TIP3    H258379   6.867   6.088   1.371  0.3375 -0.5354 -1.6842
12322TIP3   OH258380   6.030   5.767  12.469 -0.5183 -0.1233 -0.3849
12322TIP3    H158381   6.118   5.796  12.494 -1.0717  0.6079  0.7452
12322TIP3    H258382   6.031   5.672  12.483 -0.6821  0.1823  2.1670
12323TIP3   OH258383   2.223   5.388   4.405  0.0214  0.0209  0.3683
12323TIP3    H158384   2.138   5.430   4.418 -0.4079 -0.1937 -1.4444
12323TIP3    H258385   2.218   5.308   4.458 -1.4309 -0.6280 -0.6764
12324TIP3   OH258386   3.167   5.626   4.498  0.6399 -0.6158 -0.4125
12324TIP3    H158387   3.210   5.606   4.581  1.3525  0.7568 -0.4394
12324TIP3    H258388   3.238   5.642   4.436  0.1050 -0.1343 -0.9180
12325TIP3   OH258389   2.761   0.103  13.957  0.0910 -0.0170  0.0145
12325TIP3    H158390   2.770   0.198  13.955  0.9955 -0.0402  1.5844
12325TIP3    H258391   2.851   0.070  13.951 -0.3103 -0.8574 -2.2846
12326TIP3   OH258392   1.264   5.724  14.028 -0.1797  0.0735  1.0020
12326TIP3    H158393   1.277   5.775  14.107  0.0875  0.7204  0.5470
12326TIP3    H258394   1.264   5.788  13.957 -2.8489 -0.1657  0.6716
12327TIP3   OH258395   6.576   0.143  11.421  0.6674 -0.6540 -0.2538
12327TIP3    H158396   6.631   0.166  11.346  0.6796 -0.3917 -0.1644
12327TIP3    H258397   6.637   0.136  11.494  0.3300  2.1077  0.4061
12328TIP3   OH258398   3.051   3.874   1.790 -0.1221  0.2124 -0.8699
12328TIP3    H158399   3.082   3.943   1.849 -1.3710  0.1942 -0.1522
12328TIP3    H258400   2.994   3.820   1.844 -1.3041  0.1810 -2.0803
12329TIP3   OH258401   7.188   3.715   4.762 -0.1126 -0.0409 -0.1041
12329TIP3    H158402   7.133   3.698   4.685  1.5676 -0.3921 -1.2864
12329TIP3    H258403   7.214   3.627   4.792 -2.3255 -0.0533  2.1615
12330TIP3   OH258404   5.458   1.449  15.010  0.6604 -0.3561 -0.3242
12330TIP3    H158405   5.370   1.411  15.008  0.1761  0.6906  0.0183
12330TIP3    H258406   5.481   1.451  15.103  0.2679  1.0152 -0.2272
12331TIP3   OH258407   5.787   5.470   1.299  0.1667 -0.0381  0.0896
12331TIP3    H158408   5.754   5.386   1.269  1.2179 -0.3192 -0.3119
12331TIP3    H258409   5.882   5.460   1.301  0.4005  1.4931 -1.0564
12332TIP3   OH258410   2.213   4.106   2.486 -0.5508 -0.3600 -0.4855
12332TIP3    H158411   2.134   4.101   2.539  1.0618 -0.3615  2.1562
12332TIP3    H258412   2.218   4.197   2.458 -0.7363  0.0226  0.6713
12333TIP3   OH258413   5.638   6.975  10.443  0.4427  0.2181  0.1062
12333TIP3    H158414   5.683   6.891  10.433  1.2126  0.6797 -0.4459
12333TIP3    H258415   5.646   6.995  10.536  3.7910  1.5454 -0.3275
12334TIP3   OH258416   7.129   3.070  14.465 -0.2754 -0.3491 -0.8671
12334TIP3    H158417   7.130   3.166  14.465 -1.6993 -0.2863  0.2121
12334TIP3    H258418   7.210   3.045  14.509  0.2367  0.3405 -1.3932
12335TIP3   OH258419   3.415   1.734  12.449 -0.1674 -0.0349  0.4575
12335TIP3    H158420   3.395   1.827  12.453 -1.1206 -0.2706  2.3174
12335TIP3    H258421   3.489   1.728  12.389  0.3787  1.9986  0.8487
12336TIP3   OH258422   5.521   3.738   0.502  0.3046 -0.1163  0.1921
12336TIP3    H158423   5.474   3.775   0.576  0.5499  0.4828  0.0554
12336TIP3    H258424   5.522   3.807   0.436  0.8006 -0.3482 -0.0563
12337TIP3   OH258425   6.341   1.432  14.281 -0.0566  0.5182 -0.7892
12337TIP3    H158426   6.301   1.473  14.358 -0.9709  1.0725 -1.5308
12337TIP3    H258427   6.276   1.369  14.251  0.8747 -0.6919 -0.3224
12338TIP3   OH258428   3.580   3.601   9.579 -0.0889  0.4824 -0.0634
12338TIP3    H158429   3.591   3.510   9.551  2.1153  0.2083  1.5008
12338TIP3    H258430   3.651   3.648   9.536 -0.6283  1.2958 -0.0855
12339TIP3   OH258431   2.481   2.629   0.616 -0.3548  0.2760 -0.0126
12339TIP3    H158432   2.536   2.691   0.568 -0.9835  1.9198  1.2643
12339TIP3    H258433   2.395   2.637   0.575 -0.3410 -0.0561 -0.1054
12340TIP3   OH258434   1.110   1.043  13.583  0.7870 -0.3960 -0.3066
12340TIP3    H158435   1.151   0.966  13.622  1.7435  0.5446  0.6325
12340TIP3    H258436   1.021   1.043  13.619  0.2080 -1.9122 -1.5898
12341TIP3   OH258437   1.218   4.068   3.569  0.8281  0.3861  0.4959
12341TIP3    H158438   1.265   4.148   3.544  2.0339 -0.8439 -1.4224
12341TIP3    H258439   1.134   4.075   3.524  0.1982  1.3329  1.7466
12342TIP3   OH258440   6.164   1.087  11.052 -0.4817  0.1293 -0.6551
12342TIP3    H158441   6.094   1.034  11.089  0.4423 -0.1200  0.8251
12342TIP3    H258442   6.244   1.038  11.073  0.1932  0.8323 -1.5427
12343TIP3   OH258443   2.063   2.970   1.121 -0.7936  0.0663 -0.2375
12343TIP3    H158444   2.017   3.044   1.160 -1.1324  0.7743 -1.9229
12343TIP3    H258445   2.019   2.893   1.158 -0.3558  0.6513  1.6248
12344TIP3   OH258446   1.240   4.962   0.973  0.9460 -0.1694 -0.3779
12344TIP3    H158447   1.330   4.982   0.949  1.2515 -0.2600  0.6401
12344TIP3    H258448   1.226   5.008   1.056  0.4691 -1.1750  0.1283
12345TIP3   OH258449   4.346   4.594   4.563 -0.7383  0.3200 -0.2966
12345TIP3    H158450   4.359   4.660   4.495  2.2069 -2.0814 -2.3375
12345TIP3    H258451   4.402   4.622   4.636  1.1876 -0.1961 -1.4888
12346TIP3   OH258452   4.837   3.401  10.585  0.1283 -0.2147  0.1802
12346TIP3    H158453   4.752   3.434  10.615  0.7958 -0.0728  2.0364
12346TIP3    H258454   4.828   3.395  10.490 -1.6721  0.6051  0.2565
12347TIP3   OH258455   2.346   2.846   3.383  0.2243 -0.1687 -0.0265
12347TIP3    H158456   2.368   2.939   3.391  0.6960 -0.3129  0.3926
12347TIP3    H258457   2.274   2.844   3.320 -0.2429  0.5439  0.4638
12348TIP3   OH258458   3.693   4.707   2.381 -0.7328  0.0255 -0.2267
12348TIP3    H158459   3.743   4.728   2.302 -0.7811 -0.6765 -0.4477
12348TIP3    H258460   3.738   4.755   2.451 -0.5656  0.4814 -0.6389
12349TIP3   OH258461   4.770   1.402   1.721 -0.1564  0.8541 -0.3899
12349TIP3    H158462   4.676   1.418   1.727 -0.1871  0.4054  0.6383
12349TIP3    H258463   4.780   1.311   1.748  0.7238  1.3793  1.2024
12350TIP3   OH258464   1.617   6.834  11.041 -0.1970 -0.2115  0.2530
12350TIP3    H158465   1.581   6.913  11.082  1.3288 -0.7498  2.8827
12350TIP3    H258466   1.712   6.845  11.046  0.0462 -1.8997  0.0744
12351TIP3   OH258467   1.418   6.303   9.512 -0.3854  0.4372  0.5881
12351TIP3    H158468   1.383   6.220   9.545  0.0162  0.4827  1.1438
12351TIP3    H258469   1.391   6.306   9.420  1.1129 -1.1793  0.0289
12352TIP3   OH258470   5.234   5.956  10.813  0.3043  0.1856 -0.1761
12352TIP3    H158471   5.324   5.948  10.781  0.2232  0.5427 -0.5022
12352TIP3    H258472   5.181   5.969  10.734 -0.4210 -2.8039 -0.3262
12353TIP3   OH258473   2.187   6.210   1.842  0.0500 -0.5829  0.0529
12353TIP3    H158474   2.112   6.220   1.783 -1.8071 -0.7920  2.2430
12353TIP3    H258475   2.225   6.297   1.847  0.1002 -0.5048 -1.2111
12354TIP3   OH258476   2.192   4.866   3.347  0.3625 -0.4125 -0.4698
12354TIP3    H158477   2.210   4.940   3.288  0.5711 -0.9012 -1.0340
12354TIP3    H258478   2.278   4.825   3.360  0.4243  0.0624  0.6918
12355TIP3   OH258479   1.261   2.491  15.329  0.0492 -0.1619  0.6187
12355TIP3    H158480   1.325   2.478  15.260 -2.2794  0.0260 -1.7549
12355TIP3    H258481   1.275   2.417  15.389  2.0636 -0.4078 -0.0823
12356TIP3   OH258482   4.605   0.085  14.339 -0.2556  0.1807  0.4196
12356TIP3    H158483   4.560   0.001  14.328 -0.4264  0.1226  1.4464
12356TIP3    H258484   4.691   0.071  14.299 -0.5127 -0.2805  0.0214
12357TIP3   OH258485   0.262   2.444   5.033 -0.0191  0.6650  0.3413
12357TIP3    H158486   0.280   2.351   5.022 -0.6154  0.6885 -0.9464
12357TIP3    H258487   0.335   2.477   5.084 -0.4733 -0.7683  2.0185
12358TIP3   OH258488   4.249   3.178  12.571 -0.3180  0.2361 -0.0054
12358TIP3    H158489   4.312   3.177  12.642 -1.0522 -1.6628  0.6736
12358TIP3    H258490   4.278   3.109  12.512 -0.9070  0.3805 -0.4773
12359TIP3   OH258491   4.706   0.561   0.443 -0.3328 -0.3546 -0.5516
12359TIP3    H158492   4.623   0.590   0.405 -0.7752 -0.1032  0.5579
12359TIP3    H258493   4.726   0.478   0.398 -1.6014 -0.8379 -0.2649
12360TIP3   OH258494   2.464   4.159   1.960 -0.6319  0.8836  0.1080
12360TIP3    H158495   2.509   4.154   1.875 -2.8827 -0.7006 -1.0820
12360TIP3    H258496   2.503   4.089   2.012 -0.9304  0.2497 -0.5064
12361TIP3   OH258497   4.535   0.325   2.166  0.4203  0.4349  0.1690
12361TIP3    H158498   4.628   0.329   2.145  0.2187  0.8303 -0.6607
12361TIP3    H258499   4.493   0.297   2.085 -0.1984  0.3617  0.5105
12362TIP3   OH258500   6.548   2.590   4.802 -0.2994  0.0669  0.0057
12362TIP3    H158501   6.565   2.674   4.759 -1.0015  1.5436  2.4497
12362TIP3    H258502   6.599   2.594   4.883 -0.0550 -2.0721  0.0167
12363TIP3   OH258503   1.747   0.987   2.313 -0.1343  0.3767  0.7128
12363TIP3    H158504   1.712   0.901   2.337  0.8534 -0.3201 -0.2468
12363TIP3    H258505   1.746   0.988   2.217  1.9064  0.5397  0.6519
12364TIP3   OH258506   1.986   2.688   2.106 -0.1513  0.3753 -0.7091
12364TIP3    H158507   1.895   2.711   2.122 -0.8240 -1.2182 -1.9291
12364TIP3    H258508   2.036   2.745   2.163 -1.9976 -0.0292  1.4402
12365TIP3   OH258509   4.626   4.624  10.411  0.0735 -0.5033  0.2138
12365TIP3    H158510   4.686   4.580  10.351  0.5316  1.0925 -0.5474
12365TIP3    H258511   4.549   4.567  10.414  1.0865 -1.9334  0.1933
12366TIP3   OH258512   3.468   0.732  12.903 -0.2653  0.1024  0.1299
12366TIP3    H158513   3.555   0.694  12.911 -0.3154  0.0364  0.3739
12366TIP3    H258514   3.420   0.671  12.848  0.0927  0.5739 -0.7256
12367TIP3   OH258515   0.613   3.039  12.803 -0.5213 -0.4994 -0.1802
12367TIP3    H158516   0.536   3.007  12.850  0.1644 -0.7308  0.8083
12367TIP3    H258517   0.641   3.115  12.852 -0.2230 -0.3071 -0.6473
12368TIP3   OH258518   5.179   0.939  12.874  0.2489  0.2943  0.2570
12368TIP3    H158519   5.136   0.864  12.833  0.9197  0.6038 -1.0620
12368TIP3    H258520   5.109   0.985  12.920 -0.5765  0.0273 -0.7008
12369TIP3   OH258521   2.334   5.219  10.836 -0.1667  0.4212  0.2338
12369TIP3    H158522   2.329   5.162  10.759  0.7449  1.1337 -0.3628
12369TIP3    H258523   2.242   5.242  10.854 -0.5911 -1.5422  0.7429
12370TIP3   OH258524   2.112   1.685  14.112 -0.5819 -0.7105  0.4879
12370TIP3    H158525   2.038   1.676  14.172 -1.2738  0.8107 -0.0738
12370TIP3    H258526   2.102   1.612  14.051 -1.4398 -0.7238  0.6236
12371TIP3   OH258527   3.928   4.891  15.243 -0.1177 -0.0818 -0.0648
12371TIP3    H158528   4.019   4.879  15.214 -0.1721 -0.6223 -0.0282
12371TIP3    H258529   3.896   4.964  15.190 -0.0319 -0.6712 -0.9629
12372TIP3   OH258530   3.638   5.270   3.755 -0.7938  0.0660  0.2421
12372TIP3    H158531   3.622   5.360   3.782  0.9200  0.5590 -0.2607
12372TIP3    H258532   3.659   5.276   3.662  0.1448 -0.7300  0.3851
12373TIP3   OH258533   3.199   6.831  12.743  0.1736 -0.1420  0.3521
12373TIP3    H158534   3.182   6.780  12.823  1.0685 -2.7575 -1.0198
12373TIP3    H258535   3.277   6.790  12.705  1.7197  3.0921 -0.2764
12374TIP3   OH258536   4.007   6.535   4.435 -0.2438  0.2247  0.6037
12374TIP3    H158537   3.949   6.510   4.506 -1.0859  2.3598  0.7306
12374TIP3    H258538   4.089   6.488   4.453 -0.6753  0.1502  2.5465
12375TIP3   OH258539   4.148   6.190  12.776  0.3339 -0.2651 -0.0640
12375TIP3    H158540   4.151   6.120  12.710 -1.3378  0.4551 -0.9635
12375TIP3    H258541   4.114   6.147  12.855 -0.0037 -0.6196 -0.3962
12376TIP3   OH258542   4.956   2.066  13.071 -0.3018  0.0144 -0.2022
12376TIP3    H158543   4.900   1.996  13.103 -1.9405  1.2170 -0.3336
12376TIP3    H258544   5.025   2.021  13.022 -0.5875 -1.5498  0.7722
12377TIP3   OH258545   6.758   3.347  15.068 -0.4030  0.2897 -0.1203
12377TIP3    H158546   6.687   3.394  15.026  1.2314  1.2741 -1.9116
12377TIP3    H258547   6.722   3.260  15.087 -2.1945  0.9137 -0.5337
12378TIP3   OH258548   0.201   2.115   0.064 -0.8855 -0.1054  0.5866
12378TIP3    H158549   0.255   2.195   0.067 -0.3634 -0.3362 -1.3720
12378TIP3    H258550   0.114   2.144   0.090 -0.5670  0.9952  0.4832
12379TIP3   OH258551   1.019   4.380   5.379  0.4357  0.0643 -0.0614
12379TIP3    H158552   1.073   4.458   5.391 -0.6222  0.5508  1.9012
12379TIP3    H258553   0.986   4.359   5.466 -0.8680 -1.4433 -0.8568
12380TIP3   OH258554   5.599   5.764  15.319 -0.0633 -0.0558 -0.2784
12380TIP3    H158555   5.686   5.733  15.295 -0.3929 -1.2549  0.0453
12380TIP3    H258556   5.557   5.782  15.235  0.4817  0.5314 -0.4359
12381TIP3   OH258557   0.019   6.422   2.626  0.0215 -0.6453 -0.4807
12381TIP3    H158558   0.014   6.385   2.714 -0.4919  1.0112  0.2346
12381TIP3    H258559   0.110   6.413   2.601  0.4636  0.0067  0.7785
12382TIP3   OH258560   4.121   0.363  14.374  0.0009 -0.3395 -0.0012
12382TIP3    H158561   4.211   0.333  14.391  0.2358 -0.5790 -1.5065
12382TIP3    H258562   4.132   0.442  14.321 -0.6766  0.1555  0.5832
12383TIP3   OH258563   2.371   7.040   0.471  0.1234  0.5123 -0.6237
12383TIP3    H158564   2.462   7.029   0.443  0.1123 -0.2316 -0.4078
12383TIP3    H258565   2.322   6.978   0.417  0.1846 -1.4223  1.3985
12384TIP3   OH258566   6.363   6.148   1.760 -0.1832 -0.3928 -0.1486
12384TIP3    H158567   6.418   6.165   1.683  1.4624 -0.7588  0.8776
12384TIP3    H258568   6.425   6.120   1.827 -1.4805  0.5878  1.5337
12385TIP3   OH258569   4.408   6.672  11.579 -0.4361 -0.3802 -0.2456
12385TIP3    H158570   4.459   6.671  11.498  0.1683  0.0893  0.1151
12385TIP3    H258571   4.460   6.620  11.641  1.4008  2.7844  1.1300
12386TIP3   OH258572   3.857   4.962   3.838  0.3611  0.0807 -0.3299
12386TIP3    H158573   3.893   4.946   3.751  0.6547 -1.5806  0.0670
12386TIP3    H258574   3.763   4.961   3.826  0.3174 -2.6469 -0.2886
12387TIP3   OH258575   1.943   1.779  13.798  0.5117 -0.0794 -0.5203
12387TIP3    H158576   1.866   1.794  13.742 -0.8181  0.0605  1.2661
12387TIP3    H258577   1.925   1.695  13.841  1.2163  0.1035  0.1510
12388TIP3   OH258578   1.863   2.558   0.514 -0.2083  0.1920  0.1964
12388TIP3    H158579   1.783   2.593   0.474  0.5579  2.1954  0.2664
12388TIP3    H258580   1.919   2.635   0.526  1.6433 -1.1070  0.3793
12389TIP3   OH258581   0.117   1.456   0.798  0.0245 -0.1111 -0.3593
12389TIP3    H158582   0.165   1.531   0.764  0.2954 -0.0090  0.2253
12389TIP3    H258583   0.039   1.450   0.743  1.1240 -0.8300 -1.9163
12390TIP3   OH258584   3.839   5.213   2.272  0.3292 -0.1167 -0.3771
12390TIP3    H158585   3.909   5.167   2.319 -1.2678 -1.2522  1.0271
12390TIP3    H258586   3.772   5.228   2.339 -0.6668  1.1908 -1.6154
12391TIP3   OH258587   6.577   3.759  14.200  0.3231  0.4631  0.5686
12391TIP3    H158588   6.651   3.699  14.206  0.9058  1.0162 -0.7119
12391TIP3    H258589   6.544   3.748  14.111 -1.5554 -0.2152  1.2913
12392TIP3   OH258590   0.887   4.039   0.586 -0.0172 -0.0168 -0.6118
12392TIP3    H158591   0.838   3.957   0.571 -0.3236  0.0734 -0.1207
12392TIP3    H258592   0.978   4.016   0.567  0.3572 -1.2736  2.2711
12393TIP3   OH258593   1.683   4.695   1.752 -0.2527 -0.4755  0.2816
12393TIP3    H158594   1.690   4.633   1.824  0.5128 -0.3032  0.3649
12393TIP3    H258595   1.680   4.781   1.794 -0.0303 -0.3862  0.1158
12394TIP3   OH258596   4.449   2.777  11.928 -0.1214 -0.2055 -0.1247
12394TIP3    H158597   4.501   2.833  11.871 -1.5545  0.9317 -0.3774
12394TIP3    H258598   4.378   2.744  11.872 -2.4108  2.0910  1.1861
12395TIP3   OH258599   5.025   7.023  14.399 -0.5152 -0.0131  0.6321
12395TIP3    H158600   5.101   6.964  14.397 -0.1763  0.4152  0.5537
12395TIP3    H258601   4.997   7.029  14.308 -0.8381 -0.4102  0.7007
12396TIP3   OH258602   1.726   4.626  13.744  0.9190 -0.0282  0.0999
12396TIP3    H158603   1.665   4.556  13.768 -0.1341  1.4096  1.8088
12396TIP3    H258604   1.671   4.695  13.709  1.5636  1.2556  1.5402
12397TIP3   OH258605   0.503   5.530   0.344  0.5294 -0.4284  0.4451
12397TIP3    H158606   0.569   5.562   0.282 -3.3647  5.2824 -1.6073
12397TIP3    H258607   0.440   5.482   0.289 -0.8183  0.9859  0.6885
12398TIP3   OH258608   4.734   3.122   0.901  0.7101  0.2498  0.0787
12398TIP3    H158609   4.677   3.145   0.974  0.8114 -0.0715  0.2626
12398TIP3    H258610   4.796   3.194   0.895  0.0297  0.8100 -0.3923
12399TIP3   OH258611   4.479   1.879   2.869  0.0541  0.0810  0.0041
12399TIP3    H158612   4.459   1.941   2.799  0.1609  1.4093  1.1139
12399TIP3    H258613   4.398   1.876   2.921 -0.0077 -0.8553 -0.1330
12400TIP3   OH258614   2.882   6.022   0.816 -0.4215  0.5890 -0.4065
12400TIP3    H158615   2.946   5.989   0.879  0.1261 -0.8272 -1.6232
12400TIP3    H258616   2.912   6.110   0.795  0.3620  0.4432  0.0511
12401TIP3   OH258617   4.666   0.406  14.176  0.1885 -0.1667  0.7535
12401TIP3    H158618   4.675   0.375  14.267  0.1003  1.4355  1.3363
12401TIP3    H258619   4.575   0.389  14.153 -0.5272  1.7660  1.9201
12402TIP3   OH258620   5.260   5.839   0.452  0.1565  0.0275 -0.4710
12402TIP3    H158621   5.310   5.768   0.412 -0.9252 -1.4268  0.6824
12402TIP3    H258622   5.172   5.805   0.461  0.0396  0.7746  1.8905
12403TIP3   OH258623   6.193   5.466   4.902  0.0581 -0.5975 -0.0502
12403TIP3    H158624   6.233   5.513   4.829 -0.7326 -0.8567 -0.6687
12403TIP3    H258625   6.251   5.483   4.976 -0.4641  1.8309 -0.0869
12404TIP3   OH258626   5.512   5.328  14.149  0.5871 -0.1256 -0.3534
12404TIP3    H158627   5.429   5.312  14.104 -0.0212 -1.5474  1.1402
12404TIP3    H258628   5.570   5.259  14.117  0.1751 -1.0948  0.8816
12405TIP3   OH258629   3.988   5.649   1.950  0.2670  0.0074  0.4862
12405TIP3    H158630   4.016   5.660   2.040 -0.4505 -1.5588  0.9332
12405TIP3    H258631   3.932   5.725   1.933  1.4160  0.9781  0.9162
12406TIP3   OH258632   7.074   3.791   5.145  0.3819  0.0710 -0.1828
12406TIP3    H158633   7.166   3.781   5.123  1.0701  0.5807  2.2254
12406TIP3    H258634   7.073   3.843   5.225 -2.0126  0.1941 -0.2001
12407TIP3   OH258635   2.881   3.762   5.065  0.3896 -0.3571 -1.2920
12407TIP3    H158636   2.837   3.678   5.070 -0.8272  0.3109 -0.4243
12407TIP3    H258637   2.949   3.758   5.133 -1.2546  0.2215  0.4727
12408TIP3   OH258638   4.676   5.077   4.830  0.3761 -0.0701  0.3687
12408TIP3    H158639   4.711   4.990   4.811  0.8464  0.1817  0.0837
12408TIP3    H258640   4.751   5.127   4.861  0.1311  0.2725  0.4091
12409TIP3   OH258641   1.922   1.298   3.322 -0.4363 -0.0138  0.1109
12409TIP3    H158642   1.865   1.332   3.391 -1.2536 -0.9676 -0.0545
12409TIP3    H258643   1.885   1.333   3.241  0.7439  1.4067  0.1545
12410TIP3   OH258644   3.708   6.012   0.254 -0.3335  0.4027  0.2597
12410TIP3    H158645   3.743   6.101   0.247 -0.3570  0.4376  0.5744
12410TIP3    H258646   3.687   5.987   0.164  0.5487  0.3672  0.0549
12411TIP3   OH258647   4.420   2.140  12.378  0.1848  0.3115 -0.4801
12411TIP3    H158648   4.491   2.132  12.314 -1.4061 -0.8465 -2.2257
12411TIP3    H258649   4.389   2.230  12.369  0.2056  0.2598 -1.1202
12412TIP3   OH258650   2.912   0.759   3.126  0.0217 -0.0559  0.4881
12412TIP3    H158651   2.948   0.838   3.085 -0.4858 -0.4095 -0.6799
12412TIP3    H258652   2.913   0.693   3.056 -0.7758 -0.7130  1.0729
12413TIP3   OH258653   1.648   6.884  14.978 -0.0829 -0.0767 -0.5537
12413TIP3    H158654   1.692   6.816  15.029  0.7093  0.5747 -0.3348
12413TIP3    H258655   1.555   6.864  14.985 -0.2606  1.2846  3.1144
12414TIP3   OH258656   0.840   2.638   1.658 -0.1672  0.1473 -0.1241
12414TIP3    H158657   0.872   2.701   1.593  0.3642  0.4132  0.3808
12414TIP3    H258658   0.916   2.621   1.714 -0.7173  0.2650  0.6894
12415TIP3   OH258659   0.396   4.267   0.672 -0.2936  0.0042  0.9006
12415TIP3    H158660   0.468   4.209   0.644 -0.6275  0.8014 -1.9303
12415TIP3    H258661   0.363   4.226   0.752  0.5227 -2.8289 -0.0761
12416TIP3   OH258662   0.871   2.161   1.636  0.2228  0.0543 -0.2971
12416TIP3    H158663   0.943   2.196   1.584 -0.3844 -0.8102 -1.7859
12416TIP3    H258664   0.807   2.130   1.572 -0.5805 -1.0479  0.9631
12417TIP3   OH258665   3.227   2.471   3.731  0.1369  0.2835 -0.2747
12417TIP3    H158666   3.170   2.537   3.771 -0.1743  0.8838 -1.6640
12417TIP3    H258667   3.306   2.520   3.706 -0.3904  0.3179 -1.9829
12418TIP3   OH258668   3.467   3.698  14.636 -0.0858 -0.6415 -0.2594
12418TIP3    H158669   3.533   3.760  14.606 -1.9665  0.5074 -2.2997
12418TIP3    H258670   3.492   3.678  14.726  0.2962  3.5610  0.7598
12419TIP3   OH258671   3.338   6.816  13.399  0.3600 -0.2034  0.4151
12419TIP3    H158672   3.260   6.869  13.381  1.0633  0.3760 -1.1680
12419TIP3    H258673   3.311   6.727  13.377  0.1719  0.0196 -0.3115
12420TIP3   OH258674   2.372   5.855   0.891  0.1019 -0.4185 -0.2429
12420TIP3    H158675   2.467   5.854   0.875  0.0734 -0.7466 -0.4134
12420TIP3    H258676   2.345   5.764   0.878 -0.1137 -0.4832  0.5854
12421TIP3   OH258677   3.722   6.317   1.649  0.2972  0.2261 -0.1697
12421TIP3    H158678   3.684   6.329   1.562  0.3082  2.7247  0.0992
12421TIP3    H258679   3.811   6.351   1.642  0.0455  1.2030  0.9786
12422TIP3   OH258680   5.699   4.350  15.271 -0.1583 -0.4104 -0.6438
12422TIP3    H158681   5.719   4.411  15.199 -0.8889 -0.0634 -0.5642
12422TIP3    H258682   5.610   4.373  15.297  0.6795  0.6487  1.5545
12423TIP3   OH258683   4.324   2.227   5.423  0.6262  0.2699 -0.2828
12423TIP3    H158684   4.290   2.315   5.441 -1.2280 -0.4463 -0.0294
12423TIP3    H258685   4.325   2.184   5.509  1.5745  0.0554 -0.3950
12424TIP3   OH258686   3.133   3.787  14.498  0.2587 -0.1674 -0.3232
12424TIP3    H158687   3.040   3.766  14.510  0.0590  0.9368  0.2388
12424TIP3    H258688   3.163   3.726  14.431 -0.0738 -2.7172  1.6974
12425TIP3   OH258689   0.652   4.146   2.621 -0.1713  0.0369 -0.4415
12425TIP3    H158690   0.633   4.062   2.579 -0.1005 -0.5720  0.6894
12425TIP3    H258691   0.747   4.144   2.636 -0.1138  0.4829 -0.7588
12426TIP3   OH258692   0.571   4.901  13.541  0.3494 -0.4327 -0.1506
12426TIP3    H158693   0.631   4.840  13.584  0.6144  0.1364  0.2935
12426TIP3    H258694   0.594   4.987  13.576 -0.4523 -0.1551 -0.2814
12427TIP3   OH258695   3.081   1.957  15.047 -0.4119 -0.4675  0.2060
12427TIP3    H158696   3.124   1.918  15.124  1.5723 -0.1127 -0.6494
12427TIP3    H258697   2.988   1.951  15.066  0.0089 -0.5095  2.5856
12428TIP3   OH258698   0.048   3.004   2.856 -0.3668  0.0447  0.4659
12428TIP3    H158699   0.101   3.073   2.815 -1.5634  1.4715  1.2148
12428TIP3    H258700   0.012   2.955   2.782  0.3998  0.2978 -0.0876
12429TIP3   OH258701   4.668   1.600   0.169 -0.1058  0.4829 -0.0310
12429TIP3    H158702   4.662   1.540   0.243 -1.7715 -1.9046 -1.9506
12429TIP3    H258703   4.759   1.596   0.141 -0.2737 -1.5855 -0.3937
12430TIP3   OH258704   3.120   3.351  13.033 -0.0026  0.5404  0.4508
12430TIP3    H158705   3.139   3.436  13.071 -1.1214  0.4458  1.2690
12430TIP3    H258706   3.067   3.370  12.955 -1.6212  0.5464  1.5214
12431TIP3   OH258707   5.956   3.490  14.436  0.1874  0.3419 -0.1298
12431TIP3    H158708   6.032   3.454  14.391 -0.7272  0.0795 -1.4969
12431TIP3    H258709   5.928   3.420  14.496 -1.3713 -1.2071 -2.5175
12432TIP3   OH258710   3.213   2.057   1.025  0.3333 -0.1264  0.3097
12432TIP3    H158711   3.180   2.077   0.937 -1.5504  1.7296  1.3484
12432TIP3    H258712   3.160   1.982   1.054 -0.8178  0.8253  0.7529
12433TIP3   OH258713   3.926   3.994   4.174  0.0984 -0.1491 -0.4354
12433TIP3    H158714   3.898   3.926   4.112  0.3974 -0.9130  0.2477
12433TIP3    H258715   4.022   3.993   4.169  0.2463 -1.6718  1.5026
12434TIP3   OH258716   2.217   7.055   1.971 -0.1560  0.3963 -0.2303
12434TIP3    H158717   2.177   7.098   2.046  1.8309  0.8105  0.6532
12434TIP3    H258718   2.285   6.999   2.008  0.8885  0.6150 -1.7122
12435TIP3   OH258719   1.774   5.584   4.395  0.7243  0.5565  0.1671
12435TIP3    H158720   1.847   5.598   4.455  0.7063 -1.6973  0.8069
12435TIP3    H258721   1.696   5.608   4.446  0.8413  0.5617  0.3424
12436TIP3   OH258722   6.328   6.670  11.856  0.0419  0.4002  0.3302
12436TIP3    H158723   6.237   6.699  11.863 -0.1008 -0.0784  0.5106
12436TIP3    H258724   6.351   6.686  11.765 -1.1797 -2.1602 -0.5170
12437TIP3   OH258725   2.891   5.127  11.974  0.6865  0.7409  0.1449
12437TIP3    H158726   2.857   5.201  11.923  0.0196 -0.0133 -0.5464
12437TIP3    H258727   2.824   5.111  12.041 -0.0764 -0.3462 -0.8251
12438TIP3   OH258728   1.710   2.455  11.330 -0.6469  0.2623 -0.1302
12438TIP3    H158729   1.802   2.476  11.318 -0.2372 -0.3549  1.6799
12438TIP3    H258730   1.707   2.405  11.412 -2.3582 -1.2325 -1.0247
12439TIP3   OH258731   3.114   5.997   2.267 -0.1925  0.4808  0.5048
12439TIP3    H158732   3.183   6.005   2.333  0.6321 -1.3918 -0.0416
12439TIP3    H258733   3.161   5.999   2.183 -0.8504 -0.1851  0.1015
12440TIP3   OH258734   3.242   4.780  15.184  0.5592 -0.4293 -0.3808
12440TIP3    H158735   3.184   4.754  15.112  1.0497 -1.5368 -0.4009
12440TIP3    H258736   3.330   4.779  15.146  0.6825  0.4276 -0.1354
12441TIP3   OH258737   3.245   6.078  13.685 -0.0394 -0.0952 -0.1356
12441TIP3    H158738   3.332   6.039  13.695  0.0599 -0.0542 -0.7505
12441TIP3    H258739   3.218   6.100  13.774  1.4322  1.7056 -0.0528
12442TIP3   OH258740   5.956   1.171   4.053  0.4871 -0.7681  0.0585
12442TIP3    H158741   6.013   1.096   4.040  0.1366 -0.7957 -1.4055
12442TIP3    H258742   5.868   1.138   4.037  0.4019  0.1303 -1.5594
12443TIP3   OH258743   2.965   2.786   1.358  0.3693 -0.8401 -0.1078
12443TIP3    H158744   2.886   2.776   1.306  1.1769 -0.2426 -1.5162
12443TIP3    H258745   2.992   2.697   1.380  1.5803 -1.3677 -3.2277
12444TIP3   OH258746   1.642   3.549  11.253  0.0812  0.1284 -0.3873
12444TIP3    H158747   1.591   3.479  11.210 -0.0399 -0.7903  1.1576
12444TIP3    H258748   1.642   3.621  11.190 -0.1061 -1.1277 -1.8966
12445TIP3   OH258749   6.730   1.789   3.822  0.8423  0.1343  0.5763
12445TIP3    H158750   6.756   1.699   3.841  1.0334  0.0067 -0.2610
12445TIP3    H258751   6.748   1.800   3.729 -1.0178  0.4233  0.2222
12446TIP3   OH258752   6.784   1.071   2.706 -0.1333 -0.2933 -0.1276
12446TIP3    H158753   6.821   1.071   2.618  0.5262 -0.2760  0.1389
12446TIP3    H258754   6.848   1.120   2.758  0.5051 -2.0076  0.7665
12447TIP3   OH258755   2.015   6.203  13.967 -0.2003  0.0210  0.0760
12447TIP3    H158756   2.027   6.253  13.886  0.6451  0.1124  0.2508
12447TIP3    H258757   2.081   6.237  14.026 -0.5679 -0.3089  0.6864
12448TIP3   OH258758   3.193   0.171   1.065  0.0581  0.1445  0.4496
12448TIP3    H158759   3.141   0.140   0.991  0.5218  1.1260 -0.3077
12448TIP3    H258760   3.263   0.106   1.074  0.8621  0.7875 -0.9354
12449TIP3   OH258761   2.062   4.038  15.272 -0.0293 -0.0798  0.0332
12449TIP3    H158762   2.036   4.069  15.358  0.5356  0.0852  0.1476
12449TIP3    H258763   2.044   3.944  15.274 -2.1420  0.2767 -0.4692
12450TIP3   OH258764   5.071   1.970   0.575  0.3353  0.2876 -0.4366
12450TIP3    H158765   5.071   2.057   0.616 -1.2309  0.0118  0.1975
12450TIP3    H258766   5.028   1.913   0.638 -0.7433 -0.4725 -1.8020
12451TIP3   OH258767   0.393   5.700  10.492 -0.5719 -0.2862  0.4551
12451TIP3    H158768   0.393   5.617  10.445  0.0854 -0.5658  0.9243
12451TIP3    H258769   0.359   5.677  10.579  0.5135 -0.2708  0.9014
12452TIP3   OH258770   5.242   1.452   2.322  0.3754 -0.3875  0.8580
12452TIP3    H158771   5.297   1.419   2.250  1.0822  2.1787  0.1309
12452TIP3    H258772   5.302   1.462   2.395  0.3606  0.1214  0.8015
12453TIP3   OH258773   2.113   7.054   9.683  0.4191  0.1189 -0.1070
12453TIP3    H158774   2.091   6.978   9.738  3.0052 -0.1982  0.6383
12453TIP3    H258775   2.031   7.102   9.674 -0.7786 -1.5136  1.3943
12454TIP3   OH258776   7.090   2.512  14.047  0.1958  0.1709 -0.5185
12454TIP3    H158777   7.004   2.512  14.089  1.2628  0.7015  1.7919
12454TIP3    H258778   7.152   2.523  14.118  2.1250  1.7901 -2.3205
12455TIP3   OH258779   6.342   1.282   2.396 -0.3574  1.1831  0.1243
12455TIP3    H158780   6.283   1.206   2.405  0.2035  0.9300  2.1064
12455TIP3    H258781   6.429   1.243   2.392 -0.1278  1.6902  0.2477
12456TIP3   OH258782   4.626   1.100   3.637 -0.0708  0.7909 -0.7832
12456TIP3    H158783   4.571   1.023   3.651  0.3190  0.1455 -2.4433
12456TIP3    H258784   4.672   1.112   3.720  0.0373 -0.9324 -0.5441
12457TIP3   OH258785   4.880   4.644   2.203 -0.0248 -0.0499 -0.3549
12457TIP3    H158786   4.806   4.704   2.206 -1.3650 -1.5441 -1.6852
12457TIP3    H258787   4.939   4.682   2.137 -0.4553  0.2259 -0.5820
12458TIP3   OH258788   3.526   3.539  11.260  0.3860  0.0968 -0.1422
12458TIP3    H158789   3.586   3.485  11.311  0.0682  0.2707  0.4213
12458TIP3    H258790   3.476   3.588  11.325 -0.6147 -0.3112 -0.5855
12459TIP3   OH258791   1.247   2.503  14.560  0.2582 -0.3715 -0.0521
12459TIP3    H158792   1.180   2.572  14.558  2.0012  1.6258  2.8262
12459TIP3    H258793   1.308   2.527  14.491  0.1226  0.1989  0.0170
12460TIP3   OH258794   1.758   1.177   3.695 -0.4755  0.0428 -0.4170
12460TIP3    H158795   1.703   1.165   3.617 -0.8182 -1.4360  0.0235
12460TIP3    H258796   1.800   1.093   3.708  0.7110  0.7041  0.1783
12461TIP3   OH258797   3.628   6.239   3.025 -0.1294 -0.0415  0.5201
12461TIP3    H158798   3.543   6.199   3.009 -1.0334  1.6976  0.7560
12461TIP3    H258799   3.643   6.229   3.119  1.3133 -2.8638  0.0931
12462TIP3   OH258800   6.979   1.839  14.490  0.1599  0.5718 -0.1907
12462TIP3    H158801   6.956   1.768  14.431 -0.3519  1.7493 -1.4861
12462TIP3    H258802   6.913   1.834  14.560 -0.0621 -0.0295 -0.4353
12463TIP3   OH258803   5.012   5.189  11.103 -0.1981 -0.2396  0.3454
12463TIP3    H158804   5.036   5.276  11.070  1.0625 -0.4643  0.6147
12463TIP3    H258805   5.011   5.199  11.198 -2.5924  0.0895  0.3518
12464TIP3   OH258806   4.747   4.590  11.252 -0.4501 -0.2689  0.2505
12464TIP3    H158807   4.718   4.679  11.237  0.7219  0.0088 -0.5614
12464TIP3    H258808   4.754   4.552  11.165  0.6632 -0.6045  0.4657
12465TIP3   OH258809   2.892   4.340   5.087 -0.6836  0.2285  0.2279
12465TIP3    H158810   2.919   4.376   5.171  2.7132 -0.0858 -0.5747
12465TIP3    H258811   2.894   4.245   5.099 -2.4096  0.1776  0.3481
12466TIP3   OH258812   4.356   0.371   4.428 -0.2211  0.3349 -0.2933
12466TIP3    H158813   4.363   0.448   4.371  0.3441  0.1417 -0.4929
12466TIP3    H258814   4.446   0.339   4.436 -0.3120  0.2573  0.5745
12467TIP3   OH258815   5.202   6.846   0.075  0.2420  0.4760 -0.1694
12467TIP3    H158816   5.168   6.757   0.066 -0.2553  0.7007 -0.6372
12467TIP3    H258817   5.296   6.835   0.085  0.1914 -0.1013 -0.2623
12468TIP3   OH258818   1.366   4.501   1.010 -0.2689  0.1886 -0.1717
12468TIP3    H158819   1.271   4.493   0.997 -0.4920  0.7038  1.0260
12468TIP3    H258820   1.380   4.476   1.101  0.6698  0.7374 -0.1563
12469TIP3   OH258821   2.702   7.083   5.168  0.5651  0.2095  0.0929
12469TIP3    H158822   2.698   7.056   5.260  1.5816  1.4756  0.5457
12469TIP3    H258823   2.793   7.067   5.142 -0.1981 -2.2064 -1.4186
12470TIP3   OH258824   2.385   4.815   1.675  0.0520 -0.2516  0.1227
12470TIP3    H158825   2.414   4.761   1.749  0.6151  1.3452  1.1016
12470TIP3    H258826   2.373   4.902   1.712 -0.6737  0.3569 -1.4647
12471TIP3   OH258827   6.769   2.451   4.076  0.0382  0.2296 -0.1808
12471TIP3    H158828   6.766   2.432   3.982  0.0246 -0.6038 -0.0224
12471TIP3    H258829   6.819   2.378   4.113 -0.1465  0.4380  0.4861
12472TIP3   OH258830   5.531   3.587  12.077  0.3737 -0.2803 -0.3892
12472TIP3    H158831   5.467   3.552  12.015 -1.1702 -0.5716  1.2759
12472TIP3    H258832   5.522   3.682  12.071 -1.1803 -0.3198  0.7131
12473TIP3   OH258833   0.836   6.321   1.032  0.4769 -0.7029  0.3382
12473TIP3    H158834   0.785   6.242   1.049 -0.4124 -0.2461 -0.1280
12473TIP3    H258835   0.783   6.392   1.068  0.2827 -0.1124 -1.0361
12474TIP3   OH258836   1.329   6.679  14.172  0.0552  0.4127 -0.3820
12474TIP3    H158837   1.343   6.769  14.201  0.6806  0.6793 -1.4517
12474TIP3    H258838   1.302   6.687  14.081  2.6093 -0.5294 -1.3350
12475TIP3   OH258839   0.097   2.959  14.218  0.2359  0.0601 -0.0949
12475TIP3    H158840   0.108   3.041  14.267 -0.6538  1.0899 -1.5525
12475TIP3    H258841   0.184   2.919  14.220  0.4930  0.6159  1.3373
12476TIP3   OH258842   1.988   3.216  14.981  0.5102  0.2255  0.7352
12476TIP3    H158843   1.954   3.220  15.070 -0.6216  0.7378  0.3007
12476TIP3    H258844   2.069   3.268  14.984 -0.0582  1.1097  1.2449
12477TIP3   OH258845   1.781   2.593  10.443  0.3681 -0.2433 -0.0210
12477TIP3    H158846   1.810   2.504  10.463  2.5236  0.5193  0.4666
12477TIP3    H258847   1.738   2.585  10.358 -0.6475 -1.9494  0.5928
12478TIP3   OH258848   0.162   6.817  13.070  0.5182  0.2228  0.0345
12478TIP3    H158849   0.251   6.839  13.097  1.0059  1.2101 -2.2052
12478TIP3    H258850   0.132   6.894  13.021 -1.1155 -0.5809 -0.2779
12479TIP3   OH258851   3.408   1.366   4.955  0.2244  0.1815 -0.1606
12479TIP3    H158852   3.493   1.327   4.938  0.1510 -0.7950  1.5241
12479TIP3    H258853   3.398   1.364   5.050 -0.9292  1.9212 -0.1773
12480TIP3   OH258854   3.482   1.413  10.779  0.2661  0.1653 -0.1059
12480TIP3    H158855   3.387   1.419  10.764 -0.1812 -3.9917 -0.1302
12480TIP3    H258856   3.494   1.439  10.870 -0.6716  1.7469 -0.3916
12481TIP3   OH258857   6.995   1.311   1.114 -0.1332 -0.5951 -0.1075
12481TIP3    H158858   6.999   1.259   1.194  0.0137 -0.7660 -0.2251
12481TIP3    H258859   6.906   1.300   1.083 -0.6259  0.6132  0.7900
12482TIP3   OH258860   3.105   2.950  14.839 -0.7754 -0.0457 -0.1738
12482TIP3    H158861   3.074   2.867  14.874 -0.0464 -0.3381 -0.2054
12482TIP3    H258862   3.181   2.927  14.786  0.3383  0.7795  0.9948
12483TIP3   OH258863   6.003   4.321   1.327  0.4246 -0.3099 -0.3684
12483TIP3    H158864   6.001   4.292   1.418  1.2035  1.6414  0.3232
12483TIP3    H258865   6.092   4.301   1.298  0.3131 -0.5259 -0.5660
12484TIP3   OH258866   1.421   6.951   1.456  0.5582 -0.5529 -0.2031
12484TIP3    H158867   1.383   6.927   1.540  0.4479  0.4732  0.0570
12484TIP3    H258868   1.367   7.025   1.426  2.0559  0.6447 -0.0314
12485TIP3   OH258869   2.076   0.640   2.383  0.1252  0.0403 -0.4489
12485TIP3    H158870   2.135   0.690   2.440  0.0374 -0.8542  0.4366
12485TIP3    H258871   1.991   0.647   2.424  0.1030 -0.8013 -0.3437
12486TIP3   OH258872   7.058   0.402   3.489 -0.2226  0.3513  0.0147
12486TIP3    H158873   7.023   0.390   3.577 -0.2854  0.5451  0.0168
12486TIP3    H258874   7.016   0.483   3.458  0.9769  1.1525  0.3923
12487TIP3   OH258875   4.473   0.980  14.900 -0.6895  0.8343 -0.3000
12487TIP3    H158876   4.527   0.998  14.823  0.3877 -0.5906  0.0736
12487TIP3    H258877   4.440   0.891  14.886 -0.6617  0.6390  0.7624
12488TIP3   OH258878   3.929   0.061   3.648  0.0960 -0.0481  0.3666
12488TIP3    H158879   3.963   0.030   3.564 -0.5563 -0.5846  0.2957
12488TIP3    H258880   4.001   0.045   3.710  0.5908  0.3836 -0.0934
12489TIP3   OH258881   3.613   4.184  12.359 -0.1489  0.2868 -0.0359
12489TIP3    H158882   3.682   4.156  12.418 -0.9626 -1.4121  0.1563
12489TIP3    H258883   3.624   4.131  12.280  1.8754  3.5679 -2.2000
12490TIP3   OH258884   0.545   4.248   1.546  0.6116 -0.1589  0.1046
12490TIP3    H158885   0.564   4.258   1.453 -0.4634 -0.6752 -0.1886
12490TIP3    H258886   0.623   4.282   1.590  0.6819  1.1568 -0.9509
12491TIP3   OH258887   3.144   1.822  14.757 -0.0592 -0.0576  0.7786
12491TIP3    H158888   3.080   1.751  14.750 -0.1179 -0.2117  2.5344
12491TIP3    H258889   3.167   1.825  14.850  4.9970 -2.2162 -0.0776
12492TIP3   OH258890   1.177   1.518  14.572  0.0541 -0.2717 -0.1728
12492TIP3    H158891   1.137   1.598  14.540 -0.3783 -0.5484 -0.3416
12492TIP3    H258892   1.182   1.530  14.667  0.9091  0.3554 -0.2842
12493TIP3   OH258893   6.731   1.388  11.771  0.0805 -0.7633 -0.8830
12493TIP3    H158894   6.753   1.459  11.832 -0.3929  0.8062 -2.4705
12493TIP3    H258895   6.780   1.408  11.692  0.4101 -2.5797 -1.1909
12494TIP3   OH258896   4.492   4.228   2.004  0.0309  1.1485 -0.0991
12494TIP3    H158897   4.584   4.209   1.992  0.1530  1.3332  0.5106
12494TIP3    H258898   4.446   4.158   1.958  0.4644 -0.0327  1.2126
12495TIP3   OH258899   4.323   2.116   4.863 -0.2401  0.1412  0.2783
12495TIP3    H158900   4.410   2.095   4.827  0.0804 -0.5966  1.4219
12495TIP3    H258901   4.337   2.119   4.958 -1.3113  0.8114  0.4285
12496TIP3   OH258902   4.944   4.473   3.088 -0.0407  0.3666  0.3046
12496TIP3    H158903   5.032   4.439   3.106  0.3741  1.8524  1.2921
12496TIP3    H258904   4.910   4.499   3.174 -1.7589 -0.8212  0.0381
12497TIP3   OH258905   6.548   4.310  13.619 -0.0996  0.7411  0.1848
12497TIP3    H158906   6.502   4.226  13.626  0.6935  0.3905  1.4215
12497TIP3    H258907   6.526   4.341  13.531 -0.2864 -0.8405 -0.3705
12498TIP3   OH258908   3.867   3.979   0.743 -0.2466 -0.1090  0.0364
12498TIP3    H158909   3.941   3.920   0.729 -0.4575 -1.2777  3.1166
12498TIP3    H258910   3.791   3.930   0.711 -0.3151 -1.2571  1.8470
12499TIP3   OH258911   2.716   6.888   2.055 -0.4133  0.1287 -0.6517
12499TIP3    H158912   2.686   6.833   1.983  0.8720 -0.5030 -0.7286
12499TIP3    H258913   2.806   6.911   2.031  0.1458 -0.3549  0.9032
12500TIP3   OH258914   0.329   1.268   0.564 -0.2070 -0.6522 -0.2109
12500TIP3    H158915   0.271   1.221   0.625  0.4179 -2.3075 -0.8180
12500TIP3    H258916   0.310   1.229   0.479 -0.7840  1.3653 -1.0612
12501TIP3   OH258917   4.039   1.809   9.495  0.3638  0.6183 -0.1458
12501TIP3    H158918   4.035   1.718   9.524  1.4475  0.3822 -0.6697
12501TIP3    H258919   4.089   1.805   9.413 -0.2675  1.5910 -0.5911
12502TIP3   OH258920   2.718   0.715  10.369  0.4035  0.3400  0.0506
12502TIP3    H158921   2.677   0.793  10.332 -0.9603  0.1548  1.1120
12502TIP3    H258922   2.806   0.743  10.394  0.1311  1.3652 -0.1108
12503TIP3   OH258923   2.209   3.082   4.398  0.3745 -0.4726 -0.1379
12503TIP3    H158924   2.215   3.133   4.479  1.3977 -1.3372  0.3639
12503TIP3    H258925   2.137   3.021   4.414  0.9508 -1.0355  0.3735
12504TIP3   OH258926   3.848   0.058   5.566 -0.7253 -0.4622 -0.4120
12504TIP3    H158927   3.808  -0.024   5.598  0.0253 -1.0143 -0.8451
12504TIP3    H258928   3.854   0.113   5.644 -1.1828 -0.8455 -0.0988
12505TIP3   OH258929   1.095   6.844   2.247  0.0283  0.0662  0.3074
12505TIP3    H158930   1.180   6.865   2.207  0.5968  1.6220  2.2013
12505TIP3    H258931   1.105   6.866   2.339 -2.3019 -0.1741  0.6884
12506TIP3   OH258932   6.769   3.409   0.744 -0.2105  0.3324 -0.1963
12506TIP3    H158933   6.807   3.426   0.657 -1.4548 -0.0296 -0.8377
12506TIP3    H258934   6.774   3.314   0.754 -0.3271  0.3481  0.0069
12507TIP3   OH258935   3.821   0.258  11.263  0.2029 -0.1123 -0.0632
12507TIP3    H158936   3.783   0.173  11.239  0.7995 -0.1784 -0.8106
12507TIP3    H258937   3.874   0.240  11.341 -0.3453 -0.2503  0.2833
12508TIP3   OH258938   3.937   4.818  12.722 -0.5339  0.2512  0.2475
12508TIP3    H158939   3.853   4.772  12.724  0.1752 -1.2275 -1.2742
12508TIP3    H258940   4.000   4.752  12.694  1.0214  1.5131  0.6110
12509TIP3   OH258941   0.217   5.675   4.793 -0.0088  0.3788  0.0141
12509TIP3    H158942   0.186   5.765   4.808  0.4501  0.1544  2.6743
12509TIP3    H258943   0.140   5.629   4.761 -0.1773  1.7398 -1.7411
12510TIP3   OH258944   5.780   1.993   4.348  0.1111  0.5793  0.5765
12510TIP3    H158945   5.832   2.073   4.361  0.4413  0.5647 -0.5473
12510TIP3    H258946   5.709   2.019   4.290 -0.9651  0.5050  1.8030
12511TIP3   OH258947   3.192   1.711   5.169 -0.5625 -0.2944  0.6443
12511TIP3    H158948   3.168   1.804   5.175 -0.9216 -0.4363  1.6955
12511TIP3    H258949   3.169   1.675   5.255  1.0785 -1.0181  0.8074
12512TIP3   OH258950   1.264   1.612  12.493 -0.8111  0.6988 -0.5017
12512TIP3    H158951   1.317   1.566  12.428  1.1633  0.3832  1.2447
12512TIP3    H258952   1.201   1.547  12.524 -0.3772  0.2243 -0.6022
12513TIP3   OH258953   1.903   6.997   3.707  0.2808 -0.6670  0.5563
12513TIP3    H158954   1.940   6.992   3.619 -1.0003 -2.1545  0.0672
12513TIP3    H258955   1.843   7.071   3.704  0.7616 -0.2780  0.3985
12514TIP3   OH258956   7.105   3.436  12.588 -0.5246  0.3973 -0.5742
12514TIP3    H158957   7.091   3.531  12.591 -0.5697  0.3889  2.0751
12514TIP3    H258958   7.077   3.405  12.674  2.7459 -1.5223 -0.0235
12515TIP3   OH258959   2.745   2.742   1.933 -0.2474 -0.1642 -0.6991
12515TIP3    H158960   2.715   2.667   1.984  2.1338 -0.8647 -0.2111
12515TIP3    H258961   2.670   2.801   1.930 -1.0846 -0.9676  1.9482
12516TIP3   OH258962   1.692   5.063   3.008  0.0760 -0.1610  0.0476
12516TIP3    H158963   1.712   5.029   3.096 -0.2474 -0.0357  0.1693
12516TIP3    H258964   1.770   5.112   2.983  1.1834 -2.1899 -0.7408
12517TIP3   OH258965   5.129   0.890   1.217  0.2737 -0.0491  0.2996
12517TIP3    H158966   5.143   0.929   1.131  0.8438  0.6046  0.6786
12517TIP3    H258967   5.088   0.805   1.198  1.4334 -0.4264 -0.6830
12518TIP3   OH258968   4.528   5.534  10.412 -0.3385 -0.3302 -0.1506
12518TIP3    H158969   4.611   5.521  10.366  0.6077  0.3977  1.2882
12518TIP3    H258970   4.491   5.446  10.420  0.8668 -0.8246  0.2136
12519TIP3   OH258971   0.005   2.519  13.181 -0.1820  0.0456  0.5273
12519TIP3    H158972  -0.022   2.486  13.095  0.7829 -0.5398  0.4401
12519TIP3    H258973  -0.077   2.542  13.224 -0.6573  0.9883 -0.7963
12520TIP3   OH258974   4.030   0.906   0.224 -0.2761 -0.1230 -0.0144
12520TIP3    H158975   4.007   0.948   0.307 -2.8879 -0.6412 -0.3774
12520TIP3    H258976   4.051   0.979   0.165  0.1310  0.3310  0.6760
12521TIP3   OH258977   1.518   5.451  13.725 -0.1240 -0.0010 -0.2337
12521TIP3    H158978   1.574   5.529  13.727 -0.2152  0.1021 -1.2233
12521TIP3    H258979   1.532   5.410  13.810 -1.5531  2.1299  1.1422
12522TIP3   OH258980   3.361   3.528  13.017  0.4205 -0.4957  0.1582
12522TIP3    H158981   3.409   3.611  13.017  1.2905 -0.9718 -0.6253
12522TIP3    H258982   3.371   3.496  12.927 -0.1287 -1.3177  0.3910
12523TIP3   OH258983   3.333   2.074  14.490 -0.8063 -0.2009 -0.3531
12523TIP3    H158984   3.245   2.064  14.525 -0.0612 -0.5594  1.5506
12523TIP3    H258985   3.334   2.162  14.453 -1.7938  0.0372  0.1535
12524TIP3   OH258986   0.302   5.415   4.490 -0.2696 -0.5591  0.1318
12524TIP3    H158987   0.274   5.325   4.501  1.4095 -1.2607 -0.9806
12524TIP3    H258988   0.368   5.412   4.421 -0.1095  1.5109  0.1213
12525TIP3   OH258989   0.424   5.622  13.242 -0.0368 -0.2014 -0.1160
12525TIP3    H158990   0.421   5.631  13.147 -1.1096 -0.4814 -0.1163
12525TIP3    H258991   0.494   5.559  13.258 -0.0843 -0.4191 -0.7451
12526TIP3   OH258992   0.531   1.695   3.692  0.9246 -0.0490  0.3292
12526TIP3    H158993   0.480   1.776   3.695  0.1469 -0.3659 -1.8414
12526TIP3    H258994   0.622   1.724   3.693  0.6605  0.8305  0.0891
12527TIP3   OH258995   4.921   0.911   1.570 -0.3158  0.1409 -0.0694
12527TIP3    H158996   4.979   0.843   1.535  0.2653  0.4562  0.2527
12527TIP3    H258997   4.839   0.865   1.590  0.1994 -0.5565  0.5180
12528TIP3   OH258998   7.016   6.914   9.641  0.5807 -0.5863 -0.3334
12528TIP3    H158999   6.929   6.899   9.605  0.3682 -0.2387  0.0367
12528TIP3    H259000   7.061   6.967   9.575  1.0674 -2.1080 -1.2794
12529TIP3   OH259001   2.641   3.533   4.187  0.0784 -0.3672  0.2371
12529TIP3    H159002   2.700   3.498   4.120 -1.7109  0.4351 -1.8392
12529TIP3    H259003   2.605   3.455   4.230  0.7118 -0.9106 -0.2037
12530TIP3   OH259004   2.008   6.537  13.955  0.5868 -0.1645  0.4122
12530TIP3    H159005   1.983   6.468  13.894  1.8754 -1.3706  1.1897
12530TIP3    H259006   2.057   6.600  13.902  3.3952 -2.1491  0.4386
12531TIP3   OH259007   6.237   1.195   1.519 -0.0646 -0.3395 -0.3341
12531TIP3    H159008   6.211   1.272   1.569  1.1717  1.1029 -1.7953
12531TIP3    H259009   6.155   1.158   1.488 -0.6519  1.4419 -1.0500
12532TIP3   OH259010   5.097   2.471  14.562  0.6426  0.1027 -0.2640
12532TIP3    H159011   5.100   2.440  14.472 -2.7641  2.6797 -1.4786
12532TIP3    H259012   5.047   2.404  14.609  1.8051 -0.8935 -0.4020
12533TIP3   OH259013   1.515   4.768   2.053  0.2944 -0.3460 -0.3312
12533TIP3    H159014   1.481   4.809   1.974 -4.3258 -2.8176  0.0196
12533TIP3    H259015   1.555   4.687   2.023 -1.7009 -1.4163 -0.2433
12534TIP3   OH259016   6.682   4.433   2.748  0.3310  0.3693 -0.4366
12534TIP3    H159017   6.602   4.382   2.758  0.8558 -0.8902 -2.1448
12534TIP3    H259018   6.663   4.494   2.677  0.0790  1.8572  0.8631
12535TIP3   OH259019   4.311   3.030   3.938 -0.3101 -0.0197 -0.4932
12535TIP3    H159020   4.340   3.111   3.980  1.1882  0.3653 -2.1521
12535TIP3    H259021   4.379   2.966   3.958 -1.8448 -1.1721  1.4418
12536TIP3   OH259022   1.264   5.158   2.899  0.0380 -0.1854 -0.2474
12536TIP3    H159023   1.303   5.246   2.910 -1.1847  0.3424 -0.0051
12536TIP3    H259024   1.330   5.109   2.850  1.5962  0.2704  1.2888
12537TIP3   OH259025   2.193   4.275   4.916  0.1199  0.0272 -0.4894
12537TIP3    H159026   2.105   4.268   4.879 -1.1256  1.8070  1.8951
12537TIP3    H259027   2.224   4.361   4.888  0.2233  0.2924  0.4131
12538TIP3   OH259028   5.512   5.209  14.710  0.4938 -0.4104  0.4719
12538TIP3    H159029   5.516   5.302  14.689  0.4838 -0.0851  1.8168
12538TIP3    H259030   5.521   5.165  14.625  2.1672  0.7747 -0.0264
12539TIP3   OH259031   3.590   1.322  13.298 -0.0650 -0.0971 -0.3140
12539TIP3    H159032   3.677   1.347  13.330 -0.8569  0.8540  1.1871
12539TIP3    H259033   3.595   1.227  13.286  0.9799 -0.1433  0.3782
12540TIP3   OH259034   2.944   3.886  12.600 -0.1306 -0.7024 -0.3053
12540TIP3    H159035   2.911   3.847  12.681 -0.5942  1.0684  0.3985
12540TIP3    H259036   2.984   3.813  12.553 -0.4972 -1.9096  1.1827
12541TIP3   OH259037   1.252   1.876   3.863 -0.1294  0.0010 -0.2067
12541TIP3    H159038   1.281   1.788   3.839  2.2670 -0.0016  2.2260
12541TIP3    H259039   1.322   1.933   3.833 -1.3503  1.0589 -1.1593
12542TIP3   OH259040   4.643   5.294   2.072 -0.1389 -0.0046 -0.1790
12542TIP3    H159041   4.657   5.379   2.031 -0.9261 -0.8350 -2.3061
12542TIP3    H259042   4.712   5.238   2.036 -0.8820 -0.7746 -0.4471
12543TIP3   OH259043   2.546   4.661   0.587  0.0929  0.0473 -0.0239
12543TIP3    H159044   2.591   4.616   0.658 -0.5811 -0.3784  0.1453
12543TIP3    H259045   2.488   4.594   0.549  0.0820  0.4012 -0.6540
12544TIP3   OH259046   4.014   5.652   1.167 -0.2671  0.2616  0.3762
12544TIP3    H159047   3.983   5.563   1.183 -0.0621  0.1229  0.0214
12544TIP3    H259048   3.939   5.697   1.128 -0.1757  0.0594 -0.0433
12545TIP3   OH259049   1.793   1.728   5.273  0.3359  0.1779 -0.2987
12545TIP3    H159050   1.734   1.774   5.332 -1.3273 -1.1657 -0.8109
12545TIP3    H259051   1.796   1.782   5.194  0.4345  0.6582  0.0343
12546TIP3   OH259052   6.275   2.073   3.953  0.2560 -0.2060 -0.1022
12546TIP3    H159053   6.368   2.061   3.972  0.0218 -1.3536  0.4309
12546TIP3    H259054   6.249   2.147   4.007  0.7020 -0.3604  0.3355
12547TIP3   OH259055   1.388   1.157   2.454 -0.5505  0.0717  0.1655
12547TIP3    H159056   1.425   1.160   2.366  0.7649  0.8807  0.7264
12547TIP3    H259057   1.297   1.186   2.443 -0.6675 -0.7015 -1.0424
12548TIP3   OH259058   3.230   5.513   2.828  0.8311  0.2693  0.4714
12548TIP3    H159059   3.287   5.539   2.900 -1.4446  0.9673  2.1562
12548TIP3    H259060   3.153   5.569   2.837 -1.2861 -2.3404  0.0071
12549TIP3   OH259061   6.606   3.084  13.724  0.2151  0.7050 -0.4594
12549TIP3    H159062   6.527   3.124  13.759  0.9967  1.4767  0.4604
12549TIP3    H259063   6.668   3.086  13.796  0.6232 -1.2691 -0.6952
12550TIP3   OH259064   7.036   6.819  13.704 -0.3526  0.2998 -0.1780
12550TIP3    H159065   7.048   6.888  13.770 -1.7849  1.3170 -0.9094
12550TIP3    H259066   7.004   6.865  13.627 -2.1451 -1.2537 -0.4503
12551TIP3   OH259067   3.974   3.025  11.319 -0.1238  0.1289 -0.2485
12551TIP3    H159068   3.941   3.096  11.374  1.5024  0.1069  0.8172
12551TIP3    H259069   3.898   2.998  11.267 -1.0022  2.0144 -0.0290
12552TIP3   OH259070   3.745   3.005   2.755  0.5270  0.3091  0.2728
12552TIP3    H159071   3.765   3.064   2.827  1.3302 -0.4638  0.7073
12552TIP3    H259072   3.695   3.058   2.693 -2.3974  0.4045  2.4690
12553TIP3   OH259073   4.805   4.120   3.187  0.0097 -0.2977  0.4032
12553TIP3    H159074   4.867   4.122   3.260 -0.0857 -1.8359  0.5425
12553TIP3    H259075   4.772   4.210   3.183 -0.3525 -0.2661  2.5726
12554TIP3   OH259076   1.825   0.299   1.857  0.4527  0.0405  0.1427
12554TIP3    H159077   1.904   0.313   1.804 -0.3858  0.1326 -1.1372
12554TIP3    H259078   1.801   0.387   1.887  0.0446  0.2202 -0.6751
12555TIP3   OH259079   6.321   2.919  10.289  0.0679  0.2004  0.1738
12555TIP3    H159080   6.231   2.903  10.261 -0.4806  0.1575  1.8449
12555TIP3    H259081   6.373   2.906  10.210 -1.4639  1.1392 -1.0625
12556TIP3   OH259082   2.993   5.393   1.357 -0.3436  0.2448 -0.3760
12556TIP3    H159083   2.957   5.315   1.315 -1.3173  0.6866 -0.3666
12556TIP3    H259084   2.918   5.450   1.371 -0.0164  0.2370  1.7366
12557TIP3   OH259085   2.651   0.978  14.124  0.2122  0.0402  0.1387
12557TIP3    H159086   2.628   0.887  14.142 -1.0377  0.8149  3.1155
12557TIP3    H259087   2.698   1.007  14.202 -1.3686  2.4961  0.3053
12558TIP3   OH259088   1.489   5.028   1.596  0.0173  0.1313  0.4294
12558TIP3    H159089   1.418   4.973   1.631  0.4518  0.5180  1.9750
12558TIP3    H259090   1.444   5.099   1.550 -0.6007  0.3345  1.3322
12559TIP3   OH259091   3.284   6.981  11.943  0.0023 -0.5602  0.2604
12559TIP3    H159092   3.215   6.984  11.877  0.1169  0.4099  0.1638
12559TIP3    H259093   3.299   7.073  11.966  1.7506 -0.6685 -0.2463
12560TIP3   OH259094   4.683   4.572  12.725  0.3699 -0.4718  0.2243
12560TIP3    H159095   4.605   4.567  12.670  0.6862 -0.8052 -0.1998
12560TIP3    H259096   4.743   4.507  12.688  1.5237  0.9687 -0.5361
12561TIP3   OH259097   4.429   3.716  10.444 -0.2376 -0.3082  0.3597
12561TIP3    H159098   4.340   3.749  10.433 -0.1388 -0.5768 -1.4212
12561TIP3    H259099   4.423   3.624  10.422  0.6577 -0.1157 -0.7593
12562TIP3   OH259100   1.755   3.243   4.331 -0.1626 -0.1902  0.4663
12562TIP3    H159101   1.790   3.154   4.340 -0.4411 -0.1314  2.4357
12562TIP3    H259102   1.662   3.231   4.315  0.0332 -0.2437 -0.8113
12563TIP3   OH259103   5.460   4.432  14.703 -0.1356  0.1799  0.5253
12563TIP3    H159104   5.446   4.382  14.784 -1.2911 -0.9942 -0.3553
12563TIP3    H259105   5.451   4.367  14.633  2.1635  0.8847 -0.5240
12564TIP3   OH259106   2.593   6.415  12.050 -0.5149 -0.7781 -0.5756
12564TIP3    H159107   2.648   6.439  11.975  0.1466 -1.5492 -0.3522
12564TIP3    H259108   2.550   6.334  12.023  1.0256 -2.0128  0.4718
12565TIP3   OH259109   2.955   5.798   2.619  0.8527 -0.4878  0.4623
12565TIP3    H159110   3.020   5.737   2.653  0.1941 -1.1985  0.4609
12565TIP3    H259111   2.930   5.851   2.695  1.0433 -0.5578  0.5743
12566TIP3   OH259112   5.233   3.406  15.162 -0.9156  0.3200 -0.0767
12566TIP3    H159113   5.210   3.481  15.217  1.1602  0.6416  0.4295
12566TIP3    H259114   5.291   3.442  15.095 -0.0512 -0.7742  0.0551
12567TIP3   OH259115   6.218   1.449   4.121 -0.0408  0.5202 -0.6538
12567TIP3    H159116   6.177   1.520   4.072 -1.7484  0.6657  0.8823
12567TIP3    H259117   6.158   1.432   4.194  1.1779 -1.3408 -0.0056
12568TIP3   OH259118   4.226   5.997  15.195  0.6560 -0.0531  0.3098
12568TIP3    H159119   4.153   6.007  15.256  0.7771 -0.9201  0.6104
12568TIP3    H259120   4.195   6.037  15.114  0.2726  0.5890  0.7617
12569TIP3   OH259121   3.528   2.091   1.944  0.4850 -0.0406 -0.4089
12569TIP3    H159122   3.566   2.005   1.957  0.1782 -0.1976 -0.5540
12569TIP3    H259123   3.537   2.135   2.029  0.6422 -0.2131 -0.3376
12570TIP3   OH259124   3.473   1.987  15.298 -0.0241 -0.7883  0.6498
12570TIP3    H159125   3.391   1.937  15.291 -1.6019  1.7553 -0.2991
12570TIP3    H259126   3.482   2.030  15.213  1.8570 -0.2862  1.0670
12571TIP3   OH259127   0.854   4.267   0.701  0.1368 -0.0203  0.3532
12571TIP3    H159128   0.798   4.326   0.650  0.5755  0.5354  0.5167
12571TIP3    H259129   0.858   4.187   0.648 -1.9873 -0.6183  1.0022
12572TIP3   OH259130   2.570   4.997   1.323 -0.5120  0.4996  0.0886
12572TIP3    H159131   2.647   5.053   1.318 -0.3212  0.2321  0.0017
12572TIP3    H259132   2.555   4.969   1.232  0.4046 -0.9429  0.3393
12573TIP3   OH259133   0.671   3.541  13.062 -0.0441  0.3467 -0.4449
12573TIP3    H159134   0.626   3.600  13.002 -0.8459  1.6210  1.3279
12573TIP3    H259135   0.756   3.527  13.021  0.1457  2.6602 -1.0124
12574TIP3   OH259136   6.683   6.615  13.010 -0.5225 -0.1018  0.3153
12574TIP3    H159137   6.602   6.661  13.030 -1.2126 -1.1150 -0.0775
12574TIP3    H259138   6.688   6.546  13.077 -0.5770 -0.7562 -0.3516
12575TIP3   OH259139   6.493   4.758   3.075  0.4690 -0.0393  0.2532
12575TIP3    H159140   6.477   4.852   3.087 -0.3136 -0.2423  0.8554
12575TIP3    H259141   6.556   4.735   3.143 -0.9351 -0.3681  1.4782
12576TIP3   OH259142   1.578   1.452   2.150 -0.0840  0.4583  0.2269
12576TIP3    H159143   1.613   1.375   2.195  2.7602  0.9439 -0.9681
12576TIP3    H259144   1.646   1.519   2.159 -0.7149  1.5399 -2.1138
12577TIP3   OH259145   4.169   4.867  14.992 -0.5379  0.0967 -0.5047
12577TIP3    H159146   4.214   4.891  14.911 -1.6978  1.4394 -0.7826
12577TIP3    H259147   4.182   4.772  15.000  0.8292  0.1770 -1.4758
12578TIP3   OH259148   4.445   0.558   1.827  0.2499  0.4668  0.0588
12578TIP3    H159149   4.391   0.632   1.854 -0.2748  0.0516  0.1682
12578TIP3    H259150   4.444   0.562   1.731  1.1774  1.2741  0.0746
12579TIP3   OH259151   7.159   1.967   3.445 -0.4488 -0.5142 -0.0164
12579TIP3    H159152   7.091   1.963   3.377 -2.9842  0.0668  2.2783
12579TIP3    H259153   7.134   1.899   3.507  2.9730 -2.4229 -0.5404
12580TIP3   OH259154   5.729   3.128  14.787  0.2933 -0.4355 -0.3513
12580TIP3    H159155   5.649   3.175  14.811 -0.2012 -1.3330 -0.1976
12580TIP3    H259156   5.699   3.060  14.726  1.1815  0.2518 -1.6053
12581TIP3   OH259157   0.238   6.551   9.811  0.0181  0.0006  0.6567
12581TIP3    H159158   0.278   6.613   9.750  1.1753 -1.0476  0.2948
12581TIP3    H259159   0.154   6.529   9.772 -0.1103  0.8323  0.4502
12582TIP3   OH259160   0.434   3.006   1.467  0.2095  0.1625  0.1575
12582TIP3    H159161   0.484   3.085   1.488  0.2521 -0.2236  1.6328
12582TIP3    H259162   0.452   2.946   1.540 -1.4271 -0.4391  0.1131
12583TIP3   OH259163   0.981   5.374  14.964  0.1483 -0.1304 -0.5125
12583TIP3    H159164   1.019   5.435  15.028  3.5830 -2.3730 -0.1146
12583TIP3    H259165   0.912   5.328  15.012  3.1169 -2.2912  2.1235
12584TIP3   OH259166   0.409   6.121  11.611 -0.0684  0.8487  0.0025
12584TIP3    H159167   0.363   6.059  11.554 -0.7213  0.4212  0.9734
12584TIP3    H259168   0.462   6.174  11.551 -0.0140 -0.2044 -0.9123
12585TIP3   OH259169   6.077   4.028  14.354 -0.0179 -0.6397 -0.4752
12585TIP3    H159170   6.142   4.043  14.423 -0.4696 -0.2590 -0.1224
12585TIP3    H259171   5.994   4.048  14.396 -0.3282 -0.7556 -1.0351
12586TIP3   OH259172   5.200   2.499  13.154  0.1971  0.8288 -0.4016
12586TIP3    H159173   5.206   2.417  13.104 -1.6268  0.3918  0.0322
12586TIP3    H259174   5.176   2.565  13.090 -1.0991  0.4686 -0.3086
12587TIP3   OH259175   4.858   6.654   0.693  0.5276 -0.3627 -0.1414
12587TIP3    H159176   4.915   6.726   0.721 -0.7938  0.3863  0.7173
12587TIP3    H259177   4.827   6.615   0.775 -0.8676 -0.1968 -0.5619
12588TIP3   OH259178   6.611   6.618   2.187  0.5510  0.6244 -0.8192
12588TIP3    H159179   6.641   6.651   2.102 -4.4607  3.1781 -2.0015
12588TIP3    H259180   6.553   6.546   2.165  1.4527 -0.6496  0.8004
12589TIP3   OH259181   3.187   6.649   2.070 -0.4420  0.0645 -0.1327
12589TIP3    H159182   3.281   6.642   2.055 -0.2949 -1.2988  1.2017
12589TIP3    H259183   3.149   6.652   1.982  0.7606 -0.5830 -0.6932
12590TIP3   OH259184   4.517   5.630  15.273 -0.6506 -1.1786  0.4064
12590TIP3    H159185   4.547   5.553  15.225  2.4596  0.1789 -0.0497
12590TIP3    H259186   4.473   5.683  15.207 -1.0187 -1.6327  0.2769
12591TIP3   OH259187   2.609   4.117  12.517  0.6998 -0.3000 -0.4479
12591TIP3    H159188   2.578   4.191  12.569 -0.2230 -1.5488  0.8868
12591TIP3    H259189   2.691   4.147  12.480  0.2884  1.4348 -0.0728
12592TIP3   OH259190   1.087   2.892   1.428  0.4575 -0.2396  0.0064
12592TIP3    H159191   0.993   2.879   1.416  0.6177 -2.3240  0.5204
12592TIP3    H259192   1.097   2.911   1.521  0.1474  5.6300 -0.8103
12593TIP3   OH259193   5.963   2.892   0.036  0.5492 -0.1479  0.0199
12593TIP3    H159194   5.943   2.986   0.039 -0.1987 -0.3389  1.7537
12593TIP3    H259195   6.032   2.880   0.101  0.7007 -0.7997 -0.2516
12594TIP3   OH259196   5.799   2.932   2.235 -0.4626  0.3108  0.2284
12594TIP3    H159197   5.842   2.967   2.313  2.4695 -2.3197 -0.0114
12594TIP3    H259198   5.727   2.878   2.270  0.4063 -0.3099  1.1160
12595TIP3   OH259199   5.928   0.563  12.863  0.1647  0.4773 -0.1924
12595TIP3    H159200   5.880   0.645  12.859 -0.1707  0.2437 -1.4168
12595TIP3    H259201   5.860   0.496  12.871  0.4368  0.3177  0.8416
12596TIP3   OH259202   6.842   3.436   4.558 -0.4392  0.2060  0.7902
12596TIP3    H159203   6.938   3.426   4.557 -0.6077 -1.9720  0.4153
12596TIP3    H259204   6.810   3.349   4.580 -2.3567  0.8665  0.7357
12597TIP3   OH259205   2.219   4.226   4.182 -0.2594  0.0239  0.3926
12597TIP3    H159206   2.164   4.161   4.138 -2.6733  2.1780 -0.0717
12597TIP3    H259207   2.293   4.240   4.123  0.7447 -2.7148  0.8505
12598TIP3   OH259208   1.831   5.864   2.005  0.0507 -0.3339  0.0902
12598TIP3    H159209   1.757   5.923   2.014  0.8086  0.8664 -1.1305
12598TIP3    H259210   1.840   5.823   2.091 -0.5156  1.3295  0.9805
12599TIP3   OH259211   4.618   5.661  13.360 -0.0517  0.2384 -0.4272
12599TIP3    H159212   4.524   5.655  13.346 -0.1658  0.4794  0.1923
12599TIP3    H259213   4.637   5.755  13.358  0.1595  0.1973 -0.4608
12600TIP3   OH259214   3.030   2.385   1.320  0.2628  0.3207  0.0987
12600TIP3    H159215   3.100   2.336   1.277 -0.2730 -2.1413  1.7790
12600TIP3    H259216   3.072   2.425   1.396  0.2557  0.5943 -0.0414
12601TIP3   OH259217   3.917   2.080  14.134 -0.3052  0.3022  0.1062
12601TIP3    H159218   3.963   2.005  14.098 -0.5912  0.5610 -0.8186
12601TIP3    H259219   3.842   2.042  14.181  0.0040 -0.0304  0.3362
12602TIP3   OH259220   4.973   4.082  11.881 -0.1632  0.0972 -0.2482
12602TIP3    H159221   5.063   4.110  11.896 -0.1958  0.6381 -1.0164
12602TIP3    H259222   4.952   4.028  11.957  0.2826  1.2475  0.7201
12603TIP3   OH259223   3.728   6.979  12.422  0.1591 -0.0426 -0.1898
12603TIP3    H159224   3.801   6.919  12.437 -0.7125 -0.4867  2.7172
12603TIP3    H259225   3.660   6.925  12.383 -0.4746 -0.9443  2.0394
12604TIP3   OH259226   2.777   1.969   4.381 -0.4321  0.1150 -0.5116
12604TIP3    H159227   2.726   2.003   4.455 -1.7307  0.2331 -1.4307
12604TIP3    H259228   2.794   1.878   4.403 -3.7399 -0.8710 -1.5073
12605TIP3   OH259229   6.342   6.420   5.340 -0.1114  0.2255 -0.2481
12605TIP3    H159230   6.331   6.369   5.260 -1.0704 -1.5496  0.9515
12605TIP3    H259231   6.302   6.505   5.321 -1.9739 -0.7939 -1.0736
12606TIP3   OH259232   6.982   3.328   3.312 -0.0790 -0.5278 -0.3262
12606TIP3    H159233   6.969   3.383   3.235 -0.4111  1.6262  1.1943
12606TIP3    H259234   6.905   3.271   3.314 -0.2686 -0.3289 -1.3289
12607TIP3   OH259235   3.869   1.068   5.583 -0.0951 -0.3817 -0.1981
12607TIP3    H159236   3.876   0.973   5.582  1.5581 -0.3088 -1.6241
12607TIP3    H259237   3.931   1.096   5.650 -0.6867 -0.3033  0.3216
12608TIP3   OH259238   2.419   2.269  14.502 -0.1377 -0.0953  0.0130
12608TIP3    H159239   2.475   2.261  14.425  0.6307 -1.4491  0.6709
12608TIP3    H259240   2.391   2.179  14.521 -2.0985  0.4732  0.0430
12609TIP3   OH259241   4.906   2.998   2.174  0.7454  0.2501 -0.3160
12609TIP3    H159242   4.928   2.913   2.137  3.6880  0.7423  0.0639
12609TIP3    H259243   4.944   2.996   2.262 -2.0955  0.7939  1.0582
12610TIP3   OH259244   3.930   4.447  11.956 -0.3432 -0.0517  0.0352
12610TIP3    H159245   3.878   4.505  11.900  0.0313  2.6011  2.2721
12610TIP3    H259246   4.014   4.492  11.965  0.7439 -2.0149  0.2036
12611TIP3   OH259247   5.983   2.282  10.563  0.6990  0.1965  0.3525
12611TIP3    H159248   6.071   2.285  10.599  0.6981 -0.7545  0.4406
12611TIP3    H259249   5.926   2.277  10.640  0.6362 -0.5137  0.2645
12612TIP3   OH259250   1.293   6.544  15.065 -0.0009 -0.5680  0.0375
12612TIP3    H159251   1.288   6.459  15.021 -0.7731 -1.1553  1.1997
12612TIP3    H259252   1.202   6.570  15.077  0.1866 -0.3434  1.0959
12613TIP3   OH259253   4.994   6.068   3.718 -0.1096  0.0744 -0.6778
12613TIP3    H159254   4.915   6.101   3.675  1.2750  2.9800 -1.2582
12613TIP3    H259255   4.992   6.107   3.806 -0.0125 -1.0037 -0.1841
12614TIP3   OH259256   1.155   3.299   3.765  0.2170 -0.1663 -0.0371
12614TIP3    H159257   1.237   3.348   3.774 -0.0530 -0.0183  2.1513
12614TIP3    H259258   1.113   3.337   3.688  0.8503  1.8108  0.5273
12615TIP3   OH259259   1.165   6.394   3.485 -0.9291  0.0191  0.5422
12615TIP3    H159260   1.082   6.356   3.456 -1.6743  1.3250  0.9362
12615TIP3    H259261   1.167   6.481   3.445  0.9435 -0.5147 -0.6703
12616TIP3   OH259262   4.529   2.456   1.438  0.6748  0.1195 -0.4352
12616TIP3    H159263   4.586   2.380   1.426  0.4311  0.1267 -1.6634
12616TIP3    H259264   4.455   2.441   1.380  0.0244  0.7262  0.2110
12617TIP3   OH259265   5.402   3.282   1.334  0.1083  0.1195  0.1534
12617TIP3    H159266   5.410   3.347   1.404  3.5869  0.3495 -0.2691
12617TIP3    H259267   5.455   3.208   1.363 -3.0083 -2.3314  0.2126
12618TIP3   OH259268   0.812   4.469   2.993  0.1618 -0.6713  0.3624
12618TIP3    H159269   0.873   4.523   2.942  2.2503 -3.2265 -0.0745
12618TIP3    H259270   0.756   4.428   2.927 -1.3191  0.7217  0.6836
12619TIP3   OH259271   1.809   5.353   4.958  0.3855  0.3497  0.8515
12619TIP3    H159272   1.823   5.436   4.912  0.3498 -0.2890 -0.3456
12619TIP3    H259273   1.762   5.377   5.038  1.5160  1.6342  1.1669
12620TIP3   OH259274   1.749   5.654   1.836  0.8796 -0.5258 -0.0222
12620TIP3    H159275   1.766   5.717   1.906  1.0578 -1.2445  0.5929
12620TIP3    H259276   1.835   5.621   1.811  0.8096 -0.3438 -0.5161
12621TIP3   OH259277   3.330   5.116  13.448 -0.1682 -0.1789 -1.0441
12621TIP3    H159278   3.261   5.167  13.405  0.5595 -0.5043 -2.6687
12621TIP3    H259279   3.408   5.134  13.397  0.0738 -3.1372 -1.9146
12622TIP3   OH259280   3.505   4.843   2.806  0.4216  0.3277 -0.0813
12622TIP3    H159281   3.585   4.874   2.848  0.3659 -1.4657  1.4474
12622TIP3    H259282   3.519   4.750   2.791 -0.3934  0.4943 -2.2344
12623TIP3   OH259283   6.933   1.950   3.250  0.0042  0.1974 -0.4376
12623TIP3    H159284   6.845   1.950   3.287 -0.1484  0.8333 -0.7914
12623TIP3    H259285   6.922   1.981   3.160  0.5309 -0.1384 -0.6216
12624TIP3   OH259286   5.433   3.912  12.298  0.6354  0.4389  0.4492
12624TIP3    H159287   5.506   3.850  12.303  1.9401  1.9874  1.8444
12624TIP3    H259288   5.474   3.998  12.306 -1.1803  1.4816 -0.7873
12625TIP3   OH259289   2.236   1.055   3.359 -0.3108  0.2636 -0.2755
12625TIP3    H159290   2.149   1.035   3.393 -0.5529  0.6670 -0.6352
12625TIP3    H259291   2.241   1.007   3.277 -1.0507  1.9086 -1.3431
12626TIP3   OH259292   5.481   4.437  13.105  0.2933 -0.1325 -0.1777
12626TIP3    H159293   5.564   4.459  13.148 -0.0778 -2.5632  2.0323
12626TIP3    H259294   5.489   4.344  13.083 -1.2661 -0.0290 -1.3955
12627TIP3   OH259295   6.462   1.952   0.701  0.5079  0.7738 -0.0822
12627TIP3    H159296   6.533   1.929   0.641 -0.8883  0.5382 -1.7319
12627TIP3    H259297   6.488   1.914   0.784  2.2323  0.5718 -0.6698
12628TIP3   OH259298   0.894   2.521  14.381  0.2266  0.4996  0.3049
12628TIP3    H159299   0.881   2.603  14.333 -2.1558  0.8830  1.4468
12628TIP3    H259300   0.810   2.476  14.373  1.4633 -1.8840 -0.2666
12629TIP3   OH259301   2.914   0.741   0.269 -0.0678  0.2527 -0.5791
12629TIP3    H159302   3.007   0.757   0.286  0.7015 -2.0749 -2.1350
12629TIP3    H259303   2.909   0.726   0.175 -2.0656  0.4594 -0.5520
12630TIP3   OH259304   7.116   5.100  14.185  0.0996 -0.2317 -0.2560
12630TIP3    H159305   7.204   5.121  14.217  0.4732  0.1175 -1.4435
12630TIP3    H259306   7.086   5.030  14.242 -0.1582  1.7602  2.2274
12631TIP3   OH259307   0.104   3.497   1.435  0.4926 -0.2418  0.1323
12631TIP3    H159308   0.179   3.512   1.493 -0.5033  0.5526  1.2802
12631TIP3    H259309   0.054   3.427   1.477 -0.9213  1.2150  0.9946
12632TIP3   OH259310   1.988   0.837   2.598  0.5722 -0.2198 -0.6078
12632TIP3    H159311   1.990   0.884   2.515 -0.8033  0.2097 -0.4194
12632TIP3    H259312   2.018   0.901   2.663  0.6186 -0.2214 -0.6279
12633TIP3   OH259313   4.690   7.139   3.595  0.6854 -0.3553  0.0361
12633TIP3    H159314   4.645   7.223   3.605  1.7689  0.1444  0.9767
12633TIP3    H259315   4.709   7.133   3.501  2.4222  1.4767  0.1911
12634TIP3   OH259316   3.445   1.812   3.664  0.0666  0.3976 -0.2788
12634TIP3    H159317   3.407   1.881   3.719  0.3852  1.3936 -1.2787
12634TIP3    H259318   3.517   1.777   3.716 -0.8651 -0.0583  0.7575
12635TIP3   OH259319   1.295   5.742  14.840  0.7650  0.3803 -0.0921
12635TIP3    H159320   1.271   5.687  14.766  0.0321  0.8275 -0.1894
12635TIP3    H259321   1.368   5.795  14.808  0.8745  0.1221 -0.2803
12636TIP3   OH259322   3.288   5.442   3.437 -0.8653 -0.8305 -0.2469
12636TIP3    H159323   3.355   5.419   3.372  0.8991 -0.9216  1.5000
12636TIP3    H259324   3.273   5.361   3.486  0.4464 -0.0025  1.6489
12637TIP3   OH259325   3.271   6.213   1.921  0.0012  0.0232 -0.2023
12637TIP3    H159326   3.187   6.235   1.963 -0.3763 -0.5061 -0.6729
12637TIP3    H259327   3.332   6.206   1.994 -0.4210  0.1446  0.1720
12638TIP3   OH259328   5.049   5.168  12.733 -0.0393 -0.2916 -0.6953
12638TIP3    H159329   5.048   5.087  12.783  1.3030  0.1000  0.0176
12638TIP3    H259330   5.126   5.161  12.677  0.0179  0.4254 -0.7212
12639TIP3   OH259331   4.186   3.242   0.494  0.4629 -0.8033  0.2371
12639TIP3    H159332   4.251   3.233   0.424  0.7008  0.1026  0.3282
12639TIP3    H259333   4.150   3.154   0.505  0.7157 -1.0418 -0.7419
12640TIP3   OH259334   3.047   3.779  15.108 -0.3591 -0.2218  0.2098
12640TIP3    H159335   3.123   3.740  15.151 -0.8821 -2.1560 -0.5123
12640TIP3    H259336   2.972   3.751  15.160 -0.5965  2.2683  1.3355
12641TIP3   OH259337   3.031   5.654   3.657  0.3301 -0.0649  0.5917
12641TIP3    H159338   3.112   5.639   3.608  0.5101  2.0595  0.1754
12641TIP3    H259339   2.962   5.621   3.599  0.8587 -2.0277  1.0112
12642TIP3   OH259340   5.898   3.691   4.586  0.3784  0.1885 -0.2002
12642TIP3    H159341   5.881   3.750   4.512 -1.7355  0.7748  0.6848
12642TIP3    H259342   5.954   3.742   4.644  2.1168 -0.2995 -1.3487
12643TIP3   OH259343   6.745   6.658  14.943  0.2644 -0.2525 -0.3556
12643TIP3    H159344   6.725   6.711  15.020  0.3467  0.4317 -0.7961
12643TIP3    H259345   6.741   6.567  14.974  0.6567  0.0310  0.5302
12644TIP3   OH259346   5.183   4.903   1.817  0.1817  0.1396 -0.6862
12644TIP3    H159347   5.179   4.875   1.726 -0.1713  0.3494 -0.7387
12644TIP3    H259348   5.269   4.946   1.825  0.0120  0.5555 -1.0506
12645TIP3   OH259349   3.354   2.548  13.990 -0.2739  0.1343  0.1270
12645TIP3    H159350   3.444   2.538  14.019  0.2015  3.5081  0.2301
12645TIP3    H259351   3.301   2.513  14.062  0.9044 -1.6929  0.1523
12646TIP3   OH259352   6.234   5.911   5.769  0.4688  0.5637  0.1349
12646TIP3    H159353   6.156   5.893   5.716  0.2375  0.9916  0.3211
12646TIP3    H259354   6.230   6.006   5.786 -0.3409  0.2194  2.2608
12647TIP3   OH259355   3.920   2.840   5.273 -0.0520 -0.2298  0.0619
12647TIP3    H159356   3.971   2.767   5.309  1.0732  1.3581  1.9023
12647TIP3    H259357   3.831   2.826   5.306  0.3355 -0.3630  1.0873
12648TIP3   OH259358   0.314   6.537   3.547 -0.8259 -0.4211 -0.1117
12648TIP3    H159359   0.320   6.442   3.550 -3.2492 -0.6167  0.0152
12648TIP3    H259360   0.405   6.566   3.551  0.1130 -2.7459 -1.9707
12649TIP3   OH259361   2.689   0.685   4.780 -0.1881  0.2044  0.6516
12649TIP3    H159362   2.772   0.646   4.807  0.4025 -1.1687 -2.7353
12649TIP3    H259363   2.707   0.778   4.773  0.1805  0.3352  2.6624
12650TIP3   OH259364   3.041   7.015   4.637  0.2126  0.7437  0.2772
12650TIP3    H159365   2.970   6.955   4.660  1.0176  0.0384  1.0082
12650TIP3    H259366   3.084   6.974   4.563  0.0824  0.9897  0.0641
12651TIP3   OH259367   2.004   7.037  13.492 -1.0866 -0.2753  0.1828
12651TIP3    H159368   1.940   6.969  13.516 -1.0234 -0.0954  0.8878
12651TIP3    H259369   2.055   6.998  13.421  0.3051 -1.7911  1.9244
12652TIP3   OH259370   2.047   5.406  10.003  0.1258 -0.6434  0.2022
12652TIP3    H159371   2.052   5.455  10.085 -2.9585  1.1488 -0.5248
12652TIP3    H259372   2.138   5.385   9.982  1.2028  0.9308  2.8383
12653TIP3   OH259373   1.098   0.320  12.761  0.1429 -0.4533  0.2161
12653TIP3    H159374   1.111   0.225  12.766  0.1174 -0.6042 -1.9224
12653TIP3    H259375   1.028   0.331  12.696  1.4645  1.0939 -1.0087
12654TIP3   OH259376   2.819   3.648   3.588 -0.0766 -0.2730 -0.1922
12654TIP3    H159377   2.906   3.612   3.604 -0.5015 -0.9931  0.5613
12654TIP3    H259378   2.821   3.734   3.629  0.4113 -0.1084 -0.5504
12655TIP3   OH259379   3.691   4.434  13.738 -0.1700  0.0625 -0.1955
12655TIP3    H159380   3.760   4.474  13.790 -0.8822  2.2265 -0.8361
12655TIP3    H259381   3.696   4.341  13.761  2.1276  0.3300  0.6749
12656TIP3   OH259382   5.948   1.104  14.846 -0.6199  0.4427 -0.2867
12656TIP3    H159383   5.941   1.169  14.775 -1.1044  0.0641 -0.5922
12656TIP3    H259384   6.042   1.089  14.856 -0.4307  1.9537  0.4894
12657TIP3   OH259385   0.402   4.828   0.602  0.2088  0.2712  0.4299
12657TIP3    H159386   0.475   4.831   0.540 -0.0795  0.3288  0.0902
12657TIP3    H259387   0.414   4.907   0.655 -0.6600  1.3206 -0.8470
12658TIP3   OH259388   6.980   0.891   4.719 -0.0551  0.2216 -0.1081
12658TIP3    H159389   6.983   0.843   4.636 -0.6377  0.4215 -0.2471
12658TIP3    H259390   6.888   0.912   4.732  0.2045  1.5429 -0.1946
12659TIP3   OH259391   3.475   6.674  13.704  0.4169  0.0766  0.1397
12659TIP3    H159392   3.427   6.737  13.758  1.7676  1.8860 -0.6739
12659TIP3    H259393   3.439   6.685  13.616 -1.9085 -2.9962  0.5348
12660TIP3   OH259394   2.431   6.876  14.998  0.0785  0.1031 -0.4799
12660TIP3    H159395   2.415   6.873  15.093  2.4256  0.0188 -0.0171
12660TIP3    H259396   2.399   6.791  14.967 -0.2619 -0.0820  0.3267
12661TIP3   OH259397   6.159   1.412   2.942  0.2266 -0.6372  0.0377
12661TIP3    H159398   6.141   1.387   2.852  0.7752 -0.2275 -0.1849
12661TIP3    H259399   6.217   1.344   2.975 -1.1752 -1.6279  0.5697
12662TIP3   OH259400   3.647   6.175   3.493  0.3680 -0.3562 -0.1025
12662TIP3    H159401   3.650   6.094   3.544 -0.3934 -1.0133 -1.0643
12662TIP3    H259402   3.670   6.243   3.556 -0.4070 -1.1510  1.1041
12663TIP3   OH259403   6.603   5.190   5.350  0.4611  0.9534 -0.3535
12663TIP3    H159404   6.568   5.153   5.431  0.5422  0.6303 -0.4651
12663TIP3    H259405   6.675   5.247   5.379  0.3024  1.0671 -0.1788
12664TIP3   OH259406   0.109   3.396  13.383  0.1040 -0.0712  0.3074
12664TIP3    H159407   0.143   3.485  13.396  3.3723 -1.0683 -0.3173
12664TIP3    H259408   0.093   3.363  13.471  0.8474  0.4928  0.6618
12665TIP3   OH259409   3.917   2.275   1.845  0.2843  0.0950  0.1814
12665TIP3    H159410   3.865   2.283   1.765  1.1779  0.8600 -0.3308
12665TIP3    H259411   3.968   2.356   1.849  1.1412 -0.4659  0.8931
12666TIP3   OH259412   5.364   4.207   2.725  0.0898 -0.6056 -0.0252
12666TIP3    H159413   5.441   4.257   2.701 -0.7919 -0.3611 -2.6448
12666TIP3    H259414   5.368   4.129   2.670 -2.1620  0.0607 -1.2529
12667TIP3   OH259415   6.466   5.552   3.154 -0.6710  0.6116 -1.0079
12667TIP3    H159416   6.394   5.489   3.162  0.1320 -0.2617 -0.4384
12667TIP3    H259417   6.428   5.626   3.106 -2.5460  1.1178  1.1065
12668TIP3   OH259418   5.490   2.271   1.182 -0.7736  0.3234  0.3234
12668TIP3    H159419   5.485   2.274   1.087 -3.5392  0.0561  0.3784
12668TIP3    H259420   5.567   2.218   1.200  2.2934  3.6726 -1.6104
12669TIP3   OH259421   5.990   2.010  11.055  0.4088 -0.1187 -0.2186
12669TIP3    H159422   5.899   2.034  11.038  0.0443  0.2939  2.0464
12669TIP3    H259423   6.030   2.003  10.968 -1.4180  1.0990 -1.2087
12670TIP3   OH259424   6.029   4.705  11.376 -0.2013  0.1367  0.4738
12670TIP3    H159425   6.073   4.788  11.395  0.2391  0.3597 -1.2972
12670TIP3    H259426   5.971   4.726  11.303 -1.1793 -0.8024  0.9646
12671TIP3   OH259427   4.693   1.091  11.164  0.4512  0.0495 -0.3110
12671TIP3    H159428   4.780   1.131  11.167  0.5276 -0.1411 -0.0148
12671TIP3    H259429   4.635   1.164  11.142  0.6422  0.2415 -0.1835
12672TIP3   OH259430   7.091   3.661   4.156  0.3937 -0.0571 -0.2925
12672TIP3    H159431   7.005   3.623   4.136  1.0014 -0.6774 -1.9590
12672TIP3    H259432   7.144   3.586   4.183  0.7319  0.1219 -0.4566
12673TIP3   OH259433   4.885   2.614   4.122 -0.0576 -0.1412 -0.1086
12673TIP3    H159434   4.952   2.605   4.054  0.9141  1.6039  0.5548
12673TIP3    H259435   4.820   2.673   4.084 -0.1555 -0.1643  0.0222
12674TIP3   OH259436   0.820   1.396   9.931  0.3707  0.2030  0.3701
12674TIP3    H159437   0.817   1.368  10.023 -0.4976  3.0878  1.3034
12674TIP3    H259438   0.913   1.416   9.915  0.8485 -2.0361 -0.0330
12675TIP3   OH259439   4.804   1.590   4.395 -0.0363 -0.4113  0.5660
12675TIP3    H159440   4.882   1.624   4.440 -1.1789  1.0305  1.5223
12675TIP3    H259441   4.781   1.657   4.332  1.1724 -2.1407 -1.8882
12676TIP3   OH259442   0.145   4.414   2.325  0.4901 -0.0875  0.5420
12676TIP3    H159443   0.133   4.508   2.343 -0.1001 -0.0301 -0.0824
12676TIP3    H259444   0.238   4.398   2.342  0.4970  0.5039  1.1170
12677TIP3   OH259445   1.705   5.049  13.222 -0.4213 -0.4006  0.3640
12677TIP3    H159446   1.760   5.028  13.298  0.0455 -0.1898  0.0892
12677TIP3    H259447   1.753   5.118  13.176 -0.8765 -0.2776  0.0703
12678TIP3   OH259448   3.009   1.444   3.813 -0.4924  0.5622  0.5482
12678TIP3    H159449   3.028   1.360   3.855 -0.2067  0.6852  0.6651
12678TIP3    H259450   2.925   1.430   3.768 -0.2795  0.1169  0.2917
12679TIP3   OH259451   3.476   4.785  15.020  0.3194  0.3000 -0.2598
12679TIP3    H159452   3.501   4.811  14.931 -1.3281  1.1475 -0.5319
12679TIP3    H259453   3.507   4.695  15.029 -0.5594 -0.2582 -2.1766
12680TIP3   OH259454   1.147   5.124  11.588 -0.2589 -0.0791  0.1801
12680TIP3    H159455   1.114   5.034  11.600 -0.5268  0.0361  0.3220
12680TIP3    H259456   1.223   5.129  11.645 -0.1255 -0.2804  0.0194
12681TIP3   OH259457   2.944   6.809   1.326 -0.0030 -0.0645 -0.3665
12681TIP3    H159458   2.897   6.888   1.355  0.1510  0.8722 -2.4583
12681TIP3    H259459   3.034   6.822   1.357 -0.1391  0.2706 -0.1101
12682TIP3   OH259460   5.363   3.240   4.148  0.5116 -0.0622  0.0586
12682TIP3    H159461   5.452   3.273   4.134  0.2784  1.5335  1.7839
12682TIP3    H259462   5.317   3.315   4.186 -1.9795 -0.4149 -2.0214
12683TIP3   OH259463   0.504   5.737  14.501 -0.2942 -0.4668 -0.1914
12683TIP3    H159464   0.530   5.696  14.419  1.2236 -1.4126  0.7055
12683TIP3    H259465   0.490   5.829  14.479  0.5503 -0.6088 -1.3998
12684TIP3   OH259466   1.147   0.051   2.441 -0.1467 -0.6832 -0.3332
12684TIP3    H159467   1.071  -0.007   2.428  0.0408 -1.6076  2.1101
12684TIP3    H259468   1.223  -0.006   2.429  0.2105  0.1191 -2.2362
12685TIP3   OH259469   2.002   0.494  14.562  0.1073  0.3610 -0.1292
12685TIP3    H159470   2.071   0.431  14.584  0.0371 -0.1283 -1.2771
12685TIP3    H259471   1.976   0.531  14.647  0.1763 -1.1150  0.5609
12686TIP3   OH259472   0.005   6.415   0.854 -0.0770 -0.5069 -0.8217
12686TIP3    H159473  -0.013   6.494   0.905 -2.6910 -2.2745  1.3164
12686TIP3    H259474  -0.069   6.406   0.795  0.1627 -1.3678 -1.0105
12687TIP3   OH259475   7.109   1.758   3.180 -0.3115 -0.9122  0.1355
12687TIP3    H159476   7.045   1.739   3.111  0.1503 -1.3902 -0.1695
12687TIP3    H259477   7.078   1.839   3.219 -0.7760 -0.8175 -0.4063
12688TIP3   OH259478   6.693   2.991  12.979 -0.0578  0.2238 -0.0097
12688TIP3    H159479   6.748   2.960  12.908 -0.6982 -1.2029  0.0782
12688TIP3    H259480   6.619   3.033  12.936  0.5985  1.2860 -0.1364
12689TIP3   OH259481   3.028   4.671  11.922 -0.3070 -0.3541 -0.3499
12689TIP3    H159482   3.101   4.712  11.875 -0.2333  1.5239  1.2839
12689TIP3    H259483   2.951   4.720  11.893 -0.8418 -1.7124 -1.3439
12690TIP3   OH259484   6.920   0.167   5.357  0.1768  0.2436 -0.0287
12690TIP3    H159485   7.010   0.145   5.377  0.0201  0.8432  1.4395
12690TIP3    H259486   6.869   0.092   5.388  0.1608 -0.1036 -0.8737
12691TIP3   OH259487   3.494   1.559   1.662  0.4350  0.5266  1.0587
12691TIP3    H159488   3.419   1.565   1.603  1.8148  0.2270 -0.7960
12691TIP3    H259489   3.455   1.563   1.750 -2.0218 -2.0762  0.2507
12692TIP3   OH259490   1.752   6.562   3.844 -0.2042  0.0900  0.3878
12692TIP3    H159491   1.810   6.563   3.768 -0.9941 -0.3317 -0.2482
12692TIP3    H259492   1.699   6.641   3.835  0.9151  1.0048  1.5105
12693TIP3   OH259493   5.298   3.778   2.743 -0.0469  0.9529 -0.4926
12693TIP3    H159494   5.373   3.837   2.742 -0.4065  1.4209 -0.8102
12693TIP3    H259495   5.263   3.783   2.654 -0.4980  0.8051 -0.3282
12694TIP3   OH259496   6.734   0.221  15.190 -0.2177 -0.3846  0.1623
12694TIP3    H159497   6.750   0.299  15.243  1.4007  0.8316 -1.9661
12694TIP3    H259498   6.639   0.222  15.175 -0.0633  2.1345 -1.1251
12695TIP3   OH259499   4.143   6.591   1.654 -0.1890 -0.4616  0.3232
12695TIP3    H159500   4.201   6.530   1.609 -1.6805 -2.7760  1.3164
12695TIP3    H259501   4.194   6.671   1.665  0.9641 -0.4955 -3.4731
12696TIP3   OH259502   6.643   4.757  12.039  0.4074 -0.3749 -0.1626
12696TIP3    H159503   6.583   4.831  12.035 -1.3010 -1.7869 -2.1795
12696TIP3    H259504   6.587   4.680  12.042  2.1185 -1.7036 -0.5623
12697TIP3   OH259505   3.914   2.381   3.261 -0.4224  0.5760 -0.1433
12697TIP3    H159506   3.868   2.414   3.183 -1.1280 -1.3441 -0.5916
12697TIP3    H259507   4.006   2.375   3.234 -0.8242 -1.1999 -1.2848
12698TIP3   OH259508   1.178   3.491   3.382  0.2879  0.3414  0.3065
12698TIP3    H159509   1.119   3.419   3.403  0.1591  0.6971  1.1747
12698TIP3    H259510   1.210   3.470   3.294  0.6802 -1.0693  0.7491
12699TIP3   OH259511   2.113   0.027  13.142 -0.3000 -0.0273  0.4582
12699TIP3    H159512   2.117  -0.053  13.195  0.4553  0.1839  0.7272
12699TIP3    H259513   2.124   0.097  13.206 -0.3705  0.2703  0.1415
12700TIP3   OH259514   6.049   5.630   1.551 -0.3560 -0.8107 -0.0989
12700TIP3    H159515   6.066   5.698   1.486  0.8524 -0.9715  0.0194
12700TIP3    H259516   6.121   5.568   1.539  0.6818 -0.1919  2.2497
12701TIP3   OH259517   2.460   4.266   3.707  0.2909 -0.7501 -0.3699
12701TIP3    H159518   2.501   4.348   3.680 -0.5736 -0.4323 -0.7202
12701TIP3    H259519   2.486   4.203   3.640  0.4869 -0.6351 -0.4034
12702TIP3   OH259520   5.102   1.064  14.579 -0.6128  0.4013  0.5787
12702TIP3    H159521   5.136   1.049  14.667 -0.6378  1.0561  0.7058
12702TIP3    H259522   5.016   1.104  14.592  0.4740  3.0229  0.3203
12703TIP3   OH259523   7.165   4.677   1.435  0.1767  0.4891  0.1640
12703TIP3    H159524   7.123   4.703   1.353 -0.0131  0.2025  0.1701
12703TIP3    H259525   7.119   4.728   1.502 -0.3174  0.0191  0.1951
12704TIP3   OH259526   4.823   3.098   5.231  0.1971 -0.0749  0.0396
12704TIP3    H159527   4.884   3.043   5.279 -1.8770 -1.5089  1.1665
12704TIP3    H259528   4.841   3.187   5.263  0.2801 -0.7360  1.9674
12705TIP3   OH259529   6.786   5.267   1.895 -0.1271  0.0875  0.5453
12705TIP3    H159530   6.756   5.328   1.828  0.3513  0.6350  0.8293
12705TIP3    H259531   6.874   5.296   1.918  0.0567 -0.6238  0.7868
12706TIP3   OH259532   2.278   6.295  11.670  0.3869 -0.1855  0.0826
12706TIP3    H159533   2.239   6.230  11.611 -0.3703  0.1488  0.2111
12706TIP3    H259534   2.239   6.378  11.644  1.5372  0.2762 -0.2419
12707TIP3   OH259535   1.172   0.031  14.175 -0.3818  0.1231 -0.2481
12707TIP3    H159536   1.090   0.080  14.166 -0.0002  0.6621 -0.8876
12707TIP3    H259537   1.184  -0.013  14.091 -1.2489 -1.9665  0.6549
12708TIP3   OH259538   6.506   5.444  12.977 -0.0875 -0.3517  0.3462
12708TIP3    H159539   6.572   5.399  12.923  0.2008 -1.1949  1.3717
12708TIP3    H259540   6.550   5.461  13.060 -0.2251  1.7978  0.0308
12709TIP3   OH259541   5.667   2.620  11.756  0.0063  0.0077 -0.3901
12709TIP3    H159542   5.642   2.695  11.701  0.2363  1.3627  1.2519
12709TIP3    H259543   5.745   2.585  11.714 -0.4995  0.2468 -1.5720
12710TIP3   OH259544   2.624   2.942   5.803  0.4599 -0.3866  0.3395
12710TIP3    H159545   2.591   2.883   5.871 -0.0414 -0.8455 -0.2883
12710TIP3    H259546   2.702   2.982   5.842 -0.5790  0.4045  1.7031
12711TIP3   OH259547   2.435   0.390  10.110  0.2565  0.1096 -1.1155
12711TIP3    H159548   2.467   0.303  10.136  1.3489  0.9993  0.7534
12711TIP3    H259549   2.345   0.393  10.144  0.6856  0.1756  0.0762
12712TIP3   OH259550   4.730   3.228   2.864 -0.0574  0.0436  0.2321
12712TIP3    H159551   4.822   3.201   2.868 -0.2206 -0.8534 -1.1891
12712TIP3    H259552   4.727   3.311   2.911  1.3966 -0.1370  0.6850
12713TIP3   OH259553   5.467   4.784  14.063  0.1458  0.4681 -0.2992
12713TIP3    H159554   5.419   4.856  14.103  1.3121  0.4760  1.1496
12713TIP3    H259555   5.534   4.827  14.010 -1.3600  0.4572 -2.3265
12714TIP3   OH259556   1.305   6.513  12.671 -0.6379  0.2305 -0.2459
12714TIP3    H159557   1.357   6.451  12.620 -1.5242 -1.3454  0.6594
12714TIP3    H259558   1.215   6.483  12.660 -1.1163  1.4882  0.0885
12715TIP3   OH259559   2.919   2.229  14.709  0.1688 -0.7348 -0.0078
12715TIP3    H159560   2.915   2.292  14.637 -0.1120 -2.3059 -1.4343
12715TIP3    H259561   2.828   2.204  14.725  0.2766 -0.7983  0.5418
12716TIP3   OH259562   0.162   6.997   2.773 -0.1244  0.1169  0.2162
12716TIP3    H159563   0.237   7.028   2.823  0.7780 -2.1025  0.3531
12716TIP3    H259564   0.112   6.944   2.835 -1.3319  0.8009 -0.1352
12717TIP3   OH259565   6.701   2.373   3.080  0.1255  0.4312 -0.1851
12717TIP3    H159566   6.789   2.338   3.092  0.1871  0.9488  0.9381
12717TIP3    H259567   6.710   2.440   3.012  0.7852  1.1256  0.5671
12718TIP3   OH259568   1.802   5.612   2.477 -0.2418 -0.4158  0.2604
12718TIP3    H159569   1.833   5.601   2.387 -0.0333  1.4418  0.0621
12718TIP3    H259570   1.715   5.650   2.467 -0.4607 -0.7461  0.8623
12719TIP3   OH259571   4.813   1.723  13.688  0.2713  0.0952 -0.1265
12719TIP3    H159572   4.840   1.668  13.615  0.4885 -0.4556  0.3663
12719TIP3    H259573   4.718   1.729  13.679  0.3191  0.2157 -0.5797
12720TIP3   OH259574   0.515   0.436   4.269  0.2848 -0.0852  0.2312
12720TIP3    H159575   0.583   0.374   4.293  2.4582  2.2568  0.5636
12720TIP3    H259576   0.551   0.484   4.194 -1.7797  0.0754 -0.7511
12721TIP3   OH259577   1.624   5.470  15.291 -0.0985  0.0046  0.6200
12721TIP3    H159578   1.628   5.375  15.292  1.0124  0.0382  0.6087
12721TIP3    H259579   1.663   5.495  15.207  0.1274  0.4770  0.8575
12722TIP3   OH259580   6.568   6.698   2.962  0.0497 -0.2872 -0.2519
12722TIP3    H159581   6.567   6.611   3.001 -0.8894  0.3406  1.1878
12722TIP3    H259582   6.660   6.713   2.938  0.3914 -1.2588  0.4225
12723TIP3   OH259583   3.940   6.084  11.931  0.1582 -0.1742 -0.4965
12723TIP3    H159584   3.919   6.173  11.902 -1.3821  0.0975  1.2284
12723TIP3    H259585   3.901   6.027  11.865 -0.3349  0.4398 -0.7449
12724TIP3   OH259586   6.061   4.150   3.772  0.0750  0.5234  0.3064
12724TIP3    H159587   6.092   4.062   3.755 -0.6332 -0.1764  2.2813
12724TIP3    H259588   5.966   4.145   3.760  0.0710  1.1228  0.0464
12725TIP3   OH259589   2.905   5.664   4.392  0.3201  0.0403 -0.2812
12725TIP3    H159590   2.981   5.630   4.439  0.0572  1.1198  1.0051
12725TIP3    H259591   2.851   5.587   4.375 -0.2527 -0.2926  2.5078
12726TIP3   OH259592   5.870   2.248  14.144 -0.0928  0.6438 -0.1301
12726TIP3    H159593   5.942   2.240  14.081  0.2930 -0.5280  0.4330
12726TIP3    H259594   5.913   2.260  14.229 -0.5657 -0.0480  0.2109
12727TIP3   OH259595   2.661   4.326   1.768  0.2328  0.4771  0.2161
12727TIP3    H159596   2.737   4.270   1.785 -0.8747 -0.6882  1.5441
12727TIP3    H259597   2.660   4.387   1.841 -1.7942 -1.4771  1.9599
12728TIP3   OH259598   6.215   0.128   3.888  0.2830  0.1444 -0.1867
12728TIP3    H159599   6.248   0.061   3.947 -4.0907 -2.4946 -0.3219
12728TIP3    H259600   6.245   0.101   3.801  1.4569  0.4606  0.0985
12729TIP3   OH259601   2.105   0.542   1.977 -0.7596  0.0676 -0.5302
12729TIP3    H159602   2.067   0.489   1.907  0.2140 -3.1959  1.2332
12729TIP3    H259603   2.094   0.490   2.056  2.3456  1.4683  1.0029
12730TIP3   OH259604   3.726   1.411   1.701  0.5403 -0.5097  0.0081
12730TIP3    H159605   3.762   1.491   1.740  1.3108 -0.7343 -0.2286
12730TIP3    H259606   3.655   1.441   1.645 -0.1171 -0.1157  1.0284
12731TIP3   OH259607   0.888   4.158   3.504 -0.4487 -0.4963  0.1746
12731TIP3    H159608   0.795   4.181   3.509 -0.5231 -0.1892 -1.8230
12731TIP3    H259609   0.928   4.233   3.460  1.0348  0.0290  2.2573
12732TIP3   OH259610   6.330   3.442   2.397  0.0284  0.3622 -0.0385
12732TIP3    H159611   6.358   3.398   2.478 -2.0017 -0.5659  0.2154
12732TIP3    H259612   6.379   3.398   2.328 -3.3084 -4.0202 -0.0720
12733TIP3   OH259613   6.732   3.432   2.159 -0.4027  0.2602 -0.6595
12733TIP3    H159614   6.805   3.490   2.139 -1.7348  2.4345  0.4038
12733TIP3    H259615   6.654   3.483   2.139 -1.6567 -0.7347  1.3015
12734TIP3   OH259616   3.305   5.880   2.470  0.2143  0.5286  0.0110
12734TIP3    H159617   3.388   5.908   2.509 -0.0757  0.4630  0.6987
12734TIP3    H259618   3.258   5.840   2.543  0.6584 -1.8841 -0.9295
12735TIP3   OH259619   1.526   2.560   3.575  0.0173  0.4292 -0.8471
12735TIP3    H159620   1.593   2.588   3.639  0.2444  0.5813 -1.1510
12735TIP3    H259621   1.495   2.641   3.536 -1.3270  0.4763  0.2476
12736TIP3   OH259622   3.285   1.028   4.137  0.1102  0.6074  0.4180
12736TIP3    H159623   3.286   0.947   4.187 -1.8697  0.5146  0.3795
12736TIP3    H259624   3.292   1.000   4.045 -2.1368  0.3250  0.2974
12737TIP3   OH259625   1.914   4.108  13.732 -0.0646  0.1607  0.0781
12737TIP3    H159626   1.819   4.094  13.731  0.1815 -2.4016  2.1863
12737TIP3    H259627   1.945   4.061  13.809  3.0368  0.2812 -0.9420
12738TIP3   OH259628   0.507   5.732  14.193  0.1657 -0.1689  0.1120
12738TIP3    H159629   0.469   5.782  14.120 -0.6614  1.5723  1.6367
12738TIP3    H259630   0.602   5.738  14.180  0.0213 -0.8093 -1.3728
12739TIP3   OH259631   7.000   0.541   2.586  0.2805 -0.6368  0.5209
12739TIP3    H159632   6.984   0.530   2.493  0.4296 -0.2783  0.4536
12739TIP3    H259633   7.046   0.625   2.594 -1.3380  0.2342  1.0866
12740TIP3   OH259634   1.506   4.581   2.487  0.4486  0.7245  0.5509
12740TIP3    H159635   1.512   4.551   2.577  1.0842  1.8042  0.8878
12740TIP3    H259636   1.597   4.581   2.456  0.2884  0.8442  0.0764
12741TIP3   OH259637   6.150   5.266  12.785  0.1730  0.4001  0.1933
12741TIP3    H159638   6.129   5.173  12.786 -1.1663  0.6715 -0.7760
12741TIP3    H259639   6.187   5.283  12.871 -0.2738 -0.8727  0.6553
12742TIP3   OH259640   0.490   2.756   1.007  0.0701  0.1287  0.1076
12742TIP3    H159641   0.571   2.772   1.055 -1.1501  0.1130  2.3299
12742TIP3    H259642   0.454   2.844   0.992  0.8232  0.1845 -1.5741
12743TIP3   OH259643   4.423   0.092   2.444  0.0413 -0.0057  0.0082
12743TIP3    H159644   4.517   0.111   2.433  0.0217 -0.0662 -0.2758
12743TIP3    H259645   4.399   0.137   2.524  0.4278 -0.3906  0.3510
12744TIP3   OH259646   5.996   2.677   4.522  0.1001 -0.3520  0.2776
12744TIP3    H159647   5.990   2.605   4.584  1.2323 -1.3655 -0.7339
12744TIP3    H259648   5.986   2.756   4.575 -0.0032 -1.2102  1.5786
12745TIP3   OH259649   4.279   6.396  14.656 -0.0151  0.9426 -0.4712
12745TIP3    H159650   4.274   6.360  14.745  0.6149  1.5835 -0.1639
12745TIP3    H259651   4.367   6.434  14.651 -0.1820  1.2360 -1.2442
12746TIP3   OH259652   4.694   3.080   4.591  0.3067  0.2521 -0.4341
12746TIP3    H159653   4.602   3.100   4.609  0.5412  0.5849  0.4082
12746TIP3    H259654   4.695   2.985   4.574 -0.5678  0.6095 -2.9604
12747TIP3   OH259655   6.505   4.811   2.203  0.6403  0.0707  0.1863
12747TIP3    H159656   6.583   4.767   2.237  0.4251  0.3708  1.1006
12747TIP3    H259657   6.446   4.740   2.177  1.1745 -0.1574 -0.4222
12748TIP3   OH259658   6.671   1.158  13.635  0.3573  0.8461  0.1709
12748TIP3    H159659   6.673   1.150  13.731 -1.0998 -0.4345  0.1335
12748TIP3    H259660   6.762   1.177  13.611  0.8519  0.6531  1.7700
12749TIP3   OH259661   4.762   3.259  12.144 -0.0129 -0.5218 -0.1857
12749TIP3    H159662   4.720   3.234  12.062 -0.5034 -0.6551  0.1021
12749TIP3    H259663   4.837   3.313  12.118 -0.1539 -0.5830 -0.7176
12750TIP3   OH259664   4.434   5.325  11.246  0.4083 -0.4274  0.2716
12750TIP3    H159665   4.494   5.399  11.236  1.1508 -0.9896  0.5076
12750TIP3    H259666   4.364   5.342  11.182  1.4776 -0.4125 -0.9372
12751TIP3   OH259667   0.405   6.483   0.548  0.7004 -0.4403 -0.0403
12751TIP3    H159668   0.354   6.454   0.623 -0.0202  0.9926  0.0595
12751TIP3    H259669   0.436   6.570   0.572 -1.0903  0.8712 -2.0639
12752TIP3   OH259670   0.706   5.851   9.929 -0.0069  0.1337 -0.5029
12752TIP3    H159671   0.728   5.937   9.965 -1.4229  0.4080 -0.2067
12752TIP3    H259672   0.610   5.848   9.934 -0.0131 -1.1748 -1.1809
12753TIP3   OH259673   6.720   1.049  10.403  0.2445 -0.1841  0.0930
12753TIP3    H159674   6.736   1.044  10.497 -0.2300 -0.8241  0.1424
12753TIP3    H259675   6.686   0.963  10.379  1.4722 -0.4307 -0.8856
12754TIP3   OH259676   1.855   1.734  12.128 -0.2126 -0.1527  0.5815
12754TIP3    H159677   1.834   1.769  12.214  0.7156 -0.6989  1.0398
12754TIP3    H259678   1.848   1.809  12.069 -0.7306  0.2483  1.1513
12755TIP3   OH259679   2.449   6.335  12.473  0.3699  0.2995  0.2948
12755TIP3    H159680   2.417   6.418  12.509  0.3092  0.8505 -0.9523
12755TIP3    H259681   2.528   6.359  12.424  0.4781 -0.4190  0.1036
12756TIP3   OH259682   6.749   1.485   2.776  0.2566 -0.2071  0.4499
12756TIP3    H159683   6.729   1.418   2.710 -0.7902  2.2257 -1.8789
12756TIP3    H259684   6.663   1.512   2.809  0.7413 -0.9722  2.4843
12757TIP3   OH259685   4.119   5.703   3.310 -0.1074  0.1789  0.2620
12757TIP3    H159686   4.167   5.785   3.308  0.6696 -0.2578  0.5664
12757TIP3    H259687   4.027   5.728   3.306  0.1419  1.0251 -0.5395
12758TIP3   OH259688   4.192   1.736   3.607 -0.3260 -0.2402 -0.2118
12758TIP3    H159689   4.117   1.716   3.663 -0.5942  3.1016  0.8061
12758TIP3    H259690   4.204   1.830   3.616  3.0460 -0.4210 -1.5882
12759TIP3   OH259691   2.992   6.442  11.878  0.2327 -0.3006  0.2018
12759TIP3    H159692   3.078   6.484  11.885  0.5739 -1.0339  0.5184
12759TIP3    H259693   2.939   6.504  11.827  0.6393  0.6347  0.8802
12760TIP3   OH259694   1.223   2.254   0.672 -0.0510  0.0474  0.3889
12760TIP3    H159695   1.167   2.194   0.720 -1.6839  1.2642  0.1055
12760TIP3    H259696   1.278   2.198   0.618  1.4524 -1.3399  3.1514
12761TIP3   OH259697   2.152   3.736  13.561 -0.6972  0.7572 -0.0124
12761TIP3    H159698   2.167   3.706  13.472  0.3045  0.3147  0.2873
12761TIP3    H259699   2.204   3.816  13.569  2.3136 -1.1143  1.2232
12762TIP3   OH259700   0.200   1.160   4.863 -0.0198 -0.2777 -0.0601
12762TIP3    H159701   0.168   1.222   4.798  0.0851  0.0154  0.1625
12762TIP3    H259702   0.131   1.094   4.869 -1.1204  0.9077  1.1854
12763TIP3   OH259703   1.900   0.127   0.766  0.3269  0.0987 -0.0943
12763TIP3    H159704   1.925   0.207   0.812  2.6318 -0.5804 -0.0538
12763TIP3    H259705   1.873   0.157   0.679  3.2690  0.8651 -0.8777
12764TIP3   OH259706   0.751   5.752   2.729  0.3953 -0.3862  0.1806
12764TIP3    H159707   0.843   5.779   2.734  0.7958 -1.7967  1.0761
12764TIP3    H259708   0.754   5.670   2.680 -0.6312  0.4826 -1.4238
12765TIP3   OH259709   4.677   2.908   3.448  0.4039  0.9655 -0.4079
12765TIP3    H159710   4.714   2.922   3.360  1.5042  2.2636  0.2132
12765TIP3    H259711   4.602   2.850   3.434  1.6319 -0.3534 -1.9745
12766TIP3   OH259712   3.943   1.902   1.256  0.1521  0.1421  0.0062
12766TIP3    H159713   3.999   1.842   1.305 -1.1732 -2.8676 -1.9209
12766TIP3    H259714   3.985   1.910   1.170 -0.5316  0.7069 -0.2814
12767TIP3   OH259715   0.821   6.845   4.039  0.4034 -0.3414 -1.1922
12767TIP3    H159716   0.835   6.936   4.065  1.3723 -0.2430 -1.9991
12767TIP3    H259717   0.852   6.841   3.949  1.5130 -1.7477 -0.7797
12768TIP3   OH259718   3.669   5.958  12.953  0.1714 -0.5575 -0.2872
12768TIP3    H159719   3.752   5.910  12.955  0.8867  0.6519  1.8029
12768TIP3    H259720   3.668   6.007  13.035 -2.6357 -0.5576 -0.2362
12769TIP3   OH259721   1.675   6.900   1.125  0.1498  0.5493 -0.0187
12769TIP3    H159722   1.595   6.892   1.073 -0.7512  1.2328  1.2023
12769TIP3    H259723   1.650   6.868   1.212  1.4621 -0.0536  0.1515
12770TIP3   OH259724   6.563   6.585   1.055  0.3972  0.0797  0.2747
12770TIP3    H159725   6.518   6.662   1.020  0.6223  0.3206  0.5158
12770TIP3    H259726   6.505   6.512   1.034 -0.0878  0.3859  0.5542
12771TIP3   OH259727   6.369   6.886   1.842  0.4308  0.1616  0.3894
12771TIP3    H159728   6.354   6.809   1.788 -1.9704  1.1227 -0.4357
12771TIP3    H259729   6.306   6.878   1.914  2.6413 -0.4060  2.4028
12772TIP3   OH259730   0.605   0.764   1.141 -0.5183 -0.2219 -0.5810
12772TIP3    H159731   0.679   0.812   1.106  0.8852 -1.8326  0.0169
12772TIP3    H259732   0.586   0.697   1.075  0.8570 -1.9941  0.6888
12773TIP3   OH259733   4.040   0.910   1.441  0.1615  0.6678  0.2954
12773TIP3    H159734   4.108   0.886   1.504 -0.8424 -0.0912  1.1258
12773TIP3    H259735   3.971   0.948   1.495 -0.6042  0.2396 -0.3751
12774TIP3   OH259736   1.261   6.925  10.423  0.4452 -0.2571  0.7743
12774TIP3    H159737   1.284   6.836  10.397  2.7197  0.2990  0.6899
12774TIP3    H259738   1.267   6.924  10.519 -1.2248 -0.5866  0.9040
12775TIP3   OH259739   4.487   4.392  10.335  0.4543 -0.6627  0.0530
12775TIP3    H159740   4.393   4.379  10.348  0.4421 -0.7112 -0.0814
12775TIP3    H259741   4.527   4.323  10.388  0.4160 -0.6205  0.1389
12776TIP3   OH259742   1.349   1.738   2.474 -0.2786 -0.1454 -0.7451
12776TIP3    H159743   1.288   1.812   2.486 -1.1824 -1.0603  0.5904
12776TIP3    H259744   1.380   1.747   2.384  0.2154  2.2834 -0.3959
12777TIP3   OH259745   5.519   0.204  14.863  0.2431  0.2815  0.0716
12777TIP3    H159746   5.429   0.187  14.890  0.2850 -2.8177 -1.2724
12777TIP3    H259747   5.573   0.160  14.928  0.6556  0.0820 -0.3929
12778TIP3   OH259748   0.192   2.062   2.291  0.4146 -0.0331 -0.9295
12778TIP3    H159749   0.148   2.022   2.217  0.3430  1.1120 -1.5361
12778TIP3    H259750   0.273   2.011   2.302  1.2281  0.7428 -2.8377
12779TIP3   OH259751   4.456   5.823   1.223 -0.0492 -0.1351 -0.3370
12779TIP3    H159752   4.495   5.859   1.303 -0.1238 -3.2106  1.2269
12779TIP3    H259753   4.362   5.823   1.239 -0.2950  1.5284 -1.5330
12780TIP3   OH259754   5.503   4.975   2.858  0.2185  0.3330 -0.0369
12780TIP3    H159755   5.418   4.935   2.880  0.2513  0.3986  0.2087
12780TIP3    H259756   5.561   4.900   2.841  0.2732  0.2766  0.3961
12781TIP3   OH259757   5.056   2.223   1.618  0.4052  0.5007  0.2495
12781TIP3    H159758   5.149   2.202   1.611  0.5554  1.2654 -0.2098
12781TIP3    H259759   5.054   2.310   1.658  0.0172  1.5468 -1.8607
12782TIP3   OH259760   0.082   6.916   4.990 -0.3952 -0.0321 -0.3147
12782TIP3    H159761   0.056   6.997   4.947  3.9460  1.6947 -0.1481
12782TIP3    H259762   0.057   6.929   5.082  0.9723  1.5808 -0.1211
12783TIP3   OH259763   1.245   6.148   2.630  0.3161  0.2848  0.8085
12783TIP3    H159764   1.239   6.154   2.726 -0.4029 -2.2348  0.9932
12783TIP3    H259765   1.273   6.059   2.614 -0.4080  0.4028 -1.3764
12784TIP3   OH259766   3.366   2.031   0.571  0.0772 -0.1905 -0.1565
12784TIP3    H159767   3.423   2.081   0.512 -0.1732 -0.7225 -0.8585
12784TIP3    H259768   3.386   2.066   0.658 -0.4086  1.4262 -0.6601
12785TIP3   OH259769   6.870   6.125  14.150 -0.5533 -0.6206 -0.5242
12785TIP3    H159770   6.963   6.115  14.131  0.0174  2.5858 -0.0575
12785TIP3    H259771   6.834   6.163  14.070 -1.8005 -2.9474 -1.1481
12786TIP3   OH259772   6.956   6.133   3.141  0.6134 -0.0982  0.1232
12786TIP3    H159773   6.894   6.087   3.198 -0.8399  0.9894 -0.5162
12786TIP3    H259774   6.964   6.220   3.180  1.6608 -0.1828  0.1213
12787TIP3   OH259775   2.348   1.921  13.867  0.6041  0.0718  0.4841
12787TIP3    H159776   2.285   1.856  13.837  0.7441  0.5849 -0.9965
12787TIP3    H259777   2.295   1.989  13.908  0.3716 -0.4472  1.0543
12788TIP3   OH259778   5.917   0.155   3.889 -0.2219 -0.0968  0.5777
12788TIP3    H159779   6.009   0.150   3.865 -0.3346 -1.0734  0.2816
12788TIP3    H259780   5.881   0.069   3.864 -1.5689  0.8011 -0.7983
12789TIP3   OH259781   5.192   3.221   2.383 -0.6490  0.0568  0.0540
12789TIP3    H159782   5.214   3.306   2.344 -0.0727 -0.3465 -0.5247
12789TIP3    H259783   5.276   3.184   2.411 -0.9964  0.0843  1.1766
12790TIP3   OH259784   1.644   0.785   5.261 -0.4895  0.2741  0.3727
12790TIP3    H159785   1.562   0.752   5.222 -0.2248 -0.7481  0.6365
12790TIP3    H259786   1.625   0.791   5.354  0.5705 -2.9250  0.9421
12791TIP3   OH259787   6.996   4.706   2.924 -0.2020  0.4200 -0.1987
12791TIP3    H159788   7.036   4.764   2.860 -0.8259  0.0726 -0.9199
12791TIP3    H259789   6.906   4.696   2.894 -0.0131 -1.2261 -0.3244
12792TIP3   OH259790   0.942   6.124   2.211  0.7594  1.1709  0.1924
12792TIP3    H159791   0.926   6.130   2.306  0.9982 -2.2446  0.5453
12792TIP3    H259792   0.856   6.103   2.174  1.3153 -1.3443  0.1887
12793TIP3   OH259793   5.612   7.189   2.976  0.7149 -0.2755  0.2191
12793TIP3    H159794   5.605   7.283   2.959 -1.5399 -0.2426  1.0155
12793TIP3    H259795   5.606   7.149   2.889  1.3083  0.2858 -0.0897
12794TIP3   OH259796   3.605   1.111  12.750 -0.1777 -0.5916 -0.3784
12794TIP3    H159797   3.544   1.185  12.750  1.0597  0.4511 -0.1486
12794TIP3    H259798   3.568   1.049  12.687 -0.9115  0.4921 -1.0325
12795TIP3   OH259799   5.790   3.124   4.621 -0.5619 -0.1654  0.0953
12795TIP3    H159800   5.780   3.178   4.699 -1.4219 -1.6445  1.0556
12795TIP3    H259801   5.801   3.187   4.549  0.8281  1.2083  1.4514
12796TIP3   OH259802   5.718   0.772   3.026 -0.6117  0.6403  0.2223
12796TIP3    H159803   5.625   0.781   3.007 -0.6447  0.7310  0.4364
12796TIP3    H259804   5.737   0.680   3.004 -1.0004  0.2969  1.2676
12797TIP3   OH259805   4.924   0.404   2.499 -0.2159 -0.2437  0.9206
12797TIP3    H159806   4.861   0.357   2.444  1.0719 -1.4312  0.3953
12797TIP3    H259807   4.958   0.337   2.558  2.0826 -0.1638 -0.2147
12798TIP3   OH259808   3.573   2.475   4.151 -0.5123  0.6020 -0.3328
12798TIP3    H159809   3.636   2.461   4.222 -1.7661 -0.6029  0.5948
12798TIP3    H259810   3.504   2.410   4.166 -1.0441  0.6053 -2.4270
12799TIP3   OH259811   1.727   0.899   3.128 -0.1299  0.2086 -0.8161
12799TIP3    H159812   1.659   0.832   3.132 -0.7219  0.7840 -1.0196
12799TIP3    H259813   1.704   0.952   3.052  0.3283  0.6368 -0.6628
12800TIP3   OH259814   4.440   0.350   0.162 -0.0478  0.3267  0.2750
12800TIP3    H159815   4.366   0.327   0.219 -0.7453 -0.5930 -0.9376
12800TIP3    H259816   4.423   0.440   0.135  0.2702  0.7625  1.4456
12801TIP3   OH259817   2.310   1.074   3.070  0.3040  0.2435  0.5061
12801TIP3    H159818   2.320   0.980   3.056  2.7502  0.3078  1.2598
12801TIP3    H259819   2.245   1.101   3.006 -1.7878 -2.1981  1.4272
12802TIP3   OH259820   4.111   7.085   2.644 -0.0043 -0.1979 -0.4939
12802TIP3    H159821   4.164   7.110   2.720 -1.5479 -1.6184  1.1462
12802TIP3    H259822   4.025   7.066   2.681 -0.8477 -0.7950 -2.6595
12803TIP3   OH259823   0.944   4.842   1.261  0.6802 -0.3789 -0.3644
12803TIP3    H159824   1.006   4.771   1.249  2.5829  0.9464  1.0014
12803TIP3    H259825   0.934   4.881   1.174 -0.4209 -2.2814 -1.1314
12804TIP3   OH259826   6.586   2.854   2.976  0.0352 -0.2245 -0.2659
12804TIP3    H159827   6.588   2.766   2.937 -1.9110  0.5685 -2.4213
12804TIP3    H259828   6.626   2.910   2.910 -0.7395  0.8038  0.1119
12805TIP3   OH259829   0.841   3.171   2.912  0.6284 -0.1236  0.0489
12805TIP3    H159830   0.883   3.113   2.975  0.0504 -1.1420 -0.4564
12805TIP3    H259831   0.791   3.233   2.965  0.4134 -0.7620  0.6107
12806TIP3   OH259832   1.338   1.372   2.232 -0.0545  0.2152  0.1913
12806TIP3    H159833   1.414   1.419   2.197 -0.5223  1.0758  0.3072
12806TIP3    H259834   1.312   1.313   2.161  1.9888 -1.6781  0.8806
12807TIP3   OH259835   2.159   4.201   1.475 -0.1865  0.0110  0.4864
12807TIP3    H159836   2.250   4.229   1.488  0.0283 -0.2486 -0.3936
12807TIP3    H259837   2.125   4.260   1.408  0.5860 -2.3152 -2.1847
12808TIP3   OH259838   2.818   3.964  10.973  0.0323 -0.1200  0.3123
12808TIP3    H159839   2.909   3.945  10.998 -0.4836 -2.8092  0.5253
12808TIP3    H259840   2.825   4.033  10.907  2.0526  1.1065  1.6754
12809TIP3   OH259841   1.569   3.436   2.343 -0.0405  0.3253 -0.2001
12809TIP3    H159842   1.526   3.506   2.295 -1.0899  0.0385  0.2823
12809TIP3    H259843   1.648   3.476   2.380 -0.2815  1.0683 -0.4776
12810TIP3   OH259844   4.232   3.050   2.701 -0.3318  0.1173  0.4362
12810TIP3    H159845   4.262   2.960   2.713 -1.4910 -0.0622  2.4664
12810TIP3    H259846   4.301   3.091   2.648  0.1297 -1.9709 -0.7102
12811TIP3   OH259847   6.214   0.049  13.532  0.1239  0.0924 -0.1250
12811TIP3    H159848   6.193   0.134  13.495 -0.3064  0.3039  0.5776
12811TIP3    H259849   6.252   0.069  13.618  0.6021 -0.4015 -0.2154
12812TIP3   OH259850   2.370   6.192   2.401  0.4839  0.0743  0.1287
12812TIP3    H159851   2.301   6.127   2.382  0.8487 -0.5762  0.9945
12812TIP3    H259852   2.444   6.140   2.430  0.2755  0.9564  2.4000
12813TIP3   OH259853   6.303   4.022   2.171 -0.3970 -0.2726  0.0735
12813TIP3    H159854   6.282   4.070   2.251  1.1152  0.7459 -0.1022
12813TIP3    H259855   6.398   4.023   2.167 -0.3923 -1.8279 -0.8523
12814TIP3   OH259856   5.632   1.574   0.078  0.1196  0.4827  0.0491
12814TIP3    H159857   5.649   1.584   0.172  1.4128  0.7399 -0.1913
12814TIP3    H259858   5.589   1.656   0.053 -0.6761  0.2134  0.4987
12815TIP3   OH259859   6.569   4.155  13.843 -0.2023 -0.1388  0.3088
12815TIP3    H159860   6.577   4.215  13.769  0.6075 -0.6997 -0.0721
12815TIP3    H259861   6.584   4.068  13.805 -2.5797 -0.7570  0.6061
12816TIP3   OH259862   1.290   6.208   3.627 -0.9505  0.1858  0.0743
12816TIP3    H159863   1.215   6.244   3.578  1.8173  1.8763 -3.3638
12816TIP3    H259864   1.365   6.260   3.598  2.1735 -3.4766  0.7488
12817TIP3   OH259865   2.367   6.991  12.595 -0.4282  0.0283 -0.3993
12817TIP3    H159866   2.335   6.902  12.599  1.9125 -0.8722  0.0920
12817TIP3    H259867   2.325   7.036  12.668  0.7948 -1.5919  1.3802
12818TIP3   OH259868   3.096   1.193   1.645  0.2278  0.3885 -0.2261
12818TIP3    H159869   3.047   1.185   1.728 -0.7904  0.1376 -0.8319
12818TIP3    H259870   3.029   1.213   1.580  0.9393  0.0223 -1.0868
12819TIP3   OH259871   1.656   6.770  14.007 -0.1861  0.0121  0.5524
12819TIP3    H159872   1.652   6.676  14.020  1.0237 -0.2702 -0.8232
12819TIP3    H259873   1.745   6.786  13.975  0.0485  1.7930  1.9060
12820TIP3   OH259874   0.517   4.457  14.291  0.1818 -0.2318  0.4711
12820TIP3    H159875   0.438   4.500  14.260  1.7401  2.1858 -0.3877
12820TIP3    H259876   0.572   4.448  14.214  1.6923  0.2905  1.4382
12821TIP3   OH259877   2.816   3.596   2.738 -0.4518  0.0802 -0.3637
12821TIP3    H159878   2.853   3.508   2.752 -1.1221  0.0514  1.5834
12821TIP3    H259879   2.891   3.655   2.742 -0.1378 -0.3020 -0.5425
12822TIP3   OH259880   4.078   4.051   3.447  0.1334 -0.3414 -0.3731
12822TIP3    H159881   4.129   4.131   3.461 -0.5293 -0.1200  0.9207
12822TIP3    H259882   3.992   4.082   3.418 -1.4965 -0.1907  3.8209
12823TIP3   OH259883   1.323   6.678   4.527  0.1173 -0.0566  0.4174
12823TIP3    H159884   1.388   6.746   4.541  0.1924  0.0841 -0.5444
12823TIP3    H259885   1.366   6.616   4.467  0.3584 -1.3980  1.8924
12824TIP3   OH259886   0.235   1.958   0.610  0.5180  0.2160  1.1496
12824TIP3    H159887   0.215   1.943   0.517  1.3674  0.5269  0.9035
12824TIP3    H259888   0.159   2.005   0.644  1.2406  2.3729 -0.0138
12825TIP3   OH259889   6.326   2.712  12.020 -0.1270  0.4022 -0.1230
12825TIP3    H159890   6.289   2.624  12.025 -1.1240  0.7801 -0.5818
12825TIP3    H259891   6.404   2.703  11.966 -0.4927 -0.1194 -0.5688
12826TIP3   OH259892   3.232   6.905  14.168  0.6997 -0.0276  0.4591
12826TIP3    H159893   3.291   6.833  14.186  1.5160  0.5178  0.0457
12826TIP3    H259894   3.250   6.929  14.076 -1.6243 -1.1739 -0.3683
12827TIP3   OH259895   0.721   3.951   2.258  0.8250 -0.0796  0.5105
12827TIP3    H159896   0.797   4.004   2.283 -0.5100  1.6353  1.0628
12827TIP3    H259897   0.679   3.928   2.341 -0.4053  0.7433  0.1349
12828TIP3   OH259898   5.764   4.257  13.745  0.9202 -0.1593  0.2158
12828TIP3    H159899   5.760   4.164  13.765 -1.0512 -0.1911 -0.0693
12828TIP3    H259900   5.761   4.261  13.649 -0.8254  0.1918  0.2504
12829TIP3   OH259901   1.780   1.646   0.780  1.0686 -0.2672  0.3051
12829TIP3    H159902   1.703   1.702   0.788  0.3465 -1.3061  0.9535
12829TIP3    H259903   1.822   1.651   0.866  1.2355 -0.3948  0.2312
12830TIP3   OH259904   2.605   1.641  13.019 -0.2500  0.0338 -0.0436
12830TIP3    H159905   2.655   1.659  12.939  3.1435  0.5178  1.9706
12830TIP3    H259906   2.555   1.721  13.034 -1.7000 -0.4035 -2.0659
12831TIP3   OH259907   0.796   3.575  14.915 -0.6851  0.1521  0.0592
12831TIP3    H159908   0.747   3.656  14.907 -1.6477 -0.4523 -0.3399
12831TIP3    H259909   0.818   3.550  14.825  0.8925  0.7082  0.2512
12832TIP3   OH259910   4.634   5.661  12.885 -0.3613 -0.2542  0.0065
12832TIP3    H159911   4.606   5.598  12.951  0.2274 -2.8352 -2.0353
12832TIP3    H259912   4.728   5.670  12.898 -0.2077 -0.9310 -0.5496
12833TIP3   OH259913   4.671   0.567   0.069  0.3206  0.0291 -0.4772
12833TIP3    H159914   4.766   0.570   0.059  0.5343 -1.4714  0.8178
12833TIP3    H259915   4.650   0.474   0.080 -1.1289  0.4358  0.5789
12834TIP3   OH259916   2.941   7.007   3.599  0.4777  0.3945 -0.2423
12834TIP3    H159917   2.849   6.984   3.585 -0.7733  4.9405 -1.3620
12834TIP3    H259918   2.987   6.969   3.524 -0.9525  0.1326 -1.0165
12835TIP3   OH259919   1.063   4.913   2.458 -0.2342  0.5568 -0.5128
12835TIP3    H159920   1.032   4.823   2.448  2.0580 -0.1142 -2.4630
12835TIP3    H259921   1.156   4.909   2.433 -0.0484  3.4470 -0.5598
12836TIP3   OH259922   2.447   0.399   2.985  0.0377 -0.2377 -0.1280
12836TIP3    H159923   2.454   0.383   2.891 -1.7348  1.0011 -0.5234
12836TIP3    H259924   2.353   0.400   3.002  0.2385  1.8723  1.1985
12837TIP3   OH259925   3.476   5.373  14.103 -0.3883  0.3430 -0.1758
12837TIP3    H159926   3.545   5.332  14.051 -1.2077  1.8415 -2.5848
12837TIP3    H259927   3.521   5.442  14.152  0.0278  0.5405 -0.8185
12838TIP3   OH259928   5.735   6.745  10.529  0.4158 -0.1786 -0.6942
12838TIP3    H159929   5.692   6.660  10.537  0.4640 -0.3499 -2.0337
12838TIP3    H259930   5.764   6.766  10.618  0.1438 -1.4191 -0.2951
12839TIP3   OH259931   5.278   6.572  13.028  0.1847  0.4209 -0.2963
12839TIP3    H159932   5.200   6.609  12.988  0.9012  1.6887 -0.5829
12839TIP3    H259933   5.323   6.646  13.067  0.9319 -0.3771  0.4162
12840TIP3   OH259934   1.527   6.545  14.400  0.3731 -0.1398 -0.0221
12840TIP3    H159935   1.459   6.591  14.450  1.1665 -0.0818  1.0370
12840TIP3    H259936   1.554   6.607  14.333 -0.2122  0.0536 -0.0830
12841TIP3   OH259937   0.750   0.906   2.772  0.1598  0.9004  0.0546
12841TIP3    H159938   0.761   0.824   2.821  0.6936  0.9645  0.0467
12841TIP3    H259939   0.690   0.884   2.701  0.5732  0.4250 -0.1550
12842TIP3   OH259940   1.828   3.647  14.208  0.6464 -0.5838  0.2989
12842TIP3    H159941   1.803   3.713  14.144 -0.1425 -1.7372 -0.6352
12842TIP3    H259942   1.905   3.605  14.170  0.4386 -0.9824  0.3165
12843TIP3   OH259943   6.469   4.260  12.089  0.0158 -0.5579 -0.3780
12843TIP3    H159944   6.478   4.172  12.052  0.6509 -1.0180  0.8097
12843TIP3    H259945   6.379   4.287  12.069 -1.5621 -3.0597  2.5059
12844TIP3   OH259946   1.331   7.129   4.746 -0.3303 -0.2178 -0.2371
12844TIP3    H159947   1.425   7.145   4.733 -0.4885  0.3820 -0.7221
12844TIP3    H259948   1.325   7.037   4.772  0.5278  0.1230  1.3286
12845TIP3   OH259949   3.493   2.628   3.757  0.2177  0.3659 -0.9923
12845TIP3    H159950   3.558   2.590   3.815 -0.1232  0.5316 -0.4913
12845TIP3    H259951   3.425   2.661   3.816  0.8751  2.4729 -1.3397
12846TIP3   OH259952   1.276   2.344  10.743  0.5798 -0.6372  0.0067
12846TIP3    H159953   1.351   2.284  10.746  1.4544  0.3194 -1.5186
12846TIP3    H259954   1.311   2.428  10.775 -0.3905 -0.6671  1.2347
12847TIP3   OH259955   0.575   0.597   0.156 -0.1081 -0.0366 -0.4283
12847TIP3    H159956   0.629   0.674   0.174  0.0779 -0.3100  0.1961
12847TIP3    H259957   0.606   0.531   0.218 -0.6622 -0.4297 -0.5674
12848TIP3   OH259958   7.123   4.850   2.223  0.3582 -0.5652  0.5254
12848TIP3    H159959   7.108   4.808   2.307 -2.9859 -1.0264 -0.1432
12848TIP3    H259960   7.088   4.789   2.158  1.7014  0.3056 -1.1143
12849TIP3   OH259961   6.639   3.929   3.735 -0.1026  0.2407  0.0334
12849TIP3    H159962   6.649   3.873   3.812  0.2500 -0.1005 -0.2571
12849TIP3    H259963   6.724   3.969   3.723  0.1469 -0.5108 -0.7888
12850TIP3   OH259964   0.207   6.994  15.210 -0.6788 -0.0092  0.5964
12850TIP3    H159965   0.119   6.961  15.192 -0.1384 -2.8419  2.4773
12850TIP3    H259966   0.264   6.919  15.193  1.2019  1.2423  1.0857
12851TIP3   OH259967   4.681   0.157  13.519  0.2801  0.5141  0.2343
12851TIP3    H159968   4.735   0.079  13.532  0.4479  0.8727  2.0392
12851TIP3    H259969   4.690   0.206  13.602  0.4556  2.6155 -0.9530
12852TIP3   OH259970   1.641   1.986   3.570  0.4724  0.0295  0.1769
12852TIP3    H159971   1.675   1.992   3.660  0.0537 -1.3161  0.4469
12852TIP3    H259972   1.580   1.912   3.573  0.4363 -0.0112 -1.2170
12853TIP3   OH259973   2.535   4.980  10.232 -0.1028 -0.0797  0.0919
12853TIP3    H159974   2.454   4.986  10.282 -1.2214 -0.0868 -1.6181
12853TIP3    H259975   2.547   4.887  10.217  0.2075 -0.0754  0.3138
12854TIP3   OH259976   4.947   6.933   3.620 -0.6237  0.1761  0.4585
12854TIP3    H159977   5.006   6.918   3.694  1.1110  0.2973 -0.8246
12854TIP3    H259978   4.980   7.013   3.579 -1.3599 -0.0361 -0.6023
12855TIP3   OH259979   6.553   4.033  11.305  0.4980  0.0579 -0.1775
12855TIP3    H159980   6.549   3.981  11.385  1.9987  0.3556  0.1170
12855TIP3    H259981   6.520   4.119  11.331  0.8498  0.1134  0.0930
12856TIP3   OH259982   5.351   5.356  12.231  0.0833 -0.1517  0.5081
12856TIP3    H159983   5.399   5.360  12.148  0.9046  0.6793  1.0057
12856TIP3    H259984   5.277   5.415  12.218 -0.8022 -1.4009 -0.2453
12857TIP3   OH259985   1.755   6.686   0.959  0.6369  0.4964 -0.3778
12857TIP3    H159986   1.809   6.726   1.026 -0.0128 -0.1706  0.5749
12857TIP3    H259987   1.714   6.611   1.002  0.9092 -0.5034 -1.7686
12858TIP3   OH259988   7.190   2.882   1.430  0.4728  0.0551  0.3043
12858TIP3    H159989   7.283   2.878   1.408  0.4433 -2.1316  0.3843
12858TIP3    H259990   7.150   2.811   1.379 -1.4030  1.7505 -0.7357
12859TIP3   OH259991   1.294   4.975  14.979 -0.1170 -0.5154  0.3624
12859TIP3    H159992   1.219   5.014  14.935 -0.5600 -0.4762  1.1331
12859TIP3    H259993   1.328   5.044  15.036  0.1876 -0.6939  0.4023
12860TIP3   OH259994   1.462   1.139   0.865 -0.2554  0.3321  0.3573
12860TIP3    H159995   1.495   1.192   0.937 -1.0886 -0.2293  1.1748
12860TIP3    H259996   1.402   1.077   0.906 -3.0028  1.8299 -1.1221
12861TIP3   OH259997   1.421   3.807   3.343 -0.3027 -0.0103 -0.0706
12861TIP3    H159998   1.448   3.745   3.275 -0.2769  0.7432 -0.7745
12861TIP3    H259999   1.456   3.891   3.313  1.3488  0.0523  1.8259
12862TIP3   OH260000   3.728   5.893   3.984 -0.0962 -0.2277  0.5918
12862TIP3    H160001   3.721   5.944   4.064  0.2925 -0.2275  0.6261
12862TIP3    H260002   3.659   5.928   3.927 -0.0387  0.1123  0.7334
12863TIP3   OH260003   4.155   6.447  12.592 -0.0908  0.3625 -0.2150
12863TIP3    H160004   4.092   6.479  12.527  0.9964  0.1203 -1.4322
12863TIP3    H260005   4.217   6.395  12.541 -0.4603 -1.7438  1.3501
12864TIP3   OH260006   2.991   5.492   3.415 -0.0020 -0.6610 -0.2384
12864TIP3    H160007   3.066   5.498   3.356  0.7751 -0.0062  0.7647
12864TIP3    H260008   2.999   5.406   3.456  1.4946  0.2228  1.4585
12865TIP3   OH260009   1.307   2.629  11.248  0.4060 -0.8201 -0.1987
12865TIP3    H160010   1.379   2.566  11.241  4.4667  3.2230  0.1815
12865TIP3    H260011   1.295   2.662  11.159  2.8868  2.0072  0.3295
12866TIP3   OH260012   5.186   5.989  10.541  0.4848  0.8625 -0.2689
12866TIP3    H160013   5.123   6.035  10.486 -0.7363 -1.6989 -1.1340
12866TIP3    H260014   5.194   5.902  10.502 -0.2797 -1.0588  3.4077
12867TIP3   OH260015   6.906   1.088   2.458 -0.2802  0.5913 -0.0011
12867TIP3    H160016   6.996   1.114   2.437  0.1671 -1.1408 -0.4117
12867TIP3    H260017   6.880   1.031   2.386 -0.5539 -1.3995  1.5926
12868TIP3   OH260018   2.918   4.987  11.418 -0.1405 -0.5131 -0.4641
12868TIP3    H160019   2.838   5.015  11.372  0.0020 -0.4647 -0.6822
12868TIP3    H260020   2.937   4.901  11.382 -0.6223 -0.9280  0.2611
12869TIP3   OH260021   7.149   1.681   2.854 -0.1254 -0.0892 -0.8227
12869TIP3    H160022   7.222   1.715   2.905  0.9196 -0.6728 -1.8912
12869TIP3    H260023   7.074   1.736   2.879  0.6182  0.3930  0.4249
12870TIP3   OH260024   6.935   4.443  13.914  0.1952  0.5593  0.1009
12870TIP3    H160025   6.991   4.472  13.842  1.0325  0.8835  0.8681
12870TIP3    H260026   6.886   4.521  13.939 -0.8098  0.2194 -0.7295
12871TIP3   OH260027   3.108   0.596   1.047  0.7517 -0.3952  0.2150
12871TIP3    H160028   3.114   0.692   1.052 -3.8353  0.0387  2.4160
12871TIP3    H260029   3.193   0.565   1.077  1.4025  3.0571  2.5213
12872TIP3   OH260030   6.422   4.720   2.752 -0.3682  0.1765  0.0859
12872TIP3    H160031   6.420   4.814   2.731  3.0380  0.3085 -0.2300
12872TIP3    H260032   6.388   4.715   2.841  2.1449  2.2174  1.2815
12873TIP3   OH260033   1.634   0.692   6.295 -0.2181 -0.2548  0.3155
12873TIP3    H160034   1.549   0.648   6.300  1.9637 -5.2160  0.3807
12873TIP3    H260035   1.658   0.709   6.387 -1.4954  2.3814  0.2539
12874TIP3   OH260036   3.078   4.485  13.482  0.0335 -0.2485  0.0184
12874TIP3    H160037   3.007   4.432  13.519  1.6986 -2.1545  0.7110
12874TIP3    H260038   3.095   4.551  13.549 -0.1992 -0.6200  0.4523
12875TIP3   OH260039   2.050   3.567  14.603  0.6726  0.1219  0.2669
12875TIP3    H160040   2.075   3.513  14.678 -0.7933 -0.0127  0.7021
12875TIP3    H260041   2.130   3.575  14.551  1.5621 -0.3042  1.5194
12876TIP3   OH260042   3.197   5.346   0.262  0.4453 -0.1376  0.9214
12876TIP3    H160043   3.280   5.377   0.296  0.3196 -1.0898  2.1650
12876TIP3    H260044   3.204   5.250   0.265 -0.8428 -0.2345  1.4542
12877TIP3   OH260045   5.573   6.220  14.553  0.1734  0.5033  0.4964
12877TIP3    H160046   5.561   6.268  14.471 -2.0456  2.8129  2.0034
12877TIP3    H260047   5.543   6.131  14.533 -0.8535  1.1553 -1.0721
12878TIP3   OH260048   4.046   1.223   3.132 -0.6596  0.4871  1.5114
12878TIP3    H160049   3.968   1.257   3.088  0.2342 -0.7203 -1.1636
12878TIP3    H260050   4.116   1.284   3.109  0.7882 -2.3209 -2.6939
12879TIP3   OH260051   2.435   6.622   1.103 -0.2231 -0.0982 -0.6660
12879TIP3    H160052   2.507   6.585   1.154 -1.2217 -0.7798  0.3156
12879TIP3    H260053   2.462   6.613   1.012  1.5456  0.9915 -0.2950
12880TIP3   OH260054   2.743   4.913   4.368  0.4042 -0.0973  0.3023
12880TIP3    H160055   2.651   4.889   4.374  0.2929 -0.2858 -1.5242
12880TIP3    H260056   2.757   4.973   4.441 -1.0349 -0.4269  0.8861
12881TIP3   OH260057   5.188   4.250  11.947 -0.0960 -0.5486  0.1411
12881TIP3    H160058   5.127   4.313  11.984  1.9597  3.1836 -2.2167
12881TIP3    H260059   5.259   4.244  12.012 -0.4344 -0.7268  0.5019
12882TIP3   OH260060   3.387   2.325   1.915  0.2379  0.5110  0.3915
12882TIP3    H160061   3.379   2.399   1.856 -2.0006 -0.6417 -0.8964
12882TIP3    H260062   3.417   2.253   1.859 -0.2664 -0.1940  0.9998
12883TIP3   OH260063   1.164   6.355   3.997  1.1086 -0.9246  0.2768
12883TIP3    H160064   1.206   6.278   4.034  1.0317 -1.4325 -0.6641
12883TIP3    H260065   1.125   6.324   3.916  0.0981 -0.1488  0.4460
12884TIP3   OH260066   3.032   7.164   0.306 -0.5111 -0.2534  0.1656
12884TIP3    H160067   2.974   7.180   0.232 -0.6317  0.4112  0.3932
12884TIP3    H260068   3.119   7.160   0.268 -0.7398 -1.9340 -0.2698
12885TIP3   OH260069   3.101   1.285   1.272  0.0740 -0.0958  0.2266
12885TIP3    H160070   3.040   1.293   1.345 -1.4369 -0.4892 -0.9366
12885TIP3    H260071   3.143   1.200   1.284 -1.4838 -0.9793 -0.2786
12886TIP3   OH260072   4.553   6.143  10.364  0.1798  0.2367 -0.1417
12886TIP3    H160073   4.628   6.141  10.304  1.1929  0.5843  1.0601
12886TIP3    H260074   4.503   6.065  10.341  0.3855  0.4907 -1.5980
12887TIP3   OH260075   4.447   4.187  11.295  0.0237  0.8487 -0.8943
12887TIP3    H160076   4.499   4.120  11.337 -0.7850  0.6118 -0.2430
12887TIP3    H260077   4.368   4.194  11.349 -1.6980 -0.4061 -3.0452
12888TIP3   OH260078   0.563   1.583   4.367 -0.0260  0.0171  0.0652
12888TIP3    H160079   0.645   1.631   4.353  0.3897 -0.4260  0.9001
12888TIP3    H260080   0.591   1.491   4.377 -0.8318 -0.4880 -1.8594
12889TIP3   OH260081   6.811   5.526   2.552 -0.6392 -0.4156 -0.2140
12889TIP3    H160082   6.853   5.471   2.618 -1.2226 -1.2198 -0.4871
12889TIP3    H260083   6.829   5.616   2.579  0.8525 -0.7354 -0.0793
12890TIP3   OH260084   3.134   5.432   3.976 -0.3914  0.0175  0.6536
12890TIP3    H160085   3.207   5.435   4.038  0.3878  1.7240 -0.2915
12890TIP3    H260086   3.075   5.501   4.006 -0.9312 -0.3984  0.5669
12891TIP3   OH260087   1.151   6.569   9.407 -0.0723 -0.4251  0.1925
12891TIP3    H160088   1.172   6.505   9.339  0.6934 -0.4223  0.4234
12891TIP3    H260089   1.221   6.560   9.472 -0.1894  0.3421  0.4383
12892TIP3   OH260090   7.114   0.431  14.547 -0.0799  0.0220  0.1647
12892TIP3    H160091   7.173   0.367  14.507  0.2716 -0.4417  1.3912
12892TIP3    H260092   7.132   0.513  14.500  0.1850 -0.5434 -0.7362
12893TIP3   OH260093   6.176   5.529  11.273 -0.2355 -0.3569 -0.2789
12893TIP3    H160094   6.227   5.477  11.335 -1.1454 -0.3484  0.5054
12893TIP3    H260095   6.085   5.510  11.295 -0.6128  1.9065  0.3560
12894TIP3   OH260096   4.760   4.638   4.140 -0.2568  0.4898 -0.1003
12894TIP3    H160097   4.674   4.609   4.171 -0.4484  0.6766 -0.4481
12894TIP3    H260098   4.746   4.729   4.112 -0.5753 -0.2535 -2.5818
12895TIP3   OH260099   6.100   1.645  14.154 -1.0391  0.1127  0.1913
12895TIP3    H160100   6.154   1.720  14.127 -0.5992 -0.0837  0.5162
12895TIP3    H260101   6.018   1.684  14.182 -0.0566  0.7229  2.4850
12896TIP3   OH260102   1.567   5.971   0.942  0.1352  0.2479 -0.4158
12896TIP3    H160103   1.654   6.012   0.944 -0.1579  0.8972 -0.8525
12896TIP3    H260104   1.584   5.880   0.966  0.8414  0.5323  0.2405
12897TIP3   OH260105   3.959   0.148  14.169  0.0476  0.3660 -0.7186
12897TIP3    H160106   4.005   0.131  14.251  0.0186  0.5925 -0.6539
12897TIP3    H260107   3.887   0.206  14.194  0.7088  1.3832 -1.0801
12898TIP3   OH260108   6.720   0.257   1.205  0.1090  0.0627  0.3073
12898TIP3    H160109   6.656   0.283   1.139  0.2621 -1.6099 -0.5589
12898TIP3    H260110   6.694   0.303   1.285  0.2099  2.5400 -1.0104
12899TIP3   OH260111   0.661   5.979  12.954 -0.0451  0.0300 -0.6002
12899TIP3    H160112   0.741   6.017  12.918  0.9819 -0.1180  1.4282
12899TIP3    H260113   0.690   5.899  12.998 -1.4287 -0.4279 -0.4792
12900TIP3   OH260114   6.602   2.153   2.937  0.3830  0.2535  0.4545
12900TIP3    H160115   6.570   2.213   2.870  2.3631 -1.0213 -1.7942
12900TIP3    H260116   6.617   2.208   3.014 -1.2355  1.9156 -0.3379
12901TIP3   OH260117   4.185   4.214   0.127 -0.2719 -0.3047 -0.2464
12901TIP3    H160118   4.228   4.143   0.079 -2.9543 -0.5102 -2.5857
12901TIP3    H260119   4.223   4.294   0.089 -1.9154 -0.4759 -2.4687
12902TIP3   OH260120   6.598   1.543   1.065  0.1113 -0.0759  0.0129
12902TIP3    H160121   6.677   1.585   1.030 -0.3979  0.7343 -0.1674
12902TIP3    H260122   6.610   1.450   1.045  0.3908  0.2126 -1.2347
12903TIP3   OH260123   2.195   4.731   1.278 -0.0868 -0.4727  0.3440
12903TIP3    H160124   2.257   4.752   1.348  0.0855 -0.2293  0.1224
12903TIP3    H260125   2.250   4.712   1.202 -0.2531 -1.3845  0.4406
12904TIP3   OH260126   0.669   1.102  11.401  0.1628 -0.3884 -0.2064
12904TIP3    H160127   0.699   1.188  11.372 -0.1629 -0.2947 -0.2673
12904TIP3    H260128   0.583   1.092  11.360 -0.0028 -0.5455  0.1772
12905TIP3   OH260129   1.232   0.408   5.447 -0.8880 -0.5140 -0.1288
12905TIP3    H160130   1.324   0.389   5.427 -0.7313  1.5314 -1.6697
12905TIP3    H260131   1.224   0.394   5.541  1.8755  2.3639  0.6906
12906TIP3   OH260132   2.865   0.749  13.289  0.3164  0.5806 -0.2778
12906TIP3    H160133   2.784   0.753  13.238 -0.5991 -1.3314  0.8986
12906TIP3    H260134   2.935   0.749  13.223 -0.8081 -1.6855 -1.5834
12907TIP3   OH260135   4.033   3.489   2.581 -0.4389  0.4780  0.0063
12907TIP3    H160136   3.985   3.419   2.626  2.2293 -2.1532 -0.9636
12907TIP3    H260137   4.125   3.463   2.588  0.6465  3.6694 -0.9054
12908TIP3   OH260138   5.483   3.041   0.542 -1.2743 -0.0037  0.8347
12908TIP3    H160139   5.555   2.978   0.542 -0.5323  0.7708 -1.2843
12908TIP3    H260140   5.432   3.019   0.620  0.4211 -1.5194  1.5740
12909TIP3   OH260141   1.537   2.389   4.021  0.8575  0.2052  0.0338
12909TIP3    H160142   1.458   2.438   3.998  0.3379  0.0175  1.3040
12909TIP3    H260143   1.559   2.341   3.942 -2.4666 -2.6307  0.5599
12910TIP3   OH260144   4.415   6.992  11.372 -0.1651 -0.7716  0.6004
12910TIP3    H160145   4.382   7.082  11.378 -2.6315 -1.4132 -1.4992
12910TIP3    H260146   4.354   6.941  11.426  0.6316 -1.3278  0.9890
12911TIP3   OH260147   0.659   2.682   5.037 -0.0637  0.4733  0.1287
12911TIP3    H160148   0.730   2.722   5.088 -1.2620  1.2665  1.2377
12911TIP3    H260149   0.593   2.657   5.102 -0.1653 -1.6884 -0.7225
12912TIP3   OH260150   3.250   5.253  14.844 -0.3478  0.4429 -0.0076
12912TIP3    H160151   3.345   5.261  14.835 -0.0880 -0.2927  1.6988
12912TIP3    H260152   3.234   5.160  14.858 -1.1968  0.6877  0.8199
12913TIP3   OH260153   6.834   2.133   0.864  0.2559 -0.0994  0.1572
12913TIP3    H160154   6.886   2.152   0.786  0.5054 -0.1006  0.3253
12913TIP3    H260155   6.796   2.047   0.847 -0.1216  0.1315 -0.1967
12914TIP3   OH260156   6.138   1.365   1.297 -0.0159  1.0392 -0.2542
12914TIP3    H160157   6.203   1.374   1.367  1.0075  1.5860 -1.2256
12914TIP3    H260158   6.190   1.364   1.216 -1.1661  0.5705 -1.0225
12915TIP3   OH260159   5.668   4.296  11.806  0.2398 -0.0278 -0.8481
12915TIP3    H160160   5.576   4.270  11.803  0.1534  0.1287  0.1600
12915TIP3    H260161   5.709   4.245  11.736 -0.1141 -2.1785  0.4090
12916TIP3   OH260162   1.524   5.560   2.742  0.6233  0.6236 -0.0447
12916TIP3    H160163   1.521   5.609   2.660 -0.8900  0.5437 -0.0579
12916TIP3    H260164   1.557   5.473   2.716  1.1803  0.9323 -0.3824
12917TIP3   OH260165   5.934   4.773   0.972  0.3747  0.0161 -0.2031
12917TIP3    H160166   5.852   4.727   0.990  0.2779  0.6199  1.0072
12917TIP3    H260167   5.953   4.753   0.880 -0.6973 -0.7917 -0.2707
12918TIP3   OH260168   1.295   6.045  11.130 -0.2551  0.2203  0.4889
12918TIP3    H160169   1.279   6.084  11.044  1.8463  0.1182 -0.0170
12918TIP3    H260170   1.347   5.966  11.111 -0.6008 -0.3424  1.7902
12919TIP3   OH260171   0.242   6.361  14.282 -0.1865 -0.0389  0.4126
12919TIP3    H160172   0.230   6.446  14.240 -1.1099  0.3745  1.4686
12919TIP3    H260173   0.328   6.332  14.253  0.6234  1.7540  0.8685
12920TIP3   OH260174   2.950   6.206   2.929  0.0349 -0.1027  0.1908
12920TIP3    H160175   3.006   6.276   2.895  2.5886 -2.0215  0.1688
12920TIP3    H260176   2.898   6.178   2.854 -0.1668  0.9674 -0.0818
12921TIP3   OH260177   1.202   5.027   1.250  0.6491  0.2714 -0.3837
12921TIP3    H160178   1.110   5.018   1.275  0.7861  0.8854  0.4002
12921TIP3    H260179   1.241   4.942   1.267  0.4780  0.3498  0.4193
12922TIP3   OH260180   2.898   5.645  14.738  0.4491  0.0329  0.2723
12922TIP3    H160181   2.989   5.669  14.717  0.6286 -2.1708 -1.8866
12922TIP3    H260182   2.905   5.558  14.777 -0.7292  0.1112  0.7048
12923TIP3   OH260183   3.104   5.078   2.744 -0.0235  0.1375  0.0332
12923TIP3    H160184   3.133   4.991   2.772 -0.1867  0.4113  1.0989
12923TIP3    H260185   3.110   5.075   2.648 -2.6744 -1.9969 -0.1776
12924TIP3   OH260186   6.435   1.125   2.147  0.2523 -0.3185 -0.2780
12924TIP3    H160187   6.492   1.050   2.168  1.2773  0.3151 -0.7580
12924TIP3    H260188   6.413   1.113   2.055 -0.6440 -0.7053 -0.0293
12925TIP3   OH260189   6.541   6.027  13.938 -0.0255 -0.1477  1.0042
12925TIP3    H160190   6.609   5.963  13.918 -0.3827 -1.1721  2.7866
12925TIP3    H260191   6.588   6.099  13.979  0.2797  0.3720 -0.2298
12926TIP3   OH260192   3.343   3.862  14.982 -0.4684 -0.1138 -0.1998
12926TIP3    H160193   3.285   3.929  15.020 -0.6598  1.1046 -2.4723
12926TIP3    H260194   3.314   3.855  14.891  1.2063 -1.4902 -0.6661
12927TIP3   OH260195   3.582   1.540   4.459  0.4593 -0.0517 -0.5259
12927TIP3    H160196   3.516   1.572   4.521 -0.3161  1.0932 -1.8792
12927TIP3    H260197   3.565   1.446   4.452  1.3438 -0.4650  1.8636
12928TIP3   OH260198   4.028   3.905  13.761  0.5315 -0.4577  0.0418
12928TIP3    H160199   3.984   3.918  13.845  0.0249 -0.3161 -0.2434
12928TIP3    H260200   4.121   3.912  13.782  0.6905 -4.0103  1.2959
12929TIP3   OH260201   3.071   4.670   4.299  0.7479  0.1632  0.1571
12929TIP3    H160202   3.046   4.580   4.281 -1.2549  0.5320  0.8550
12929TIP3    H260203   3.119   4.665   4.383  1.2630 -0.3107 -0.1574
12930TIP3   OH260204   4.258   0.688   0.528  0.0685  0.3576  0.6491
12930TIP3    H160205   4.166   0.663   0.536 -0.0133 -0.0681 -1.2403
12930TIP3    H260206   4.257   0.784   0.522 -0.0612  0.5069  2.4502
12931TIP3   OH260207   2.442   5.053  14.926  0.2352 -0.3870 -0.0019
12931TIP3    H160208   2.411   5.084  15.011  0.8773  1.9194 -0.5475
12931TIP3    H260209   2.537   5.042  14.938  1.0537  3.6737 -1.3030
12932TIP3   OH260210   6.012   0.491  14.883 -0.6028 -0.5100 -0.1805
12932TIP3    H160211   6.049   0.578  14.898 -2.8927  0.7471 -1.2714
12932TIP3    H260212   5.941   0.484  14.946 -0.8863 -1.2928 -0.5845
12933TIP3   OH260213   3.103   1.537   1.672  0.1370  0.5695 -0.1717
12933TIP3    H160214   3.171   1.603   1.685  0.4181  0.2155  0.1730
12933TIP3    H260215   3.150   1.460   1.640 -0.2391  0.6593 -0.9716
12934TIP3   OH260216   6.205   1.836  15.084  0.3455 -0.4733 -0.3366
12934TIP3    H160217   6.253   1.762  15.046  1.6826 -0.1571  0.6591
12934TIP3    H260218   6.116   1.827  15.050  0.9640 -1.4115 -1.8079
12935TIP3   OH260219   5.948   3.708   3.357 -0.1465 -0.4931  0.6730
12935TIP3    H160220   5.922   3.791   3.318  0.9352 -0.3883  0.1165
12935TIP3    H260221   5.999   3.732   3.434 -1.4127 -0.6885  1.6015
12936TIP3   OH260222   5.547   2.354  12.608  0.1047  0.8823 -0.2087
12936TIP3    H160223   5.573   2.411  12.535  0.7451 -0.6624 -1.2334
12936TIP3    H260224   5.618   2.291  12.616 -0.8966 -0.2024  0.4347
12937TIP3   OH260225   3.750   0.877   2.983  0.0969  0.0291 -0.1790
12937TIP3    H160226   3.800   0.813   3.034  1.0008 -0.6759 -1.8479
12937TIP3    H260227   3.791   0.876   2.897 -0.9164  1.6900 -0.7297
12938TIP3   OH260228   3.561   1.121   3.512 -0.0254 -0.5782  0.3813
12938TIP3    H160229   3.584   1.211   3.533  0.9720 -0.2997 -1.6495
12938TIP3    H260230   3.646   1.076   3.504 -0.4830 -1.5211  0.6308
12939TIP3   OH260231   1.922   7.208  12.957  0.8636 -0.0533 -0.3523
12939TIP3    H160232   1.973   7.208  13.038  1.0813  0.6112 -0.4835
12939TIP3    H260233   1.910   7.115  12.936 -2.2290 -0.4767  2.3393
12940TIP3   OH260234   2.500   0.979   2.472  0.0163 -0.2475 -0.4697
12940TIP3    H160235   2.532   1.059   2.515  0.1439 -1.0078  0.8877
12940TIP3    H260236   2.569   0.957   2.410  1.1520 -0.6341  0.8694
12941TIP3   OH260237   7.113   2.169   4.961  0.4447  0.0261  0.3401
12941TIP3    H160238   7.023   2.140   4.953  0.7480 -0.8397 -0.0295
12941TIP3    H260239   7.133   2.164   5.054  0.3899 -0.6390  0.3160
12942TIP3   OH260240   2.783   6.656   0.120 -0.3815 -0.2367 -0.0969
12942TIP3    H160241   2.746   6.650   0.208 -2.8914 -3.7733 -1.1600
12942TIP3    H260242   2.724   6.715   0.073 -1.1130 -1.0017 -0.1818
12943TIP3   OH260243   6.639   0.558   2.698  0.2793 -0.2140  0.4718
12943TIP3    H160244   6.711   0.620   2.708 -0.1108  0.4767 -0.7288
12943TIP3    H260245   6.563   0.604   2.734  0.1722 -0.3793  0.4551
12944TIP3   OH260246   3.712   0.856   5.381  0.2321  0.2599  0.1607
12944TIP3    H160247   3.797   0.824   5.409 -0.0701 -0.9082 -0.1798
12944TIP3    H260248   3.663   0.867   5.462 -0.2549 -1.9827  0.2567
12945TIP3   OH260249   1.098   4.435  13.840  0.7490 -0.1278  0.0489
12945TIP3    H160250   1.171   4.474  13.792  3.0235 -2.2511  1.5384
12945TIP3    H260251   1.053   4.381  13.774  0.5418  1.0898 -0.8532
12946TIP3   OH260252   5.188   5.002  15.282 -0.5102 -0.0785  0.4462
12946TIP3    H160253   5.125   5.073  15.295  0.6407  0.7617  1.8322
12946TIP3    H260254   5.223   4.985  15.369  0.1686 -1.4918 -0.0679
12947TIP3   OH260255   7.070   2.214  11.372 -0.4238 -0.0771 -0.3199
12947TIP3    H160256   6.993   2.272  11.366  1.1622  2.3229  0.8254
12947TIP3    H260257   7.084   2.203  11.465  1.3524  0.6373 -0.4655
12948TIP3   OH260258   1.898   1.824  12.673 -0.4545  0.6465  0.0460
12948TIP3    H160259   1.812   1.864  12.688 -1.1837 -1.0256  0.5987
12948TIP3    H260260   1.895   1.796  12.581 -0.7714  0.0182  0.2409
12949TIP3   OH260261   6.689   1.080   4.744  0.2100  0.1237 -0.0702
12949TIP3    H160262   6.615   1.141   4.744 -0.2024 -0.2514  2.5393
12949TIP3    H260263   6.764   1.135   4.766  0.3328  0.1416 -0.5293
12950TIP3   OH260264   2.301   6.483  15.281  0.1969  0.4669 -0.0723
12950TIP3    H160265   2.227   6.438  15.321  2.4329 -0.7649  3.0725
12950TIP3    H260266   2.327   6.549  15.345  2.5787  0.0053 -0.4685
12951TIP3   OH260267   0.861   2.594  12.346 -0.2707  0.0439  0.0029
12951TIP3    H160268   0.904   2.534  12.406  1.7214  0.7336 -0.6613
12951TIP3    H260269   0.800   2.644  12.400  1.4935  0.6770  1.5141
12952TIP3   OH260270   0.243   2.461   4.560 -0.2134 -0.4697  0.4228
12952TIP3    H160271   0.318   2.406   4.536 -0.2033 -0.4705  0.4555
12952TIP3    H260272   0.218   2.431   4.647 -0.1954 -0.4095  0.4492
12953TIP3   OH260273   3.963   0.416   3.419  0.1445 -0.1545 -0.2361
12953TIP3    H160274   3.885   0.366   3.441 -1.5420  1.5908 -1.7901
12953TIP3    H260275   3.970   0.482   3.488  1.0591 -1.1306  0.6204
12954TIP3   OH260276   5.345   4.552   3.681 -0.2900 -0.3146  0.2150
12954TIP3    H160277   5.367   4.644   3.667  1.5817 -0.7739 -0.2817
12954TIP3    H260278   5.258   4.542   3.643 -0.4393  1.2018  0.0904
12955TIP3   OH260279   3.968   3.245   3.152  0.0436  0.4982  0.0480
12955TIP3    H160280   4.002   3.201   3.230 -1.0817  0.7487  0.7060
12955TIP3    H260281   4.038   3.238   3.087 -0.1382 -2.4226  0.0386
12956TIP3   OH260282   0.752   4.448   1.445 -0.2625  0.3767  0.1833
12956TIP3    H160283   0.775   4.431   1.536 -0.3024  0.6237  0.2375
12956TIP3    H260284   0.709   4.533   1.445 -1.8591 -0.3858  0.2024
12957TIP3   OH260285   3.149   2.250  10.645 -0.4709 -0.0767  0.6222
12957TIP3    H160286   3.181   2.245  10.555 -1.2171 -0.8236  0.3843
12957TIP3    H260287   3.155   2.342  10.668  3.5194 -0.3049  1.2261
12958TIP3   OH260288   4.449   6.374   0.247  0.1343  0.1671  0.7224
12958TIP3    H160289   4.498   6.430   0.307  0.3961  0.3341  0.3544
12958TIP3    H260290   4.511   6.354   0.177  0.4492 -1.5670  1.4306
12959TIP3   OH260291   3.160   6.697   4.155 -0.5635 -0.2990  0.0816
12959TIP3    H160292   3.217   6.770   4.177 -0.2808  0.0671 -1.7029
12959TIP3    H260293   3.212   6.619   4.174  0.7009  0.0288 -1.7792
12960TIP3   OH260294   0.033   2.028   4.155 -0.5777  0.7550  0.3168
12960TIP3    H160295   0.047   2.017   4.061  0.6060 -1.3463  0.6722
12960TIP3    H260296  -0.030   1.959   4.178  1.3164 -0.6756  1.4809
12961TIP3   OH260297   6.537   5.826  14.455 -0.7184 -0.3602 -0.6575
12961TIP3    H160298   6.556   5.733  14.467  2.4279 -0.1087 -2.5083
12961TIP3    H260299   6.619   5.870  14.477 -2.0787  2.0190  0.0281
12962TIP3   OH260300   0.623   4.029  12.888  0.2479  0.0664 -0.3838
12962TIP3    H160301   0.638   4.064  12.800  0.4332 -1.6575 -1.0765
12962TIP3    H260302   0.709   3.994  12.914  0.8018  2.5171  1.4578
12963TIP3   OH260303   5.238   5.600  11.355  0.0431  0.3231 -0.0094
12963TIP3    H160304   5.165   5.643  11.312  1.5025  2.4432 -0.5636
12963TIP3    H260305   5.263   5.529  11.296 -0.7297  0.4316 -0.4703
12964TIP3   OH260306   1.998   2.405   0.335  0.3421 -0.1622 -0.2542
12964TIP3    H160307   1.959   2.457   0.406 -0.7998 -1.8669  0.4419
12964TIP3    H260308   2.052   2.340   0.381  0.0211 -0.9461 -0.9595
12965TIP3   OH260309   1.723   0.946  14.650 -0.0375  0.4459 -0.1027
12965TIP3    H160310   1.728   0.851  14.634 -3.4981  0.0764  0.1419
12965TIP3    H260311   1.684   0.952  14.737 -1.4366  2.0210 -0.7918
12966TIP3   OH260312   1.073   0.553  14.668 -0.1919  0.1362  0.3109
12966TIP3    H160313   1.086   0.618  14.737 -0.8084  1.0559 -0.4017
12966TIP3    H260314   1.160   0.514  14.655  0.2321  0.9482  0.6303
12967TIP3   OH260315   0.866   5.646  13.364  0.5017  0.2445  0.1950
12967TIP3    H160316   0.902   5.557  13.363 -1.0309 -0.4003 -0.3778
12967TIP3    H260317   0.872   5.675  13.274  0.5393  0.5264  0.2887
12968TIP3   OH260318   2.579   5.923  13.097  0.0148  0.1536  0.0884
12968TIP3    H160319   2.657   5.966  13.134  0.1052 -0.9381  1.2330
12968TIP3    H260320   2.535   5.885  13.173 -1.4917  0.4862 -0.5875
12969TIP3   OH260321   1.614   6.212  12.392  0.6003  0.4099  0.4571
12969TIP3    H160322   1.567   6.274  12.447  1.4481  0.5608  1.0412
12969TIP3    H260323   1.557   6.136  12.387 -0.6509  1.3697 -0.6202
12970TIP3   OH260324   2.772   6.239   0.219 -0.0846  0.2303  0.1013
12970TIP3    H160325   2.797   6.330   0.201 -1.3867  0.2208 -2.0955
12970TIP3    H260326   2.691   6.246   0.269  0.6711  0.2366  1.3748
12971TIP3   OH260327   4.864   7.081  13.117 -0.0961 -0.3467 -0.9201
12971TIP3    H160328   4.871   7.157  13.175  0.2069 -1.8685  1.1738
12971TIP3    H260329   4.948   7.076  13.073 -0.0183  0.3610 -0.8668
12972TIP3   OH260330   3.432   6.586  12.743  0.1621  0.2357  0.1952
12972TIP3    H160331   3.491   6.655  12.773 -1.6937  1.3310  1.5584
12972TIP3    H260332   3.407   6.540  12.823 -2.5939  1.3248  0.0800
12973TIP3   OH260333   1.257   5.515  13.713 -0.4634 -0.7411  0.0113
12973TIP3    H160334   1.349   5.491  13.703 -0.2531 -0.7433  1.6912
12973TIP3    H260335   1.246   5.591  13.656  0.2830 -1.3865 -1.0423
12974TIP3   OH260336   5.371   5.250  13.100 -0.2053  0.2165  0.2261
12974TIP3    H160337   5.380   5.218  13.011 -1.2072  0.6481 -0.0434
12974TIP3    H260338   5.299   5.199  13.137 -0.6916  0.9726  0.3441
12975TIP3   OH260339   4.633   5.984  13.372  0.5378  0.1645  0.1862
12975TIP3    H160340   4.679   6.055  13.327  0.5277  0.6258  0.9020
12975TIP3    H260341   4.611   6.019  13.458 -0.1239 -0.4525  0.2822
12976TIP3   OH260342   6.341   1.378  12.934  0.0824 -0.0910  0.0871
12976TIP3    H160343   6.318   1.352  13.023 -0.6302  0.8895  0.2101
12976TIP3    H260344   6.267   1.348  12.881 -0.1515  0.5546  0.0432
12977TIP3   OH260345   3.911   5.751   9.617  0.2970  0.3799  0.0954
12977TIP3    H160346   3.819   5.733   9.593 -0.5906  2.5679  1.5580
12977TIP3    H260347   3.937   5.821   9.557 -1.0429  3.9248  3.2157
12978TIP3   OH260348   0.764   3.047   1.363  0.0948 -0.0203  0.2186
12978TIP3    H160349   0.858   3.066   1.365 -0.0454  0.8266  2.8885
12978TIP3    H260350   0.733   3.072   1.450 -2.8698  0.9624 -0.9901
12979TIP3   OH260351   2.118   1.509  13.571 -0.3980 -0.4593 -0.0615
12979TIP3    H160352   2.076   1.581  13.524 -0.3419  0.6895  1.5785
12979TIP3    H260353   2.183   1.475  13.509 -1.3834 -0.0548 -1.3817
12980TIP3   OH260354   6.508   1.382   1.782 -0.4028  0.1309  0.0190
12980TIP3    H160355   6.424   1.338   1.798 -0.5860 -0.3067 -1.9786
12980TIP3    H260356   6.541   1.343   1.702  1.9353  0.0381  0.9622
12981TIP3   OH260357   3.647   0.443   5.323  0.0467 -0.1336  0.4117
12981TIP3    H160358   3.652   0.495   5.243 -0.1302  0.0753  0.5339
12981TIP3    H260359   3.735   0.447   5.360  0.0984 -0.1316  0.2889
12982TIP3   OH260360   6.232   6.501   4.129  0.4842  0.3052 -0.4091
12982TIP3    H160361   6.206   6.470   4.216 -0.0781  1.9399  0.0314
12982TIP3    H260362   6.150   6.524   4.086  0.6853 -1.1394 -1.6801
12983TIP3   OH260363   3.462   1.576   5.173 -0.0368 -0.0900  0.6573
12983TIP3    H160364   3.479   1.574   5.267 -0.6396  0.4336  0.7822
12983TIP3    H260365   3.371   1.602   5.166  0.5455  1.8979 -0.1192
12984TIP3   OH260366   4.800   2.259   0.502  0.2727 -0.0582 -0.3307
12984TIP3    H160367   4.777   2.169   0.524 -0.9251  0.3506  0.2415
12984TIP3    H260368   4.860   2.286   0.572  3.1759 -1.3419 -2.1802
12985TIP3   OH260369   3.932   5.863  13.019  0.1692  0.0104  0.1079
12985TIP3    H160370   3.972   5.944  12.988  0.5030  0.5513  1.8260
12985TIP3    H260371   4.002   5.798  13.014 -0.0407 -0.1401 -1.0788
12986TIP3   OH260372   6.689   0.193  12.288  0.2700  0.2668 -0.3856
12986TIP3    H160373   6.626   0.125  12.264  0.7679 -0.6385  0.7702
12986TIP3    H260374   6.715   0.232  12.204 -0.3931 -0.6323 -1.0315
12987TIP3   OH260375   0.355   5.496   5.958 -0.1082 -0.3899  0.6348
12987TIP3    H160376   0.279   5.551   5.975 -0.5404 -0.0740 -1.9466
12987TIP3    H260377   0.318   5.411   5.932  0.3024  0.1359 -1.8772
12988TIP3   OH260378   5.560   6.230   2.338  0.4504 -0.4007  0.0639
12988TIP3    H160379   5.477   6.273   2.361  1.0549  0.5248  0.5876
12988TIP3    H260380   5.534   6.153   2.289 -0.8002 -0.9352  1.4780
12989TIP3   OH260381   5.416   4.627  11.212  0.0947 -0.0683  0.3682
12989TIP3    H160382   5.339   4.682  11.194  1.0442  1.3486  0.4704
12989TIP3    H260383   5.400   4.594  11.301 -1.0895 -1.0559 -0.1697
12990TIP3   OH260384   7.095   3.755   3.482  0.4259  0.2678 -0.5579
12990TIP3    H160385   7.102   3.661   3.468 -1.7356  0.0251 -0.4678
12990TIP3    H260386   7.074   3.764   3.575 -0.3605  0.7243 -0.7625
12991TIP3   OH260387   4.942   3.479   4.375 -0.4911  0.1072 -0.6760
12991TIP3    H160388   4.855   3.463   4.338 -0.5226  0.6012 -0.8200
12991TIP3    H260389   4.925   3.507   4.465 -0.3934 -1.5810 -0.0984
12992TIP3   OH260390   6.271   5.332  14.338 -0.2239 -0.6164  0.7518
12992TIP3    H160391   6.267   5.427  14.349  1.7923 -0.6222  1.8719
12992TIP3    H260392   6.229   5.297  14.416 -0.0901 -0.6513  0.8081
12993TIP3   OH260393   5.843   1.770   9.961 -0.2974 -0.5127 -0.0887
12993TIP3    H160394   5.893   1.688   9.952 -1.1149 -1.1482  1.0036
12993TIP3    H260395   5.760   1.752   9.917 -0.4097 -0.1960 -0.0075
12994TIP3   OH260396   1.920   1.938   3.450 -0.5848  0.4371  0.5011
12994TIP3    H160397   1.984   1.879   3.490  0.9673  0.7018 -1.4138
12994TIP3    H260398   1.839   1.923   3.499 -0.1744 -3.0282  0.3668
12995TIP3   OH260399   3.615   1.024  15.070 -0.4368 -0.1307  0.0739
12995TIP3    H160400   3.639   1.062  15.155  0.8338 -1.0824  0.1760
12995TIP3    H260401   3.582   1.098  15.019  1.0844  0.9392  0.5736
12996TIP3   OH260402   3.125   6.656  11.155 -0.2959  0.0533  0.0970
12996TIP3    H160403   3.085   6.579  11.195 -1.2450  1.8819  2.9909
12996TIP3    H260404   3.216   6.631  11.141 -0.1191 -1.0775  2.6470
12997TIP3   OH260405   4.144   7.122   5.437 -0.4694  0.3058 -0.5880
12997TIP3    H160406   4.055   7.139   5.468  0.6281  2.3705  1.7063
12997TIP3    H260407   4.200   7.138   5.512  1.9652 -0.0247 -2.2069
12998TIP3   OH260408   5.547   4.251   2.095 -0.2289 -0.5025 -0.4929
12998TIP3    H160409   5.543   4.282   2.186  1.0653  0.2486 -0.6728
12998TIP3    H260410   5.547   4.156   2.102  1.4093 -0.4704  0.3953
12999TIP3   OH260411   3.690   0.304  13.987 -0.4229 -0.4092  0.1653
12999TIP3    H160412   3.648   0.390  13.988 -2.3199 -1.2787  1.1158
12999TIP3    H260413   3.742   0.302  14.067  3.4135  1.4827 -2.0394
13000TIP3   OH260414   2.399   0.055  11.933  0.0842 -0.3582  0.0106
13000TIP3    H160415   2.409   0.062  12.027  0.9514 -3.9593  0.3619
13000TIP3    H260416   2.305   0.050  11.919 -0.0291 -1.5491  0.9705
13001TIP3   OH260417   3.551   3.808   3.661 -0.5669  0.2005 -0.0704
13001TIP3    H160418   3.641   3.832   3.685  0.7898 -0.9107 -3.4315
13001TIP3    H260419   3.556   3.714   3.641 -2.5638  0.0596 -0.1150
13002TIP3   OH260420   3.892   2.466  14.702  0.1967  0.0877  0.6470
13002TIP3    H160421   3.938   2.426  14.627 -0.8107 -0.6873  0.4210
13002TIP3    H260422   3.893   2.560  14.683 -0.8827 -0.1674 -0.8493
13003TIP3   OH260423   3.647   6.724   0.829  0.0997  0.7514 -0.5735
13003TIP3    H160424   3.586   6.791   0.862 -0.0022  0.5058 -0.2508
13003TIP3    H260425   3.653   6.661   0.901  1.2616  1.1167 -0.3372
13004TIP3   OH260426   0.027   5.484   1.119  0.1658 -0.5194 -0.2315
13004TIP3    H160427   0.050   5.572   1.093  0.4263 -1.0531 -1.9147
13004TIP3    H260428  -0.013   5.445   1.041 -1.7427 -1.2742  1.0501
13005TIP3   OH260429   1.062   4.221   0.881  0.4052  0.0651 -0.3011
13005TIP3    H160430   0.974   4.210   0.844  0.8333  0.9163 -1.6298
13005TIP3    H260431   1.112   4.146   0.846 -0.0626 -1.1217  1.4419
13006TIP3   OH260432   4.421   4.973   1.694 -0.1935  0.0131 -0.2656
13006TIP3    H160433   4.454   5.062   1.684 -0.5172  0.0529 -1.1213
13006TIP3    H260434   4.461   4.925   1.621 -0.7616 -0.3145 -0.3704
13007TIP3   OH260435   1.170   3.418  12.561  0.2701 -0.8473  1.0696
13007TIP3    H160436   1.242   3.481  12.564  0.4433 -1.0677  1.6439
13007TIP3    H260437   1.186   3.368  12.481 -0.5253  0.5879 -0.0343
13008TIP3   OH260438   5.239   2.241   4.474  0.0297  0.4408 -0.4307
13008TIP3    H160439   5.158   2.230   4.524  0.1529 -0.6741 -0.4421
13008TIP3    H260440   5.211   2.248   4.383 -0.0672  0.1777 -0.4222
13009TIP3   OH260441   2.217   3.330  12.569  0.6861 -0.0689 -0.0714
13009TIP3    H160442   2.247   3.271  12.500 -0.2715 -1.5005  0.6746
13009TIP3    H260443   2.269   3.306  12.646  0.0812 -0.1716  0.3178
13010TIP3   OH260444   1.918   1.658   1.352 -0.1561  0.1813 -0.1136
13010TIP3    H160445   1.881   1.743   1.327 -0.6121  0.8770  2.6245
13010TIP3    H260446   1.842   1.606   1.380  0.3890 -0.1268  0.8545
13011TIP3   OH260447   6.973   5.537  13.815  0.6006  0.2914 -0.3797
13011TIP3    H160448   7.056   5.586  13.817  1.3665 -0.9697 -0.2349
13011TIP3    H260449   6.964   5.500  13.902  0.8731 -1.1505 -0.9346
13012TIP3   OH260450   3.205   6.170  11.307 -0.2520 -0.2698 -0.2909
13012TIP3    H160451   3.246   6.221  11.238 -1.0301  0.3548 -0.3099
13012TIP3    H260452   3.251   6.086  11.306  1.4443  0.6049  0.1078
13013TIP3   OH260453   1.081   2.032  12.286 -0.2156 -0.1698  0.4510
13013TIP3    H160454   1.044   2.034  12.198  2.1464 -3.4774 -0.8507
13013TIP3    H260455   1.134   2.112  12.292 -0.1163 -0.0707 -1.2940
13014TIP3   OH260456   6.231   0.860   2.185  0.3170  0.0903  0.4732
13014TIP3    H160457   6.199   0.772   2.207  0.3548 -0.4533 -1.4398
13014TIP3    H260458   6.325   0.848   2.171  0.0573 -0.0135 -1.5687
13015TIP3   OH260459   3.997   6.587  11.092 -0.0568  0.6096 -0.8151
13015TIP3    H160460   4.069   6.646  11.112 -0.7567  0.9103  1.0591
13015TIP3    H260461   4.019   6.549  11.007  2.5666  0.2485 -0.0342
13016TIP3   OH260462   1.699   0.686   1.246  0.1175  0.6686  0.4483
13016TIP3    H160463   1.759   0.659   1.176 -1.1563 -0.8159 -0.1347
13016TIP3    H260464   1.674   0.604   1.288 -0.2359  1.4185  1.7426
13017TIP3   OH260465   4.675   5.780   4.744  0.1252 -0.6067 -0.0537
13017TIP3    H160466   4.637   5.834   4.813  0.8518 -0.5703  0.3246
13017TIP3    H260467   4.765   5.812   4.734  0.0769 -0.7026 -0.9242
13018TIP3   OH260468   3.706   5.464   0.858 -0.3079 -0.2736  0.2011
13018TIP3    H160469   3.703   5.553   0.824 -2.8584 -0.4252 -0.1915
13018TIP3    H260470   3.618   5.449   0.893  0.7592 -1.8358  2.4480
13019TIP3   OH260471   7.014   4.202  12.216 -0.5693 -0.1013  0.5262
13019TIP3    H160472   6.921   4.190  12.195 -0.8690  1.6889  0.7180
13019TIP3    H260473   7.020   4.181  12.309 -0.3296 -2.3071  0.0841
13020TIP3   OH260474   5.865   3.914   0.960  0.1711  0.1601 -0.1531
13020TIP3    H160475   5.803   3.911   1.033  0.9269 -1.1667  0.4610
13020TIP3    H260476   5.830   3.852   0.896 -0.6147  1.4824 -1.0779
13021TIP3   OH260477   0.057   6.518   4.420 -0.0973  0.7225  0.0328
13021TIP3    H160478  -0.010   6.564   4.369 -0.0995  0.4132 -0.2429
13021TIP3    H260479   0.135   6.520   4.364  0.4361  2.0061  0.7822
13022TIP3   OH260480   4.086   6.984   0.723  0.2176 -0.0598  0.0297
13022TIP3    H160481   4.167   6.993   0.773 -0.8769  0.0874  1.8613
13022TIP3    H260482   4.047   6.903   0.756 -0.8128  0.3434 -0.1731
13023TIP3   OH260483   4.785   2.427   5.167  0.3794 -0.2172  0.1281
13023TIP3    H160484   4.785   2.337   5.199 -0.3049 -0.3481 -0.2204
13023TIP3    H260485   4.863   2.467   5.205  0.6476 -0.9407  0.3369
13024TIP3   OH260486   5.821   1.867   4.908 -0.0257 -0.2425 -0.1165
13024TIP3    H160487   5.915   1.854   4.895 -0.0167  0.1005 -0.4137
13024TIP3    H260488   5.790   1.905   4.825 -0.0810  1.4308  0.6248
13025TIP3   OH260489   0.087   2.276  14.720 -0.0161 -0.5379  0.1693
13025TIP3    H160490   0.061   2.355  14.767  0.3755 -0.4933  0.3101
13025TIP3    H260491   0.055   2.290  14.630  0.2482 -0.1224  0.1395
13026TIP3   OH260492   2.396   2.968   4.615 -0.5389  0.4187 -0.4459
13026TIP3    H160493   2.330   3.038   4.605 -0.3377  0.7577  0.4457
13026TIP3    H260494   2.437   2.987   4.699  1.2038  0.6206 -1.3153
13027TIP3   OH260495   2.009   0.097   1.832  0.2858  0.3146  0.2460
13027TIP3    H160496   1.951   0.050   1.772 -0.4460  0.0191  1.1618
13027TIP3    H260497   1.958   0.107   1.912  2.0346 -1.3501  1.6473
13028TIP3   OH260498   6.246   0.494   1.141  0.5177 -0.0727  0.2897
13028TIP3    H160499   6.154   0.512   1.163  0.7023  0.4047  0.6818
13028TIP3    H260500   6.266   0.414   1.189  0.7311  0.6204  1.3805
13029TIP3   OH260501   2.161   5.874  10.697 -0.0641 -0.3331 -0.1689
13029TIP3    H160502   2.243   5.897  10.741 -0.5108 -0.1583  0.6043
13029TIP3    H260503   2.098   5.865  10.769 -1.0233  0.8288 -0.8463
13030TIP3   OH260504   0.003   3.944   3.287 -0.0552  0.3677 -0.4505
13030TIP3    H160505  -0.016   3.877   3.352  2.4022 -1.4052 -1.3800
13030TIP3    H260506  -0.014   3.900   3.203 -0.9428  1.8322 -1.0701
13031TIP3   OH260507   1.872   2.619   4.872  0.2078 -0.4774 -0.0795
13031TIP3    H160508   1.834   2.553   4.814 -0.4020 -0.7734  0.6490
13031TIP3    H260509   1.802   2.642   4.932  0.0502  1.5983 -0.9405
13032TIP3   OH260510   6.881   6.290   3.711 -0.5842  0.1836  0.4431
13032TIP3    H160511   6.796   6.257   3.681 -0.4372  1.3679 -1.5178
13032TIP3    H260512   6.870   6.385   3.713  0.0901  0.2548  2.2442
13033TIP3   OH260513   6.665   6.880   4.097  0.1691  0.1622  0.2230
13033TIP3    H160514   6.617   6.963   4.100  0.5025  0.3967 -0.7473
13033TIP3    H260515   6.753   6.904   4.070 -0.2829 -0.7174 -2.2461
13034TIP3   OH260516   5.054   3.974  11.024 -0.7494  0.0486  0.3617
13034TIP3    H160517   5.129   4.024  11.057  0.4153 -0.5115 -1.2605
13034TIP3    H260518   5.094   3.897  10.982 -2.3763 -1.3051  1.1693
13035TIP3   OH260519   4.082   0.876  12.785 -0.2623 -0.0347  0.3659
13035TIP3    H160520   4.153   0.811  12.777  0.2024  0.5370 -0.2284
13035TIP3    H260521   4.112   0.935  12.854  1.2239  1.8826 -1.7778
13036TIP3   OH260522   6.029   4.025   2.054 -0.1512 -0.2713 -0.8452
13036TIP3    H160523   6.042   4.118   2.037  0.3051 -0.5915 -2.3487
13036TIP3    H260524   5.935   4.017   2.072 -0.3524  0.3568 -1.5714
13037TIP3   OH260525   1.059   5.277  14.425 -0.6181  0.6989 -0.2162
13037TIP3    H160526   1.113   5.343  14.382 -0.2712  1.2115  0.9669
13037TIP3    H260527   1.008   5.327  14.489  1.0171 -0.3882  2.0276
13038TIP3   OH260528   5.881   0.737   0.299 -0.4928 -0.3742 -0.4499
13038TIP3    H160529   5.972   0.763   0.285 -0.9012  0.6654 -1.3204
13038TIP3    H260530   5.852   0.789   0.374 -0.4810 -0.3916 -0.4336
13039TIP3   OH260531   1.598   1.439  14.808 -0.2198  0.1293 -0.0578
13039TIP3    H160532   1.621   1.517  14.858  1.4460  0.5587 -1.3809
13039TIP3    H260533   1.554   1.472  14.730 -1.3527 -0.4279  0.3143
13040TIP3   OH260534   0.513   0.985  14.401  0.2168  0.5082 -0.1282
13040TIP3    H160535   0.489   0.892  14.395  0.4533  0.2946  1.7505
13040TIP3    H260536   0.591   0.993  14.346  1.8309 -1.0303  1.7961
13041TIP3   OH260537   4.512   7.055   5.351  0.0545 -0.8443 -0.0316
13041TIP3    H160538   4.499   7.149   5.362  0.0553 -0.5254 -2.3861
13041TIP3    H260539   4.598   7.038   5.390  0.5135  0.3245 -0.4864
13042TIP3   OH260540   0.149   3.492  14.526 -0.2315  0.2988  0.6469
13042TIP3    H160541   0.179   3.583  14.537 -1.4607  0.7550  0.4330
13042TIP3    H260542   0.118   3.467  14.613 -1.8435  0.8568  0.2868
13043TIP3   OH260543   1.934   3.845  13.381 -0.8660 -0.0472  0.1111
13043TIP3    H160544   1.865   3.909  13.399  0.7188  1.7195  0.2117
13043TIP3    H260545   2.013   3.898  13.370  0.0274 -1.7505 -2.6740
13044TIP3   OH260546   1.801   3.097   0.530 -0.1883  0.2735 -0.1161
13044TIP3    H160547   1.727   3.036   0.535  0.6067 -0.6879  0.1247
13044TIP3    H260548   1.825   3.113   0.622  0.6978 -0.4166 -0.2159
13045TIP3   OH260549   0.814   2.256   0.875  0.0242  0.8510  0.1836
13045TIP3    H160550   0.890   2.200   0.860 -0.6383 -0.7450  2.2377
13045TIP3    H260551   0.741   2.210   0.833  0.1862  2.6056 -2.1928
13046TIP3   OH260552   0.130   1.002   3.888  0.0004  0.1021  0.2143
13046TIP3    H160553   0.149   1.096   3.890  1.6349 -0.1849 -0.2573
13046TIP3    H260554   0.035   0.997   3.897 -0.0359  1.7517  1.1973
13047TIP3   OH260555   3.500   0.829   1.117  0.4126  0.0083  0.1598
13047TIP3    H160556   3.481   0.923   1.112  0.4442  0.0051 -0.0126
13047TIP3    H260557   3.430   0.794   1.173  1.4499  0.4233  1.7780
13048TIP3   OH260558   4.280   1.868  15.107  0.4259  0.4076 -0.5282
13048TIP3    H160559   4.284   1.811  15.183  0.0677  0.3879 -0.5256
13048TIP3    H260560   4.188   1.868  15.080  0.1123  2.1693  0.3883
13049TIP3   OH260561   0.660   3.236   3.143 -0.5050 -0.1275  0.0062
13049TIP3    H160562   0.666   3.329   3.125 -0.6430 -0.2649 -0.7578
13049TIP3    H260563   0.579   3.208   3.101 -0.9137 -0.4279  0.9616
13050TIP3   OH260564   1.091   4.408  15.001  0.7554  0.1461 -0.0032
13050TIP3    H160565   1.110   4.502  15.002  1.0863  0.1162 -1.4012
13050TIP3    H260566   1.176   4.367  15.015  0.5446  0.0448  1.0352
13051TIP3   OH260567   1.382   4.030  11.314  0.7318  0.1112  0.3534
13051TIP3    H160568   1.298   4.060  11.350 -0.0749 -0.1969 -1.1903
13051TIP3    H260569   1.371   3.936  11.302  2.0752 -0.3101  2.0602
13052TIP3   OH260570   5.789   6.680  14.069  0.1599  0.0242  0.1129
13052TIP3    H160571   5.722   6.637  14.015 -0.4622 -0.7585  1.4422
13052TIP3    H260572   5.768   6.773  14.065 -2.0503 -0.3134  1.7500
13053TIP3   OH260573   0.163   6.369  12.824  0.7924 -0.1248 -0.2651
13053TIP3    H160574   0.093   6.371  12.759  0.4942 -0.2765  0.0451
13053TIP3    H260575   0.163   6.457  12.862 -1.3606 -0.9438  1.9361
13054TIP3   OH260576   3.059   4.540  13.049 -0.0157  0.0094 -0.0487
13054TIP3    H160577   3.151   4.548  13.025 -0.2213  1.9121 -0.2928
13054TIP3    H260578   3.042   4.446  13.044  2.2059 -0.5315  1.1566
13055TIP3   OH260579   3.767   5.812   1.330  0.3442 -0.0515 -0.2480
13055TIP3    H160580   3.806   5.761   1.259  2.4954 -0.5116  1.1800
13055TIP3    H260581   3.735   5.746   1.392  0.2518  0.3450  0.1266
13056TIP3   OH260582   0.603   0.721   2.250  0.0774  0.6047  0.0595
13056TIP3    H160583   0.671   0.685   2.307  0.0672  1.6593  0.7539
13056TIP3    H260584   0.628   0.812   2.238 -1.5149  1.1752  0.8255
13057TIP3   OH260585   6.347   3.852   0.122 -0.0238  0.5058  0.4368
13057TIP3    H160586   6.393   3.907   0.059  0.0218  0.6777  0.6185
13057TIP3    H260587   6.258   3.887   0.123  0.6711  2.4310  2.6295
13058TIP3   OH260588   4.118   0.657   4.482  0.8343 -0.2715 -0.2841
13058TIP3    H160589   4.062   0.598   4.432  2.6842 -3.2386  0.8814
13058TIP3    H260590   4.101   0.635   4.574  1.4427  1.1780  0.2064
13059TIP3   OH260591   1.729   7.132  13.543 -0.2893 -0.3069  0.5721
13059TIP3    H160592   1.814   7.128  13.498 -1.3503 -0.0683 -1.5619
13059TIP3    H260593   1.696   7.220  13.523 -1.3402 -0.6395  0.7968
13060TIP3   OH260594   5.105   5.986   1.860 -0.6219 -0.3788  0.0411
13060TIP3    H160595   5.170   5.996   1.929 -1.2476 -0.3801  0.6423
13060TIP3    H260596   5.029   5.947   1.904 -1.9291  1.8517 -0.0892
13061TIP3   OH260597   4.776   1.299   3.400 -0.3447  0.2413 -0.1236
13061TIP3    H160598   4.730   1.221   3.367  0.9099 -1.7205  2.4211
13061TIP3    H260599   4.711   1.343   3.455 -1.3465  1.6400 -2.2592
13062TIP3   OH260600   6.880   5.695   1.955  0.4113 -0.6353 -1.0370
13062TIP3    H160601   6.951   5.755   1.980 -0.6768  0.7351 -1.1347
13062TIP3    H260602   6.832   5.679   2.036  0.2034 -0.7115 -1.1745
13063TIP3   OH260603   2.322   7.183  12.808  0.4366  0.4001  0.0025
13063TIP3    H160604   2.396   7.238  12.832 -0.3730  0.6963  1.9228
13063TIP3    H260605   2.247   7.242  12.805  0.3305  0.2916 -2.8472
13064TIP3   OH260606   5.598   1.713   3.684 -0.0303 -0.2311  0.2818
13064TIP3    H160607   5.643   1.733   3.766 -1.2856 -1.8269  1.4104
13064TIP3    H260608   5.624   1.784   3.625  2.6702 -0.2127  1.3373
13065TIP3   OH260609   4.814   1.951   4.743 -0.7142 -0.1631 -0.0349
13065TIP3    H160610   4.793   1.865   4.707  0.9023 -0.4930 -0.2963
13065TIP3    H260611   4.858   1.932   4.826  0.1906  0.3784 -0.3794
13066TIP3   OH260612   1.925   0.707   5.615  0.0298  0.2274 -0.5562
13066TIP3    H160613   2.014   0.721   5.585 -0.2226 -1.4385 -2.2160
13066TIP3    H260614   1.932   0.640   5.683  0.2645  1.9358  1.2122
13067TIP3   OH260615   7.155   1.402   3.144 -0.1926  0.1393 -0.4176
13067TIP3    H160616   7.128   1.463   3.214  0.1140 -0.8523  0.5878
13067TIP3    H260617   7.076   1.391   3.091 -0.1074  1.8303 -0.9537
13068TIP3   OH260618   2.021   1.361  14.493 -0.4824 -0.1726 -0.0956
13068TIP3    H160619   2.002   1.279  14.446  0.3620 -0.4520  0.0332
13068TIP3    H260620   1.962   1.425  14.454 -0.1867 -0.5296 -1.1516
13069TIP3   OH260621   0.657   2.038   3.432 -0.2809  0.6744  0.1567
13069TIP3    H160622   0.618   1.995   3.508 -0.4136 -1.3119 -0.9699
13069TIP3    H260623   0.743   1.997   3.423  0.0436  1.4376 -0.3345
13070TIP3   OH260624   5.148   0.138   0.093 -0.2222 -0.1707 -0.3378
13070TIP3    H160625   5.058   0.105   0.084 -1.1636  2.4506 -1.5523
13070TIP3    H260626   5.203   0.062   0.073 -2.2008 -0.7226 -5.3395
13071TIP3   OH260627   7.135   3.778  13.069  0.3377  0.7841 -0.0641
13071TIP3    H160628   7.137   3.865  13.110  1.2777  0.8058 -0.1140
13071TIP3    H260629   7.226   3.763  13.041  0.2951 -0.4164  0.3761
13072TIP3   OH260630   6.007   2.959   1.808 -0.1945 -0.2717 -0.3980
13072TIP3    H160631   5.965   2.927   1.888 -0.3843  0.8594 -0.0266
13072TIP3    H260632   6.100   2.962   1.830 -0.3641  1.2883  0.2731
13073TIP3   OH260633   4.020   6.588  14.010  0.0836 -0.4395  0.4060
13073TIP3    H160634   3.971   6.639  13.945 -0.9946  0.5683  1.9423
13073TIP3    H260635   4.107   6.628  14.010 -0.5131  0.9218  1.0185
13074TIP3   OH260636   2.753   2.572   3.063 -0.2545 -0.4793 -0.4339
13074TIP3    H160637   2.736   2.635   2.993  0.0692  0.4390  0.2962
13074TIP3    H260638   2.667   2.555   3.101 -0.0507  1.7989  1.2563
13075TIP3   OH260639   1.337   2.787  15.279 -0.3008  0.2384  0.2311
13075TIP3    H160640   1.304   2.837  15.205 -1.5465 -0.2585  0.4218
13075TIP3    H260641   1.304   2.698  15.265  0.4836 -0.1553  0.7513
13076TIP3   OH260642   0.218   1.018   4.250 -0.0511 -0.2930  0.6326
13076TIP3    H160643   0.127   1.000   4.225 -0.3285  0.9930  0.6491
13076TIP3    H260644   0.216   1.018   4.346  0.2275 -1.4542  0.6496
13077TIP3   OH260645   3.671   5.085   1.352 -0.2041  0.0321  0.5626
13077TIP3    H160646   3.724   5.005   1.356 -0.8563 -0.3773  1.2959
13077TIP3    H260647   3.708   5.134   1.278 -0.6971 -1.6038 -0.8439
13078TIP3   OH260648   6.587   3.520  14.634 -0.4176 -0.4330  0.3020
13078TIP3    H160649   6.614   3.610  14.652 -1.3682  0.0570 -0.6602
13078TIP3    H260650   6.589   3.477  14.720  0.4887  0.3682  0.7004
13079TIP3   OH260651   1.603   2.957   3.290  0.3898  0.2787 -0.1551
13079TIP3    H160652   1.564   2.881   3.247  1.1765  0.2992 -0.9309
13079TIP3    H260653   1.545   3.030   3.267  1.3458  0.4933 -2.1117
13080TIP3   OH260654   1.490   1.240   4.844 -0.0549 -0.0265 -0.4149
13080TIP3    H160655   1.448   1.322   4.819 -0.7657 -0.8001 -1.8583
13080TIP3    H260656   1.584   1.259   4.840 -0.1994  0.5489 -1.3611
13081TIP3   OH260657   5.580   0.604   5.511 -0.0111 -0.3029 -0.6145
13081TIP3    H160658   5.493   0.611   5.471 -0.1227 -0.1084 -0.3474
13081TIP3    H260659   5.633   0.558   5.447 -0.9512 -2.6705  0.1894
13082TIP3   OH260660   4.897   6.269   0.826 -0.1883  0.1630 -0.4665
13082TIP3    H160661   4.821   6.211   0.820 -1.4572  1.7781 -0.5945
13082TIP3    H260662   4.864   6.348   0.868  1.5219  0.7780 -0.1944
13083TIP3   OH260663   2.879   2.041  11.310  0.4821 -0.3335 -0.7861
13083TIP3    H160664   2.823   2.117  11.295  0.7497 -0.0619 -0.4227
13083TIP3    H260665   2.962   2.064  11.269  0.3383 -0.7301 -1.3135
13084TIP3   OH260666   2.344   2.815   1.472 -0.3578 -0.1925  0.6043
13084TIP3    H160667   2.412   2.879   1.489 -0.9304  0.5605  0.1141
13084TIP3    H260668   2.334   2.816   1.377  0.9608 -2.4135  0.3623
13085TIP3   OH260669   5.475   2.237   1.706  0.9280 -0.0507 -0.0219
13085TIP3    H160670   5.533   2.166   1.733  1.0769  0.4445  1.0193
13085TIP3    H260671   5.392   2.195   1.686  1.5143 -0.7189 -1.1140
13086TIP3   OH260672   2.676   4.529   1.946  0.4322  0.0674 -0.0584
13086TIP3    H160673   2.733   4.551   2.020  1.1709 -0.1643 -0.5436
13086TIP3    H260674   2.630   4.610   1.926 -0.4168 -0.0672  1.1783
13087TIP3   OH260675   0.439   2.616   1.253  0.1423  0.3890 -0.2358
13087TIP3    H160676   0.445   2.697   1.204  1.4880  0.5754  0.2186
13087TIP3    H260677   0.526   2.577   1.247 -0.2937 -0.6849  0.1288
13088TIP3   OH260678   4.992   1.467  13.188 -0.3851 -0.0315  0.0355
13088TIP3    H160679   4.969   1.422  13.270  0.2075 -1.0034 -0.3137
13088TIP3    H260680   4.911   1.467  13.137 -0.3559 -0.8569 -0.0220
13089TIP3   OH260681   4.921   4.792   0.678 -0.0548 -0.0621 -0.0322
13089TIP3    H160682   4.908   4.754   0.765  1.5216  2.8151  1.6045
13089TIP3    H260683   4.956   4.721   0.625 -4.0210 -2.8182  0.6155
13090TIP3   OH260684   5.479   0.514   4.346  0.1209  0.3167  0.4077
13090TIP3    H160685   5.561   0.550   4.312  0.0611  1.1215  1.0860
13090TIP3    H260686   5.507   0.442   4.403  0.2002 -1.5050 -1.7436
13091TIP3   OH260687   0.050   1.694  13.242  0.3933  0.3730  0.6803
13091TIP3    H160688  -0.016   1.662  13.180  0.9720  1.8403 -0.7425
13091TIP3    H260689   0.129   1.706  13.190  1.0462  1.1748  1.8063
13092TIP3   OH260690   5.597   0.428   9.837  0.4446 -0.0008  0.0131
13092TIP3    H160691   5.638   0.341   9.838  1.6280  0.5079  1.8867
13092TIP3    H260692   5.532   0.424   9.907 -3.2788 -0.9180 -3.1509
13093TIP3   OH260693   6.840   1.689   0.990 -0.4420  0.0091 -0.0743
13093TIP3    H160694   6.818   1.771   1.034 -0.5855 -0.2392  0.3188
13093TIP3    H260695   6.927   1.666   1.024 -0.8275 -0.5183  0.5775
13094TIP3   OH260696   5.016   0.556   3.073  0.6119 -0.3719  0.4856
13094TIP3    H160697   4.947   0.531   3.012  1.6103  0.5297 -1.1221
13094TIP3    H260698   5.097   0.546   3.022  1.6327 -0.9838  2.1619
13095TIP3   OH260699   5.075   1.665   0.241 -0.4119 -0.3447 -0.2712
13095TIP3    H160700   5.039   1.645   0.154  0.0603 -0.8206 -0.3610
13095TIP3    H260701   5.068   1.760   0.248  0.4930 -0.1906 -1.2533
13096TIP3   OH260702   4.225   3.203   2.115  0.0319  0.6367  0.2365
13096TIP3    H160703   4.308   3.160   2.133 -0.2240 -0.2140 -0.5416
13096TIP3    H260704   4.187   3.221   2.201  0.7418  0.4820  0.5828
13097TIP3   OH260705   3.504   2.780   0.684 -0.4744  0.1399  0.2176
13097TIP3    H160706   3.437   2.814   0.744 -0.7769 -1.6220  0.9309
13097TIP3    H260707   3.570   2.741   0.741 -0.2099 -0.5755 -0.5548
13098TIP3   OH260708   2.633   2.871   3.878  0.0735 -0.0318 -0.1254
13098TIP3    H160709   2.652   2.832   3.963  0.8495 -0.2376 -0.3874
13098TIP3    H260710   2.708   2.849   3.823 -1.9732 -3.0736 -2.0007
13099TIP3   OH260711   5.016   6.332   0.570 -0.0377 -0.1961  0.0892
13099TIP3    H160712   4.984   6.403   0.514  0.7009  0.2887  0.2674
13099TIP3    H260713   4.968   6.341   0.652 -0.3141 -0.2174 -0.0719
13100TIP3   OH260714   6.165   2.214   2.464  0.2865  0.2611 -0.6721
13100TIP3    H160715   6.091   2.274   2.466  0.8878  1.0844 -1.7865
13100TIP3    H260716   6.204   2.220   2.551 -1.1711 -0.5049  0.0704
13101TIP3   OH260717   6.718   1.337   5.290  0.1801  0.7297  0.5113
13101TIP3    H160718   6.653   1.391   5.245 -0.0407 -1.0224 -1.3988
13101TIP3    H260719   6.675   1.309   5.370 -1.3705 -0.1862 -0.5944
13102TIP3   OH260720   1.819   5.431  14.248  0.2436  0.7074 -0.5581
13102TIP3    H160721   1.842   5.372  14.319 -0.0979  0.8958 -0.2875
13102TIP3    H260722   1.865   5.396  14.171  0.0608  0.1090 -0.3971
13103TIP3   OH260723   4.944   2.870  10.266 -0.3553  0.7369  0.0635
13103TIP3    H160724   4.986   2.953  10.246  3.0812 -0.6946  0.7255
13103TIP3    H260725   4.943   2.866  10.362 -0.9066  0.1695  0.0443
13104TIP3   OH260726   5.134   0.148   3.243  0.5072  0.3578  0.3413
13104TIP3    H160727   5.132   0.243   3.236  2.1641  0.4473  0.5739
13104TIP3    H260728   5.227   0.126   3.246  0.2331 -1.4083 -1.5959
13105TIP3   OH260729   2.958   3.209   2.322 -0.5674 -0.2173  0.1041
13105TIP3    H160730   3.053   3.212   2.313 -0.6575 -0.0018 -0.8664
13105TIP3    H260731   2.925   3.243   2.239 -1.5031 -2.2615 -0.4286
13106TIP3   OH260732   2.151   2.153   2.964 -0.8457  0.5062  0.4160
13106TIP3    H160733   2.204   2.147   2.885 -1.5370  0.7771 -0.0768
13106TIP3    H260734   2.091   2.078   2.958 -0.8235  0.4611  0.7405
13107TIP3   OH260735   0.550   5.236   5.118  0.8243 -0.5752 -0.0840
13107TIP3    H160736   0.576   5.169   5.054 -1.2616 -0.2153 -1.4000
13107TIP3    H260737   0.589   5.317   5.085 -0.8191 -0.2555 -1.3877
13108TIP3   OH260738   6.649   1.354   3.939 -0.1488  0.0084 -0.0633
13108TIP3    H160739   6.597   1.365   4.019 -0.6427 -2.3494  0.0173
13108TIP3    H260740   6.584   1.335   3.871  0.4662 -1.0244 -0.3730
13109TIP3   OH260741   5.759   5.843  12.086 -0.6250  0.3376 -0.3473
13109TIP3    H160742   5.802   5.905  12.145  0.5799 -0.8172  0.0269
13109TIP3    H260743   5.723   5.898  12.016  1.3101  1.3821 -0.5957
13110TIP3   OH260744   1.082   2.413   0.507 -0.9643  0.3133  0.1982
13110TIP3    H160745   1.105   2.348   0.574 -2.8525 -1.1518 -0.5090
13110TIP3    H260746   1.161   2.420   0.453  0.2695  0.8305  1.9837
13111TIP3   OH260747   3.351   6.071  12.448  0.0836  0.0548 -0.3744
13111TIP3    H160748   3.269   6.040  12.412 -0.0961 -0.6928  0.6402
13111TIP3    H260749   3.326   6.118  12.528  0.4122  2.2350 -1.4583
13112TIP3   OH260750   2.598   2.459  14.626 -0.2500 -0.0385  0.3883
13112TIP3    H160751   2.551   2.380  14.600  0.9335 -0.3727 -0.8833
13112TIP3    H260752   2.550   2.493  14.701 -1.0872 -1.6732  0.6197
13113TIP3   OH260753   1.176   5.497   4.551 -0.6681 -0.1201 -0.4046
13113TIP3    H160754   1.166   5.506   4.456  0.7757 -0.4631 -0.6140
13113TIP3    H260755   1.252   5.440   4.562 -2.0886 -1.8739  0.9560
13114TIP3   OH260756   5.144   1.495  10.889 -0.1413 -0.6564  0.2137
13114TIP3    H160757   5.150   1.517  10.982  0.2069 -0.9061  0.2507
13114TIP3    H260758   5.134   1.400  10.887  1.2940 -0.8213 -0.0552
13115TIP3   OH260759   4.771   4.624  15.011 -0.4928  0.6730  0.1004
13115TIP3    H160760   4.709   4.668  15.068 -1.6301 -0.3575 -0.3058
13115TIP3    H260761   4.841   4.594  15.070 -1.6352 -0.3607  0.9737
13116TIP3   OH260762   4.641   3.864  15.233  0.5049 -0.4868  0.1704
13116TIP3    H160763   4.562   3.817  15.206  0.4170 -0.9158  1.1226
13116TIP3    H260764   4.711   3.800  15.224  1.1577  0.5126 -2.7489
13117TIP3   OH260765   6.733   2.840  14.922 -0.0976  0.3850 -0.2291
13117TIP3    H160766   6.745   2.902  14.850 -0.9236 -0.6985 -1.3432
13117TIP3    H260767   6.660   2.784  14.893 -0.3066 -0.2015  1.3660
13118TIP3   OH260768   3.150   6.132   1.026  0.0076  0.5751 -0.0137
13118TIP3    H160769   3.159   6.094   1.113 -1.2521  0.0381 -0.0881
13118TIP3    H260770   3.235   6.119   0.985  0.0576 -0.8910  0.4834
13119TIP3   OH260771   5.524   3.930   0.311 -0.0491  0.6912  0.0796
13119TIP3    H160772   5.438   3.938   0.269  1.1931  0.4813 -2.7850
13119TIP3    H260773   5.579   3.994   0.266  1.2407  1.0877  2.0952
13120TIP3   OH260774   0.244   0.112  14.306 -0.3780 -0.1007  0.4113
13120TIP3    H160775   0.241   0.060  14.225  2.9944 -0.4757  0.3892
13120TIP3    H260776   0.216   0.050  14.374 -0.6391 -0.5894 -0.1237
13121TIP3   OH260777   0.566   6.073  14.499  0.0703  0.5722  0.2968
13121TIP3    H160778   0.576   6.060  14.593  1.4150 -0.9740 -0.0253
13121TIP3    H260779   0.586   6.166  14.486 -2.8392  1.5630  1.8093
13122TIP3   OH260780   3.503   5.948  11.641 -0.3770 -0.0028  0.1320
13122TIP3    H160781   3.580   5.957  11.586  0.1947  0.7763  1.0401
13122TIP3    H260782   3.494   5.853  11.655  0.0136 -0.1407 -0.5124
13123TIP3   OH260783   6.475   6.900  13.387  0.2114  0.1866  0.2297
13123TIP3    H160784   6.496   6.820  13.339 -1.4385 -2.0994  3.0484
13123TIP3    H260785   6.524   6.893  13.469 -0.4106  1.8234  0.7906
13124TIP3   OH260786   0.937   6.693   0.538 -0.2616  0.3870  0.1711
13124TIP3    H160787   1.026   6.707   0.569 -0.7725  2.3146  0.9286
13124TIP3    H260788   0.947   6.658   0.449  1.2172 -1.3156  0.9452
13125TIP3   OH260789   5.492   5.605   3.567  0.1987  0.1930  0.3217
13125TIP3    H160790   5.539   5.523   3.584  1.9180  1.1862  0.5760
13125TIP3    H260791   5.436   5.617   3.643 -2.2481 -2.1144 -0.9447
13126TIP3   OH260792   2.571   0.389  12.752 -0.2061 -0.0578  0.2421
13126TIP3    H160793   2.666   0.393  12.767  0.1945  1.7516 -2.1782
13126TIP3    H260794   2.537   0.470  12.790 -0.4133  0.4244 -0.9396
13127TIP3   OH260795   2.910   4.030   2.144 -0.8028 -0.4382 -0.0747
13127TIP3    H160796   2.869   4.114   2.161  0.3099  0.2781 -0.8188
13127TIP3    H260797   2.837   3.973   2.119 -1.5453  0.3413  0.2612
13128TIP3   OH260798   4.649   5.182  15.164 -0.0962 -0.3462  0.1150
13128TIP3    H160799   4.734   5.142  15.149  0.7012 -0.4542  4.0112
13128TIP3    H260800   4.586   5.111  15.152  0.9400 -1.8305  2.7578
13129TIP3   OH260801   1.722   5.866  14.194 -0.7638 -0.0752  0.2927
13129TIP3    H160802   1.788   5.823  14.140  1.7065  1.8011  1.6277
13129TIP3    H260803   1.689   5.937  14.140  1.0054  1.2046  0.8120
13130TIP3   OH260804   5.851   1.651   0.811  0.6048 -0.0232 -0.4124
13130TIP3    H160805   5.849   1.602   0.894 -0.8036  0.2530 -0.2441
13130TIP3    H260806   5.778   1.614   0.760  0.9235  0.3897 -1.1841
13131TIP3   OH260807   0.425   5.659   1.075  0.2903 -0.3804  0.4438
13131TIP3    H160808   0.519   5.680   1.077  0.0745  0.7744 -0.7380
13131TIP3    H260809   0.400   5.667   0.983 -0.9003 -1.0676  0.6858
13132TIP3   OH260810   5.728   5.178  14.880 -0.0965 -0.3216 -0.1003
13132TIP3    H160811   5.645   5.143  14.848 -0.7354  0.4286  0.6957
13132TIP3    H260812   5.705   5.225  14.961  1.2224 -0.7767  0.5629
13133TIP3   OH260813   6.636   4.494   1.099  0.8371 -0.0245 -0.7824
13133TIP3    H160814   6.718   4.530   1.132  1.0221 -0.7058 -0.4968
13133TIP3    H260815   6.608   4.557   1.031  0.2932  1.5681  0.8379
13134TIP3   OH260816   3.686   1.981   4.505  0.0329  0.0621 -0.5321
13134TIP3    H160817   3.607   1.935   4.475  2.0839 -4.1216 -0.1424
13134TIP3    H260818   3.741   1.986   4.427  0.1457  1.3437 -0.3911
13135TIP3   OH260819   1.228   1.157   1.527 -0.3828  0.3896 -0.2485
13135TIP3    H160820   1.150   1.103   1.540  0.0839 -0.3655 -0.5658
13135TIP3    H260821   1.279   1.145   1.607 -0.6828  1.0498  0.0489
13136TIP3   OH260822   3.513   6.755  14.701  0.2464 -0.2207 -0.2967
13136TIP3    H160823   3.437   6.749  14.643 -0.8206  1.5388  0.8175
13136TIP3    H260824   3.558   6.835  14.673  0.9647 -0.5566 -0.1150
13137TIP3   OH260825   6.160   0.938   5.201  0.1149  0.1329 -0.1904
13137TIP3    H160826   6.187   0.937   5.293 -0.8921  1.6195  0.1537
13137TIP3    H260827   6.077   0.985   5.201  1.8197  3.5402 -2.2932
13138TIP3   OH260828   5.331   2.928   2.278 -0.1052 -0.2881  0.0139
13138TIP3    H160829   5.371   3.010   2.306  2.2062 -1.2131 -0.3754
13138TIP3    H260830   5.392   2.860   2.307 -0.1481 -1.6237 -2.7379
13139TIP3   OH260831   3.261   2.118   5.035 -0.1865 -0.1830 -0.2234
13139TIP3    H160832   3.254   2.054   4.964  1.7480  0.7538 -1.3551
13139TIP3    H260833   3.352   2.110   5.065 -0.8347 -0.2302  1.8891
13140TIP3   OH260834   3.023   2.114   0.519 -0.0205  0.2294 -0.8310
13140TIP3    H160835   2.931   2.101   0.496 -0.4282  0.3481  0.6119
13140TIP3    H260836   3.070   2.046   0.472 -0.4254  1.9127 -3.9405
13141TIP3   OH260837   4.360   5.746  13.041 -0.0894 -0.4025  0.2957
13141TIP3    H160838   4.278   5.748  13.089 -1.1507 -0.2439 -1.4682
13141TIP3    H260839   4.409   5.673  13.080  0.2541  1.2719  3.3385
13142TIP3   OH260840   6.003   1.664   2.198  0.1055 -0.0363  0.2416
13142TIP3    H160841   6.057   1.608   2.253 -0.7857 -0.2302  0.9402
13142TIP3    H260842   6.065   1.709   2.141  0.7716 -2.5631 -1.1473
13143TIP3   OH260843   4.259   4.005  14.299 -0.0232  0.8133  0.4713
13143TIP3    H160844   4.183   4.060  14.283 -0.5676  0.3797  1.4922
13143TIP3    H260845   4.248   3.930  14.240  0.0389  1.1500  0.0319
13144TIP3   OH260846   3.484   6.534   1.322  0.1171 -0.6525 -0.0383
13144TIP3    H160847   3.436   6.505   1.399  0.2640 -0.6300  0.0627
13144TIP3    H260848   3.425   6.517   1.249 -1.3662  2.2129  0.3331
13145TIP3   OH260849   5.321   2.793  14.425 -0.0817  0.4905  0.3020
13145TIP3    H160850   5.327   2.697  14.420 -0.7878  0.4438  0.3836
13145TIP3    H260851   5.403   2.823  14.384 -0.1595 -0.1317 -0.3360
13146TIP3   OH260852   4.557   3.848   3.484 -0.0499  0.4630  0.0738
13146TIP3    H160853   4.484   3.792   3.508  0.1763  0.5847  1.0903
13146TIP3    H260854   4.635   3.800   3.513  0.3193  0.1615 -1.3339
13147TIP3   OH260855   6.097   4.960  14.533  0.4200  0.3035  0.1433
13147TIP3    H160856   6.120   4.869  14.551  0.3588  0.4069  0.7730
13147TIP3    H260857   6.077   4.961  14.440 -0.4356 -0.5258  0.2918
13148TIP3   OH260858   0.086   3.103  12.201  0.3463 -0.6468 -0.5323
13148TIP3    H160859   0.047   3.190  12.212 -0.0651 -0.7066 -1.4259
13148TIP3    H260860   0.137   3.110  12.120  0.7351 -1.0910 -0.3287
13149TIP3   OH260861   0.539   3.371  13.266  0.1863 -0.2376 -0.1181
13149TIP3    H160862   0.602   3.321  13.318 -0.0427 -0.9973 -0.5468
13149TIP3    H260863   0.592   3.432  13.216  0.4976 -0.2246  0.2260
13150TIP3   OH260864   5.730   1.039  13.683 -0.3141 -0.5232 -0.0148
13150TIP3    H160865   5.773   1.001  13.607  1.4967 -1.1732  1.2683
13150TIP3    H260866   5.801   1.061  13.743 -1.4546  2.3987  0.4761
13151TIP3   OH260867   0.859   4.474   0.415 -0.3261  0.4674 -0.1722
13151TIP3    H160868   0.776   4.473   0.463 -0.5617  1.2682 -0.5526
13151TIP3    H260869   0.855   4.395   0.360 -1.5756  1.3438 -1.3965
13152TIP3   OH260870   0.081   4.092   0.987  0.0866 -0.9991 -0.3109
13152TIP3    H160871   0.042   4.135   0.911 -0.9697  0.8816  1.2361
13152TIP3    H260872   0.162   4.141   1.002  1.2187 -2.4942 -1.2206
13153TIP3   OH260873   6.044   2.907   4.355 -0.5017  0.3384 -0.0542
13153TIP3    H160874   6.028   2.828   4.406  2.1786 -0.2741 -0.0379
13153TIP3    H260875   6.049   2.876   4.264  0.5017  0.4531 -0.0516
13154TIP3   OH260876   0.902   5.998   1.542 -0.1345  0.2558  0.4875
13154TIP3    H160877   0.807   6.009   1.553 -0.1936  1.2347 -0.8480
13154TIP3    H260878   0.929   6.075   1.492  0.9655 -1.2295 -1.3173
13155TIP3   OH260879   4.792   5.179   0.232  0.2865 -0.5207  0.1362
13155TIP3    H160880   4.781   5.262   0.280  0.7067 -1.2064  1.4839
13155TIP3    H260881   4.847   5.203   0.157  1.2331  0.2710  1.0332
13156TIP3   OH260882   5.930   6.585  12.983 -0.1297 -0.7201 -0.2217
13156TIP3    H160883   5.986   6.562  12.908 -1.0463 -0.1024 -1.1133
13156TIP3    H260884   5.984   6.564  13.060  1.1783 -0.5217 -1.0450
13157TIP3   OH260885   6.403   6.286   4.090 -0.1359 -0.1409  0.4187
13157TIP3    H160886   6.386   6.216   4.153  0.4199  0.0310  0.7654
13157TIP3    H260887   6.335   6.351   4.107  0.5451  0.3076  1.4411
13158TIP3   OH260888   1.533   6.669  13.348 -0.8897 -0.8991 -0.3537
13158TIP3    H160889   1.441   6.681  13.323 -0.2796  1.4271 -1.8187
13158TIP3    H260890   1.550   6.738  13.412 -0.5497 -2.3960  1.2503
13159TIP3   OH260891   1.962   0.518  13.113 -0.4117  0.3478 -0.3695
13159TIP3    H160892   1.881   0.504  13.163 -0.6759 -0.3360 -0.9731
13159TIP3    H260893   1.996   0.601  13.146 -1.0598  0.3643  0.2968
13160TIP3   OH260894   2.207   4.179  14.104 -0.3944  0.1589 -0.0475
13160TIP3    H160895   2.210   4.237  14.027 -1.5400 -0.6635 -0.7388
13160TIP3    H260896   2.124   4.132  14.095  1.0774 -2.6056 -0.2719
13161TIP3   OH260897   2.161   0.417   3.035  0.0451  0.0702 -0.1390
13161TIP3    H160898   2.112   0.447   2.958  0.6348  0.5832 -0.3229
13161TIP3    H260899   2.107   0.442   3.110 -0.2500  0.0989 -0.3607
13162TIP3   OH260900   4.428   2.805   3.497 -0.0191 -0.6015 -0.1041
13162TIP3    H160901   4.387   2.732   3.451 -1.6234 -0.3232  0.8206
13162TIP3    H260902   4.387   2.883   3.460  1.7888 -0.1027 -1.1964
13163TIP3   OH260903   0.677   6.724   0.460  0.8015 -0.1778 -0.0714
13163TIP3    H160904   0.743   6.699   0.525  1.0115  0.7784  0.1065
13163TIP3    H260905   0.678   6.820   0.462 -0.8794 -0.1332  0.2425
13164TIP3   OH260906   4.321   7.144   1.622 -0.3351  0.3621 -0.2581
13164TIP3    H160907   4.395   7.084   1.619 -0.3176  0.2360  1.5446
13164TIP3    H260908   4.347   7.212   1.683 -0.3262  2.3224 -2.3123
13165TIP3   OH260909   4.423   5.789  15.010  0.1313 -0.1774 -0.4614
13165TIP3    H160910   4.377   5.861  15.053 -0.7928 -1.4626  0.8149
13165TIP3    H260911   4.511   5.791  15.047  0.4802  0.9752 -1.3014
13166TIP3   OH260912   0.692   5.043  11.228  0.1199 -0.0434 -0.1962
13166TIP3    H160913   0.770   5.085  11.265  0.2343 -0.8215  0.4650
13166TIP3    H260914   0.686   4.959  11.274 -0.9855 -0.0859 -0.3974
13167TIP3   OH260915   3.143   3.483  14.661 -0.7971  0.3789 -0.3917
13167TIP3    H160916   3.105   3.544  14.724 -0.6203  1.6864 -1.5210
13167TIP3    H260917   3.189   3.538  14.598 -0.2689 -0.9498 -1.2068
13168TIP3   OH260918   2.169   1.674   3.306  0.1226 -0.4095  0.1365
13168TIP3    H160919   2.182   1.759   3.348 -0.4362 -0.2791  0.0447
13168TIP3    H260920   2.125   1.695   3.223  1.9213 -0.5704 -0.9162
13169TIP3   OH260921   6.708   4.140   2.357  0.6858 -0.3642 -0.0833
13169TIP3    H160922   6.796   4.173   2.374  0.2200  0.5421  0.6648
13169TIP3    H260923   6.653   4.183   2.422 -0.3347 -0.8205 -0.6152
13170TIP3   OH260924   0.176   0.359   1.204 -0.2361  0.1198  0.5382
13170TIP3    H160925   0.106   0.390   1.147 -0.3097  0.0130  0.5699
13170TIP3    H260926   0.146   0.377   1.292  1.0086  2.7451  0.5197
13171TIP3   OH260927   4.746   6.296   1.361  0.2346 -0.3332  0.2009
13171TIP3    H160928   4.776   6.216   1.319  1.5423  1.1498 -1.9393
13171TIP3    H260929   4.808   6.310   1.433  1.6797  0.0575 -1.0542
13172TIP3   OH260930   7.204   0.820  14.132 -0.6293 -0.0040  0.2215
13172TIP3    H160931   7.278   0.865  14.173 -1.2008 -0.1703  1.4847
13172TIP3    H260932   7.127   0.855  14.177 -1.3649  0.3858 -1.2709
13173TIP3   OH260933   2.505   2.124  12.086  0.2614 -0.0088 -0.7981
13173TIP3    H160934   2.476   2.155  12.172 -2.2976 -0.9742 -1.2318
13173TIP3    H260935   2.465   2.185  12.023  0.4215 -0.5011 -1.3873
13174TIP3   OH260936   4.521   5.000  14.869  0.5753 -0.3671 -0.2309
13174TIP3    H160937   4.476   4.969  14.791 -2.0360  0.7043  0.7462
13174TIP3    H260938   4.515   4.927  14.931  1.8321 -0.8770 -0.6789
13175TIP3   OH260939   5.802   0.056   0.119 -0.6391 -0.2671  0.5636
13175TIP3    H160940   5.813   0.024   0.208  2.3480 -0.9149  0.0747
13175TIP3    H260941   5.841  -0.011   0.063  0.4787  1.5035 -0.9466
13176TIP3   OH260942   0.403   3.622  11.306 -0.2702 -0.4288 -1.2306
13176TIP3    H160943   0.460   3.673  11.363 -1.1642 -0.2103 -0.5065
13176TIP3    H260944   0.448   3.622  11.221  0.4628  0.3060 -0.8614
13177TIP3   OH260945   5.490   2.692  13.512 -0.1243  0.3843  0.7482
13177TIP3    H160946   5.507   2.710  13.605 -0.7422 -1.2491  1.2153
13177TIP3    H260947   5.396   2.705  13.503 -0.2579 -0.5752  0.6450
13178TIP3   OH260948   0.545   3.137   4.445 -0.0232  0.2037  0.4780
13178TIP3    H160949   0.514   3.057   4.402  1.2738  1.0053 -2.1618
13178TIP3    H260950   0.479   3.155   4.511 -0.7101 -2.6669  0.7373
13179TIP3   OH260951   3.043   2.211   4.660  0.2700 -0.2920 -0.0860
13179TIP3    H160952   3.078   2.249   4.741 -0.7895  0.2103  0.1511
13179TIP3    H260953   3.010   2.285   4.610  0.9967 -0.5875 -1.0457
13180TIP3   OH260954   2.631   1.077   0.718 -0.2022  0.6957 -0.3575
13180TIP3    H160955   2.661   1.117   0.636  0.0540 -1.0550 -1.1699
13180TIP3    H260956   2.536   1.077   0.711 -0.2751  2.2434  0.2253
13181TIP3   OH260957   2.244   2.167   2.154 -0.3016 -0.1525  0.3387
13181TIP3    H160958   2.296   2.108   2.099 -2.0827 -2.1317  0.6542
13181TIP3    H260959   2.154   2.136   2.143 -1.0861  1.4488  1.8861
13182TIP3   OH260960   0.997   1.211   4.463 -0.1104 -0.1915 -0.2334
13182TIP3    H160961   0.981   1.284   4.402 -0.2326  0.3389  0.4179
13182TIP3    H260962   0.995   1.252   4.550  2.7731 -0.4214  0.0246
13183TIP3   OH260963   2.675   3.974   4.835  0.1408 -0.7818 -0.2056
13183TIP3    H160964   2.624   4.017   4.765  0.5290  0.4362  0.2303
13183TIP3    H260965   2.613   3.965   4.907  0.4168  0.4046  0.2097
13184TIP3   OH260966   3.080   5.844   0.915  0.2584 -0.2435 -0.5021
13184TIP3    H160967   3.109   5.889   0.994  0.8502  1.1477 -1.4549
13184TIP3    H260968   3.137   5.879   0.846 -0.9820 -0.5484 -1.7293
13185TIP3   OH260969   6.580   0.637   1.362 -0.2486 -0.0934 -0.5842
13185TIP3    H160970   6.645   0.705   1.377  0.0408 -0.5788  0.4273
13185TIP3    H260971   6.603   0.599   1.277  1.6334 -1.1645  0.3319
13186TIP3   OH260972   6.493   0.737  14.056 -0.0158  0.3871 -0.5704
13186TIP3    H160973   6.488   0.829  14.081  1.6239  0.5217 -0.6256
13186TIP3    H260974   6.493   0.689  14.139  1.2289  0.5878 -0.4300
13187TIP3   OH260975   1.539   3.548   4.544 -0.3619 -0.2601  0.2135
13187TIP3    H160976   1.594   3.485   4.590 -2.0340 -0.5891  1.8850
13187TIP3    H260977   1.508   3.607   4.613 -0.4961  1.1310 -0.9963
13188TIP3   OH260978   1.755   5.279  13.013 -0.2505  0.0626  0.1338
13188TIP3    H160979   1.789   5.364  13.039 -0.4953 -0.0804  0.9490
13188TIP3    H260980   1.666   5.296  12.984  0.9519  0.7404 -3.7634
13189TIP3   OH260981   4.396   6.338   5.017 -0.2659  0.1659 -0.6598
13189TIP3    H160982   4.398   6.430   4.989  1.1299  0.1120 -0.8505
13189TIP3    H260983   4.414   6.341   5.111  0.2471  0.0780 -0.7501
13190TIP3   OH260984   1.992   6.868   2.025 -0.1244 -0.2816 -0.3917
13190TIP3    H160985   2.014   6.828   2.109  1.0257  0.1171 -0.4863
13190TIP3    H260986   2.007   6.961   2.038 -0.7225 -0.1258 -0.8051
13191TIP3   OH260987   7.072   0.791   0.442 -0.0215 -0.0271 -0.3408
13191TIP3    H160988   7.003   0.828   0.498  0.5708  0.5987 -0.0021
13191TIP3    H260989   7.060   0.834   0.358 -0.6768 -0.6849 -0.5924
13192TIP3   OH260990   4.167   2.772   3.141 -0.1219 -0.2236 -0.1087
13192TIP3    H160991   4.232   2.843   3.139  0.0739 -0.4105 -0.3430
13192TIP3    H260992   4.156   2.753   3.234 -0.2200  0.1562 -0.0386
13193TIP3   OH260993   3.501   6.714   4.881 -0.1370  0.1288 -0.0395
13193TIP3    H160994   3.438   6.706   4.809  0.5400 -1.0937 -0.5337
13193TIP3    H260995   3.447   6.715   4.960 -0.8120 -0.6654 -0.4652
13194TIP3   OH260996   6.079   5.905  13.038 -0.0645 -0.3991 -0.0081
13194TIP3    H160997   6.104   5.976  12.980 -1.0439  0.8571  1.0249
13194TIP3    H260998   6.125   5.829  13.005  1.4907  0.8366 -0.8070
13195TIP3   OH260999   5.219   3.726   3.451  0.1325  0.3031 -0.0642
13195TIP3    H161000   5.186   3.637   3.458  0.8214 -0.2908 -3.2328
13195TIP3    H261001   5.143   3.779   3.428  0.2978 -0.1009 -1.6367
13196TIP3   OH261002   3.548   6.102  15.027 -0.0812  0.0633  0.1733
13196TIP3    H161003   3.505   6.109  15.112  0.1684 -0.8335  0.3870
13196TIP3    H261004   3.640   6.085  15.049  0.1550  0.7433 -0.2767
13197TIP3   OH261005   7.100   1.783   4.199  0.0406 -0.0513 -0.0153
13197TIP3    H161006   7.128   1.692   4.209  2.5563  0.7590  1.1908
13197TIP3    H261007   7.059   1.805   4.283 -0.4813 -0.0396 -0.2714
13198TIP3   OH261008   2.572   4.304   0.718 -0.0138  1.1763  0.0898
13198TIP3    H161009   2.598   4.392   0.742 -0.3235  0.8169  1.8875
13198TIP3    H261010   2.489   4.290   0.763 -0.5891  0.3880 -1.1601
13199TIP3   OH261011   3.976   4.317   4.420 -0.0529  0.2240 -0.3514
13199TIP3    H161012   4.000   4.406   4.443 -0.2801  0.1529  0.1674
13199TIP3    H261013   4.049   4.284   4.368  0.5947  0.2828  0.5162
13200TIP3   OH261014   5.080   4.794   4.863  0.1901  0.5246 -0.1110
13200TIP3    H161015   5.008   4.841   4.906 -0.1052 -0.1024  0.0995
13200TIP3    H261016   5.134   4.863   4.824  0.1044  1.0666  0.7065
13201TIP3   OH261017   4.139   4.109  14.958 -0.5806  0.1246 -0.2989
13201TIP3    H161018   4.154   4.058  14.878 -0.8339  0.3620 -0.4987
13201TIP3    H261019   4.048   4.090  14.981 -0.6662  0.4609 -0.3555
13202TIP3   OH261020   5.017   0.027   2.425 -0.0321 -0.0277  0.2772
13202TIP3    H161021   5.056   0.113   2.412  1.1292 -0.4775  0.6348
13202TIP3    H261022   5.086  -0.035   2.399  0.9969 -0.9181  4.3603
13203TIP3   OH261023   5.223   5.545   0.662 -0.1742 -0.5015  0.4053
13203TIP3    H161024   5.226   5.481   0.591 -0.8608  1.6253 -1.6669
13203TIP3    H261025   5.313   5.549   0.696  0.0751 -1.8215 -0.0556
13204TIP3   OH261026   5.669   1.578  13.783 -0.1231  0.1015 -0.1128
13204TIP3    H161027   5.739   1.635  13.812  0.7803 -0.6373 -0.7664
13204TIP3    H261028   5.589   1.614  13.822  0.1790  2.6705 -1.6500
13205TIP3   OH261029   4.948   5.796   4.892  0.3271  0.2268  0.0351
13205TIP3    H161030   5.031   5.839   4.912  0.6490 -0.8765  1.2185
13205TIP3    H261031   4.891   5.818   4.966 -0.4797  0.9884 -0.7710
13206TIP3   OH261032   5.078   3.140   4.341 -0.4816 -0.3734 -0.4665
13206TIP3    H161033   5.106   3.067   4.286 -0.0561  0.7215 -1.7498
13206TIP3    H261034   5.138   3.211   4.318  0.3738 -0.1470  2.1585
13207TIP3   OH261035   4.882   7.196  13.412 -0.7589 -0.1793 -0.1007
13207TIP3    H161036   4.849   7.140  13.483 -1.4087 -2.1380 -1.8509
13207TIP3    H261037   4.966   7.157  13.388 -0.9031 -0.0111 -0.9020
13208TIP3   OH261038   0.731   5.954   1.798 -0.1394  0.2019 -0.0132
13208TIP3    H161039   0.639   5.966   1.774  0.1129  1.8740 -0.2529
13208TIP3    H261040   0.729   5.896   1.874 -1.2450 -1.5482 -1.2935
13209TIP3   OH261041   2.816   5.496  13.769  0.4872  0.1616 -0.2280
13209TIP3    H161042   2.866   5.418  13.794  3.1745  1.9440  0.3890
13209TIP3    H261043   2.768   5.520  13.848  0.4587 -0.2751 -0.1097
13210TIP3   OH261044   2.589   1.535   2.258 -0.0457  0.4063  0.4815
13210TIP3    H161045   2.524   1.484   2.306 -0.2045 -1.9912 -2.0293
13210TIP3    H261046   2.609   1.610   2.316 -2.4337 -0.6018  2.8054
13211TIP3   OH261047   4.733   6.908  14.439 -0.0148  0.0987 -0.3773
13211TIP3    H161048   4.693   6.956  14.367 -2.2233 -2.2388 -0.8389
13211TIP3    H261049   4.689   6.823  14.439  3.9694 -2.2435  0.0181
13212TIP3   OH261050   6.222   4.980   0.413 -0.0597  0.1013 -0.1351
13212TIP3    H161051   6.172   4.978   0.494 -2.6646 -0.4111 -1.6445
13212TIP3    H261052   6.206   4.895   0.372  2.1818 -0.1287 -0.6979
13213TIP3   OH261053   0.950   0.045   2.955  0.0732  0.0630 -0.3030
13213TIP3    H161054   0.899   0.043   3.036 -0.9148  1.8272 -0.8286
13213TIP3    H261055   0.886   0.069   2.887  1.3957  1.3194 -1.1557
13214TIP3   OH261056   0.258   3.434  13.778  0.9101 -0.1312  0.2877
13214TIP3    H161057   0.167   3.416  13.755  0.7114 -0.2565  1.1505
13214TIP3    H261058   0.309   3.386  13.713  0.3661  0.3046 -0.4789
13215TIP3   OH261059   6.694   4.463   1.546 -0.6109 -0.0808 -0.0440
13215TIP3    H161060   6.751   4.459   1.469  1.5854  2.8865  1.2589
13215TIP3    H261061   6.710   4.380   1.591  2.8924  0.5913  0.2795
13216TIP3   OH261062   5.385   5.787  14.835 -0.5159  0.6785 -0.0467
13216TIP3    H161063   5.293   5.809  14.819 -1.1032 -0.4445  1.5494
13216TIP3    H261064   5.413   5.742  14.755 -1.8990 -0.5049  0.1066
13217TIP3   OH261065   1.886   2.233   0.926 -0.1830  0.5675 -0.2923
13217TIP3    H161066   1.896   2.323   0.894  0.6099 -0.0547 -1.8865
13217TIP3    H261067   1.887   2.179   0.847  0.6707 -0.9630  0.7245
13218TIP3   OH261068   2.157   0.576  12.702  0.3725 -0.2553 -0.1929
13218TIP3    H161069   2.223   0.534  12.647  1.4181  0.8375  0.1843
13218TIP3    H261070   2.115   0.640  12.644 -0.6678 -1.2165 -0.5432
13219TIP3   OH261071   2.234   4.783  15.097 -0.2152  0.2249  0.3357
13219TIP3    H161072   2.154   4.767  15.047  0.1332  0.5139 -0.3304
13219TIP3    H261073   2.247   4.703  15.148  0.4805 -0.9237 -1.5105
13220TIP3   OH261074   4.883   0.846   4.365  0.3094  0.4273  0.1930
13220TIP3    H161075   4.837   0.893   4.296  1.0211 -0.6678 -1.0630
13220TIP3    H261076   4.891   0.910   4.436 -0.5084  1.5464 -0.6906
13221TIP3   OH261077   3.588   6.929   4.486  0.5462 -0.3065  0.3708
13221TIP3    H161078   3.536   6.964   4.413  0.2449  2.5020  1.8260
13221TIP3    H261079   3.629   6.850   4.450 -2.2330 -0.9282 -1.7909
13222TIP3   OH261080   4.380   1.518  10.920 -0.3912  0.0210 -1.0024
13222TIP3    H161081   4.318   1.523  10.847  0.0282 -0.5031 -1.4027
13222TIP3    H261082   4.465   1.505  10.878  0.0393  0.9977 -0.4657
13223TIP3   OH261083   4.671   6.026  12.835 -0.0531 -0.3570 -1.1252
13223TIP3    H161084   4.616   6.081  12.780 -0.0991  1.2007  0.3841
13223TIP3    H261085   4.610   5.976  12.889 -0.0200  0.5999 -0.1787
13224TIP3   OH261086   5.827   2.856   4.981  0.0272  0.2533  0.5327
13224TIP3    H161087   5.747   2.909   4.980 -0.0096  0.2357  1.6535
13224TIP3    H261088   5.836   2.827   5.071  0.7297 -0.6345  0.1949
13225TIP3   OH261089   4.773   1.479  12.778  0.1098 -0.4649 -0.6873
13225TIP3    H161090   4.780   1.384  12.767  1.3763 -0.6767  1.5036
13225TIP3    H261091   4.791   1.495  12.871 -0.5144  1.8942 -0.8951
13226TIP3   OH261092   1.042   3.454  15.006  0.2649 -0.4043 -0.2674
13226TIP3    H161093   0.948   3.468  15.002  0.2740 -0.0421  0.5837
13226TIP3    H261094   1.070   3.449  14.915 -0.6824 -1.3059 -0.5226
13227TIP3   OH261095   6.881   5.192  14.814 -0.0971 -0.4896 -0.3254
13227TIP3    H161096   6.976   5.193  14.818 -0.0599 -1.4907 -0.6462
13227TIP3    H261097   6.853   5.219  14.901  0.4439  1.6921 -0.7714
13228TIP3   OH261098   6.138   1.242  13.484 -0.2789  0.7722 -0.6964
13228TIP3    H161099   6.101   1.169  13.434  0.0294 -0.1317  0.3552
13228TIP3    H261100   6.169   1.304  13.417 -0.3282 -0.1703 -1.6111
13229TIP3   OH261101   0.278   3.907   4.282  0.2749 -0.5489  0.1058
13229TIP3    H161102   0.282   3.924   4.187 -1.1653  0.7812  0.2353
13229TIP3    H261103   0.215   3.972   4.315  0.0643 -1.5813  1.8461
13230TIP3   OH261104   3.226   0.006  14.597 -0.5134  0.0497 -0.0068
13230TIP3    H161105   3.263  -0.012  14.511 -1.7423 -0.8291 -0.3950
13230TIP3    H261106   3.301   0.012  14.655  0.3873  1.3855 -1.2482
13231TIP3   OH261107   0.555   6.737   5.731 -0.1013  0.0503  0.2656
13231TIP3    H161108   0.560   6.825   5.694 -0.1635 -0.1311 -0.1721
13231TIP3    H261109   0.466   6.730   5.765  0.1611  0.4648  1.0848
13232TIP3   OH261110   3.200   3.953   2.761  0.3633 -0.1107 -0.0134
13232TIP3    H161111   3.281   3.950   2.813  2.0298 -1.4275 -2.4956
13232TIP3    H261112   3.155   4.032   2.791  1.5237 -0.4276  2.8791
13233TIP3   OH261113   4.451   1.998   3.878 -0.0440  0.2171  0.3611
13233TIP3    H161114   4.410   1.988   3.964  0.1653  2.1467  0.7428
13233TIP3    H261115   4.489   2.086   3.881 -1.2446  0.8969 -2.2186
13234TIP3   OH261116   6.814   5.314   4.908 -0.2615  0.1938  0.2129
13234TIP3    H161117   6.733   5.276   4.942 -0.4051  0.9012  0.6686
13234TIP3    H261118   6.883   5.257   4.943 -0.4879  0.2113  0.6936
13235TIP3   OH261119   6.921   1.434   3.027  0.7846  0.2643  0.0085
13235TIP3    H161120   6.845   1.442   2.970  0.5292  0.6644  0.3967
13235TIP3    H261121   6.885   1.418   3.114  1.1721 -0.4130  0.0541
13236TIP3   OH261122   6.859   7.106   2.656  0.0667 -0.3658 -0.1653
13236TIP3    H161123   6.943   7.151   2.651 -0.5474  0.7949 -0.3254
13236TIP3    H261124   6.810   7.152   2.724 -0.4419 -1.0316 -0.0644
13237TIP3   OH261125   4.757   2.813   0.962  0.1694 -0.1932 -0.0287
13237TIP3    H161126   4.696   2.869   0.915 -1.1407 -2.0098 -0.6332
13237TIP3    H261127   4.750   2.839   1.053  0.0065  0.9398 -0.3500
13238TIP3   OH261128   2.270   1.051   2.206 -0.0373  0.6160  0.1289
13238TIP3    H161129   2.300   0.961   2.195  0.2108  0.8236 -1.0201
13238TIP3    H261130   2.334   1.091   2.265  2.0317  1.0357 -2.2264
13239TIP3   OH261131   6.690   5.059  12.290 -0.0396  0.4076 -0.1139
13239TIP3    H161132   6.786   5.056  12.285  0.1162  2.5903  0.3904
13239TIP3    H261133   6.666   5.133  12.233 -1.5359 -0.7357 -1.0576
13240TIP3   OH261134   3.919   6.525   2.070  0.1299  0.1089 -0.3416
13240TIP3    H161135   4.000   6.545   2.117 -0.1515  0.0373  0.1815
13240TIP3    H261136   3.939   6.545   1.978  0.8517 -0.2487 -0.2731
13241TIP3   OH261137   1.261   0.321   3.133 -0.3256 -0.0067 -0.2121
13241TIP3    H161138   1.197   0.267   3.087  1.1708 -0.8083 -1.4303
13241TIP3    H261139   1.291   0.384   3.068  3.3789 -2.4719 -1.2109
13242TIP3   OH261140   6.088   4.804  15.036  0.1477 -0.6749  0.0687
13242TIP3    H161141   6.125   4.884  15.000  1.1736 -0.9561  0.4803
13242TIP3    H261142   6.081   4.820  15.130 -0.6326 -0.6906  0.0219
13243TIP3   OH261143   1.652   7.162  10.143 -0.2763  0.2386 -0.4577
13243TIP3    H161144   1.741   7.144  10.113 -0.5087  3.1325 -3.5002
13243TIP3    H261145   1.660   7.170  10.238  2.7595  0.6112 -0.6512
13244TIP3   OH261146   3.931   4.237   2.417 -0.0954 -0.0168  0.6978
13244TIP3    H161147   3.968   4.317   2.380  2.3776 -0.9801  0.9130
13244TIP3    H261148   4.007   4.188   2.449 -1.7927 -0.8226  3.9307
13245TIP3   OH261149   1.810   3.378   0.359  0.1630 -0.0913 -0.1796
13245TIP3    H161150   1.849   3.312   0.416  2.5547  0.5559 -0.9532
13245TIP3    H261151   1.718   3.353   0.352  0.2515 -1.3915  2.2229
13246TIP3   OH261152   1.162   6.053   1.591 -0.2693 -0.2564 -0.3332
13246TIP3    H161153   1.214   6.005   1.528  1.1628 -0.7500  1.1523
13246TIP3    H261154   1.091   5.993   1.614 -1.1109  0.1333 -1.8226
13247TIP3   OH261155   3.695   6.587  13.839  0.1959 -0.1716  0.4421
13247TIP3    H161156   3.749   6.665  13.827  2.0665 -1.4910 -0.1651
13247TIP3    H261157   3.610   6.610  13.800  1.5053  0.7199 -2.0664
13248TIP3   OH261158   3.569   0.413   3.775 -0.5950 -0.3309  0.2467
13248TIP3    H161159   3.606   0.500   3.760 -1.0536 -0.3038 -0.7940
13248TIP3    H261160   3.644   0.359   3.801  0.0317 -0.0689 -0.9683
13249TIP3   OH261161   1.925   3.137  13.588  0.2306 -0.0067 -0.4118
13249TIP3    H161162   1.866   3.110  13.518 -0.8722  0.4724  0.2955
13249TIP3    H261163   2.008   3.095  13.568 -0.7301 -1.8416 -0.6958
13250TIP3   OH261164   5.536   6.403   0.585  0.4500 -0.0384 -0.1734
13250TIP3    H161165   5.450   6.372   0.614  0.8365  0.2576  1.3603
13250TIP3    H261166   5.590   6.324   0.582  0.3917 -0.0797 -0.1424
13251TIP3   OH261167   4.316   6.893  14.154 -0.3228 -0.0901  0.0796
13251TIP3    H161168   4.274   6.931  14.231 -2.2596  0.2648 -1.0834
13251TIP3    H261169   4.287   6.949  14.081  1.3557 -0.4822 -0.9482
13252TIP3   OH261170   3.109   4.719   5.240 -0.3897 -0.0156  0.2158
13252TIP3    H161171   3.080   4.808   5.260 -1.0419 -0.0708 -0.4223
13252TIP3    H261172   3.120   4.678   5.325 -1.2372  0.3282  0.4998
13253TIP3   OH261173   0.462   2.480   4.111 -0.4123 -0.3250 -0.6668
13253TIP3    H161174   0.467   2.573   4.130  1.0571 -0.6406  0.6887
13253TIP3    H261175   0.372   2.456   4.136 -0.5437  0.5544 -0.2537
13254TIP3   OH261176   1.659   6.511  13.911  0.8359 -0.2447  0.3376
13254TIP3    H161177   1.594   6.442  13.894 -2.7383  2.6646  1.0247
13254TIP3    H261178   1.697   6.529  13.825 -1.6101 -0.0184 -0.8077
13255TIP3   OH261179   3.120   0.148  15.041  0.0233 -0.4205  0.0527
13255TIP3    H161180   3.033   0.178  15.014  0.0776 -0.5944 -0.3200
13255TIP3    H261181   3.115   0.144  15.137  0.5767  2.5597  0.2958
13256TIP3   OH261182   4.251   2.630  13.845 -0.1535  0.4628 -0.2385
13256TIP3    H161183   4.330   2.615  13.896  1.4517  0.3280 -2.5939
13256TIP3    H261184   4.201   2.693  13.897  0.5872 -0.8101  2.1784
13257TIP3   OH261185   0.651   4.185  13.782  0.5973  0.8556  0.1384
13257TIP3    H161186   0.632   4.278  13.772  0.9436  0.9984  0.7602
13257TIP3    H261187   0.742   4.182  13.813  0.6862  0.2986 -0.1531
13258TIP3   OH261188   4.826   3.949   4.550  0.4440 -0.2901  0.5137
13258TIP3    H161189   4.752   3.933   4.609  0.8461 -1.6233  0.6900
13258TIP3    H261190   4.841   4.043   4.555  0.3850 -0.3422  2.4447
13259TIP3   OH261191   5.349   4.319   0.335 -0.2405 -0.0233 -0.0788
13259TIP3    H161192   5.320   4.272   0.257  0.8802 -1.3180  0.2343
13259TIP3    H261193   5.441   4.337   0.319  0.1514 -0.7929  1.1378
13260TIP3   OH261194   0.966   3.628   1.592 -0.2667  0.4218 -0.0481
13260TIP3    H161195   0.932   3.584   1.671 -3.3107 -0.8714 -1.8858
13260TIP3    H261196   1.013   3.560   1.545 -0.1901  0.6479 -0.2984
13261TIP3   OH261197   5.857   0.669  14.187  0.0884  0.8034 -0.2206
13261TIP3    H161198   5.785   0.672  14.251 -0.3223  1.4946 -0.7105
13261TIP3    H261199   5.935   0.655  14.240 -0.4222 -0.1810  0.3070
13262TIP3   OH261200   0.495   0.500  14.987  0.6373  0.6244 -0.1918
13262TIP3    H161201   0.448   0.580  14.967  1.6222  0.9441 -1.3832
13262TIP3    H261202   0.452   0.464  15.064 -1.0971  1.2462 -0.8379
13263TIP3   OH261203   5.335   3.644  14.120 -0.4131  0.5099  0.0619
13263TIP3    H161204   5.272   3.703  14.078  0.9022  1.5152 -0.5540
13263TIP3    H261205   5.417   3.692  14.121  1.0537 -1.7166 -1.6159
13264TIP3   OH261206   2.878   2.236   2.036  0.3102 -0.1475 -0.0999
13264TIP3    H161207   2.939   2.305   2.009  0.6232  0.3385  1.7163
13264TIP3    H261208   2.910   2.157   1.992 -0.6659  0.9526 -3.0808
13265TIP3   OH261209   4.018   0.861   0.632 -0.2319 -0.1781 -0.3942
13265TIP3    H161210   4.088   0.917   0.667 -0.4853  0.3423 -0.6999
13265TIP3    H261211   3.967   0.920   0.576  0.6878 -1.1790 -2.3904
13266TIP3   OH261212   4.616   4.720   3.600 -0.3116 -0.2391 -0.0528
13266TIP3    H161213   4.537   4.773   3.603 -0.1181  0.0265  0.7083
13266TIP3    H261214   4.589   4.634   3.632 -0.7567 -0.8028 -1.8467
13267TIP3   OH261215   4.302   3.878  13.806  0.3996  0.5047  0.1026
13267TIP3    H161216   4.354   3.937  13.752  1.2360 -0.7705 -0.5379
13267TIP3    H261217   4.361   3.851  13.877  0.1912  0.0516  0.1082
13268TIP3   OH261218   5.335   4.967   4.446  0.6000 -0.4878  0.3528
13268TIP3    H161219   5.358   4.874   4.438  0.3230 -0.4810 -0.6160
13268TIP3    H261220   5.273   4.983   4.375 -0.5407  0.0846  1.4359
13269TIP3   OH261221   0.930   0.078   0.475 -0.1863 -0.1678 -0.1514
13269TIP3    H161222   0.867   0.061   0.405  0.2927  0.8412 -0.8450
13269TIP3    H261223   1.014   0.050   0.439 -0.0977 -0.7031  0.4501
13270TIP3   OH261224   0.891   0.834  15.288  0.1610 -0.0278  0.5293
13270TIP3    H161225   0.899   0.822  15.383 -0.6199 -1.6413  0.4355
13270TIP3    H261226   0.811   0.885  15.278 -0.6947 -1.2901  0.7048
13271TIP3   OH261227   0.353   1.099  14.606  0.0037 -0.1988  0.5446
13271TIP3    H161228   0.422   1.056  14.556  0.3282  0.4989  0.3671
13271TIP3    H261229   0.394   1.180  14.638 -1.0178  0.7626 -0.4606
13272TIP3   OH261230   3.997   4.277  13.740 -0.0024  0.1524  0.1205
13272TIP3    H161231   4.054   4.284  13.663  0.6721  2.8114  0.7612
13272TIP3    H261232   3.955   4.363  13.747 -3.0664 -1.2436  0.5271
13273TIP3   OH261233   1.089   6.869   1.090 -0.5620  0.5680  0.2250
13273TIP3    H161234   1.061   6.831   1.173  0.0828 -0.3033  0.0445
13273TIP3    H261235   1.181   6.891   1.103 -0.0725 -0.8389 -0.6931
13274TIP3   OH261236   2.553   2.572   5.270 -0.0196 -0.0378 -0.2897
13274TIP3    H161237   2.516   2.591   5.356  0.1442  0.3484 -0.3026
13274TIP3    H261238   2.609   2.647   5.251  2.0827 -1.3189  0.4654
13275TIP3   OH261239   1.259   0.562  10.662  0.0673 -0.1549 -0.2715
13275TIP3    H161240   1.232   0.603  10.745 -1.8142 -0.6925 -0.5552
13275TIP3    H261241   1.334   0.508  10.686 -0.8372 -0.8198  1.2636
13276TIP3   OH261242   6.181   5.521   2.052  0.3965  0.6898  0.1203
13276TIP3    H161243   6.086   5.514   2.046  0.5687 -2.0892 -0.8607
13276TIP3    H261244   6.213   5.484   1.970  2.3519 -0.2837  1.2385
13277TIP3   OH261245   0.809   7.030  14.055  1.0172 -0.0081  0.6459
13277TIP3    H161246   0.886   6.987  14.018  1.1492  0.8835 -0.1532
13277TIP3    H261247   0.739   6.964  14.048  0.7597  0.4517 -2.2410
13278TIP3   OH261248   0.734   5.140  13.613  0.0658 -0.2572 -0.2201
13278TIP3    H161249   0.739   5.123  13.707 -0.0781  0.5630 -0.0495
13278TIP3    H261250   0.734   5.236  13.607 -1.3444 -0.2667 -0.9639
13279TIP3   OH261251   0.856   6.027   3.191  0.3346 -0.1011 -0.3965
13279TIP3    H161252   0.854   5.953   3.129  3.0167  0.4348 -1.2464
13279TIP3    H261253   0.891   5.989   3.271  0.8002  0.0383 -0.5315
13280TIP3   OH261254   1.070   4.371  14.364 -0.4001  0.5472  1.3297
13280TIP3    H161255   0.980   4.404  14.375 -1.1011 -0.6846 -0.2909
13280TIP3    H261256   1.068   4.284  14.404  0.0588  0.4918  1.2369
13281TIP3   OH261257   6.324   2.787  13.608 -0.1338  0.0348 -0.6300
13281TIP3    H161258   6.251   2.783  13.670 -1.3343 -0.9169 -2.0411
13281TIP3    H261259   6.342   2.881  13.599 -1.5424  0.3369 -0.6292
13282TIP3   OH261260   6.404   4.388   2.720  0.0824 -0.6140  0.0209
13282TIP3    H161261   6.324   4.402   2.669 -0.3476 -0.8076  0.6441
13282TIP3    H261262   6.381   4.412   2.809  0.6054 -1.0692  0.2833
13283TIP3   OH261263   1.150   2.125   0.295  0.4986  0.0487  0.1970
13283TIP3    H161264   1.071   2.161   0.255  0.9296 -1.7645 -2.5818
13283TIP3    H261265   1.120   2.086   0.377 -1.1892  0.6799 -0.0822
13284TIP3   OH261266   2.458   6.881   0.887  0.4440  0.0858  0.4055
13284TIP3    H161267   2.497   6.814   0.832 -0.9001  0.5571 -1.2172
13284TIP3    H261268   2.365   6.857   0.893  0.0079  1.5526  0.1080
13285TIP3   OH261269   5.179   4.402   4.875 -0.3649  0.1657 -0.3616
13285TIP3    H161270   5.147   4.357   4.953 -0.5057  0.8238 -0.0328
13285TIP3    H261271   5.107   4.460   4.849 -0.1000  0.3802 -0.6345
13286TIP3   OH261272   5.482   4.688  10.359 -0.6278 -0.2307 -0.3285
13286TIP3    H161273   5.432   4.693  10.278 -0.8552 -0.3876 -0.2001
13286TIP3    H261274   5.568   4.656  10.333 -0.6254 -0.0578 -0.5377
13287TIP3   OH261275   7.063   4.960  14.770  0.9070 -0.3772  0.1248
13287TIP3    H161276   7.150   4.993  14.790  0.3347  0.3458  1.6290
13287TIP3    H261277   7.038   4.910  14.848  0.9496 -2.7741 -1.3027
13288TIP3   OH261278   2.934   4.550  14.811  0.3610 -0.4705 -0.0219
13288TIP3    H161279   2.903   4.621  14.867  1.0979  0.9003 -1.3077
13288TIP3    H261280   2.864   4.484  14.815 -0.8735  0.8175  0.2682
13289TIP3   OH261281   1.182   2.960  13.007 -0.0113  0.9536 -0.6658
13289TIP3    H161282   1.092   2.955  12.975 -0.1528 -1.6361 -0.1144
13289TIP3    H261283   1.236   2.929  12.935  0.2320  0.6764 -0.3722
13290TIP3   OH261284   6.347   4.955   1.205  0.3511  0.0709  0.3695
13290TIP3    H161285   6.341   4.869   1.163 -1.9066  0.4574 -0.2086
13290TIP3    H261286   6.432   4.954   1.250  0.2835 -2.5237  0.5631
13291TIP3   OH261287   2.521   2.860  14.091  0.5484 -0.2729  0.0394
13291TIP3    H161288   2.610   2.863  14.056  0.6259 -0.4535  0.2153
13291TIP3    H261289   2.531   2.816  14.176  0.1355 -1.2845 -0.4203
13292TIP3   OH261290   5.861   6.130   4.636  0.1355  0.1953 -0.0624
13292TIP3    H161291   5.935   6.190   4.625 -1.3183  1.7763 -2.0612
13292TIP3    H261292   5.857   6.081   4.555 -0.5660 -0.3987  0.3181
13293TIP3   OH261293   5.961   1.668   0.286  0.3360  0.0985 -0.0827
13293TIP3    H161294   6.039   1.719   0.311  0.5584  1.0251 -2.4614
13293TIP3    H261295   5.997   1.585   0.253  0.2645  0.2770 -0.6020
13294TIP3   OH261296   6.147   5.227  14.576  0.5521  0.2589 -0.5470
13294TIP3    H161297   6.081   5.294  14.562 -0.7693 -1.0321 -0.6730
13294TIP3    H261298   6.099   5.144  14.572  1.8325 -0.6425  1.3901
13295TIP3   OH261299   0.706   0.554   0.967 -0.4299  0.1099  0.4157
13295TIP3    H161300   0.619   0.583   0.940  0.1397  1.5176  0.0267
13295TIP3    H261301   0.761   0.570   0.891  0.4523  0.5659  1.1420
13296TIP3   OH261302   3.585   3.737   2.069 -0.2691  0.0408  0.1510
13296TIP3    H161303   3.567   3.727   1.976  1.2541  0.6786 -0.2240
13296TIP3    H261304   3.498   3.741   2.110 -0.9532  0.5751 -1.3150
13297TIP3   OH261305   6.778   1.090   0.533 -0.4048  0.5047  0.0574
13297TIP3    H161306   6.736   1.156   0.588 -1.2664 -1.1935  1.5543
13297TIP3    H261307   6.850   1.056   0.586  0.7064  0.9335 -1.1118
13298TIP3   OH261308   0.319   3.846  15.138  0.2226  0.1791  0.2429
13298TIP3    H161309   0.248   3.784  15.155  0.6698 -0.4072  0.0065
13298TIP3    H261310   0.382   3.796  15.085  1.3624  0.3127  1.4308
13299TIP3   OH261311   1.542   6.420   3.956  0.2699 -0.0546  0.1116
13299TIP3    H161312   1.601   6.476   3.907 -0.5671 -1.2805 -2.4589
13299TIP3    H261313   1.454   6.449   3.930 -0.1819 -1.6653 -0.2894
13300TIP3   OH261314   6.575   3.798  13.376 -0.5824 -0.1456 -0.2722
13300TIP3    H161315   6.592   3.770  13.286  0.7756  0.5936 -0.2683
13300TIP3    H261316   6.627   3.877  13.387 -0.3791 -0.4599  1.3106
13301TIP3   OH261317   3.213   4.982  11.317 -0.3235 -0.5968  0.1774
13301TIP3    H161318   3.175   4.894  11.311  0.9422 -1.1829  0.2806
13301TIP3    H261319   3.276   4.976  11.389  1.2339 -0.2103 -1.0825
13302TIP3   OH261320   4.548   2.653  12.827 -0.2888 -0.0878 -0.5312
13302TIP3    H161321   4.592   2.657  12.742  0.3811  0.4312 -0.1646
13302TIP3    H261322   4.460   2.620  12.806  0.2389 -1.0772 -1.2696
13303TIP3   OH261323   1.411   0.947  14.807  0.2331  0.3430 -0.1475
13303TIP3    H161324   1.391   0.863  14.765 -1.7423  1.0775 -0.7840
13303TIP3    H261325   1.486   0.928  14.863  0.0969 -1.7507 -0.5851
13304TIP3   OH261326   2.097   6.047   1.084  0.1428  0.5477 -0.8631
13304TIP3    H161327   2.091   5.966   1.136 -1.9447  1.1824  0.0307
13304TIP3    H261328   2.190   6.069   1.083  0.4349 -0.3111  1.3898
13305TIP3   OH261329   5.418   5.473   2.148 -0.0289 -0.0756  0.0216
13305TIP3    H161330   5.414   5.384   2.113 -1.2125 -0.2826  0.6327
13305TIP3    H261331   5.463   5.465   2.231 -1.1284 -0.3103  0.6170
13306TIP3   OH261332   5.141   0.587   2.459 -0.0002  0.2018 -0.7853
13306TIP3    H161333   5.109   0.677   2.459 -0.2253  0.1543  0.7142
13306TIP3    H261334   5.066   0.534   2.487  0.5152 -0.2635 -0.2301
13307TIP3   OH261335   0.013   6.654   1.055 -0.3642  0.1938  0.4020
13307TIP3    H161336  -0.054   6.715   1.024  0.3753  0.3584 -0.9454
13307TIP3    H261337   0.096   6.699   1.040  0.1758 -0.9641 -0.2457
13308TIP3   OH261338   0.488   0.150   2.051 -0.2047 -0.4865  0.4352
13308TIP3    H161339   0.480   0.141   1.956 -0.4831 -1.5899  0.5479
13308TIP3    H261340   0.531   0.234   2.064 -1.8985  0.6045 -0.6079
13309TIP3   OH261341   5.287   7.072   0.315 -0.2249  0.2136 -0.9184
13309TIP3    H161342   5.353   7.134   0.346 -1.6585  1.3130  0.0490
13309TIP3    H261343   5.312   6.988   0.355 -0.5449  1.0501  1.1289
13310TIP3   OH261344   1.298   2.325   2.442 -0.2712 -0.2169  0.1638
13310TIP3    H161345   1.232   2.257   2.453  0.1316 -0.3553  1.9951
13310TIP3    H261346   1.382   2.279   2.451  0.1242 -0.0426 -2.1131
13311TIP3   OH261347   0.634   1.625  14.369  0.2154 -0.2121  0.5857
13311TIP3    H161348   0.639   1.721  14.364 -0.2450 -0.2585 -2.0173
13311TIP3    H261349   0.716   1.599  14.410  0.2775  1.2862  1.4938
13312TIP3   OH261350   4.337   2.560   1.585 -0.0259 -0.1775  0.5890
13312TIP3    H161351   4.420   2.552   1.538  0.9550  1.1129  2.0303
13312TIP3    H261352   4.299   2.472   1.581  1.7701 -0.9913  0.5306
13313TIP3   OH261353   0.217   5.137  11.938  0.2910 -0.3724  0.0911
13313TIP3    H161354   0.285   5.105  11.879  1.0182  2.9158 -1.0538
13313TIP3    H261355   0.249   5.116  12.025  1.6357 -0.9800 -0.5217
13314TIP3   OH261356   2.342   1.271   0.131  0.1762  0.3982  0.1652
13314TIP3    H161357   2.396   1.344   0.099  0.2686 -0.0952 -0.8553
13314TIP3    H261358   2.303   1.303   0.212  1.2646  1.1091  0.4270
13315TIP3   OH261359   0.084   1.376   1.908  0.2637 -0.5242 -0.0312
13315TIP3    H161360   0.042   1.294   1.882  0.9475 -0.6133 -0.8962
13315TIP3    H261361   0.016   1.423   1.955 -0.3579 -1.2889 -0.1362
13316TIP3   OH261362   5.419   5.604  13.084 -0.0451 -0.0103 -0.0772
13316TIP3    H161363   5.346   5.660  13.056 -0.7979 -0.4362  1.0015
13316TIP3    H261364   5.442   5.555  13.006 -0.5592  0.5164 -0.5735
13317TIP3   OH261365   1.282   1.320   0.648 -0.4732 -0.4285 -0.4754
13317TIP3    H161366   1.255   1.291   0.735  1.2669  0.2406  0.3481
13317TIP3    H261367   1.374   1.345   0.659  0.0113 -1.0455 -2.7014
13318TIP3   OH261368   4.900   6.553  13.074  0.2628  0.6273  0.0394
13318TIP3    H161369   4.897   6.470  13.027  0.9639  0.1394  0.8300
13318TIP3    H261370   4.835   6.543  13.144  0.9251  0.4262  0.6313
13319TIP3   OH261371   2.403   3.759   2.907 -0.2156 -0.0698  0.1331
13319TIP3    H161372   2.410   3.666   2.885  1.9236 -0.0099  0.3702
13319TIP3    H261373   2.424   3.763   3.001 -1.8507  0.5097  0.5065
13320TIP3   OH261374   1.465   3.934  14.481  0.0531  0.3435 -0.5334
13320TIP3    H161375   1.419   3.882  14.415  2.3845  0.2332 -2.1769
13320TIP3    H261376   1.398   3.993  14.515 -1.5586 -0.5256 -2.0026
13321TIP3   OH261377   6.222   2.874  14.729  0.1768  0.1680 -0.2576
13321TIP3    H161378   6.273   2.946  14.691 -0.2870  1.0903  0.7980
13321TIP3    H261379   6.140   2.875  14.680  0.6733 -0.5181 -1.1297
13322TIP3   OH261380   6.692   6.013   0.450 -0.1676  0.1992  0.2182
13322TIP3    H161381   6.627   6.056   0.395  0.7977  0.9528 -0.3593
13322TIP3    H261382   6.694   5.923   0.419 -1.2579  0.0289  0.5666
13323TIP3   OH261383   5.338   6.339  14.014 -0.2861  0.3028  0.0644
13323TIP3    H161384   5.333   6.279  13.940  1.3924 -0.1972  0.3110
13323TIP3    H261385   5.261   6.319  14.067 -1.7162  0.9124 -1.6925
13324TIP3   OH261386   1.981   1.879   2.775  0.2499  0.3754 -0.5427
13324TIP3    H161387   2.060   1.880   2.721  0.0735 -0.3763 -0.8241
13324TIP3    H261388   2.005   1.827   2.852 -0.1299 -0.3350 -0.8923
13325TIP3   OH261389   6.782   3.181  12.047  0.1222  0.5479 -0.0716
13325TIP3    H161390   6.702   3.220  12.012 -2.0495 -2.7930  0.6608
13325TIP3    H261391   6.824   3.139  11.971 -0.4030 -0.1056 -0.0120
13326TIP3   OH261392   4.036   3.317  12.686  0.0168  0.1592 -0.1962
13326TIP3    H161393   4.104   3.277  12.631  0.5990 -0.1112  0.7051
13326TIP3    H261394   4.081   3.390  12.729 -0.3597  0.1852  0.1546
13327TIP3   OH261395   3.393   1.216   0.864  0.3344  0.1760  0.2044
13327TIP3    H161396   3.467   1.276   0.852  0.6092  0.2662  1.9730
13327TIP3    H261397   3.335   1.233   0.789  0.2111  2.9672  0.8085
13328TIP3   OH261398   6.887   6.079   4.035 -0.0093  0.7162  0.0067
13328TIP3    H161399   6.939   6.124   3.969 -0.7887  0.5091 -0.7505
13328TIP3    H261400   6.802   6.064   3.995 -0.6410  0.9476  1.1992
13329TIP3   OH261401   3.019   1.863   0.150 -0.6204  0.0768  0.0173
13329TIP3    H161402   2.950   1.833   0.091  0.7419 -2.0418 -0.5979
13329TIP3    H261403   3.033   1.954   0.125 -2.5696  0.3038 -0.4231
13330TIP3   OH261404   0.007   2.731  12.577 -0.1537  0.4372  0.1924
13330TIP3    H161405   0.025   2.729  12.483 -1.0994 -2.6207 -0.0262
13330TIP3    H261406  -0.084   2.758  12.583 -0.2090  0.2452  0.2104
13331TIP3   OH261407   3.282   5.748   0.105  0.1623 -0.2695  0.2075
13331TIP3    H161408   3.297   5.673   0.046  0.3036 -0.1159  0.0481
13331TIP3    H261409   3.199   5.785   0.075  0.3363 -0.0676 -0.0273
13332TIP3   OH261410   2.959   2.473   0.297  0.3775  0.1057  0.0601
13332TIP3    H161411   2.951   2.431   0.211 -0.8644 -0.9585  0.6703
13332TIP3    H261412   2.881   2.527   0.304  1.8368  2.4680 -0.6143
13333TIP3   OH261413   6.643   2.463  14.581 -0.4033 -0.1848 -0.4627
13333TIP3    H161414   6.586   2.504  14.515  0.8983  0.8276 -0.9994
13333TIP3    H261415   6.694   2.535  14.617  1.1356 -1.1759 -0.5969
13334TIP3   OH261416   7.049   6.543  13.801  0.0056  0.4947 -0.1962
13334TIP3    H161417   7.126   6.551  13.857  1.1359  1.0992 -1.7546
13334TIP3    H261418   7.026   6.634  13.780 -1.1298  0.3151  0.2301
13335TIP3   OH261419   0.554   4.545  12.468  0.0217  0.1201 -0.7228
13335TIP3    H161420   0.468   4.524  12.505  0.6155  1.5287  1.6534
13335TIP3    H261421   0.547   4.637  12.442  1.1493  0.6817  0.7816
13336TIP3   OH261422   5.584   5.582  14.120  0.3768  0.1993 -0.7781
13336TIP3    H161423   5.557   5.493  14.143  1.1931  0.1193 -0.0813
13336TIP3    H261424   5.668   5.571  14.075  0.9560  0.6647  0.1501
13337TIP3   OH261425   1.321   7.134   3.197  0.0651  0.2604 -0.0877
13337TIP3    H161426   1.269   7.171   3.126  0.0313 -0.4509 -0.4487
13337TIP3    H261427   1.345   7.209   3.252 -0.3742  0.7419 -0.5460
13338TIP3   OH261428   4.751   1.172  14.412 -0.1641  0.1127  0.1744
13338TIP3    H161429   4.779   1.080  14.411  1.4175  0.5654 -0.7291
13338TIP3    H261430   4.681   1.177  14.347  1.4464 -0.0037 -1.6661
13339TIP3   OH261431   6.522   3.444  14.974 -0.3494 -0.0925  0.0786
13339TIP3    H161432   6.491   3.535  14.971 -0.9808 -0.3106 -3.5887
13339TIP3    H261433   6.453   3.393  14.931  1.3656 -1.8495 -0.7300
13340TIP3   OH261434   5.304   4.358   1.584  0.0917 -0.7393 -0.0162
13340TIP3    H161435   5.315   4.360   1.488  0.5075 -0.1353  0.0367
13340TIP3    H261436   5.293   4.266   1.604  0.1878 -0.8943 -0.6341
13341TIP3   OH261437   5.980   6.846  12.370  0.8792  0.1419  0.1789
13341TIP3    H161438   5.936   6.915  12.419  0.2010  0.1000 -0.3534
13341TIP3    H261439   6.023   6.893  12.298  1.1252  0.1065  0.3050
13342TIP3   OH261440   2.148   2.949   3.234  0.0461  0.2868 -0.4679
13342TIP3    H161441   2.059   2.926   3.259  0.0310 -0.5543 -1.2547
13342TIP3    H261442   2.153   3.043   3.249 -0.6508  0.1898  0.5330
13343TIP3   OH261443   1.505   4.487  12.664  0.3445 -0.1526 -0.1598
13343TIP3    H161444   1.499   4.407  12.716 -1.5987  1.1325  1.7769
13343TIP3    H261445   1.535   4.554  12.725  1.8142  0.6725 -1.7035
13344TIP3   OH261446   6.240   3.642   3.173  0.8441  0.1189 -0.3845
13344TIP3    H161447   6.269   3.683   3.254  1.1678  0.2405 -0.5608
13344TIP3    H261448   6.310   3.660   3.110  1.0363 -0.7824 -0.4431
13345TIP3   OH261449   1.479   1.635  14.575  0.3217  0.2506  0.0061
13345TIP3    H161450   1.480   1.587  14.492  0.0398 -0.4728  0.4100
13345TIP3    H261451   1.537   1.710  14.560  3.6908 -2.0246  0.4257
13346TIP3   OH261452   6.714   5.639   2.195 -0.5340 -0.1552  0.2777
13346TIP3    H161453   6.637   5.594   2.159 -0.1967  0.2516 -1.0034
13346TIP3    H261454   6.764   5.571   2.240 -0.4077 -0.9259 -0.9963
13347TIP3   OH261455   1.975   3.899   1.717  0.3346  0.5158 -0.5136
13347TIP3    H161456   1.908   3.965   1.734 -1.8521 -1.7259  0.1508
13347TIP3    H261457   1.994   3.909   1.623 -2.4095  0.0169 -1.2168
13348TIP3   OH261458   1.991   3.166  12.537  0.0984 -0.5573 -0.3209
13348TIP3    H161459   1.953   3.159  12.624 -0.3705  0.6141 -0.4128
13348TIP3    H261460   2.064   3.227  12.547 -1.0210  0.9468 -1.0649
13349TIP3   OH261461   0.658   7.141   1.943  0.1985  0.0900 -0.4416
13349TIP3    H161462   0.658   7.049   1.969  2.4812  0.3137  0.6295
13349TIP3    H261463   0.608   7.186   2.012  2.0182  0.0354  0.9975
13350TIP3   OH261464   3.213   1.370  15.187 -0.5902  0.4150 -0.0830
13350TIP3    H161465   3.166   1.338  15.109  0.1438  0.1944 -0.4425
13350TIP3    H261466   3.214   1.465  15.176 -3.0994  0.6687  1.1720
13351TIP3   OH261467   3.457   6.313   3.368  0.2539 -0.3939 -0.1962
13351TIP3    H161468   3.416   6.372   3.431 -2.9444 -1.0229 -1.4895
13351TIP3    H261469   3.500   6.247   3.421  1.7874  1.6303  1.2622
13352TIP3   OH261470   6.310   1.606  14.823 -0.5298 -0.0544  0.0346
13352TIP3    H161471   6.389   1.599  14.877 -0.1406 -0.5396 -0.5753
13352TIP3    H261472   6.304   1.699  14.801  0.3942 -0.1444 -0.6558
13353TIP3   OH261473   6.014   2.192  13.706  0.0265  0.1622  0.0462
13353TIP3    H161474   6.059   2.122  13.659  0.1766  0.8092 -0.8034
13353TIP3    H261475   6.058   2.272  13.677 -0.0404  0.6065  1.1135
13354TIP3   OH261476   2.615   4.483   1.058  0.3041 -0.7184 -0.6004
13354TIP3    H161477   2.649   4.398   1.030  0.2006 -0.9601 -0.0147
13354TIP3    H261478   2.649   4.494   1.147 -0.2110 -0.4386 -0.4315
13355TIP3   OH261479   4.627   3.854   4.785 -0.5062 -0.8150  0.1052
13355TIP3    H161480   4.534   3.847   4.764 -0.4682  0.5059 -0.6188
13355TIP3    H261481   4.635   3.935   4.835  0.4125 -0.2958 -0.8423
13356TIP3   OH261482   6.045   3.488   1.598  0.0447  0.1609 -0.2545
13356TIP3    H161483   5.990   3.514   1.672  0.4117  0.9258 -0.2410
13356TIP3    H261484   6.121   3.545   1.604  1.3411 -1.5309  0.3163
13357TIP3   OH261485   0.375   2.182   5.710 -0.0322 -0.1649  0.6838
13357TIP3    H161486   0.458   2.185   5.662  0.2125  3.0742  1.0822
13357TIP3    H261487   0.341   2.271   5.705 -3.7765 -1.4482  0.1688
13358TIP3   OH261488   1.084   1.285   5.364  0.1701 -0.4697 -0.3081
13358TIP3    H161489   1.040   1.224   5.306 -1.7972 -0.0912  0.7187
13358TIP3    H261490   1.020   1.354   5.380  0.8025 -0.3216  1.9288
13359TIP3   OH261491   3.402   6.846  15.000 -0.4086 -0.3338  0.0496
13359TIP3    H161492   3.404   6.752  14.984 -1.6375 -0.2273 -0.8663
13359TIP3    H261493   3.396   6.885  14.913  1.5181  0.6867  0.3193
13360TIP3   OH261494   0.317   6.900  14.607 -0.4967  0.1150  0.0028
13360TIP3    H161495   0.368   6.835  14.560 -0.2526  1.2257 -1.3341
13360TIP3    H261496   0.380   6.968  14.630 -1.0069  0.5548  0.1281
13361TIP3   OH261497   0.456   3.378   0.981 -0.1627 -0.2715 -0.0634
13361TIP3    H161498   0.465   3.462   0.936 -0.5803 -0.3037 -0.2225
13361TIP3    H261499   0.384   3.334   0.934 -0.1952 -0.5616  0.2524
13362TIP3   OH261500   6.268   3.635   1.582  0.1709 -0.7047 -0.2072
13362TIP3    H161501   6.325   3.633   1.660 -1.4406  0.4170  1.0688
13362TIP3    H261502   6.312   3.694   1.521 -0.7161  2.2085  1.7570
13363TIP3   OH261503   0.610   1.254  15.206  0.3540  0.3066  0.7035
13363TIP3    H161504   0.567   1.301  15.135 -0.3228 -0.2024  0.7668
13363TIP3    H261505   0.685   1.309  15.230  0.3406  0.6881 -0.1127
13364TIP3   OH261506   5.258   5.470  14.529 -0.3338  0.1052 -0.1352
13364TIP3    H161507   5.254   5.419  14.610  0.2669  0.5181  0.1616
13364TIP3    H261508   5.324   5.426  14.476  0.8728  1.0690  0.4975
13365TIP3   OH261509   0.481   0.605  13.794  0.2068 -0.0754 -0.7304
13365TIP3    H161510   0.450   0.535  13.851  0.3017  0.4500 -0.0253
13365TIP3    H261511   0.503   0.560  13.712  2.6170 -1.2764  0.4807
13366TIP3   OH261512   2.282   5.141  12.748 -0.8780 -0.1256  0.1997
13366TIP3    H161513   2.307   5.192  12.826 -0.8481  2.0777 -1.1534
13366TIP3    H261514   2.342   5.172  12.680 -0.0825 -2.9025 -0.4678
13367TIP3   OH261515   4.357   4.798  12.552 -0.0628  0.3865 -0.0676
13367TIP3    H161516   4.360   4.702  12.556  1.6880  0.2349 -2.6470
13367TIP3    H261517   4.433   4.826  12.602  1.3284  0.1985 -1.9651
13368TIP3   OH261518   6.655   5.779   0.301 -0.2107 -0.5227  0.3086
13368TIP3    H161519   6.603   5.716   0.351  0.4254 -1.2607  0.0755
13368TIP3    H261520   6.626   5.768   0.210 -0.9914  0.4380  0.4250
13369TIP3   OH261521   6.451   2.149  13.584  0.0346  0.9713 -0.9267
13369TIP3    H161522   6.428   2.065  13.625  0.7565  1.7240  1.1255
13369TIP3    H261523   6.403   2.149  13.502  0.6308 -1.8135 -1.3938
13370TIP3   OH261524   0.939   4.097  13.804 -0.6752  0.2401 -0.1242
13370TIP3    H161525   0.968   4.169  13.746  0.5629 -2.2524 -2.8798
13370TIP3    H261526   1.015   4.078  13.858 -1.2436  1.3882  1.1394
13371TIP3   OH261527   3.284   4.861   1.612 -0.6136  0.6627  0.4622
13371TIP3    H161528   3.192   4.845   1.633 -0.9746  0.2668 -1.2233
13371TIP3    H261529   3.296   4.955   1.625 -1.1025  0.6286  1.2101
13372TIP3   OH261530   2.843   2.855   0.154  0.9986 -0.5516  0.4209
13372TIP3    H161531   2.892   2.852   0.236  0.9339 -1.5722  0.4356
13372TIP3    H261532   2.759   2.893   0.177  1.2059 -0.2563  0.7018
13373TIP3   OH261533   0.910   4.691   3.914 -0.5168  0.0610 -0.0071
13373TIP3    H161534   0.900   4.606   3.957 -0.7292 -0.0652 -0.3104
13373TIP3    H261535   0.831   4.701   3.861 -0.1041  0.0694 -0.6314
13374TIP3   OH261536   5.546   6.738  11.293 -0.2793  0.0791 -0.2062
13374TIP3    H161537   5.482   6.802  11.259 -0.2242 -0.2652 -0.9903
13374TIP3    H261538   5.496   6.657  11.302  0.0230 -0.1754 -0.7628
13375TIP3   OH261539   4.656   2.763   2.487  0.3108  0.3784 -0.5925
13375TIP3    H161540   4.568   2.781   2.456  0.2267  0.5506 -0.2608
13375TIP3    H261541   4.644   2.707   2.564  0.5488 -0.7137 -1.3257
13376TIP3   OH261542   3.215   5.376   2.555  0.2455 -0.4398 -0.4739
13376TIP3    H161543   3.205   5.407   2.646  1.3873  0.1796 -0.5476
13376TIP3    H261544   3.133   5.401   2.513 -2.0018 -4.0231  1.2315
13377TIP3   OH261545   4.763   2.209  14.300 -0.0065  0.1749  0.3407
13377TIP3    H161546   4.840   2.155  14.281 -0.1764  0.3912 -1.1211
13377TIP3    H261547   4.693   2.170  14.248  0.2222  2.6404 -2.0966
13378TIP3   OH261548   1.840   6.926   0.604 -0.1133 -0.0076  0.1343
13378TIP3    H161549   1.934   6.911   0.615 -0.1330  0.4070  0.9392
13378TIP3    H261550   1.808   6.847   0.560  0.3200 -0.9296  1.4290
13379TIP3   OH261551   3.620   6.283   1.401  0.1878 -0.3669  0.0860
13379TIP3    H161552   3.578   6.368   1.389 -0.4812 -0.7811 -0.5875
13379TIP3    H261553   3.662   6.265   1.316  0.1344 -0.8078  0.1506
13380TIP3   OH261554   2.040   6.891  12.201 -0.8059  0.0643 -0.1181
13380TIP3    H161555   2.076   6.956  12.261  0.1513  0.9421 -1.5883
13380TIP3    H261556   1.956   6.866  12.241 -1.0378  1.9341  0.6685
13381TIP3   OH261557   3.554   3.740  13.059 -0.6181  0.6599  0.4772
13381TIP3    H161558   3.628   3.703  13.012 -2.0782 -0.1491 -1.3227
13381TIP3    H261559   3.567   3.713  13.150  0.0965 -1.4657 -0.2085
13382TIP3   OH261560   0.781   3.187   0.447  0.2709  0.3374 -0.4330
13382TIP3    H161561   0.827   3.266   0.477  2.7661 -0.8628 -0.7860
13382TIP3    H261562   0.755   3.143   0.528  1.1773  0.2874 -0.1530
13383TIP3   OH261563   1.336   1.350   2.739  0.6660  0.9474 -0.0770
13383TIP3    H161564   1.299   1.385   2.658 -0.3040 -0.3968 -0.2522
13383TIP3    H261565   1.340   1.424   2.799  1.7132  2.0451 -1.4381
13384TIP3   OH261566   5.588   3.561   1.231  0.0101 -0.0117 -0.1352
13384TIP3    H161567   5.530   3.535   1.303  0.5476 -1.2344 -0.1109
13384TIP3    H261568   5.543   3.634   1.189 -0.5614  0.3855  1.1205
13385TIP3   OH261569   0.116   1.443   0.246 -0.1466  0.6064 -0.1068
13385TIP3    H161570   0.022   1.428   0.261 -0.5491  0.7364 -2.1964
13385TIP3    H261571   0.142   1.503   0.316 -1.3386 -0.3470  1.1967
13386TIP3   OH261572   4.374   0.384   0.982  0.3898 -0.7787 -0.2751
13386TIP3    H161573   4.337   0.297   0.965  1.8560 -2.1116  2.5599
13386TIP3    H261574   4.469   0.369   0.982  0.6611  0.0474  3.0807
13387TIP3   OH261575   5.555   4.887  11.729  0.1308  0.2229 -0.6251
13387TIP3    H161576   5.617   4.843  11.786  0.4718  1.4204 -0.0518
13387TIP3    H261577   5.515   4.816  11.678 -0.9306 -1.0246  1.7730
13388TIP3   OH261578   1.409   5.798   9.765  0.1510 -0.5623  0.8399
13388TIP3    H161579   1.348   5.741   9.719  1.0118 -1.5839  0.9302
13388TIP3    H261580   1.495   5.760   9.747  0.7335  0.6391  1.0121
13389TIP3   OH261581   1.974   0.025  13.901  0.3313  0.3672 -0.7161
13389TIP3    H161582   2.036  -0.035  13.859 -0.1912 -1.1598  0.5968
13389TIP3    H261583   1.888  -0.005  13.870 -0.0560 -0.7110  1.2230
13390TIP3   OH261584   4.936   1.948  13.745 -0.9861  0.2843  0.0563
13390TIP3    H161585   4.909   1.941  13.836 -1.8700 -2.3742 -0.3214
13390TIP3    H261586   4.907   1.866  13.705  2.8201 -0.3962 -1.7288
13391TIP3   OH261587   0.447   5.840   2.723 -0.1708 -0.3904  0.4574
13391TIP3    H161588   0.525   5.836   2.778  0.1089  1.0094  0.2018
13391TIP3    H261589   0.379   5.876   2.781  0.1629  1.2339 -0.0942
13392TIP3   OH261590   2.410   2.274   0.695  0.0983  0.3274 -0.1286
13392TIP3    H161591   2.361   2.355   0.710 -1.7793 -0.7350 -0.2113
13392TIP3    H261592   2.397   2.223   0.775  2.3472  0.5629  0.4719
13393TIP3   OH261593   1.475   4.052   3.190 -0.0848  0.2995  0.3085
13393TIP3    H161594   1.415   4.107   3.240 -1.6849 -0.7804 -0.3628
13393TIP3    H261595   1.562   4.088   3.210 -0.5742 -0.1913  4.0246
13394TIP3   OH261596   4.267   3.009   3.419 -0.3777  0.1557  0.6118
13394TIP3    H161597   4.261   3.104   3.418 -0.6271  0.1395  0.1695
13394TIP3    H261598   4.177   2.979   3.436 -0.1417  0.0058  1.6902
13395TIP3   OH261599   3.157   4.723   3.285  0.0860  0.6372  0.3734
13395TIP3    H161600   3.228   4.659   3.289  0.1454  0.1773 -3.6367
13395TIP3    H261601   3.083   4.679   3.327  0.5668 -1.4708 -0.8148
13396TIP3   OH261602   3.145   1.689   3.736 -0.3261  0.2649  0.3028
13396TIP3    H161603   3.225   1.683   3.788  0.2512 -0.6048 -0.6577
13396TIP3    H261604   3.099   1.607   3.753 -0.6600  0.4434  0.2758
13397TIP3   OH261605   5.543   1.452   2.254  0.0452 -0.0479 -0.6758
13397TIP3    H161606   5.568   1.511   2.326  0.4292 -1.0224  0.0105
13397TIP3    H261607   5.614   1.388   2.249 -1.4782 -1.9373  0.2640
13398TIP3   OH261608   2.270   1.777   1.254 -0.3389 -0.0693 -0.6109
13398TIP3    H161609   2.194   1.817   1.298 -0.8810 -0.9719 -0.6927
13398TIP3    H261610   2.296   1.841   1.188 -1.2884  0.0896 -0.8545
13399TIP3   OH261611   4.823   6.257   3.617 -0.2864  0.4929  0.8789
13399TIP3    H161612   4.805   6.317   3.545  0.7900  1.2314  1.2072
13399TIP3    H261613   4.825   6.313   3.695  0.1757 -0.0493  1.2626
13400TIP3   OH261614   5.997   3.785   1.373 -0.2266  0.5041 -0.5566
13400TIP3    H161615   6.081   3.798   1.416 -0.4404  1.0958 -0.3176
13400TIP3    H261616   6.007   3.827   1.287 -0.8100  2.0309  0.0929
13401TIP3   OH261617   6.646   3.229   2.800 -0.1860  0.1857 -0.0006
13401TIP3    H161618   6.593   3.240   2.878  0.2631  2.0116  0.0928
13401TIP3    H261619   6.732   3.203   2.833 -0.5328 -1.0546 -0.0403
13402TIP3   OH261620   4.664   5.305   2.976 -0.2069 -0.2591  0.0121
13402TIP3    H161621   4.661   5.338   3.066  0.9174 -1.0121  0.3376
13402TIP3    H261622   4.659   5.384   2.921  0.0506  0.2684  0.7404
13403TIP3   OH261623   6.024   1.315   2.699  0.3139 -0.4337 -0.4451
13403TIP3    H161624   5.999   1.361   2.619  0.2410 -0.8441 -0.6600
13403TIP3    H261625   5.966   1.239   2.703  0.2952 -0.3989  0.0160
13404TIP3   OH261626   1.751   6.016   0.688  0.0186 -0.1495  0.1504
13404TIP3    H161627   1.761   6.105   0.722  0.4317 -0.5892  1.2014
13404TIP3    H261628   1.738   6.029   0.594  2.5455  0.9086 -0.1250
13405TIP3   OH261629   6.065   1.573   4.695  0.1342 -0.3965 -0.7396
13405TIP3    H161630   6.027   1.628   4.626  0.7591  0.7144 -0.2170
13405TIP3    H261631   6.063   1.628   4.773 -0.0846 -1.4619  0.0268
13406TIP3   OH261632   1.173   0.532   1.555 -0.0257  1.1289  0.0926
13406TIP3    H161633   1.190   0.622   1.527 -1.0382  0.8692 -1.4470
13406TIP3    H261634   1.095   0.505   1.507  0.2412 -0.5763  0.5198
13407TIP3   OH261635   5.956   4.797   2.455  0.1730  0.1913 -0.4414
13407TIP3    H161636   5.952   4.878   2.404  0.7176 -0.3487 -1.3760
13407TIP3    H261637   5.894   4.738   2.412 -0.2872  0.1287  0.2861
13408TIP3   OH261638   0.994   0.909   5.197 -0.1493 -0.4960  0.1933
13408TIP3    H161639   0.979   0.904   5.292  0.9584 -0.3918  0.3932
13408TIP3    H261640   0.959   0.995   5.172 -2.0504 -1.2275  0.1629
13409TIP3   OH261641   2.729   6.976  13.552  0.0102  0.2966  0.2273
13409TIP3    H161642   2.652   6.957  13.606  2.0977 -2.6659  2.4907
13409TIP3    H261643   2.789   7.020  13.612  0.5454  1.4993 -1.1651
13410TIP3   OH261644   2.500   1.099  13.575  0.3091 -0.3735 -0.1118
13410TIP3    H161645   2.409   1.069  13.569  1.0821 -3.2678  1.1671
13410TIP3    H261646   2.497   1.169  13.641 -1.0429 -0.1131 -0.4140
13411TIP3   OH261647   1.528   0.580   0.972  0.2416 -0.4257 -0.6936
13411TIP3    H161648   1.490   0.584   1.060 -1.0275 -0.2997 -1.2118
13411TIP3    H261649   1.573   0.663   0.961  0.4679 -0.4753 -0.1284
13412TIP3   OH261650   0.065   4.019   5.025 -0.1862  0.1861  0.2363
13412TIP3    H161651   0.117   3.947   5.060  1.0928  0.9129 -0.1279
13412TIP3    H261652   0.089   4.095   5.078 -2.0147  0.2417  1.0522
13413TIP3   OH261653   3.062   2.647   3.872  0.0439  0.1446  0.0098
13413TIP3    H161654   2.972   2.639   3.903  0.4984 -1.6312  1.0624
13413TIP3    H261655   3.106   2.699   3.939 -0.0381  0.4047 -0.1378
13414TIP3   OH261656   4.563   1.506   0.431 -0.5193 -0.0042  0.2007
13414TIP3    H161657   4.526   1.420   0.451  0.0611 -0.5615 -0.9974
13414TIP3    H261658   4.645   1.509   0.480 -0.6493 -0.0283  0.4235
13415TIP3   OH261659   1.205   5.474   4.257  0.6504  0.2976 -0.0480
13415TIP3    H161660   1.202   5.417   4.180 -1.1517 -1.3139  1.1487
13415TIP3    H261661   1.239   5.557   4.223  0.7665 -0.6285 -2.3880
13416TIP3   OH261662   0.328   4.021   3.288 -0.0398 -0.7816 -0.3118
13416TIP3    H161663   0.344   3.975   3.370  0.1159 -0.0737  0.0650
13416TIP3    H261664   0.234   4.037   3.287  0.0574 -0.1350  0.0961
13417TIP3   OH261665   4.831   6.193   4.947  0.5512  0.1550  0.0552
13417TIP3    H161666   4.890   6.182   4.872  0.9643  1.1377  0.2291
13417TIP3    H261667   4.889   6.212   5.020 -0.0152  2.0659  0.0528
13418TIP3   OH261668   1.269   4.881  12.913  0.0944 -0.3523  0.4872
13418TIP3    H161669   1.324   4.913  12.841  0.5187 -2.4780 -0.1885
13418TIP3    H261670   1.180   4.900  12.885  0.2027 -1.7467 -0.9847
13419TIP3   OH261671   0.790   2.942   3.421  0.4209  0.5653  0.7640
13419TIP3    H161672   0.716   2.895   3.384  1.0747 -0.0872  0.2381
13419TIP3    H261673   0.754   2.991   3.495 -0.5091  0.1991  0.5580
13420TIP3   OH261674   1.385   5.288   4.593  0.4156  0.1184  0.0074
13420TIP3    H161675   1.412   5.349   4.662 -0.9686 -0.3711  1.0405
13420TIP3    H261676   1.408   5.202   4.627 -0.0298 -0.1115 -0.2655
13421TIP3   OH261677   0.570   6.648   3.629 -0.2629 -0.4335  0.4866
13421TIP3    H161678   0.549   6.740   3.646 -0.0209 -0.4323  0.7904
13421TIP3    H261679   0.654   6.635   3.672  0.2039 -0.5246 -0.4477
13422TIP3   OH261680   6.394   5.549   1.800  0.0960 -0.2574 -0.3511
13422TIP3    H161681   6.313   5.580   1.759 -1.1299  3.2334  3.9209
13422TIP3    H261682   6.458   5.617   1.782  0.5110 -0.3569  0.6929
13423TIP3   OH261683   3.340   2.299   3.916  1.0083  0.2091 -0.0802
13423TIP3    H161684   3.291   2.371   3.878  1.2255 -0.8096 -2.4701
13423TIP3    H261685   3.273   2.235   3.941  0.9778 -0.5244 -1.9126
13424TIP3   OH261686   2.967   4.515   0.942 -0.5390 -0.1700  0.0368
13424TIP3    H161687   2.976   4.438   0.886  0.8724 -0.9323  1.2500
13424TIP3    H261688   3.055   4.533   0.974 -0.9132  1.6928  0.1538
13425TIP3   OH261689   3.668   3.706   2.357 -0.0513  0.1732  0.0378
13425TIP3    H161690   3.683   3.798   2.382  1.3436  0.3774 -1.3878
13425TIP3    H261691   3.648   3.710   2.263 -0.0140 -0.9840 -0.0314
13426TIP3   OH261692   0.274   3.200   4.311  0.4042  0.0698  0.5302
13426TIP3    H161693   0.264   3.177   4.218  0.9019 -0.2870  0.5627
13426TIP3    H261694   0.351   3.258   4.313  1.0374 -0.7730  0.8550
13427TIP3   OH261695   4.128   6.050   0.642 -0.1499 -0.2611  0.1462
13427TIP3    H161696   4.049   6.096   0.671  1.2549  1.0506  2.2238
13427TIP3    H261697   4.190   6.121   0.622  0.6277 -1.2594 -1.1191
13428TIP3   OH261698   1.511   2.044  13.870 -0.1588 -0.3219 -0.2095
13428TIP3    H161699   1.597   2.075  13.899 -0.8939  0.6336  1.0871
13428TIP3    H261700   1.470   2.121  13.831 -1.4894  0.0867  1.8222
13429TIP3   OH261701   2.030   4.158   2.695 -0.1358  0.1852  0.2948
13429TIP3    H161702   2.014   4.224   2.628  2.3145  0.9466  0.3457
13429TIP3    H261703   2.102   4.194   2.747  0.1490 -1.7953  1.3779
13430TIP3   OH261704   5.492   4.035  12.839  0.2227  0.2571  0.9539
13430TIP3    H161705   5.464   4.105  12.780 -1.3829 -0.5825  0.6764
13430TIP3    H261706   5.412   3.990  12.864  1.2502 -2.0303  0.4418
13431TIP3   OH261707   5.778   5.005  14.443  0.7138 -0.3076 -0.5061
13431TIP3    H161708   5.793   5.074  14.379  2.9786 -0.5561 -0.3367
13431TIP3    H261709   5.841   4.937  14.420 -2.1135 -2.8765 -1.3301
13432TIP3   OH261710   3.399   4.800  14.750  0.7585  0.3922  0.3822
13432TIP3    H161711   3.395   4.760  14.663  1.7395  0.7741  0.1524
13432TIP3    H261712   3.360   4.735  14.808  0.5512 -0.0734 -0.2672
13433TIP3   OH261713   1.085   5.415   0.876  0.1020  0.1224 -0.0605
13433TIP3    H161714   1.129   5.473   0.938  1.8044 -0.6556 -0.4824
13433TIP3    H261715   1.141   5.338   0.872 -1.6213 -1.1654 -0.2268
13434TIP3   OH261716   2.511   6.300   4.920 -0.3790 -0.3951  0.4599
13434TIP3    H161717   2.587   6.249   4.892  0.2582  0.3930  0.7140
13434TIP3    H261718   2.548   6.380   4.957 -1.3871  0.4711 -0.3650
13435TIP3   OH261719   5.305   4.079   1.562  0.2110 -0.3353 -0.0800
13435TIP3    H161720   5.222   4.044   1.530 -0.1509 -0.9960  1.4964
13435TIP3    H261721   5.370   4.012   1.538  0.1164 -0.3240 -0.3667
13436TIP3   OH261722   0.546   1.436  14.989  0.2503  0.0302  0.5464
13436TIP3    H161723   0.582   1.518  14.953 -0.4823  0.4674  0.7799
13436TIP3    H261724   0.462   1.426  14.945  0.2194 -0.4677  0.7180
13437TIP3   OH261725   2.587   5.826   1.589 -0.2580 -0.1835  0.2989
13437TIP3    H161726   2.543   5.863   1.666  0.2223  1.8704 -0.3753
13437TIP3    H261727   2.680   5.837   1.606 -0.0819 -1.3518  0.1818
13438TIP3   OH261728   1.520   6.987   4.135 -0.0615  0.0129 -0.8132
13438TIP3    H161729   1.574   6.991   4.056 -0.8038  1.5606 -1.2857
13438TIP3    H261730   1.577   7.020   4.205 -0.5133  2.1787 -1.4111
13439TIP3   OH261731   2.479   0.169  13.792 -0.5179  0.6429  0.5547
13439TIP3    H161732   2.556   0.188  13.845 -0.2008  0.6947  0.0808
13439TIP3    H261733   2.463   0.075  13.804 -0.0486  0.5153  0.2234
13440TIP3   OH261734   0.696   6.935  11.577 -0.1570  0.0016  0.0829
13440TIP3    H161735   0.705   6.943  11.672  0.7867 -0.7625  0.0818
13440TIP3    H261736   0.606   6.960  11.559 -0.7184 -1.0171  1.3272
13441TIP3   OH261737   0.218   3.564  12.088  0.0464 -0.3864 -0.3113
13441TIP3    H161738   0.284   3.579  12.156 -1.2326 -0.5759  1.0143
13441TIP3    H261739   0.259   3.501  12.029  1.0092 -0.5924  0.5500
13442TIP3   OH261740   1.827   0.772   4.882  0.1017  0.6481  0.3444
13442TIP3    H161741   1.787   0.693   4.919  0.5786  0.7888  1.1975
13442TIP3    H261742   1.777   0.844   4.922 -0.1523  0.7843 -0.2170
13443TIP3   OH261743   6.851   7.141  11.853  0.4670  0.1780 -0.8708
13443TIP3    H161744   6.770   7.111  11.894 -0.0091  1.5227 -0.7991
13443TIP3    H261745   6.919   7.085  11.891 -0.2963 -0.3185 -0.1978
13444TIP3   OH261746   6.374   0.008   4.729 -0.2944  0.4304  0.0718
13444TIP3    H161747   6.333   0.091   4.703 -0.8294 -0.2697 -1.4773
13444TIP3    H261748   6.349  -0.004   4.820 -1.8634  1.0337 -0.2472
13445TIP3   OH261749   5.021   5.212   0.004  0.2581 -0.2769  0.1255
13445TIP3    H161750   4.970   5.190  -0.074  1.1918 -2.6980  0.1245
13445TIP3    H261751   5.085   5.276  -0.027 -0.8708  0.5930 -0.5133
13446TIP3   OH261752   6.559   6.587   0.333  0.7141  0.1816  0.7173
13446TIP3    H161753   6.538   6.578   0.240 -0.8331 -0.1260  1.0701
13446TIP3    H261754   6.633   6.648   0.335  0.2908  0.7716 -0.6683
13447TIP3   OH261755   1.425   2.882   2.396 -0.1986 -0.0584 -0.0358
13447TIP3    H161756   1.473   2.824   2.455  2.1185  3.0125  1.3393
13447TIP3    H261757   1.345   2.903   2.443  0.6105  0.6208  1.0898
13448TIP3   OH261758   2.371   7.156  14.106  0.9796 -0.0298 -0.4390
13448TIP3    H161759   2.373   7.089  14.175  1.1213  1.3267  0.9439
13448TIP3    H261760   2.452   7.205  14.118  0.8272  0.4625 -1.3411
13449TIP3   OH261761   1.423   3.384   3.763  0.2037 -0.4714 -0.7333
13449TIP3    H161762   1.515   3.371   3.789  0.0730  0.7526  0.4422
13449TIP3    H261763   1.428   3.432   3.681  0.6561  0.6907 -0.0608
13450TIP3   OH261764   4.631   4.108  13.233  0.6579  0.5914 -0.3544
13450TIP3    H161765   4.593   4.196  13.236  1.2007  0.8257  2.0048
13450TIP3    H261766   4.648   4.087  13.325  0.5514 -1.9916 -0.8603
13451TIP3   OH261767   2.706   0.402   1.184  0.2176 -0.5932  0.2503
13451TIP3    H161768   2.785   0.365   1.145 -0.7642 -1.7590 -0.7065
13451TIP3    H261769   2.687   0.480   1.132  1.3282  0.3388  1.1853
13452TIP3   OH261770   6.797   5.752   3.111 -0.1044 -0.0118 -0.3166
13452TIP3    H161771   6.747   5.702   3.047 -0.2465 -0.3657  0.0664
13452TIP3    H261772   6.731   5.786   3.172  0.1042 -0.4204  0.1482
13453TIP3   OH261773   1.695   1.516  15.322 -0.2485 -0.2102 -0.6234
13453TIP3    H161774   1.680   1.433  15.276 -0.3175 -1.4550  1.5014
13453TIP3    H261775   1.661   1.501  15.410  0.1513  1.9523 -0.0360
13454TIP3   OH261776   4.068   5.202   3.190  0.1771 -0.2364  0.1955
13454TIP3    H161777   4.067   5.295   3.171 -0.7147 -0.2129  0.3122
13454TIP3    H261778   4.159   5.183   3.216  0.4275  0.5305 -0.1064
13455TIP3   OH261779   2.107   5.823   4.452 -0.0327 -0.4023 -0.2843
13455TIP3    H161780   2.192   5.851   4.484 -0.0001 -0.7948 -0.0245
13455TIP3    H261781   2.085   5.886   4.383  0.4146 -0.2391 -0.2771
13456TIP3   OH261782   2.947   6.751   1.883 -0.6483 -0.1753 -0.0163
13456TIP3    H161783   2.860   6.776   1.853 -0.4741 -0.4723 -0.7945
13456TIP3    H261784   2.999   6.831   1.873 -1.0980  0.3462  1.5852
13457TIP3   OH261785   0.959   2.003   4.837  0.2518 -0.0847  0.2653
13457TIP3    H161786   1.052   1.983   4.843  0.1501 -0.7367 -0.2502
13457TIP3    H261787   0.943   2.065   4.908  1.9816  3.5520 -2.2312
13458TIP3   OH261788   3.426   6.580   0.701 -0.0617  0.1018  0.2423
13458TIP3    H161789   3.449   6.536   0.619 -2.0886  0.8287 -0.7960
13458TIP3    H261790   3.466   6.666   0.693 -2.6426  1.2855 -1.4608
13459TIP3   OH261791   2.290   1.070   5.196  0.0899  0.1750 -0.3731
13459TIP3    H161792   2.211   1.020   5.176 -0.3998  0.2649  1.2394
13459TIP3    H261793   2.355   1.004   5.218  0.3184  0.1286 -1.1559
13460TIP3   OH261794   5.484   6.128  13.149  0.3273 -0.0322  0.9361
13460TIP3    H161795   5.554   6.162  13.094 -0.7001  0.4384 -0.1448
13460TIP3    H261796   5.507   6.155  13.238  0.4440  1.9770  0.3400
13461TIP3   OH261797   0.485   0.016  11.761 -0.4756  0.0716  0.0496
13461TIP3    H161798   0.402  -0.023  11.735 -0.0939 -0.1608 -0.8412
13461TIP3    H261799   0.536  -0.057  11.796 -0.8715  0.3275  1.2174
13462TIP3   OH261800   3.738   5.070   1.626  0.1775 -0.2290  0.0980
13462TIP3    H161801   3.771   4.986   1.656 -2.2954 -0.8895  1.1652
13462TIP3    H261802   3.709   5.053   1.536 -0.8174 -0.6952  0.4935
13463TIP3   OH261803   5.394   1.103   5.006 -0.1000  0.8231  0.4294
13463TIP3    H161804   5.476   1.081   5.049  0.6287 -1.5852 -1.9191
13463TIP3    H261805   5.414   1.100   4.912 -2.0597  3.7991 -0.2245
13464TIP3   OH261806   5.822   5.544  12.372  0.1500 -0.2425  0.1476
13464TIP3    H161807   5.754   5.606  12.348  1.0075  0.8988  0.5870
13464TIP3    H261808   5.797   5.511  12.458  0.3272  0.4417  0.4652
13465TIP3   OH261809   6.959   0.566   1.230 -0.1519 -0.1580 -0.4821
13465TIP3    H161810   6.897   0.632   1.196 -1.0941 -1.7315 -2.0045
13465TIP3    H261811   6.934   0.555   1.321 -2.1966 -0.7633 -1.0541
13466TIP3   OH261812   5.831   3.313   4.825 -0.1041  0.4208 -0.3647
13466TIP3    H161813   5.837   3.267   4.910 -1.6412 -0.6579 -0.7816
13466TIP3    H261814   5.921   3.333   4.802  0.4329 -0.2304  1.0292
13467TIP3   OH261815   3.017   7.197   1.469 -0.0302 -0.0871  0.7318
13467TIP3    H161816   2.941   7.141   1.455 -0.0834 -0.1196  1.1408
13467TIP3    H261817   2.996   7.248   1.547 -0.0713  0.6629  0.2442
13468TIP3   OH261818   5.074   4.882  15.060 -0.2298  0.0682  0.4909
13468TIP3    H161819   5.088   4.910  15.151  2.1661  1.2916 -0.1717
13468TIP3    H261820   5.143   4.817  15.044 -0.4883  0.0299 -0.5274
13469TIP3   OH261821   1.802   4.320   1.586  0.3207 -0.1146 -0.0862
13469TIP3    H161822   1.749   4.398   1.570  0.1615 -0.2446 -0.1911
13469TIP3    H261823   1.810   4.277   1.501 -2.2983 -1.9257  0.4735
13470TIP3   OH261824   2.044   2.188   3.342  0.0103 -0.4182  0.5285
13470TIP3    H161825   1.951   2.176   3.361 -0.1725  0.6914  0.3723
13470TIP3    H261826   2.056   2.283   3.337  0.9300 -0.5754 -0.5783
13471TIP3   OH261827   5.021   3.740   0.192  0.5064 -0.5890 -0.0201
13471TIP3    H161828   4.965   3.802   0.146  0.6292 -1.8912 -2.0610
13471TIP3    H261829   5.102   3.790   0.210  1.2325 -0.4982 -3.0365
13472TIP3   OH261830   6.229   4.677  15.334  0.1225  0.4598  0.0026
13472TIP3    H161831   6.285   4.689  15.257 -1.3584  0.7663 -1.0735
13472TIP3    H261832   6.172   4.604  15.311  1.7431 -1.6316  2.1391
13473TIP3   OH261833   4.405   2.487   3.483  0.2050  0.1198 -0.3502
13473TIP3    H161834   4.421   2.442   3.399 -0.4384  0.1411 -0.4857
13473TIP3    H261835   4.490   2.524   3.506  0.9387 -1.7168  0.1040
13474TIP3   OH261836   3.292   4.840   3.541 -0.0942  0.3081  0.0803
13474TIP3    H161837   3.329   4.796   3.464  1.4392  0.7296  0.5271
13474TIP3    H261838   3.250   4.918   3.505  0.9863  0.7346 -0.3265
13475TIP3   OH261839   1.430   3.729   4.741  0.4498  0.0575  0.2739
13475TIP3    H161840   1.455   3.699   4.828 -0.6557  2.8949  1.6984
13475TIP3    H261841   1.334   3.720   4.739  0.2788  1.6470  0.0765
13476TIP3   OH261842   7.180   6.375   0.353 -0.0087 -0.5166 -0.7989
13476TIP3    H161843   7.101   6.326   0.332 -0.3746 -0.9821  1.4170
13476TIP3    H261844   7.196   6.357   0.446  2.3150  0.1103 -1.0057
13477TIP3   OH261845   2.474   3.912   1.366  0.5844  0.0515  0.4681
13477TIP3    H161846   2.494   3.893   1.457 -0.7398 -2.7820  0.2795
13477TIP3    H261847   2.548   3.877   1.317 -0.2508 -1.6058  0.3205
13478TIP3   OH261848   1.724   3.083  11.065  0.0208  0.7165  0.2458
13478TIP3    H161849   1.651   3.028  11.034  0.5038  0.4427 -0.4197
13478TIP3    H261850   1.691   3.121  11.147 -0.2183 -0.8102  0.8995
13479TIP3   OH261851   6.140   2.403   4.459  0.2407  0.7602  0.4194
13479TIP3    H161852   6.063   2.346   4.464  1.4545 -1.2408 -1.8428
13479TIP3    H261853   6.170   2.411   4.550 -1.9833  0.7565  1.2129
13480TIP3   OH261854   3.888   4.439   4.159  0.4190  0.8510  0.0003
13480TIP3    H161855   3.804   4.480   4.179  1.0395  3.1277 -1.6431
13480TIP3    H261856   3.891   4.362   4.216 -2.5849  0.8831  0.3904
13481TIP3   OH261857   2.299   5.880   0.437  0.1249  0.0358  0.2716
13481TIP3    H161858   2.226   5.858   0.494  0.1958 -3.3444 -0.7198
13481TIP3    H261859   2.257   5.911   0.356 -0.1995 -0.7945  0.1126
13482TIP3   OH261860   6.585   2.672   3.466  0.2502  0.6728  0.1779
13482TIP3    H161861   6.535   2.731   3.409 -1.1381  0.2107  0.8810
13482TIP3    H261862   6.611   2.727   3.540 -1.4497  0.3294  1.0640
13483TIP3   OH261863   4.302   4.445   4.937 -0.1615 -0.0242 -0.3614
13483TIP3    H161864   4.376   4.391   4.967 -0.5575  1.2200  3.4507
13483TIP3    H261865   4.227   4.387   4.938 -0.2181  0.0273  1.6872
13484TIP3   OH261866   1.237   0.038   4.460 -0.3006  0.4565  0.1916
13484TIP3    H161867   1.283   0.115   4.494 -1.6434  1.4435 -0.1174
13484TIP3    H261868   1.276   0.022   4.375  0.3127  0.4947  0.4619
13485TIP3   OH261869   7.119   2.817   0.823 -0.0471  0.8620  0.6545
13485TIP3    H161870   7.214   2.802   0.825 -0.0497  0.6647 -0.2866
13485TIP3    H261871   7.083   2.735   0.788 -0.3150  1.8656 -1.5987
13486TIP3   OH261872   0.247   6.031   3.507  0.2104 -0.0009 -0.3131
13486TIP3    H161873   0.243   5.985   3.424  2.0350 -1.0914  0.1461
13486TIP3    H261874   0.256   5.962   3.573  0.7812  0.9158  0.6090
13487TIP3   OH261875   0.249   0.618   3.071 -0.0815  0.2091 -0.0230
13487TIP3    H161876   0.228   0.580   2.986 -0.5634  0.4504 -0.0133
13487TIP3    H261877   0.298   0.698   3.050 -1.1389  0.8563 -0.1177
13488TIP3   OH261878   2.033   1.001   2.374 -0.0903  0.2915  0.2555
13488TIP3    H161879   1.959   0.988   2.315  0.1192 -1.4843  0.3293
13488TIP3    H261880   2.110   0.990   2.319  0.1001 -0.6746  0.6826
13489TIP3   OH261881   6.091   4.194   5.166  0.0059  0.1098 -0.3459
13489TIP3    H161882   6.024   4.126   5.174 -0.1976  0.2577 -0.7383
13489TIP3    H261883   6.122   4.208   5.255 -0.3429 -0.1057 -0.1879
13490TIP3   OH261884   2.088   0.392   1.755  0.2267 -0.3572 -0.4930
13490TIP3    H161885   2.149   0.334   1.801 -0.6551 -1.3754 -0.5676
13490TIP3    H261886   2.108   0.380   1.663  0.3780 -0.1589 -0.4862
13491TIP3   OH261887   5.464   3.120   4.763  0.0387  0.3598 -0.1218
13491TIP3    H161888   5.382   3.169   4.773  0.1672  0.6978 -0.7040
13491TIP3    H261889   5.504   3.156   4.684 -0.0165 -0.9004 -0.7474
13492TIP3   OH261890   6.133   1.773   4.049 -0.1100 -0.4970 -0.5078
13492TIP3    H161891   6.078   1.736   4.119 -0.0188 -1.0887 -0.7418
13492TIP3    H261892   6.155   1.861   4.080 -1.0417 -0.3081 -0.3244
13493TIP3   OH261893   1.171   0.288  11.036 -0.1141  0.0905  0.1946
13493TIP3    H161894   1.233   0.216  11.025 -0.7236 -0.5973  1.1139
13493TIP3    H261895   1.140   0.307  10.947  0.6423 -0.2508 -0.1451
13494TIP3   OH261896   2.918   2.515   3.618 -0.3026  0.6312  0.2147
13494TIP3    H161897   2.883   2.457   3.550 -2.2174  1.4706  0.4263
13494TIP3    H261898   2.895   2.472   3.700  0.9202  0.2406  0.3796
13495TIP3   OH261899   6.075   0.352   4.981 -0.6346 -0.1197 -0.3707
13495TIP3    H161900   6.047   0.419   5.044  0.6002  0.8398 -0.7820
13495TIP3    H261901   5.994   0.320   4.942 -1.4257 -0.6860  1.6140
13496TIP3   OH261902   3.457   0.839   5.545 -0.0507  0.6524  0.0496
13496TIP3    H161903   3.381   0.895   5.556  0.4032  1.0874  1.0896
13496TIP3    H261904   3.489   0.824   5.634  1.5356  1.1165 -0.4098
13497TIP3   OH261905   2.800   2.180   2.918  0.5866  0.0413 -0.5692
13497TIP3    H161906   2.720   2.230   2.927  0.2441 -0.5105 -0.5101
13497TIP3    H261907   2.848   2.197   2.999  0.7371  0.7293 -0.8008
13498TIP3   OH261908   5.265   3.358   1.610  0.0328 -0.4009 -0.0176
13498TIP3    H161909   5.359   3.353   1.630 -0.0809 -1.4917  0.3401
13498TIP3    H261910   5.244   3.271   1.577 -0.7550 -0.0039 -0.5674
13499TIP3   OH261911   3.877   3.790   1.423  0.4785  0.1658 -0.3878
13499TIP3    H161912   3.822   3.839   1.484  0.3195 -0.9541  0.3869
13499TIP3    H261913   3.954   3.846   1.411  0.7464  0.1996  1.2360
13500TIP3   OH261914   3.197   2.589   4.995 -0.4599  0.1901 -0.2767
13500TIP3    H161915   3.182   2.506   4.950 -0.5969 -0.3866  0.7836
13500TIP3    H261916   3.273   2.572   5.051 -0.4859  0.7850 -0.0526
13501TIP3   OH261917   4.083   4.491   0.532  0.0362 -0.7054 -0.3522
13501TIP3    H161918   4.081   4.551   0.457 -0.0177  0.0813  0.2649
13501TIP3    H261919   4.063   4.405   0.494  1.1305 -0.5208 -1.4132
13502TIP3   OH261920   7.002   5.511   2.875  0.4040  0.2516  0.1586
13502TIP3    H161921   6.951   5.448   2.824  0.1352 -1.2245  2.1816
13502TIP3    H261922   6.957   5.595   2.860 -2.4231 -0.9096  1.5100
13503TIP3   OH261923   6.572   0.459   0.831  0.8054 -0.7659  0.5934
13503TIP3    H161924   6.634   0.405   0.782  0.9633  0.4312 -0.6204
13503TIP3    H261925   6.562   0.538   0.777  0.2436  0.2146  2.0575
13504TIP3   OH261926   5.764   4.544   2.839 -0.2617  0.0632  0.2685
13504TIP3    H161927   5.846   4.504   2.812 -0.0440 -0.3038  1.4285
13504TIP3    H261928   5.776   4.638   2.822  0.5217  0.0516  0.7354
13505TIP3   OH261929   1.388   6.172   2.352  0.7071  0.0133 -0.1328
13505TIP3    H161930   1.331   6.199   2.280 -2.2885 -2.9882  0.8820
13505TIP3    H261931   1.332   6.174   2.429  1.7085 -3.4530  0.8698
13506TIP3   OH261932   1.765   1.449   5.789 -0.0606 -0.2210  0.3953
13506TIP3    H161933   1.695   1.447   5.854  0.6047 -1.8331  1.1381
13506TIP3    H261934   1.801   1.538   5.795 -0.5750 -0.0683  1.6421
13507TIP3   OH261935   6.847   3.958   5.075 -0.4535  0.6654  0.6374
13507TIP3    H161936   6.881   4.045   5.094  1.0508  0.0139  1.1150
13507TIP3    H261937   6.915   3.898   5.108 -2.8010 -0.8056  3.2469
13508TIP3   OH261938   0.738   6.879   2.366 -0.2338  0.0763 -0.4773
13508TIP3    H161939   0.668   6.911   2.310 -0.3148  0.0883 -0.3670
13508TIP3    H261940   0.724   6.784   2.371 -1.1959  0.2655  0.8660
13509TIP3   OH261941   5.599   6.764   1.454 -0.0322 -0.7496  0.1757
13509TIP3    H161942   5.694   6.756   1.452 -0.0981 -1.4406 -1.0348
13509TIP3    H261943   5.580   6.844   1.406 -0.0018  0.3544  1.9179
13510TIP3   OH261944   5.958   1.405   4.213 -0.2071 -0.5147  0.2059
13510TIP3    H161945   5.986   1.327   4.166  0.1337  0.1489 -0.7243
13510TIP3    H261946   5.867   1.388   4.236 -0.1230 -1.1986  0.0458
13511TIP3   OH261947   5.528   4.188   5.548 -0.4984 -0.4542 -0.1833
13511TIP3    H161948   5.602   4.232   5.590 -1.0787 -0.0069  0.3995
13511TIP3    H261949   5.522   4.103   5.591 -2.1802  0.6491  2.0119
13512TIP3   OH261950   2.489   1.930   5.261  0.3158  0.3179  0.5646
13512TIP3    H161951   2.402   1.890   5.262  0.4492 -0.0635  3.3276
13512TIP3    H261952   2.522   1.918   5.350  2.7332  1.5049 -0.0988
13513TIP3   OH261953   4.941   0.973  13.817  0.2700  0.1571  0.1099
13513TIP3    H161954   5.016   0.916  13.833  0.3488 -0.6075 -2.4632
13513TIP3    H261955   4.979   1.053  13.781 -0.0713  0.0123 -0.6039
13514TIP3   OH261956   3.345   2.338  14.349 -0.1075  0.0006 -1.0389
13514TIP3    H161957   3.423   2.357  14.297  0.6008  0.1629  0.0547
13514TIP3    H261958   3.283   2.408  14.328 -0.0728 -0.2798 -2.1141
13515TIP3   OH261959   6.296   4.195   2.484  0.3562 -0.1646  0.2281
13515TIP3    H161960   6.389   4.214   2.482 -0.1503  2.6549 -1.0948
13515TIP3    H261961   6.262   4.229   2.401 -1.7737 -1.6640  0.3881
13516TIP3   OH261962   0.812   1.982   0.673 -0.1034  0.9158  0.3510
13516TIP3    H161963   0.827   1.900   0.721  2.4490 -0.7534 -2.9225
13516TIP3    H261964   0.727   1.969   0.630 -0.9983  1.2110  1.9548
13517TIP3   OH261965   1.811   4.027   0.470 -0.0040  0.2062 -0.5112
13517TIP3    H161966   1.902   4.057   0.475  1.3047 -3.4559  0.3322
13517TIP3    H261967   1.783   4.020   0.561 -1.2150  1.2800 -0.7617
13518TIP3   OH261968   4.445   0.905   0.957 -0.4442  0.2705  0.4037
13518TIP3    H161969   4.476   0.948   1.037 -3.4476  2.0532  0.7715
13518TIP3    H261970   4.523   0.865   0.919  1.1958 -0.3717  4.0130
13519TIP3   OH261971   2.348   6.080   1.032  0.4682 -0.1715  0.7944
13519TIP3    H161972   2.335   6.000   0.982 -1.8194  2.1941 -2.8912
13519TIP3    H261973   2.443   6.091   1.034  0.7501 -1.8049 -0.7089
13520TIP3   OH261974   4.448   4.293   2.472 -0.3909 -0.2924  0.0171
13520TIP3    H161975   4.418   4.303   2.381 -1.8788 -1.7837  0.2861
13520TIP3    H261976   4.441   4.381   2.509 -0.6324  0.1644 -1.0559
13521TIP3   OH261977   1.613   1.100  12.208  0.4886  0.3238  0.2137
13521TIP3    H161978   1.652   1.137  12.129  3.0441 -0.8674  0.8235
13521TIP3    H261979   1.625   1.168  12.274 -0.1361  0.6647 -0.0169
13522TIP3   OH261980   6.862   5.101   3.424 -0.3397 -0.3150 -0.0507
13522TIP3    H161981   6.904   5.080   3.341 -1.0411  1.7508 -1.0146
13522TIP3    H261982   6.930   5.145   3.476 -0.7719  1.5737 -0.9807
13523TIP3   OH261983   2.067   5.314   3.704 -0.1154 -0.3586  0.1030
13523TIP3    H161984   1.993   5.371   3.685 -0.6477 -1.1508 -0.2505
13523TIP3    H261985   2.043   5.270   3.786  0.0547 -0.4675  0.0939
13524TIP3   OH261986   5.124   6.238   1.342  0.2269 -0.0819  0.1503
13524TIP3    H161987   5.116   6.184   1.264  0.6255  1.1538 -0.7784
13524TIP3    H261988   5.087   6.185   1.412  1.0669 -1.7356 -0.6187
13525TIP3   OH261989   1.427   6.564   0.161 -0.1578  0.1101 -0.7765
13525TIP3    H161990   1.489   6.545   0.232  0.4470 -0.1332 -1.3629
13525TIP3    H261991   1.447   6.499   0.094 -0.8263  0.2473 -1.1091
13526TIP3   OH261992   5.586   6.262   0.833  0.3162 -0.1517 -0.3216
13526TIP3    H161993   5.557   6.351   0.817  0.1349 -0.2390 -0.4836
13526TIP3    H261994   5.505   6.212   0.844  0.4274  0.0113  1.4583
13527TIP3   OH261995   1.523   5.469   4.774 -0.5013  0.9666 -0.4631
13527TIP3    H161996   1.524   5.423   4.858  0.0249 -0.8027 -1.4011
13527TIP3    H261997   1.614   5.492   4.758 -0.7703  2.5189  0.0502
13528TIP3   OH261998   2.539   7.002   4.475 -0.3506  0.1529  0.2049
13528TIP3    H161999   2.600   7.054   4.421 -0.7882  2.1611  1.5409
13528TIP3    H262000   2.579   7.000   4.562 -0.5124 -1.5505  0.2787
13529TIP3   OH262001   3.364   2.919   1.167  0.2131 -0.1624 -0.2194
13529TIP3    H162002   3.361   2.963   1.082  0.1899 -0.9087 -0.6116
13529TIP3    H262003   3.419   2.842   1.153  2.1820  0.9364  1.0486
13530TIP3   OH262004   7.190   0.996   4.830  0.2841 -0.3990  0.1531
13530TIP3    H162005   7.154   1.075   4.870  1.0878 -0.2058  0.5094
13530TIP3    H262006   7.113   0.948   4.799 -0.2250  0.3955  0.1575
13531TIP3   OH262007   2.428   0.123  13.201  0.3363  0.5812  0.2281
13531TIP3    H162008   2.391   0.125  13.112  1.0259  0.3823 -0.0647
13531TIP3    H262009   2.502   0.183  13.198  0.6738  0.1836  0.5360
13532TIP3   OH262010   6.882   0.168   4.244 -0.4140 -0.3249  0.5826
13532TIP3    H162011   6.960   0.171   4.299 -0.2860 -0.4654  0.4119
13532TIP3    H262012   6.821   0.111   4.291 -0.5409  0.0448  0.8750
13533TIP3   OH262013   4.868   5.943  13.567  0.0118  0.5542 -0.5009
13533TIP3    H162014   4.858   5.935  13.472 -0.8784 -0.0000 -0.3810
13533TIP3    H262015   4.843   5.856  13.600 -0.3064  0.9386  0.2767
13534TIP3   OH262016   2.845   2.140   2.318 -0.0873 -0.2426  0.1736
13534TIP3    H162017   2.923   2.191   2.340  0.8875 -1.3128 -0.6530
13534TIP3    H262018   2.841   2.143   2.222 -1.8117  0.8348  0.2348
13535TIP3   OH262019   4.280   4.506   0.072 -0.2806 -0.0143  0.0370
13535TIP3    H162020   4.266   4.598   0.048  1.7150  0.7418  1.4948
13535TIP3    H262021   4.295   4.462  -0.012  1.4133  1.5323 -0.5481
13536TIP3   OH262022   4.559   6.681   5.554  0.0366 -0.0934  0.2853
13536TIP3    H162023   4.546   6.723   5.469  2.7322  2.1151  0.8182
13536TIP3    H262024   4.559   6.587   5.535 -0.6371  0.3043 -1.9249
13537TIP3   OH262025   1.214   3.195   2.586  0.9990  0.3375  0.5134
13537TIP3    H162026   1.309   3.199   2.596  1.1688 -0.7798 -0.4194
13537TIP3    H262027   1.200   3.162   2.497 -0.2425 -0.1814  0.8743
13538TIP3   OH262028   2.425   0.593  12.970  0.0162 -0.4159  0.1120
13538TIP3    H162029   2.344   0.609  12.922  1.2497  1.1856 -1.5803
13538TIP3    H262030   2.397   0.560  13.055 -2.4305  0.8380 -0.1288
13539TIP3   OH262031   6.836   5.713  15.122  0.1868 -0.2477 -0.6079
13539TIP3    H162032   6.780   5.727  15.198  2.1557  2.0571  0.5768
13539TIP3    H262033   6.845   5.799  15.082  1.1516 -0.9499 -2.0024
13540TIP3   OH262034   1.972   6.998   2.947 -0.0944  0.4540 -0.0950
13540TIP3    H162035   1.989   7.092   2.951  0.7681  0.2978 -0.0093
13540TIP3    H262036   1.980   6.969   3.038  0.8604  0.0894 -0.2962
13541TIP3   OH262037   4.843   1.421  14.332 -0.0194  0.1340 -0.3275
13541TIP3    H162038   4.776   1.377  14.384 -0.6451 -0.4843 -1.6100
13541TIP3    H262039   4.921   1.368  14.344 -0.2069 -0.1089 -0.1614
13542TIP3   OH262040   2.999   0.174   2.754 -0.3791  0.3873  0.4840
13542TIP3    H162041   2.915   0.158   2.797 -0.3541  2.9393  1.6369
13542TIP3    H262042   3.034   0.086   2.737 -3.4324 -0.7912 -0.4958
13543TIP3   OH262043   0.522   2.707   3.269  0.9226 -0.4197 -0.1443
13543TIP3    H162044   0.511   2.667   3.183  1.5014 -0.5887 -0.1425
13543TIP3    H262045   0.433   2.730   3.296  0.7503 -0.2389 -0.8433
13544TIP3   OH262046   1.132   4.037   3.863 -0.2302 -0.1958  0.2456
13544TIP3    H162047   1.176   4.075   3.786 -1.1373  0.2131 -0.0878
13544TIP3    H262048   1.203   4.019   3.925  0.5121 -0.4528 -0.6484
13545TIP3   OH262049   6.545   4.378   3.934  0.0129  0.0869  0.4469
13545TIP3    H162050   6.627   4.427   3.933 -0.0389  0.1762  0.5515
13545TIP3    H262051   6.481   4.437   3.894  0.4136 -0.7189 -1.4819
13546TIP3   OH262052   7.101   5.954  11.352 -0.1527 -0.4541 -0.2101
13546TIP3    H162053   7.042   5.905  11.408  0.0535  1.9148  2.2968
13546TIP3    H262054   7.063   6.041  11.346  1.0461  0.0181 -1.9026
13547TIP3   OH262055   1.831   6.059   5.060  0.0654  0.6385  0.1803
13547TIP3    H162056   1.749   6.084   5.018 -0.7114 -1.6150  0.2381
13547TIP3    H262057   1.817   6.076   5.153  0.6516  2.6631 -0.0495
13548TIP3   OH262058   2.948   1.599   4.360  0.3280  0.2573 -0.1010
13548TIP3    H162059   2.889   1.631   4.429  1.3940  0.3109  0.8263
13548TIP3    H262060   2.944   1.504   4.369  1.5940  0.2844  1.0670
13549TIP3   OH262061   6.722   4.317   4.723  0.4965  0.0063 -0.3832
13549TIP3    H162062   6.743   4.386   4.785 -0.5694 -0.5456  0.6413
13549TIP3    H262063   6.737   4.235   4.771 -0.4064 -0.4280 -0.8040
13550TIP3   OH262064   3.009   6.798  15.264  0.2322 -0.3788 -0.0436
13550TIP3    H162065   2.992   6.756  15.180 -0.9378  0.5217 -0.2803
13550TIP3    H262066   3.085   6.752  15.299  2.2815  0.7728 -2.6654
13551TIP3   OH262067   0.417   5.281   1.814  0.2882  0.2269 -0.1034
13551TIP3    H162068   0.486   5.250   1.872 -0.1876  0.0189  0.3627
13551TIP3    H262069   0.426   5.376   1.813  0.1633  0.2474  0.4881
13552TIP3   OH262070   0.102   0.997   2.077  0.6067 -0.1228 -0.2829
13552TIP3    H162071   0.188   0.957   2.094 -0.4596 -2.1271  0.7480
13552TIP3    H262072   0.045   0.963   2.146 -1.1407  0.8484 -1.1651
13553TIP3   OH262073   6.566   6.110   1.525  0.3210 -0.3240 -0.1908
13553TIP3    H162074   6.501   6.096   1.457 -0.6586 -1.7854  0.9817
13553TIP3    H262075   6.646   6.071   1.490  0.4680  1.0043 -1.4179
13554TIP3   OH262076   2.059   4.148   3.186  0.1967 -0.6254 -0.0955
13554TIP3    H162077   2.082   4.222   3.130  1.4241 -0.8775  0.0455
13554TIP3    H262078   2.038   4.187   3.271 -0.6302 -0.3314 -0.4268
13555TIP3   OH262079   5.375   1.966   3.711 -0.7678  0.1887 -0.2680
13555TIP3    H162080   5.329   1.960   3.627 -2.4649 -0.4983  0.6436
13555TIP3    H262081   5.467   1.959   3.689 -1.0865  1.2382 -2.1766
13556TIP3   OH262082   1.465   0.969   1.519  0.0064  0.4430 -0.7707
13556TIP3    H162083   1.464   1.006   1.430  0.2123 -1.3490 -1.5547
13556TIP3    H262084   1.415   0.888   1.511 -1.8081  1.2697  1.2633
13557TIP3   OH262085   1.593   1.425   0.748  0.1603 -0.1707  0.5023
13557TIP3    H162086   1.656   1.362   0.782 -0.4480 -0.8307  0.4430
13557TIP3    H262087   1.645   1.503   0.728  1.0464 -0.8701 -0.0229
13558TIP3   OH262088   6.372   5.007   3.050  0.2483 -0.0761 -0.5938
13558TIP3    H162089   6.301   5.047   2.999 -0.4117  0.6542  0.8535
13558TIP3    H262090   6.392   5.071   3.118  0.2486 -1.5378  0.8330
13559TIP3   OH262091   3.429   5.126   3.505 -0.0460 -0.0803 -0.0702
13559TIP3    H162092   3.356   5.171   3.548  0.7264  1.8335 -0.6389
13559TIP3    H262093   3.388   5.074   3.436 -0.9189  0.6296 -0.1092
13560TIP3   OH262094   0.767   5.390  14.160  0.3973 -0.2730  0.2920
13560TIP3    H162095   0.846   5.346  14.127  0.9276  1.2893 -0.6028
13560TIP3    H262096   0.788   5.412  14.250  0.5426 -0.8369  0.4041
13561TIP3   OH262097   2.090   3.655   2.460  0.2128  1.1670  0.9319
13561TIP3    H162098   2.051   3.730   2.415  0.5572  1.1877  0.6732
13561TIP3    H262099   2.183   3.659   2.439 -0.1220 -0.8481 -1.2803
13562TIP3   OH262100   4.028   0.796   4.193 -0.2283  0.4904 -0.0576
13562TIP3    H162101   3.994   0.720   4.240  0.6238  1.2589  1.8906
13562TIP3    H262102   3.961   0.864   4.206  0.8819  1.2994  1.8103
13563TIP3   OH262103   0.863   0.256   2.460  0.1488  0.0171 -0.0190
13563TIP3    H162104   0.882   0.208   2.379  0.3024  2.1581 -1.3069
13563TIP3    H262105   0.841   0.344   2.431  0.2093  0.8460  2.2939
13564TIP3   OH262106   0.969   1.525   2.115 -0.0930  0.0506  0.5535
13564TIP3    H162107   0.988   1.489   2.201  0.8150  0.5070  0.5545
13564TIP3    H262108   0.982   1.452   2.055 -1.9167 -0.6053  0.8850
13565TIP3   OH262109   4.966   4.175   4.874  0.0479  0.2315  0.3539
13565TIP3    H162110   5.048   4.141   4.840 -0.0980 -0.5070  0.7016
13565TIP3    H262111   4.918   4.206   4.797  0.2527 -0.2264  0.0383
13566TIP3   OH262112   5.430   6.014   2.559  0.1934  0.1271 -0.1473
13566TIP3    H162113   5.437   6.110   2.566 -2.3656  0.3779  0.0032
13566TIP3    H262114   5.406   5.999   2.468  0.7918 -0.4120 -0.2207
13567TIP3   OH262115   7.011   2.828  14.504  0.3142  0.4166 -0.1263
13567TIP3    H162116   7.043   2.918  14.509  0.3719  0.3268  2.2986
13567TIP3    H262117   7.090   2.775  14.498  0.3814  0.4647  0.2765
13568TIP3   OH262118   6.404   1.614  14.078  0.1306 -0.1729 -0.0146
13568TIP3    H162119   6.411   1.702  14.116  0.8804 -1.0650  2.0196
13568TIP3    H262120   6.375   1.559  14.150  0.3527 -1.7447 -1.0829
13569TIP3   OH262121   1.686   0.315   4.462 -0.6708  0.0211 -0.5566
13569TIP3    H162122   1.643   0.373   4.399 -1.0363  1.4430  0.9208
13569TIP3    H262123   1.772   0.297   4.423  0.5172  3.6711 -0.0112
13570TIP3   OH262124   2.463   3.593   3.134  0.2680  0.2061  0.0976
13570TIP3    H162125   2.431   3.503   3.137  1.0893 -0.1049 -0.3393
13570TIP3    H262126   2.541   3.589   3.079  1.2781  0.8908  1.4273
13571TIP3   OH262127   6.251   2.339  14.228 -0.1706  0.2220  0.4616
13571TIP3    H162128   6.310   2.276  14.269 -0.2209  0.1833  0.4747
13571TIP3    H262129   6.303   2.420  14.223 -0.3219  0.3582  1.0394
13572TIP3   OH262130   1.738   3.067   2.801  0.0436 -0.2095 -0.5156
13572TIP3    H162131   1.743   3.107   2.714  1.3677 -0.8462 -0.7578
13572TIP3    H262132   1.686   2.988   2.788  1.2391 -0.9480 -1.0184
13573TIP3   OH262133   0.941   1.462   0.466  0.0426 -0.4133 -0.8597
13573TIP3    H162134   0.894   1.445   0.549 -1.7605  1.6649 -1.3748
13573TIP3    H262135   1.002   1.389   0.459 -1.7234 -2.2157  0.9036
13574TIP3   OH262136   4.030   6.540   5.018 -0.3688  0.3989  0.3323
13574TIP3    H162137   4.050   6.534   5.112  2.8073  0.6290 -0.2291
13574TIP3    H262138   4.043   6.451   4.985 -0.1575  0.5962 -0.1170
13575TIP3   OH262139   2.369   2.604  13.541 -0.8661  0.5667 -0.6200
13575TIP3    H162140   2.331   2.688  13.517 -0.4323  0.4763 -1.6771
13575TIP3    H262141   2.463   2.619  13.539 -0.7532 -0.1650 -1.7305
13576TIP3   OH262142   3.562   4.991   3.777 -0.3999 -0.0947  0.3327
13576TIP3    H162143   3.556   4.947   3.692  1.5222 -0.7230  0.4813
13576TIP3    H262144   3.564   5.084   3.756  0.5625 -0.2595 -0.3636
13577TIP3   OH262145   1.886   6.751   1.343 -0.1076 -0.0562 -0.2615
13577TIP3    H162146   1.918   6.798   1.420 -2.0018  2.2462 -0.7460
13577TIP3    H262147   1.791   6.750   1.354 -0.3427 -0.6191 -2.0646
13578TIP3   OH262148   4.288   0.603   0.151 -0.3131 -0.0248  0.4758
13578TIP3    H162149   4.198   0.587   0.180 -0.5044  0.0387 -0.0678
13578TIP3    H262150   4.279   0.665   0.078  0.1347 -0.3915  0.1021
13579TIP3   OH262151   0.208   3.330   3.730 -0.2280 -0.0656 -0.2217
13579TIP3    H162152   0.114   3.313   3.726 -0.6033  1.8390 -0.2897
13579TIP3    H262153   0.230   3.363   3.643  0.9680 -2.4348 -0.9017
13580TIP3   OH262154   1.559   2.860   1.411  0.6787 -0.2795  0.2932
13580TIP3    H162155   1.525   2.912   1.337  1.8011 -0.3043 -0.2527
13580TIP3    H262156   1.487   2.860   1.474 -0.3072 -0.2320 -0.7842
13581TIP3   OH262157   6.622   1.545   3.497 -0.1918 -0.0445  0.7984
13581TIP3    H162158   6.581   1.604   3.561 -1.7047 -1.1665  0.9228
13581TIP3    H262159   6.593   1.457   3.523  0.8720 -0.7300 -0.2060
13582TIP3   OH262160   2.240   6.002   1.548  0.1700  0.1499  0.5107
13582TIP3    H162161   2.321   6.034   1.509 -0.8262 -0.2932 -2.1189
13582TIP3    H262162   2.174   6.066   1.524 -0.9807 -1.4516 -0.8551
13583TIP3   OH262163   2.809   2.728   4.571 -0.4432 -1.0704 -0.0497
13583TIP3    H162164   2.839   2.729   4.662  0.4968 -1.1314 -0.3432
13583TIP3    H262165   2.764   2.644   4.562 -0.8556 -0.9098  0.4490
13584TIP3   OH262166   7.103   3.636   4.528  0.0574 -0.4913 -0.1425
13584TIP3    H162167   7.024   3.585   4.514 -0.2396  0.2042 -1.0579
13584TIP3    H262168   7.165   3.603   4.463  0.5165 -0.9956  0.5334
13585TIP3   OH262169   4.079   5.362   4.498 -0.7426  0.4213 -0.1463
13585TIP3    H162170   4.111   5.272   4.491 -0.1789  0.5811  0.3210
13585TIP3    H262171   4.027   5.375   4.418 -1.2889 -0.4894  0.0383
13586TIP3   OH262172   7.154   4.167  15.040  0.4136  0.1666  0.0652
13586TIP3    H162173   7.128   4.181  15.131 -0.9247 -2.0857  0.0914
13586TIP3    H262174   7.225   4.230  15.026 -0.6546  1.9470  2.0346
13587TIP3   OH262175   0.708   2.613   4.130 -0.6969 -1.0980  0.1787
13587TIP3    H162176   0.798   2.587   4.152 -0.8498 -0.5437  1.5897
13587TIP3    H262177   0.666   2.531   4.105  0.2815 -1.3165 -0.8521
13588TIP3   OH262178   2.136   7.017  11.973  0.4891  0.1254  0.1813
13588TIP3    H162179   2.101   6.988  12.057 -0.3500 -1.3118 -0.6277
13588TIP3    H262180   2.156   6.936  11.926  0.6884  0.8938 -1.1055
13589TIP3   OH262181   4.482   0.037   0.892 -0.6717 -0.1861  0.4069
13589TIP3    H162182   4.473  -0.007   0.808 -2.5155  0.1022  0.4020
13589TIP3    H262183   4.569   0.077   0.890 -0.8977  0.3081 -1.6021
13590TIP3   OH262184   0.715   5.176  10.728  0.4117  0.5687  0.0234
13590TIP3    H162185   0.778   5.123  10.679 -0.5620 -0.5244 -0.0963
13590TIP3    H262186   0.726   5.148  10.819  0.3756  0.6658  0.0581
13591TIP3   OH262187   1.747   3.897   3.401  0.4735 -0.5640 -0.0173
13591TIP3    H162188   1.682   3.839   3.362 -1.7758  1.7825 -0.0225
13591TIP3    H262189   1.797   3.930   3.326 -1.4723  1.1547 -0.6685
13592TIP3   OH262190   2.670   6.606   5.189  0.2134 -0.8578 -0.2976
13592TIP3    H162191   2.654   6.666   5.261 -0.1566 -0.5732 -0.6102
13592TIP3    H262192   2.684   6.662   5.113  2.3569 -1.1031 -0.1441
13593TIP3   OH262193   2.833   3.662  13.827  0.2185  0.2329 -0.2049
13593TIP3    H162194   2.820   3.694  13.738  0.7113  1.5679  0.1846
13593TIP3    H262195   2.833   3.740  13.882  2.7243 -0.2608  0.6384
13594TIP3   OH262196   5.240   5.305  14.751  0.3473 -0.3123 -0.5671
13594TIP3    H162197   5.159   5.255  14.765  0.1605  0.7294  3.1436
13594TIP3    H262198   5.309   5.247  14.782  0.6321  0.0800 -0.4695
13595TIP3   OH262199   6.682   6.941  13.076 -0.1869  0.0626 -0.0409
13595TIP3    H162200   6.653   6.993  13.151 -1.3340 -1.7732  0.8688
13595TIP3    H262201   6.638   6.979  13.001 -1.2820  0.2197  0.6574
13596TIP3   OH262202   1.856   5.233   0.422 -0.0293  0.0388  0.4813
13596TIP3    H162203   1.948   5.208   0.429 -0.3541 -1.5198 -0.1943
13596TIP3    H262204   1.857   5.328   0.413  1.6612 -0.0808 -1.4221
13597TIP3   OH262205   5.705   1.861  14.878 -0.4138 -0.0242  0.0767
13597TIP3    H162206   5.681   1.773  14.906  0.3307 -0.3236 -0.2107
13597TIP3    H262207   5.721   1.852  14.784  0.9749  0.1239  0.2811
13598TIP3   OH262208   0.719   5.952   3.980  0.0732  0.0319 -0.4306
13598TIP3    H162209   0.771   5.986   4.053 -1.6915  3.5717 -0.6052
13598TIP3    H262210   0.637   5.923   4.020 -0.2640  0.4607 -0.7946
13599TIP3   OH262211   3.970   0.442  12.889  0.3084 -0.4236 -0.1890
13599TIP3    H162212   4.008   0.369  12.939  1.2208  0.4451  0.4338
13599TIP3    H262213   4.018   0.519  12.920 -2.5988  0.9330  1.3995
13600TIP3   OH262214   2.688   1.762   3.248  0.3955  1.1680  0.5057
13600TIP3    H162215   2.659   1.851   3.230 -1.0276  0.4181 -1.2188
13600TIP3    H262216   2.607   1.710   3.252  1.0440  0.1767  3.2424
13601TIP3   OH262217   4.905   5.809   2.721  0.3397  0.0085 -0.3065
13601TIP3    H162218   4.938   5.831   2.633 -1.2061 -0.2414 -0.9869
13601TIP3    H262219   4.810   5.818   2.714  0.1287 -0.7154  1.1535
13602TIP3   OH262220   5.086   5.908  11.517  0.5530  0.1216  0.0647
13602TIP3    H162221   5.171   5.942  11.487  1.4454 -2.8867 -1.3040
13602TIP3    H262222   5.059   5.848  11.447 -1.0601 -1.5355  1.9931
13603TIP3   OH262223   2.700   2.250  11.162 -0.1868 -0.0576 -0.1496
13603TIP3    H162224   2.626   2.310  11.164 -1.4094 -1.5058  0.9596
13603TIP3    H262225   2.703   2.218  11.071 -3.1840 -2.5045  0.4245
13604TIP3   OH262226   4.546   0.915  14.363  0.0447 -0.1613  0.0299
13604TIP3    H162227   4.470   0.861  14.384 -0.7407  0.5552 -0.9053
13604TIP3    H262228   4.599   0.860  14.305  0.2322 -0.6359  0.6292
13605TIP3   OH262229   4.188   2.385   0.811  0.5148 -0.0394  0.0796
13605TIP3    H162230   4.261   2.372   0.872  2.4030  1.9260 -1.6140
13605TIP3    H262231   4.135   2.452   0.853  1.1113  0.3986  0.1459
13606TIP3   OH262232   4.625   1.637   3.542  0.0406  0.1676 -0.4379
13606TIP3    H162233   4.562   1.565   3.548  0.4423 -0.3329 -1.8885
13606TIP3    H262234   4.666   1.640   3.629 -2.6656  1.1940  0.9111
13607TIP3   OH262235   4.069   5.894   4.489  0.1088  0.0398 -0.0877
13607TIP3    H162236   4.068   5.958   4.418  0.3668  0.0023 -0.1269
13607TIP3    H262237   4.021   5.819   4.456 -1.3456  0.6939  0.4174
13608TIP3   OH262238   1.004   2.124   5.725  0.3005 -0.5207 -0.2863
13608TIP3    H162239   1.042   2.166   5.803 -1.7323 -0.2807  0.6335
13608TIP3    H262240   0.969   2.041   5.758  0.2441 -0.8519 -1.1605
13609TIP3   OH262241   0.172   1.989   3.273 -0.6973  0.7657 -0.0098
13609TIP3    H162242   0.223   1.930   3.330 -2.0060  0.0465  0.4663
13609TIP3    H262243   0.087   1.995   3.316 -1.5353  0.6650 -1.6112
13610TIP3   OH262244   0.329   3.520   3.872 -0.4440  0.1610  0.2435
13610TIP3    H162245   0.315   3.443   3.817 -0.3720  1.5810 -1.8616
13610TIP3    H262246   0.244   3.564   3.872  0.0195  1.0603 -0.1555
13611TIP3   OH262247   6.449   3.279   2.604  0.4575  0.2604  0.3777
13611TIP3    H162248   6.530   3.232   2.623 -0.6420 -0.9242  2.4786
13611TIP3    H262249   6.380   3.222   2.639 -1.2556  1.4960 -0.8267
13612TIP3   OH262250   0.528   2.804   1.639  0.5912  0.0674  0.1815
13612TIP3    H162251   0.567   2.789   1.726 -0.2297 -1.6137  0.2987
13612TIP3    H262252   0.578   2.747   1.581  1.2585  1.3261 -0.5189
13613TIP3   OH262253   5.134   0.751  14.057  0.3270  0.5644  0.5650
13613TIP3    H162254   5.157   0.666  14.095  1.6596 -0.2548 -1.8365
13613TIP3    H262255   5.043   0.742  14.031  0.7429 -0.5613 -0.6125
13614TIP3   OH262256   6.473   1.100   3.378 -0.2345 -0.3528 -0.3879
13614TIP3    H162257   6.387   1.126   3.345  0.1472  0.9643 -0.3895
13614TIP3    H262258   6.509   1.044   3.309 -0.5219  0.2298 -1.0287
13615TIP3   OH262259   3.751   4.926   2.885 -0.3659  0.1618  0.2430
13615TIP3    H162260   3.808   4.999   2.913  1.5411 -0.3066 -2.0697
13615TIP3    H262261   3.806   4.848   2.894 -0.5874 -0.3273 -1.9666
13616TIP3   OH262262   5.037   2.935   5.306 -0.0259 -0.1070 -0.0679
13616TIP3    H162263   5.114   2.879   5.317  0.2162  0.4408  1.1466
13616TIP3    H262264   4.972   2.900   5.367 -0.8909 -0.7722 -1.3147
13617TIP3   OH262265   5.598   3.834   3.671  0.0783  0.1667 -0.0199
13617TIP3    H162266   5.575   3.741   3.665 -0.1337  0.1755  0.6283
13617TIP3    H262267   5.553   3.874   3.596 -0.2675 -0.1684  0.0031
13618TIP3   OH262268   5.818   5.856   2.994  0.3218  0.4209 -0.4115
13618TIP3    H162269   5.786   5.767   2.978 -1.3108  1.0589 -0.8524
13618TIP3    H262270   5.892   5.865   2.934 -0.8475  0.0791 -1.9680
13619TIP3   OH262271   4.958   4.757   5.152  0.2418  0.2089 -0.3112
13619TIP3    H162272   4.969   4.841   5.106  0.1228  0.4674  0.1279
13619TIP3    H262273   5.046   4.722   5.158  0.6847  1.5216  1.7808
13620TIP3   OH262274   4.520   3.854   2.324 -0.3676  0.3026  0.7124
13620TIP3    H162275   4.479   3.863   2.410  2.3975  2.5169  1.9341
13620TIP3    H262276   4.566   3.936   2.310 -0.6213 -0.0244 -2.9104
13621TIP3   OH262277   0.651   5.462   3.442  0.1477 -0.2213 -0.2544
13621TIP3    H162278   0.586   5.429   3.503  1.0647 -0.2705  0.7128
13621TIP3    H262279   0.600   5.511   3.377 -0.7904  0.5093  0.9857
13622TIP3   OH262280   1.643   3.850   1.593  0.2620  0.5790  0.1810
13622TIP3    H162281   1.709   3.820   1.656  0.5727 -0.8523 -0.7817
13622TIP3    H262282   1.686   3.840   1.507 -0.3395  1.9833 -0.3059
13623TIP3   OH262283   0.847   6.089   0.103  0.2739  0.1131  0.0060
13623TIP3    H162284   0.760   6.128   0.110 -0.2147 -1.1621  1.9603
13623TIP3    H262285   0.899   6.136   0.168  0.1489 -1.1950  1.1028
13624TIP3   OH262286   2.213   3.254   2.830  0.6093  0.1400 -0.2379
13624TIP3    H162287   2.173   3.230   2.746  0.6536  0.7233 -0.4260
13624TIP3    H262288   2.181   3.188   2.891  0.2254 -0.0306 -0.6202
13625TIP3   OH262289   5.573   0.416   2.451  0.5084 -0.0574  0.1306
13625TIP3    H162290   5.596   0.338   2.401 -0.6715 -0.2365 -0.1590
13625TIP3    H262291   5.522   0.469   2.389 -0.0126  0.2302  0.7989
13626TIP3   OH262292   0.583   0.792   4.860 -0.6861 -0.1662  0.5134
13626TIP3    H162293   0.495   0.824   4.883  0.2815  2.2478  1.1449
13626TIP3    H262294   0.629   0.787   4.943  0.8456  2.2106 -0.1002
13627TIP3   OH262295   4.657   3.081   4.977 -0.6964  0.5458 -0.4497
13627TIP3    H162296   4.680   3.142   4.907  0.5572 -1.3228 -1.7400
13627TIP3    H262297   4.697   3.119   5.055  1.0783  0.8162 -1.4379
13628TIP3   OH262298   3.037   4.618   1.234 -0.0249 -0.3703  0.2824
13628TIP3    H162299   3.074   4.647   1.150  0.5158  0.8772  0.9352
13628TIP3    H262300   2.942   4.623   1.221  0.0538  0.1437 -0.1443
13629TIP3   OH262301   3.134   4.622   5.485  0.6501 -0.5468  0.5445
13629TIP3    H162302   3.121   4.562   5.558  1.1195 -0.3673  0.7864
13629TIP3    H262303   3.204   4.681   5.515  0.8893 -0.5064 -0.0688
13630TIP3   OH262304   6.409   4.889  11.997  0.6269  0.4276 -0.1714
13630TIP3    H162305   6.418   4.974  12.040  3.5926  0.4308 -0.6050
13630TIP3    H262306   6.443   4.903  11.909 -0.8323 -0.7517 -0.9700
13631TIP3   OH262307   2.927   5.197   1.047  0.0614  0.2983 -0.0515
13631TIP3    H162308   3.021   5.209   1.046  0.2676 -1.0941 -0.9810
13631TIP3    H262309   2.908   5.151   0.965 -1.2612 -0.4447  0.6300
13632TIP3   OH262310   2.412   6.217  12.049 -0.0228 -0.0140  0.4608
13632TIP3    H162311   2.420   6.176  12.135  0.3365 -2.1429 -0.4980
13632TIP3    H262312   2.334   6.176  12.011  0.8223 -0.4605 -0.8765
13633TIP3   OH262313   6.239   2.922   4.816 -0.0239 -0.5244  0.2174
13633TIP3    H162314   6.194   2.878   4.888 -0.9013 -0.0731 -0.0435
13633TIP3    H262315   6.177   2.919   4.744  0.6125 -0.4361 -0.3417
13634TIP3   OH262316   0.615   3.293  14.776 -0.1841 -0.1004  0.3220
13634TIP3    H162317   0.569   3.210  14.762 -1.3881  0.5990  0.0458
13634TIP3    H262318   0.675   3.275  14.849 -0.4966 -1.1748  0.3307
13635TIP3   OH262319   3.565   2.116   3.199  0.5566  0.5808 -0.0749
13635TIP3    H162320   3.652   2.083   3.223 -0.0461 -0.5808  0.6544
13635TIP3    H262321   3.557   2.199   3.245  1.9944  1.6776 -1.6827
13636TIP3   OH262322   6.080   6.334   3.160  0.8526  0.3172 -0.2078
13636TIP3    H162323   6.020   6.347   3.087  2.1924  1.9875 -1.0806
13636TIP3    H262324   6.027   6.351   3.238 -0.2233  0.0006 -0.8467
13637TIP3   OH262325   1.065   3.447   5.792 -0.5702 -0.0769 -0.5824
13637TIP3    H162326   1.030   3.515   5.850  1.3827  0.4810  0.0007
13637TIP3    H262327   1.132   3.404   5.843  0.7829  0.0138 -2.1924
13638TIP3   OH262328   1.619   2.126   4.340  0.6236 -0.1725  0.2298
13638TIP3    H162329   1.588   2.209   4.378 -0.0988 -0.9647  1.4553
13638TIP3    H262330   1.675   2.088   4.408 -1.5812 -2.1542  1.1098
13639TIP3   OH262331   2.243   5.602   4.740  0.2010  0.0381 -0.0142
13639TIP3    H162332   2.329   5.561   4.741  0.8704  1.2970 -2.0930
13639TIP3    H262333   2.258   5.692   4.767 -0.8821 -0.2905  1.9398
13640TIP3   OH262334   4.338   0.719   4.012  0.6228  0.3741 -0.3889
13640TIP3    H162335   4.360   0.660   4.084  1.5755  0.7671 -0.3513
13640TIP3    H262336   4.302   0.661   3.944  0.5406 -0.1032  0.0583
13641TIP3   OH262337   3.267   2.706   5.323  0.2393 -0.4803  0.9074
13641TIP3    H162338   3.345   2.724   5.270  0.1740 -2.2757  0.1211
13641TIP3    H262339   3.268   2.773   5.391  0.4637  1.8173 -1.1880
13642TIP3   OH262340   0.135   6.354   5.234  0.3928  0.3221  0.0736
13642TIP3    H162341   0.085   6.357   5.316  1.6009  2.9773  0.8277
13642TIP3    H262342   0.123   6.440   5.195  1.6363 -0.1362 -1.4330
13643TIP3   OH262343   5.116   2.122   2.183 -0.0778  0.1780 -0.3587
13643TIP3    H162344   5.045   2.162   2.234 -1.3250  0.0462 -1.9284
13643TIP3    H262345   5.180   2.192   2.171 -1.4772  1.2910 -1.6827
13644TIP3   OH262346   5.993   0.552   3.473 -0.3251  0.0396  0.3354
13644TIP3    H162347   5.908   0.590   3.450 -0.4635 -0.4333  0.0529
13644TIP3    H262348   5.973   0.481   3.534 -0.1242  0.0006  0.3587
13645TIP3   OH262349   5.989   4.955  15.292  0.6713  0.0923 -0.2118
13645TIP3    H162350   5.968   5.010  15.368  0.4692 -0.2459 -0.0229
13645TIP3    H262351   5.964   5.009  15.216  0.7420  0.3751 -0.0368
13646TIP3   OH262352   1.563   5.851   3.444  0.1367 -0.0086  0.0495
13646TIP3    H162353   1.510   5.885   3.516  1.1723  0.8444  0.4467
13646TIP3    H262354   1.573   5.926   3.385 -0.1420 -0.5171 -0.6541
13647TIP3   OH262355   0.835   0.822   2.010 -0.1049 -0.1156 -0.2740
13647TIP3    H162356   0.906   0.838   1.948  0.5306  0.2445  0.5284
13647TIP3    H262357   0.778   0.759   1.965  1.6299 -1.7928 -0.2623
13648TIP3   OH262358   1.464   5.646   1.893 -0.2767  0.1463  0.2304
13648TIP3    H162359   1.548   5.680   1.862 -0.0554 -1.7353 -1.4668
13648TIP3    H262360   1.399   5.684   1.835 -0.4159  0.2787  0.4695
13649TIP3   OH262361   1.564   1.388   5.502  0.0956 -0.0573 -0.0739
13649TIP3    H162362   1.520   1.400   5.586  1.6776 -2.4712  1.1842
13649TIP3    H262363   1.506   1.331   5.452  0.6952 -1.3775  0.7074
13650TIP3   OH262364   1.637   3.077   5.721  0.2765 -0.4387 -0.6964
13650TIP3    H162365   1.627   2.988   5.756  0.2116 -0.6938 -1.3469
13650TIP3    H262366   1.731   3.093   5.724  0.3309 -0.6982 -0.9836
13651TIP3   OH262367   2.421   6.446   5.336 -0.0793 -0.3574  0.0673
13651TIP3    H162368   2.482   6.470   5.406 -1.4664 -1.7694  1.8650
13651TIP3    H262369   2.445   6.356   5.314 -1.5738 -0.9935  0.9214
13652TIP3   OH262370   5.095   0.013  12.452  0.1061 -0.3488  0.3550
13652TIP3    H162371   5.032  -0.023  12.514 -0.6119 -0.7762 -0.6073
13652TIP3    H262372   5.180   0.003  12.496 -0.5034  0.6970  1.8825
13653TIP3   OH262373   5.448   1.792   2.027 -0.8580  0.3800 -0.0620
13653TIP3    H162374   5.354   1.773   2.031 -0.9784  0.6521 -1.2442
13653TIP3    H262375   5.485   1.723   1.972 -0.6343  1.1495 -0.9114
13654TIP3   OH262376   1.900   0.111   5.879  0.5767 -0.3986 -0.0323
13654TIP3    H162377   1.966   0.167   5.838  0.2943  0.0894  0.1801
13654TIP3    H262378   1.922   0.023   5.849 -0.0586  0.0195 -1.8394
13655TIP3   OH262379   2.230   4.749   0.865 -0.1245 -0.5067 -0.0198
13655TIP3    H162380   2.188   4.815   0.921  0.8842 -0.0993  0.2832
13655TIP3    H262381   2.168   4.734   0.794 -0.8536 -0.0526  0.5122
13656TIP3   OH262382   6.738   1.361   5.642 -0.6376  0.1519  0.4024
13656TIP3    H162383   6.728   1.386   5.734 -1.5054 -0.9235  0.6212
13656TIP3    H262384   6.802   1.291   5.643  0.8451  1.4517 -0.0660
13657TIP3   OH262385   4.099   7.001   1.120  0.4522  0.0421  0.5381
13657TIP3    H162386   4.151   6.952   1.184  2.9030  1.0337 -0.5663
13657TIP3    H262387   4.151   6.997   1.040 -0.0172  3.0631 -0.0206
13658TIP3   OH262388   3.048   1.981   5.599  0.2486 -0.4236 -0.3919
13658TIP3    H162389   3.090   2.050   5.548 -0.4753 -0.0195 -0.4516
13658TIP3    H262390   2.961   1.971   5.559 -1.4097  1.7086  2.2640
13659TIP3   OH262391   2.273   2.604   1.607  0.3586  0.4809  0.1473
13659TIP3    H162392   2.244   2.630   1.694  2.1036  0.9962  0.6145
13659TIP3    H262393   2.320   2.681   1.574  1.4737 -0.4141 -0.4023
13660TIP3   OH262394   2.587   5.535   1.661 -0.6579 -0.3546 -0.3006
13660TIP3    H162395   2.646   5.551   1.735  0.5251 -1.4017 -0.9698
13660TIP3    H262396   2.558   5.623   1.634 -1.3751  0.0169  1.5777
13661TIP3   OH262397   5.304   1.687  14.401  0.2756  0.1435  0.1661
13661TIP3    H162398   5.391   1.649  14.416 -0.6937 -2.7744 -0.8368
13661TIP3    H262399   5.266   1.695  14.488  0.3744 -1.7779  0.4351
13662TIP3   OH262400   5.783   5.575   2.174 -0.4479  0.6496 -1.0996
13662TIP3    H162401   5.824   5.644   2.227 -1.1173  0.1150  0.1675
13662TIP3    H262402   5.693   5.606   2.160 -1.4959 -0.8481  1.3951
13663TIP3   OH262403   5.109   4.763   6.074  0.5880  0.3958 -0.0559
13663TIP3    H162404   5.116   4.848   6.032 -0.5090  1.0000  0.9266
13663TIP3    H262405   5.046   4.776   6.144 -0.9238 -1.6197 -0.9236
13664TIP3   OH262406   6.040   2.142   3.847 -0.2649 -0.4909  0.1042
13664TIP3    H162407   6.033   2.233   3.876 -0.6181 -0.2326 -0.7518
13664TIP3    H262408   6.130   2.117   3.868 -0.4040 -0.2202  1.0911
13665TIP3   OH262409   6.234   3.160   4.153  0.0125  0.1328 -0.4809
13665TIP3    H162410   6.314   3.213   4.148 -0.2707  0.6398  0.3085
13665TIP3    H262411   6.217   3.135   4.062  0.2797  1.2008 -0.8375
13666TIP3   OH262412   5.599   0.988   0.545  0.1407  0.4958  0.4663
13666TIP3    H162413   5.619   1.050   0.615  0.9888  1.4521 -0.5881
13666TIP3    H262414   5.680   0.940   0.531  0.1952  0.8099 -0.3393
13667TIP3   OH262415   5.067   4.282   4.430  0.4174  0.0455 -0.1725
13667TIP3    H162416   5.143   4.317   4.384  1.1486 -0.5858  0.5276
13667TIP3    H262417   5.002   4.268   4.361  2.0101 -2.3430 -1.3505
13668TIP3   OH262418   4.588   4.671   2.806  0.0392  0.5268  0.1415
13668TIP3    H162419   4.549   4.652   2.720 -1.1345 -0.0770  0.7768
13668TIP3    H262420   4.661   4.610   2.813 -1.7011 -1.5913  0.7932
13669TIP3   OH262421   2.806   7.193   0.135  0.2330  0.0578 -0.3176
13669TIP3    H162422   2.776   7.254   0.203  0.9978 -0.0372  0.1234
13669TIP3    H262423   2.787   7.237   0.053 -0.0792  0.4750 -0.0285
13670TIP3   OH262424   6.409   2.012   3.576 -0.6638  0.2438 -0.5044
13670TIP3    H162425   6.350   2.086   3.558 -0.9212  0.1114 -0.2242
13670TIP3    H262426   6.487   2.052   3.615 -2.7374  0.1061  4.6435
13671TIP3   OH262427   0.306   5.749   2.133 -0.2999  0.0294 -0.2012
13671TIP3    H162428   0.303   5.836   2.172  2.2601  0.4802 -0.8084
13671TIP3    H262429   0.362   5.760   2.056  0.0689 -2.1485 -0.2945
13672TIP3   OH262430   5.039   1.010   3.391 -0.4112 -0.4381 -0.1506
13672TIP3    H162431   5.036   1.087   3.448 -0.9682 -0.8203  0.3475
13672TIP3    H262432   4.975   0.950   3.429  1.5497 -2.0734  0.7899
13673TIP3   OH262433   2.296   0.355   4.719  0.2196  0.0662  0.1841
13673TIP3    H162434   2.273   0.377   4.809 -1.1118  0.2286 -0.1727
13673TIP3    H262435   2.349   0.276   4.726  1.8078  1.1647  1.2331
13674TIP3   OH262436   3.662   5.552   3.791 -0.3396  0.6354  0.2470
13674TIP3    H162437   3.738   5.603   3.818  1.1976 -1.1769 -0.4672
13674TIP3    H262438   3.654   5.567   3.697 -0.5126  0.3941  0.2198
13675TIP3   OH262439   0.459   5.291   1.272  0.1910 -0.1964  0.1144
13675TIP3    H162440   0.457   5.276   1.366  0.0933  0.8399  0.2842
13675TIP3    H262441   0.403   5.367   1.258 -1.1081 -1.3055 -0.9838
13676TIP3   OH262442   6.374   6.236   3.798  0.0036 -0.4908 -0.5458
13676TIP3    H162443   6.365   6.142   3.808 -1.5888 -0.2179  1.3582
13676TIP3    H262444   6.407   6.266   3.883 -0.1684  0.7214 -0.8765
13677TIP3   OH262445   4.451   1.630   2.467  0.5008 -0.1900  0.0496
13677TIP3    H162446   4.368   1.677   2.460  1.1013  0.9626  0.4546
13677TIP3    H262447   4.516   1.690   2.430  1.3218 -0.6134  0.7749
13678TIP3   OH262448   3.870   4.631  11.454 -0.2619 -0.1322  0.7769
13678TIP3    H162449   3.934   4.697  11.481 -0.1478  0.2326 -0.3024
13678TIP3    H262450   3.912   4.547  11.472  0.6216  0.0986 -0.0920
13679TIP3   OH262451   4.473   4.516   3.032 -0.4392  0.1623  0.1276
13679TIP3    H162452   4.379   4.525   3.013 -0.5796  0.9687  1.1429
13679TIP3    H262453   4.517   4.554   2.957 -0.9253  0.0329 -0.2284
13680TIP3   OH262454   1.035   0.375  11.728 -0.6147  0.5142  0.2473
13680TIP3    H162455   1.101   0.444  11.719  0.1268  0.4178  3.4531
13680TIP3    H262456   1.010   0.379  11.821 -1.4475 -2.7195  0.2638
13681TIP3   OH262457   4.574   6.648  13.984 -0.5460  0.0967  0.2073
13681TIP3    H162458   4.629   6.629  14.060 -0.9402  3.1051  1.3839
13681TIP3    H262459   4.499   6.588  13.993 -0.8425  0.7294  2.5207
13682TIP3   OH262460   1.087   2.513   3.157  0.1123  0.3355  0.3661
13682TIP3    H162461   1.091   2.430   3.111 -1.1112  0.4005  0.1154
13682TIP3    H262462   1.072   2.578   3.088  0.9229  0.7638  0.5740
13683TIP3   OH262463   5.153   2.278  12.979  0.2859  0.1784  0.0882
13683TIP3    H162464   5.083   2.337  12.951 -0.8120 -0.2908  1.7299
13683TIP3    H262465   5.147   2.204  12.918  0.7862  1.1017 -1.1240
13684TIP3   OH262466   1.280   5.162   0.177  0.2759 -0.1258 -0.2958
13684TIP3    H162467   1.280   5.119   0.263  0.8704 -1.3269 -0.8827
13684TIP3    H262468   1.355   5.125   0.131  0.7367  1.4666 -0.8877
13685TIP3   OH262469   3.368   4.293   3.490  0.1519  0.8055  0.2289
13685TIP3    H162470   3.463   4.286   3.479  0.1215  1.6703 -0.7424
13685TIP3    H262471   3.338   4.202   3.494  1.0909  0.5158  1.3704
13686TIP3   OH262472   7.208   4.096   4.051  0.3529  0.1481 -0.4051
13686TIP3    H162473   7.241   4.008   4.072  2.1193  0.9858  0.5574
13686TIP3    H262474   7.231   4.149   4.127 -0.7810  1.4462 -0.9216
13687TIP3   OH262475   0.098   2.632   0.713 -0.6556  0.0461  0.1171
13687TIP3    H162476   0.091   2.542   0.682  0.2642  0.3140 -0.9473
13687TIP3    H262477   0.130   2.625   0.803 -0.5018 -0.6871  0.0062
13688TIP3   OH262478   5.015   4.312   0.197 -0.2489  0.4043 -0.1637
13688TIP3    H162479   4.969   4.353   0.270 -0.0278  0.3333  0.0148
13688TIP3    H262480   4.947   4.262   0.152 -0.8651  2.1021 -1.2445
13689TIP3   OH262481   6.977   6.854   0.314  0.2126 -0.8397 -0.1565
13689TIP3    H162482   6.972   6.937   0.266  0.5636 -0.1102  1.0358
13689TIP3    H262483   6.957   6.787   0.248  1.6013  0.0534 -1.5604
13690TIP3   OH262484   4.192   4.283   3.253 -0.8696 -0.2093  0.1757
13690TIP3    H162485   4.100   4.263   3.270 -1.8172  3.6779  0.6553
13690TIP3    H262486   4.210   4.245   3.167 -2.5938 -1.8204  0.4620
13691TIP3   OH262487   4.193   1.574  14.402 -0.1875 -0.1797  0.0631
13691TIP3    H162488   4.216   1.632  14.330 -0.0775  0.5590  0.6777
13691TIP3    H262489   4.262   1.508  14.403  0.5624  0.5876  0.3246
13692TIP3   OH262490   6.398   5.503   2.536 -0.4178 -0.0338  0.5935
13692TIP3    H162491   6.448   5.582   2.518 -0.8111 -0.3477 -2.3277
13692TIP3    H262492   6.313   5.517   2.495 -0.7141 -1.7244  0.5244
13693TIP3   OH262493   5.245   6.296   3.390  0.6532 -0.7336  0.2816
13693TIP3    H162494   5.237   6.230   3.459 -0.5176 -0.8075  0.0879
13693TIP3    H262495   5.336   6.325   3.395  0.6745 -0.9915  1.6210
13694TIP3   OH262496   1.955   4.521   2.691 -0.3314  0.0677  0.7950
13694TIP3    H162497   1.962   4.612   2.720 -0.7190  0.0727  0.8781
13694TIP3    H262498   1.898   4.480   2.756 -1.5608  0.1828 -0.1841
13695TIP3   OH262499   4.104   2.014   4.754 -0.0019  0.3568 -0.2361
13695TIP3    H162500   4.080   2.099   4.717  0.0318  0.5922  0.2623
13695TIP3    H262501   4.171   2.035   4.819 -0.2256 -0.0129  0.1219
13696TIP3   OH262502   1.487   2.499   2.333 -0.0635 -0.1928 -0.2251
13696TIP3    H162503   1.413   2.437   2.335 -0.4789  0.2867 -0.4725
13696TIP3    H262504   1.560   2.447   2.300 -0.5126 -0.4650 -0.8335
13697TIP3   OH262505   3.482   2.008   2.424  0.8735  0.4764 -0.2954
13697TIP3    H162506   3.397   1.973   2.397  0.8307  0.5616 -0.2707
13697TIP3    H262507   3.519   1.940   2.481  0.6692  0.5970 -0.0222
13698TIP3   OH262508   6.044   7.122   2.711  0.0598  0.2189  0.7020
13698TIP3    H162509   5.966   7.131   2.657  1.9475  0.4358 -2.2267
13698TIP3    H262510   6.052   7.028   2.727 -1.6335  0.3260  2.5034
13699TIP3   OH262511   2.077   2.725  12.943  0.1696 -0.3068 -0.4159
13699TIP3    H162512   1.989   2.708  12.908  0.0776  0.1300 -0.4036
13699TIP3    H262513   2.088   2.820  12.935  0.4149 -0.2873  0.1098
13700TIP3   OH262514   3.292   1.856   2.287 -0.4988  0.0310  0.3794
13700TIP3    H162515   3.338   1.773   2.275 -1.5734 -0.5819  0.4095
13700TIP3    H262516   3.253   1.874   2.202 -1.2220 -0.0856  0.6823
13701TIP3   OH262517   4.689   0.123   2.496  0.5492 -0.5637 -0.3841
13701TIP3    H162518   4.766   0.127   2.553 -0.2015  1.7432  0.5937
13701TIP3    H262519   4.718   0.164   2.415  0.7944 -1.1640 -0.6021
13702TIP3   OH262520   2.905   1.056   3.724  0.3835  0.1021  0.0047
13702TIP3    H162521   2.927   1.076   3.633 -1.3435  0.3800 -0.3800
13702TIP3    H262522   2.965   0.985   3.748  0.7766 -0.0704 -1.3906
13703TIP3   OH262523   6.046   3.955  11.174  0.0908  0.4707 -0.0787
13703TIP3    H162524   6.045   4.051  11.178  0.2985  0.5960 -2.2751
13703TIP3    H262525   6.125   3.933  11.124 -0.4451 -0.8097 -0.4133
13704TIP3   OH262526   5.143   1.950   9.860  0.0216 -0.4219  0.3603
13704TIP3    H162527   5.116   1.869   9.816  1.2451  0.5252 -2.3300
13704TIP3    H262528   5.064   2.004   9.861 -0.4920 -1.1601  1.0811
13705TIP3   OH262529   1.140   2.666   5.723  0.5079  0.2398 -0.2900
13705TIP3    H162530   1.204   2.600   5.747 -1.0378 -0.0503  3.9972
13705TIP3    H262531   1.187   2.749   5.729  1.2218 -0.1489 -0.4812
13706TIP3   OH262532   3.209   6.486   5.230  0.3610  0.4335  0.0248
13706TIP3    H162533   3.230   6.449   5.315 -0.4343  1.4565  0.7002
13706TIP3    H262534   3.131   6.438   5.201 -1.2639  2.0811  1.3425
13707TIP3   OH262535   6.904   3.100   2.305 -0.5537 -0.4483 -0.6431
13707TIP3    H162536   6.871   3.090   2.395  0.1343  0.3826 -0.2856
13707TIP3    H262537   6.964   3.175   2.310  0.0605 -0.8605 -1.6420
13708TIP3   OH262538   0.466   2.605   2.988  0.0309 -0.2684  0.1203
13708TIP3    H162539   0.426   2.676   2.938 -0.1509  0.1006  0.7769
13708TIP3    H262540   0.556   2.635   3.003  0.2844 -0.6682 -0.5244
13709TIP3   OH262541   3.997   6.187   1.881  0.5455 -0.3141  0.0521
13709TIP3    H162542   3.955   6.114   1.927 -0.4957  0.1730 -0.0895
13709TIP3    H262543   3.947   6.264   1.908  0.6836  0.1458 -0.9602
13710TIP3   OH262544   4.788   4.492   2.866  0.5918  0.1550 -0.1181
13710TIP3    H162545   4.805   4.414   2.814 -1.2009 -1.0320  0.9532
13710TIP3    H262546   4.826   4.472   2.952 -0.4985  0.1199  0.3776
13711TIP3   OH262547   0.001   2.477   2.067 -0.0600 -0.5765  0.9132
13711TIP3    H162548  -0.078   2.531   2.058  0.6806  0.4646  0.4609
13711TIP3    H262549  -0.028   2.389   2.047 -1.4711 -0.5067  2.4000
13712TIP3   OH262550   0.630   6.551  12.654  0.4301  0.0149  0.6679
13712TIP3    H162551   0.617   6.520  12.743 -1.1936 -2.2500 -0.2887
13712TIP3    H262552   0.606   6.477  12.598  1.6904  1.2476 -1.6700
13713TIP3   OH262553   5.851   1.074   1.072 -0.3177  0.1096 -0.9588
13713TIP3    H162554   5.784   1.015   1.107 -0.1283 -0.2601 -1.2202
13713TIP3    H262555   5.808   1.160   1.070 -0.1506  0.2614  0.7315
13714TIP3   OH262556   4.071   2.263   4.112  0.6049 -0.2296  0.2394
13714TIP3    H162557   4.137   2.248   4.044 -1.5475 -1.2681 -1.7786
13714TIP3    H262558   4.082   2.356   4.135  1.5628  0.1136 -1.3860
13715TIP3   OH262559   6.575   2.897  14.681  0.4266 -0.0903  0.5872
13715TIP3    H162560   6.538   2.833  14.743  0.1868  1.8589  2.6008
13715TIP3    H262561   6.510   2.967  14.677  1.3842  0.7812 -0.2697
13716TIP3   OH262562   2.662   6.137   2.664 -0.1543  0.1795  0.4353
13716TIP3    H162563   2.700   6.182   2.589 -2.0445 -0.3618 -0.9054
13716TIP3    H262564   2.591   6.195   2.693 -1.7704 -1.2351 -0.5054
13717TIP3   OH262565   0.186   5.192   1.673 -0.4116  0.0921  0.3185
13717TIP3    H162566   0.172   5.266   1.613  1.0415 -0.4770 -0.7686
13717TIP3    H262567   0.253   5.223   1.734  0.5509 -0.4629 -0.4331
13718TIP3   OH262568   4.404   0.758   5.053 -0.2717  0.5888  0.4173
13718TIP3    H162569   4.312   0.758   5.027  0.1660 -1.2075 -1.4140
13718TIP3    H262570   4.417   0.674   5.096  1.0262 -0.3429 -1.6431
13719TIP3   OH262571   0.300   2.827   4.846 -0.4171  0.1394 -0.0601
13719TIP3    H162572   0.247   2.810   4.924  0.1472 -1.3054  0.0299
13719TIP3    H262573   0.361   2.895   4.874 -0.6031  0.0588  0.5706
13720TIP3   OH262574   1.202   5.250  12.751  0.2706  0.1675 -0.0737
13720TIP3    H162575   1.208   5.226  12.843 -0.4000 -1.4935 -0.4231
13720TIP3    H262576   1.264   5.322  12.741  2.6925 -1.6096  1.0411
13721TIP3   OH262577   6.116   4.368   4.827  0.0612 -0.0345 -0.3981
13721TIP3    H162578   6.047   4.303   4.822  1.4695 -1.5586 -0.6961
13721TIP3    H262579   6.126   4.385   4.921 -0.4212 -0.1087 -0.3304
13722TIP3   OH262580   4.004   1.799   2.448 -0.6758  0.1952 -0.7200
13722TIP3    H162581   4.088   1.844   2.435 -1.1328  1.5759  0.7742
13722TIP3    H262582   3.957   1.854   2.510 -2.2919 -1.0982 -0.7372
13723TIP3   OH262583   2.833   5.113   0.175 -0.5499 -0.2551 -0.5686
13723TIP3    H162584   2.851   5.172   0.248  0.9824 -1.7478  0.3415
13723TIP3    H262585   2.839   5.025   0.213  1.5449 -1.1450 -2.6949
13724TIP3   OH262586   1.649   2.818   4.314  0.0140  0.0556 -0.0123
13724TIP3    H162587   1.595   2.882   4.267  0.6438  0.4598 -0.1895
13724TIP3    H262588   1.725   2.867   4.343  0.4022 -0.5688  0.0425
13725TIP3   OH262589   4.422   4.126   3.924 -0.1662  0.0541  0.5712
13725TIP3    H162590   4.433   4.162   3.836  0.6461 -0.9325  0.2387
13725TIP3    H262591   4.470   4.186   3.981  0.0038  0.2501  0.2239
13726TIP3   OH262592   2.790   4.203   2.645  0.4917 -0.6511  0.6022
13726TIP3    H162593   2.805   4.270   2.711 -0.6954 -1.1955  1.4763
13726TIP3    H262594   2.829   4.123   2.682 -1.0547 -1.1921  1.1591
13727TIP3   OH262595   6.378   0.255  15.153  0.0946  0.0658 -0.0949
13727TIP3    H162596   6.380   0.350  15.154 -0.2831  0.0944 -1.0265
13727TIP3    H262597   6.357   0.232  15.062  1.3616 -0.9270 -0.1598
13728TIP3   OH262598   6.898   1.432   0.741  0.2764  0.1085 -0.0719
13728TIP3    H162599   6.811   1.464   0.763 -0.0345 -0.7697  0.0174
13728TIP3    H262600   6.906   1.349   0.789  0.3958 -0.8008 -1.5898
13729TIP3   OH262601   3.872   1.518   0.733 -0.0511 -0.1775 -0.2795
13729TIP3    H162602   3.949   1.573   0.721  0.6134 -1.0771 -0.1939
13729TIP3    H262603   3.802   1.580   0.755  0.8777  0.5593  0.7173
13730TIP3   OH262604   4.350   3.132   2.973  0.4786 -0.0769 -0.4691
13730TIP3    H162605   4.324   3.182   3.050 -0.3972 -0.9239 -0.1957
13730TIP3    H262606   4.268   3.096   2.938  1.0166 -0.8878 -0.9561
13731TIP3   OH262607   4.275   4.850   3.111 -0.1738 -0.1041  0.8534
13731TIP3    H162608   4.319   4.857   3.027  0.8560  0.3260  1.4093
13731TIP3    H262609   4.311   4.770   3.150  0.0875  0.2237  1.2931
13732TIP3   OH262610   1.039   6.462   3.712 -0.0697  0.0223 -0.2727
13732TIP3    H162611   1.012   6.371   3.720  0.0345  0.0692  0.6994
13732TIP3    H262612   1.104   6.462   3.642 -1.5428 -0.3089 -1.6893
13733TIP3   OH262613   6.890   5.927   2.227 -0.5956 -0.3121  0.4197
13733TIP3    H162614   6.936   5.864   2.281 -0.3115 -0.3192  0.1755
13733TIP3    H262615   6.802   5.890   2.215  0.0116 -1.3906 -0.9308
13734TIP3   OH262616   3.831   7.141  14.745  0.0125 -0.2675 -0.5435
13734TIP3    H162617   3.839   7.072  14.812  0.6541  0.6253  0.3257
13734TIP3    H262618   3.824   7.093  14.662 -0.2296 -1.3920  0.1020
13735TIP3   OH262619   6.544   2.695   4.161 -0.3406  0.2673 -0.1497
13735TIP3    H162620   6.561   2.695   4.067 -0.9457  0.1751 -0.2635
13735TIP3    H262621   6.453   2.666   4.169  0.2482 -1.4854  0.5771
13736TIP3   OH262622   0.284   4.037   2.232  0.0867 -0.2900  0.0750
13736TIP3    H162623   0.322   3.957   2.195  0.0782 -1.0820  1.6984
13736TIP3    H262624   0.355   4.100   2.231  0.2314 -0.4526 -0.7786
13737TIP3   OH262625   4.658   0.739   5.274  0.2681 -0.1572  0.0462
13737TIP3    H162626   4.735   0.746   5.218 -0.2517  0.1608 -0.6374
13737TIP3    H262627   4.590   0.703   5.218  0.2583 -1.6782  0.9810
13738TIP3   OH262628   5.056   4.920   2.768  0.3439  0.2232 -0.5656
13738TIP3    H162629   5.029   4.885   2.852 -1.6566 -0.7556 -1.5716
13738TIP3    H262630   5.098   5.004   2.790  3.1063 -1.5541  1.6684
13739TIP3   OH262631   3.086   4.955  14.544  0.5876  0.0405  0.0747
13739TIP3    H162632   3.090   4.865  14.512  1.8025 -0.4037  1.3472
13739TIP3    H262633   3.113   5.008  14.470  1.0756 -0.7525 -0.3373
13740TIP3   OH262634   4.323   5.742  13.863 -0.4987  0.1187  0.4408
13740TIP3    H162635   4.376   5.743  13.784  0.9051 -1.6867  1.2865
13740TIP3    H262636   4.386   5.749  13.935 -1.5378 -0.5111  1.4525
13741TIP3   OH262637   6.317   2.714   5.581 -0.2353  0.5089 -0.1892
13741TIP3    H162638   6.405   2.748   5.594  0.1184 -0.5288  0.2543
13741TIP3    H262639   6.329   2.619   5.577 -1.0604  0.4442 -2.2932
13742TIP3   OH262640   0.642   4.711   2.896 -0.8765 -0.4579  0.0253
13742TIP3    H162641   0.704   4.783   2.906 -1.1120 -0.3346  0.6680
13742TIP3    H262642   0.671   4.664   2.818  0.0966 -0.4805  0.3906
13743TIP3   OH262643   2.536   3.110   3.988  0.1176 -0.1000  0.3224
13743TIP3    H162644   2.515   3.079   4.076  0.0395 -0.8591  0.0463
13743TIP3    H262645   2.587   3.039   3.949 -1.1078 -0.4474 -0.7471
13744TIP3   OH262646   6.380   2.471  14.010  0.5705 -0.3833  0.4009
13744TIP3    H162647   6.410   2.384  13.984 -0.2352 -0.7977  0.7958
13744TIP3    H262648   6.460   2.521  14.025  1.0518 -0.5189 -1.5408
13745TIP3   OH262649   6.625   5.156   4.509  0.1856 -0.2962 -0.1413
13745TIP3    H162650   6.652   5.247   4.508  0.9061 -0.5002 -0.1283
13745TIP3    H262651   6.603   5.136   4.418  0.6602 -0.2864 -0.2599
13746TIP3   OH262652   4.115   0.399   0.817  0.5269  0.5231 -0.6997
13746TIP3    H162653   4.024   0.367   0.822  0.1437  1.7563  0.6712
13746TIP3    H262654   4.167   0.323   0.842 -0.0506 -0.4214 -2.2085
13747TIP3   OH262655   6.898   6.761   4.895 -0.3413 -0.6050 -0.2822
13747TIP3    H162656   6.840   6.696   4.856  0.3460 -1.7573  0.5742
13747TIP3    H262657   6.959   6.784   4.825 -0.1194 -1.4525 -0.3730
13748TIP3   OH262658   2.592   6.006   4.638  0.5788 -0.1848 -0.2434
13748TIP3    H162659   2.639   6.088   4.650  1.2365 -0.1226 -2.6626
13748TIP3    H262660   2.658   5.946   4.603 -0.0985 -1.4992  0.6540
13749TIP3   OH262661   1.755   6.082  15.098 -0.1024  0.6465 -0.2610
13749TIP3    H162662   1.677   6.080  15.154 -1.2646  0.4044 -1.8033
13749TIP3    H262663   1.816   6.139  15.144 -1.3092  1.0972  0.8598
13750TIP3   OH262664   5.453   4.276   1.361  0.3685  0.4486  0.0061
13750TIP3    H162665   5.451   4.188   1.324  3.3560  0.9179 -1.6261
13750TIP3    H262666   5.505   4.267   1.441  0.4439  0.6838 -0.0158
13751TIP3   OH262667   3.836   7.207  14.448  0.1991  0.1106 -0.0950
13751TIP3    H162668   3.826   7.281  14.388 -1.5341  1.1037  1.3170
13751TIP3    H262669   3.930   7.204  14.466  0.4788  1.0807 -1.2736
13752TIP3   OH262670   4.770   1.984   1.974 -0.5842 -0.2453 -0.6828
13752TIP3    H162671   4.835   1.921   2.004 -1.3833 -0.5177  0.5684
13752TIP3    H262672   4.686   1.942   1.994 -1.1358  1.1145 -0.0201
13753TIP3   OH262673   2.479   2.610   4.903  0.7436  0.3978 -0.3498
13753TIP3    H162674   2.458   2.699   4.932  0.2483  0.3082 -0.4353
13753TIP3    H262675   2.575   2.609   4.899  0.8264  0.4776  1.0484
13754TIP3   OH262676   1.086   4.184   2.043 -0.1841 -0.5134  0.5885
13754TIP3    H162677   1.113   4.210   2.131 -1.2702 -1.5167  1.2474
13754TIP3    H262678   1.029   4.255   2.014 -1.4883 -1.1337  1.5493
13755TIP3   OH262679   1.085   2.127   2.437 -0.0410  0.5758  0.3302
13755TIP3    H162680   0.991   2.143   2.443  0.0763  0.6856  3.0513
13755TIP3    H262681   1.111   2.100   2.525  2.4746  0.4848 -0.3489
13756TIP3   OH262682   1.385   3.954   4.337  0.2658 -0.1360  0.4768
13756TIP3    H162683   1.450   3.968   4.406 -0.6479  0.6327  1.2206
13756TIP3    H262684   1.391   3.860   4.318  1.0703 -0.2173  1.0569
13757TIP3   OH262685   2.361   4.558   2.977 -0.0004 -0.2130 -0.1264
13757TIP3    H162686   2.267   4.571   2.965  0.3239  1.4088 -1.4169
13757TIP3    H262687   2.398   4.647   2.974  1.5602 -0.8014  0.4594
13758TIP3   OH262688   2.986   4.159   1.022 -0.2681 -0.7005 -0.8057
13758TIP3    H162689   2.891   4.153   1.032 -0.5053  2.7558  0.2079
13758TIP3    H262690   2.999   4.199   0.936  0.2948 -1.2759 -0.9955
13759TIP3   OH262691   4.566   2.040   4.714 -0.4092  0.1318  0.7742
13759TIP3    H162692   4.649   1.995   4.728 -0.6115 -0.0764  1.3218
13759TIP3    H262693   4.537   2.009   4.628  0.4424  0.7958  0.2260
13760TIP3   OH262694   5.618   4.318   1.033 -0.4464  0.6493 -0.7396
13760TIP3    H162695   5.572   4.245   1.075  0.2284  0.1300 -0.8943
13760TIP3    H262696   5.710   4.305   1.055 -0.0908  0.4738 -2.2180
13761TIP3   OH262697   3.899   4.858   1.732  0.4089  0.1650  0.0033
13761TIP3    H162698   3.974   4.914   1.710  1.5710  0.4081  3.8340
13761TIP3    H262699   3.938   4.777   1.763 -0.8785  0.1359  1.6840
13762TIP3   OH262700   4.942   2.458   5.606  0.1023  0.1902  0.2826
13762TIP3    H162701   4.859   2.481   5.647  0.4185  0.8084  0.5937
13762TIP3    H262702   4.991   2.413   5.675  0.3982  0.6928  0.4088
13763TIP3   OH262703   1.137   3.963   4.820  0.2203  0.3239 -0.6311
13763TIP3    H162704   1.122   3.896   4.887  0.6752  0.0680 -0.7735
13763TIP3    H262705   1.127   3.916   4.737  2.4976 -0.0961 -0.7561
13764TIP3   OH262706   6.046   7.132  14.972 -0.2490 -0.6418 -0.1281
13764TIP3    H162707   6.060   7.173  14.887 -1.2675 -1.0701 -0.5232
13764TIP3    H262708   5.958   7.160  14.998 -1.2989 -3.0722 -0.7368
13765TIP3   OH262709   4.990   2.678   1.448 -0.3676  0.1404  0.2108
13765TIP3    H162710   4.898   2.689   1.425 -0.5877 -0.8665  0.5677
13765TIP3    H262711   5.037   2.737   1.389 -1.0967 -0.7423 -1.3199
13766TIP3   OH262712   2.165   3.614  12.643  0.0077 -0.2817  0.0941
13766TIP3    H162713   2.171   3.519  12.649  1.4037 -0.2850 -0.8913
13766TIP3    H262714   2.101   3.630  12.574 -0.6369 -0.4793  0.6324
13767TIP3   OH262715   0.750   1.700   2.167  0.4943 -0.4333 -0.4623
13767TIP3    H162716   0.815   1.630   2.162 -0.3039 -1.4447  2.0716
13767TIP3    H262717   0.780   1.756   2.239 -0.3972  0.2241 -0.5806
13768TIP3   OH262718   1.129   5.575   4.805 -0.8104  0.4005  0.3360
13768TIP3    H162719   1.045   5.529   4.814 -1.2090  0.7482 -1.1617
13768TIP3    H262720   1.150   5.567   4.712  0.9250  0.1665  0.7262
13769TIP3   OH262721   4.831   0.320   4.756  0.1615  0.2422 -0.2403
13769TIP3    H162722   4.754   0.294   4.806  0.0929  0.8146 -0.0386
13769TIP3    H262723   4.893   0.351   4.823  0.8981 -0.9986 -0.3183
13770TIP3   OH262724   6.951   6.325   2.560  0.1324  0.4766 -0.2676
13770TIP3    H162725   7.034   6.370   2.576 -0.2981  1.3291 -0.4200
13770TIP3    H262726   6.890   6.363   2.624  0.2372 -1.2848  0.9582
13771TIP3   OH262727   2.141   6.351   3.030 -0.3219  0.0578 -0.0258
13771TIP3    H162728   2.109   6.289   2.964 -1.7891  1.2796 -0.5303
13771TIP3    H262729   2.094   6.432   3.011  0.4728  0.9237  1.5076
13772TIP3   OH262730   6.096   4.507   4.180 -0.3279 -0.1927 -0.6217
13772TIP3    H162731   6.060   4.493   4.093 -1.0014  0.9983 -0.5630
13772TIP3    H262732   6.175   4.559   4.166 -0.3900 -0.0730 -0.5380
13773TIP3   OH262733   0.237   6.355  15.141 -0.2277  0.3333 -0.0608
13773TIP3    H162734   0.188   6.428  15.103 -0.5678  0.4981  0.6661
13773TIP3    H262735   0.202   6.348  15.230  0.4602 -0.1169  0.1766
13774TIP3   OH262736   1.043   2.627   5.486 -0.6233 -0.1607 -0.3251
13774TIP3    H162737   1.012   2.537   5.474 -2.1601  0.1855  0.6479
13774TIP3    H262738   1.074   2.629   5.577 -1.2598  0.4455 -0.1092
13775TIP3   OH262739   2.334   1.992   1.557  0.0358 -0.2848  0.7539
13775TIP3    H162740   2.405   2.021   1.501 -0.8704  1.6071  0.5105
13775TIP3    H262741   2.348   1.898   1.566  1.2858 -0.3276 -1.0729
13776TIP3   OH262742   0.371   3.727   0.568  0.7958  0.3253  0.5575
13776TIP3    H162743   0.355   3.677   0.488  0.4487 -1.1485  1.5201
13776TIP3    H262744   0.448   3.781   0.547 -0.1461  1.0722 -1.2300
13777TIP3   OH262745   0.741   1.692   1.873  0.7882  0.2805  0.3387
13777TIP3    H162746   0.772   1.711   1.962  1.5702 -0.9878  0.3525
13777TIP3    H262747   0.710   1.602   1.877  1.6088 -0.0784 -0.8604
13778TIP3   OH262748   6.973   4.976   1.505 -0.5333  0.5728  0.1807
13778TIP3    H162749   6.887   4.935   1.503 -0.0065 -0.5739  0.2165
13778TIP3    H262750   6.958   5.066   1.477 -1.6181  0.1669 -0.5767
13779TIP3   OH262751   2.521   6.747   2.854  0.6055  0.1556  0.1614
13779TIP3    H162752   2.507   6.786   2.940 -1.0885  1.7215 -0.7553
13779TIP3    H262753   2.540   6.655   2.872 -0.0564  0.3670  2.1679
13780TIP3   OH262754   2.701   1.541   3.764  0.0380 -0.4123 -0.2946
13780TIP3    H162755   2.685   1.478   3.694  0.8852 -0.1714 -0.7147
13780TIP3    H262756   2.751   1.611   3.723 -1.1194  0.6836  0.1077
13781TIP3   OH262757   3.596   4.598   1.697  0.0479  0.4826 -0.3583
13781TIP3    H162758   3.595   4.607   1.602  0.3621  1.5741 -0.2715
13781TIP3    H262759   3.518   4.546   1.717  0.7312 -0.9554 -1.3035
13782TIP3   OH262760   3.450   2.342  12.589 -0.5003 -0.4839  0.4279
13782TIP3    H162761   3.373   2.287  12.605 -0.3738 -1.0452 -0.7930
13782TIP3    H262762   3.523   2.293  12.626 -0.5123 -0.6810  0.1846
13783TIP3   OH262763   2.829   5.116   1.270 -0.2530  0.3824 -0.3430
13783TIP3    H162764   2.853   5.150   1.183  2.6065  0.6887  0.4563
13783TIP3    H262765   2.883   5.037   1.280 -1.7971 -0.6038  0.5304
13784TIP3   OH262766   4.806   4.839   1.698  0.1855  0.5824 -0.2718
13784TIP3    H162767   4.853   4.914   1.661  0.5070 -0.0073 -1.1122
13784TIP3    H262768   4.783   4.786   1.621 -0.9630  0.3409  0.2193
13785TIP3   OH262769   4.417   1.843  13.422 -0.0541 -0.2703 -0.2605
13785TIP3    H162770   4.498   1.846  13.472  0.6922 -2.1645 -1.2440
13785TIP3    H262771   4.437   1.889  13.341 -0.7563  1.3648  0.4504
13786TIP3   OH262772   4.959   1.151   1.702 -0.3538 -0.3759  0.4292
13786TIP3    H162773   4.946   1.081   1.638  0.6669 -0.5748  0.4151
13786TIP3    H262774   4.886   1.142   1.763 -0.9399 -0.6412 -0.2902
13787TIP3   OH262775   2.760   1.833   1.026  0.2275  0.1177 -0.3903
13787TIP3    H162776   2.741   1.739   1.030  0.7236 -0.0137 -0.9036
13787TIP3    H262777   2.700   1.867   0.960 -0.0388  0.1833 -0.1134
13788TIP3   OH262778   0.403   7.019   2.899  1.1797 -0.2871  0.4202
13788TIP3    H162779   0.479   7.050   2.850  0.7443  0.3340  0.1265
13788TIP3    H262780   0.419   6.926   2.912  1.0566 -0.5724 -1.3352
13789TIP3   OH262781   0.306   5.707   3.092 -0.6668  0.1305  0.5179
13789TIP3    H162782   0.337   5.662   3.170  2.7206 -0.0471 -0.7462
13789TIP3    H262783   0.280   5.794   3.123 -2.7009 -1.0274  2.2684
13790TIP3   OH262784   3.143   1.894  12.381 -0.3016 -0.0814  0.0556
13790TIP3    H162785   3.128   1.811  12.336 -1.9562  0.3006 -0.1556
13790TIP3    H262786   3.106   1.961  12.323  0.6134  0.7752  0.4223
13791TIP3   OH262787   1.179   3.590   4.791 -0.4863 -0.5238 -0.5952
13791TIP3    H162788   1.203   3.511   4.743 -1.6347 -1.5587  0.4316
13791TIP3    H262789   1.178   3.562   4.883 -3.5064 -0.1111 -0.3728
13792TIP3   OH262790   0.128   6.327   3.981 -0.3643 -0.2391  0.0700
13792TIP3    H162791   0.218   6.328   3.949  0.4890  0.7663  2.2980
13792TIP3    H262792   0.099   6.236   3.969  1.2426 -0.7751  0.0932
13793TIP3   OH262793   6.907   4.219   1.525 -0.4293 -0.4472 -0.2147
13793TIP3    H162794   6.991   4.230   1.570 -0.1230 -1.3040 -0.5479
13793TIP3    H262795   6.843   4.211   1.596 -0.3589  1.0296  0.0408
13794TIP3   OH262796   5.143   4.284   2.511 -0.2681 -0.2634  0.0173
13794TIP3    H162797   5.178   4.280   2.422 -0.1537 -0.0040  0.0497
13794TIP3    H262798   5.219   4.304   2.566 -0.5648  0.9937  0.0089
13795TIP3   OH262799   0.426   6.357   1.196  0.7597 -0.5889 -0.1522
13795TIP3    H162800   0.341   6.365   1.155  0.3618 -0.8304  0.6058
13795TIP3    H262801   0.409   6.364   1.290  1.8094  1.3615 -0.0634
13796TIP3   OH262802   3.696   2.511   4.587 -0.5709  0.9845  0.1289
13796TIP3    H162803   3.685   2.418   4.608  0.1183  1.0100  0.6124
13796TIP3    H262804   3.607   2.541   4.565 -1.3168  0.8444  2.6146
13797TIP3   OH262805   2.803   2.134   6.198 -0.0449 -0.6201  0.2259
13797TIP3    H162806   2.794   2.067   6.131 -2.0803 -0.9192  0.7283
13797TIP3    H262807   2.786   2.217   6.153 -1.5801 -0.8345  0.3413
13798TIP3   OH262808   7.166   1.124  13.083  0.9232 -0.2332  0.4113
13798TIP3    H162809   7.092   1.071  13.056  2.0881 -1.4576 -0.5234
13798TIP3    H262810   7.178   1.186  13.010  0.6839  0.1324  0.6769
13799TIP3   OH262811   6.189   7.115   3.041 -0.4770 -0.9119  0.3306
13799TIP3    H162812   6.183   7.075   2.954 -0.9344 -1.5503  0.6454
13799TIP3    H262813   6.283   7.118   3.059 -0.4169 -4.1315  1.2759
13800TIP3   OH262814   5.469   2.829  10.045  0.2676 -0.1225  0.2794
13800TIP3    H162815   5.416   2.851  10.122  0.6264 -2.1888  1.1912
13800TIP3    H262816   5.462   2.733  10.038 -0.6220  0.0600 -2.9238
13801TIP3   OH262817   0.318   4.636   4.491 -0.2621 -0.1996 -0.4085
13801TIP3    H162818   0.295   4.638   4.584  0.5845 -0.7727 -0.1702
13801TIP3    H262819   0.389   4.572   4.486 -0.6278 -0.5379 -1.5291
13802TIP3   OH262820   1.684   3.213   3.122 -0.0458 -0.5136 -0.0982
13802TIP3    H162821   1.769   3.173   3.104  0.1090 -0.8860  1.3705
13802TIP3    H262822   1.621   3.151   3.083  0.3388  0.3405 -2.2292
13803TIP3   OH262823   1.632   5.628  14.978  0.2674  0.6455  0.5338
13803TIP3    H162824   1.691   5.703  14.966  0.6962 -0.0118 -2.3648
13803TIP3    H262825   1.687   5.551  14.962 -1.1245 -0.0122 -1.6132
13804TIP3   OH262826   0.309   2.443   1.411  0.0707 -0.3174 -0.0437
13804TIP3    H162827   0.240   2.498   1.448  1.3297  0.7375  0.8248
13804TIP3    H262828   0.352   2.500   1.347  1.4432 -0.2392  0.9213
13805TIP3   OH262829   0.679   3.437   2.665 -0.3002 -0.3866  0.0102
13805TIP3    H162830   0.772   3.434   2.646 -0.1486 -0.8462  0.7727
13805TIP3    H262831   0.651   3.346   2.662 -1.3442 -0.0764 -2.9888
13806TIP3   OH262832   2.529   3.458   2.544 -0.1416  0.0518  0.5948
13806TIP3    H162833   2.507   3.449   2.451  0.7768 -0.1325  0.3851
13806TIP3    H262834   2.618   3.423   2.551  0.6645  2.0832  1.1509
13807TIP3   OH262835   6.945   3.674   4.934 -0.0871  0.2161  0.2797
13807TIP3    H162836   6.867   3.730   4.936  0.4574  1.0271 -0.5651
13807TIP3    H262837   7.009   3.717   4.989  0.4259  0.5937 -0.5839
13808TIP3   OH262838   1.292   6.880   4.822 -0.1364  0.0923  0.3871
13808TIP3    H162839   1.311   6.918   4.907 -1.1900 -0.8897  1.0915
13808TIP3    H262840   1.344   6.800   4.819 -1.3447 -0.7432  0.8355
13809TIP3   OH262841   2.878   6.148   1.855  0.4475 -0.1861 -0.1048
13809TIP3    H162842   2.911   6.092   1.925  1.9747  0.9434  0.1179
13809TIP3    H262843   2.792   6.177   1.886  1.2664  0.6373  1.5315
13810TIP3   OH262844   0.148   6.439  10.400  0.5096  0.3108  0.9758
13810TIP3    H162845   0.223   6.425  10.341 -0.2099  1.7587 -0.3685
13810TIP3    H262846   0.096   6.507  10.356 -0.6792  0.5988  2.7440
13811TIP3   OH262847   1.165   6.082  14.954 -0.3494  0.6511  0.3457
13811TIP3    H162848   1.146   6.023  14.881  2.2538  1.4681 -1.1588
13811TIP3    H262849   1.093   6.144  14.955 -0.8412  0.1393 -1.0443
13812TIP3   OH262850   7.176   2.000   3.800 -0.0577  0.0474 -0.5707
13812TIP3    H162851   7.105   1.960   3.750 -0.2923  1.6337 -1.5784
13812TIP3    H262852   7.136   2.076   3.843  0.8189  0.4717 -0.4723
13813TIP3   OH262853   5.739   5.469   4.910  0.6228 -0.5401  0.0353
13813TIP3    H162854   5.813   5.529   4.914 -0.4880  0.8179  1.2805
13813TIP3    H262855   5.773   5.386   4.945  2.0570 -0.5566 -1.2910
13814TIP3   OH262856   7.013   4.848   5.196  0.3280 -0.3808  0.5105
13814TIP3    H162857   6.947   4.803   5.249 -0.8326  0.7631  0.0929
13814TIP3    H262858   7.033   4.787   5.126 -3.5198  0.7044 -1.8641
13815TIP3   OH262859   5.474   5.405   0.980  0.2709 -0.1544  0.4688
13815TIP3    H162860   5.472   5.309   0.985  0.7720 -0.2649 -0.9517
13815TIP3    H262861   5.555   5.425   0.933  0.3882  0.9946  1.1344
13816TIP3   OH262862   7.036   5.644   0.621  0.0055 -0.2394 -0.4411
13816TIP3    H162863   7.103   5.710   0.606 -0.1903 -0.4097 -2.3452
13816TIP3    H262864   7.009   5.657   0.712 -0.6187  2.8491 -0.9657
13817TIP3   OH262865   6.068   3.120  12.360  0.0292  0.0359  0.1776
13817TIP3    H162866   6.050   3.089  12.449 -1.1502 -1.4071 -0.5111
13817TIP3    H262867   6.070   3.040  12.307  0.3277  0.9017 -1.1507
13818TIP3   OH262868   3.153   0.011   4.261  0.1980  0.2120 -0.2805
13818TIP3    H162869   3.085   0.013   4.328 -0.5220  0.8151 -1.0108
13818TIP3    H262870   3.119  -0.046   4.193 -0.2864  1.6886 -1.3430
13819TIP3   OH262871   2.628   3.188   1.436  0.0623  0.1145  0.0105
13819TIP3    H162872   2.614   3.094   1.439  2.2720 -0.4038 -2.2303
13819TIP3    H262873   2.703   3.204   1.493 -0.9156  0.7147  1.1705
13820TIP3   OH262874   0.861   3.204   3.366  0.1328 -0.3618  0.3511
13820TIP3    H162875   0.823   3.135   3.421 -0.5724  0.0413  0.3834
13820TIP3    H262876   0.805   3.207   3.289 -0.1187  0.4762  0.5566
13821TIP3   OH262877   0.039   0.873  13.192 -0.0457  0.2764  0.4474
13821TIP3    H162878   0.088   0.828  13.123 -0.4086 -0.3971  0.6137
13821TIP3    H262879   0.004   0.951  13.149  1.3170  0.8649  0.3874
13822TIP3   OH262880   6.086   5.385   2.712 -0.5607  0.3774 -0.2415
13822TIP3    H162881   6.012   5.332   2.741 -0.0467 -0.2216 -0.0082
13822TIP3    H262882   6.087   5.459   2.773 -1.1195  0.5190 -0.4037
13823TIP3   OH262883   2.724   6.513   3.812  0.1869 -1.0842 -0.1592
13823TIP3    H162884   2.763   6.590   3.771 -1.8770 -0.3376 -0.8556
13823TIP3    H262885   2.799   6.462   3.844  1.7475 -0.2259 -2.2151
13824TIP3   OH262886   4.216   4.794   3.405 -0.1471 -0.2121 -0.0064
13824TIP3    H162887   4.188   4.715   3.451  1.4789 -0.0875  1.2953
13824TIP3    H262888   4.288   4.765   3.350 -0.7912  0.0250 -0.9950
13825TIP3   OH262889   5.592   3.435   4.745 -0.3208  0.7465 -0.4128
13825TIP3    H162890   5.677   3.406   4.777 -0.8207 -0.3797 -0.0577
13825TIP3    H262891   5.597   3.427   4.650 -0.7383 -1.4516 -0.2957
13826TIP3   OH262892   1.882   5.895   4.641  0.1638 -0.0388  0.6132
13826TIP3    H162893   1.941   5.850   4.580 -0.6699 -1.5417  0.8464
13826TIP3    H262894   1.935   5.964   4.679  1.1958 -0.1213 -0.5932
13827TIP3   OH262895   3.819   6.734   2.259 -0.6782  0.3532  0.0355
13827TIP3    H162896   3.731   6.708   2.232 -0.4421 -0.5298  0.0857
13827TIP3    H262897   3.847   6.665   2.319  0.5862 -0.1314 -1.0648
13828TIP3   OH262898   5.979   6.087   4.001 -0.3807 -0.6754  0.4890
13828TIP3    H162899   5.885   6.083   3.983 -0.0740 -0.2388 -1.4404
13828TIP3    H262900   6.010   5.997   3.991 -0.3065 -0.5251 -0.8286
13829TIP3   OH262901   1.749   2.863   4.727 -0.0586  0.1818  0.5863
13829TIP3    H162902   1.740   2.946   4.773 -0.2816  0.3550  0.2298
13829TIP3    H262903   1.706   2.799   4.784  3.4185 -0.4419  2.8533
13830TIP3   OH262904   3.272   2.141   2.212 -0.1137 -0.2590  0.3364
13830TIP3    H162905   3.230   2.130   2.126 -0.0736  2.5038 -0.1383
13830TIP3    H262906   3.320   2.060   2.226 -1.7988 -1.6221 -1.2859
13831TIP3   OH262907   3.579   3.979  14.583  0.2426 -0.1059  0.5122
13831TIP3    H162908   3.590   4.071  14.558 -0.9451  0.5387  2.2222
13831TIP3    H262909   3.667   3.944  14.581  0.8028  1.2270  0.4010
13832TIP3   OH262910   0.633   0.080   2.399  0.4438 -0.2678 -0.3040
13832TIP3    H162911   0.561   0.142   2.390 -0.0678 -0.8156 -0.1171
13832TIP3    H262912   0.710   0.134   2.414 -0.1174  0.2989  0.6382
13833TIP3   OH262913   6.326   5.870   0.557 -0.2211 -0.1440  0.8098
13833TIP3    H162914   6.258   5.802   0.554 -0.3921  0.0563 -0.6836
13833TIP3    H262915   6.295   5.937   0.496  1.2474  0.0310  0.2272
13834TIP3   OH262916   4.024   1.373   4.654 -0.1921 -0.1410 -0.2991
13834TIP3    H162917   3.992   1.443   4.596 -0.8797  0.3745  0.6876
13834TIP3    H262918   4.059   1.307   4.594  0.9812  1.2801 -1.2497
13835TIP3   OH262919   2.565   3.237  15.330  0.1983  0.6259  0.2260
13835TIP3    H162920   2.627   3.251  15.259  0.6562  2.8698  0.9902
13835TIP3    H262921   2.483   3.274  15.296 -1.1490 -3.1457 -1.1500
13836TIP3   OH262922   2.920   6.476  13.600 -0.4497 -0.2724  0.4420
13836TIP3    H162923   2.931   6.562  13.560  1.0156 -0.5365  0.2147
13836TIP3    H262924   2.944   6.489  13.691 -2.9593  0.1354  1.1387
13837TIP3   OH262925   1.654   5.115   4.989  0.1646 -0.3121 -0.0455
13837TIP3    H162926   1.659   5.050   4.919  0.1941 -0.3910  0.0301
13837TIP3    H262927   1.697   5.193   4.952 -2.5920  0.7439 -1.3182
13838TIP3   OH262928   1.388   6.717  14.578 -0.3429  0.8239  0.1975
13838TIP3    H162929   1.379   6.802  14.535  0.1886  0.6908 -0.1970
13838TIP3    H262930   1.430   6.737  14.661 -1.5342  1.1033  0.7475
13839TIP3   OH262931   5.135   0.875   4.510  0.0437 -0.6324  0.5432
13839TIP3    H162932   5.225   0.905   4.500 -0.2686  0.1216 -0.0820
13839TIP3    H262933   5.096   0.884   4.423 -0.6203 -1.0195  0.7868
13840TIP3   OH262934   6.774   2.357   3.805  0.5022 -0.0166  0.3120
13840TIP3    H162935   6.865   2.326   3.816  1.0933  1.7676  0.7562
13840TIP3    H262936   6.772   2.395   3.717  0.0687 -0.3713  0.1638
13841TIP3   OH262937   2.564   3.951   2.360 -0.2968 -0.6030  0.5717
13841TIP3    H162938   2.637   3.894   2.382  0.3423  0.3814  1.0429
13841TIP3    H262939   2.592   3.996   2.280  0.3994  1.1108  1.7381
13842TIP3   OH262940   2.139   1.507   2.611 -0.0548  0.6335  0.3608
13842TIP3    H162941   2.095   1.423   2.596 -0.0115  0.7714 -0.5760
13842TIP3    H262942   2.103   1.538   2.694  2.8477 -2.1962  2.9965
13843TIP3   OH262943   3.116   6.853  13.662 -0.3503 -0.9647  0.0310
13843TIP3    H162944   3.083   6.932  13.620 -1.3164 -0.6824  1.2269
13843TIP3    H262945   3.186   6.884  13.719  0.2239 -1.1866 -0.5476
13844TIP3   OH262946   4.565   1.300   4.325 -0.0815 -0.1317  0.0445
13844TIP3    H162947   4.577   1.394   4.311  1.4367 -0.2407  0.4494
13844TIP3    H262948   4.536   1.293   4.416 -1.7540  0.0121 -0.4320
13845TIP3   OH262949   5.828   4.916   4.267  0.0182 -0.7028 -0.4849
13845TIP3    H162950   5.792   4.867   4.193 -0.3545  0.4065 -1.0642
13845TIP3    H262951   5.897   4.860   4.301 -0.3370 -1.5907 -1.1707
13846TIP3   OH262952   0.161   5.938   4.802  0.7211 -0.3314 -0.6145
13846TIP3    H162953   0.197   5.971   4.884 -1.0339 -0.4871  0.2546
13846TIP3    H262954   0.143   6.017   4.750 -0.2077 -0.0970  0.0479
13847TIP3   OH262955   1.287   3.344   5.576 -0.2626  0.0479  0.0556
13847TIP3    H162956   1.331   3.336   5.660 -0.5707  0.9755  0.3198
13847TIP3    H262957   1.359   3.347   5.512 -0.0278 -0.6258  0.2771
13848TIP3   OH262958   2.482   5.331   3.899 -0.1691  0.3059 -0.7907
13848TIP3    H162959   2.452   5.393   3.833 -2.8673 -0.1772 -0.1452
13848TIP3    H262960   2.408   5.322   3.959  1.3300 -1.0569  0.9886
13849TIP3   OH262961   5.920   0.410  11.873 -0.6493  0.2642 -0.1263
13849TIP3    H162962   5.851   0.462  11.914 -0.1997 -0.7437  2.0220
13849TIP3    H262963   5.925   0.330  11.926  0.0887 -1.0730 -2.0878
13850TIP3   OH262964   4.636   5.426   3.228 -0.5889 -0.2163 -0.0315
13850TIP3    H162965   4.638   5.340   3.269 -0.4094 -0.1257  0.1546
13850TIP3    H262966   4.557   5.468   3.263 -0.3653 -0.0906  0.3245
13851TIP3   OH262967   3.690   4.187  10.376  0.0955 -0.1415  0.0430
13851TIP3    H162968   3.618   4.246  10.353  0.5968  0.8687  0.9709
13851TIP3    H262969   3.733   4.167  10.293 -1.4643 -1.0837 -0.5777
13852TIP3   OH262970   5.412   5.927  11.773 -0.2116  0.1829 -0.0295
13852TIP3    H162971   5.500   5.928  11.810 -0.1998 -0.7322 -0.0165
13852TIP3    H262972   5.396   6.018  11.748  1.4822  0.0595 -1.7796
13853TIP3   OH262973   2.713   1.242   4.149  0.0413  0.0171 -0.3111
13853TIP3    H162974   2.761   1.234   4.067 -0.7804 -0.4770 -0.7513
13853TIP3    H262975   2.701   1.336   4.161 -0.0157  0.0777 -0.8574
13854TIP3   OH262976   7.138   2.068   0.408 -0.4742 -0.5342 -0.3716
13854TIP3    H162977   7.155   2.068   0.314 -1.8512  0.4641 -0.6550
13854TIP3    H262978   7.201   2.131   0.444 -0.8348  0.0806 -0.8139
13855TIP3   OH262979   1.326   1.455   4.733  0.2933 -0.0062 -0.2471
13855TIP3    H162980   1.310   1.538   4.778 -0.1120  0.3975 -1.1098
13855TIP3    H262981   1.360   1.480   4.648 -2.5566 -0.5629 -1.6745
13856TIP3   OH262982   3.164   2.392   0.478 -0.2504 -0.1609  1.0500
13856TIP3    H162983   3.153   2.306   0.437  0.7612  0.9859 -1.8730
13856TIP3    H262984   3.105   2.450   0.431  0.6913  1.1816  1.4500
13857TIP3   OH262985   1.977   5.479   2.654  0.0588  0.2364  0.2378
13857TIP3    H162986   1.912   5.529   2.603  1.3618  0.7002 -1.0392
13857TIP3    H262987   1.941   5.477   2.743 -0.3786  2.9218  0.2079
13858TIP3   OH262988   4.069   5.615  14.246 -0.5985  0.1669 -0.3541
13858TIP3    H162989   3.994   5.656  14.203 -0.0467 -0.5767 -2.1239
13858TIP3    H262990   4.030   5.561  14.314 -1.5806  0.6794 -0.4778
13859TIP3   OH262991   1.904   0.862   1.544 -0.2484  0.5162  0.2095
13859TIP3    H162992   1.980   0.921   1.540 -0.9868  1.5228  0.4798
13859TIP3    H262993   1.840   0.909   1.598 -0.8301 -0.5940  0.5267
13860TIP3   OH262994   3.707   6.295   4.499 -0.3126  0.0549  0.0412
13860TIP3    H162995   3.682   6.226   4.560 -1.2390  0.3488  0.0041
13860TIP3    H262996   3.774   6.345   4.546 -0.8336  0.1233  0.7346
13861TIP3   OH262997   0.485   0.868   2.630 -0.5263 -0.2599  0.3315
13861TIP3    H162998   0.444   0.955   2.633 -0.4253 -0.2102  0.2915
13861TIP3    H262999   0.453   0.829   2.549 -0.5459 -0.2468  0.3329
13862TIP3   OH263000   5.791   4.792   2.938  0.5383 -0.5442 -0.1880
13862TIP3    H163001   5.724   4.740   2.982  0.8990 -0.9043 -0.0572
13862TIP3    H263002   5.837   4.838   3.009 -0.0014  0.2401 -0.3248
13863TIP3   OH263003   1.867   6.364   4.935  0.1245  0.4731 -0.0966
13863TIP3    H163004   1.794   6.325   4.983  1.3748  0.6326  2.0796
13863TIP3    H263005   1.829   6.438   4.888 -1.0279  0.9031  1.4426
13864TIP3   OH263006   5.508   4.358   3.458  0.4178 -0.0457 -0.0796
13864TIP3    H163007   5.456   4.347   3.538 -0.0971  1.3283 -0.1940
13864TIP3    H263008   5.548   4.272   3.444 -1.3358 -1.0059  0.3632
13865TIP3   OH263009   1.308   4.795   1.593  0.3994 -0.2658 -0.7071
13865TIP3    H163010   1.341   4.767   1.508 -1.4944 -0.3858 -1.4362
13865TIP3    H263011   1.217   4.817   1.578  0.8057  2.7699  0.6371
13866TIP3   OH263012   0.337   2.176   4.964 -0.1106  0.9701 -0.3304
13866TIP3    H163013   0.269   2.141   4.906  0.3883  1.0314 -0.9647
13866TIP3    H263014   0.376   2.099   5.005 -1.0587  0.9767  0.6149
13867TIP3   OH263015   1.722   3.796   2.557 -0.0485 -0.0273 -0.4502
13867TIP3    H163016   1.707   3.849   2.635  1.9301  0.5121 -0.3867
13867TIP3    H263017   1.712   3.706   2.587 -0.9815  0.2112  0.0034
13868TIP3   OH263018   1.914   5.700  15.248  0.1792  0.2725  0.1362
13868TIP3    H163019   1.922   5.644  15.325  0.4431 -0.7329 -0.6097
13868TIP3    H263020   1.993   5.755  15.251  0.0821  0.3976  0.6842
13869TIP3   OH263021   5.683   6.290   3.753  0.9228  0.1355  0.9401
13869TIP3    H163022   5.605   6.239   3.775  0.3649  0.6907  0.2917
13869TIP3    H263023   5.740   6.228   3.707  0.9896 -0.3475  1.6684
13870TIP3   OH263024   2.723   7.000   3.958  0.1583  0.1112  0.1487
13870TIP3    H163025   2.711   6.911   3.926 -1.0173  0.6983 -1.1624
13870TIP3    H263026   2.648   7.015   4.016  0.4900  0.1750  0.5697
13871TIP3   OH263027   0.759   4.796   2.397  0.0999 -0.2452  0.3344
13871TIP3    H163028   0.749   4.891   2.391  2.0715  0.0066  0.3994
13871TIP3    H263029   0.838   4.777   2.346 -1.2671 -2.1150 -1.2438
13872TIP3   OH263030   1.123   6.948   1.818  0.0791 -0.0985  0.1987
13872TIP3    H163031   1.160   7.035   1.803 -1.2109  0.3407 -0.5478
13872TIP3    H263032   1.186   6.906   1.877  1.4580  0.8136 -0.5556
13873TIP3   OH263033   6.215   4.819   1.584 -0.5977 -0.6632 -0.3800
13873TIP3    H163034   6.264   4.742   1.555 -0.0060  0.2446 -1.9086
13873TIP3    H263035   6.280   4.877   1.623 -0.9026 -0.5948  0.0382
13874TIP3   OH263036   0.907   4.502   1.877 -0.4127 -0.1187 -0.3816
13874TIP3    H163037   0.985   4.495   1.932  0.0643 -1.0999 -1.1461
13874TIP3    H263038   0.837   4.526   1.937  0.0428 -1.3700  0.6894
13875TIP3   OH263039   2.804   3.899   2.869  0.2046  0.2974 -0.4321
13875TIP3    H163040   2.873   3.842   2.903  0.8430  0.1566 -1.9255
13875TIP3    H263041   2.837   3.929   2.784 -1.3047  0.7262 -0.8893
13876TIP3   OH263042   5.501   2.162   4.331 -0.3872  0.6284  0.1908
13876TIP3    H163043   5.504   2.244   4.281  1.5199 -0.9279 -2.4835
13876TIP3    H263044   5.407   2.145   4.342 -0.8661  1.9581 -1.3807
13877TIP3   OH263045   2.000   5.604   4.127  0.3098 -0.2417 -0.7584
13877TIP3    H163046   1.929   5.668   4.119 -0.7105 -1.1704  0.5290
13877TIP3    H263047   1.961   5.529   4.172  1.3948 -1.9387 -2.5003
13878TIP3   OH263048   3.079   4.940   0.531  0.2136 -0.0256 -0.8176
13878TIP3    H163049   3.076   5.025   0.575 -0.2459 -0.9811  1.1075
13878TIP3    H263050   3.172   4.923   0.519  0.3211  0.5647 -0.8791
13879TIP3   OH263051   2.241   3.947   1.248 -0.3681 -0.0901 -0.3282
13879TIP3    H163052   2.316   3.931   1.306  0.1049 -0.6004 -1.0513
13879TIP3    H263053   2.277   4.001   1.177 -0.7825  0.0074 -0.4672
13880TIP3   OH263054   5.206   7.027   4.605 -0.0454  0.2081  0.1021
13880TIP3    H163055   5.254   7.064   4.532 -1.0455 -0.5065 -0.9463
13880TIP3    H263056   5.273   7.011   4.672  1.1165 -0.3434 -1.1389
13881TIP3   OH263057   1.157   4.508   5.696 -0.0466  0.0554 -0.1553
13881TIP3    H163058   1.064   4.485   5.697 -0.1015  0.1987 -0.9104
13881TIP3    H263059   1.190   4.467   5.616  0.4174  0.4528 -0.1700
13882TIP3   OH263060   5.168   3.936   3.132 -0.4868 -0.2900 -0.6893
13882TIP3    H163061   5.181   3.999   3.061  0.1612 -0.2274 -0.5197
13882TIP3    H263062   5.215   3.858   3.104  0.7480  0.1180  0.1716
13883TIP3   OH263063   1.395   1.762   1.678  0.3126  0.0900  0.0023
13883TIP3    H163064   1.466   1.819   1.647 -0.3100  1.7040  1.3751
13883TIP3    H263065   1.431   1.674   1.672  1.3210  0.5661 -2.2355
13884TIP3   OH263066   1.893   0.673  13.581 -0.1782 -0.2823 -0.1364
13884TIP3    H163067   1.916   0.730  13.655  0.2884 -0.4723 -0.1326
13884TIP3    H263068   1.911   0.584  13.613 -0.5472 -0.4056 -0.2716
13885TIP3   OH263069   2.635   6.431  14.882  0.1752  0.2783  0.6578
13885TIP3    H163070   2.617   6.377  14.959  1.4819 -1.8582 -0.4500
13885TIP3    H263071   2.681   6.507  14.916 -0.6417  0.1393  2.1463
13886TIP3   OH263072   5.863   3.440  11.333 -0.4806  0.0522  0.0428
13886TIP3    H163073   5.908   3.400  11.407 -1.4583  2.6924  2.2308
13886TIP3    H263074   5.915   3.517  11.311 -2.2846  1.5665  0.7491
13887TIP3   OH263075   3.030   7.050   2.996  0.4878 -0.2189 -0.1855
13887TIP3    H163076   3.097   7.105   2.956  1.0687 -1.8535 -1.5398
13887TIP3    H263077   2.955   7.056   2.936  0.3902 -0.5392 -0.0976
13888TIP3   OH263078   0.854   6.404   4.286 -0.7633  0.1575  0.1143
13888TIP3    H163079   0.844   6.370   4.197  3.5261  0.9487 -0.9040
13888TIP3    H263080   0.853   6.499   4.276 -0.0932  0.2570  0.8952
13889TIP3   OH263081   6.913   2.304   1.510 -0.2689 -1.0652 -0.2439
13889TIP3    H163082   6.974   2.251   1.458  0.7548 -0.2011  0.0369
13889TIP3    H263083   6.846   2.242   1.539  0.2858 -1.9733 -0.8506
13890TIP3   OH263084   0.645   3.046   4.177  0.1353 -0.2377 -0.0392
13890TIP3    H163085   0.627   3.121   4.235  1.7840 -0.0551  0.2792
13890TIP3    H263086   0.668   2.975   4.237  0.7756 -0.3592 -0.4218
13891TIP3   OH263087   4.952   0.416  14.278 -0.0370  0.1803 -0.1623
13891TIP3    H163088   4.888   0.394  14.345  0.6753 -1.4306  0.0461
13891TIP3    H263089   4.915   0.382  14.197  0.1228  0.0834 -0.1963
13892TIP3   OH263090   4.807   4.028   4.256  0.0103 -0.1932 -0.4282
13892TIP3    H163091   4.757   3.948   4.272  0.0864 -0.0487  0.5942
13892TIP3    H263092   4.886   3.998   4.211  0.2891 -0.7754  0.4188
13893TIP3   OH263093   6.417   4.812  14.117 -0.3324  0.3785 -0.2443
13893TIP3    H163094   6.407   4.726  14.078  1.0644  0.3338 -0.5512
13893TIP3    H263095   6.467   4.796  14.198  1.7745  1.0765 -1.3227
13894TIP3   OH263096   6.649   5.335  14.456 -0.1370  0.2153  0.3561
13894TIP3    H163097   6.742   5.312  14.463 -0.4473 -1.0596  0.4610
13894TIP3    H263098   6.637   5.356  14.364 -0.0971 -1.3118 -0.0258
13895TIP3   OH263099   6.022   4.760   4.375 -0.6579  0.0526  0.2904
13895TIP3    H163100   6.038   4.720   4.460  1.3928 -1.1485 -0.5660
13895TIP3    H263101   6.040   4.690   4.312 -1.2546  1.1501 -1.1630
13896TIP3   OH263102   2.989   4.041   1.328 -0.6313 -0.0938 -0.2871
13896TIP3    H163103   3.029   4.117   1.372 -1.8358  0.7053 -0.5395
13896TIP3    H263104   3.054   4.016   1.262 -0.8089  1.6762 -1.2193
13897TIP3   OH263105   1.068   6.403  11.634  0.3411 -0.0700 -0.1806
13897TIP3    H163106   1.085   6.482  11.582  0.2790 -1.0471 -1.7466
13897TIP3    H263107   1.142   6.345  11.614  0.3660 -0.4352  0.9206
13898TIP3   OH263108   6.781   5.557   5.220 -0.5087 -0.3683 -0.8283
13898TIP3    H163109   6.872   5.539   5.199 -0.8469 -2.8521 -0.4426
13898TIP3    H263110   6.782   5.584   5.312 -0.1824 -0.4852 -0.7978
13899TIP3   OH263111   3.205   5.825  12.754 -0.2111  0.0919 -0.0590
13899TIP3    H163112   3.198   5.790  12.843 -1.0666  2.8167  1.0410
13899TIP3    H263113   3.130   5.787  12.707 -0.1674 -0.7986  0.5580
13900TIP3   OH263114   3.640   2.788   3.093  0.0873 -0.1135  0.0044
13900TIP3    H163115   3.571   2.852   3.110  1.1479  1.2222 -0.5503
13900TIP3    H263116   3.662   2.753   3.179 -1.2715 -0.5887  0.1933
13901TIP3   OH263117   7.000   2.482   0.065  0.1983 -0.2293  0.1769
13901TIP3    H163118   6.941   2.409   0.085 -1.4459  0.6247 -1.3581
13901TIP3    H263119   6.964   2.556   0.113 -0.0029  0.3103 -0.7938
13902TIP3   OH263120   6.256   4.991   0.058 -0.1635  0.0195 -0.2089
13902TIP3    H163121   6.282   4.942   0.136 -1.5117  0.2007  0.3719
13902TIP3    H263122   6.168   4.960   0.038 -0.3624  0.9589 -0.8523
13903TIP3   OH263123   2.273   6.416  14.815  0.5710  0.0701 -0.6673
13903TIP3    H163124   2.332   6.401  14.741  0.2416 -1.4343 -0.6430
13903TIP3    H263125   2.196   6.457  14.776  1.0537  0.8019 -0.8930
13904TIP3   OH263126   3.250   0.443   3.943 -0.6675  0.1579  0.0587
13904TIP3    H163127   3.279   0.525   3.903 -0.2303  0.0194  0.0931
13904TIP3    H263128   3.174   0.417   3.891 -0.0219 -0.0958 -0.7700
13905TIP3   OH263129   5.932   5.674   4.863 -0.1574 -0.1969  0.6129
13905TIP3    H163130   6.006   5.683   4.803 -0.3720 -0.6067  0.2796
13905TIP3    H263131   5.938   5.751   4.920  0.6820 -0.3685  0.7689
13906TIP3   OH263132   3.546   3.208   5.562 -0.4842  0.0886 -0.1926
13906TIP3    H163133   3.570   3.116   5.574  0.0762  0.3151  0.4405
13906TIP3    H263134   3.457   3.214   5.598  0.0332  0.1022  1.1448
13907TIP3   OH263135   1.120   5.492   5.210  0.5816  0.1586 -0.1585
13907TIP3    H163136   1.053   5.553   5.179  0.7788  0.6615  0.3876
13907TIP3    H263137   1.121   5.503   5.305  0.9630 -0.3384 -0.0989
13908TIP3   OH263138   3.839   1.267   2.974  0.4049 -0.3127  0.2991
13908TIP3    H163139   3.828   1.362   2.976  0.7867 -0.2522 -0.2282
13908TIP3    H263140   3.765   1.233   3.024  1.8728  0.3888  3.1713
13909TIP3   OH263141   2.842   6.663  14.678 -0.3397 -0.3122 -0.5399
13909TIP3    H163142   2.806   6.668  14.767  1.4361 -1.7756  0.3475
13909TIP3    H263143   2.774   6.619  14.627 -0.8200 -0.7460  0.4484
13910TIP3   OH263144   4.961   2.675  13.150  0.1348  0.2710 -0.3663
13910TIP3    H163145   4.911   2.756  13.163  0.3354  0.5797 -1.4463
13910TIP3    H263146   5.022   2.696  13.080  1.9016 -0.0701  1.0076
13911TIP3   OH263147   4.754   4.416   1.193 -0.3491 -0.1911  0.6125
13911TIP3    H163148   4.838   4.423   1.147  0.3693 -1.5214  1.6093
13911TIP3    H263149   4.776   4.433   1.285 -1.4466  0.8439  0.6999
13912TIP3   OH263150   0.783   5.509   2.565  0.1918 -0.1941  0.9041
13912TIP3    H163151   0.710   5.469   2.517  1.5999 -1.6127 -0.1692
13912TIP3    H263152   0.814   5.440   2.623  1.1407  0.1163  0.7895
13913TIP3   OH263153   2.537   6.549   0.854  0.0799 -0.1364 -0.3750
13913TIP3    H163154   2.465   6.548   0.792  0.1034  0.0650 -0.4047
13913TIP3    H263155   2.592   6.475   0.828 -0.5704 -0.8408  0.1827
13914TIP3   OH263156   6.797   1.493   1.346 -0.0598  0.0044 -0.1519
13914TIP3    H163157   6.753   1.512   1.264 -0.5899  1.3424  0.4198
13914TIP3    H263158   6.740   1.529   1.414  1.6984  1.4716  0.6355
13915TIP3   OH263159   5.108   6.257   2.296  0.7961  0.1561  0.1740
13915TIP3    H163160   5.178   6.313   2.330  1.8173  0.0465 -1.6050
13915TIP3    H263161   5.117   6.176   2.346  1.8757  0.2047  0.0932
13916TIP3   OH263162   2.827   5.873   4.541 -0.0317  0.2235 -0.1063
13916TIP3    H163163   2.890   5.930   4.496  0.3581  0.4498  0.7018
13916TIP3    H263164   2.849   5.785   4.512 -0.4019  0.4362 -1.0880
13917TIP3   OH263165   3.742   3.358   5.416 -0.5610  0.3981  0.7084
13917TIP3    H163166   3.664   3.312   5.448 -0.5562 -0.2543 -0.1796
13917TIP3    H263167   3.812   3.293   5.422 -0.5654  0.2454 -0.6227
13918TIP3   OH263168   4.345   6.490   3.298  0.2621 -0.0462 -0.3943
13918TIP3    H163169   4.306   6.527   3.377 -2.1836 -1.0721 -1.0444
13918TIP3    H263170   4.371   6.566   3.246 -0.2733  0.6638  0.3523
13919TIP3   OH263171   0.086   0.401  13.267 -0.1847  0.6864 -0.1686
13919TIP3    H163172   0.027   0.458  13.317 -0.1316 -0.1500  0.8922
13919TIP3    H263173   0.027   0.351  13.210 -0.2194  1.8683 -1.2183
13920TIP3   OH263174   4.772   5.552  14.525  0.1307 -0.3175  0.2084
13920TIP3    H163175   4.760   5.458  14.517 -2.0233  0.0493 -1.6636
13920TIP3    H263176   4.824   5.577  14.448  0.0064  0.1226  0.2615
13921TIP3   OH263177   0.639   0.695   3.454 -0.2399  0.6489 -0.5774
13921TIP3    H163178   0.734   0.688   3.456 -0.2427  0.5080 -0.9706
13921TIP3    H263179   0.620   0.750   3.378 -0.4402  1.2860 -0.0850
13922TIP3   OH263180   6.608   1.317  14.343 -0.6541 -0.5045  0.1168
13922TIP3    H163181   6.688   1.341  14.295 -0.2105  0.5905  1.3395
13922TIP3    H263182   6.538   1.361  14.295 -0.3685 -0.3820 -0.2027
13923TIP3   OH263183   1.230   5.167  14.590  0.2677  0.1293 -0.3236
13923TIP3    H163184   1.168   5.182  14.518  1.2513  0.9037 -1.0452
13923TIP3    H263185   1.186   5.202  14.667 -0.4130  0.1946 -0.7333
13924TIP3   OH263186   4.107   2.558   4.137  0.1869 -0.0899 -0.2731
13924TIP3    H163187   4.051   2.635   4.127  0.3720  0.0743 -0.0511
13924TIP3    H263188   4.117   2.547   4.232  1.2373  0.3983 -0.3122
13925TIP3   OH263189   0.168   4.769   5.059  0.3741  0.0429 -0.1368
13925TIP3    H163190   0.086   4.785   5.106  0.3423 -2.6699  0.9327
13925TIP3    H263191   0.216   4.852   5.064  0.3212  0.0758  4.6170
13926TIP3   OH263192   0.963   6.079   4.119 -0.3584 -0.5296  0.1925
13926TIP3    H163193   0.955   6.161   4.166 -0.0071  0.6556 -1.7155
13926TIP3    H263194   1.025   6.027   4.171  0.1935  0.7961  0.8977
13927TIP3   OH263195   5.677   5.313   3.170 -0.6213  0.2320 -0.3188
13927TIP3    H163196   5.703   5.231   3.213 -0.4069  0.1024 -0.6815
13927TIP3    H263197   5.590   5.295   3.134 -0.2719 -0.0966 -1.0369
13928TIP3   OH263198   0.504   4.031  11.316  0.3149  0.0200 -0.1264
13928TIP3    H163199   0.463   4.116  11.332  0.9337  0.1643  0.7253
13928TIP3    H263200   0.501   4.021  11.221 -0.2536  0.7406 -0.1981
13929TIP3   OH263201   0.260   2.673   5.534  0.2910 -0.5558  0.3098
13929TIP3    H163202   0.311   2.751   5.557  0.2073 -0.1850 -0.7545
13929TIP3    H263203   0.274   2.614   5.609 -0.1847  0.7190  1.4447
13930TIP3   OH263204   5.116   6.164   2.659  0.7570  0.3845 -0.1007
13930TIP3    H163205   5.197   6.208   2.684  1.7758 -0.9278 -0.9797
13930TIP3    H263206   5.051   6.234   2.655  1.5656  1.3107  1.7076
13931TIP3   OH263207   0.535   0.175  14.215 -0.1259  0.1814 -0.0291
13931TIP3    H163208   0.612   0.158  14.269 -1.1347  0.0180  1.4160
13931TIP3    H263209   0.465   0.126  14.258 -1.1469  0.7168 -1.0389
13932TIP3   OH263210   7.063   3.915   5.373  0.3779 -0.0238  0.1706
13932TIP3    H163211   7.036   3.903   5.464 -1.1206 -0.3367 -0.2934
13932TIP3    H263212   7.136   3.977   5.378 -0.8517  1.4047  1.4460
13933TIP3   OH263213   2.598   6.045   2.415  0.1514  0.2085  0.6917
13933TIP3    H163214   2.686   6.082   2.415  0.0305  0.5119  1.1468
13933TIP3    H263215   2.604   5.968   2.471  0.2738 -0.1421  0.1994
13934TIP3   OH263216   2.847   3.613  13.485  0.0875  0.2281  0.2882
13934TIP3    H163217   2.803   3.537  13.448  1.1538 -0.3406  0.1425
13934TIP3    H263218   2.778   3.678  13.496 -0.7174 -0.5191 -0.2275
13935TIP3   OH263219   4.673   1.954   0.215 -0.3532  0.3995  0.4131
13935TIP3    H163220   4.615   1.879   0.205  0.5240 -0.6679  2.6912
13935TIP3    H263221   4.656   1.986   0.304  0.9966  1.4280  0.3331
13936TIP3   OH263222   6.697   6.566   0.806 -0.7003 -0.7097  0.6757
13936TIP3    H163223   6.713   6.477   0.836 -1.0430 -0.4131  1.7781
13936TIP3    H263224   6.682   6.616   0.886 -0.2290  0.3994  0.0915
13937TIP3   OH263225   2.046   4.937  15.265 -0.6640  0.0431  0.2591
13937TIP3    H163226   1.992   4.900  15.194 -1.3558 -0.2248  0.9123
13937TIP3    H263227   2.114   4.986  15.219 -0.0288 -1.5760 -0.6396
13938TIP3   OH263228   5.625   4.361   2.600  0.0640 -0.1060 -0.4217
13938TIP3    H163229   5.715   4.337   2.577  0.0483  1.4562 -2.4016
13938TIP3    H263230   5.633   4.405   2.684  1.7794  3.0883 -2.0730
13939TIP3   OH263231   3.241   0.748  14.080  0.0007 -0.1217 -0.2149
13939TIP3    H163232   3.158   0.788  14.105  0.2338  1.3807 -1.6564
13939TIP3    H263233   3.236   0.743  13.984  1.1947 -0.8911 -0.2536
13940TIP3   OH263234   4.156   0.915   0.937  0.2158  0.8049 -0.7945
13940TIP3    H163235   4.142   0.821   0.934 -0.4825  0.8389  0.5411
13940TIP3    H263236   4.250   0.926   0.924  0.6675 -0.2572  1.1785
13941TIP3   OH263237   1.245   3.681   2.642 -0.7016 -0.1723 -0.1034
13941TIP3    H163238   1.203   3.597   2.621  1.1855 -1.0386 -0.6305
13941TIP3    H263239   1.177   3.732   2.686 -2.1614 -1.6414 -0.5706
13942TIP3   OH263240   1.451   4.876   3.727 -0.3015 -0.2837 -0.0458
13942TIP3    H163241   1.405   4.796   3.753 -0.0009 -0.1100  1.0431
13942TIP3    H263242   1.391   4.919   3.665 -0.4002 -1.4151 -0.7657
13943TIP3   OH263243   5.882   0.851   2.461 -0.0538  0.6029  0.0433
13943TIP3    H163244   5.868   0.897   2.544 -0.4523  0.6188 -0.0329
13943TIP3    H263245   5.880   0.920   2.395 -0.9340  0.4488 -0.1010
13944TIP3   OH263246   0.682   3.711   2.661  0.2624 -0.1550 -0.0932
13944TIP3    H163247   0.773   3.705   2.631  0.1701 -0.4497 -0.3252
13944TIP3    H263248   0.650   3.621   2.656  0.3226 -0.2602  1.1489
13945TIP3   OH263249   4.093   3.470   0.354  0.3953  0.1740  0.4014
13945TIP3    H163250   4.031   3.521   0.407  0.4002 -0.9440  1.5143
13945TIP3    H263251   4.119   3.397   0.410  1.0275 -0.6064 -0.8621
13946TIP3   OH263252   5.681   1.043   1.612 -0.2256 -0.2883  0.4034
13946TIP3    H163253   5.725   0.961   1.634 -0.4732 -0.2146  1.1969
13946TIP3    H263254   5.685   1.047   1.516  0.1953 -0.9955  0.3818
13947TIP3   OH263255   4.797   6.311   2.526  0.1554 -0.1906  0.7504
13947TIP3    H163256   4.760   6.226   2.500 -1.8228  0.8558 -0.0108
13947TIP3    H263257   4.774   6.319   2.619  1.1444 -0.8557  1.0713
13948TIP3   OH263258   2.610   3.969   0.268 -0.2194 -0.3711  0.1906
13948TIP3    H163259   2.636   4.037   0.206  0.4294  0.0009  0.8631
13948TIP3    H263260   2.673   3.898   0.254  0.5236  0.0978  1.0738
13949TIP3   OH263261   2.732   2.402   1.257  0.0617 -0.5159 -0.4816
13949TIP3    H163262   2.826   2.392   1.275 -0.4652 -2.6523  1.7474
13949TIP3    H263263   2.690   2.379   1.340 -2.4603  0.4673 -1.3966
13950TIP3   OH263264   3.472   7.147   3.363  0.4245  0.7993 -0.8835
13950TIP3    H163265   3.543   7.083   3.354 -0.0740  0.1905 -0.5308
13950TIP3    H263266   3.516   7.228   3.385  1.0700  0.5830 -1.3262
13951TIP3   OH263267   3.902   0.747   2.283  0.7226 -0.4864 -0.1342
13951TIP3    H163268   3.892   0.682   2.353  0.6151 -1.0138 -0.6367
13951TIP3    H263269   3.993   0.776   2.290  1.0268 -1.3251 -0.4489
13952TIP3   OH263270   3.890   5.245   1.934 -0.0540  0.2225 -0.7367
13952TIP3    H163271   3.834   5.167   1.928  0.5826 -0.5129  1.6011
13952TIP3    H263272   3.869   5.283   2.020 -0.4761  2.7814 -1.8824
13953TIP3   OH263273   5.663   3.213   4.180 -0.0588 -0.1879 -0.5633
13953TIP3    H163274   5.746   3.211   4.227 -0.4880 -0.7975  0.1779
13953TIP3    H263275   5.637   3.121   4.173 -2.8655  0.1177  3.1805
13954TIP3   OH263276   3.794   1.066   2.619 -0.3030 -0.7374  0.0600
13954TIP3    H163277   3.709   1.107   2.601  0.1417 -0.5022 -1.6306
13954TIP3    H263278   3.846   1.136   2.657 -0.3813 -0.4468 -0.3582
13955TIP3   OH263279   3.440   4.320   4.569  0.3231  0.3875 -0.6265
13955TIP3    H163280   3.397   4.241   4.535 -1.7136  0.5942  1.2914
13955TIP3    H263281   3.517   4.286   4.616 -0.8407 -0.5923  0.6832
13956TIP3   OH263282   3.129   0.281   3.000 -0.4547  0.2295  0.0956
13956TIP3    H163283   3.070   0.218   2.957  2.1255 -1.0656 -1.7682
13956TIP3    H263284   3.184   0.315   2.930  1.2819  1.1124  1.7964
13957TIP3   OH263285   7.132   4.630   5.404 -0.3992  0.3143 -0.2739
13957TIP3    H163286   7.084   4.677   5.336  1.1588  0.7467 -1.1309
13957TIP3    H263287   7.198   4.580   5.356 -0.3488 -0.7218  0.8187
13958TIP3   OH263288   3.588   2.542  15.111 -0.2270 -1.3250  0.5260
13958TIP3    H163289   3.547   2.458  15.091 -2.3282 -0.5084  1.2192
13958TIP3    H263290   3.569   2.558  15.203  0.2210 -0.1174  0.4382
13959TIP3   OH263291   7.087   0.539   5.397 -0.3616 -0.5602  0.2478
13959TIP3    H163292   7.007   0.533   5.450  0.1406  0.4208  1.1462
13959TIP3    H263293   7.056   0.537   5.307 -1.6541  2.0700  0.5313
13960TIP3   OH263294   4.908   4.952   4.549 -0.2363 -0.2294  0.1075
13960TIP3    H163295   4.849   4.904   4.608 -0.6125  0.1927  0.0831
13960TIP3    H263296   4.849   4.995   4.487  0.0272  1.1000  0.7557
13961TIP3   OH263297   5.599   4.119   5.279 -0.1751 -0.1768  0.3667
13961TIP3    H163298   5.694   4.119   5.296 -0.1592 -1.1652  0.3593
13961TIP3    H263299   5.560   4.127   5.366 -0.1293  3.4091  0.1782
13962TIP3   OH263300   0.453   0.239   4.035  0.3962  0.6000 -0.7521
13962TIP3    H163301   0.538   0.209   4.068  0.1185 -0.3181 -0.8402
13962TIP3    H263302   0.426   0.306   4.098 -0.1144 -1.0975  0.9458
13963TIP3   OH263303   3.807   2.383   2.986 -0.5224  0.0247  0.4521
13963TIP3    H163304   3.727   2.412   2.942 -0.1696 -0.8346 -0.8286
13963TIP3    H263305   3.862   2.461   2.990 -1.1488  0.4602  0.7247
13964TIP3   OH263306   4.161   0.046   2.396 -0.7269  0.1011 -0.0522
13964TIP3    H163307   4.257   0.050   2.398 -0.5654 -1.5049 -1.7096
13964TIP3    H263308   4.137  -0.002   2.475 -0.2296  0.8482  0.5783
13965TIP3   OH263309   5.114   0.282   0.987  0.6003  0.5257 -0.3518
13965TIP3    H163310   5.143   0.242   0.905 -0.9727  0.2379 -0.8011
13965TIP3    H263311   5.148   0.225   1.056  1.0119  0.1627 -0.8536
13966TIP3   OH263312   6.361   6.443   3.470  0.3146  0.2576  0.5871
13966TIP3    H163313   6.454   6.425   3.454 -0.0527 -0.0509 -1.4810
13966TIP3    H263314   6.316   6.363   3.443 -0.6349  0.7689  0.5979
13967TIP3   OH263315   5.512   4.506   0.525  0.1614 -0.1755 -0.2794
13967TIP3    H163316   5.602   4.474   0.530 -0.1117 -0.9200  0.0405
13967TIP3    H263317   5.498   4.526   0.433  0.3500 -0.9777 -0.4890
13968TIP3   OH263318   2.019   1.166   4.728 -0.0450  0.1906  0.3064
13968TIP3    H163319   2.040   1.260   4.726  1.7798 -0.1891  0.0108
13968TIP3    H263320   1.964   1.152   4.650 -0.1529  0.9656  0.2342
13969TIP3   OH263321   5.038   0.317   5.283  0.8784  0.1602 -0.7415
13969TIP3    H163322   5.128   0.286   5.296  0.8244  0.6692  1.2609
13969TIP3    H263323   5.016   0.360   5.366 -2.2525 -2.5429  0.0242
13970TIP3   OH263324   6.206   2.552   3.215 -0.1683  0.0553 -0.5408
13970TIP3    H163325   6.123   2.550   3.263 -0.1957 -1.0913 -0.6010
13970TIP3    H263326   6.214   2.642   3.185  0.8703  1.4508  3.3529
13971TIP3   OH263327   5.895   5.313  14.046  0.0854  0.6921  0.3017
13971TIP3    H163328   5.981   5.339  14.015 -0.7074  0.7271 -2.0624
13971TIP3    H263329   5.835   5.373  14.002 -1.3035 -0.8287  0.0514
13972TIP3   OH263330   4.047   4.587   0.266  0.6122  0.0456 -0.1114
13972TIP3    H163331   3.998   4.600   0.185  0.7948  1.3922 -0.0157
13972TIP3    H263332   4.103   4.512   0.248 -0.0640 -0.2921 -0.8841
13973TIP3   OH263333   0.498   4.970   5.479  0.0780 -0.4433 -0.4597
13973TIP3    H163334   0.577   4.962   5.424  0.2029 -2.0058 -0.1014
13973TIP3    H263335   0.440   4.902   5.446 -0.4506 -0.4070  0.3851
13974TIP3   OH263336   1.301   2.547   5.144 -0.6240 -0.2531  1.2478
13974TIP3    H163337   1.217   2.540   5.189 -0.5277  0.7535  1.5964
13974TIP3    H263338   1.342   2.624   5.182  0.1601 -0.3340  0.5799
13975TIP3   OH263339   2.395   2.431   1.215  0.0872  0.2772  0.0852
13975TIP3    H163340   2.435   2.385   1.141 -0.2567  1.0872 -0.6170
13975TIP3    H263341   2.466   2.440   1.278 -0.2630 -2.8343  1.0643
13976TIP3   OH263342   7.173   2.185   2.191  0.2638  0.2019 -0.2441
13976TIP3    H163343   7.232   2.190   2.267  0.7799  3.2196 -0.7073
13976TIP3    H263344   7.115   2.112   2.211  1.8495 -0.5863  1.9454
13977TIP3   OH263345   4.751   6.715  12.883 -0.1830 -0.6255 -0.0979
13977TIP3    H163346   4.731   6.623  12.866 -0.2005 -0.4020 -1.3939
13977TIP3    H263347   4.665   6.756  12.896 -0.1618 -0.8231  0.7408
13978TIP3   OH263348   5.807   1.176   3.404  0.1365  0.5549  0.0382
13978TIP3    H163349   5.774   1.157   3.316  1.2359 -0.4357 -0.1795
13978TIP3    H263350   5.830   1.090   3.440  2.0316  1.1566  0.3502
13979TIP3   OH263351   2.690   5.205  12.868  0.1678 -0.4664 -0.2496
13979TIP3    H163352   2.705   5.171  12.780 -0.0194  0.4748 -0.6570
13979TIP3    H263353   2.664   5.296  12.855  1.5936  0.1428  0.8530
13980TIP3   OH263354   0.450   2.319   4.445  0.4693  0.0270 -0.8997
13980TIP3    H163355   0.407   2.267   4.378  0.4387  1.3658 -1.9697
13980TIP3    H263356   0.543   2.315   4.423  0.3521  1.4264 -1.7687
13981TIP3   OH263357   6.532   4.565   3.533 -0.5347  0.5379 -0.0632
13981TIP3    H163358   6.620   4.587   3.564 -0.2608 -0.3066 -0.2017
13981TIP3    H263359   6.543   4.482   3.487 -1.0886  1.3558 -1.7307
13982TIP3   OH263360   3.781   0.231   3.798 -1.0655 -0.4603  0.4871
13982TIP3    H163361   3.819   0.193   3.719 -1.3715 -0.3635  0.2885
13982TIP3    H263362   3.855   0.262   3.849 -0.9506  1.8965 -0.9724
13983TIP3   OH263363   5.854   6.118   9.768  0.3833  0.6270  0.6923
13983TIP3    H163364   5.889   6.204   9.745 -1.0437  0.8518 -0.7768
13983TIP3    H263365   5.799   6.093   9.693  1.7736 -2.1554  0.4692
13984TIP3   OH263366   3.166   6.512   1.819  0.4491  0.2053  0.4406
13984TIP3    H163367   3.255   6.520   1.786 -0.2611  0.4549 -1.5620
13984TIP3    H263368   3.111   6.546   1.748 -1.2650 -0.2501  1.4869
13985TIP3   OH263369   3.353   1.212   1.542 -0.0944  0.3142  0.3842
13985TIP3    H163370   3.281   1.225   1.604 -1.1745  0.6577 -0.8796
13985TIP3    H263371   3.371   1.300   1.508  0.2148  0.0810 -0.0599
13986TIP3   OH263372   2.531   0.517   1.470  0.3141  0.1826 -0.1136
13986TIP3    H163373   2.614   0.475   1.492  0.5453 -1.7728 -4.0026
13986TIP3    H263374   2.464   0.457   1.503  0.5435 -0.2584 -0.4442
13987TIP3   OH263375   5.894   5.090   3.729  0.4841  0.0323  0.3335
13987TIP3    H163376   5.912   5.116   3.820  0.0202  0.5234  0.2926
13987TIP3    H263377   5.835   5.158   3.696  0.2312 -0.4217 -0.1712
13988TIP3   OH263378   6.355   2.914   4.287 -0.1942  0.5556  0.3545
13988TIP3    H163379   6.317   2.849   4.228  0.9343  0.7820 -0.6759
13988TIP3    H263380   6.309   2.995   4.266  0.8498  0.8571 -0.9780
13989TIP3   OH263381   2.450   5.557   4.499 -0.5825 -0.2117  0.2436
13989TIP3    H163382   2.389   5.483   4.489 -0.5886 -0.3287  1.0566
13989TIP3    H263383   2.411   5.627   4.448 -2.1627  0.1617  1.8677
13990TIP3   OH263384   6.280   0.656  13.575 -0.0467 -0.6239 -0.6501
13990TIP3    H163385   6.371   0.682  13.561  0.0074 -1.0787 -1.1581
13990TIP3    H263386   6.271   0.654  13.671  0.6317 -1.0977 -0.5813
13991TIP3   OH263387   4.670   1.591  14.818  0.5366 -0.4548  0.3812
13991TIP3    H163388   4.712   1.629  14.740  2.7282 -1.5879  0.9176
13991TIP3    H263389   4.621   1.516  14.785  0.5475 -0.2775 -0.0485
13992TIP3   OH263390   5.769   0.968   4.412 -0.1851  0.0918 -0.4162
13992TIP3    H163391   5.794   1.010   4.494 -0.5795 -2.3624  1.0505
13992TIP3    H263392   5.705   1.028   4.373  0.7677  1.7953  0.5449
13993TIP3   OH263393   7.038   3.820  14.031 -0.2026 -0.4410 -0.0964
13993TIP3    H163394   6.994   3.736  14.025 -0.4823 -0.2334 -1.0251
13993TIP3    H263395   7.118   3.810  13.979 -1.1376  0.4208 -1.7799
13994TIP3   OH263396   0.393   4.633   2.598  0.5350  0.0152  0.0804
13994TIP3    H163397   0.419   4.615   2.688  0.8595 -1.1080 -0.2193
13994TIP3    H263398   0.298   4.641   2.601  0.6660  1.5234  0.7640
13995TIP3   OH263399   5.352   5.833   0.751 -0.0292  0.5356 -0.2946
13995TIP3    H163400   5.289   5.835   0.679  2.4105  0.0641 -2.5912
13995TIP3    H263401   5.384   5.743   0.751  0.5243  0.7198  0.9506
13996TIP3   OH263402   4.114   4.795   5.142 -0.3584  0.2102 -0.5328
13996TIP3    H163403   4.066   4.783   5.060 -0.5827 -0.2795 -0.3359
13996TIP3    H263404   4.200   4.756   5.125 -0.3239  0.3164 -0.6064
13997TIP3   OH263405   6.087   6.562   3.873 -0.3612  0.0222 -0.1433
13997TIP3    H163406   6.015   6.500   3.862 -0.5764 -0.1102  1.6998
13997TIP3    H263407   6.143   6.549   3.797 -0.3868 -2.4718  0.1915
13998TIP3   OH263408   1.240   2.035   4.516  0.5867 -0.0395 -0.2078
13998TIP3    H163409   1.151   2.001   4.525  0.2465  0.6234 -0.9726
13998TIP3    H263410   1.232   2.129   4.529  1.3361 -0.0788  0.6785
13999TIP3   OH263411   5.509   3.601   3.629  0.0587  0.4116  0.0967
13999TIP3    H163412   5.438   3.600   3.564  0.5609  0.5366 -0.4618
13999TIP3    H263413   5.586   3.570   3.581 -0.0604 -1.8732  1.2449
14000TIP3   OH263414   6.451   0.862   0.748  0.1519  0.0675 -0.4365
14000TIP3    H163415   6.432   0.935   0.806  1.5651 -0.6870  1.0618
14000TIP3    H263416   6.398   0.790   0.782  1.6170 -0.6090  0.5124
14001TIP3   OH263417   0.872   6.925  14.778  0.1031  0.1342  0.6295
14001TIP3    H163418   0.788   6.949  14.817 -0.5170  0.1554 -0.6818
14001TIP3    H263419   0.927   7.003  14.788 -0.4291  0.5368  0.4025
14002TIP3   OH263420   1.680   1.924   5.418  0.0393 -0.1187  0.0497
14002TIP3    H163421   1.763   1.971   5.428 -0.0996 -0.1483  1.4010
14002TIP3    H263422   1.622   1.961   5.484 -0.3165 -1.6571  0.6463
14003TIP3   OH263423   1.006   5.869   1.836 -0.1586  0.1873 -0.7986
14003TIP3    H163424   0.938   5.869   1.768 -0.7349  0.3759 -0.2302
14003TIP3    H263425   1.022   5.776   1.853  1.1814  0.0976 -2.3492
14004TIP3   OH263426   0.529   2.492   0.253 -0.0992  0.1996  0.0243
14004TIP3    H163427   0.488   2.558   0.198 -1.5703 -1.7814 -1.4354
14004TIP3    H263428   0.555   2.538   0.333 -2.6407  2.1596 -0.1687
14005TIP3   OH263429   1.867   5.353   1.689  0.1717  0.5989  0.5209
14005TIP3    H163430   1.847   5.317   1.776 -1.0229  2.8855  1.2842
14005TIP3    H263431   1.782   5.386   1.657  0.1870 -1.7899 -2.3829
14006TIP3   OH263432   0.637   4.276  12.030 -0.2467 -0.0978  0.1856
14006TIP3    H163433   0.575   4.214  12.069 -0.9081 -0.5212 -1.4935
14006TIP3    H263434   0.657   4.337  12.102 -1.5811 -0.7270  1.1400
14007TIP3   OH263435   3.805   2.285   3.991 -0.1349  0.0435 -0.2486
14007TIP3    H163436   3.733   2.250   4.043 -0.4252  1.6070  0.4551
14007TIP3    H263437   3.879   2.287   4.052 -0.0421  0.3470 -0.3710
14008TIP3   OH263438   4.743   7.092   3.880  0.0437 -0.0639  0.1306
14008TIP3    H163439   4.729   7.096   3.786 -2.5136 -1.2812  0.3722
14008TIP3    H263440   4.759   7.000   3.898 -2.0360 -0.2829  1.1199
14009TIP3   OH263441   0.062   0.585   3.719  0.4079 -0.0969 -0.0899
14009TIP3    H163442   0.157   0.593   3.727  0.2435  0.9164  1.1664
14009TIP3    H263443   0.029   0.601   3.807 -0.9982  0.7839 -0.7388
14010TIP3   OH263444   6.978   2.837   2.258  0.0350 -0.2664  1.1688
14010TIP3    H163445   6.913   2.820   2.326 -0.2195  0.1577  1.0321
14010TIP3    H263446   6.965   2.929   2.234  0.1664 -0.3924  0.5939
14011TIP3   OH263447   6.185   3.941   3.071  0.1959  0.5457  0.6222
14011TIP3    H163448   6.223   3.898   3.147 -0.9148  0.3969  1.1251
14011TIP3    H263449   6.237   3.912   2.997  1.4967  0.9329  1.3543
14012TIP3   OH263450   2.843   3.171   2.592 -0.2176 -0.6705  0.7487
14012TIP3    H163451   2.880   3.192   2.506  0.0993 -1.6209  0.6462
14012TIP3    H263452   2.897   3.219   2.654 -0.8546  0.5562  0.3841
14013TIP3   OH263453   6.209   2.849   0.263  0.0733  0.0531  0.1872
14013TIP3    H163454   6.151   2.892   0.326 -0.3336  0.6604 -0.5899
14013TIP3    H263455   6.278   2.913   0.245  0.9323 -0.6182  1.0064
14014TIP3   OH263456   1.141   0.372   5.721  0.0017 -0.2550  0.2078
14014TIP3    H163457   1.142   0.280   5.749  1.9660 -0.1255  0.7592
14014TIP3    H263458   1.216   0.411   5.766 -1.6900  2.0371  1.2481
14015TIP3   OH263459   3.415   5.055   4.786 -0.1759 -0.0430 -0.0028
14015TIP3    H163460   3.467   5.008   4.721 -0.7868 -0.7345 -0.0121
14015TIP3    H263461   3.432   5.008   4.869  1.9024  1.8298  0.7327
14016TIP3   OH263462   2.707   3.006   1.191  0.0517  0.0601 -0.1130
14016TIP3    H163463   2.736   3.035   1.277  0.0351 -0.3647  0.0374
14016TIP3    H263464   2.738   2.916   1.184  1.2020  0.4874 -1.0655
14017TIP3   OH263465   3.415   4.484   3.159 -0.0916 -0.2718 -0.3287
14017TIP3    H163466   3.430   4.542   3.233  0.5980 -0.6684 -0.1555
14017TIP3    H263467   3.354   4.418   3.193 -0.3321 -0.0521 -0.3268
14018TIP3   OH263468   3.268   3.481   4.782  0.3216  0.3002  0.0214
14018TIP3    H163469   3.263   3.569   4.817  0.8313  0.4913 -0.3714
14018TIP3    H263470   3.313   3.430   4.849 -0.5954  0.1686  0.5529
14019TIP3   OH263471   2.716   0.834   3.906  0.3820 -0.4558 -0.0302
14019TIP3    H163472   2.803   0.805   3.880  0.9884  0.3684  1.0087
14019TIP3    H263473   2.727   0.866   3.995 -0.9830 -0.3071  0.1077
14020TIP3   OH263474   0.391   2.414  12.853  0.0885 -0.5876 -0.4211
14020TIP3    H163475   0.298   2.391  12.850  0.2957 -1.4506 -0.5593
14020TIP3    H263476   0.434   2.333  12.882  0.8572 -0.3866 -0.9861
14021TIP3   OH263477   1.177   3.349   4.651  0.0471 -0.4786  0.0279
14021TIP3    H163478   1.105   3.286   4.656 -1.0963  0.8423  2.5505
14021TIP3    H263479   1.245   3.312   4.708  0.8856 -1.1292 -1.3671
14022TIP3   OH263480   1.324   5.301   0.922  0.0697 -0.6721  0.0973
14022TIP3    H163481   1.351   5.355   0.996 -0.1173  1.4169 -1.2731
14022TIP3    H263482   1.370   5.217   0.935  2.2390  0.5939  1.0990
14023TIP3   OH263483   5.426   1.131   2.692  0.0301 -0.4184  0.0904
14023TIP3    H163484   5.370   1.065   2.732  0.5750 -0.7894  0.2520
14023TIP3    H263485   5.464   1.177   2.767 -0.5734  0.2840 -0.0181
14024TIP3   OH263486   3.631   1.173   4.956 -0.2914  0.4440 -0.3076
14024TIP3    H163487   3.712   1.203   4.915 -1.3665  0.1518 -2.7794
14024TIP3    H263488   3.600   1.102   4.900 -2.5918  0.9630  0.2080
14025TIP3   OH263489   7.012   4.936   3.944 -0.4355  0.4824  0.4454
14025TIP3    H163490   7.069   4.922   4.019  0.6814 -1.4626 -0.7006
14025TIP3    H263491   7.067   4.980   3.880  0.1079 -2.0119 -0.9236
14026TIP3   OH263492   3.900   1.646  11.486  0.3419 -0.2706  0.1415
14026TIP3    H163493   3.915   1.702  11.562  0.5797 -0.1248 -0.0135
14026TIP3    H263494   3.909   1.704  11.411 -0.8911 -0.1837  0.0307
14027TIP3   OH263495   1.238   7.120   4.182  0.2796 -0.2194  0.3583
14027TIP3    H163496   1.330   7.095   4.181  0.0615 -1.0610  0.4288
14027TIP3    H263497   1.200   7.074   4.107 -0.1622 -0.2102  0.5749
14028TIP3   OH263498   4.441   5.710   2.429  0.0043  0.0833  0.2792
14028TIP3    H163499   4.402   5.718   2.341  1.9755  1.3930 -0.5461
14028TIP3    H263500   4.454   5.616   2.441  1.4506 -0.0207 -1.6822
14029TIP3   OH263501   5.973   0.177   5.310  0.4898  0.1536  0.5940
14029TIP3    H163502   6.034   0.195   5.239  1.5018  0.6199  1.5612
14029TIP3    H263503   5.896   0.230   5.290  0.9566  0.6580  0.1162
14030TIP3   OH263504   6.613   2.281   3.333 -0.3753 -0.8577  0.7678
14030TIP3    H163505   6.518   2.276   3.321 -0.1440 -0.2614 -1.9550
14030TIP3    H263506   6.647   2.291   3.244  2.1880 -0.1511  1.7658
14031TIP3   OH263507   1.771   5.896  14.739 -0.2231  0.5617 -0.1090
14031TIP3    H163508   1.795   5.850  14.819 -1.8393  1.7270  1.1029
14031TIP3    H263509   1.853   5.904  14.691  0.7428 -0.3976  1.2957
14032TIP3   OH263510   0.622   6.705   1.475 -0.0612  0.1004 -0.3996
14032TIP3    H163511   0.615   6.639   1.543 -0.7760  0.2458 -0.3226
14032TIP3    H263512   0.643   6.786   1.522 -2.7142  0.6687 -0.0677
14033TIP3   OH263513   5.069   6.087   0.683  0.5649 -0.1997 -0.2014
14033TIP3    H163514   5.127   6.050   0.616  0.1701 -0.2944 -0.4984
14033TIP3    H263515   5.035   6.167   0.643 -0.6039 -0.8772 -0.6046
14034TIP3   OH263516   2.368   1.817   0.155  0.2526 -0.3080  0.2243
14034TIP3    H163517   2.311   1.747   0.124  1.2992  0.0863 -2.9431
14034TIP3    H263518   2.314   1.896   0.148  0.4031 -0.2554 -0.3603
14035TIP3   OH263519   0.001   6.500   1.862  0.4941 -0.4861 -0.1721
14035TIP3    H163520   0.002   6.557   1.939  0.8902 -1.3133  0.4417
14035TIP3    H263521  -0.061   6.431   1.884  1.7121 -1.5388  0.0034
14036TIP3   OH263522   1.055   1.981   2.966 -0.1254  0.1507 -0.2912
14036TIP3    H163523   1.006   1.901   2.947 -1.0586  0.9995 -1.6615
14036TIP3    H263524   1.075   2.017   2.880  0.3900  1.3223  0.3019
14037TIP3   OH263525   5.528   4.392   4.165 -0.8448 -0.1515 -0.3979
14037TIP3    H163526   5.591   4.429   4.227  0.4361 -0.7064 -1.3185
14037TIP3    H263527   5.547   4.298   4.165 -1.4335 -0.2776 -0.9590
14038TIP3   OH263528   6.416   4.740   4.486 -0.1207 -0.1165 -0.1118
14038TIP3    H163529   6.441   4.822   4.443  0.6824  0.3630  1.2120
14038TIP3    H263530   6.380   4.767   4.571  1.5480 -1.1556  0.9940
14039TIP3   OH263531   2.226   0.143   3.007 -0.1573 -0.0173  0.5508
14039TIP3    H163532   2.222   0.227   3.052  1.0190 -0.0265  0.7055
14039TIP3    H263533   2.273   0.086   3.067 -2.6945 -1.3970  1.3336
14040TIP3   OH263534   3.174   2.895   5.078 -0.2139  0.0728 -0.1043
14040TIP3    H163535   3.093   2.934   5.109 -1.1865 -1.3852 -0.6578
14040TIP3    H263536   3.168   2.803   5.104  1.7237  0.1101  0.6869
14041TIP3   OH263537   5.425   6.682   1.160  0.1294  0.7261 -0.3346
14041TIP3    H163538   5.341   6.680   1.115 -1.0217  1.2302  1.6560
14041TIP3    H263539   5.454   6.773   1.153  0.4283  0.5969 -0.8428
14042TIP3   OH263540   2.291   4.037  14.976  0.1655 -0.1904  0.6387
14042TIP3    H163541   2.221   3.971  14.972  0.0023 -0.0380  0.9639
14042TIP3    H263542   2.251   4.117  14.941  0.3393 -0.2380  0.3232
14043TIP3   OH263543   6.277   4.081   5.617 -0.2166  0.1697 -0.2161
14043TIP3    H163544   6.283   3.989   5.643  0.3856  0.0112 -0.8836
14043TIP3    H263545   6.308   4.129   5.694 -0.3598 -0.1916  0.0753
14044TIP3   OH263546   4.255   0.829  12.171  0.1780 -0.1901 -0.1180
14044TIP3    H163547   4.235   0.752  12.225 -0.2112  0.7011  1.0594
14044TIP3    H263548   4.350   0.841  12.182  0.1932 -0.3388 -0.0831
14045TIP3   OH263549   3.233   5.842   3.846  0.2984  0.2703 -0.1916
14045TIP3    H163550   3.153   5.809   3.804  0.5381  1.6270 -1.8084
14045TIP3    H263551   3.304   5.812   3.789  1.2355 -2.5197  2.1892
14046TIP3   OH263552   2.114   5.342   0.362  0.2145 -0.2364 -0.3399
14046TIP3    H163553   2.121   5.437   0.351 -2.6847 -0.0222 -1.3660
14046TIP3    H263554   2.099   5.309   0.274 -2.4802 -1.1193  0.3430
14047TIP3   OH263555   5.899   4.179  14.899 -0.3216 -0.3206  0.1116
14047TIP3    H163556   5.976   4.141  14.940 -1.1922  0.2516  2.4263
14047TIP3    H263557   5.888   4.264  14.942 -1.4774  0.2043 -1.1327
14048TIP3   OH263558   4.602   3.652   1.694 -0.1639  0.1275 -0.0435
14048TIP3    H163559   4.575   3.685   1.608  0.7014 -0.0182 -0.3904
14048TIP3    H263560   4.586   3.725   1.754 -1.9326 -0.1925 -0.0932
14049TIP3   OH263561   7.030   2.194  12.547 -0.7499 -0.4906  0.3369
14049TIP3    H163562   7.008   2.154  12.631  0.8979 -0.5970  0.7578
14049TIP3    H263563   7.063   2.281  12.571  0.8021 -0.9376 -0.0608
14050TIP3   OH263564   2.712   4.257   3.484 -0.1090  0.5228  0.4398
14050TIP3    H163565   2.633   4.302   3.454 -0.3179  0.0023  0.1888
14050TIP3    H263566   2.692   4.164   3.473 -0.2667  0.2917  2.3508
14051TIP3   OH263567   4.026   4.291  13.365  0.4610  0.3964 -0.1378
14051TIP3    H163568   3.975   4.217  13.397 -0.1708  1.0898  0.4664
14051TIP3    H263569   4.117   4.268  13.386  0.4100 -0.7667 -1.0809
14052TIP3   OH263570   2.665   7.071   2.315  0.0130 -0.1301 -0.5793
14052TIP3    H163571   2.746   7.123   2.310  0.4782 -0.7777 -0.0293
14052TIP3    H263572   2.682   6.995   2.260  0.4518 -1.1132  0.8412
14053TIP3   OH263573   4.921   1.936   0.817 -0.5682 -0.0882  0.2591
14053TIP3    H163574   4.848   1.896   0.864 -0.9529  1.1878  0.7939
14053TIP3    H263575   4.965   1.990   0.882  0.2344 -0.0273 -0.3206
14054TIP3   OH263576   3.705   3.080  12.334 -0.3334 -0.3966  0.1495
14054TIP3    H163577   3.696   3.014  12.403  1.3576 -1.9536 -1.0007
14054TIP3    H263578   3.777   3.136  12.363 -0.0224 -0.6882 -0.0399
14055TIP3   OH263579   3.612   1.263  14.880 -0.2886 -0.1359 -0.5820
14055TIP3    H163580   3.703   1.263  14.851 -0.1117 -1.1987 -0.0728
14055TIP3    H263581   3.602   1.346  14.927  0.2044  0.3044 -1.2368
14056TIP3   OH263582   2.613   4.575   3.758 -0.2736 -0.0059  0.5511
14056TIP3    H163583   2.685   4.602   3.700 -0.0747 -0.8470  0.3906
14056TIP3    H263584   2.654   4.514   3.820 -0.7859 -0.2543  0.6482
14057TIP3   OH263585   5.602   4.147  14.883 -0.1109 -0.9411 -0.3372
14057TIP3    H163586   5.545   4.222  14.899 -1.8454 -1.8326 -2.0891
14057TIP3    H263587   5.686   4.186  14.860 -0.4855  0.4207  0.4719
14058TIP3   OH263588   4.985   3.432  14.400 -0.1707  0.4531  0.2486
14058TIP3    H163589   5.078   3.450  14.384  0.0699  1.1117  2.0997
14058TIP3    H263590   4.977   3.337  14.392  0.4236  0.4928 -1.0015
14059TIP3   OH263591   0.435   4.472   5.704  0.0730  0.0549  0.3357
14059TIP3    H163592   0.400   4.498   5.618  0.3829  2.0564  0.7607
14059TIP3    H263593   0.529   4.462   5.690 -0.2025 -2.5441 -0.1664
14060TIP3   OH263594   5.997   0.077   4.411 -0.3246  0.1991 -0.1473
14060TIP3    H163595   6.001   0.169   4.437  0.4471  0.0889  0.1344
14060TIP3    H263596   6.071   0.064   4.353 -0.2916 -0.3013 -0.0038
14061TIP3   OH263597   5.243   7.061   4.018 -0.2974  0.3043  0.7548
14061TIP3    H163598   5.258   7.090   3.928  3.0001 -1.3487  0.5992
14061TIP3    H263599   5.221   6.968   4.010 -0.1368  0.1784  1.6422
14062TIP3   OH263600   4.315   3.149   1.532  0.1144  0.8964  0.2430
14062TIP3    H163601   4.290   3.139   1.441 -0.1292  2.7904  0.0753
14062TIP3    H263602   4.232   3.148   1.580  0.1756  0.8935  0.3493
14063TIP3   OH263603   2.162   1.829   2.976  0.2861  0.1721 -0.3724
14063TIP3    H163604   2.100   1.884   3.023 -0.2135 -2.8283  2.8189
14063TIP3    H263605   2.247   1.849   3.016  0.2571 -0.6213  0.0972
14064TIP3   OH263606   4.090   0.836  15.050  0.6559 -0.5271  0.2419
14064TIP3    H163607   4.084   0.932  15.052  0.3413 -0.5576  1.2095
14064TIP3    H263608   4.175   0.819  15.009  1.3423  0.1972  1.2934
14065TIP3   OH263609   2.574   3.928   2.071  0.1278  0.0047 -0.3163
14065TIP3    H163610   2.616   3.918   1.986  0.0985 -1.2875 -0.1907
14065TIP3    H263611   2.522   3.849   2.082 -0.1775  0.3322  0.7335
14066TIP3   OH263612   4.546   2.279   1.803 -0.1832  0.0429  0.6713
14066TIP3    H163613   4.579   2.335   1.874  1.7301 -0.5252  0.2872
14066TIP3    H263614   4.475   2.229   1.843 -1.2238  1.9253  1.3203
14067TIP3   OH263615   6.715   4.993  14.389 -0.9196  0.4735 -0.0442
14067TIP3    H163616   6.786   4.993  14.453 -0.9080 -0.6260 -0.0371
14067TIP3    H263617   6.739   5.060  14.325 -0.0401  0.3242  0.1257
14068TIP3   OH263618   5.976   2.704  14.729 -0.4503 -0.4032 -0.1281
14068TIP3    H163619   6.049   2.747  14.773 -0.7259 -0.1352  0.0718
14068TIP3    H263620   5.997   2.709  14.636 -0.4856  0.1757 -0.1047
14069TIP3   OH263621   5.756   3.000  14.524 -0.2940  0.1643 -0.4355
14069TIP3    H163622   5.739   2.908  14.546 -0.6599  0.3308 -0.0208
14069TIP3    H263623   5.754   3.002  14.428 -1.4910 -0.0351 -0.4320
14070TIP3   OH263624   5.796   6.638   0.827 -0.1268  0.3534  0.0368
14070TIP3    H163625   5.737   6.598   0.891  0.2823  2.8137  2.0910
14070TIP3    H263626   5.809   6.727   0.858  1.5072  1.1396 -2.5770
14071TIP3   OH263627   6.843   6.574   3.729 -0.6724 -0.4510  0.4134
14071TIP3    H163628   6.775   6.609   3.787  0.6951  1.7012  0.8485
14071TIP3    H263629   6.825   6.615   3.644 -1.6454 -2.2492 -0.2994
14072TIP3   OH263630   3.393   3.831   3.881 -0.0031 -0.1681 -0.5015
14072TIP3    H163631   3.473   3.831   3.827 -0.2319  0.4114 -0.8462
14072TIP3    H263632   3.327   3.872   3.826 -1.0713 -2.3205 -0.9616
14073TIP3   OH263633   5.453   4.385   5.250 -0.4749 -0.2402 -0.1982
14073TIP3    H163634   5.418   4.408   5.164  0.7065  2.2627 -0.0938
14073TIP3    H263635   5.531   4.333   5.230  0.5201  1.3739 -0.7687
14074TIP3   OH263636   0.754   4.773   3.425 -0.0795  0.1461 -0.4475
14074TIP3    H163637   0.850   4.774   3.420 -0.1063 -0.7271 -3.0182
14074TIP3    H263638   0.727   4.742   3.338 -2.7335  1.5494 -0.2142
14075TIP3   OH263639   6.110   4.889   2.667 -0.0645  0.9416 -0.0509
14075TIP3    H163640   6.115   4.984   2.656 -0.4569  0.7272 -2.9960
14075TIP3    H263641   6.066   4.859   2.588 -2.2616 -1.5150  1.9494
14076TIP3   OH263642   6.849   2.207   5.161  0.1648 -0.1286 -1.0586
14076TIP3    H163643   6.828   2.180   5.071 -0.4294 -0.3584 -0.8554
14076TIP3    H263644   6.868   2.125   5.206 -0.9489 -0.1590 -0.6181
14077TIP3   OH263645   4.065   0.211   3.995  0.4007  0.0930 -0.1058
14077TIP3    H163646   4.107   0.170   3.920  1.3247  0.5826  0.1298
14077TIP3    H263647   4.086   0.153   4.069 -0.9519 -0.6751 -0.2881
14078TIP3   OH263648   6.217   1.609   5.402  0.7488 -0.6425  0.6784
14078TIP3    H163649   6.182   1.696   5.420  1.0547 -0.5316  0.7392
14078TIP3    H263650   6.223   1.605   5.307 -0.0395 -0.9039  0.6325
14079TIP3   OH263651   6.343   1.462  15.225 -0.5465  0.3486  0.3393
14079TIP3    H163652   6.272   1.428  15.171 -0.6366 -0.4299  0.9289
14079TIP3    H263653   6.411   1.395  15.221 -0.3836  0.4803  0.8536
14080TIP3   OH263654   3.199   6.417   3.889 -0.3772 -0.0305  0.4007
14080TIP3    H163655   3.251   6.337   3.884 -0.3833 -0.0114 -0.0249
14080TIP3    H263656   3.171   6.433   3.799 -2.6512 -1.0218  0.8714
14081TIP3   OH263657   1.942   6.411   1.865  0.6612  0.6395  0.2205
14081TIP3    H163658   1.859   6.448   1.897  0.4652  0.0640  0.3975
14081TIP3    H263659   2.006   6.434   1.933  0.7028  1.2936 -0.0331
14082TIP3   OH263660   0.120   4.325   5.603  0.1571 -0.4860 -0.6386
14082TIP3    H163661   0.107   4.298   5.693  0.8568  1.4045  0.0724
14082TIP3    H263662   0.203   4.284   5.577  0.3461 -0.4078 -0.1612
14083TIP3   OH263663   0.675   6.336   2.898  0.4350 -0.0678 -1.0419
14083TIP3    H163664   0.700   6.365   2.810  0.4236  2.0375 -0.3964
14083TIP3    H263665   0.628   6.253   2.883  1.8261 -0.6062 -2.8548
14084TIP3   OH263666   1.938   4.026   0.881  0.1164 -0.3399 -0.0089
14084TIP3    H163667   1.869   4.074   0.835 -1.2635 -1.1180  1.1731
14084TIP3    H263668   2.019   4.055   0.839 -0.9376  0.3119 -1.7028
14085TIP3   OH263669   3.852   2.796   3.597 -0.2071  0.1563  1.2489
14085TIP3    H163670   3.766   2.835   3.615 -0.7249 -0.6839  0.6984
14085TIP3    H263671   3.833   2.703   3.584  0.7104  0.0562  0.5612
14086TIP3   OH263672   6.068   6.345  11.339  0.2799  0.5437  0.1292
14086TIP3    H163673   6.018   6.308  11.412  0.4600  1.5353  0.7885
14086TIP3    H263674   6.095   6.269  11.287  1.0447 -0.3050  1.6756
14087TIP3   OH263675   1.848   2.890   2.451 -0.6414 -0.2002  0.2180
14087TIP3    H163676   1.845   2.834   2.529  0.7141 -3.5253 -1.8766
14087TIP3    H263677   1.942   2.898   2.432 -0.9676 -1.1938 -2.1175
14088TIP3   OH263678   4.917   6.519  14.887  0.5085 -0.2003  0.0570
14088TIP3    H163679   4.924   6.476  14.972 -1.7601 -2.2205 -0.6590
14088TIP3    H263680   4.928   6.448  14.823 -0.8819  0.6948 -1.2484
14089TIP3   OH263681   6.212   0.578   2.975 -0.0039 -0.3815  0.2775
14089TIP3    H163682   6.123   0.553   3.001  0.5452 -2.6421  0.2029
14089TIP3    H263683   6.261   0.579   3.057 -0.1315  1.1738  0.3585
14090TIP3   OH263684   0.703   1.740   0.795  0.0299  0.6392 -0.3271
14090TIP3    H163685   0.702   1.761   0.889 -1.6600 -2.0518  0.3823
14090TIP3    H263686   0.612   1.753   0.768 -0.1260 -1.2799 -0.8559
14091TIP3   OH263687   4.121   5.352   3.874  0.0174 -0.1287  0.5558
14091TIP3    H163688   4.037   5.314   3.901 -0.9157 -0.4132 -2.3763
14091TIP3    H263689   4.127   5.434   3.923 -1.8648 -0.2203  1.0226
14092TIP3   OH263690   0.941   4.860   4.526  0.0491 -0.3017  0.1230
14092TIP3    H163691   0.972   4.871   4.616 -1.7052 -2.2103  1.0608
14092TIP3    H263692   0.900   4.944   4.504 -1.0792 -0.3506  1.8340
14093TIP3   OH263693   2.915   2.227   4.337 -0.2230  0.3539  0.0486
14093TIP3    H163694   2.857   2.150   4.332 -0.0407  0.1343  1.1085
14093TIP3    H263695   2.943   2.242   4.247  0.1399 -1.1503 -0.1163
14094TIP3   OH263696   3.835   1.302  12.147 -0.6475 -0.1307  0.3562
14094TIP3    H163697   3.839   1.247  12.069 -0.0963  0.6417 -0.1783
14094TIP3    H263698   3.838   1.240  12.220  3.6141 -0.8274 -0.0970
14095TIP3   OH263699   7.182   0.078   5.399  0.0921 -0.3645  0.5007
14095TIP3    H163700   7.254   0.137   5.375 -0.4712  0.8897  1.7800
14095TIP3    H263701   7.206   0.045   5.485  0.3099 -1.9172 -0.1247
14096TIP3   OH263702   4.218   0.153  12.072  0.2191 -0.3755  0.2059
14096TIP3    H163703   4.127   0.155  12.041 -0.1658 -2.5359  1.0128
14096TIP3    H263704   4.245   0.245  12.072 -1.5229  0.2087 -1.2746
14097TIP3   OH263705   1.036   6.854  15.035 -0.6764 -0.4940 -0.3024
14097TIP3    H163706   1.122   6.896  15.026 -0.4222 -0.3842  1.9362
14097TIP3    H263707   1.056   6.760  15.038 -0.5815 -0.4601  0.4090
14098TIP3   OH263708   0.327   1.974   5.389 -0.1256  0.2050  0.0032
14098TIP3    H163709   0.268   2.012   5.455 -0.8264  1.9023 -1.4899
14098TIP3    H263710   0.365   2.051   5.345 -1.0798 -0.7840 -2.7471
14099TIP3   OH263711   2.791   5.271   0.383  0.4302 -0.0034 -0.1504
14099TIP3    H163712   2.840   5.316   0.452  0.4505  0.5546 -0.5254
14099TIP3    H263713   2.726   5.334   0.355 -1.9377 -1.4244  1.7658
14100TIP3   OH263714   2.500   2.329   0.276  0.1003  0.6305 -0.8388
14100TIP3    H163715   2.552   2.324   0.195 -0.1563 -0.3369 -0.9594
14100TIP3    H263716   2.415   2.362   0.248 -0.4440 -1.0071 -1.2167
14101TIP3   OH263717   4.888   5.853   0.315 -0.0693 -0.2844 -0.4798
14101TIP3    H163718   4.796   5.876   0.299 -0.0013 -1.0365 -2.1217
14101TIP3    H263719   4.887   5.811   0.401 -1.3382 -0.6791 -0.6605
14102TIP3   OH263720   6.006   3.508   3.183 -0.2913  0.0986 -0.3778
14102TIP3    H163721   6.089   3.556   3.177 -0.0175  0.0735  1.9645
14102TIP3    H263722   5.951   3.562   3.239 -1.4164 -0.4838 -0.8898
14103TIP3   OH263723   2.244   7.153   5.382  0.1472 -0.7211  0.0361
14103TIP3    H163724   2.280   7.066   5.398 -0.9365 -1.1196  0.3917
14103TIP3    H263725   2.243   7.195   5.468 -2.1715 -1.4974  0.4683
14104TIP3   OH263726   4.290   1.635   0.752  0.8758  0.3953 -0.5775
14104TIP3    H163727   4.273   1.570   0.820  0.1947  0.2488 -0.8799
14104TIP3    H263728   4.203   1.661   0.721  1.1783  0.2971 -1.5388
14105TIP3   OH263729   5.198   0.321   4.043 -0.2199  0.4207  0.5136
14105TIP3    H163730   5.130   0.257   4.062 -0.2886  0.2575 -0.2336
14105TIP3    H263731   5.234   0.344   4.128 -0.1966 -0.6095  0.8025
14106TIP3   OH263732   1.352   4.751   3.049 -0.5631  0.2025  0.0630
14106TIP3    H163733   1.398   4.729   3.130  0.0704  0.9575 -0.0834
14106TIP3    H263734   1.285   4.814   3.076 -2.5984 -2.0066  0.5388
14107TIP3   OH263735   7.107   2.022   0.986  0.5045  0.4665 -0.1029
14107TIP3    H163736   7.059   2.049   0.908 -0.5138 -0.1687  0.2875
14107TIP3    H263737   7.195   2.059   0.974  1.2994 -1.9676 -2.8780
14108TIP3   OH263738   3.492   2.171   3.497  0.1669  0.2320  0.0708
14108TIP3    H163739   3.425   2.214   3.551 -0.4887 -0.3107 -0.2997
14108TIP3    H263740   3.549   2.242   3.469  0.1078  0.6219  0.8947
14109TIP3   OH263741   4.662   5.889   2.188 -0.0593  0.0556  0.0880
14109TIP3    H163742   4.621   5.946   2.122  1.9697  0.9990 -0.4227
14109TIP3    H263743   4.749   5.926   2.201  0.1419 -1.0218  2.2125
14110TIP3   OH263744   5.769   0.904  13.436 -0.2774  0.5244 -0.2700
14110TIP3    H163745   5.749   0.833  13.374  0.8002  0.2404 -0.3107
14110TIP3    H263746   5.847   0.946  13.400  0.1258  0.6111  0.6773
14111TIP3   OH263747   1.927   6.049   3.792 -0.3113  0.1228 -0.3155
14111TIP3    H163748   2.003   6.104   3.771  0.8178 -0.8632  1.0070
14111TIP3    H263749   1.897   6.015   3.708  1.2647 -0.1510 -0.7865
14112TIP3   OH263750   0.647   1.022   5.249  0.1559  0.3941  0.6121
14112TIP3    H163751   0.668   1.005   5.341  0.3127 -1.4664  0.2572
14112TIP3    H263752   0.718   1.080   5.219  1.1502 -0.5100  1.1760
14113TIP3   OH263753   0.934   6.598   1.832  0.2062 -0.3041  0.1561
14113TIP3    H163754   1.018   6.600   1.787  0.3706 -0.1476  0.4619
14113TIP3    H263755   0.946   6.655   1.908 -0.0955 -0.4814  0.3426
14114TIP3   OH263756   4.839   0.037  14.829 -0.0584 -0.4011  0.3190
14114TIP3    H163757   4.788  -0.031  14.785 -0.3799  1.0202 -1.6791
14114TIP3    H263758   4.891   0.076  14.758 -0.0416  1.5373  1.3457
14115TIP3   OH263759   2.955   5.467   2.440  0.6236 -0.3756  0.4654
14115TIP3    H163760   2.867   5.458   2.402 -1.0837  2.2420  3.2937
14115TIP3    H263761   2.993   5.543   2.395 -0.9574  2.0298  2.9047
14116TIP3   OH263762   4.774   0.858  13.243 -0.5182  0.1542 -0.3434
14116TIP3    H163763   4.716   0.921  13.200 -0.5942 -0.1607 -0.6996
14116TIP3    H263764   4.832   0.827  13.173 -0.7373 -0.4691 -0.2485
14117TIP3   OH263765   0.663   6.403   0.410  0.1317  0.1504 -0.1549
14117TIP3    H163766   0.603   6.431   0.480 -0.0609 -1.1986  0.2415
14117TIP3    H263767   0.750   6.407   0.451  0.2856  1.5324 -0.5512
14118TIP3   OH263768   0.758   2.318   3.568 -0.0155  0.5767 -0.5380
14118TIP3    H163769   0.700   2.252   3.530 -2.2883  0.9575  2.0086
14118TIP3    H263770   0.721   2.402   3.538  0.7853  0.7997 -0.9384
14119TIP3   OH263771   2.540   5.008   5.746  0.5720 -0.5780  0.1192
14119TIP3    H163772   2.471   5.067   5.777 -0.3094 -1.1795 -0.6315
14119TIP3    H263773   2.612   5.066   5.723  0.1323  0.1138  0.4503
14120TIP3   OH263774   6.517   6.657   5.314  0.1973  0.2959 -0.9285
14120TIP3    H163775   6.529   6.737   5.365  0.1286  1.4052 -2.5725
14120TIP3    H263776   6.423   6.655   5.295 -0.0042 -0.8185  0.0480
14121TIP3   OH263777   2.655   1.894  13.434  0.5645 -0.5946 -0.3799
14121TIP3    H163778   2.579   1.914  13.489  0.7706 -1.4512  0.2466
14121TIP3    H263779   2.631   1.926  13.347  1.1954  3.1115  0.6348
14122TIP3   OH263780   7.139   3.504   3.475 -0.2058 -0.2703 -0.1324
14122TIP3    H163781   7.096   3.442   3.416  1.0100 -1.8511  0.5570
14122TIP3    H263782   7.153   3.454   3.556  2.0579  0.4306 -0.0148
14123TIP3   OH263783   2.801   6.604   1.565  0.1497  0.1195 -0.3754
14123TIP3    H163784   2.787   6.587   1.658 -2.1750  1.7451 -0.3212
14123TIP3    H263785   2.742   6.544   1.520  0.0677  0.4383 -0.7032
14124TIP3   OH263786   4.889   2.080   1.464  0.1268  0.0070  0.2269
14124TIP3    H163787   4.957   2.135   1.503  1.0034 -0.3917 -0.7019
14124TIP3    H263788   4.824   2.071   1.534  0.4826  1.2959  0.7762
14125TIP3   OH263789   0.074   0.195   5.717  0.2724 -0.0850  0.0694
14125TIP3    H163790  -0.014   0.164   5.738  0.4767  0.1239  1.3290
14125TIP3    H263791   0.132   0.137   5.766  0.8052  0.1629 -0.2617
14126TIP3   OH263792   3.002   7.040   4.156 -0.0645 -0.3083  0.5359
14126TIP3    H163793   3.041   7.010   4.073 -1.2120  1.0157 -0.5385
14126TIP3    H263794   2.920   6.991   4.162 -0.1693 -0.1155  0.6794
14127TIP3   OH263795   0.894   3.448   3.893  0.6543  0.1918  0.4632
14127TIP3    H163796   0.847   3.371   3.923  1.2185 -1.0214 -1.5865
14127TIP3    H263797   0.914   3.430   3.801  1.6099  2.3889  0.1737
14128TIP3   OH263798   5.852   1.933  13.598 -0.5633  1.1000  0.4984
14128TIP3    H163799   5.801   1.870  13.547 -0.0789  0.9550  0.1928
14128TIP3    H263800   5.889   1.992  13.533  1.1954  0.1002  0.5458
14129TIP3   OH263801   6.887   1.994   3.939  0.2597 -0.1472  0.3479
14129TIP3    H163802   6.925   1.967   4.023 -3.8123 -1.2533  2.0854
14129TIP3    H263803   6.841   1.916   3.907 -2.9094  1.6846  0.0226
14130TIP3   OH263804   2.339   0.767   2.504  0.0016 -0.4102 -0.1806
14130TIP3    H163805   2.398   0.842   2.507 -0.7837  0.2144  1.8427
14130TIP3    H263806   2.341   0.732   2.593  0.0312 -2.5661 -0.9714
14131TIP3   OH263807   5.523   7.093   2.636  0.1204 -0.0900 -0.4922
14131TIP3    H163808   5.536   6.999   2.644  0.2644  0.0563  1.5592
14131TIP3    H263809   5.502   7.107   2.544 -1.2387 -2.2765 -0.5722
14132TIP3   OH263810   5.059   4.945   3.521  0.4217 -0.4633  0.0245
14132TIP3    H163811   4.972   4.947   3.561  0.2393  0.9096 -0.4016
14132TIP3    H263812   5.110   5.009   3.569 -0.0686  1.9402 -2.4039
14133TIP3   OH263813   3.266   6.626  12.509 -0.0222  0.4176 -1.0178
14133TIP3    H163814   3.341   6.609  12.566  0.3682  0.4148 -1.5261
14133TIP3    H263815   3.219   6.542  12.505  0.2725  0.2588 -1.1644
14134TIP3   OH263816   5.361   6.091   4.376 -0.2868 -0.3632  0.3573
14134TIP3    H163817   5.387   6.000   4.385 -1.5427 -0.6676  1.0587
14134TIP3    H263818   5.379   6.112   4.284  0.3607 -1.1925  0.2866
14135TIP3   OH263819   4.260   5.550  12.411 -0.0602  0.4442 -0.2891
14135TIP3    H163820   4.219   5.598  12.339 -1.1074  2.8399  1.7381
14135TIP3    H263821   4.348   5.588  12.418  1.0848 -1.6942 -1.9150
14136TIP3   OH263822   2.248   6.744   2.934 -0.3410  0.4064 -0.7652
14136TIP3    H163823   2.287   6.712   2.853  1.3829 -0.2085  0.2618
14136TIP3    H263824   2.171   6.689   2.947 -1.1639  1.0974 -2.3977
14137TIP3   OH263825   2.476   3.006  13.761  0.0541  0.0686  0.4508
14137TIP3    H163826   2.525   2.936  13.718  1.1282  0.6821  0.6337
14137TIP3    H263827   2.523   3.086  13.737 -0.0375  0.5357  1.7458
14138TIP3   OH263828   3.107   3.673   1.595 -0.0921  0.1714 -0.2207
14138TIP3    H163829   3.044   3.615   1.638  0.5625  0.3404  1.0106
14138TIP3    H263830   3.123   3.742   1.659  1.8397 -0.2119 -0.2494
14139TIP3   OH263831   0.482   0.346   5.582 -0.2768 -0.2478 -0.2973
14139TIP3    H163832   0.402   0.361   5.531 -0.9750 -0.9287  0.5607
14139TIP3    H263833   0.461   0.381   5.669  1.0449  1.2690 -0.5425
14140TIP3   OH263834   5.465   3.148   2.376  0.2159  0.0792 -0.1291
14140TIP3    H163835   5.537   3.172   2.318  0.2058 -1.2616 -0.7382
14140TIP3    H263836   5.507   3.114   2.455  0.2298  1.6754  0.5748
14141TIP3   OH263837   5.559   4.101   4.151 -0.4258  0.2696  0.1616
14141TIP3    H163838   5.594   4.081   4.064 -0.9738  1.3296 -0.3225
14141TIP3    H263839   5.562   4.018   4.197 -2.1712 -0.8474 -1.5910
14142TIP3   OH263840   0.944   5.320   2.732  0.5087 -0.9786 -0.4177
14142TIP3    H163841   1.036   5.343   2.743  0.4516 -0.7774 -0.3582
14142TIP3    H263842   0.945   5.233   2.691  0.7238 -1.0439 -0.2740
14143TIP3   OH263843   6.297   7.121   2.184 -0.0368 -0.3078 -0.1587
14143TIP3    H163844   6.297   7.050   2.120  0.2016 -0.8013  0.3696
14143TIP3    H263845   6.218   7.107   2.235  0.0191 -0.2037 -0.0421
14144TIP3   OH263846   6.657   4.395   4.307  0.0520 -0.0971 -0.1840
14144TIP3    H163847   6.693   4.483   4.295 -1.4659  0.7489  1.0937
14144TIP3    H263848   6.562   4.407   4.298 -0.1464 -1.7429 -0.6476
14145TIP3   OH263849   5.478   1.168   4.763  0.1926  0.6082 -0.0549
14145TIP3    H163850   5.567   1.192   4.789  0.3300  0.2951 -0.2453
14145TIP3    H263851   5.483   1.154   4.669 -0.0675  0.6246 -0.0720
14146TIP3   OH263852   6.406   1.616   1.226  0.3893  0.1792  0.8430
14146TIP3    H163853   6.402   1.535   1.276  1.0322 -0.3450  0.0719
14146TIP3    H263854   6.491   1.614   1.183 -0.6346 -0.0487 -1.3314
14147TIP3   OH263855   0.854   0.438   5.311  0.3110 -0.0980 -0.3634
14147TIP3    H163856   0.949   0.444   5.303  0.3286  0.2720  0.0320
14147TIP3    H263857   0.824   0.529   5.305  0.1690  0.0135  1.4997
14148TIP3   OH263858   6.346   3.687   3.902  0.5170 -0.5125  0.4515
14148TIP3    H163859   6.329   3.632   3.825 -0.5019  2.7561 -1.8798
14148TIP3    H263860   6.433   3.723   3.886 -0.1875  1.1231  0.1281
14149TIP3   OH263861   6.204   6.242  15.013  0.4783 -0.2290 -0.4502
14149TIP3    H163862   6.156   6.272  14.935 -0.5299  1.2995  0.6994
14149TIP3    H263863   6.279   6.194  14.978  0.9987  1.8437 -2.4122
14150TIP3   OH263864   0.980   6.696   5.283  0.1347 -0.5286 -0.4448
14150TIP3    H163865   0.932   6.753   5.343 -0.9630  0.1933 -1.9722
14150TIP3    H263866   1.066   6.737   5.275 -0.5612  0.8298 -1.3319
14151TIP3   OH263867   2.637   6.471   2.903  0.6461  0.1615 -0.1038
14151TIP3    H163868   2.578   6.396   2.904  1.0265 -0.1534 -0.7543
14151TIP3    H263869   2.690   6.460   2.982  0.0388  0.2908  0.3293
14152TIP3   OH263870   3.820   4.627   3.573  0.3697  0.1123 -0.3213
14152TIP3    H163871   3.793   4.657   3.486  0.7211 -1.6690 -1.0953
14152TIP3    H263872   3.739   4.595   3.614  0.2439  0.7314 -0.0832
14153TIP3   OH263873   5.139   1.127   0.187 -0.7731  0.2540 -0.2493
14153TIP3    H163874   5.052   1.168   0.182 -1.2355 -0.8008 -1.8982
14153TIP3    H263875   5.151   1.087   0.100  0.6396 -1.0513  0.4992
14154TIP3   OH263876   4.228   1.240   0.257 -0.3882  0.2481  0.0989
14154TIP3    H163877   4.284   1.163   0.265  1.9156  1.8339  0.4634
14154TIP3    H263878   4.275   1.297   0.196 -1.2179  1.9814  0.9946
14155TIP3   OH263879   1.734   6.119   5.330 -0.0573 -0.2228 -0.0132
14155TIP3    H163880   1.738   6.211   5.305 -0.0121 -0.0714  0.5441
14155TIP3    H263881   1.640   6.101   5.340 -0.1118 -0.4334 -0.8185
14156TIP3   OH263882   2.787   7.030   1.453 -0.6278 -0.4039  0.1520
14156TIP3    H163883   2.714   7.085   1.426 -1.0709 -0.5041  1.0767
14156TIP3    H263884   2.755   6.987   1.533  0.9337  0.6307  1.4001
14157TIP3   OH263885   3.201   1.021   1.399  0.4705  0.0456  0.8053
14157TIP3    H163886   3.265   1.081   1.436  0.0499  0.5851  0.6638
14157TIP3    H263887   3.142   1.000   1.472 -0.4919  1.2858  0.4060
14158TIP3   OH263888   2.646   0.131   1.194  0.7207 -0.4366  0.0233
14158TIP3    H163889   2.643   0.222   1.223 -2.2292 -0.2562 -0.4776
14158TIP3    H263890   2.649   0.135   1.099  2.3068 -0.9341  0.0213
14159TIP3   OH263891   0.448   0.521   4.533  0.5066 -0.1857 -0.3447
14159TIP3    H163892   0.465   0.497   4.442 -0.2071  3.0042 -1.4677
14159TIP3    H263893   0.405   0.607   4.527  0.3082  0.0679  3.0098
14160TIP3   OH263894   0.107   4.968   4.295 -0.3185 -0.2141 -0.1557
14160TIP3    H163895   0.056   4.924   4.362  0.7979  0.6186  1.3089
14160TIP3    H263896   0.066   5.054   4.285 -0.8433 -0.5549 -0.9941
14161TIP3   OH263897   7.160   2.964  12.418 -0.3081  0.0069 -0.0366
14161TIP3    H163898   7.105   3.042  12.421  0.2894  0.4222  0.5294
14161TIP3    H263899   7.208   2.972  12.336  0.9648  1.1138  0.7736
14162TIP3   OH263900   5.504   6.095   0.387 -0.3374 -0.5196  0.0782
14162TIP3    H163901   5.537   6.029   0.325  0.1801 -0.0166 -0.1855
14162TIP3    H263902   5.549   6.075   0.469  1.5438  0.8412 -0.5476
14163TIP3   OH263903   3.931   6.824   0.369 -0.2272  0.5790 -0.1932
14163TIP3    H163904   3.907   6.916   0.366  0.3199  0.7173 -0.5113
14163TIP3    H263905   3.875   6.786   0.436 -0.3031  1.1915  0.0912
14164TIP3   OH263906   2.637   6.747   3.927  0.5252 -0.3121  0.6129
14164TIP3    H163907   2.646   6.684   3.855  1.7580  0.0763  0.4156
14164TIP3    H263908   2.543   6.766   3.929  0.2518 -1.4624  0.0905
14165TIP3   OH263909   1.830   6.719   2.889  0.4145  0.2526 -0.5322
14165TIP3    H163910   1.760   6.729   2.953  1.3820  0.7648  0.4817
14165TIP3    H263911   1.869   6.807   2.882  0.5990  0.1049 -1.4956
14166TIP3   OH263912   2.042   4.271   1.732 -0.1192  0.5307  0.1240
14166TIP3    H163913   2.081   4.237   1.652  2.4268  0.5112  1.2886
14166TIP3    H263914   1.979   4.337   1.702 -0.6299 -0.7744 -1.9045
14167TIP3   OH263915   2.530   5.178   2.232 -0.4095 -0.2147 -0.4744
14167TIP3    H163916   2.451   5.227   2.209 -0.2499  0.2060 -0.1170
14167TIP3    H263917   2.568   5.154   2.147 -1.0385 -0.6169 -0.6536
14168TIP3   OH263918   5.707   4.319   5.094 -0.1914 -0.1669  0.6152
14168TIP3    H163919   5.775   4.273   5.045  0.2180  1.0158  0.0294
14168TIP3    H263920   5.743   4.331   5.181 -0.9245 -2.2903  1.2711
14169TIP3   OH263921   6.046   6.474  14.230  0.2977 -0.2601 -0.1256
14169TIP3    H163922   6.033   6.439  14.141 -3.4895  1.3003 -0.3696
14169TIP3    H263923   6.060   6.568  14.217  0.4539 -0.1267  0.9297
14170TIP3   OH263924   0.852   5.557   2.276  0.0145  0.3050 -0.1393
14170TIP3    H163925   0.792   5.624   2.309 -1.1957 -0.6017 -0.4089
14170TIP3    H263926   0.938   5.598   2.278 -0.7395  1.9794 -0.5965
14171TIP3   OH263927   4.304   6.200   4.206 -0.0233  0.4437 -1.3384
14171TIP3    H163928   4.284   6.130   4.144 -0.2989 -0.1717 -0.5741
14171TIP3    H263929   4.263   6.278   4.169 -0.9245 -0.0959 -1.5102
14172TIP3   OH263930   5.130   0.473  11.652  0.3165  0.3537  0.4248
14172TIP3    H163931   5.044   0.510  11.674  0.3879 -0.1527  1.6500
14172TIP3    H263932   5.110   0.387  11.614  0.2398  0.7704 -0.5051
14173TIP3   OH263933   1.699   3.502   4.217  0.2361  0.3707 -0.1033
14173TIP3    H163934   1.715   3.597   4.221  2.0670  0.2305 -2.1411
14173TIP3    H263935   1.763   3.465   4.278 -0.6728  0.4169  0.9121
14174TIP3   OH263936   3.339   0.688   2.649  0.8583  0.7659 -0.6641
14174TIP3    H163937   3.422   0.710   2.606  0.8794  0.7233 -0.6450
14174TIP3    H263938   3.362   0.679   2.742  0.8595  0.6150 -0.6784
14175TIP3   OH263939   1.240   2.112  14.189 -0.3852 -0.5060 -0.3831
14175TIP3    H163940   1.271   2.177  14.125 -1.4033  0.4772  0.0873
14175TIP3    H263941   1.148   2.133  14.202 -1.0860 -2.7998 -1.0824
14176TIP3   OH263942   7.032   1.805   3.614 -0.3738  0.2784 -0.0695
14176TIP3    H163943   6.939   1.828   3.609 -0.7120 -0.8910  0.4687
14176TIP3    H263944   7.033   1.719   3.658  0.7370 -1.1109 -2.6030
14177TIP3   OH263945   2.781   4.799   1.139  0.2056 -0.0905  0.0392
14177TIP3    H163946   2.829   4.859   1.196 -0.5613 -0.3715  1.0201
14177TIP3    H263947   2.739   4.738   1.199 -0.3858 -0.5822 -0.8512
14178TIP3   OH263948   7.142   7.097   1.565 -0.1434 -0.0052 -0.4577
14178TIP3    H163949   7.081   7.123   1.496  1.2523 -2.4911 -2.8149
14178TIP3    H263950   7.228   7.101   1.524  1.0610  0.7812  1.9447
14179TIP3   OH263951   1.145   5.778  14.321 -0.5669 -0.1701  0.0072
14179TIP3    H163952   1.078   5.753  14.384 -0.8644 -0.7978 -0.5509
14179TIP3    H263953   1.133   5.872  14.310 -0.8787 -0.1531  0.4634
14180TIP3   OH263954   1.752   0.657  14.681  0.3136  0.0694  0.2676
14180TIP3    H163955   1.758   0.595  14.608 -2.2834  1.5217 -1.3159
14180TIP3    H263956   1.700   0.613  14.747 -2.0157  0.6418 -1.0883
14181TIP3   OH263957   3.616   1.382   0.339 -0.1610  0.5440  0.3925
14181TIP3    H163958   3.583   1.366   0.250 -0.1812  0.0311  0.4910
14181TIP3    H263959   3.711   1.373   0.332 -0.3244 -2.6623  1.0284
14182TIP3   OH263960   5.961   0.930  15.056  0.1115  0.1525  0.2000
14182TIP3    H163961   5.950   1.002  14.994  1.0657 -0.1396 -0.3308
14182TIP3    H263962   5.916   0.856  15.015  0.8686 -0.0792 -0.2207
14183TIP3   OH263963   3.137   3.484  13.318  0.2506 -0.1136  0.2971
14183TIP3    H163964   3.188   3.513  13.394  1.6432 -0.5237 -0.4510
14183TIP3    H263965   3.150   3.389  13.315 -0.7708 -0.2625  0.2235
14184TIP3   OH263966   0.081   5.070  14.820 -0.0739 -0.0204  0.0690
14184TIP3    H163967   0.169   5.065  14.855  0.7087  0.7120 -1.6864
14184TIP3    H263968   0.043   5.149  14.859  0.9500  1.0514 -1.0232
14185TIP3   OH263969   2.602   7.097   3.710  0.4873  0.3871  0.2241
14185TIP3    H163970   2.656   7.115   3.787  0.4323  0.3890  0.2622
14185TIP3    H263971   2.516   7.133   3.732  0.8908  1.8587 -0.4703
14186TIP3   OH263972   2.772   1.848   4.082  0.1534 -0.6251  0.0750
14186TIP3    H163973   2.862   1.819   4.066  0.6889  1.9841 -2.5577
14186TIP3    H263974   2.780   1.918   4.146  0.0566 -0.1199 -0.4622
14187TIP3   OH263975   3.669   0.570   0.697 -0.6324 -1.2257  0.6027
14187TIP3    H163976   3.671   0.549   0.603 -0.1872 -2.7198  0.9239
14187TIP3    H263977   3.659   0.485   0.740 -2.1274 -0.4321  1.8761
14188TIP3   OH263978   2.505   5.500   3.183  0.2650  0.1543  0.3138
14188TIP3    H163979   2.594   5.505   3.218 -0.7836  1.8214  3.1117
14188TIP3    H263980   2.452   5.548   3.247 -2.7178 -1.1301 -1.0201
14189TIP3   OH263981   4.666   0.323   5.043 -0.4568 -0.1920  0.4725
14189TIP3    H163982   4.713   0.406   5.029 -0.2951 -0.3190  0.2440
14189TIP3    H263983   4.722   0.274   5.103 -0.2658 -0.3670  0.1540
14190TIP3   OH263984   1.678   3.081   2.198 -0.3423 -0.1573  0.2222
14190TIP3    H163985   1.734   3.146   2.240  0.6181 -1.1414  0.5045
14190TIP3    H263986   1.590   3.099   2.231  0.1775 -0.0475  1.5845
14191TIP3   OH263987   6.089   6.837   2.731 -0.2157  0.0804 -0.8218
14191TIP3    H163988   6.042   6.782   2.669  0.1368 -1.2891  0.0854
14191TIP3    H263989   6.162   6.783   2.760  0.8042  1.4495 -0.7334
14192TIP3   OH263990   0.380   5.474  11.723 -0.0732  0.0132  0.1280
14192TIP3    H163991   0.435   5.404  11.689  0.2311  0.0100  0.6109
14192TIP3    H263992   0.299   5.431  11.749  0.7641 -0.4878  2.0662
14193TIP3   OH263993   3.063   3.735  12.094 -0.0465  0.1291 -0.1584
14193TIP3    H163994   3.088   3.667  12.032 -0.2191  0.8703 -1.0730
14193TIP3    H263995   3.087   3.817  12.050 -1.7040  0.7504  0.0346
14194TIP3   OH263996   3.469   1.094   1.094  0.1575 -0.1224  0.0959
14194TIP3    H163997   3.411   1.141   1.035 -1.0636 -0.1445  1.2490
14194TIP3    H263998   3.495   1.159   1.159  0.3292 -0.4551  0.3636
14195TIP3   OH263999   1.839   1.815   4.822 -0.0047 -0.0360 -0.4941
14195TIP3    H164000   1.827   1.850   4.910 -1.0774  0.7914 -0.9481
14195TIP3    H264001   1.804   1.726   4.825  0.8499 -0.3670  0.1407
14196TIP3   OH264002   4.266   6.219   1.796  0.2647  0.5743  0.0513
14196TIP3    H164003   4.184   6.207   1.844 -0.4015  0.0206 -1.1998
14196TIP3    H264004   4.280   6.136   1.750  2.0176  0.3202  0.9516
14197TIP3   OH264005   0.545   1.523   4.083 -0.1449  0.1152 -0.0759
14197TIP3    H164006   0.550   1.544   4.176  0.8635  0.3305 -0.1685
14197TIP3    H264007   0.465   1.567   4.054 -1.9623 -2.1503  1.2015
14198TIP3   OH264008   6.277   3.707   2.538 -0.5241 -0.3796 -0.2049
14198TIP3    H164009   6.319   3.637   2.588  0.9278  1.1021  0.7636
14198TIP3    H264010   6.347   3.740   2.482 -1.1318  0.4328 -0.4900
14199TIP3   OH264011   2.007   0.175  15.284 -1.0015  0.5665 -0.4001
14199TIP3    H164012   2.081   0.235  15.294 -1.4619  0.8649  1.6510
14199TIP3    H264013   2.028   0.124  15.206  0.6100  1.6856 -0.7492
14200TIP3   OH264014   0.435   4.802  14.831  0.3935  0.4076  0.3675
14200TIP3    H164015   0.387   4.872  14.876 -0.6014  0.5346 -0.8629
14200TIP3    H264016   0.377   4.726  14.835  0.8238  0.0757  0.3713
14201TIP3   OH264017   2.825   3.554   3.905 -0.0140  0.3648  0.5241
14201TIP3    H164018   2.780   3.637   3.892 -1.4536 -0.5155 -0.4012
14201TIP3    H264019   2.758   3.488   3.888  1.5440 -1.0150 -0.5844
14202TIP3   OH264020   6.008   0.290   0.019  0.2045 -0.8488  0.3751
14202TIP3    H164021   6.014   0.350  -0.056 -0.8505 -1.1141  0.0631
14202TIP3    H264022   6.046   0.208  -0.012 -2.1985 -1.6584 -0.6542
14203TIP3   OH264023   7.110   4.390   3.538  0.0883 -0.0975 -0.0829
14203TIP3    H164024   7.073   4.325   3.598  0.9395  0.3151  0.9243
14203TIP3    H264025   7.159   4.450   3.595 -0.0099  0.9668 -1.0667
14204TIP3   OH264026   2.723   2.499   2.078  0.2571 -0.6280  0.0999
14204TIP3    H164027   2.710   2.436   2.008  1.1147  0.1526 -0.7792
14204TIP3    H264028   2.788   2.458   2.135  1.9799  0.0814 -1.2883
14205TIP3   OH264029   6.875   4.776   2.455  0.5250 -0.2777  0.1160
14205TIP3    H164030   6.818   4.719   2.404  0.6648 -0.7838  0.5195
14205TIP3    H264031   6.881   4.857   2.403 -0.9942  0.0026  0.3346
14206TIP3   OH264032   6.127   0.954   0.651 -0.5770  0.1104  0.8023
14206TIP3    H164033   6.078   0.875   0.671 -0.5278  0.1661  1.1450
14206TIP3    H264034   6.191   0.926   0.585  1.8697 -1.0473  3.4133
14207TIP3   OH264035   3.336   6.750   5.092 -0.1243 -0.0552  0.2337
14207TIP3    H164036   3.256   6.719   5.050 -1.1837  1.3688  1.1342
14207TIP3    H264037   3.336   6.708   5.178 -1.0391  1.5509  1.0603
14208TIP3   OH264038   3.393   5.787   0.358  0.0180  0.5184  0.5959
14208TIP3    H164039   3.339   5.785   0.279  0.7063  0.3648  0.1171
14208TIP3    H264040   3.330   5.788   0.430 -0.6471 -1.5592  0.1237
14209TIP3   OH264041   0.355   2.464   5.732 -0.3093  0.4084  0.3616
14209TIP3    H164042   0.350   2.534   5.798 -0.4450  0.0841  0.6978
14209TIP3    H264043   0.442   2.473   5.694 -0.9497  1.8966 -0.8475
14210TIP3   OH264044   3.980   2.645  15.019 -0.5252 -0.2453  0.6175
14210TIP3    H164045   4.073   2.639  15.039 -0.2960  0.2476 -0.2234
14210TIP3    H264046   3.966   2.738  14.998 -0.6788 -0.7039 -1.6024
14211TIP3   OH264047   3.170   7.039   1.289 -0.2916 -0.3739 -0.6462
14211TIP3    H164048   3.170   6.974   1.359  2.2353 -1.6814 -1.7329
14211TIP3    H264049   3.136   7.119   1.330 -2.1185 -1.9436  1.1010
14212TIP3   OH264050   0.871   2.370   2.937  0.1783 -0.3743 -0.6261
14212TIP3    H164051   0.868   2.353   2.843 -0.0964 -0.6204 -0.5753
14212TIP3    H264052   0.784   2.345   2.969 -0.4674  1.6497 -0.6214
14213TIP3   OH264053   4.391   1.905   1.088  0.3165 -0.2507  0.3876
14213TIP3    H164054   4.422   1.815   1.098  2.9719  0.4744 -0.5170
14213TIP3    H264055   4.410   1.947   1.172 -2.9463 -0.9645  1.6252
14214TIP3   OH264056   6.090   2.810  11.770  0.0957  0.5212 -0.2633
14214TIP3    H164057   6.170   2.784  11.725 -0.0063 -0.0421 -0.1289
14214TIP3    H264058   6.023   2.810  11.703 -0.2926 -1.4148  0.0554
14215TIP3   OH264059   6.156   1.964   2.319 -0.1425  0.2708  0.6716
14215TIP3    H164060   6.139   2.048   2.362  2.7215  1.3470 -0.0603
14215TIP3    H264061   6.078   1.948   2.266 -1.0551  2.0969  1.3730
14216TIP3   OH264062   4.858   5.059   2.186  0.0042  0.5393  0.1135
14216TIP3    H164063   4.780   5.004   2.195 -0.2026  0.7301 -0.4405
14216TIP3    H264064   4.896   5.033   2.102  0.4159  0.6067  0.2739
14217TIP3   OH264065   3.925   6.089   5.364  0.2176  0.6189 -0.6755
14217TIP3    H164066   3.945   6.095   5.271 -1.2872  0.4804 -1.0364
14217TIP3    H264067   3.887   6.174   5.387 -3.0182 -0.5494 -1.1739
14218TIP3   OH264068   6.973   0.173  15.070 -0.0999 -0.2220  0.0780
14218TIP3    H164069   7.026   0.252  15.083 -1.2318  0.6453 -0.4098
14218TIP3    H264070   6.885   0.198  15.099 -0.5532 -1.1958 -0.4115
14219TIP3   OH264071   1.768   6.996   0.274 -0.0155 -0.3273 -0.5641
14219TIP3    H164072   1.772   7.055   0.349 -0.0249 -1.5023  0.3945
14219TIP3    H264073   1.857   6.962   0.265  0.9956  2.5783 -3.4842
14220TIP3   OH264074   2.761   5.400   2.204 -0.0436  0.2367 -0.2059
14220TIP3    H164075   2.693   5.461   2.234  1.8160  2.3453 -0.0159
14220TIP3    H264076   2.760   5.409   2.109  0.7058  1.1649 -0.1410
14221TIP3   OH264077   2.442   6.135   1.734 -0.4688  0.5467 -0.6061
14221TIP3    H164078   2.472   6.096   1.816  0.4531  2.1716 -0.1209
14221TIP3    H264079   2.358   6.174   1.755  1.4748  4.4503  0.7969
14222TIP3   OH264080   3.323   2.381   0.992 -0.0666 -0.4538  0.0838
14222TIP3    H164081   3.306   2.322   1.065 -0.9209  0.1063  0.3637
14222TIP3    H264082   3.244   2.376   0.938  0.2963 -0.3826 -0.4683
14223TIP3   OH264083   5.529   0.493   3.187  0.5959 -0.0270  0.8003
14223TIP3    H164084   5.558   0.402   3.199  2.7611  0.7682  2.1705
14223TIP3    H264085   5.585   0.526   3.116 -0.3811  0.2070  0.1084
14224TIP3   OH264086   5.001   5.007   5.054 -0.2215 -0.5343  0.0240
14224TIP3    H164087   4.977   5.099   5.061  1.2728 -0.1628  0.6998
14224TIP3    H264088   5.089   5.008   5.016  1.2832 -1.4299  3.1165
14225TIP3   OH264089   0.791   3.900   3.462 -0.1700  0.1474  0.0578
14225TIP3    H164090   0.844   3.973   3.493  0.4969  0.1702 -1.0705
14225TIP3    H264091   0.775   3.920   3.369 -0.6167 -0.7675 -0.0774
14226TIP3   OH264092   3.574   6.343   1.864 -0.5009  0.1005 -0.3633
14226TIP3    H164093   3.626   6.333   1.784  1.9408  0.6621  1.0464
14226TIP3    H264094   3.512   6.413   1.844 -0.8501 -0.6566 -2.1424
14227TIP3   OH264095   3.968   5.649   2.814  0.3782 -0.0169 -0.3076
14227TIP3    H164096   3.933   5.561   2.805  1.2709 -0.5178  0.8139
14227TIP3    H264097   4.040   5.653   2.751 -0.2057  0.2084 -0.9623
14228TIP3   OH264098   4.614   5.057   3.203 -0.0956 -0.5096 -0.0934
14228TIP3    H164099   4.628   4.964   3.222 -1.5653 -0.6742  0.2510
14228TIP3    H264100   4.575   5.092   3.283  3.1238  1.1351  0.9658
14229TIP3   OH264101   6.487   0.541   1.606 -0.4049  0.3328  0.0446
14229TIP3    H164102   6.520   0.572   1.522  0.7390 -0.2042  0.2773
14229TIP3    H264103   6.441   0.616   1.644 -0.8505  0.6024 -1.0098
14230TIP3   OH264104   2.743   5.017   0.546 -0.3072 -0.1382 -0.3455
14230TIP3    H164105   2.778   5.070   0.475 -1.0793 -1.7393 -2.0012
14230TIP3    H264106   2.775   4.928   0.528  0.2432 -0.4577  1.8512
14231TIP3   OH264107   0.534   6.671  14.869 -0.2224  0.0165 -0.1290
14231TIP3    H164108   0.459   6.613  14.859  0.6043 -0.9955 -0.6710
14231TIP3    H264109   0.524   6.708  14.957 -0.9651 -0.6610  0.0863
14232TIP3   OH264110   3.259   1.190   4.453  0.6742 -0.3722 -0.2687
14232TIP3    H164111   3.187   1.154   4.505  0.5131 -0.2899 -0.4338
14232TIP3    H264112   3.248   1.151   4.366  1.0881 -0.7025 -0.1752
14233TIP3   OH264113   5.937   3.502   4.381 -0.4817 -0.2386 -0.0408
14233TIP3    H164114   5.924   3.564   4.452  1.9958 -0.3954  0.6303
14233TIP3    H264115   6.001   3.440   4.415 -0.7256 -1.4745 -1.7298
14234TIP3   OH264116   1.911   0.433   3.566  0.4161  0.2219  0.2624
14234TIP3    H164117   1.886   0.344   3.589  2.5737 -0.2509  0.9928
14234TIP3    H264118   1.958   0.466   3.642 -0.7576  2.1815  0.1879
14235TIP3   OH264119   0.933   7.077   2.305 -0.8246 -0.4304  0.6607
14235TIP3    H164120   0.960   7.042   2.220  0.4483 -1.6083  1.5086
14235TIP3    H264121   0.884   7.006   2.345  1.8888 -1.4474  2.4530
14236TIP3   OH264122   6.589   2.219  15.181 -0.3512 -0.5517  0.0790
14236TIP3    H164123   6.613   2.221  15.273  1.9469 -0.4809 -0.4548
14236TIP3    H264124   6.614   2.131  15.151  0.1965 -0.1364 -0.7424
14237TIP3   OH264125   0.391   6.700   5.368 -0.0187  0.0784  0.1777
14237TIP3    H164126   0.449   6.665   5.300 -0.0496  0.6618 -0.1656
14237TIP3    H264127   0.447   6.757   5.420  0.5152 -2.0166  2.0003
14238TIP3   OH264128   0.634   4.140   3.431 -0.3552 -0.0532  0.4084
14238TIP3    H164129   0.646   4.174   3.342 -1.3549  0.6544  0.5304
14238TIP3    H264130   0.667   4.050   3.426  0.2037  0.1820 -0.5045
14239TIP3   OH264131   3.195   0.862   5.544 -0.1414  0.4076  0.6573
14239TIP3    H164132   3.198   0.788   5.484  0.2262  1.3345 -0.5170
14239TIP3    H264133   3.109   0.857   5.585 -1.1174  0.6956 -1.2318
14240TIP3   OH264134   5.094   1.291   0.463 -0.2473 -0.1078  0.3098
14240TIP3    H164135   5.185   1.272   0.440 -0.8596 -0.2036 -2.3909
14240TIP3    H264136   5.092   1.386   0.478  0.2575 -0.0638  0.1116
14241TIP3   OH264137   6.373   4.543  11.619  1.0267 -0.5633  0.0411
14241TIP3    H164138   6.426   4.464  11.627  1.9695 -0.1041 -1.3430
14241TIP3    H264139   6.399   4.582  11.536 -0.9629  0.0806 -0.3458
14242TIP3   OH264140   4.038   4.800   4.382  0.0345 -0.5670 -0.1634
14242TIP3    H164141   4.090   4.774   4.306 -0.9766 -1.0998 -0.6852
14242TIP3    H264142   4.044   4.896   4.384  0.2590 -0.5671 -0.7768
14243TIP3   OH264143   0.813   4.071   1.851  0.4705 -0.0739 -0.3788
14243TIP3    H164144   0.757   4.002   1.818  0.2704 -0.0771 -0.0359
14243TIP3    H264145   0.902   4.042   1.831  0.4437 -0.8592  0.5618
14244TIP3   OH264146   2.560   2.000   2.966  0.4035  0.1460  0.0571
14244TIP3    H164147   2.541   2.090   2.939 -1.8439 -0.7162 -1.5716
14244TIP3    H264148   2.616   1.965   2.896  0.1224 -0.1110 -0.0429
14245TIP3   OH264149   1.174   1.266   5.879 -0.0798  0.2024  0.9627
14245TIP3    H164150   1.091   1.300   5.845 -0.0364  0.3021  0.9540
14245TIP3    H264151   1.152   1.182   5.919 -0.0039 -0.2769  0.0318
14246TIP3   OH264152   5.680   1.157   1.312 -0.0306  0.5248  0.2918
14246TIP3    H164153   5.640   1.074   1.285 -0.9643  0.7423  0.9720
14246TIP3    H264154   5.689   1.207   1.230 -1.7486  0.7140  0.1903
14247TIP3   OH264155   5.206   5.662   4.666  0.0481 -0.1273  0.7971
14247TIP3    H164156   5.167   5.580   4.696  1.3907 -0.2140  2.4228
14247TIP3    H264157   5.215   5.715   4.745  1.4646  0.6161  0.1710
14248TIP3   OH264158   6.110   3.457  14.698  0.4595 -0.2610 -0.0063
14248TIP3    H164159   6.047   3.391  14.668  0.5989 -1.1612  1.5161
14248TIP3    H264160   6.171   3.466  14.626  0.5321 -1.9704 -0.2182
14249TIP3   OH264161   6.304   0.151   2.058  0.1692 -0.2866  0.0286
14249TIP3    H164162   6.245   0.198   2.117 -0.4896  0.0090 -0.8412
14249TIP3    H264163   6.314   0.065   2.097  1.5156  0.5913  1.7366
14250TIP3   OH264164   4.289   3.864   4.737  0.2080 -0.0234  0.3081
14250TIP3    H164165   4.195   3.881   4.734  0.0468 -0.6366  1.4016
14250TIP3    H264166   4.296   3.769   4.732  0.8691  0.0787 -1.2606
14251TIP3   OH264167   5.536   7.012   4.125 -0.4499 -0.3209  0.3837
14251TIP3    H164168   5.619   7.032   4.167  0.9277  1.6266 -2.8872
14251TIP3    H264169   5.558   6.947   4.058 -1.4413  0.4859 -0.7697
14252TIP3   OH264170   3.543   4.918   3.281 -0.1764  0.2178  0.1307
14252TIP3    H164171   3.543   5.004   3.238 -0.4758 -0.2938 -0.9460
14252TIP3    H264172   3.633   4.888   3.275  0.1328  0.8439  1.3578
14253TIP3   OH264173   3.132   6.835  13.197  0.2323 -0.2094  0.0273
14253TIP3    H164174   3.052   6.860  13.150  0.0163 -0.0090  0.4884
14253TIP3    H264175   3.178   6.777  13.137  0.4717  0.8516 -0.8501
14254TIP3   OH264176   0.301   5.231   3.390 -0.3759  0.1846 -0.2788
14254TIP3    H164177   0.317   5.138   3.371 -0.4641  0.1568 -0.2183
14254TIP3    H264178   0.296   5.272   3.304  1.0904  0.3803 -0.2918
14255TIP3   OH264179   2.943   3.962   4.683  0.1737  0.2644 -0.3638
14255TIP3    H164180   2.873   4.027   4.677  0.2883  0.3483 -0.8029
14255TIP3    H264181   2.898   3.878   4.686  0.0702  0.2623 -1.5675
14256TIP3   OH264182   0.046   5.467   2.734 -0.5904  0.1430 -0.6480
14256TIP3    H164183   0.122   5.443   2.788  1.0174  3.2822 -1.2293
14256TIP3    H264184  -0.020   5.496   2.797  1.0581  3.2181 -0.1283
14257TIP3   OH264185   6.021   4.991  13.737 -0.2501 -0.0563 -0.4412
14257TIP3    H164186   6.035   5.003  13.643  0.3937 -0.3902 -0.3920
14257TIP3    H264187   6.106   4.963  13.770 -0.0758  1.4996  0.4914
14258TIP3   OH264188   4.712   0.260  13.783 -0.8134  0.6157  0.2456
14258TIP3    H164189   4.728   0.351  13.805 -0.0207  0.2212  1.3767
14258TIP3    H264190   4.776   0.211  13.835 -0.3527 -0.5080 -1.3274
14259TIP3   OH264191   0.383   2.239   0.897 -0.3954 -0.1006  0.5650
14259TIP3    H164192   0.432   2.185   0.835 -1.8575  0.1045 -0.8222
14259TIP3    H264193   0.441   2.313   0.915 -0.2212  0.2383 -1.1810
14260TIP3   OH264194   5.831   5.007  13.081  0.0731  0.1294 -0.0069
14260TIP3    H164195   5.791   5.068  13.019  2.6929  1.5079 -0.4737
14260TIP3    H264196   5.837   4.924  13.033 -1.2614  0.1485 -0.2448
14261TIP3   OH264197   1.296   0.684   2.312  0.4900 -0.4486  0.8532
14261TIP3    H164198   1.228   0.662   2.249 -1.4358  1.1962  2.1976
14261TIP3    H264199   1.378   0.672   2.265 -0.7912 -0.6399 -1.4690
14262TIP3   OH264200   4.472   0.597  15.177 -0.2348  0.2841 -0.5009
14262TIP3    H164201   4.412   0.648  15.232  2.2560  0.8665  1.9006
14262TIP3    H264202   4.546   0.656  15.162 -1.4424  0.9160 -6.3023
14263TIP3   OH264203   6.246   5.253  14.955  0.0791 -0.6581  0.4238
14263TIP3    H164204   6.322   5.253  14.896  1.2318 -0.8469  1.8535
14263TIP3    H264205   6.215   5.163  14.953 -0.1088 -0.5884 -0.1444
14264TIP3   OH264206   1.096   7.095   0.105 -0.4171  0.1567  0.9146
14264TIP3    H164207   1.059   7.124   0.188  2.8046  0.5161  2.3835
14264TIP3    H264208   1.163   7.030   0.130 -0.0351 -0.4718 -1.4784
14265TIP3   OH264209   3.712   6.448   3.282 -0.4663 -0.2090 -0.1942
14265TIP3    H164210   3.633   6.497   3.305 -0.7800 -0.4856 -0.6782
14265TIP3    H264211   3.704   6.365   3.328 -0.5487 -0.3111 -0.3907
14266TIP3   OH264212   0.905   1.413  13.898 -0.9307  0.2922  0.2529
14266TIP3    H164213   0.860   1.460  13.968  0.1831  1.5610  0.1691
14266TIP3    H264214   0.978   1.470  13.875 -0.5166 -0.7189 -1.0469
14267TIP3   OH264215   3.377   0.587   5.085 -0.5980 -0.3117 -0.2093
14267TIP3    H164216   3.370   0.657   5.149 -0.3042 -0.1875 -0.3112
14267TIP3    H264217   3.308   0.526   5.108 -1.0247  0.1398 -0.2760
14268TIP3   OH264218   4.167   0.004   0.245  0.0229  0.2660  0.3860
14268TIP3    H164219   4.198   0.092   0.267  0.9138 -0.2086  1.0812
14268TIP3    H264220   4.235  -0.054   0.278 -1.1508 -0.7669  1.0856
14269TIP3   OH264221   0.591   4.198   5.800 -0.4477 -0.4123  0.3600
14269TIP3    H164222   0.605   4.262   5.870  1.2012 -2.3066  1.9095
14269TIP3    H264223   0.650   4.125   5.822 -1.9420 -2.3203 -1.4890
14270TIP3   OH264224   2.696   2.791   5.597 -0.3156  0.3844 -0.1300
14270TIP3    H164225   2.643   2.840   5.659  0.3570 -0.1371  0.8929
14270TIP3    H264226   2.635   2.731   5.554 -0.5571 -0.3118  1.1320
14271TIP3   OH264227   7.086   6.591   2.841  0.8087 -0.3957 -0.7439
14271TIP3    H164228   7.117   6.503   2.819  1.4018 -0.1243 -1.0335
14271TIP3    H264229   7.082   6.592   2.937 -0.9476 -1.3082 -0.7613
14272TIP3   OH264230   3.752   0.503   0.362  0.6802 -0.2290  0.0251
14272TIP3    H164231   3.846   0.514   0.377  1.2919 -0.1673 -3.1570
14272TIP3    H264232   3.735   0.410   0.379  1.7107 -0.6354 -1.1100
14273TIP3   OH264233   0.708   7.007   0.443  0.1401  0.2414  0.0002
14273TIP3    H164234   0.651   7.059   0.500  0.2341 -0.0656  0.3790
14273TIP3    H264235   0.758   7.072   0.394 -1.0723  0.5267 -0.8975
14274TIP3   OH264236   4.607   3.209  14.327 -1.0553  0.7431  0.7976
14274TIP3    H164237   4.640   3.197  14.238 -1.7417 -1.0361  0.7273
14274TIP3    H264238   4.685   3.221  14.381 -0.4409 -0.7972  0.2965
14275TIP3   OH264239   1.722   6.981   3.948 -0.1588  0.2893  0.2691
14275TIP3    H164240   1.785   6.931   4.000 -0.1779  2.1020  2.1558
14275TIP3    H264241   1.726   6.941   3.861  1.8479 -1.1460  0.9492
14276TIP3   OH264242   7.113   3.652   1.852  0.0730  0.1442  0.0710
14276TIP3    H164243   7.142   3.698   1.774 -0.2889  2.5238  1.2394
14276TIP3    H264244   7.139   3.709   1.925 -1.3023 -1.0153  1.5532
14277TIP3   OH264245   7.027   4.162   5.676  0.4584 -0.1517 -0.3962
14277TIP3    H164246   7.016   4.067   5.668  1.6173 -0.1619 -2.5699
14277TIP3    H264247   7.093   4.173   5.744  1.4778 -1.0099 -1.2189
14278TIP3   OH264248   6.777   6.312  13.427 -0.0045 -0.6693  0.0018
14278TIP3    H164249   6.733   6.299  13.511 -1.3333  0.7941 -0.4143
14278TIP3    H264250   6.824   6.230  13.411 -0.2546 -1.2152  1.8448
14279TIP3   OH264251   0.967   2.797   5.945 -0.8771 -0.2982 -0.0316
14279TIP3    H164252   0.989   2.772   5.855 -1.0866  0.5008 -0.3217
14279TIP3    H264253   1.019   2.876   5.960 -3.6008  1.8107 -0.8342
14280TIP3   OH264254   3.290   0.410   1.152 -0.5683 -0.4211  0.9040
14280TIP3    H164255   3.299   0.413   1.247 -2.1296 -0.7563  1.0929
14280TIP3    H264256   3.278   0.317   1.132  2.1670 -0.6897  0.0687
14281TIP3   OH264257   1.885   2.385   2.580 -0.3987 -0.2701  0.1881
14281TIP3    H164258   1.892   2.290   2.569  0.2882 -0.2213  0.1419
14281TIP3    H264259   1.882   2.419   2.490  0.4938 -0.1786  0.1861
14282TIP3   OH264260   4.701   0.688   1.555  0.7381 -0.0936 -0.2097
14282TIP3    H164261   4.740   0.662   1.639 -0.9549 -1.9565  0.0898
14282TIP3    H264262   4.612   0.713   1.578  0.6466  0.6243 -1.3150
14283TIP3   OH264263   3.537   4.472   2.360 -0.5952  0.2019  0.4282
14283TIP3    H164264   3.589   4.552   2.359 -1.9514  1.1254  0.2512
14283TIP3    H264265   3.506   4.465   2.450 -1.2379  0.4103  0.2314
14284TIP3   OH264266   4.488   1.444   2.666  0.3539  0.6704 -0.7945
14284TIP3    H164267   4.464   1.486   2.583 -0.6537  0.3806 -0.6697
14284TIP3    H264268   4.406   1.440   2.715  0.9375  0.8517  0.2320
14285TIP3   OH264269   1.367   6.764   4.180 -0.6329  0.2598  0.0679
14285TIP3    H164270   1.426   6.701   4.221 -0.4822 -0.9796 -1.9505
14285TIP3    H264271   1.424   6.838   4.157 -0.1141 -0.3881 -0.7324
14286TIP3   OH264272   3.547   2.754   2.180 -0.1429  0.6383  0.1677
14286TIP3    H164273   3.523   2.785   2.268 -0.5978  1.1439 -0.1276
14286TIP3    H264274   3.546   2.659   2.188  2.4808  0.6398  1.4134
14287TIP3   OH264275   4.576   6.592   2.966 -0.6277 -0.2665 -0.3389
14287TIP3    H164276   4.562   6.590   2.871 -0.5444  0.8238 -0.3864
14287TIP3    H264277   4.651   6.534   2.980 -0.9101 -0.7758 -0.8826
14288TIP3   OH264278   0.910   2.970   5.657 -0.0107  0.1174  0.5025
14288TIP3    H164279   0.984   2.996   5.601  3.2921 -2.9055  2.9799
14288TIP3    H264280   0.898   3.045   5.715  1.0202  0.7545 -0.0622
14289TIP3   OH264281   0.861   0.771  13.198 -0.1560  0.1537  0.3877
14289TIP3    H164282   0.809   0.754  13.277  1.3251  1.0920  1.6111
14289TIP3    H264283   0.934   0.824  13.228  0.7180  0.1322 -1.5532
14290TIP3   OH264284   0.579   2.007   5.048  0.0688 -0.6109 -0.5650
14290TIP3    H164285   0.537   1.934   5.093 -0.5584 -0.2648 -0.5810
14290TIP3    H264286   0.585   1.979   4.956 -1.4719 -0.0873 -0.8508
14291TIP3   OH264287   6.376   3.434  10.949 -0.0452 -0.7429  0.3996
14291TIP3    H164288   6.451   3.396  10.995  0.4464 -1.7440 -1.1461
14291TIP3    H264289   6.406   3.445  10.859 -0.5631  2.3407  0.5063
14292TIP3   OH264290   2.430   3.253  11.596  0.1148  0.3066  0.3476
14292TIP3    H164291   2.462   3.331  11.552  0.0273 -0.1314 -0.5120
14292TIP3    H264292   2.350   3.229  11.549  0.3150 -0.4816  0.3820
14293TIP3   OH264293   0.038   1.600   3.687 -0.3094 -0.0547  0.7340
14293TIP3    H164294   0.071   1.520   3.729 -0.2531  0.7104  2.2037
14293TIP3    H264295  -0.006   1.568   3.608 -0.6723 -1.5944  1.5046
14294TIP3   OH264296   3.300   3.245  14.461 -0.7871 -0.2138  0.5881
14294TIP3    H164297   3.318   3.338  14.452  2.5203 -0.8587 -0.8861
14294TIP3    H264298   3.238   3.239  14.534  1.4419  2.9344  3.0038
14295TIP3   OH264299   1.318   1.362  13.892 -0.3949 -0.1209 -0.0785
14295TIP3    H164300   1.266   1.379  13.814  0.0116  1.4117 -0.0587
14295TIP3    H264301   1.258   1.376  13.965 -0.6445 -1.0475 -0.1032
14296TIP3   OH264302   5.121   6.391   0.971  0.5915  0.0204  0.3152
14296TIP3    H164303   5.061   6.332   0.926  0.9035 -0.3144  0.3373
14296TIP3    H264304   5.208   6.354   0.955  0.8266  0.6809  0.0085
14297TIP3   OH264305   2.034   3.968   1.454  0.3662  0.0487 -0.3315
14297TIP3    H164306   2.090   4.045   1.451  0.0197  0.3247  0.1004
14297TIP3    H264307   2.071   3.908   1.389  2.5125 -0.7113  1.4839
14298TIP3   OH264308   4.519   7.131   5.056 -0.5679  0.0460 -0.0328
14298TIP3    H164309   4.561   7.070   5.117 -0.3006  1.3018  1.0757
14298TIP3    H264310   4.480   7.198   5.112 -1.1840  0.6962 -1.2071
14299TIP3   OH264311   7.211   2.754   2.472  0.0679 -0.3429  0.1023
14299TIP3    H164312   7.215   2.809   2.394  0.4903  1.8653  1.5827
14299TIP3    H264313   7.138   2.790   2.522 -0.0697 -1.5935  0.8328
14300TIP3   OH264314   4.964   4.219  12.669  0.0192 -0.1476  0.1545
14300TIP3    H164315   5.043   4.180  12.633 -0.5648 -1.5028  0.2861
14300TIP3    H264316   4.959   4.186  12.759 -0.4435  0.3169  0.3058
14301TIP3   OH264317   0.620   6.169   5.072 -0.4588  0.1816 -0.0483
14301TIP3    H164318   0.541   6.212   5.104  0.1314 -0.2262  2.0440
14301TIP3    H264319   0.691   6.204   5.127  1.3440  2.4686 -3.3996
14302TIP3   OH264320   1.414   1.052   3.265 -0.1586 -0.2488 -0.1706
14302TIP3    H164321   1.439   0.961   3.250  1.0143 -0.1909  1.2046
14302TIP3    H264322   1.321   1.056   3.243  0.1998 -1.3099 -2.0948
14303TIP3   OH264323   3.673   1.674  11.901 -0.2029  0.7648  0.0178
14303TIP3    H164324   3.768   1.681  11.915 -0.1255 -0.6361  0.3398
14303TIP3    H264325   3.635   1.724  11.973  0.2877 -0.1566  0.9455
14304TIP3   OH264326   6.292   4.312   0.388  0.7804 -0.4689  0.8615
14304TIP3    H164327   6.386   4.302   0.398  1.2047  2.3784  0.6209
14304TIP3    H264328   6.254   4.257   0.457  2.5618 -2.0520  0.6295
14305TIP3   OH264329   4.101   3.203  13.917  0.5100 -0.5679 -0.3995
14305TIP3    H164330   4.125   3.112  13.899 -0.8162 -1.2150  0.8266
14305TIP3    H264331   4.167   3.233  13.980  0.1137 -1.2111  0.3558
14306TIP3   OH264332   5.521   1.645   4.472 -0.1740  0.3222 -0.8436
14306TIP3    H164333   5.592   1.595   4.511 -0.3859  1.4693  1.1233
14306TIP3    H264334   5.455   1.580   4.450  0.5898 -0.5215 -0.6885
14307TIP3   OH264335   7.145   3.616   5.560  0.7665  0.2454  0.1902
14307TIP3    H164336   7.119   3.561   5.486 -0.5307  1.1561 -0.0644
14307TIP3    H264337   7.171   3.699   5.521  0.8620  0.4608  0.7009
14308TIP3   OH264338   4.496   0.983   5.183  0.0558  0.0063  0.2431
14308TIP3    H164339   4.536   0.936   5.256  2.2352  1.2266 -0.1000
14308TIP3    H264340   4.472   0.914   5.120  0.4692 -0.8519  1.0145
14309TIP3   OH264341   6.950   4.549   3.364  0.2768  0.8782 -0.1303
14309TIP3    H164342   6.995   4.488   3.423 -0.4946 -0.4457 -0.8798
14309TIP3    H264343   7.021   4.594   3.318  0.8659  0.0194 -0.0922
14310TIP3   OH264344   0.325   0.749   4.362 -0.3823 -1.0570 -0.1775
14310TIP3    H164345   0.259   0.683   4.341 -0.6972 -0.5069 -0.9532
14310TIP3    H264346   0.299   0.826   4.312 -0.0715 -0.2999  0.7898
14311TIP3   OH264347   7.130   5.060   0.611 -0.1533  0.2896  0.1065
14311TIP3    H164348   7.103   5.035   0.699 -0.1583 -0.8513 -0.2057
14311TIP3    H264349   7.119   4.981   0.559  0.5683  0.7440 -0.7663
14312TIP3   OH264350   3.348   2.807   4.834  0.0232  0.0621  0.5012
14312TIP3    H164351   3.399   2.726   4.825  0.9358  0.6354  0.3836
14312TIP3    H264352   3.292   2.791   4.910 -0.8625 -1.2176 -0.3672
14313TIP3   OH264353   6.032   3.675   4.170  0.5935 -0.1543 -0.4921
14313TIP3    H164354   5.974   3.752   4.168  1.9906  0.9363 -0.2798
14313TIP3    H264355   5.987   3.614   4.229 -0.9448  0.1349 -1.2935
14314TIP3   OH264356   2.682   0.821   4.391 -0.5086 -0.1663  0.4526
14314TIP3    H164357   2.597   0.780   4.372  0.8384 -1.8544 -2.8761
14314TIP3    H264358   2.739   0.790   4.320  2.2682  2.8512  1.1452
14315TIP3   OH264359   7.070   2.422   2.637  0.5286 -0.0459  0.3691
14315TIP3    H164360   7.082   2.331   2.667 -0.5703  0.1043  1.3332
14315TIP3    H264361   7.147   2.440   2.584  1.1630 -1.2805  0.8331
14316TIP3   OH264362   5.810   2.076   2.385 -0.3020  0.5571 -0.0502
14316TIP3    H164363   5.730   2.076   2.332  1.0798  0.6649 -2.2878
14316TIP3    H264364   5.863   2.147   2.348  0.5277  1.0291  1.9123
14317TIP3   OH264365   1.042   2.642   1.835  0.4187 -0.3656 -0.2049
14317TIP3    H164366   1.116   2.584   1.816 -0.6581 -2.4965  1.6400
14317TIP3    H264367   1.083   2.723   1.867  1.9888 -1.4839  0.7560
14318TIP3   OH264368   0.591   3.350   5.924  0.6755  0.4871  0.0350
14318TIP3    H164369   0.657   3.390   5.867  1.5255 -0.3171  0.4187
14318TIP3    H264370   0.640   3.286   5.976  0.2472  2.2441  2.7993
14319TIP3   OH264371   1.465   6.264   5.655  0.6790 -0.0667  0.0738
14319TIP3    H164372   1.442   6.327   5.724  1.6334  0.3579  0.0226
14319TIP3    H264373   1.520   6.200   5.700  0.4504 -0.3632 -0.0725
14320TIP3   OH264374   2.803   0.660   2.250  0.5339 -0.1463 -0.2174
14320TIP3    H164375   2.895   0.637   2.266  0.5497 -0.9644 -1.3463
14320TIP3    H264376   2.759   0.575   2.240  0.0916  0.2427 -1.9309
14321TIP3   OH264377   0.233   0.663   1.008 -0.7199 -0.1251  0.0205
14321TIP3    H164378   0.243   0.624   1.096 -0.4847  0.8229  0.4227
14321TIP3    H264379   0.141   0.687   1.003 -0.1148  3.0827  1.4602
14322TIP3   OH264380   0.085   1.160   5.428  0.4090  0.1423  0.0730
14322TIP3    H164381  -0.009   1.171   5.442  0.3232 -0.2002 -0.2139
14322TIP3    H264382   0.126   1.217   5.494  0.0071 -0.0953  0.5396
14323TIP3   OH264383   1.898   2.388   4.401  0.2062  0.4326  0.4490
14323TIP3    H164384   1.844   2.449   4.350  0.2953 -0.6908 -1.0423
14323TIP3    H264385   1.943   2.335   4.336  1.1919 -0.3387  1.7004
14324TIP3   OH264386   1.925   2.945  15.128  0.2893 -0.8333  0.1663
14324TIP3    H164387   1.865   2.979  15.194 -0.3998  0.6413 -1.1515
14324TIP3    H264388   1.904   2.852  15.120 -0.3570 -0.7826  1.2318
14325TIP3   OH264389   5.373   0.523  15.257  0.2336  0.1045 -0.3251
14325TIP3    H164390   5.321   0.558  15.330 -0.0934 -2.0494  0.5773
14325TIP3    H264391   5.316   0.528  15.181 -0.9321 -1.1756  0.4215
14326TIP3   OH264392   7.025   1.243   0.371 -0.5955  0.2149 -0.0963
14326TIP3    H164393   7.089   1.190   0.324  1.1428  1.0837  1.1684
14326TIP3    H264394   6.974   1.285   0.302  1.9864  1.6110 -1.3233
14327TIP3   OH264395   5.254   0.316  11.981 -0.1504 -0.2303  0.2078
14327TIP3    H164396   5.187   0.335  12.048  0.4258 -3.1922  1.7770
14327TIP3    H264397   5.204   0.295  11.903 -0.8889  1.6499  0.1231
14328TIP3   OH264398   4.665   6.924   2.601  0.3600  0.2450  0.7186
14328TIP3    H164399   4.640   6.855   2.539  3.3509 -2.6911  2.4895
14328TIP3    H264400   4.715   6.987   2.548  0.5207 -0.7373 -0.3369
14329TIP3   OH264401   2.844   0.700  14.273 -0.0824  0.4276  0.0407
14329TIP3    H164402   2.806   0.705  14.361 -2.0153  1.4731 -0.7928
14329TIP3    H264403   2.839   0.608  14.249 -2.6903  0.5921 -0.2375
14330TIP3   OH264404   5.196   2.281   3.704  0.3970  0.0701 -0.7498
14330TIP3    H164405   5.106   2.313   3.696  1.1188  2.0085 -1.5734
14330TIP3    H264406   5.205   2.217   3.633 -0.2039  0.1798 -0.9293
14331TIP3   OH264407   5.104   2.340   1.010 -0.1802 -0.1134 -0.4848
14331TIP3    H164408   5.031   2.369   1.064  1.3784  0.9665  1.1851
14331TIP3    H264409   5.143   2.421   0.977 -0.1224 -0.6997 -1.9263
14332TIP3   OH264410   1.972   4.270   4.774  0.1597  0.7701  0.3175
14332TIP3    H164411   1.949   4.178   4.785  0.8466 -0.1222 -3.9694
14332TIP3    H264412   1.888   4.314   4.759  0.0468  0.2536 -0.6321
14333TIP3   OH264413   2.049   2.610   2.974  0.8106 -0.2192 -0.4323
14333TIP3    H164414   2.064   2.668   2.899  1.4532  1.6279  1.0594
14333TIP3    H264415   1.966   2.640   3.012 -0.0998 -1.8738 -0.9927
14334TIP3   OH264416   7.016   2.568   4.053  0.2249  0.2279 -0.1289
14334TIP3    H164417   6.926   2.602   4.048  0.7664  1.5944 -1.5580
14334TIP3    H264418   7.039   2.574   4.145 -1.1905 -0.2606  0.2763
14335TIP3   OH264419   2.422   2.119   3.438  0.2722 -0.2367  0.0081
14335TIP3    H164420   2.362   2.172   3.385  0.9900  0.1813 -0.4019
14335TIP3    H264421   2.459   2.181   3.500  1.8262 -0.0211 -1.0823
14336TIP3   OH264422   6.178   4.980  14.831 -0.3911 -0.1058  0.2444
14336TIP3    H164423   6.207   4.978  14.740 -1.0596 -2.1299  0.0421
14336TIP3    H264424   6.083   4.974  14.826 -0.5101  0.6935  1.0804
14337TIP3   OH264425   1.747   1.567  13.032  0.2644  0.0490 -0.4931
14337TIP3    H164426   1.767   1.478  13.060 -2.3935 -0.5390 -0.2293
14337TIP3    H264427   1.781   1.572  12.943  2.3910 -0.4377  0.2227
14338TIP3   OH264428   4.844   1.677  14.224  0.2927 -0.1942 -0.2543
14338TIP3    H164429   4.940   1.678  14.228  0.2708 -1.3414  2.0494
14338TIP3    H264430   4.820   1.587  14.246 -1.3243  0.1706 -0.4257
14339TIP3   OH264431   3.022   3.197  11.267  0.0532 -0.4401  0.0706
14339TIP3    H164432   2.965   3.137  11.220  0.1643  0.0098 -0.6608
14339TIP3    H264433   3.081   3.141  11.317 -0.5650 -0.9161  0.2782
14340TIP3   OH264434   3.132   2.408  12.394  0.5445 -0.4390  0.1378
14340TIP3    H164435   3.094   2.478  12.340  2.2616 -0.5743 -1.3210
14340TIP3    H264436   3.216   2.443  12.423  0.6163 -1.2264  0.9322
14341TIP3   OH264437   2.892   4.389   2.472 -0.2696  0.3875  0.3666
14341TIP3    H164438   2.826   4.454   2.447 -0.9648 -0.7976 -1.0076
14341TIP3    H264439   2.843   4.321   2.516  0.0725 -0.3146 -0.3099
14342TIP3   OH264440   0.985   0.388   1.410  0.5913 -0.7061 -0.1671
14342TIP3    H164441   0.992   0.320   1.476  2.7899  1.0809  1.5811
14342TIP3    H264442   0.922   0.353   1.347 -1.8465 -2.4533  2.9173
14343TIP3   OH264443   6.398   4.108  14.933 -0.2978 -0.0951  0.2484
14343TIP3    H164444   6.484   4.097  14.975  0.4186  0.1261 -1.0946
14343TIP3    H264445   6.419   4.133  14.843 -1.7831  1.0910  0.1944
14344TIP3   OH264446   4.686   1.648   3.250 -0.7216  0.5457 -0.6784
14344TIP3    H164447   4.668   1.636   3.344  1.7903 -0.9610 -0.3078
14344TIP3    H264448   4.612   1.606   3.207 -1.9461  1.2892  0.5945
14345TIP3   OH264449   6.471   3.984   1.063 -0.2175  0.2277  0.0148
14345TIP3    H164450   6.387   4.027   1.084 -1.0163 -1.9213  1.5958
14345TIP3    H264451   6.451   3.891   1.063  1.5488 -0.2616 -2.8716
14346TIP3   OH264452   3.157   0.650  13.781 -0.2264  0.2868 -0.2919
14346TIP3    H164453   3.247   0.622  13.760  0.0307 -1.0611  2.1697
14346TIP3    H264454   3.160   0.745  13.774  1.1725  0.2310 -1.0092
14347TIP3   OH264455   6.711   6.163   2.118 -0.2852  0.6033  0.1858
14347TIP3    H164456   6.678   6.083   2.160  1.9014 -0.0319  0.8096
14347TIP3    H264457   6.742   6.133   2.033  1.8707  0.4348  0.9755
14348TIP3   OH264458   4.390   2.840   2.429 -0.7614 -0.0653 -0.4844
14348TIP3    H164459   4.338   2.855   2.350 -1.5865  1.2549  0.2584
14348TIP3    H264460   4.336   2.782   2.483 -1.6632  1.5093  0.3974
14349TIP3   OH264461   6.025   7.045  10.114  0.5248 -0.1828 -0.7952
14349TIP3    H164462   6.114   7.029  10.082 -0.0558 -1.8583 -1.7447
14349TIP3    H264463   5.972   7.053  10.035 -0.3744 -0.5816 -0.2512
14350TIP3   OH264464   0.725   4.203   2.075  0.0125 -0.5436 -0.0411
14350TIP3    H164465   0.756   4.128   2.125 -1.5004 -2.4781 -1.8584
14350TIP3    H264466   0.770   4.197   1.991  1.3130  1.7416  0.4129
14351TIP3   OH264467   6.790   2.977   0.721  1.1610  0.1454  0.6606
14351TIP3    H164468   6.881   2.963   0.750  1.3528 -1.4828 -0.5656
14351TIP3    H264469   6.788   2.941   0.633 -0.9598 -0.8378  1.0649
14352TIP3   OH264470   2.429   1.243   4.024 -0.1895 -0.3397 -0.3593
14352TIP3    H164471   2.523   1.229   4.038 -0.0258  0.6826 -0.3525
14352TIP3    H264472   2.398   1.281   4.107 -0.1119  1.5412 -1.1350
14353TIP3   OH264473   0.866   1.047  13.721 -0.3223 -0.2353 -0.4300
14353TIP3    H164474   0.859   1.031  13.815  1.0600  1.4025  0.0109
14353TIP3    H264475   0.801   1.115  13.703 -0.0285  0.0326 -0.4887
14354TIP3   OH264476   4.379   4.703  13.783  0.1907 -0.0497  0.2271
14354TIP3    H164477   4.352   4.625  13.830 -0.0871  0.3866  0.8109
14354TIP3    H264478   4.300   4.731  13.736  0.1201  0.2130  0.4985
14355TIP3   OH264479   5.645   6.844   4.460  0.1713  0.4875  0.0693
14355TIP3    H164480   5.549   6.841   4.454  0.1398  1.1935  0.2013
14355TIP3    H264481   5.667   6.937   4.452  0.7237  0.5566  2.0056
14356TIP3   OH264482   4.911   0.509  15.007  0.5236  0.4247 -0.2448
14356TIP3    H164483   4.834   0.533  14.956  0.1237  2.2370  1.1206
14356TIP3    H264484   4.950   0.436  14.959 -0.7499  0.9688 -2.1982
14357TIP3   OH264485   7.098   0.806   2.580 -0.0115  0.2771 -0.4769
14357TIP3    H164486   7.129   0.893   2.557 -2.7443  1.4423 -0.1555
14357TIP3    H264487   7.155   0.746   2.531  1.8247  2.2037 -0.8378
14358TIP3   OH264488   5.157   2.349   1.333  0.1841  0.0854 -0.3901
14358TIP3    H164489   5.148   2.308   1.419 -0.4561  0.0775 -0.4554
14358TIP3    H264490   5.174   2.276   1.274 -1.7776 -0.2307 -0.6379
14359TIP3   OH264491   7.136   4.744   0.893  0.4148  0.5582  0.2803
14359TIP3    H164492   7.223   4.717   0.865  0.1407  0.1348 -0.1724
14359TIP3    H264493   7.077   4.680   0.853  0.0045 -0.0332  1.7845
14360TIP3   OH264494   1.082   2.977  14.975 -0.3630  0.3732  0.3185
14360TIP3    H164495   0.989   2.955  14.984  0.1597 -2.1654  0.2987
14360TIP3    H264496   1.120   2.901  14.932  1.8712  1.0205  1.0364
14361TIP3   OH264497   0.167   0.572  15.318  0.0027  0.7635  0.1914
14361TIP3    H164498   0.196   0.595  15.230 -0.7535 -0.6409 -0.4732
14361TIP3    H264499   0.218   0.628  15.376  1.3079  0.9597 -1.0894
14362TIP3   OH264500   1.566   2.682   2.533  0.3343 -0.1072  0.0824
14362TIP3    H164501   1.571   2.627   2.454 -0.2558 -1.9004  1.2389
14362TIP3    H264502   1.602   2.627   2.603 -0.4299  0.9234  1.3248
14363TIP3   OH264503   4.976   3.866   3.324 -0.0072  0.1508  0.3831
14363TIP3    H164504   4.891   3.850   3.282  0.5545 -0.0825 -0.7113
14363TIP3    H264505   5.037   3.880   3.251  0.5453  2.2755  1.1624
14364TIP3   OH264506   4.808   0.369   3.265  0.2791  0.3521 -0.0957
14364TIP3    H164507   4.772   0.420   3.192  0.2547 -0.1194 -0.4154
14364TIP3    H264508   4.841   0.435   3.326 -2.2476  0.8635  0.8088
14365TIP3   OH264509   3.832   3.118   5.122  0.3245 -0.5778 -0.1560
14365TIP3    H164510   3.902   3.081   5.067  1.1608  2.0469 -1.0314
14365TIP3    H264511   3.873   3.193   5.165 -1.3700 -0.3257  1.1069
14366TIP3   OH264512   5.312   3.948   5.100  0.0810 -0.1902 -0.1322
14366TIP3    H164513   5.246   4.008   5.136  1.5148  0.0726  2.2585
14366TIP3    H264514   5.361   4.001   5.037 -0.9084  0.0702 -0.7129
14367TIP3   OH264515   2.535   7.105  15.297  0.3252 -0.1346 -0.1605
14367TIP3    H164516   2.491   7.134  15.377 -1.3169 -0.0443 -1.0490
14367TIP3    H264517   2.624   7.083  15.324 -0.5388 -1.2752  1.9153
14368TIP3   OH264518   1.491   3.209   4.247 -0.2792 -0.4085  0.0209
14368TIP3    H164519   1.434   3.254   4.185 -1.1580 -1.5620 -0.0311
14368TIP3    H264520   1.467   3.117   4.241  1.0250 -0.8175  0.6135
14369TIP3   OH264521   6.480   3.523   4.280 -0.1024  0.5263 -0.1485
14369TIP3    H164522   6.510   3.608   4.247 -2.4912  0.5089 -2.8125
14369TIP3    H264523   6.490   3.529   4.375  3.2751  2.2980 -0.4445
14370TIP3   OH264524   3.211   1.474   1.104  0.7756 -0.0734  0.0189
14370TIP3    H164525   3.126   1.517   1.112  0.6884 -0.1510 -0.4368
14370TIP3    H264526   3.199   1.389   1.146  0.3762 -0.4136 -0.7472
14371TIP3   OH264527   2.603   2.186   5.232 -0.6440  0.1731  0.2596
14371TIP3    H164528   2.557   2.248   5.176 -1.2906 -0.4826  0.0533
14371TIP3    H264529   2.566   2.101   5.209  1.9093 -0.6490 -1.2379
14372TIP3   OH264530   0.246   1.100   5.717 -0.0058 -0.0519  0.0362
14372TIP3    H164531   0.316   1.119   5.779  0.7919  1.1464 -1.1759
14372TIP3    H264532   0.203   1.184   5.704 -1.3938 -0.6727  0.3768
14373TIP3   OH264533   5.825   4.645   0.470  0.2135  0.2412  0.3122
14373TIP3    H164534   5.915   4.629   0.441  0.5495  2.3547  0.0082
14373TIP3    H264535   5.792   4.559   0.494  1.1304 -1.1668 -2.9157
14374TIP3   OH264536   6.954   2.488   1.849  0.7485 -0.0557 -0.3411
14374TIP3    H164537   6.973   2.566   1.900  1.5317 -1.1209  1.0551
14374TIP3    H264538   6.979   2.512   1.759  1.1829  1.2087  0.0952
14375TIP3   OH264539   5.594   5.869   1.058  0.4496  0.1897 -0.0123
14375TIP3    H164540   5.635   5.782   1.058  1.0060  0.4180 -1.5063
14375TIP3    H264541   5.636   5.915   0.985  1.0547  2.1694  1.5109
14376TIP3   OH264542   0.637   6.648   5.187  0.5094  0.4504  0.4005
14376TIP3    H164543   0.554   6.603   5.168  0.1017  1.4887 -0.3763
14376TIP3    H264544   0.701   6.578   5.193  0.0102 -0.2264 -1.4243
14377TIP3   OH264545   2.827   0.138   4.054 -0.2408 -0.0494  1.0253
14377TIP3    H164546   2.909   0.188   4.059 -0.8807  1.0009  1.2023
14377TIP3    H264547   2.830   0.097   3.967  1.6996 -2.2359  2.0012
14378TIP3   OH264548   5.812   5.347   4.651 -0.4859  0.6113 -0.6959
14378TIP3    H164549   5.888   5.319   4.702 -1.2309 -1.8441 -0.7817
14378TIP3    H264550   5.762   5.402   4.711  1.2432  2.1528 -0.5947
14379TIP3   OH264551   5.029   0.446   3.761  0.1733  0.1983 -0.5491
14379TIP3    H164552   5.053   0.366   3.714 -0.1382  1.6264 -3.3460
14379TIP3    H264553   4.939   0.463   3.735 -0.6195  0.2404  1.9445
14380TIP3   OH264554   6.477   6.963   5.039  0.5015 -0.1958 -0.3344
14380TIP3    H164555   6.528   6.954   5.119 -0.9905  0.2758  0.7021
14380TIP3    H264556   6.542   6.981   4.971  1.8485 -1.2299  0.6384
14381TIP3   OH264557   7.001   0.590   5.144 -0.2899  0.0999 -0.3734
14381TIP3    H164558   7.006   0.511   5.091 -0.1215  0.5615 -1.0468
14381TIP3    H264559   6.985   0.660   5.082  0.3015  0.7042  0.1457
14382TIP3   OH264560   0.018   3.852   5.690 -0.2842  0.4135 -0.3415
14382TIP3    H164561   0.038   3.925   5.748 -0.5314  1.0471 -1.0313
14382TIP3    H264562  -0.072   3.868   5.660 -0.0963  0.2181 -1.0460
14383TIP3   OH264563   1.071   0.627   1.786 -0.3282 -0.0566  0.7891
14383TIP3    H164564   0.995   0.673   1.749 -1.0179 -1.4637  0.4195
14383TIP3    H264565   1.116   0.591   1.710 -0.2534 -0.6957  1.1365
14384TIP3   OH264566   7.075   3.040   0.591  0.3538 -0.3336  0.5316
14384TIP3    H164567   7.066   3.076   0.679  0.2003  1.1738 -0.0679
14384TIP3    H264568   6.986   3.018   0.565  0.5187 -1.8486  1.1508
14385TIP3   OH264569   3.874   0.153   5.314  0.5047  0.1822  0.3180
14385TIP3    H164570   3.861   0.124   5.404 -1.3589  0.2108  0.0929
14385TIP3    H264571   3.786   0.158   5.277  1.2796 -1.0066 -1.8932
14386TIP3   OH264572   6.591   2.113   2.484 -0.1912 -0.3620  0.1201
14386TIP3    H164573   6.639   2.031   2.495  0.1576 -0.1105  0.5333
14386TIP3    H264574   6.539   2.101   2.405  0.6947 -0.5704 -0.4389
14387TIP3   OH264575   0.177   3.844   5.206 -0.1307  0.3825 -0.3376
14387TIP3    H164576   0.251   3.823   5.149  0.1642  1.3338 -0.3189
14387TIP3    H264577   0.214   3.843   5.294 -0.8612 -2.4327  0.0494
14388TIP3   OH264578   4.648   5.057   5.125 -0.6329 -0.1318  0.1598
14388TIP3    H164579   4.635   5.057   5.030 -1.5722 -0.2080  0.2845
14388TIP3    H264580   4.672   5.147   5.145  1.3176 -0.4774 -0.3581
14389TIP3   OH264581   1.835   2.498  14.529 -0.4681  0.1185 -0.3599
14389TIP3    H164582   1.836   2.411  14.489 -0.0793 -0.0778  0.0743
14389TIP3    H264583   1.912   2.542  14.492 -0.8639  0.4098 -0.8544
14390TIP3   OH264584   6.347   2.449   3.660  0.7729  0.7358 -0.1678
14390TIP3    H164585   6.389   2.533   3.641  2.8888  0.1410  1.5106
14390TIP3    H264586   6.388   2.419   3.741 -1.6706 -0.8142  0.6078
14391TIP3   OH264587   5.471   3.940  14.776 -0.1971 -0.0244  0.5209
14391TIP3    H164588   5.526   4.018  14.780  1.3478 -0.8297 -2.2241
14391TIP3    H264589   5.526   3.869  14.809 -0.4132 -0.4672 -0.0473
14392TIP3   OH264590   5.122   6.807  13.700 -1.3854  0.1934 -0.1083
14392TIP3    H164591   5.133   6.720  13.661 -4.5403 -0.6609  0.6463
14392TIP3    H264592   5.128   6.867  13.625 -0.7738 -0.7819 -0.8734
14393TIP3   OH264593   2.510   4.740  14.334 -0.3198  0.0039  0.3852
14393TIP3    H164594   2.561   4.764  14.411  0.2181 -0.0609  0.0473
14393TIP3    H264595   2.496   4.645  14.344 -0.3923  0.0232  0.4796
14394TIP3   OH264596   5.396   2.046  14.331 -0.2000 -0.6302 -0.4022
14394TIP3    H164597   5.311   2.010  14.357 -0.4230  0.5568  0.6327
14394TIP3    H264598   5.445   2.051  14.413  0.2275  0.3371 -0.7107
14395TIP3   OH264599   2.330   3.131  13.052  0.5244  0.5704  0.1547
14395TIP3    H164600   2.269   3.204  13.040  1.3160  1.0527 -1.1050
14395TIP3    H264601   2.350   3.132  13.146 -1.8549  0.0046  0.7250
14396TIP3   OH264602   6.227   5.600   0.140  0.1653  0.3583 -0.0974
14396TIP3    H164603   6.220   5.519   0.090 -2.5898  0.7711 -0.5378
14396TIP3    H264604   6.217   5.669   0.075 -0.9650  0.9486  0.6642
14397TIP3   OH264605   0.096   0.412   1.795  0.3283  0.0863 -0.5935
14397TIP3    H164606   0.016   0.391   1.842 -0.0214 -0.0657 -1.2446
14397TIP3    H264607   0.147   0.331   1.797  0.5673  0.2511  0.0187
14398TIP3   OH264608   5.626   5.710   4.778 -0.2501  0.4985  0.4808
14398TIP3    H164609   5.665   5.792   4.809  0.3246  0.5246 -0.2812
14398TIP3    H264610   5.673   5.641   4.825 -0.6049  0.5879  0.9809
14399TIP3   OH264611   5.508   0.752   0.112 -0.3142 -0.3125 -0.0814
14399TIP3    H164612   5.591   0.716   0.082 -0.7977  0.5290 -2.6689
14399TIP3    H264613   5.533   0.824   0.171  0.7510 -0.8824  0.1826
14400TIP3   OH264614   1.284   4.597   4.268  0.3568 -0.2068 -0.1362
14400TIP3    H164615   1.194   4.624   4.252  0.0901 -0.9658  0.0605
14400TIP3    H264616   1.295   4.606   4.362  0.9633  1.3113 -0.3305
14401TIP3   OH264617   6.019   3.520  13.765  0.2009 -0.3131 -0.3910
14401TIP3    H164618   5.944   3.570  13.730 -0.1455 -1.3169 -1.1210
14401TIP3    H264619   6.077   3.587  13.801 -0.4493  0.5923 -0.9694
14402TIP3   OH264620   6.308   6.064   4.835 -0.2233 -0.0266  0.1492
14402TIP3    H164621   6.380   6.118   4.803 -0.5027  0.8213  0.8917
14402TIP3    H264622   6.350   5.983   4.863 -0.0108 -0.9763 -2.6020
14403TIP3   OH264623   3.214   5.789   2.709  0.3392 -0.1111 -0.3234
14403TIP3    H164624   3.228   5.841   2.789 -0.6353 -0.8721  0.3731
14403TIP3    H264625   3.291   5.733   2.704  0.0922 -0.5422  0.4845
14404TIP3   OH264626   0.412   1.571   2.570 -0.0165 -0.6756 -0.1973
14404TIP3    H164627   0.507   1.559   2.564 -0.0361 -0.2529 -1.7575
14404TIP3    H264628   0.375   1.501   2.516 -0.4339  0.9955 -2.2358
14405TIP3   OH264629   0.940   6.819  10.684 -0.5939  0.1781  0.2984
14405TIP3    H164630   0.917   6.863  10.765 -0.7226  1.9475 -0.6468
14405TIP3    H264631   0.905   6.876  10.615  2.2685  0.4470 -1.0789
14406TIP3   OH264632   3.147   1.662   2.461 -0.1548  0.4656  0.0064
14406TIP3    H164633   3.077   1.723   2.480  2.3912  3.3692  0.8871
14406TIP3    H264634   3.200   1.706   2.394  2.1162 -0.4367  1.0981
14407TIP3   OH264635   3.083   4.117   3.495 -0.7515 -0.3953  0.5790
14407TIP3    H164636   3.038   4.193   3.457 -2.1693 -0.7492  1.4793
14407TIP3    H264637   3.032   4.042   3.464 -0.4414 -0.8520  1.1591
14408TIP3   OH264638   1.801   7.185  13.249 -0.2964  0.0742 -0.1178
14408TIP3    H164639   1.830   7.094  13.244 -2.8258 -0.8321  0.4121
14408TIP3    H264640   1.769   7.204  13.160 -3.2325 -0.8786  0.6451
14409TIP3   OH264641   4.818   6.586   3.542 -0.1096 -0.2149  0.5372
14409TIP3    H164642   4.751   6.623   3.485 -0.8255 -2.3369 -0.0755
14409TIP3    H264643   4.779   6.589   3.629 -0.2032  0.3190  0.4825
14410TIP3   OH264644   1.640   6.828   3.642 -0.4057 -0.0095 -0.2566
14410TIP3    H164645   1.676   6.906   3.599  2.2481 -1.5123 -1.0341
14410TIP3    H264646   1.546   6.841   3.641 -0.1982  2.0916 -2.5379
14411TIP3   OH264647   2.585   3.709  14.810 -0.3487 -0.0693  0.0260
14411TIP3    H164648   2.493   3.705  14.836 -0.0018 -1.5030  1.1221
14411TIP3    H264649   2.619   3.787  14.855 -0.5304 -0.7416  1.3649
14412TIP3   OH264650   4.151   5.821   2.377 -0.1065 -0.6296  0.6030
14412TIP3    H164651   4.235   5.864   2.393 -0.1662  0.2574 -1.2811
14412TIP3    H264652   4.110   5.872   2.308 -2.4224 -0.7991  1.7605
14413TIP3   OH264653   2.558   3.702   0.905  0.1521  0.7454  0.1178
14413TIP3    H164654   2.578   3.782   0.954  2.3009  1.6688 -2.0240
14413TIP3    H264655   2.644   3.668   0.880 -0.7834 -0.4558 -1.7206
14414TIP3   OH264656   0.385   3.969   1.052  0.2721 -0.1794 -0.8140
14414TIP3    H164657   0.336   4.051   1.047  1.8889  0.8479 -0.4776
14414TIP3    H264658   0.337   3.916   1.115  0.2745  1.3147  0.5238
14415TIP3   OH264659   0.057   5.297   0.198  0.2625 -0.3610  0.1349
14415TIP3    H164660   0.130   5.311   0.258 -0.5751  3.6997  0.4791
14415TIP3    H264661   0.069   5.364   0.131 -2.6287 -0.2037 -0.3239
14416TIP3   OH264662   7.172   6.204   3.511 -0.6096  0.1910  0.7353
14416TIP3    H164663   7.154   6.113   3.488  0.0768  0.0624  0.6931
14416TIP3    H264664   7.263   6.204   3.540 -0.2863  1.0303 -0.2045
14417TIP3   OH264665   0.274   4.062   2.512 -0.2445  0.3027 -0.1462
14417TIP3    H164666   0.253   4.089   2.422  0.2360 -0.8391 -0.6174
14417TIP3    H264667   0.315   4.140   2.550  2.9756 -0.2270 -2.1090
14418TIP3   OH264668   1.022   4.754   4.240 -0.2561  0.4472  0.2496
14418TIP3    H164669   0.981   4.671   4.214  0.4069  0.2342 -0.1376
14418TIP3    H264670   1.023   4.751   4.336  0.5591 -0.4020  0.2301
14419TIP3   OH264671   5.985   2.055   2.994  0.2460 -0.5821  0.4034
14419TIP3    H164672   5.940   2.138   3.011  1.5661  0.4699 -0.9639
14419TIP3    H264673   5.996   2.016   3.081 -2.3289 -0.4346  0.8906
14420TIP3   OH264674   3.823   1.987   2.563 -0.2366  0.4784  0.2543
14420TIP3    H164675   3.886   1.978   2.635 -0.4546  0.6829  0.4760
14420TIP3    H264676   3.828   2.079   2.538 -0.5826  0.5372  0.4007
14421TIP3   OH264677   6.539   1.372  13.214 -0.3943 -0.1577  0.0956
14421TIP3    H164678   6.473   1.408  13.273  1.5569  0.8548  1.8373
14421TIP3    H264679   6.586   1.449  13.181 -0.3334 -0.8191 -1.4591
14422TIP3   OH264680   6.805   1.505   2.430 -0.3592 -0.0954 -0.2038
14422TIP3    H164681   6.739   1.441   2.404 -1.9406  1.9404 -1.5112
14422TIP3    H264682   6.805   1.570   2.360  1.6357  1.0441  0.7402
14423TIP3   OH264683   3.010   0.463   3.811  0.0210 -0.0469 -0.1181
14423TIP3    H164684   3.013   0.420   3.725  2.5235 -0.3039  0.0486
14423TIP3    H264685   2.928   0.431   3.850 -0.4131 -1.1149 -1.7864
14424TIP3   OH264686   2.107   3.387   2.439 -0.0776 -0.3964  0.0429
14424TIP3    H164687   2.187   3.377   2.388  1.0132  0.6024  1.4920
14424TIP3    H264688   2.088   3.480   2.436 -0.7687 -0.5222  0.3623
14425TIP3   OH264689   0.641   4.675  12.114 -0.8795  0.0229  0.0830
14425TIP3    H164690   0.589   4.736  12.062  2.4815  2.0792 -1.1939
14425TIP3    H264691   0.654   4.719  12.198 -1.6720 -0.7913  0.6593
14426TIP3   OH264692   6.204   3.872  13.492 -0.0555  0.1198  0.5074
14426TIP3    H164693   6.115   3.892  13.464  1.0575  1.3994 -2.5958
14426TIP3    H264694   6.222   3.785  13.455  0.6893  0.8847 -1.0628
14427TIP3   OH264695   5.371   4.868   2.107 -0.1582  0.4986  0.3010
14427TIP3    H164696   5.447   4.820   2.139 -0.3415 -0.7334 -1.0126
14427TIP3    H264697   5.301   4.802   2.103 -0.4217  0.8323 -1.5234
14428TIP3   OH264698   3.203   3.063   3.956  0.2666  0.0398 -0.4363
14428TIP3    H164699   3.130   3.069   3.895  0.1868  0.2847 -0.3201
14428TIP3    H264700   3.237   3.153   3.961 -0.6941  0.3663  1.0476
14429TIP3   OH264701   0.967   4.319   2.418  1.1305 -0.3082 -0.6258
14429TIP3    H164702   0.904   4.340   2.349  0.1735  1.2128  0.6397
14429TIP3    H264703   0.947   4.229   2.443 -1.2462  0.4474  0.4278
14430TIP3   OH264704   3.005   0.078  14.392 -0.4336 -0.3284 -0.2612
14430TIP3    H164705   3.083   0.129  14.414 -0.2774 -0.3042 -0.8576
14430TIP3    H264706   3.013  -0.001  14.445 -0.9391  0.4787  1.0669
14431TIP3   OH264707   3.610   3.120   3.239 -0.2376  0.0677  0.4461
14431TIP3    H164708   3.619   3.191   3.303  1.2451 -0.3250  0.6972
14431TIP3    H264709   3.624   3.040   3.289  1.1067 -0.2353 -0.3765
14432TIP3   OH264710   4.893   5.997   3.347 -0.5140  0.1137 -0.3678
14432TIP3    H164711   4.946   5.989   3.268 -1.4001  0.1278 -0.9791
14432TIP3    H264712   4.855   5.910   3.359 -1.0557  0.3375 -0.4484
14433TIP3   OH264713   3.006   7.032   1.943  0.8282  0.3206 -0.3895
14433TIP3    H164714   2.963   7.118   1.948  0.4216  0.2942 -2.3673
14433TIP3    H264715   3.073   7.035   2.012 -1.1271  1.0393  1.6049
14434TIP3   OH264716   2.561   4.480   4.645 -0.1010  0.1151 -0.2499
14434TIP3    H164717   2.501   4.471   4.571 -1.2198  1.5393  0.4194
14434TIP3    H264718   2.513   4.534   4.708  2.7434  3.5887 -0.6816
14435TIP3   OH264719   0.326   7.078  13.673 -0.1026 -0.1473  0.2437
14435TIP3    H164720   0.350   6.985  13.676  0.3840 -0.1575 -2.3072
14435TIP3    H264721   0.235   7.080  13.702 -0.4308 -1.5701 -0.6071
14436TIP3   OH264722   3.167   2.777   4.107 -0.0736 -0.2485 -0.1509
14436TIP3    H164723   3.132   2.866   4.101  0.2833 -0.0385  0.6599
14436TIP3    H264724   3.261   2.789   4.122  0.0701 -0.7747 -0.6121
14437TIP3   OH264725   1.571   2.155   0.788 -0.1405 -0.6642 -0.8948
14437TIP3    H164726   1.655   2.171   0.831 -0.8459 -0.5474  0.5230
14437TIP3    H264727   1.509   2.209   0.838 -1.0689 -0.7844 -1.8831
14438TIP3   OH264728   3.445   6.395   0.483  0.0885  0.6934  1.0022
14438TIP3    H164729   3.355   6.368   0.498 -0.5500  0.9941 -1.6676
14438TIP3    H264730   3.458   6.380   0.389  2.4457  1.7552  1.0976
14439TIP3   OH264731   2.225   0.440   5.227  0.4344  0.2490  0.1444
14439TIP3    H164732   2.274   0.459   5.147 -1.0042  0.7056 -0.6633
14439TIP3    H264733   2.186   0.354   5.210 -1.6839  1.2894 -0.6216
14440TIP3   OH264734   7.005   6.181   2.873 -0.4958  0.4418 -0.2477
14440TIP3    H164735   6.974   6.169   2.962  0.8505  0.0511  0.1886
14440TIP3    H264736   7.054   6.263   2.875  0.1425  0.0687 -0.4531
14441TIP3   OH264737   0.845   6.477   5.179 -0.8466 -0.6578 -0.4510
14441TIP3    H164738   0.904   6.520   5.241  0.6237  0.5743 -2.5788
14441TIP3    H264739   0.852   6.383   5.199 -0.4470 -0.2863  1.2228
14442TIP3   OH264740   5.727   2.547  12.881 -0.4958 -0.0847 -0.3230
14442TIP3    H164741   5.766   2.576  12.963 -0.7428 -1.4244  0.3031
14442TIP3    H264742   5.729   2.624  12.824 -2.4775  1.5667  1.7026
14443TIP3   OH264743   1.157   0.946  14.561  0.3203 -0.1719  0.2277
14443TIP3    H164744   1.215   0.904  14.498 -0.5907  0.5223 -1.1055
14443TIP3    H264745   1.124   0.875  14.615  1.0815 -0.7807 -0.0906
14444TIP3   OH264746   7.121   1.940   4.463  0.1433  0.2516 -0.2006
14444TIP3    H164747   7.187   1.999   4.501  2.3038 -1.6000 -0.8740
14444TIP3    H264748   7.162   1.854   4.464 -2.3496 -1.0366 -0.5976
14445TIP3   OH264749   2.326   3.813   4.753 -0.6129  0.1140 -0.4864
14445TIP3    H164750   2.347   3.893   4.704  1.5151  0.3671  0.7248
14445TIP3    H264751   2.245   3.834   4.799  0.2420  1.8751  0.3425
14446TIP3   OH264752   0.880   3.257   0.850 -0.4744 -0.0136  0.2070
14446TIP3    H164753   0.846   3.303   0.927 -0.7493 -1.2988  0.8812
14446TIP3    H264754   0.962   3.218   0.879  0.5616  1.3571 -0.8258
14447TIP3   OH264755   4.669   1.738   5.136 -0.0357  0.3839  0.2212
14447TIP3    H164756   4.737   1.788   5.180 -1.5753  0.1560  3.1107
14447TIP3    H264757   4.711   1.655   5.114  1.0980  0.9276  0.2757
14448TIP3   OH264758   0.379   1.702   0.993  0.9321  0.5714 -0.5119
14448TIP3    H164759   0.302   1.715   1.048  1.3196 -1.2280  0.5300
14448TIP3    H264760   0.427   1.785   0.999  0.2529  0.9007  0.7170
14449TIP3   OH264761   5.283   1.377   2.601  0.0385 -0.0809 -0.4216
14449TIP3    H164762   5.338   1.339   2.670  1.1391  0.2869 -1.0742
14449TIP3    H264763   5.240   1.302   2.560 -0.5221 -0.3175  0.5566
14450TIP3   OH264764   6.710   0.682   3.669 -0.6829 -0.6029 -0.1687
14450TIP3    H164765   6.657   0.749   3.626 -2.1188 -1.5296  0.0980
14450TIP3    H264766   6.669   0.669   3.754  1.5559  0.5038  1.1673
14451TIP3   OH264767   5.807   4.573   4.914 -0.1470  0.3148  0.5696
14451TIP3    H164768   5.801   4.520   4.993  1.1584 -0.9569 -0.1389
14451TIP3    H264769   5.893   4.552   4.878 -0.3331  1.5904 -0.6893
14452TIP3   OH264770   5.589   4.668  12.333 -0.1274 -0.3907  0.3025
14452TIP3    H164771   5.615   4.759  12.346  0.6355 -0.3425 -1.3441
14452TIP3    H264772   5.656   4.617  12.379  0.5902 -0.1501 -0.4459
14453TIP3   OH264773   3.573   1.605   4.884 -0.3456 -0.0190  0.4895
14453TIP3    H164774   3.531   1.548   4.820 -0.8793  1.3581 -0.4493
14453TIP3    H264775   3.562   1.560   4.968  1.8197 -2.6981 -0.5143
14454TIP3   OH264776   5.024   2.750   0.101 -0.0953 -0.4381 -0.0004
14454TIP3    H164777   4.995   2.837   0.130  0.3780 -0.1072 -0.5149
14454TIP3    H264778   4.958   2.690   0.137 -0.8654  0.2057 -0.3183
14455TIP3   OH264779   1.836   0.897   3.818 -0.3019 -0.1886  0.2311
14455TIP3    H164780   1.876   0.841   3.752 -1.0953  0.0289 -0.4448
14455TIP3    H264781   1.743   0.875   3.816 -0.5338  0.7256  0.3696
14456TIP3   OH264782   2.633   6.433  13.777  0.4889  0.3923 -0.2513
14456TIP3    H164783   2.679   6.514  13.758  1.2060  0.1203  0.2942
14456TIP3    H264784   2.627   6.388  13.693  1.9005  0.0851 -0.2061
14457TIP3   OH264785   4.622   3.082   1.627  0.1675 -0.3708 -0.5901
14457TIP3    H164786   4.580   2.999   1.648  0.3436 -0.7216 -1.5941
14457TIP3    H264787   4.710   3.074   1.665 -0.4272  0.1156  0.9565
14458TIP3   OH264788   6.714   5.540   2.876  0.1062  0.3718 -0.3062
14458TIP3    H164789   6.744   5.464   2.926  0.5153 -0.3328 -1.6018
14458TIP3    H264790   6.618   5.535   2.881  0.1366  0.0627  0.0213
14459TIP3   OH264791   5.381   5.934   3.618  0.3496  0.3530  0.2212
14459TIP3    H164792   5.320   5.976   3.558  0.9836 -0.4448 -1.0286
14459TIP3    H264793   5.327   5.872   3.668 -0.3884  1.8355  1.3213
14460TIP3   OH264794   4.985   2.763   2.085 -0.1848  0.3227 -0.1543
14460TIP3    H164795   5.012   2.676   2.113  2.8630  1.1794 -0.0109
14460TIP3    H264796   4.985   2.759   1.990  2.4986  0.7149 -0.2497
14461TIP3   OH264797   4.446   2.652   0.344 -0.2794  0.1289  0.0499
14461TIP3    H164798   4.467   2.723   0.404 -0.9097 -0.3475  0.8491
14461TIP3    H264799   4.507   2.582   0.367 -1.6478 -0.6913  1.3387
14462TIP3   OH264800   3.960   5.665  15.002 -0.9133 -0.1267  0.3233
14462TIP3    H164801   3.976   5.576  14.971  0.5690 -0.5713  2.1581
14462TIP3    H264802   3.971   5.720  14.924  1.1999 -1.2969 -0.2735
14463TIP3   OH264803   0.012   1.037   2.805 -0.1921 -0.0479 -0.1597
14463TIP3    H164804  -0.020   0.955   2.843 -0.5271 -0.0154 -0.3635
14463TIP3    H264805  -0.068   1.088   2.788  0.0563  0.7912  1.0092
14464TIP3   OH264806   6.591   2.417  12.907 -0.0310 -0.5983 -0.2333
14464TIP3    H164807   6.589   2.344  12.845 -0.0983 -1.3980  0.6844
14464TIP3    H264808   6.656   2.391  12.972  0.1932  0.3273 -0.0717
14465TIP3   OH264809   3.690   0.439  11.513  0.2943 -0.2432  0.8659
14465TIP3    H164810   3.737   0.522  11.505 -0.5050  0.2838  1.3934
14465TIP3    H264811   3.741   0.389  11.576  0.2576  0.2589  1.3074
14466TIP3   OH264812   6.074   0.093  14.750  0.3577 -0.0066 -0.2053
14466TIP3    H164813   6.004   0.151  14.720 -0.9810 -0.6898  1.4488
14466TIP3    H264814   6.151   0.150  14.757  0.0377  0.7290 -2.1943
14467TIP3   OH264815   3.830   2.964   1.623 -0.2793 -0.0754 -0.2002
14467TIP3    H164816   3.761   3.023   1.654  0.8453  1.0966  0.1606
14467TIP3    H264817   3.791   2.877   1.628 -1.6433  0.5356  0.2368
14468TIP3   OH264818   2.777   0.470   3.968  0.4685 -0.5211  0.1745
14468TIP3    H164819   2.756   0.423   4.048 -0.8797 -0.4277 -0.1020
14468TIP3    H264820   2.694   0.506   3.938  0.9543 -0.4726 -1.2204
14469TIP3   OH264821   6.608   2.493   1.563 -0.6112 -0.0261  0.0684
14469TIP3    H164822   6.584   2.400   1.568 -0.6100  0.0227  1.4948
14469TIP3    H264823   6.690   2.494   1.515  0.3270 -0.9773  1.5523
14470TIP3   OH264824   2.202   4.512   4.774  0.6854  0.3103  0.4163
14470TIP3    H164825   2.137   4.506   4.704  0.9559 -0.5692  0.2261
14470TIP3    H264826   2.219   4.606   4.783 -1.4095  0.6779  1.2152
14471TIP3   OH264827   6.387   0.654   0.096 -0.1786 -0.0533 -0.8390
14471TIP3    H164828   6.428   0.573   0.127 -0.4317  0.7814  1.9210
14471TIP3    H264829   6.454   0.721   0.108 -0.5451  0.4379 -1.4803
14472TIP3   OH264830   1.022   5.360   3.763  0.1285  0.0678 -0.6315
14472TIP3    H164831   1.113   5.375   3.736  1.3079 -0.2319  2.6226
14472TIP3    H264832   0.988   5.447   3.783  1.1531 -0.0016  1.8713
14473TIP3   OH264833   0.967   3.403   3.600  0.9473  0.9136 -0.3459
14473TIP3    H164834   0.925   3.475   3.555  0.9117  1.8678  1.1491
14473TIP3    H264835   0.945   3.325   3.548 -2.2948  1.4020  0.1208
14474TIP3   OH264836   3.112   2.330   4.934 -0.0990 -0.0138  0.4332
14474TIP3    H164837   3.173   2.265   4.969  1.0032  0.0448 -1.2575
14474TIP3    H264838   3.039   2.330   4.995  0.3752 -2.0401  1.0574
14475TIP3   OH264839   3.339   1.851  14.352  0.2766 -0.1906 -0.0888
14475TIP3    H164840   3.362   1.879  14.264 -0.7803  0.2159 -0.2525
14475TIP3    H264841   3.334   1.933  14.402 -0.4660 -0.2823  0.0064
14476TIP3   OH264842   4.712   2.491   5.769 -0.2996  0.1611  0.3735
14476TIP3    H164843   4.754   2.436   5.835  1.8876 -0.6490 -1.5642
14476TIP3    H264844   4.620   2.463   5.770 -0.5576  0.7522  3.5318
14477TIP3   OH264845   6.945   3.102   4.276 -0.8972 -0.0367  0.2154
14477TIP3    H164846   6.933   3.036   4.344  0.5652 -0.4555  0.1056
14477TIP3    H264847   6.989   3.174   4.320  0.4946 -0.5073 -0.3566
14478TIP3   OH264848   0.038   6.817   2.920  0.2622  0.1144  0.4119
14478TIP3    H164849   0.068   6.783   3.004 -0.2199  0.9826  0.9520
14478TIP3    H264850   0.002   6.741   2.874  3.1691 -0.9626 -0.2481
14479TIP3   OH264851   4.092   5.801   5.526 -0.0281 -0.0094 -0.4917
14479TIP3    H164852   4.085   5.763   5.613  0.4154 -0.4598 -0.6475
14479TIP3    H264853   4.090   5.896   5.540  0.4257 -0.0781  0.0386
14480TIP3   OH264854   4.200   1.256  15.205 -0.0244  0.0407  0.3793
14480TIP3    H164855   4.276   1.299  15.246 -1.3555  1.3667  1.5987
14480TIP3    H264856   4.138   1.327  15.191 -0.3298 -0.6952 -2.4289
14481TIP3   OH264857   3.347   6.460   4.127 -0.8173  0.1957  0.9676
14481TIP3    H164858   3.393   6.400   4.069 -0.0462  1.4187  0.2838
14481TIP3    H264859   3.293   6.403   4.182  2.2054 -1.4290  2.5171
14482TIP3   OH264860   2.937   3.169   4.417 -0.3768  0.4327  0.0969
14482TIP3    H164861   3.012   3.185   4.360  1.6717  0.5335  2.6330
14482TIP3    H264862   2.927   3.074   4.419  1.7859  0.1420  2.0645
14483TIP3   OH264863   5.140   4.523   0.405  0.3915  0.6278  0.5226
14483TIP3    H164864   5.071   4.457   0.414  0.2375  0.8250  0.8053
14483TIP3    H264865   5.215   4.474   0.370 -0.0676  0.5389 -0.3345
14484TIP3   OH264866   0.341   6.965   5.082  0.5298 -0.3447  0.4339
14484TIP3    H164867   0.259   6.934   5.044  0.8416  1.0536 -1.5374
14484TIP3    H264868   0.314   7.032   5.145  0.1198 -0.1062  0.0132
14485TIP3   OH264869   6.247   6.673   5.255 -0.1887 -0.2355  0.4480
14485TIP3    H164870   6.177   6.629   5.206 -1.2469 -1.4563  2.8515
14485TIP3    H264871   6.219   6.764   5.260 -0.7915 -0.3877 -0.0005
14486TIP3   OH264872   5.161   5.137   3.668 -0.4790 -0.2291 -0.2697
14486TIP3    H164873   5.163   5.150   3.762  0.1571 -1.1869 -0.1448
14486TIP3    H264874   5.082   5.184   3.639 -0.2631  0.7112  0.6258
14487TIP3   OH264875   6.667   2.472   0.121  0.5961  0.2676  0.6770
14487TIP3    H164876   6.714   2.509   0.047  1.0334  0.7351  1.1790
14487TIP3    H264877   6.574   2.483   0.099  0.6712  2.8467  1.3409
14488TIP3   OH264878   1.000   3.227   1.907 -0.5171 -0.6382 -0.0546
14488TIP3    H164879   0.965   3.173   1.978 -0.4130 -1.0779 -0.3319
14488TIP3    H264880   1.091   3.243   1.932 -1.0696  1.1042  1.0228
14489TIP3   OH264881   4.289   1.809   1.832  0.3115  0.1897 -0.1358
14489TIP3    H164882   4.272   1.716   1.846  0.6874 -0.3186 -2.6143
14489TIP3    H264883   4.211   1.841   1.786  0.5159  0.9220  0.0175
14490TIP3   OH264884   2.975   3.235   3.888 -0.4244  0.0802  0.3038
14490TIP3    H164885   2.927   3.257   3.968  0.2346  0.5815  0.5629
14490TIP3    H264886   2.969   3.314   3.833 -1.0584 -0.3331 -0.2427
14491TIP3   OH264887   1.395   3.387   4.085  0.1016  0.1599  0.0395
14491TIP3    H164888   1.368   3.468   4.042  0.5314  0.2866  0.0009
14491TIP3    H264889   1.480   3.366   4.046  1.0549  0.9078  1.6517
14492TIP3   OH264890   1.859   6.422  13.483 -0.1714 -0.7375 -0.1207
14492TIP3    H164891   1.781   6.459  13.526  0.6164  0.0099  0.7161
14492TIP3    H264892   1.834   6.332  13.461 -1.4845 -0.3047 -0.4568
14493TIP3   OH264893   2.374   4.952   2.079 -0.5621 -0.0276  0.2851
14493TIP3    H164894   2.300   4.965   2.138 -1.0498 -0.0566 -0.3015
14493TIP3    H264895   2.353   5.005   2.002  0.5966  0.9015  0.5836
14494TIP3   OH264896   6.308   0.462   5.051 -0.0903  0.0265  0.0897
14494TIP3    H164897   6.223   0.419   5.040 -0.1184 -0.0812  0.6656
14494TIP3    H264898   6.290   0.555   5.039  0.0475 -0.1311 -1.6077
14495TIP3   OH264899   3.613   5.752   4.941  0.0192 -0.0748  0.5775
14495TIP3    H164900   3.613   5.662   4.976  3.6139 -0.6046 -0.3063
14495TIP3    H264901   3.589   5.742   4.849  0.0598 -0.1040  0.5699
14496TIP3   OH264902   4.736   5.448   4.068  0.6976 -0.2512  0.7726
14496TIP3    H164903   4.643   5.453   4.048  0.9249  1.0704 -0.0922
14496TIP3    H264904   4.772   5.388   4.002  0.9164  1.5998 -0.8895
14497TIP3   OH264905   3.948   4.493   1.487  0.1457 -0.1173  0.2551
14497TIP3    H164906   4.003   4.442   1.546 -1.5950 -0.5112  1.6286
14497TIP3    H264907   3.899   4.427   1.437  1.7431  0.2038 -1.8731
14498TIP3   OH264908   0.863   2.249   2.683 -0.4812 -0.0326  0.5107
14498TIP3    H164909   0.813   2.178   2.724  1.0920 -2.4018 -1.3960
14498TIP3    H264910   0.805   2.283   2.615 -0.3837 -1.3065 -0.2607
14499TIP3   OH264911   2.650   1.603   4.167  0.1236  0.0388 -0.0442
14499TIP3    H164912   2.701   1.676   4.131 -0.7430  1.5588  1.6173
14499TIP3    H264913   2.588   1.581   4.099 -0.0261  1.3352 -0.3646
14500TIP3   OH264914   2.004   4.064   4.296 -0.5487  0.4470  0.8799
14500TIP3    H164915   2.030   4.020   4.216 -1.9110 -0.0055  0.6534
14500TIP3    H264916   2.070   4.132   4.309  2.1462 -2.1141  1.7223
14501TIP3   OH264917   0.444   4.388  15.112  0.2005  0.1350  0.1444
14501TIP3    H164918   0.531   4.428  15.113 -0.0489  0.7052 -0.4578
14501TIP3    H264919   0.386   4.454  15.149 -0.6259  1.3782 -3.0980
14502TIP3   OH264920   4.243   4.763  15.308  0.0696 -0.0915 -0.0541
14502TIP3    H164921   4.222   4.799  15.394  3.0002 -0.3744  0.8635
14502TIP3    H264922   4.337   4.776  15.299  0.1033 -1.5390 -2.5554
14503TIP3   OH264923   5.334   6.659   4.775  0.3182  0.0689  0.1567
14503TIP3    H164924   5.290   6.679   4.692 -1.3613 -0.0507  0.9726
14503TIP3    H264925   5.313   6.566   4.790  1.0606 -0.0528  0.4650
14504TIP3   OH264926   0.578   3.524  12.483  0.1271 -0.1606 -0.7031
14504TIP3    H164927   0.661   3.485  12.458  0.4415  0.3925 -0.5375
14504TIP3    H264928   0.600   3.615  12.506 -0.7176  0.3897 -1.9324
14505TIP3   OH264929   0.990   6.769   4.798 -0.3050  0.5152 -0.0832
14505TIP3    H164930   0.943   6.761   4.880  0.8745 -1.7911  0.4701
14505TIP3    H264931   1.068   6.820   4.820  0.9771 -1.6784  0.7891
14506TIP3   OH264932   4.345   6.861   3.769  0.3535  0.6240 -0.6232
14506TIP3    H164933   4.395   6.866   3.687 -0.9698 -2.8877 -1.8274
14506TIP3    H264934   4.389   6.794   3.820  0.2733  1.7185  0.9487
14507TIP3   OH264935   5.704   2.630  14.807 -0.0954 -0.1734  0.1117
14507TIP3    H164936   5.714   2.551  14.861 -2.6528 -0.3893  0.4127
14507TIP3    H264937   5.789   2.674  14.811  0.4581 -1.3328  2.4874
14508TIP3   OH264938   4.889   6.302   5.458  0.5537  0.4191  0.3524
14508TIP3    H164939   4.903   6.251   5.537 -0.3090  2.1870  1.7337
14508TIP3    H264940   4.870   6.390   5.490 -2.3687  0.6670 -1.6929
14509TIP3   OH264941   6.734   0.164   0.193 -0.1727 -0.4986 -0.0377
14509TIP3    H164942   6.793   0.116   0.134 -0.7402  0.6454 -1.5837
14509TIP3    H264943   6.788   0.182   0.270  0.9556 -1.0162 -0.6760
14510TIP3   OH264944   1.548   0.016   5.119  0.4611  0.2413 -0.1980
14510TIP3    H164945   1.643   0.022   5.122  0.4326  1.5919  3.9270
14510TIP3    H264946   1.517   0.103   5.141 -1.8702  0.0383 -2.1479
14511TIP3   OH264947   1.657   6.091   5.814  0.4550  0.5503  0.1894
14511TIP3    H164948   1.688   6.022   5.873  1.9028  0.6987 -0.3741
14511TIP3    H264949   1.696   6.069   5.729  1.6478  2.5121  0.1869
14512TIP3   OH264950   7.099   5.673  15.020  0.0094  0.4170  0.8010
14512TIP3    H164951   7.172   5.633  15.067 -0.0609 -1.7736 -0.7976
14512TIP3    H264952   7.024   5.660  15.078 -0.0613 -2.1355  0.2455
14513TIP3   OH264953   1.394   2.779   3.496 -0.1429  0.5997 -0.0311
14513TIP3    H164954   1.324   2.727   3.458  2.1524 -2.7060 -0.1190
14513TIP3    H264955   1.370   2.789   3.588 -0.7527 -0.3956 -0.0755
14514TIP3   OH264956   3.993   0.517   1.495  0.8038 -0.4848 -0.1580
14514TIP3    H164957   3.950   0.573   1.560  1.5639 -1.0577  0.8620
14514TIP3    H264958   3.943   0.436   1.495  2.2200 -1.4485  1.5850
14515TIP3   OH264959   1.757   4.127   3.230 -0.1860  0.2302 -0.0947
14515TIP3    H164960   1.790   4.177   3.305 -0.3451 -1.0146  0.8390
14515TIP3    H264961   1.834   4.081   3.196 -0.4675 -0.7974  0.5980
14516TIP3   OH264962   3.328   3.853   3.482  0.4289 -0.2981  0.0080
14516TIP3    H164963   3.346   3.919   3.415 -0.2746 -1.4308 -1.3375
14516TIP3    H264964   3.414   3.835   3.521  0.7370  0.8549 -0.1005
14517TIP3   OH264965   5.143   3.332  13.859  0.1195  0.2459  0.1198
14517TIP3    H164966   5.066   3.327  13.916  0.1371  0.6683  0.1857
14517TIP3    H264967   5.216   3.344  13.920  0.3511 -1.0007  0.1189
14518TIP3   OH264968   3.014   5.102  12.554  0.2939 -0.0523  0.0785
14518TIP3    H164969   3.070   5.084  12.629 -0.3366  0.2711  0.6457
14518TIP3    H264970   3.043   5.041  12.486  0.3718 -0.8779  0.8366
14519TIP3   OH264971   2.793   1.749   0.006 -0.3388 -0.7849 -0.0725
14519TIP3    H164972   2.707   1.785  -0.016 -0.1171  0.0196  0.3417
14519TIP3    H264973   2.827   1.715  -0.077 -0.6250 -0.1716 -0.4451
14520TIP3   OH264974   4.401   0.597   0.786  0.5211 -0.0944  0.3772
14520TIP3    H164975   4.341   0.610   0.712 -1.4180 -0.7755  1.7311
14520TIP3    H264976   4.349   0.547   0.849  1.4751  1.8951  2.9250
14521TIP3   OH264977   5.139   4.050   2.282 -0.0787  0.4774 -0.4248
14521TIP3    H164978   5.140   4.146   2.274 -2.6270  0.5131 -0.9649
14521TIP3    H264979   5.168   4.018   2.197 -1.4916  0.8059 -1.0508
14522TIP3   OH264980   7.051   6.441   1.211  0.0942  0.2626  0.4249
14522TIP3    H164981   6.998   6.507   1.166  1.2106 -0.3810 -1.9855
14522TIP3    H264982   7.119   6.491   1.256 -0.4019  0.8734  0.5081
14523TIP3   OH264983   3.908   6.686   2.884 -0.1228 -0.0474  0.1291
14523TIP3    H164984   3.893   6.594   2.905 -0.6831  0.6189  3.0526
14523TIP3    H264985   4.001   6.701   2.904 -0.2560  0.2181  0.5640
14524TIP3   OH264986   4.288   1.477   3.589 -0.2726 -0.0531  0.0692
14524TIP3    H164987   4.218   1.442   3.644 -1.1475  0.0271 -0.9681
14524TIP3    H264988   4.269   1.571   3.582 -2.4848 -0.6056 -3.5068
14525TIP3   OH264989   4.221   4.140   5.436 -0.2705 -0.1898  0.6631
14525TIP3    H164990   4.166   4.189   5.498 -1.1228 -0.7600  0.3717
14525TIP3    H264991   4.179   4.054   5.430 -0.6866  0.1037 -1.3153
14526TIP3   OH264992   3.610   5.996   3.732 -0.1533 -0.3773  0.4707
14526TIP3    H164993   3.559   5.943   3.671  0.4811  1.2918 -1.6111
14526TIP3    H264994   3.552   6.068   3.756  1.1569  1.7768 -2.2538
14527TIP3   OH264995   0.456   5.533   2.240 -0.6953 -0.0808 -0.5762
14527TIP3    H164996   0.519   5.547   2.311  0.3387 -0.8853 -1.2972
14527TIP3    H264997   0.415   5.618   2.228 -0.0602  0.3568  0.2162
14528TIP3   OH264998   1.680   0.016   2.974  0.7801  0.0635  0.5633
14528TIP3    H164999   1.649  -0.044   2.907 -1.2104  0.8415  0.7024
14528TIP3    H265000   1.774   0.023   2.959  0.5118 -0.3777 -1.6455
14529TIP3   OH265001   4.653   4.890   1.922 -0.1711  0.1496 -0.5255
14529TIP3    H165002   4.577   4.947   1.935  0.5004  1.1946 -1.0742
14529TIP3    H265003   4.690   4.918   1.838  0.0113 -1.2949 -0.9571
14530TIP3   OH265004   1.386   4.669   5.058  0.0997  0.0757  0.1920
14530TIP3    H165005   1.291   4.664   5.068  0.1379  0.5131  0.8681
14530TIP3    H265006   1.416   4.711   5.139  1.0019 -1.3030  0.6144
14531TIP3   OH265007   1.542   3.828   5.613 -0.5577 -0.3501 -0.1351
14531TIP3    H165008   1.580   3.899   5.665  2.2608 -0.4912 -1.8405
14531TIP3    H265009   1.451   3.855   5.599  0.0692  2.2873  0.3520
14532TIP3   OH265010   4.775   1.224   2.118  0.0295 -0.2817  0.2199
14532TIP3    H165011   4.753   1.283   2.046  0.7032  0.4412  0.5927
14532TIP3    H265012   4.690   1.196   2.152 -0.4005  2.1859  1.4176
14533TIP3   OH265013   0.163   2.254   2.647 -0.1685 -0.0194  0.8207
14533TIP3    H165014   0.228   2.291   2.586  0.8100  0.8198  2.2926
14533TIP3    H265015   0.192   2.285   2.733 -2.7805  0.7321  1.5109
14534TIP3   OH265016   2.986   6.798  14.922 -0.5673  0.3838  0.1773
14534TIP3    H165017   2.976   6.892  14.906  1.2267  0.6674  0.4610
14534TIP3    H265018   3.079   6.781  14.905 -0.5542 -1.0593  1.4876
14535TIP3   OH265019   3.825   4.614   3.036  0.0479 -0.0840  0.0599
14535TIP3    H165020   3.773   4.577   2.965 -2.7097 -0.3310  2.0603
14535TIP3    H265021   3.797   4.567   3.114  2.7292  0.3951  1.4425
14536TIP3   OH265022   2.273   5.214   5.031 -0.2973 -0.0441  0.1527
14536TIP3    H165023   2.187   5.220   4.989  0.0559  0.3691 -0.5460
14536TIP3    H265024   2.254   5.203   5.124 -1.1122  0.9009  0.1147
14537TIP3   OH265025   2.691   2.385   1.765  0.5686 -0.0512  0.3035
14537TIP3    H165026   2.603   2.385   1.803  0.5408  0.5230  0.2459
14537TIP3    H265027   2.709   2.293   1.747 -0.9083  0.0042 -1.7602
14538TIP3   OH265028   5.938   5.334   2.144  0.1420 -0.1303 -0.5253
14538TIP3    H165029   5.907   5.285   2.068  1.1823 -1.0594 -0.3765
14538TIP3    H265030   5.886   5.414   2.144 -0.1895 -0.3238 -1.9507
14539TIP3   OH265031   5.386   2.729   0.618  0.4577  0.9357  0.4303
14539TIP3    H165032   5.353   2.710   0.706  0.2436 -1.0006 -0.0183
14539TIP3    H265033   5.481   2.735   0.629  0.6697 -1.3727  0.5538
14540TIP3   OH265034   5.207   1.491   3.249 -0.0304  0.3243 -0.2475
14540TIP3    H165035   5.130   1.439   3.225 -0.5183  1.2596 -0.7919
14540TIP3    H265036   5.187   1.525   3.336 -0.8809  1.6886 -0.9370
14541TIP3   OH265037   2.162   4.234   1.977  0.4298 -0.0873 -0.2914
14541TIP3    H165038   2.249   4.206   1.948 -0.0236  0.0544 -1.8905
14541TIP3    H265039   2.109   4.232   1.898 -0.9802  0.0442  0.6216
14542TIP3   OH265040   3.102   0.901   3.586 -0.6901 -0.5456  0.4396
14542TIP3    H165041   3.091   0.822   3.533 -0.8136 -0.1109 -0.1904
14542TIP3    H265042   3.177   0.882   3.642 -0.8237 -1.1725  0.4146
14543TIP3   OH265043   2.937   0.260   0.230 -0.5998  0.2452 -0.2918
14543TIP3    H165044   2.894   0.333   0.186 -0.7742  0.3055 -0.0241
14543TIP3    H265045   3.008   0.301   0.281 -1.7941  0.4511  1.2718
14544TIP3   OH265046   5.809   2.033  14.614  0.4568 -0.1863 -0.4640
14544TIP3    H165047   5.828   2.044  14.707  0.4695 -1.2195 -0.3326
14544TIP3    H265048   5.892   2.051  14.570  0.0875  1.8582 -0.4265
14545TIP3   OH265049   3.553   1.262   4.416  0.4227  0.0841  0.2243
14545TIP3    H165050   3.481   1.214   4.456  0.1777 -0.5436 -0.9360
14545TIP3    H265051   3.631   1.231   4.463 -0.0809  1.1826  1.8690
14546TIP3   OH265052   7.080   1.047   0.594  0.6380 -0.2676 -0.4914
14546TIP3    H165053   7.047   1.106   0.526  1.5045  1.7295  0.7529
14546TIP3    H265054   7.134   1.102   0.650  2.6023 -2.5414 -0.0100
14547TIP3   OH265055   1.288   2.756   3.745  0.0738 -0.7412  0.1901
14547TIP3    H165056   1.212   2.758   3.802  0.6957 -1.4440  1.0735
14547TIP3    H265057   1.353   2.810   3.789 -0.1986  0.6239 -1.0147
14548TIP3   OH265058   4.233   1.804   4.624  0.2662 -0.5012  0.4380
14548TIP3    H165059   4.177   1.861   4.676  1.3050  0.2298  0.7949
14548TIP3    H265060   4.304   1.779   4.683 -0.1566 -2.1722  0.2769
14549TIP3   OH265061   2.186   2.101  15.248 -0.4671  0.5198 -0.0800
14549TIP3    H165062   2.223   2.113  15.336 -0.8823  0.2823  0.1301
14549TIP3    H265063   2.115   2.165  15.242  0.7329  1.8303 -0.9394
14550TIP3   OH265064   1.025   5.874   4.285  0.0268 -0.2339  0.4325
14550TIP3    H165065   0.935   5.851   4.262 -1.0218  1.5323  2.4586
14550TIP3    H265066   1.034   5.848   4.377  1.3211  0.3298  0.4931
14551TIP3   OH265067   2.747   4.373   0.503 -0.2619  0.3563 -0.1993
14551TIP3    H165068   2.780   4.306   0.442  0.3675  0.8187 -0.3675
14551TIP3    H265069   2.688   4.324   0.561  0.9650 -0.5643  0.3324
14552TIP3   OH265070   2.654   2.879   3.061 -0.0106  0.7599 -0.1094
14552TIP3    H165071   2.639   2.839   2.975 -0.1732 -0.5889  0.5123
14552TIP3    H265072   2.569   2.913   3.087 -0.6010 -1.1647  0.6256
14553TIP3   OH265073   0.468   6.067  13.114  0.2500 -0.5688 -0.0538
14553TIP3    H165074   0.524   6.017  13.054  0.0461  0.3133 -1.0128
14553TIP3    H265075   0.521   6.141  13.141 -0.0017 -0.4370  0.0892
14554TIP3   OH265076   5.922   5.550  15.090  0.2767 -0.0978 -0.2526
14554TIP3    H165077   5.995   5.573  15.148  1.6085 -2.6427 -0.7561
14554TIP3    H265078   5.960   5.489  15.027 -1.6311  0.8863 -2.4892
14555TIP3   OH265079   0.052   5.441   4.347 -0.2711  0.6761 -0.0228
14555TIP3    H165080   0.129   5.447   4.404 -0.0468 -2.2722  0.1250
14555TIP3    H265081   0.087   5.449   4.258 -0.0855  1.2481  0.0944
14556TIP3   OH265082   5.505   6.150   4.153 -0.1279 -0.1336  0.3375
14556TIP3    H165083   5.494   6.243   4.176 -0.5003 -0.1284  0.1352
14556TIP3    H265084   5.473   6.144   4.063  0.6327 -0.3050  0.0729
14557TIP3   OH265085   6.684   5.938   4.620  0.0356  0.3900  0.4640
14557TIP3    H165086   6.778   5.945   4.607 -0.0776  1.6846  0.1246
14557TIP3    H265087   6.649   5.921   4.532 -0.1703  1.7784  0.2554
14558TIP3   OH265088   0.139   4.718   5.742 -0.1714 -0.1873 -0.3722
14558TIP3    H165089   0.086   4.649   5.702 -0.3970  0.1246 -0.6033
14558TIP3    H265090   0.186   4.672   5.812 -2.4952 -0.0387  1.4165
14559TIP3   OH265091   5.731   5.573   3.838 -0.3884 -0.4104  0.6519
14559TIP3    H165092   5.809   5.568   3.893 -0.3862  0.0919  0.7021
14559TIP3    H265093   5.757   5.630   3.766 -0.5990 -0.5297  0.4829
14560TIP3   OH265094   1.705   5.623   1.266  0.5359  0.2814  0.1984
14560TIP3    H165095   1.720   5.717   1.256 -1.6312  0.5708 -1.1178
14560TIP3    H265096   1.738   5.585   1.185 -0.4025  0.2031 -0.1626
14561TIP3   OH265097   2.926   2.637   4.179 -0.3355 -0.6257 -0.4182
14561TIP3    H165098   2.835   2.607   4.187 -0.9692  1.4652  1.0594
14561TIP3    H265099   2.923   2.706   4.113  0.1638 -0.5210 -0.3360
14562TIP3   OH265100   0.296   3.717  14.541 -0.0154  0.6380 -0.4554
14562TIP3    H165101   0.248   3.784  14.492  1.4640  0.0801 -2.8460
14562TIP3    H265102   0.342   3.765  14.609 -1.4006  1.5833 -0.1392
14563TIP3   OH265103   2.191   6.194   4.562 -0.1206  0.4127  0.4096
14563TIP3    H165104   2.095   6.195   4.559 -0.1249 -0.3743 -0.3611
14563TIP3    H265105   2.213   6.214   4.653 -1.0172  0.5317  0.6109
14564TIP3   OH265106   0.889   2.606   3.338  0.3984  0.1402 -0.1161
14564TIP3    H165107   0.932   2.563   3.264  1.2816  1.5486 -0.4482
14564TIP3    H265108   0.960   2.646   3.388 -0.2345 -0.3222  1.2186
14565TIP3   OH265109   1.353   4.236  13.352  0.1471  0.7556  0.1144
14565TIP3    H165110   1.401   4.188  13.420 -1.0297 -0.2586  0.2777
14565TIP3    H265111   1.400   4.319  13.343  1.9333 -0.1934  0.2192
14566TIP3   OH265112   3.853   5.841   2.459  0.5012  0.1953 -0.8227
14566TIP3    H165113   3.943   5.810   2.465  0.1233 -0.8587 -0.3380
14566TIP3    H265114   3.821   5.805   2.375 -0.4708 -2.3188  0.5104
14567TIP3   OH265115   4.990   3.166   4.996 -0.1327 -0.1873  0.5561
14567TIP3    H165116   4.954   3.094   5.048  1.1941  0.6692  2.7913
14567TIP3    H265117   4.939   3.242   5.022 -0.3782  0.0263 -0.5043
14568TIP3   OH265118   2.210   2.475   4.731  0.1222  0.2606 -0.2351
14568TIP3    H165119   2.167   2.413   4.673  0.1371  0.4257 -0.4236
14568TIP3    H265120   2.206   2.435   4.818  1.3570 -0.6568 -0.5664
14569TIP3   OH265121   5.918   3.127  13.900 -0.1882 -0.0495 -0.0013
14569TIP3    H165122   5.932   3.082  13.817  0.7556 -0.6887  0.4759
14569TIP3    H265123   5.967   3.209  13.891  0.8741 -0.6296  0.3199
14570TIP3   OH265124   2.799   0.917   4.994 -0.5090 -0.3000  0.6595
14570TIP3    H165125   2.799   0.941   4.901  2.5171  0.1297  0.6734
14570TIP3    H265126   2.752   0.989   5.037  0.4563  0.9457 -0.2911
14571TIP3   OH265127   3.736   5.667   2.670  0.0960 -0.0343  0.3345
14571TIP3    H165128   3.797   5.593   2.679 -0.7733 -0.9481 -0.9367
14571TIP3    H265129   3.787   5.734   2.625  0.4978 -0.3922  0.2457
14572TIP3   OH265130   6.790   2.820   2.458 -0.1896  0.4457  0.3918
14572TIP3    H165131   6.704   2.859   2.443  0.9364  2.0801 -2.6601
14572TIP3    H265132   6.772   2.728   2.474 -2.5099  0.7038 -0.3516
14573TIP3   OH265133   5.445   7.088   4.413 -0.4633  0.1053  0.2091
14573TIP3    H165134   5.421   7.014   4.357 -0.8380  0.8739 -0.6695
14573TIP3    H265135   5.391   7.161   4.382  0.5306  0.9846  0.4760
14574TIP3   OH265136   4.475   6.415   3.668 -0.5974 -0.4066 -0.4579
14574TIP3    H165137   4.514   6.351   3.608 -1.2978 -0.3517 -0.9839
14574TIP3    H265138   4.437   6.481   3.611 -0.4431  0.1473  0.0757
14575TIP3   OH265139   0.907   4.329  14.658  0.1459 -0.0582  1.0960
14575TIP3    H165140   0.907   4.242  14.699 -2.5299  0.2676  1.9962
14575TIP3    H265141   0.857   4.384  14.718  2.7162  2.4757  1.1206
14576TIP3   OH265142   1.104   1.263   1.285 -0.7985 -0.0661  0.1793
14576TIP3    H165143   1.165   1.238   1.355 -0.9867 -0.9906  0.0253
14576TIP3    H265144   1.017   1.243   1.320 -1.0589  1.6407  0.5555
14577TIP3   OH265145   3.303   3.620   2.992  0.7760 -0.8726 -0.1558
14577TIP3    H165146   3.356   3.540   3.002  3.1874  0.8116  1.6925
14577TIP3    H265147   3.359   3.679   2.942  1.6033  1.5935  3.3157
14578TIP3   OH265148   4.156   3.243   4.736 -0.0101 -0.1426  0.7875
14578TIP3    H165149   4.100   3.175   4.775 -1.2996  0.5725  0.2365
14578TIP3    H265150   4.197   3.285   4.811 -1.5896  0.4757  1.3597
14579TIP3   OH265151   1.274   3.434   4.409 -0.5763  0.4299  0.1547
14579TIP3    H165152   1.208   3.494   4.375 -1.4867 -1.0080 -0.7214
14579TIP3    H265153   1.239   3.404   4.493 -1.5526 -1.0551 -0.7400
14580TIP3   OH265154   2.031   5.908   5.408 -0.2104  0.1296  0.6628
14580TIP3    H165155   1.996   5.820   5.397  0.1868 -0.0023  0.4224
14580TIP3    H265156   2.065   5.909   5.497  1.7536 -0.6915 -0.0137
14581TIP3   OH265157   7.200   1.403   2.858  0.0198 -0.2093 -0.0002
14581TIP3    H165158   7.170   1.493   2.868 -0.9694 -0.4078 -0.8686
14581TIP3    H265159   7.292   1.405   2.882  0.0239  1.0418 -0.0401
14582TIP3   OH265160   5.950   6.423   4.557 -0.1781 -0.2519  0.2079
14582TIP3    H165161   5.867   6.470   4.566 -0.9568 -1.7956  1.4454
14582TIP3    H265162   6.004   6.456   4.630 -0.2462 -0.3400  0.2977
14583TIP3   OH265163   6.175   4.438   5.603  0.1358  0.2540 -0.2361
14583TIP3    H165164   6.227   4.384   5.662 -1.2530 -0.7535  0.0986
14583TIP3    H265165   6.220   4.523   5.603 -0.1588  0.5293  2.7974
14584TIP3   OH265166   5.158   2.904  14.235 -0.0067  0.4372 -0.1378
14584TIP3    H165167   5.216   2.882  14.162  0.3012  0.7458  0.0122
14584TIP3    H265168   5.214   2.899  14.313 -0.1082  1.0168 -0.0218
14585TIP3   OH265169   3.919   3.166   2.056  0.3304  0.2257 -0.0783
14585TIP3    H165170   4.015   3.176   2.059  0.5855 -1.4690 -1.1691
14585TIP3    H265171   3.894   3.156   2.148  1.4550 -0.9904  0.1401
14586TIP3   OH265172   4.113   0.933   3.026 -0.3855  0.0929  0.6772
14586TIP3    H165173   4.104   1.019   2.986 -0.8339 -0.4089 -0.3192
14586TIP3    H265174   4.034   0.885   2.999 -0.2179 -0.5832  1.3474
14587TIP3   OH265175   3.385   6.485   3.601 -0.1963  0.9743  0.1038
14587TIP3    H165176   3.417   6.469   3.690 -1.3822 -0.7050  0.2723
14587TIP3    H265177   3.291   6.470   3.606  0.0628 -2.3499 -2.0113
14588TIP3   OH265178   7.033   1.994   1.517 -0.1477 -0.4271 -0.0658
14588TIP3    H165179   7.055   2.009   1.425 -1.5175 -1.2879 -0.5621
14588TIP3    H265180   7.002   1.903   1.520 -0.0032 -0.4568  1.2832
14589TIP3   OH265181   0.893   2.832   0.638  0.0824  0.1192  0.6212
14589TIP3    H165182   0.803   2.798   0.638  0.5542 -1.1712  1.3586
14589TIP3    H265183   0.923   2.821   0.548  0.2654 -1.5720  0.8666
14590TIP3   OH265184   5.294   1.205   3.334  0.2738 -0.3283 -0.2276
14590TIP3    H165185   5.208   1.235   3.363 -0.0244  0.3174 -1.6968
14590TIP3    H265186   5.357   1.259   3.383 -0.2210  0.9854 -0.9787
14591TIP3   OH265187   2.562   5.713   2.758  0.3247 -0.1645 -0.2612
14591TIP3    H165188   2.593   5.704   2.848  0.7436  1.7602 -0.1536
14591TIP3    H265189   2.500   5.787   2.763  0.1449 -0.2223 -1.5057
14592TIP3   OH265190   2.202   6.520   5.486  0.2882 -0.1755  0.2676
14592TIP3    H165191   2.272   6.497   5.425  2.6767  0.9789  2.3770
14592TIP3    H265192   2.248   6.548   5.566 -2.3984  4.1419  0.6164
14593TIP3   OH265193   1.402   1.857   4.360  0.7778  0.0664 -0.3433
14593TIP3    H165194   1.369   1.911   4.431  0.1994  0.4379 -0.8922
14593TIP3    H265195   1.428   1.775   4.403  2.0725  0.9101  0.5547
14594TIP3   OH265196   2.148   6.906   3.994  0.1476 -0.3075  0.0193
14594TIP3    H165197   2.163   7.000   4.001  1.8451 -0.6770  2.9638
14594TIP3    H265198   2.064   6.891   4.038  1.1945 -0.3844  2.1157
14595TIP3   OH265199   5.746   6.163   3.374  0.4350  0.9142  0.2493
14595TIP3    H165200   5.719   6.085   3.422  1.4584  0.2606 -0.1998
14595TIP3    H265201   5.757   6.133   3.284  2.4580  1.1530  0.3662
14596TIP3   OH265202   4.790   3.521   3.299 -0.5534  0.6401  0.1347
14596TIP3    H165203   4.869   3.509   3.245 -1.1140 -0.4801 -0.4561
14596TIP3    H265204   4.721   3.477   3.251 -1.5696  1.6507  0.6315
14597TIP3   OH265205   1.197   0.684   3.190  0.3891 -0.3430 -0.4081
14597TIP3    H165206   1.168   0.651   3.275 -1.3286 -1.4976 -1.3694
14597TIP3    H265207   1.117   0.718   3.149  1.2980  0.7700 -1.3223
14598TIP3   OH265208   2.783   5.684   5.733  0.3164  0.3170  0.1501
14598TIP3    H165209   2.780   5.723   5.646 -0.0122  1.2745  0.5783
14598TIP3    H265210   2.732   5.744   5.788  0.4533 -0.3143  0.9857
14599TIP3   OH265211   1.548   5.465   2.250  0.2465  0.1553  0.0178
14599TIP3    H165212   1.518   5.489   2.163 -1.8456 -0.1963  0.5852
14599TIP3    H265213   1.638   5.499   2.255  0.9040 -0.9181 -2.6881
14600TIP3   OH265214   1.095   1.759   2.061  0.2510  0.2025 -0.1745
14600TIP3    H165215   1.045   1.678   2.074 -0.3508  0.3327 -1.5426
14600TIP3    H265216   1.059   1.820   2.126  0.4344 -0.4906  0.5969
14601TIP3   OH265217   6.738   2.676   1.373 -0.4472  0.3981 -0.0259
14601TIP3    H165218   6.651   2.684   1.410 -0.4220 -1.0334  0.3816
14601TIP3    H265219   6.726   2.693   1.279 -1.0026  1.0433  0.1568
14602TIP3   OH265220   0.005   2.222   1.936  0.1069 -0.0117 -0.0366
14602TIP3    H165221  -0.028   2.204   2.024 -3.2270 -1.1007 -1.3680
14602TIP3    H265222  -0.028   2.150   1.883  3.1257 -0.0962 -2.0228
14603TIP3   OH265223   1.471   4.951   4.131  0.0709  0.1306 -0.3486
14603TIP3    H165224   1.445   4.938   4.222 -0.3382  0.6726 -0.3825
14603TIP3    H265225   1.410   5.017   4.097  0.7645  0.5788 -0.7620
14604TIP3   OH265226   3.228   1.832  15.279  0.1769 -0.4272  0.5222
14604TIP3    H165227   3.170   1.794  15.345  0.4439 -0.7694  0.5652
14604TIP3    H265228   3.254   1.757  15.225  1.9888 -0.6136  1.5597
14605TIP3   OH265229   0.527   2.577   3.758 -0.0175  0.4366  0.4392
14605TIP3    H165230   0.516   2.671   3.744 -0.6850  0.2863 -0.0876
14605TIP3    H265231   0.597   2.552   3.697 -1.1231  0.2648 -0.8058
14606TIP3   OH265232   6.740   4.363   3.476  0.3817  0.0000  0.5393
14606TIP3    H165233   6.779   4.429   3.418 -0.3511  1.5863  1.7799
14606TIP3    H265234   6.758   4.394   3.564 -0.2647 -1.3145  1.1623
14607TIP3   OH265235   1.193   6.891   4.023  0.3522  0.1868  1.1191
14607TIP3    H165236   1.164   6.826   3.957  0.6380  0.7210  0.4556
14607TIP3    H265237   1.254   6.842   4.078  4.0471  0.8528 -1.9545
14608TIP3   OH265238   5.036   1.406   1.578  0.0415  0.3902 -0.0020
14608TIP3    H165239   5.056   1.457   1.657  0.1448  0.2300  0.0762
14608TIP3    H265240   4.990   1.329   1.611 -2.2268  1.5180 -0.2931
14609TIP3   OH265241   4.193   4.543   3.532  0.2343  0.3637 -0.2534
14609TIP3    H165242   4.256   4.484   3.492 -1.7895 -0.3466 -2.6624
14609TIP3    H265243   4.108   4.504   3.512 -1.0583  2.4105  0.9233
14610TIP3   OH265244   6.700   0.004   2.897  0.4637 -0.0322 -0.6557
14610TIP3    H165245   6.655   0.026   2.979  0.8549 -1.2927 -0.0751
14610TIP3    H265246   6.782   0.054   2.901  1.4772 -1.6466  0.7859
14611TIP3   OH265247   4.731   6.050   0.858  0.2085 -0.6227 -0.3926
14611TIP3    H165248   4.659   6.006   0.904  0.8592 -2.5033 -1.0664
14611TIP3    H265249   4.720   6.023   0.767  0.2074  1.2906 -0.9937
14612TIP3   OH265250   5.455   5.202   3.035  0.2354  0.3005 -0.2753
14612TIP3    H165251   5.418   5.269   2.977  2.3372  1.4389 -0.4056
14612TIP3    H265252   5.465   5.125   2.978 -3.2017 -0.6454  0.1299
14613TIP3   OH265253   3.731   7.205   1.658  0.8162  0.4185  0.1385
14613TIP3    H165254   3.698   7.233   1.573  1.6870 -0.8081 -0.6401
14613TIP3    H265255   3.673   7.248   1.721 -0.4806  0.5508 -1.0797
14614TIP3   OH265256   1.825   1.448   4.028  0.0005 -0.0063  0.1845
14614TIP3    H165257   1.820   1.358   3.996 -0.4557  0.3172 -0.6801
14614TIP3    H265258   1.915   1.475   4.008  0.6975 -0.8210  2.0157
14615TIP3   OH265259   3.633   5.151   0.271 -0.2913 -0.3104  0.2408
14615TIP3    H165260   3.644   5.239   0.307 -1.3405 -0.4763  1.0072
14615TIP3    H265261   3.714   5.135   0.222  0.4748  0.5647  1.1727
14616TIP3   OH265262   3.881   3.432  14.931 -0.0496  0.0988 -0.2364
14616TIP3    H165263   3.904   3.371  14.861  1.9531 -1.0407  1.3047
14616TIP3    H265264   3.786   3.444  14.923 -0.3226 -2.2942 -1.3373
14617TIP3   OH265265   6.159   2.905   3.932  0.1269  0.6419  0.1648
14617TIP3    H165266   6.154   2.821   3.886 -0.0363 -1.1401  3.1535
14617TIP3    H265267   6.087   2.901   3.995  0.7273  2.6406  1.0405
14618TIP3   OH265268   4.477   6.133   4.724  0.6371  0.3493  0.2369
14618TIP3    H165269   4.413   6.203   4.710 -0.8014 -0.9281  0.1768
14618TIP3    H265270   4.550   6.156   4.667 -0.6470  0.7840 -1.3033
14619TIP3   OH265271   4.413   7.004  11.100 -0.4635  1.1510  0.1004
14619TIP3    H165272   4.406   7.003  11.196  1.4271 -0.1187  0.2693
14619TIP3    H265273   4.335   7.052  11.071 -2.6021 -0.8526  2.1404
14620TIP3   OH265274   3.951   0.332   4.563 -0.4013  0.0591  0.0876
14620TIP3    H165275   4.000   0.265   4.610 -0.0737  0.7647  0.7788
14620TIP3    H265276   3.900   0.376   4.630 -0.7112  0.4176 -0.3731
14621TIP3   OH265277   4.262   6.014   4.936  0.1388  0.2105 -0.2347
14621TIP3    H165278   4.228   5.985   4.851 -0.6858  1.2296 -0.2761
14621TIP3    H265279   4.350   6.046   4.917  0.1457 -0.0282 -0.6180
14622TIP3   OH265280   2.980   1.125  14.777  0.0006 -0.1824 -0.5272
14622TIP3    H165281   2.924   1.052  14.752  0.1058 -0.6348  0.5452
14622TIP3    H265282   3.066   1.087  14.790 -0.0801  0.0201  0.6497
14623TIP3   OH265283   3.671   5.552   3.514  0.0555  0.1254  0.2082
14623TIP3    H165284   3.662   5.472   3.461  0.2629  1.3737 -1.8028
14623TIP3    H265285   3.730   5.608   3.463  0.3374  1.3774  1.8327
14624TIP3   OH265286   2.824   1.613   3.067 -0.7920  0.2193  0.3498
14624TIP3    H165287   2.800   1.682   3.128 -0.0565  1.6583 -0.9444
14624TIP3    H265288   2.829   1.534   3.122 -1.4019  1.2082  1.8991
14625TIP3   OH265289   5.831   4.277   4.112  0.7818  0.1841  0.2746
14625TIP3    H165290   5.821   4.211   4.043  3.8462 -0.7283  0.5329
14625TIP3    H265291   5.907   4.328   4.085 -0.7454  2.9049  0.7300
14626TIP3   OH265292   4.374   3.584   3.063  0.1664 -0.5782  0.7303
14626TIP3    H165293   4.316   3.637   3.119 -0.5484  0.1455 -0.6342
14626TIP3    H265294   4.459   3.627   3.070  1.1108 -2.6732  4.1501
14627TIP3   OH265295   1.840   5.484   2.244 -0.1981 -0.1090  0.1134
14627TIP3    H165296   1.844   5.407   2.187 -0.5229 -0.4474  0.5392
14627TIP3    H265297   1.921   5.532   2.225  0.6419 -1.2138  0.7707
14628TIP3   OH265298   3.870   6.710   5.240  0.3443  0.2010  0.4367
14628TIP3    H165299   3.941   6.646   5.249  0.4084  0.2864  0.5420
14628TIP3    H265300   3.899   6.785   5.291  1.8650  1.6955 -2.4014
14629TIP3   OH265301   5.708   3.576   3.441 -0.1005 -0.4040  0.0563
14629TIP3    H165302   5.789   3.628   3.434 -1.8516  2.3744 -1.6092
14629TIP3    H265303   5.689   3.549   3.352  0.0258 -2.9205  0.7203
14630TIP3   OH265304   3.161   6.290   4.326  0.6423  0.5296  0.4884
14630TIP3    H165305   3.252   6.298   4.358  0.4955  0.9756  0.8057
14630TIP3    H265306   3.154   6.199   4.297  0.9965  0.3084  1.0779
14631TIP3   OH265307   2.855   1.588   4.947  0.6481  0.0292  0.6078
14631TIP3    H165308   2.858   1.668   4.998  0.1706  0.8514 -0.6028
14631TIP3    H265309   2.942   1.583   4.906  0.9639 -0.5274  1.3179
14632TIP3   OH265310   6.432   3.225   0.792  0.4637 -0.5990 -0.1462
14632TIP3    H165311   6.395   3.158   0.735  1.5179 -0.0912 -1.4727
14632TIP3    H265312   6.502   3.180   0.840  1.0094 -0.5130 -0.8564
14633TIP3   OH265313   2.127   2.255   1.270 -0.3624 -0.5551 -0.0672
14633TIP3    H165314   2.066   2.326   1.250 -0.2849 -0.7170 -0.9148
14633TIP3    H265315   2.213   2.290   1.246  0.0367  0.0251  2.0175
14634TIP3   OH265316   6.433   0.727   1.884 -0.3880  0.1982  0.2850
14634TIP3    H165317   6.354   0.776   1.864 -0.2405 -0.0120 -0.8935
14634TIP3    H265318   6.420   0.694   1.973 -1.0136  1.3256  0.6258
14635TIP3   OH265319   2.776   2.526  14.447 -0.4107  0.8140  0.2656
14635TIP3    H165320   2.710   2.504  14.512 -0.5950 -4.0231 -1.1793
14635TIP3    H265321   2.730   2.525  14.363  1.0434 -0.7774 -0.5885
14636TIP3   OH265322   4.668   0.692   0.771 -0.1934  0.4772  0.1832
14636TIP3    H165323   4.579   0.662   0.790 -0.3797  0.3348 -0.8513
14636TIP3    H265324   4.656   0.775   0.725  0.1530 -0.1317 -1.0374
14637TIP3   OH265325   3.997   1.852   3.102  0.3339 -0.0077  0.2161
14637TIP3    H165326   3.927   1.908   3.068 -0.0218 -1.1603 -1.0454
14637TIP3    H265327   4.077   1.904   3.088 -0.0150  0.3212 -0.6298
14638TIP3   OH265328   3.414   3.389   2.799  0.2579 -0.3365 -0.1367
14638TIP3    H165329   3.399   3.305   2.755 -2.5112  0.0245 -0.0269
14638TIP3    H265330   3.370   3.453   2.744  0.9178  0.8234  0.6490
14639TIP3   OH265331   0.890   6.840   5.063 -0.3833 -0.3256 -0.5057
14639TIP3    H165332   0.938   6.819   5.143 -0.7290 -0.9369 -0.4517
14639TIP3    H265333   0.804   6.799   5.075 -0.5437 -0.1611 -1.0608
14640TIP3   OH265334   0.185   5.875   1.878 -0.3112 -0.2895 -0.3954
14640TIP3    H165335   0.165   5.821   1.954  0.2415  0.3351  0.1991
14640TIP3    H265336   0.211   5.960   1.914 -1.1535  0.3848 -1.3095
14641TIP3   OH265337   0.033   6.069  10.906  0.1116  0.5045 -0.1321
14641TIP3    H165338   0.005   5.980  10.928  1.5589 -0.8887 -3.3714
14641TIP3    H265339  -0.045   6.110  10.870 -0.1864  0.0332 -0.0348
14642TIP3   OH265340   1.731   0.666   4.469 -0.2271 -0.3316 -0.1056
14642TIP3    H165341   1.638   0.668   4.489 -0.0115  1.9602  0.9238
14642TIP3    H265342   1.735   0.666   4.373 -1.2613 -1.2814 -0.1644
14643TIP3   OH265343   3.679   2.981  14.668 -0.0771 -0.0440 -0.1881
14643TIP3    H165344   3.685   3.075  14.653 -0.6522 -0.0131 -0.2416
14643TIP3    H265345   3.594   2.969  14.710 -1.3335 -0.8538 -2.7298
14644TIP3   OH265346   0.089   1.235   3.351 -0.0130 -0.2138  0.1500
14644TIP3    H165347   0.036   1.249   3.430  0.8492  0.3196  0.6618
14644TIP3    H265348   0.041   1.280   3.282 -1.5069 -1.8762  0.0445
14645TIP3   OH265349   6.822   4.847  11.148 -0.4998  0.2412 -0.2637
14645TIP3    H165350   6.911   4.815  11.157 -0.9518 -0.9796  0.0060
14645TIP3    H265351   6.774   4.775  11.108 -1.6713  0.3524  0.8693
14646TIP3   OH265352   3.593   3.592   2.583  0.6263  0.2089 -0.3737
14646TIP3    H165353   3.630   3.662   2.530  0.1690 -0.0903 -1.1097
14646TIP3    H265354   3.499   3.611   2.585  0.8297  1.2298  1.8747
14647TIP3   OH265355   1.825   1.543   2.752 -0.2946  0.1716 -0.6772
14647TIP3    H165356   1.751   1.555   2.811  0.6284  0.4596  0.4509
14647TIP3    H265357   1.902   1.542   2.809  0.6771  0.9634 -1.9145
14648TIP3   OH265358   0.437   2.118  13.429  0.3884  0.7430 -0.1324
14648TIP3    H165359   0.423   2.175  13.504  0.8728  0.6998 -0.0009
14648TIP3    H265360   0.522   2.076  13.446 -1.3274 -2.4391  1.3190
14649TIP3   OH265361   1.147   3.284   0.097  0.1312 -0.0011 -0.5915
14649TIP3    H165362   1.128   3.374   0.123 -0.6163 -0.5812  0.9556
14649TIP3    H265363   1.089   3.268   0.022 -0.7515  0.3784 -0.0090
14650TIP3   OH265364   3.214   2.412   2.168  0.1054  0.0101 -0.3709
14650TIP3    H165365   3.286   2.444   2.223  0.7953 -1.5713 -0.2796
14650TIP3    H265366   3.233   2.318   2.157 -1.6314 -0.3163 -0.8445
14651TIP3   OH265367   4.583   2.161   5.070  0.4139  0.5662  0.0166
14651TIP3    H165368   4.561   2.074   5.037 -1.1571  1.0302 -0.2368
14651TIP3    H265369   4.585   2.151   5.165 -2.4959  0.7775  0.1786
14652TIP3   OH265370   5.211   5.482   3.941  0.1962  0.0197 -0.4324
14652TIP3    H165371   5.129   5.531   3.941  1.0846  1.6209  1.0928
14652TIP3    H265372   5.194   5.407   3.999 -0.3681 -0.0231 -0.6480
14653TIP3   OH265373   6.767   3.728   0.986  0.0861 -0.2355  0.0961
14653TIP3    H165374   6.846   3.675   0.975 -0.5676 -1.3448  0.6256
14653TIP3    H265375   6.766   3.750   1.079 -0.6001 -0.8415  0.2405
14654TIP3   OH265376   0.821   0.471   4.284  0.7444  0.1015 -0.5578
14654TIP3    H165377   0.765   0.507   4.215  0.2916  0.3706 -0.0499
14654TIP3    H265378   0.840   0.382   4.255 -0.7111 -0.3148 -0.2872
14655TIP3   OH265379   0.775   5.137   4.800  0.2179  0.6761  0.0979
14655TIP3    H165380   0.694   5.171   4.762  0.4023 -0.4965 -1.4301
14655TIP3    H265381   0.748   5.059   4.849  0.1424  1.5441  1.4913
14656TIP3   OH265382   0.172   6.372   1.100 -0.0183 -0.0153 -0.2165
14656TIP3    H165383   0.107   6.337   1.161 -0.0361 -0.7610 -0.6488
14656TIP3    H265384   0.121   6.400   1.024  0.2077 -1.2262 -0.8393
14657TIP3   OH265385   0.416   0.989   3.954  0.0856 -0.3881  0.1052
14657TIP3    H165386   0.329   0.951   3.957 -1.2611  2.4663  0.0867
14657TIP3    H265387   0.456   0.952   3.875 -1.9138 -0.1778 -1.0656
14658TIP3   OH265388   5.554   4.735   2.264  0.1028  0.1869 -0.2270
14658TIP3    H165389   5.618   4.685   2.314 -0.4650 -2.6668 -2.1711
14658TIP3    H265390   5.471   4.716   2.306  0.1612  2.2014  0.9743
14659TIP3   OH265391   0.305   1.096  15.196  0.2485  0.9231  0.2753
14659TIP3    H165392   0.352   1.168  15.237  0.7712  0.2391  0.9141
14659TIP3    H265393   0.290   1.033  15.267 -0.3652  0.4861 -0.2236
14660TIP3   OH265394   6.676   0.880   4.282 -0.7145 -0.0917 -0.1976
14660TIP3    H165395   6.640   0.795   4.256  1.0890 -0.9931  0.0691
14660TIP3    H265396   6.676   0.879   4.377  1.5130 -0.8499 -0.1542
14661TIP3   OH265397   4.288   5.055   4.349  0.6082  0.4492 -0.4253
14661TIP3    H165398   4.329   4.972   4.328 -0.6831  0.1570 -1.9433
14661TIP3    H265399   4.226   5.034   4.419  0.0100  0.0336 -1.0647
14662TIP3   OH265400   5.029   0.840  13.396  0.4642  0.1695  0.5029
14662TIP3    H165401   4.943   0.850  13.354  0.3936  1.2261  0.8559
14662TIP3    H265402   5.009   0.802  13.482  0.5070 -0.9987  0.0087
14663TIP3   OH265403   1.269   1.643   3.416 -0.2639 -0.3930 -0.2145
14663TIP3    H165404   1.200   1.710   3.409  0.9318  1.1011  1.3485
14663TIP3    H265405   1.221   1.561   3.428 -1.7915  0.5518  0.5216
14664TIP3   OH265406   4.631   2.398   0.093  0.0649  0.4091  0.4349
14664TIP3    H165407   4.543   2.367   0.113  0.1108 -1.1111 -1.3874
14664TIP3    H265408   4.638   2.391  -0.002  2.8659 -1.7108  0.6332
14665TIP3   OH265409   1.932   0.333   1.171 -0.5948  0.1465 -0.0317
14665TIP3    H165410   1.889   0.339   1.256 -0.9433 -0.0083 -0.1976
14665TIP3    H265411   1.866   0.297   1.113  0.0052 -0.8476 -0.1156
14666TIP3   OH265412   0.472   4.885   1.849 -0.5773  0.0528  0.0744
14666TIP3    H165413   0.506   4.974   1.844 -1.3407  0.3127 -0.8659
14666TIP3    H265414   0.388   4.894   1.894 -0.9117 -0.1089 -0.5133
14667TIP3   OH265415   0.502   1.988   3.917  0.1528  0.3271 -0.3061
14667TIP3    H165416   0.520   1.909   3.969 -0.5593 -1.3299 -2.4149
14667TIP3    H265417   0.441   2.038   3.970 -1.3658 -1.7995  0.1107
14668TIP3   OH265418   3.133   5.169   5.365  0.0283 -0.5079  0.1052
14668TIP3    H165419   3.140   5.121   5.447 -0.3338 -0.0265  0.4271
14668TIP3    H265420   3.046   5.209   5.368  0.5780  0.7469  0.1888
14669TIP3   OH265421   1.455   6.003  12.401  0.2775  0.4043 -0.5508
14669TIP3    H165422   1.421   5.953  12.328 -0.1162  0.9655 -0.7611
14669TIP3    H265423   1.472   5.938  12.469  1.4827 -0.2372 -1.4229
14670TIP3   OH265424   0.162   4.406  11.230 -0.4193 -0.3949 -0.0039
14670TIP3    H165425   0.110   4.344  11.178  1.5854 -1.5633 -0.7477
14670TIP3    H265426   0.214   4.453  11.164 -0.3419  0.5762  0.7330
14671TIP3   OH265427   6.444   1.638   2.255 -0.3730 -0.2198 -0.0123
14671TIP3    H165428   6.405   1.721   2.284  3.6131  1.5096  1.1996
14671TIP3    H265429   6.419   1.576   2.323 -2.3127  0.2773 -0.2043
14672TIP3   OH265430   2.183   2.330  14.362  0.2856  0.1295  0.7098
14672TIP3    H165431   2.162   2.420  14.389  0.0855  0.0378  0.8595
14672TIP3    H265432   2.251   2.303  14.423 -1.3479 -0.6939  2.2842
14673TIP3   OH265433   0.180   3.700   0.889 -0.8185 -0.5402 -0.2056
14673TIP3    H165434   0.143   3.746   0.814  0.6501 -0.8964 -1.1969
14673TIP3    H265435   0.165   3.607   0.871  1.3567 -0.7692 -1.1627
14674TIP3   OH265436   5.675   2.102   1.858 -0.1981  0.0941  0.0210
14674TIP3    H165437   5.714   2.050   1.788  2.0455  1.4009  0.1741
14674TIP3    H265438   5.680   2.045   1.935  1.3611  0.1267 -0.0106
14675TIP3   OH265439   1.152   7.036   0.601  0.0552  0.5919  0.0516
14675TIP3    H165440   1.176   6.943   0.604  3.0039  1.1876 -1.2456
14675TIP3    H265441   1.162   7.067   0.691 -5.1153 -1.0248  1.5519
14676TIP3   OH265442   6.038   5.598   2.528 -0.4089 -0.1431 -0.3572
14676TIP3    H165443   6.043   5.525   2.589  0.2436 -0.6099 -0.9555
14676TIP3    H265444   6.114   5.587   2.470 -0.5003  0.8034 -0.6801
14677TIP3   OH265445   5.432   2.416   3.602  0.2011 -0.6219 -0.2079
14677TIP3    H165446   5.363   2.390   3.662  0.8841 -0.7463  0.5451
14677TIP3    H265447   5.392   2.410   3.515  0.2804 -4.1919 -0.1437
14678TIP3   OH265448   2.779   2.371   6.041  0.2500 -0.0721 -0.0108
14678TIP3    H165449   2.748   2.319   5.967 -1.1557  1.2872 -0.4282
14678TIP3    H265450   2.767   2.462   6.013  2.1114  0.5100  0.9033
14679TIP3   OH265451   4.999   5.238   4.395  0.3076  0.4012 -0.1907
14679TIP3    H165452   5.045   5.305   4.345  1.2399 -0.8456 -1.0379
14679TIP3    H265453   5.034   5.155   4.364  1.1614 -0.4599  2.6937
14680TIP3   OH265454   2.356   3.314   3.090  0.1940 -0.6404  0.1866
14680TIP3    H165455   2.277   3.293   3.140  0.1786  1.2477  1.0437
14680TIP3    H265456   2.325   3.318   2.999 -0.8629  0.5812  0.5590
14681TIP3   OH265457   7.084   6.609   5.268  0.4203  0.2450 -0.0690
14681TIP3    H165458   7.025   6.681   5.246 -0.9370 -0.1205  2.1315
14681TIP3    H265459   7.148   6.647   5.327 -1.5823 -0.6442  2.9160
14682TIP3   OH265460   1.819   3.527   3.298  0.1065  0.2754 -0.2173
14682TIP3    H165461   1.735   3.498   3.333  0.6082  0.2809  1.0712
14682TIP3    H265462   1.857   3.579   3.369  0.4400  1.7419 -1.4394
14683TIP3   OH265463   0.672   4.930   3.960 -0.5238 -0.0096 -0.1424
14683TIP3    H165464   0.687   5.025   3.958 -0.3347 -0.0203  0.6359
14683TIP3    H265465   0.706   4.899   3.875 -0.5900  0.6131 -0.4030
14684TIP3   OH265466   1.373   3.050   0.427  0.1790  0.3197 -0.1586
14684TIP3    H165467   1.290   3.003   0.430 -0.4806  1.4587 -0.2453
14684TIP3    H265468   1.382   3.078   0.335  0.7211  0.0996 -0.1784
14685TIP3   OH265469   4.592   1.173   4.072  0.0633 -0.1645 -0.1724
14685TIP3    H165470   4.539   1.096   4.052  0.6873 -0.3413 -1.1753
14685TIP3    H265471   4.561   1.201   4.158 -1.0475 -0.7809 -0.3547
14686TIP3   OH265472   4.148   5.416   1.638 -0.0081 -0.1074 -0.7179
14686TIP3    H165473   4.079   5.351   1.643 -1.1494  1.0123 -1.3336
14686TIP3    H265474   4.189   5.401   1.553  0.8836 -1.1118 -0.1311
14687TIP3   OH265475   4.161   5.752  10.940 -0.6499  0.1391 -0.1670
14687TIP3    H165476   4.145   5.658  10.935 -0.0995 -0.0204  0.8742
14687TIP3    H265477   4.219   5.771  10.866  0.5882 -0.6430  0.5732
14688TIP3   OH265478   5.903   6.371   0.787 -0.3473 -0.8153 -0.0179
14688TIP3    H165479   5.852   6.333   0.858 -0.0122  0.7694  1.1343
14688TIP3    H265480   5.868   6.460   0.776  0.6531 -0.4779 -0.7391
14689TIP3   OH265481   0.903   1.405   4.873 -0.3337 -0.1571 -0.1669
14689TIP3    H165482   0.848   1.352   4.817  1.2285 -2.3025  0.2016
14689TIP3    H265483   0.855   1.411   4.956 -0.7254 -0.6374 -0.3556
14690TIP3   OH265484   6.210   3.487   4.066 -0.2300 -0.1163  0.2766
14690TIP3    H165485   6.170   3.573   4.082 -0.5091 -0.2615  0.3573
14690TIP3    H265486   6.289   3.487   4.120  0.5146  0.6299 -0.7689
14691TIP3   OH265487   3.659   2.361  14.613  0.6028 -0.0075  0.3087
14691TIP3    H165488   3.730   2.413  14.651 -0.2069  2.0340 -0.7933
14691TIP3    H265489   3.678   2.271  14.640  2.5692  0.7151  1.5825
14692TIP3   OH265490   0.997   7.025   3.568 -0.0356 -0.9162 -0.2447
14692TIP3    H165491   0.901   7.023   3.571 -0.0687 -1.3561 -1.2786
14692TIP3    H265492   1.018   7.116   3.547 -0.1323 -0.3326  1.9401
14693TIP3   OH265493   4.299   5.445   0.090  0.3237 -0.6003  0.2119
14693TIP3    H165494   4.275   5.520   0.036 -0.0832  0.0212  1.2334
14693TIP3    H265495   4.391   5.460   0.113  0.0371 -0.0131  1.0255
14694TIP3   OH265496   1.100   1.673   1.758 -0.3796  0.1526 -0.1640
14694TIP3    H165497   1.104   1.578   1.747  0.9858  0.1634  0.0908
14694TIP3    H265498   1.028   1.700   1.701  0.8372 -0.7631 -2.2819
14695TIP3   OH265499   4.469   2.094  15.310  0.1372 -0.1062 -0.1781
14695TIP3    H165500   4.515   2.163  15.261 -0.7829  0.1705 -0.6769
14695TIP3    H265501   4.517   2.014  15.290  1.9773  0.5506  1.3899
14696TIP3   OH265502   4.312   3.397   0.157 -0.0332 -0.3666  0.0678
14696TIP3    H165503   4.356   3.357   0.232  0.8797  1.5024  0.5789
14696TIP3    H265504   4.226   3.423   0.191 -0.1206 -0.6898  0.0977
14697TIP3   OH265505   1.132   4.931   2.030  1.0757 -0.0540  0.4214
14697TIP3    H165506   1.194   4.892   1.967 -0.6159 -0.9006 -0.8099
14697TIP3    H265507   1.133   4.872   2.105  2.5028  0.5117  0.8795
14698TIP3   OH265508   2.485   5.873  13.463 -0.0087 -0.1481 -0.2589
14698TIP3    H165509   2.409   5.871  13.521  0.7361 -0.4395  0.7339
14698TIP3    H265510   2.512   5.781  13.457 -0.9187 -0.3396 -2.2411
14699TIP3   OH265511   5.304   1.852   3.484 -0.1547  0.5002 -0.0038
14699TIP3    H165512   5.237   1.784   3.479 -0.0516  0.2245  1.6318
14699TIP3    H265513   5.350   1.847   3.400 -1.0457 -0.4980 -0.4546
14700TIP3   OH265514   6.528   3.910  13.043 -0.2816  0.6937 -0.0772
14700TIP3    H165515   6.522   3.873  12.954 -0.8778 -1.6380  0.8550
14700TIP3    H265516   6.452   3.969  13.049 -1.6268 -0.9271 -0.3861
14701TIP3   OH265517   5.997   0.606  15.199  0.2974 -0.6211 -0.1659
14701TIP3    H165518   5.949   0.644  15.126 -2.1087  0.9535  2.0492
14701TIP3    H265519   5.933   0.549  15.243  1.1917 -0.3997  1.5112
14702TIP3   OH265520   6.625   1.336   4.991 -0.4124  0.0468  1.2548
14702TIP3    H165521   6.701   1.303   4.944 -1.7613 -1.7728  0.1649
14702TIP3    H265522   6.589   1.404   4.934 -0.4479 -0.1693  1.0160
14703TIP3   OH265523   6.736   1.756   1.981 -0.0984 -0.0642 -0.3547
14703TIP3    H165524   6.829   1.749   1.963 -0.2446  0.0104 -1.1756
14703TIP3    H265525   6.703   1.820   1.918 -1.1219 -1.8890 -1.7777
14704TIP3   OH265526   3.541   1.283   4.141 -0.3860  0.2842 -0.1321
14704TIP3    H165527   3.533   1.260   4.233  0.6191  0.5270  0.0229
14704TIP3    H265528   3.481   1.356   4.129  0.5166  1.1910  0.6755
14705TIP3   OH265529   5.270   2.435   4.687 -0.2557  0.0616  0.7165
14705TIP3    H165530   5.300   2.394   4.606  0.1347  0.8479  0.4572
14705TIP3    H265531   5.258   2.527   4.665 -1.1352  0.0998  1.2900
14706TIP3   OH265532   5.276   1.718   3.787 -0.3568  0.0188  0.0815
14706TIP3    H165533   5.182   1.733   3.797 -0.2136  0.4392  0.8268
14706TIP3    H265534   5.301   1.773   3.713 -0.1888  2.0887  1.6159
14707TIP3   OH265535   5.779   4.112   3.551 -0.1377  0.4813  0.5635
14707TIP3    H165536   5.716   4.110   3.478 -0.7957 -1.2688  1.1315
14707TIP3    H265537   5.763   4.031   3.598 -0.6910  2.1265  3.4817
14708TIP3   OH265538   4.459   4.783   0.843  0.3613 -0.4728  0.0426
14708TIP3    H165539   4.519   4.742   0.905  1.3047 -0.1849 -0.6519
14708TIP3    H265540   4.466   4.876   0.861 -0.5168 -0.4883  0.5052
14709TIP3   OH265541   4.796   3.959   0.636 -0.0959 -0.1744  0.3543
14709TIP3    H165542   4.706   3.991   0.645 -0.1264  0.0815 -0.7498
14709TIP3    H265543   4.805   3.939   0.543  0.6647 -1.2024  0.6319
14710TIP3   OH265544   1.118   0.491   3.390 -0.3394  0.4037 -0.1003
14710TIP3    H165545   1.143   0.428   3.458  1.7346 -1.7288 -2.6268
14710TIP3    H265546   1.069   0.439   3.326 -2.3141  2.3574 -0.3073
14711TIP3   OH265547   6.148   5.283  13.690  0.3952 -0.1900  0.1803
14711TIP3    H165548   6.220   5.240  13.645  0.0092 -0.6633  0.0059
14711TIP3    H265549   6.144   5.242  13.776  0.7149  0.2558  0.4088
14712TIP3   OH265550   1.615   3.165   3.980  0.0832 -0.0601 -0.0548
14712TIP3    H165551   1.594   3.142   4.071 -1.1418  2.3925  0.3667
14712TIP3    H265552   1.682   3.102   3.954 -0.0665 -1.2917  2.2984
14713TIP3   OH265553   3.659   4.001   2.687  0.1694 -0.1408  0.1103
14713TIP3    H165554   3.593   4.070   2.692  1.2056  0.8609  0.2387
14713TIP3    H265555   3.672   3.988   2.593 -0.0890 -0.2364  0.0859
14714TIP3   OH265556   4.823   0.447   2.892  0.3680 -0.0970 -0.3187
14714TIP3    H165557   4.748   0.405   2.850  0.2961 -0.8189  0.5099
14714TIP3    H265558   4.820   0.538   2.862  0.7556 -0.7338 -2.4673
14715TIP3   OH265559   3.654   2.899   3.383  0.3824  0.1052  0.5983
14715TIP3    H165560   3.721   2.832   3.397  1.0665  1.0395  1.9624
14715TIP3    H265561   3.612   2.909   3.468 -1.0783  0.0055 -0.0777
14716TIP3   OH265562   3.831   5.502  12.137 -0.5812  0.3169  0.0858
14716TIP3    H165563   3.861   5.571  12.078 -0.6357  0.5774  0.3559
14716TIP3    H265564   3.884   5.515  12.216  1.0652 -1.3752 -0.6579
14717TIP3   OH265565   4.000   6.128   0.239  0.5788 -0.5832 -0.3181
14717TIP3    H165566   4.092   6.134   0.267  0.2885 -1.6005  0.9792
14717TIP3    H265567   3.958   6.079   0.309 -0.9427 -0.2371 -0.9625
14718TIP3   OH265568   5.665   2.012   2.735  0.3945 -0.0377 -0.4462
14718TIP3    H165569   5.732   1.954   2.698 -0.1220 -0.4105 -0.8091
14718TIP3    H265570   5.599   2.019   2.667 -0.2641 -0.2261  0.1619
14719TIP3   OH265571   7.180   1.744  14.677  0.3875  0.2809  0.4445
14719TIP3    H165572   7.100   1.771  14.633 -0.0904  0.2693  1.2673
14719TIP3    H265573   7.229   1.825  14.691  0.1012  0.4098  0.7221
14720TIP3   OH265574   3.973   4.099   1.491 -0.0936 -0.4640 -0.3134
14720TIP3    H165575   3.923   4.167   1.445  1.7932  0.6350 -0.8443
14720TIP3    H265576   4.030   4.062   1.424  0.1942 -1.3334  0.3878
14721TIP3   OH265577   2.464   2.843   5.024 -0.0781  0.2967  0.1325
14721TIP3    H165578   2.529   2.861   5.092  2.0560 -1.3666 -1.3501
14721TIP3    H265579   2.464   2.922   4.970 -2.5783  2.1048  2.4475
14722TIP3   OH265580   0.940   5.195   1.036  0.5706  0.4353  0.1875
14722TIP3    H165581   0.923   5.185   1.129 -0.0646  0.4650  0.0795
14722TIP3    H265582   0.957   5.289   1.024  0.5858  0.4418  0.2653
14723TIP3   OH265583   1.901   1.319   2.015  0.4500  0.1517 -0.0933
14723TIP3    H165584   1.871   1.406   1.989  0.4232 -0.0511 -0.7642
14723TIP3    H265585   1.910   1.324   2.110 -1.4762  0.2843  0.1187
14724TIP3   OH265586   3.641   1.697   4.237  0.1260  0.1061 -0.0985
14724TIP3    H165587   3.735   1.717   4.241  0.2303 -0.4457  0.3759
14724TIP3    H265588   3.628   1.632   4.305 -0.9108  1.3459  0.9226
14725TIP3   OH265589   0.466   1.826   4.176 -0.0117 -0.4913 -0.2211
14725TIP3    H165590   0.446   1.907   4.223  2.2691  0.3643 -0.6104
14725TIP3    H265591   0.507   1.770   4.242  0.5555 -0.4089 -0.5006
14726TIP3   OH265592   5.067   2.874  12.188  0.3588 -0.1670  0.0705
14726TIP3    H165593   5.057   2.892  12.281 -0.0115 -1.0208  0.2042
14726TIP3    H265594   5.084   2.960  12.149  0.7197  0.1764  0.9420
14727TIP3   OH265595   0.133   3.229  15.277 -0.0564  0.0965  0.3811
14727TIP3    H165596   0.129   3.218  15.372 -0.2190 -0.5024  0.3101
14727TIP3    H265597   0.090   3.151  15.242  1.0425 -0.2797 -0.2051
14728TIP3   OH265598   4.379   6.983  13.382 -0.4266 -0.5560 -0.4538
14728TIP3    H165599   4.403   7.075  13.390  0.0833 -0.5981 -1.3574
14728TIP3    H265600   4.405   6.944  13.466 -2.3692  0.4563  0.6841
14729TIP3   OH265601   3.089   3.729   3.575 -0.4278 -0.4571 -0.0728
14729TIP3    H165602   3.166   3.776   3.542 -1.1358  0.0691 -1.0141
14729TIP3    H265603   3.016   3.789   3.562 -1.0004 -0.9190  0.8976
14730TIP3   OH265604   5.633   6.934   5.085  0.1043 -0.0358  0.8666
14730TIP3    H165605   5.618   6.936   5.179 -1.2823  0.0361  0.6755
14730TIP3    H265606   5.682   7.014   5.066 -2.6267  1.8667  1.1202
14731TIP3   OH265607   6.088   0.448   0.235  0.3046  0.6515 -0.3607
14731TIP3    H165608   6.065   0.394   0.159 -0.7116  0.9958 -0.3184
14731TIP3    H265609   6.082   0.538   0.203  2.7612  0.7781 -0.6401
14732TIP3   OH265610   1.066   0.989  12.136  0.0227 -0.4212 -0.1182
14732TIP3    H165611   1.110   1.044  12.201 -2.5394 -0.1336  1.4990
14732TIP3    H265612   1.129   0.918  12.120  2.1934  1.3554 -0.0872
14733TIP3   OH265613   2.093   0.892   0.607 -0.5085 -0.1622 -0.2439
14733TIP3    H165614   2.158   0.957   0.579  0.7402 -1.3569 -0.2147
14733TIP3    H265615   2.102   0.820   0.545 -1.5716 -0.5017 -0.0194
14734TIP3   OH265616   0.420   0.652  10.562 -0.0175  0.0871 -0.7036
14734TIP3    H165617   0.364   0.672  10.487 -1.0767  1.7638  0.4725
14734TIP3    H265618   0.373   0.583  10.608 -0.0098 -0.0512 -0.9016
14735TIP3   OH265619   6.806   3.890   4.357  0.4023  0.0808 -0.1513
14735TIP3    H165620   6.749   3.957   4.319 -0.1026  0.5402  1.3648
14735TIP3    H265621   6.773   3.807   4.321 -1.3264  0.3256  0.7752
14736TIP3   OH265622   2.899   1.782   5.110  0.1834 -0.1036  0.2805
14736TIP3    H165623   2.905   1.779   5.205 -0.5236 -0.5235  0.3130
14736TIP3    H265624   2.892   1.876   5.090 -0.3245 -0.0525  0.6824
14737TIP3   OH265625   4.498   2.744   5.036 -0.5312 -0.2424  0.1197
14737TIP3    H165626   4.470   2.683   5.105 -0.2511  0.1249  0.5634
14737TIP3    H265627   4.536   2.818   5.083  0.4273 -0.3614 -0.4458
14738TIP3   OH265628   3.296   5.655   6.133  0.6446  0.9422  0.2140
14738TIP3    H165629   3.309   5.745   6.103  0.9963  1.4668  1.8274
14738TIP3    H265630   3.320   5.657   6.226  0.0152 -0.6749  0.4471
14739TIP3   OH265631   2.126   3.070   1.500  0.5593  0.2662  0.0120
14739TIP3    H165632   2.211   3.114   1.500 -0.0570  1.5204 -0.8207
14739TIP3    H265633   2.066   3.134   1.461 -0.3273 -1.4133 -1.5374
14740TIP3   OH265634   2.081   1.003   2.784 -0.4189 -0.6863  1.0601
14740TIP3    H165635   2.150   1.069   2.774 -0.4168 -0.8770 -0.4301
14740TIP3    H265636   2.092   0.971   2.874  0.1251  0.7210  1.5309
14741TIP3   OH265637   1.533   2.849   3.808 -0.0130 -0.1802 -0.3853
14741TIP3    H165638   1.614   2.887   3.775 -0.9881  0.5736 -2.0228
14741TIP3    H265639   1.561   2.785   3.874  1.9264 -0.3166 -1.2839
14742TIP3   OH265640   3.086   4.388   0.365 -0.0775 -0.2847  0.2126
14742TIP3    H165641   3.157   4.426   0.418 -0.8138  1.7704 -0.1896
14742TIP3    H265642   3.006   4.406   0.416 -0.6649  0.6023 -0.9942
14743TIP3   OH265643   2.988   6.779   3.403 -0.3381 -0.8375 -0.0424
14743TIP3    H165644   2.946   6.808   3.322 -0.4925 -1.1320 -0.0668
14743TIP3    H265645   3.080   6.766   3.379 -0.2607 -0.3445 -0.0255
14744TIP3   OH265646   3.854   0.670   1.708 -0.0183  0.0603  0.5826
14744TIP3    H165647   3.772   0.709   1.679  0.7558  1.2656 -0.0745
14744TIP3    H265648   3.859   0.690   1.801  0.4725  1.7936  0.2137
14745TIP3   OH265649   3.941   5.538   0.329 -0.2805  0.2899  0.1848
14745TIP3    H165650   4.024   5.558   0.373  0.0323 -3.4760  1.6782
14745TIP3    H265651   3.951   5.448   0.298 -3.8488 -0.4056  0.5876
14746TIP3   OH265652   5.726   5.928   4.363  0.3545  0.0833  0.0427
14746TIP3    H165653   5.808   5.901   4.404  0.7625  0.8158 -0.2722
14746TIP3    H265654   5.751   6.002   4.307 -0.7726  1.2885  1.0843
14747TIP3   OH265655   5.161   5.476   3.568  0.1312 -0.0976  0.4716
14747TIP3    H165656   5.095   5.408   3.579 -0.1545  0.3325  1.4817
14747TIP3    H265657   5.243   5.436   3.596  0.1726 -0.3804 -0.0375
14748TIP3   OH265658   2.060   6.486   2.561  0.0921  0.1390 -0.2976
14748TIP3    H165659   2.106   6.510   2.480 -2.4340  0.4632 -1.7270
14748TIP3    H265660   2.123   6.507   2.630  1.4971  2.1309 -2.0246
14749TIP3   OH265661   4.288   3.409   4.921 -0.3528  0.1187  0.1930
14749TIP3    H165662   4.380   3.395   4.942  0.9124  3.1566 -2.4208
14749TIP3    H265663   4.279   3.504   4.911 -3.3902 -0.1716 -1.1982
14750TIP3   OH265664   5.547   0.421  14.701 -0.3692 -0.3756 -0.3829
14750TIP3    H165665   5.467   0.456  14.660 -0.3755 -0.5834 -0.5441
14750TIP3    H265666   5.520   0.338  14.740 -0.3989 -0.1185  0.1677
14751TIP3   OH265667   0.983   6.202   3.807  0.3073 -0.0375  0.0780
14751TIP3    H165668   0.909   6.162   3.760 -0.7832 -0.1899  1.8252
14751TIP3    H265669   1.035   6.127   3.835  0.5726  0.0166 -0.2636
14752TIP3   OH265670   5.176   5.236   2.444 -0.0785  0.3485  0.1650
14752TIP3    H165671   5.149   5.146   2.461 -0.4931  0.0955 -1.6118
14752TIP3    H265672   5.120   5.289   2.501  0.4598 -0.5053  1.5321
14753TIP3   OH265673   2.799   3.407  14.622 -0.0276 -0.4896  0.6671
14753TIP3    H165674   2.874   3.351  14.641  0.5505  0.1363  0.2470
14753TIP3    H265675   2.777   3.447  14.707  2.0607  1.6991  0.2647
14754TIP3   OH265676   0.586   2.136   2.163  0.4596  0.0114 -0.3518
14754TIP3    H165677   0.583   2.115   2.069 -0.5643 -0.4549 -0.2224
14754TIP3    H265678   0.531   2.070   2.204 -0.9569  1.5587  0.3361
14755TIP3   OH265679   6.340   1.729   5.173 -0.1031  0.4957 -0.2251
14755TIP3    H165680   6.362   1.805   5.119 -3.8499  1.1319 -1.1120
14755TIP3    H265681   6.312   1.662   5.111 -0.0755 -0.4206  0.7237
14756TIP3   OH265682   3.585   6.685   3.784  0.3071 -0.4773 -0.6070
14756TIP3    H165683   3.602   6.778   3.765  0.7796 -0.4054  0.1497
14756TIP3    H265684   3.493   6.682   3.810  0.1842 -0.2830 -1.0126
14757TIP3   OH265685   5.471   0.518   0.811 -0.1539 -0.3839 -0.1482
14757TIP3    H165686   5.475   0.607   0.774  1.0006 -0.5192 -0.3737
14757TIP3    H265687   5.559   0.483   0.798 -0.2549 -1.1217  1.0630
14758TIP3   OH265688   3.821   6.829  15.045  0.2439 -0.0322  0.2832
14758TIP3    H165689   3.896   6.879  15.014  0.4666 -0.9907 -0.7728
14758TIP3    H265690   3.745   6.876  15.010  0.3959  0.2767  0.3637
14759TIP3   OH265691   1.521   3.277   2.835 -0.6037  0.2688 -0.0056
14759TIP3    H165692   1.504   3.266   2.742 -0.2496 -0.3498 -0.0051
14759TIP3    H265693   1.607   3.237   2.849 -0.2721  1.1074  0.4361
14760TIP3   OH265694   3.831   3.753   4.805 -0.1533  0.4713  0.1058
14760TIP3    H165695   3.773   3.750   4.729  0.5759  0.0744 -0.4422
14760TIP3    H265696   3.771   3.748   4.880 -0.7512 -1.7588 -0.4421
14761TIP3   OH265697   4.460   5.425  14.616  0.2325  0.0924  0.2136
14761TIP3    H165698   4.521   5.365  14.661  1.3673  0.1806 -1.1301
14761TIP3    H265699   4.393   5.444  14.681  1.5940 -0.0851  1.7481
14762TIP3   OH265700   5.186   7.134   2.224 -0.2395  0.2215 -0.7131
14762TIP3    H165701   5.139   7.215   2.204  0.0687  0.4972 -0.3069
14762TIP3    H265702   5.221   7.105   2.139 -0.2716  0.5595 -0.8409
14763TIP3   OH265703   0.298   3.504   1.635  0.2374  0.5130 -0.2981
14763TIP3    H165704   0.257   3.512   1.721  1.0161 -1.1690  0.2714
14763TIP3    H265705   0.375   3.561   1.640 -0.4021  1.4110 -0.3568
14764TIP3   OH265706   3.893   4.549   2.588 -0.1646 -0.3961 -0.0891
14764TIP3    H165707   3.809   4.591   2.605 -0.0033  0.5780 -1.5332
14764TIP3    H265708   3.955   4.595   2.644 -0.4618 -0.6665  0.4740
14765TIP3   OH265709   2.307   0.996  11.821 -0.2689  0.1271 -0.1276
14765TIP3    H165710   2.396   0.999  11.787 -0.1444 -1.4432 -0.0112
14765TIP3    H265711   2.264   1.073  11.783  1.1805  1.0274 -0.0031
14766TIP3   OH265712   1.447   0.804   4.765  0.0245  0.2054 -0.3176
14766TIP3    H165713   1.374   0.865   4.778  1.0794  1.5497 -0.5371
14766TIP3    H265714   1.524   0.860   4.759  1.4063 -1.3007  2.0736
14767TIP3   OH265715   1.471   5.727  14.355 -0.2434  0.7733  0.8032
14767TIP3    H165716   1.471   5.803  14.296 -0.9931  0.9505  1.0207
14767TIP3    H265717   1.388   5.734  14.403  0.3406  0.6050  1.8459
14768TIP3   OH265718   7.027   5.065   3.178 -0.1376 -0.0538 -0.2953
14768TIP3    H165719   6.965   5.023   3.119 -0.2733 -1.6561  0.9250
14768TIP3    H265720   7.103   5.007   3.180 -0.0819  0.0373  0.9892
14769TIP3   OH265721   3.783   4.407   1.763 -0.3581 -0.0854  0.4471
14769TIP3    H165722   3.726   4.483   1.773 -0.1031  0.0421  0.9535
14769TIP3    H265723   3.855   4.438   1.708 -1.1213 -0.4397 -0.7875
14770TIP3   OH265724   0.885   1.011   3.453  0.7917  0.5715  0.6496
14770TIP3    H165725   0.800   1.054   3.446  0.6703  0.1979 -0.5967
14770TIP3    H265726   0.903   1.006   3.546 -0.3255  1.1078  0.9055
14771TIP3   OH265727   3.396   5.846   1.275 -0.1091  0.1481  0.2255
14771TIP3    H165728   3.466   5.894   1.320  0.4209 -0.8302  0.4735
14771TIP3    H265729   3.441   5.799   1.205 -0.5334 -0.4309  0.3405
14772TIP3   OH265730   6.674   6.190   0.653 -0.0865  0.6749 -0.0785
14772TIP3    H165731   6.675   6.246   0.575 -1.4548  0.3711 -0.3404
14772TIP3    H265732   6.676   6.101   0.617  0.2225  0.5393  0.2735
14773TIP3   OH265733   3.436   2.014  14.984  0.2776 -0.4523  0.2007
14773TIP3    H165734   3.456   2.012  14.891 -2.7823 -0.6502 -0.5769
14773TIP3    H265735   3.400   1.927  15.002 -1.9176  0.4916  0.7698
14774TIP3   OH265736   4.953   5.768   1.574  0.2714 -0.9076  0.1960
14774TIP3    H165737   4.919   5.828   1.641 -1.6959 -0.0617 -1.4638
14774TIP3    H265738   5.014   5.712   1.622  0.7966  1.1854  2.2109
14775TIP3   OH265739   6.503   3.667   3.042 -0.2923 -0.1522  0.0657
14775TIP3    H165740   6.522   3.636   2.954  1.9223 -0.4345  0.5829
14775TIP3    H265741   6.588   3.667   3.087 -1.4152 -0.4895  2.3525
14776TIP3   OH265742   4.602   1.738  13.080 -0.2166 -0.3298  0.2905
14776TIP3    H165743   4.636   1.789  13.007 -0.7880 -0.2023  0.1133
14776TIP3    H265744   4.509   1.760  13.084 -0.0296  0.3714  1.6253
14777TIP3   OH265745   6.335   0.504   3.326  0.1151 -0.8171  0.0899
14777TIP3    H165746   6.254   0.460   3.348  1.3452 -2.9221  0.6489
14777TIP3    H265747   6.403   0.438   3.338  1.9572  0.9293 -0.1094
14778TIP3   OH265748   5.873   3.796   5.371 -0.1243  0.3282 -0.3788
14778TIP3    H165749   5.790   3.801   5.420  0.1204 -0.1996  0.1005
14778TIP3    H265750   5.877   3.706   5.341  0.1715  0.4153 -0.5978
14779TIP3   OH265751   2.867   2.797   5.822 -0.0165 -0.5362 -0.1550
14779TIP3    H165752   2.826   2.788   5.736 -0.5632 -0.4491  0.0944
14779TIP3    H265753   2.908   2.883   5.820  0.0020 -0.5479 -0.3365
14780TIP3   OH265754   1.522   6.868   4.564  0.1963  0.4889  0.2661
14780TIP3    H165755   1.456   6.937   4.562 -0.0574  0.2839  1.1628
14780TIP3    H265756   1.583   6.895   4.632  0.4092  0.1131  0.2278
14781TIP3   OH265757   3.348   3.337   2.442 -0.2465  0.6587 -0.0781
14781TIP3    H165758   3.435   3.318   2.406 -0.3582 -1.2774  0.5515
14781TIP3    H265759   3.290   3.340   2.366  0.1853  0.9140 -0.4066
14782TIP3   OH265760   0.699   0.283   0.521 -0.3769  0.3405  0.2911
14782TIP3    H165761   0.708   0.190   0.500  1.8018  0.4489  0.5694
14782TIP3    H265762   0.617   0.288   0.571 -2.4458 -0.8311 -2.7044
14783TIP3   OH265763   3.445   0.789   2.310  0.1816  0.7264 -0.2306
14783TIP3    H165764   3.444   0.701   2.273  0.4490  0.4996  0.2866
14783TIP3    H265765   3.525   0.829   2.275 -0.5312  1.1728 -1.3801
14784TIP3   OH265766   2.214   6.116   2.090 -0.0134  0.1149  0.2862
14784TIP3    H165767   2.196   6.155   2.004 -0.8720  0.1594  0.4758
14784TIP3    H265768   2.160   6.167   2.151  1.3443  0.7392  1.0112
14785TIP3   OH265769   7.208   4.533   2.544 -0.0768 -0.5284  0.5560
14785TIP3    H165770   7.124   4.492   2.563 -1.0137  0.5908 -0.9171
14785TIP3    H265771   7.273   4.467   2.567 -1.4339 -2.0819  0.1108
14786TIP3   OH265772   2.428   0.028   4.011 -0.3457 -0.5890  0.2595
14786TIP3    H165773   2.421   0.095   3.943  1.0354 -0.9018 -0.2236
14786TIP3    H265774   2.341  -0.012   4.014 -0.3718 -0.7554 -1.5483
14787TIP3   OH265775   1.607   1.016  14.294  0.3989  0.4390 -0.0732
14787TIP3    H165776   1.541   0.969  14.243  0.9487  0.4560 -0.8232
14787TIP3    H265777   1.643   0.950  14.353  0.2100  0.2617 -0.1556
14788TIP3   OH265778   5.366   3.715   2.116  0.2787 -0.4403 -0.3944
14788TIP3    H165779   5.281   3.678   2.095 -0.4197  1.2204 -0.7056
14788TIP3    H265780   5.359   3.743   2.207  0.9148 -1.3741 -0.0502
14789TIP3   OH265781   2.888   1.128  11.656 -0.0002  0.4005  0.0679
14789TIP3    H165782   2.978   1.161  11.655  0.1032  0.1498  0.8605
14789TIP3    H265783   2.897   1.033  11.666 -0.3587  0.3814  0.2226
14790TIP3   OH265784   0.222   6.862   1.304 -0.2995  0.0802  0.1745
14790TIP3    H165785   0.259   6.911   1.230  1.0847  1.9339  1.9639
14790TIP3    H265786   0.129   6.855   1.284  0.2649 -1.0409 -2.5356
14791TIP3   OH265787   4.571   2.911   3.972  0.1745 -0.0775 -0.2833
14791TIP3    H165788   4.555   2.840   3.911 -0.6981 -1.5435  1.5350
14791TIP3    H265789   4.666   2.908   3.988  0.6508  1.2163 -2.5033
14792TIP3   OH265790   5.158   3.173   1.346 -0.2458  0.6491  0.1958
14792TIP3    H165791   5.176   3.094   1.295  0.9768  0.3024  1.1372
14792TIP3    H265792   5.231   3.232   1.326  0.7485  0.1684  2.1821
14793TIP3   OH265793   1.883   4.239  13.285 -0.1269 -0.0201 -0.4935
14793TIP3    H165794   1.872   4.228  13.191 -2.7100  0.3269 -0.3275
14793TIP3    H265795   1.835   4.319  13.306 -1.1752 -1.0336  1.3172
14794TIP3   OH265796   4.439   3.698   4.105  0.6265 -0.0361 -0.4189
14794TIP3    H165797   4.494   3.623   4.083 -0.3041 -0.4568 -1.3785
14794TIP3    H265798   4.354   3.661   4.126  0.0089  0.7623 -1.3939
14795TIP3   OH265799   0.704   6.410  13.698 -0.1354 -0.4348  0.4026
14795TIP3    H165800   0.643   6.455  13.757 -0.0533  0.2323 -0.0053
14795TIP3    H265801   0.780   6.391  13.753  0.2831  0.9306  0.3421
14796TIP3   OH265802   4.006   4.951   3.274 -0.1434 -0.1565  0.6811
14796TIP3    H165803   4.005   5.044   3.250 -0.7672 -0.5371 -0.9038
14796TIP3    H265804   4.099   4.929   3.281  0.0611  0.2724 -0.4024
14797TIP3   OH265805   6.621   2.118   3.692 -0.1108 -0.2095  0.1337
14797TIP3    H165806   6.628   2.210   3.717  1.1478 -0.2126 -0.1049
14797TIP3    H265807   6.683   2.109   3.619 -0.1601 -1.2637  0.2134
14798TIP3   OH265808   6.030   0.368   4.458  0.3506 -0.1800 -0.0951
14798TIP3    H165809   6.009   0.417   4.378 -0.3861  0.5852  0.5465
14798TIP3    H265810   6.091   0.424   4.506  1.0035 -0.7575 -0.2301
14799TIP3   OH265811   3.281   0.284  13.127 -0.1590  0.2196  0.4503
14799TIP3    H165812   3.369   0.245  13.125 -0.7474 -1.1417 -0.8815
14799TIP3    H265813   3.263   0.306  13.036 -1.0152  0.9894  0.7873
14800TIP3   OH265814   2.392   1.188   2.788  0.0066 -0.6144  0.2309
14800TIP3    H165815   2.331   1.175   2.716  0.6869 -0.2796 -0.4135
14800TIP3    H265816   2.403   1.283   2.793  0.4047 -0.6670  0.3968
14801TIP3   OH265817   1.353   0.524   3.957 -0.1460  0.1319 -0.7473
14801TIP3    H165818   1.430   0.546   3.906 -0.8081  0.8856 -1.4426
14801TIP3    H265819   1.354   0.585   4.031  0.2888 -0.3254 -0.3632
14802TIP3   OH265820   7.017   2.355   0.399  0.4362 -0.1939  0.0096
14802TIP3    H165821   7.071   2.279   0.380  0.2761 -0.6336  1.2458
14802TIP3    H265822   6.964   2.367   0.320 -0.1002 -1.8636  0.0793
14803TIP3   OH265823   1.952   0.483   0.567  0.0522 -0.1165 -0.0180
14803TIP3    H165824   1.908   0.402   0.541  0.8397 -0.2743 -0.8907
14803TIP3    H265825   1.916   0.502   0.654 -2.2809  0.1631 -0.9690
14804TIP3   OH265826   0.109   2.754   2.947  0.3251 -0.2488  0.5395
14804TIP3    H165827   0.040   2.815   2.973  0.2908 -0.2575  0.4687
14804TIP3    H265828   0.190   2.804   2.956  0.0955  0.8304 -2.4319
14805TIP3   OH265829   4.171   4.257   4.220 -0.2220 -0.0543  0.7860
14805TIP3    H165830   4.193   4.174   4.179  0.8673 -0.1422  1.5111
14805TIP3    H265831   4.123   4.305   4.153 -2.8046 -2.0722  1.0278
14806TIP3   OH265832   2.949   5.933   2.048 -0.2669 -0.1832 -0.3077
14806TIP3    H165833   3.001   5.935   2.128 -0.1977 -1.0482 -0.3224
14806TIP3    H265834   3.013   5.929   1.977 -0.3257  0.6779 -0.4243
14807TIP3   OH265835   1.948   0.116   2.971 -0.3455 -0.2401 -0.2572
14807TIP3    H165836   2.039   0.113   2.942  0.0259  0.7281  0.7455
14807TIP3    H265837   1.923   0.208   2.963 -1.0937 -0.4208 -0.1092
14808TIP3   OH265838   6.461   0.615   1.071  0.2241 -0.2275  0.1105
14808TIP3    H165839   6.381   0.582   1.112 -0.0675 -0.0550 -0.3118
14808TIP3    H265840   6.448   0.599   0.977 -0.8294  2.8407 -0.3902
14809TIP3   OH265841   2.311   0.419   2.683  0.2858 -0.1701  0.0784
14809TIP3    H165842   2.269   0.490   2.732 -1.0953 -0.3861 -0.7229
14809TIP3    H265843   2.404   0.443   2.680 -0.1825  1.7219 -0.3453
14810TIP3   OH265844   5.310   5.410   4.843  0.2374 -0.0959 -0.1952
14810TIP3    H165845   5.216   5.427   4.838  0.0990 -1.0646 -1.2513
14810TIP3    H265846   5.342   5.473   4.908 -1.3973 -0.8754  1.4825
14811TIP3   OH265847   3.576   2.679   1.909 -0.2532 -0.0567 -0.4593
14811TIP3    H165848   3.562   2.585   1.918 -0.7699 -0.1636 -2.1010
14811TIP3    H265849   3.592   2.709   1.998 -1.3193 -1.4979  0.2614
14812TIP3   OH265850   1.783   0.267   4.994 -0.1084  0.6012  0.1737
14812TIP3    H165851   1.853   0.333   4.999  0.8127 -0.3396  0.1949
14812TIP3    H265852   1.826   0.186   5.021 -1.0774 -0.1061 -0.3722
14813TIP3   OH265853   5.332   5.047   5.092 -0.2620  0.0137 -0.5564
14813TIP3    H165854   5.383   4.982   5.045 -0.5031 -0.1331 -0.6164
14813TIP3    H265855   5.392   5.121   5.105  0.2935 -0.5796  0.3229
14814TIP3   OH265856   4.178   5.815   1.324  0.6817  0.6055  0.0018
14814TIP3    H165857   4.137   5.741   1.280  1.2701 -0.0674  0.5771
14814TIP3    H265858   4.109   5.882   1.326 -0.2618 -0.3447  0.5765
14815TIP3   OH265859   2.395   1.995   1.080 -0.2013 -0.9126 -0.1145
14815TIP3    H165860   2.356   2.073   1.039 -1.2356 -0.2328  2.0222
14815TIP3    H265861   2.461   1.966   1.017 -0.3484  1.2013 -1.3565
14816TIP3   OH265862   4.011   4.986   4.083 -0.6035  0.1268  0.2237
14816TIP3    H165863   4.084   4.927   4.102 -0.2276  0.8763  1.1797
14816TIP3    H265864   3.987   4.966   3.992  1.0311  0.1176 -0.2408
14817TIP3   OH265865   1.243   0.897   3.849  0.0238  0.2403  0.1687
14817TIP3    H165866   1.235   0.863   3.938  2.0369 -0.6630  0.0659
14817TIP3    H265867   1.251   0.991   3.859  1.0275  0.0802  1.0389
14818TIP3   OH265868   6.813   3.005   1.293  0.2496  0.2071 -0.4160
14818TIP3    H165869   6.721   2.986   1.281  0.1279  0.6410 -0.2039
14818TIP3    H265870   6.817   3.100   1.303  0.7637  0.2377 -0.8265
14819TIP3   OH265871   2.071   5.065  11.535 -0.4041  0.0126  0.1771
14819TIP3    H165872   2.142   5.037  11.478 -1.4927  1.0913 -1.7964
14819TIP3    H265873   1.998   5.007  11.513 -0.5272 -0.2939  1.3109
14820TIP3   OH265874   4.436   3.999  14.975  0.4263  0.0528  0.2565
14820TIP3    H165875   4.398   3.912  14.988 -0.0860  0.1109 -0.7504
14820TIP3    H265876   4.474   3.995  14.887 -1.0132  1.3255 -0.4723
14821TIP3   OH265877   2.390   6.990   2.959  0.3561  0.4760 -0.4837
14821TIP3    H165878   2.329   6.917   2.946  1.4961 -0.9310  1.5161
14821TIP3    H265879   2.337   7.058   3.001  0.0667 -0.6054  0.9467
14822TIP3   OH265880   5.215   2.156   3.021  0.1267  0.1996 -0.0553
14822TIP3    H165881   5.299   2.125   2.987 -0.2432 -0.9844  0.0693
14822TIP3    H265882   5.213   2.249   3.000  0.3831 -0.2603 -2.2987
14823TIP3   OH265883   3.433   5.495   2.408  0.3566  0.4856 -0.3372
14823TIP3    H165884   3.441   5.561   2.477  1.5686  0.1319 -0.1225
14823TIP3    H265885   3.376   5.428   2.446  1.7097 -0.1277  0.6723
14824TIP3   OH265886   4.442   5.181  11.653 -0.2096 -0.0231 -0.0227
14824TIP3    H165887   4.428   5.262  11.702  0.2805 -1.1092  2.0069
14824TIP3    H265888   4.532   5.155  11.673  0.4890  0.1034 -2.5574
14825TIP3   OH265889   1.274   6.822   5.427 -0.0065 -0.3164  0.0762
14825TIP3    H165890   1.356   6.780   5.453 -0.2850 -0.5893  0.5313
14825TIP3    H265891   1.237   6.855   5.509  0.4675  1.3085 -0.3141
14826TIP3   OH265892   4.455   5.426  14.339  0.2718 -0.6026  0.5044
14826TIP3    H165893   4.395   5.500  14.329 -0.3991 -1.2391 -0.3403
14826TIP3    H265894   4.480   5.428  14.431  0.7646  1.0372  0.3727
14827TIP3   OH265895   4.962   5.349   1.066  0.4293  0.3681  0.1401
14827TIP3    H165896   4.942   5.437   1.034  1.1239  0.6565  0.4724
14827TIP3    H265897   5.029   5.316   1.006  0.4815  0.2314  0.2710
14828TIP3   OH265898   1.343   3.740  15.020  0.4498 -0.1854 -0.0276
14828TIP3    H165899   1.412   3.767  14.961 -1.1203  1.5699 -1.1772
14828TIP3    H265900   1.386   3.682  15.083  2.7717  0.2742 -1.1011
14829TIP3   OH265901   3.483   5.516  13.698  0.0490 -0.2804  0.5887
14829TIP3    H165902   3.545   5.546  13.764  1.4458 -0.7954 -0.4426
14829TIP3    H265903   3.508   5.425  13.680  0.9022  0.3423 -1.8930
14830TIP3   OH265904   6.067   7.156   4.703 -0.5347 -0.0398 -0.2862
14830TIP3    H165905   6.051   7.220   4.633 -0.4962 -0.3919 -0.6198
14830TIP3    H265906   6.068   7.208   4.783 -1.5027  0.2431 -0.4477
14831TIP3   OH265907   1.951   4.248   2.447 -0.5523  0.0878 -0.0093
14831TIP3    H165908   1.988   4.298   2.373 -1.7915 -0.2786 -0.9121
14831TIP3    H265909   1.898   4.181   2.405  0.0866 -1.2254  1.2196
14832TIP3   OH265910   0.908   3.330   1.560 -0.0993 -0.1534 -0.1015
14832TIP3    H165911   0.930   3.360   1.649 -1.4223  0.6090  0.0023
14832TIP3    H265912   0.815   3.352   1.550 -0.1319 -0.8104 -1.4520
14833TIP3   OH265913   3.349   1.538  13.655  0.2739 -0.5480  0.1227
14833TIP3    H165914   3.391   1.597  13.718  1.0590  1.1480 -1.8660
14833TIP3    H265915   3.422   1.503  13.603 -0.2953 -2.4050  0.4954
14834TIP3   OH265916   4.561   5.802   5.091 -0.2365  0.3290  0.1532
14834TIP3    H165917   4.647   5.764   5.110  0.1772  0.5153 -1.2540
14834TIP3    H265918   4.579   5.873   5.030 -1.4918 -0.2849 -0.9872
14835TIP3   OH265919   4.656   3.910  12.677  0.0765  0.0240 -0.7156
14835TIP3    H165920   4.717   3.905  12.751 -0.6668 -2.4797 -0.1901
14835TIP3    H265921   4.614   3.996  12.687  1.5771  0.6802  0.4437
14836TIP3   OH265922   0.093   2.123   4.596  0.1291  0.3270 -0.0865
14836TIP3    H165923   0.126   2.210   4.618 -0.9078  0.6352  0.2873
14836TIP3    H265924   0.160   2.063   4.629 -0.6893  0.8319  2.7788
14837TIP3   OH265925   2.443   4.663  11.082  0.3391  0.1268  0.5742
14837TIP3    H165926   2.403   4.662  10.995 -1.5144  4.1255  1.1766
14837TIP3    H265927   2.370   4.677  11.142  1.9136  0.5206  2.4968
14838TIP3   OH265928   5.333   3.228  14.257 -0.0911  0.2901 -0.5074
14838TIP3    H165929   5.274   3.167  14.302  0.2884 -0.6181 -1.1917
14838TIP3    H265930   5.419   3.187  14.263 -0.0884 -0.0900 -2.3762
14839TIP3   OH265931   0.053   3.235   0.545  0.0792 -0.4520  0.1239
14839TIP3    H165932   0.023   3.304   0.486 -0.7027 -0.4949  0.4587
14839TIP3    H265933  -0.020   3.172   0.546  0.0046 -0.3584  1.2720
14840TIP3   OH265934   2.994   1.399   2.137  0.6591 -0.6064 -1.0777
14840TIP3    H165935   2.925   1.338   2.163  0.4382 -0.5199 -1.4545
14840TIP3    H265936   2.963   1.484   2.166  1.6350 -0.8260  0.7959
14841TIP3   OH265937   1.215   4.850  15.267 -0.5981  0.7841 -0.0095
14841TIP3    H165938   1.292   4.907  15.268  0.3166 -0.4139  0.4294
14841TIP3    H265939   1.171   4.868  15.350 -0.9300  1.6368 -0.3612
14842TIP3   OH265940   2.708   6.921  14.767  0.0443 -0.0862 -0.3299
14842TIP3    H165941   2.649   6.879  14.704  0.2898 -4.2255  1.7946
14842TIP3    H265942   2.796   6.899  14.736  0.1739 -1.5169  0.9053
14843TIP3   OH265943   4.201   6.798   0.347 -0.0865 -0.2598 -0.2255
14843TIP3    H165944   4.195   6.814   0.253 -0.5429 -2.9671 -0.7282
14843TIP3    H265945   4.110   6.801   0.378  0.0588  0.5870  0.1521
14844TIP3   OH265946   5.170   6.633   1.500 -0.2630 -0.2565  0.0075
14844TIP3    H165947   5.228   6.597   1.566  1.1252  1.0237 -0.4675
14844TIP3    H265948   5.195   6.589   1.419  1.4399  1.6390 -0.5754
14845TIP3   OH265949   5.012   3.252   3.212  0.0864 -0.3330 -0.7824
14845TIP3    H165950   4.981   3.243   3.302  0.4784  0.2204 -0.5884
14845TIP3    H265951   5.103   3.223   3.215  0.7823  1.7451 -0.5402
14846TIP3   OH265952   6.547   0.583   4.509  0.8362 -0.3304 -0.6672
14846TIP3    H165953   6.581   0.507   4.557  1.4366 -0.0114 -0.5781
14846TIP3    H265954   6.516   0.643   4.577  1.3216 -0.0492 -0.6909
14847TIP3   OH265955   5.374   3.702   1.089  0.3845  0.0055  0.4382
14847TIP3    H165956   5.414   3.780   1.050 -1.4552  0.4846 -0.6476
14847TIP3    H265957   5.287   3.732   1.116  0.1770 -1.3344  1.2955
14848TIP3   OH265958   1.830   4.707   4.583 -0.0978 -0.5145 -0.3537
14848TIP3    H165959   1.851   4.675   4.671 -0.5209 -2.7520 -1.0270
14848TIP3    H265960   1.753   4.762   4.596  0.1821 -0.3509  0.7454
14849TIP3   OH265961   6.284   0.900   0.431  0.0350  0.3299  0.0306
14849TIP3    H165962   6.371   0.870   0.403  0.6015  2.0968 -0.1869
14849TIP3    H265963   6.250   0.950   0.357 -1.9783 -1.7886 -0.5913
14850TIP3   OH265964   3.270   4.132  15.059  0.3206  0.0915 -0.0770
14850TIP3    H165965   3.199   4.195  15.046 -0.7471 -1.0201  0.2307
14850TIP3    H265966   3.321   4.137  14.978 -0.9013 -0.0654 -0.8817
14851TIP3   OH265967   2.536   2.261  14.094  0.0553 -0.5221 -0.0563
14851TIP3    H165968   2.629   2.240  14.090  0.6455  1.7668 -0.0880
14851TIP3    H265969   2.524   2.328  14.026 -1.4534 -0.2536  0.4445
14852TIP3   OH265970   5.250   1.211   5.762  0.0143  0.0991  0.6118
14852TIP3    H165971   5.290   1.289   5.800  0.6420 -0.3688  0.9330
14852TIP3    H265972   5.164   1.204   5.805  0.3635  0.0613  1.3203
14853TIP3   OH265973   4.420   0.941  13.695  0.0223 -0.0211  0.0660
14853TIP3    H165974   4.509   0.968  13.674 -0.0389  2.1681  2.2005
14853TIP3    H265975   4.427   0.848  13.717  1.5983 -0.0919 -0.6002
14854TIP3   OH265976   0.240   6.479   4.603 -0.1861  0.0277 -0.3249
14854TIP3    H165977   0.276   6.399   4.565 -0.4146 -0.1069 -0.2576
14854TIP3    H265978   0.173   6.507   4.541 -0.7106 -0.3112  0.0854
14855TIP3   OH265979   6.549   2.752   2.571 -0.2339 -0.7021 -0.4132
14855TIP3    H165980   6.469   2.782   2.614  0.1601 -1.1608  0.6902
14855TIP3    H265981   6.520   2.683   2.511 -0.5563 -1.8579  0.9921
14856TIP3   OH265982   1.214   5.675  11.832 -0.2606  0.5595  0.4847
14856TIP3    H165983   1.150   5.611  11.798 -1.3525  3.1926 -2.8996
14856TIP3    H265984   1.284   5.676  11.767  0.3209  1.9324  1.1051
14857TIP3   OH265985   7.107   3.351   3.706  0.8603 -0.6459  0.4204
14857TIP3    H165986   7.060   3.289   3.651  0.8408  0.4373 -0.8564
14857TIP3    H265987   7.060   3.351   3.790  1.1952 -2.7170  0.6509
14858TIP3   OH265988   4.445   3.860   3.230  0.1874 -0.3683  0.5140
14858TIP3    H165989   4.484   3.894   3.311 -1.3928  1.4616  0.5860
14858TIP3    H265990   4.372   3.805   3.259 -0.3217  0.2124  0.3532
14859TIP3   OH265991   6.639   1.644   1.591 -0.3882 -0.4591 -0.6476
14859TIP3    H165992   6.574   1.664   1.658 -0.0180  0.0399 -0.4272
14859TIP3    H265993   6.630   1.715   1.527  0.3627 -0.0331 -0.2951
14860TIP3   OH265994   0.409   4.138   4.093 -0.0355 -0.0083 -0.7900
14860TIP3    H165995   0.397   4.161   4.001 -2.1515 -0.5991 -0.7124
14860TIP3    H265996   0.441   4.219   4.134 -3.5280  1.7699 -1.2272
14861TIP3   OH265997   6.871   5.039   2.252  0.3447  0.4200 -0.0129
14861TIP3    H165998   6.789   5.054   2.205 -0.8606 -0.7569  1.6057
14861TIP3    H265999   6.935   5.020   2.183 -1.0770 -0.1383 -1.2409
14862TIP3   OH266000   1.386   5.930  14.185 -0.2122  0.5004 -0.8037
14862TIP3    H166001   1.317   5.994  14.173  0.1812  0.6047 -2.8775
14862TIP3    H266002   1.461   5.966  14.137  1.5896  0.7721  2.0065
14863TIP3   OH266003   4.629   4.008   0.330 -0.4064  0.5340 -0.6756
14863TIP3    H166004   4.698   3.967   0.279  0.1788  0.1304  0.4056
14863TIP3    H266005   4.551   4.003   0.274 -0.3493 -2.0018 -0.6337
14864TIP3   OH266006   2.891   3.697  14.612  0.2113 -0.1209  0.0499
14864TIP3    H166007   2.804   3.704  14.652 -0.6002 -2.3247 -1.1574
14864TIP3    H266008   2.948   3.670  14.684 -0.3931 -0.0624  0.5581
14865TIP3   OH266009   1.512   3.098   5.006  0.1032  0.0970  0.7775
14865TIP3    H166010   1.485   3.106   5.098 -2.0059 -2.3794  0.4902
14865TIP3    H266011   1.547   3.010   4.999 -0.9810 -0.2402 -1.0417
14866TIP3   OH266012   4.522   3.588  11.952  0.0162  0.2633  0.0967
14866TIP3    H166013   4.548   3.575  11.861 -0.6257 -1.0352  0.0770
14866TIP3    H266014   4.427   3.604  11.948 -0.0460  0.0197  0.5400
14867TIP3   OH266015   5.120   5.837   1.270  0.1976  0.5831  0.3596
14867TIP3    H166016   5.103   5.743   1.263 -1.0839  0.9042 -1.5513
14867TIP3    H266017   5.073   5.864   1.350 -2.3434  0.1299 -0.8793
14868TIP3   OH266018   3.294   5.286   5.034 -0.2296  0.7684 -0.1564
14868TIP3    H166019   3.324   5.261   5.122 -1.3811  0.3358  0.1371
14868TIP3    H266020   3.359   5.350   5.004  0.5318  0.4513  0.7459
14869TIP3   OH266021   4.193   4.262   2.664 -0.2854  0.3704 -0.5731
14869TIP3    H166022   4.277   4.259   2.618  1.0085  2.0188  1.4876
14869TIP3    H266023   4.175   4.356   2.675 -1.2736  0.0355  0.9685
14870TIP3   OH266024   5.243   5.689   3.759  0.2784  0.9411  0.0241
14870TIP3    H166025   5.223   5.624   3.826  0.2958  0.6795 -0.2202
14870TIP3    H266026   5.180   5.671   3.689  0.6835  0.7896 -0.3026
14871TIP3   OH266027   3.851   0.554   2.441 -0.1118  0.0643 -0.1735
14871TIP3    H166028   3.839   0.558   2.536  0.5901  0.7361 -0.0994
14871TIP3    H266029   3.897   0.472   2.426  1.9672  1.0700  0.3472
14872TIP3   OH266030   2.946   4.615  13.293 -0.0419  0.2684 -0.2368
14872TIP3    H166031   2.985   4.554  13.356  0.8848  0.7228 -0.3601
14872TIP3    H266032   2.977   4.585  13.208  0.4442  0.9148 -0.2966
14873TIP3   OH266033   3.637   2.727   0.914  0.6904 -0.0668  0.0251
14873TIP3    H166034   3.551   2.709   0.953 -1.2641  3.2587 -2.2936
14873TIP3    H266035   3.688   2.767   0.985 -0.8669  0.9595  0.6064
14874TIP3   OH266036   4.691   1.026  13.618 -0.2060  0.4662  0.4943
14874TIP3    H166037   4.732   0.942  13.638 -0.7661 -0.3060 -1.4666
14874TIP3    H266038   4.735   1.088  13.677 -0.1632 -1.2510  2.3609
14875TIP3   OH266039   3.207   1.311  13.926 -0.2281  0.2826  0.1380
14875TIP3    H166040   3.288   1.340  13.884  0.1302 -0.5349  0.2375
14875TIP3    H266041   3.226   1.315  14.020  0.2552 -1.3497  0.1527
14876TIP3   OH266042   5.140   4.809   1.498  0.7969 -0.7813  0.4433
14876TIP3    H166043   5.182   4.858   1.428 -0.1115 -0.8637 -0.1890
14876TIP3    H266044   5.063   4.861   1.521  0.7214 -1.0935  0.9163
14877TIP3   OH266045   5.750   1.042  12.597  0.3177 -0.0187  0.2350
14877TIP3    H166046   5.824   0.999  12.553  1.2750  0.2703  1.5171
14877TIP3    H266047   5.787   1.123  12.633 -0.8057  0.4889  0.2931
14878TIP3   OH266048   3.353   4.891  14.399  0.3531 -0.0823  0.0070
14878TIP3    H166049   3.299   4.969  14.385  1.1762  0.1744 -2.0830
14878TIP3    H266050   3.291   4.818  14.401 -0.5225  0.6343  2.9318
14879TIP3   OH266051   5.392   5.667   3.319  0.2224  0.5237 -0.2974
14879TIP3    H166052   5.404   5.637   3.409  0.5344 -0.1857 -0.5689
14879TIP3    H266053   5.467   5.631   3.272 -1.2428 -1.2790 -1.3847
14880TIP3   OH266054   0.542   3.370   3.956  0.3850 -0.2763 -0.1475
14880TIP3    H166055   0.454   3.332   3.945 -0.0952  0.7021  0.2562
14880TIP3    H266056   0.536   3.456   3.914  0.8963  0.1536  0.6452
14881TIP3   OH266057   5.358   1.238  14.291 -0.1471  0.3813  0.3969
14881TIP3    H166058   5.341   1.152  14.329 -0.0889  0.2419  0.1137
14881TIP3    H266059   5.351   1.299  14.365  1.2515 -0.0262  0.9039
14882TIP3   OH266060   0.644   3.808  12.508 -0.2200 -0.5525 -0.0821
14882TIP3    H166061   0.569   3.866  12.523 -0.1468 -0.5609  0.3136
14882TIP3    H266062   0.661   3.816  12.414  0.3651  0.7827  0.1098
14883TIP3   OH266063   2.824   0.091   2.935 -0.2812 -0.3956  0.5045
14883TIP3    H166064   2.834   0.065   3.027 -0.5152 -0.2978  0.5557
14883TIP3    H266065   2.745   0.045   2.905  2.0471 -3.9986 -0.8834
14884TIP3   OH266066   0.944   7.136   4.314 -0.3679  0.5435  0.5058
14884TIP3    H166067   0.962   7.066   4.377 -0.8777 -0.4924 -0.4771
14884TIP3    H266068   1.025   7.147   4.265 -1.2916 -1.8896 -1.7506
14885TIP3   OH266069   0.952   5.071   0.397  0.2768 -0.2293  0.3019
14885TIP3    H166070   0.888   5.016   0.441  0.9826 -1.1093  0.2449
14885TIP3    H266071   1.033   5.021   0.398  0.6273  0.2627 -0.8711
14886TIP3   OH266072   0.174   2.593   5.302  0.3541  0.5409 -0.4017
14886TIP3    H166073   0.133   2.510   5.327 -3.4762  2.0336 -1.0348
14886TIP3    H266074   0.190   2.638   5.384  0.1475  0.1895 -0.1669
14887TIP3   OH266075   3.417   2.056   4.620 -0.1465 -0.3225  0.4168
14887TIP3    H166076   3.442   2.023   4.534 -0.1605  0.6879  0.0182
14887TIP3    H266077   3.465   2.001   4.682  0.7350 -0.3229 -0.2615
14888TIP3   OH266078   1.437   3.847  14.756 -0.0665  0.5024  0.0547
14888TIP3    H166079   1.374   3.777  14.740  2.0972 -1.3791 -0.7495
14888TIP3    H266080   1.473   3.868  14.670  0.4284  1.5303  0.4843
14889TIP3   OH266081   1.198   5.739   0.879  0.1109 -0.4054 -0.4864
14889TIP3    H166082   1.233   5.666   0.827 -0.0052 -0.7079 -0.1465
14889TIP3    H266083   1.253   5.814   0.855  0.7332 -0.7819 -0.2719
14890TIP3   OH266084   2.929   3.228   3.109  0.0380 -0.1682 -0.2855
14890TIP3    H166085   2.961   3.318   3.101  0.7351 -0.2123  1.4726
14890TIP3    H266086   3.003   3.179   3.142 -0.8205 -1.0251  0.4323
14891TIP3   OH266087   0.113   3.365   4.094  0.1568 -0.2658 -0.1429
14891TIP3    H166088   0.190   3.333   4.048 -0.5358 -1.9385 -0.1970
14891TIP3    H266089   0.069   3.421   4.030  0.7580 -0.1559 -0.4719
14892TIP3   OH266090   2.139   2.436   2.638 -0.7754 -0.1012 -0.8348
14892TIP3    H166091   2.053   2.396   2.631 -0.5274 -0.4189 -2.4778
14892TIP3    H266092   2.168   2.447   2.547  0.8037  0.2420 -0.3209
14893TIP3   OH266093   0.099   5.797  13.571  0.0870 -0.1037 -0.2474
14893TIP3    H166094   0.129   5.720  13.522 -1.2088 -0.5783 -0.3108
14893TIP3    H266095   0.174   5.858  13.567  1.4573 -1.6609  0.5210
14894TIP3   OH266096   4.476   7.096  15.156  0.1269 -0.2253  0.0966
14894TIP3    H166097   4.396   7.122  15.202 -0.2905  1.3454 -1.4146
14894TIP3    H266098   4.544   7.150  15.195 -0.2149  1.0577 -1.0215
14895TIP3   OH266099   6.919   5.801   0.403  0.2144 -0.0878 -0.3949
14895TIP3    H166100   6.846   5.744   0.379  1.6807 -2.8402  1.1998
14895TIP3    H266101   6.995   5.762   0.360  1.1467  1.1555  0.0726
14896TIP3   OH266102   1.629   3.077   0.988 -0.2462  0.0685 -0.3450
14896TIP3    H166103   1.574   3.142   0.945 -0.0700  0.4992  0.0741
14896TIP3    H266104   1.580   3.051   1.066  0.0682  0.3343 -0.0563
14897TIP3   OH266105   3.029   4.251   4.559  0.3380 -0.1344  0.2958
14897TIP3    H166106   2.940   4.216   4.569  0.4625 -0.6765 -0.3683
14897TIP3    H266107   3.048   4.293   4.642 -2.0174  3.4277 -0.7274
14898TIP3   OH266108   2.087   4.400   3.047 -0.3064 -0.3512  0.1731
14898TIP3    H166109   2.062   4.488   3.075  0.7980  0.1433 -0.3224
14898TIP3    H266110   2.141   4.414   2.969 -2.7028 -1.6230 -1.8747
14899TIP3   OH266111   5.252   4.647   3.367  0.3037  0.2195  0.1757
14899TIP3    H166112   5.197   4.696   3.428 -0.0018 -1.1070  1.0123
14899TIP3    H266113   5.191   4.616   3.300 -0.3406 -2.3648  1.7937
14900TIP3   OH266114   2.205   5.008   2.281 -0.3740  0.5015 -0.5606
14900TIP3    H166115   2.227   5.100   2.265 -0.6131  0.4224 -1.3914
14900TIP3    H266116   2.201   5.001   2.376 -0.2749  1.3305 -0.4831
14901TIP3   OH266117   2.577   2.024   3.940  0.1903 -0.4426 -0.2076
14901TIP3    H166118   2.515   1.957   3.911  1.0953 -1.9063  1.0557
14901TIP3    H266119   2.653   1.974   3.971  1.6864  1.2623 -0.9436
14902TIP3   OH266120   5.694   0.498   1.142 -0.0011  0.3362  0.4902
14902TIP3    H166121   5.695   0.537   1.055  1.4187  0.1358  0.3806
14902TIP3    H266122   5.667   0.407   1.128  0.6943  0.1718  0.1795
14903TIP3   OH266123   3.461   0.976   1.986  0.7602 -0.6153  0.2835
14903TIP3    H166124   3.499   1.060   2.011 -1.5592  1.4485 -2.3947
14903TIP3    H266125   3.398   0.956   2.054  0.1064  0.7736  0.1208
14904TIP3   OH266126   3.837   5.947   1.912 -0.3710  0.2572  0.0948
14904TIP3    H166127   3.765   5.911   1.965 -0.1232 -1.1497 -0.4798
14904TIP3    H266128   3.832   5.898   1.830  0.5804  0.9187 -0.3694
14905TIP3   OH266129   5.379   6.761   3.770 -0.3776  0.0570 -0.0297
14905TIP3    H166130   5.370   6.666   3.759  1.6151 -0.1195 -0.4710
14905TIP3    H266131   5.436   6.788   3.699  0.1259  1.3854  0.8387
14906TIP3   OH266132   0.108   6.889   0.621  0.1908  0.0903  0.7299
14906TIP3    H166133   0.179   6.835   0.587 -1.3486 -2.2573  0.9159
14906TIP3    H266134   0.094   6.956   0.555  0.4577 -1.4159 -0.9377
14907TIP3   OH266135   6.126   1.453   0.191 -0.8626 -0.2434  0.0572
14907TIP3    H166136   6.160   1.502   0.117  1.9320  1.1557  2.0564
14907TIP3    H266137   6.199   1.396   0.217 -0.0957  2.1540  3.9773
14908TIP3   OH266138   6.018   3.272   3.038 -0.2675 -0.1665  0.5346
14908TIP3    H166139   6.014   3.314   3.124 -0.8985  1.7584 -0.3807
14908TIP3    H266140   6.079   3.326   2.988 -1.4888 -0.0199 -0.8434
14909TIP3   OH266141   1.858   1.149   5.069 -0.1821 -0.2809  0.3335
14909TIP3    H166142   1.829   1.139   5.160 -1.1579  1.1886  0.2139
14909TIP3    H266143   1.911   1.070   5.052 -0.6224 -0.9584  1.9120
14910TIP3   OH266144   1.304   4.629  13.760  0.0998  0.1768 -0.0686
14910TIP3    H166145   1.267   4.657  13.844  0.9774  1.3765 -0.0573
14910TIP3    H266146   1.339   4.709  13.721  1.7596 -0.7400 -0.5447
14911TIP3   OH266147   3.807   5.140  14.751  0.1268 -0.5900  0.1733
14911TIP3    H166148   3.837   5.054  14.720  1.0344 -0.5073  0.7573
14911TIP3    H266149   3.840   5.202  14.686 -1.5333 -0.7638 -0.8782
14912TIP3   OH266150   3.832   6.910   5.439  0.4606  0.5085  0.3022
14912TIP3    H166151   3.893   6.887   5.509  1.5198  0.7910 -0.4862
14912TIP3    H266152   3.747   6.915   5.481  0.7726 -1.0842  1.2295
14913TIP3   OH266153   3.387   4.199  12.741  0.5877  0.2487 -0.5035
14913TIP3    H166154   3.311   4.157  12.701 -1.3990  1.7740  1.3985
14913TIP3    H266155   3.462   4.159  12.699 -1.2468 -1.9772 -1.8694
14914TIP3   OH266156   0.504   5.069   3.629 -0.0866 -0.3555  0.1253
14914TIP3    H166157   0.427   5.023   3.663  1.3256 -1.3909  2.1610
14914TIP3    H266158   0.540   5.010   3.563  0.1088 -0.8988  0.6949
14915TIP3   OH266159   2.124   3.480   5.607  0.0292  0.4710  0.4274
14915TIP3    H166160   2.129   3.505   5.515  1.1134  0.2598  0.4165
14915TIP3    H266161   2.151   3.558   5.655  2.7794 -0.3738  0.4141
14916TIP3   OH266162   5.230   4.529  14.893  0.0511  0.0855  0.3960
14916TIP3    H166163   5.226   4.441  14.931  1.8163 -0.8536 -1.3951
14916TIP3    H266164   5.241   4.514  14.799 -1.1898  2.2696 -0.1751
14917TIP3   OH266165   2.644   2.846   5.237 -0.3269 -0.3702 -0.2523
14917TIP3    H166166   2.724   2.829   5.188 -0.3262  0.0263 -0.3922
14917TIP3    H266167   2.669   2.909   5.304 -0.3262 -0.9180  0.2776
14918TIP3   OH266168   2.168   7.049  15.337 -0.3444  0.0041 -0.0365
14918TIP3    H166169   2.225   6.979  15.305 -0.3521  0.4281 -1.0039
14918TIP3    H266170   2.127   7.085  15.258 -2.1111 -0.4022  0.6351
14919TIP3   OH266171   1.592   1.475   2.465 -0.1906  0.1338 -0.0543
14919TIP3    H166172   1.520   1.499   2.523  1.2655 -0.5958  2.1935
14919TIP3    H266173   1.574   1.385   2.439 -0.7377  0.3950 -0.6201
14920TIP3   OH266174   4.556   2.033   1.262  0.1665  0.0921 -0.3032
14920TIP3    H166175   4.610   1.956   1.281  0.8797  1.0414  1.9261
14920TIP3    H266176   4.618   2.106   1.260 -0.6464  0.7795 -1.1463
14921TIP3   OH266177   4.431   2.306   3.091  0.1863 -0.1452 -0.4938
14921TIP3    H166178   4.440   2.399   3.111  0.2976 -0.5320  1.5772
14921TIP3    H266179   4.461   2.297   3.001 -5.2324  2.6656 -3.0330
14922TIP3   OH266180   4.787   2.177   3.334 -0.3509 -0.2106 -0.3297
14922TIP3    H166181   4.806   2.137   3.250 -2.1763 -2.1988  0.1295
14922TIP3    H266182   4.692   2.172   3.343 -0.3541  1.3553  1.2053
14923TIP3   OH266183   7.018   5.259   3.581 -0.1740  0.0201 -0.1172
14923TIP3    H166184   6.993   5.319   3.651  1.0038  0.4281 -0.0233
14923TIP3    H266185   7.108   5.284   3.559  0.7354 -2.3158  0.5972
14924TIP3   OH266186   6.251   3.927   3.764 -0.2040 -0.2514  0.1471
14924TIP3    H166187   6.279   3.861   3.828  1.1850  0.5777  0.4357
14924TIP3    H266188   6.327   3.984   3.753 -2.1082  2.8788  1.8546
14925TIP3   OH266189   2.085   6.347   0.029  0.4785  0.7824  0.4300
14925TIP3    H166190   2.045   6.287  -0.033  0.2923  0.5161  0.8056
14925TIP3    H266191   2.123   6.291   0.097 -1.8910  1.1087  2.1568
14926TIP3   OH266192   1.793   1.107   1.653  0.0192 -0.5416 -0.1748
14926TIP3    H166193   1.860   1.166   1.686 -0.1463 -0.5267  0.1401
14926TIP3    H266194   1.731   1.164   1.606  0.0825 -0.5216 -0.2345
14927TIP3   OH266195   2.652   1.055  15.079  0.0544  0.3962  0.0687
14927TIP3    H166196   2.674   1.147  15.064 -0.6248  0.6888  0.7817
14927TIP3    H266197   2.634   1.021  14.992  0.3663  0.9246 -0.2112
14928TIP3   OH266198   0.772   1.489   0.703  0.6695 -0.4635  0.7506
14928TIP3    H166199   0.804   1.441   0.779 -0.0542 -0.7532  0.8753
14928TIP3    H266200   0.754   1.577   0.737  1.1350 -0.3483  0.7189
14929TIP3   OH266201   0.678   6.306  14.465 -0.2994  0.6314  0.1524
14929TIP3    H166202   0.711   6.375  14.407  1.6832 -0.5878 -0.2505
14929TIP3    H266203   0.698   6.338  14.553  0.7314  0.5591 -0.0362
14930TIP3   OH266204   2.922   0.883  11.284  0.2070 -0.1116  0.6147
14930TIP3    H166205   2.939   0.976  11.296  1.6686 -0.2893  0.0620
14930TIP3    H266206   2.944   0.843  11.369  1.9253 -0.2411  0.1342
14931TIP3   OH266207   0.125   5.987  14.328  0.4195  0.0084  0.0710
14931TIP3    H166208   0.132   5.892  14.339 -2.0700 -0.1888  0.6765
14931TIP3    H266209   0.179   6.023  14.398 -0.0400 -1.0212  1.0007
14932TIP3   OH266210   7.105   3.444   5.232  0.2872  0.2991 -0.1971
14932TIP3    H166211   7.070   3.456   5.143  1.6081  0.5937 -0.7080
14932TIP3    H266212   7.043   3.489   5.289 -0.8453 -0.3044 -0.9127
14933TIP3   OH266213   4.296   2.833   1.461  0.2071  0.0115 -0.0107
14933TIP3    H166214   4.212   2.862   1.426  0.5298  0.4912 -0.3970
14933TIP3    H266215   4.278   2.747   1.500 -0.3835 -0.0491 -0.4153
14934TIP3   OH266216   1.156   0.151   2.690 -0.3791 -0.1581  0.0701
14934TIP3    H166217   1.157   0.112   2.603  2.3747  0.4454 -0.2693
14934TIP3    H266218   1.177   0.244   2.676  1.3445 -0.2882  1.4032
14935TIP3   OH266219   3.168   1.429   0.241  0.1831 -0.3378  0.0642
14935TIP3    H166220   3.242   1.450   0.298  0.9952 -1.6380 -0.4654
14935TIP3    H266221   3.181   1.337   0.218 -1.3550 -0.4604 -0.4150
14936TIP3   OH266222   7.035   3.231   1.381  0.4405  0.4066  0.1844
14936TIP3    H166223   7.082   3.246   1.464 -1.4088  1.1104  1.1543
14936TIP3    H266224   7.025   3.136   1.377  1.1086  0.3138  0.4195
14937TIP3   OH266225   4.057   4.046   2.026 -0.2053 -0.0813 -0.6643
14937TIP3    H166226   4.011   3.962   2.036  0.0149 -0.1663 -0.3809
14937TIP3    H266227   4.006   4.092   1.959 -1.0852  0.0822  0.0896
14938TIP3   OH266228   4.953   0.152  12.844 -0.7468 -0.3114  0.4207
14938TIP3    H166229   5.043   0.129  12.868 -0.8724 -0.3461  0.8839
14938TIP3    H266230   4.930   0.091  12.774 -0.4711 -0.4197  0.4226
14939TIP3   OH266231   6.155   6.449   4.755 -0.2344 -0.2072  0.1413
14939TIP3    H166232   6.115   6.512   4.815  1.4725  2.5871 -1.3966
14939TIP3    H266233   6.239   6.427   4.796 -0.5940 -1.0841  0.4180
14940TIP3   OH266234   4.507   1.050  11.545  0.0989  0.5471 -0.1503
14940TIP3    H166235   4.516   1.136  11.504 -0.6766 -0.4535 -2.6540
14940TIP3    H266236   4.560   0.992  11.490 -0.2805 -0.7649  0.8188
14941TIP3   OH266237   0.140   2.160   0.973 -0.8846  0.0250 -0.1423
14941TIP3    H166238   0.134   2.175   1.067 -0.5971 -2.0424  0.2482
14941TIP3    H266239   0.223   2.200   0.947  0.4221 -1.7492  1.0463
14942TIP3   OH266240   1.182   3.495   2.899  0.2934  0.0082  0.1300
14942TIP3    H166241   1.159   3.582   2.932 -0.0159 -0.8671  2.3468
14942TIP3    H266242   1.148   3.494   2.809 -0.6637  1.7773  0.4274
14943TIP3   OH266243   5.316   7.033   1.977  0.1305  0.0752 -0.2922
14943TIP3    H166244   5.387   6.983   2.016  0.1677  0.3178 -0.0430
14943TIP3    H266245   5.355   7.075   1.901  0.0166 -0.5300 -0.6907
14944TIP3   OH266246   3.532   1.470  13.964  0.3463 -0.1695  0.1785
14944TIP3    H166247   3.456   1.473  14.022 -0.7200 -2.9213 -0.9155
14944TIP3    H266248   3.551   1.562  13.945 -2.9162  0.6478  0.2519
14945TIP3   OH266249   1.954   4.904   4.256 -0.7120  0.5689  0.0231
14945TIP3    H166250   1.890   4.841   4.224 -2.7434  2.3803  0.3096
14945TIP3    H266251   2.013   4.852   4.310 -1.2811 -1.3503 -1.1008
14946TIP3   OH266252   4.177   4.387  14.537 -0.0593  0.0096 -0.0237
14946TIP3    H166253   4.257   4.361  14.583 -0.8752 -0.6559  1.0652
14946TIP3    H266254   4.118   4.418  14.606 -1.7471 -2.1279 -0.4028
14947TIP3   OH266255   5.682   3.658   2.750 -0.1790  0.0744 -0.1010
14947TIP3    H166256   5.751   3.629   2.809 -0.9832 -2.7847 -0.4297
14947TIP3    H266257   5.729   3.696   2.675  0.9797 -0.4605  0.3307
14948TIP3   OH266258   3.241   6.722   3.335 -0.2397 -0.0224 -0.1354
14948TIP3    H166259   3.284   6.710   3.251  1.2472 -0.4562  0.6569
14948TIP3    H266260   3.311   6.749   3.395 -1.6458  2.6890  0.4809
14949TIP3   OH266261   2.825   0.448  13.097 -0.1500 -0.2087 -0.1932
14949TIP3    H166262   2.885   0.470  13.025 -0.3153  0.8416 -0.0230
14949TIP3    H266263   2.811   0.531  13.143 -0.8608 -0.6677  0.4385
14950TIP3   OH266264   0.854   1.277   2.955  0.2925  0.0448 -0.3237
14950TIP3    H166265   0.938   1.283   3.000 -0.2003  0.5218  0.5617
14950TIP3    H266266   0.794   1.328   3.009 -0.7836 -1.0674 -0.4184
14951TIP3   OH266267   4.529   5.951   0.264  0.9084  0.4052 -0.0392
14951TIP3    H166268   4.474   5.911   0.331  0.8877 -0.6415 -0.6461
14951TIP3    H266269   4.469   5.967   0.191  1.5675 -1.9293 -1.1993
14952TIP3   OH266270   6.307   3.540   3.659 -0.0890 -0.2650  0.4212
14952TIP3    H166271   6.239   3.495   3.709  0.4890 -1.3179  0.2793
14952TIP3    H266272   6.288   3.520   3.567  0.7887 -1.1366  0.4143
14953TIP3   OH266273   0.415   5.210   2.738  0.5232  0.4874  0.2928
14953TIP3    H166274   0.381   5.264   2.810 -1.5888 -1.1782  0.6717
14953TIP3    H266275   0.484   5.157   2.778  1.2775  1.4994  0.3762
14954TIP3   OH266276   3.651   5.524  14.333 -0.6572 -0.1231  0.6545
14954TIP3    H166277   3.708   5.570  14.393 -0.6313 -2.1333  2.2669
14954TIP3    H266278   3.603   5.461  14.388 -3.1482  0.2764 -0.8898
14955TIP3   OH266279   6.341   2.516   1.425 -0.4410 -0.0369  0.2094
14955TIP3    H166280   6.365   2.603   1.393 -2.2197  0.9242  1.2755
14955TIP3    H266281   6.386   2.508   1.509  0.2024 -0.4193 -0.1648
14956TIP3   OH266282   5.764   2.498   4.482  0.3877 -0.0860 -0.3648
14956TIP3    H166283   5.822   2.478   4.556  1.8140  0.3327 -1.3100
14956TIP3    H266284   5.717   2.577   4.509 -0.0724 -0.6684  0.5914
14957TIP3   OH266285   2.685   3.545   1.289 -0.2520 -0.0637  0.1908
14957TIP3    H166286   2.765   3.597   1.298 -1.2577  1.7961 -0.9961
14957TIP3    H266287   2.714   3.463   1.250  1.2010  0.1484  0.7487
14958TIP3   OH266288   4.071   2.606   0.910 -0.3016 -0.3144  0.3721
14958TIP3    H166289   4.140   2.665   0.881 -0.8377  0.3264  0.3716
14958TIP3    H266290   3.997   2.624   0.851 -0.2568 -1.4610 -0.0502
14959TIP3   OH266291   1.960   5.294   3.990 -0.0880 -0.2854  0.3233
14959TIP3    H166292   1.910   5.350   3.930  0.9785 -1.3974 -1.7249
14959TIP3    H266293   1.935   5.323   4.077 -2.4290  0.8083 -0.6414
14960TIP3   OH266294   3.069   1.687   3.357 -0.3641  0.0450 -0.1376
14960TIP3    H166295   2.978   1.662   3.367 -0.5386 -0.6937 -2.9819
14960TIP3    H266296   3.115   1.606   3.337  0.6807  0.6118 -0.1323
14961TIP3   OH266297   5.645   2.398   1.915  0.2662  0.1382 -0.1765
14961TIP3    H166298   5.619   2.446   1.994  2.4011  0.3878  0.4377
14961TIP3    H266299   5.632   2.306   1.937  2.3531  0.0968  1.1291
14962TIP3   OH266300   0.574   5.930  15.157  0.0360  0.3429  0.2772
14962TIP3    H166301   0.499   5.964  15.108 -0.2461  0.7741  0.9984
14962TIP3    H266302   0.551   5.943  15.249 -0.4765 -2.5216  0.6794
14963TIP3   OH266303   4.653   1.662   2.021 -0.7862  0.7199  0.2765
14963TIP3    H166304   4.684   1.674   1.931  0.6982 -0.2190  0.6082
14963TIP3    H266305   4.725   1.614   2.063 -1.3201  1.4267  2.0456
14964TIP3   OH266306   0.485   4.215   2.175 -0.1620  0.2478 -0.1095
14964TIP3    H166307   0.579   4.215   2.156  0.0199 -0.2445  0.7421
14964TIP3    H266308   0.443   4.218   2.089  0.6303 -0.7491 -0.5513
14965TIP3   OH266309   7.114   6.454  14.857  0.3278 -0.2919 -0.6659
14965TIP3    H166310   7.163   6.389  14.807 -1.3579 -0.9953 -1.4857
14965TIP3    H266311   7.096   6.412  14.941  3.1141  0.8703  0.6512
14966TIP3   OH266312   4.958   1.783   1.715 -0.2378 -0.2176 -0.1566
14966TIP3    H166313   4.997   1.784   1.628 -1.8819  0.0850 -0.9183
14966TIP3    H266314   4.979   1.868   1.752 -0.3256  0.0059 -0.6179
14967TIP3   OH266315   2.896   7.184   2.246  0.1009 -0.0197  0.0308
14967TIP3    H166316   2.906   7.255   2.309 -1.3146  0.1789  0.0592
14967TIP3    H266317   2.927   7.220   2.163 -1.1021  0.8180 -0.0688
14968TIP3   OH266318   1.639   4.752   3.557 -0.3477  0.3692 -0.4216
14968TIP3    H166319   1.580   4.819   3.591  0.6170  1.7809 -1.4341
14968TIP3    H266320   1.704   4.741   3.625 -2.4154 -2.2251  1.3435
14969TIP3   OH266321   1.151   5.544   2.254 -0.3277 -0.2872 -0.2020
14969TIP3    H166322   1.180   5.458   2.225 -0.2922 -0.1983 -0.4335
14969TIP3    H266323   1.207   5.606   2.207 -0.1162 -0.1450  0.2259
14970TIP3   OH266324   5.009   2.725   3.723  0.4816 -0.2611  0.5006
14970TIP3    H166325   5.004   2.803   3.777  1.7453  0.2314 -0.0707
14970TIP3    H266326   5.102   2.705   3.717  0.1887 -1.8055  0.6103
14971TIP3   OH266327   5.323   1.158   1.278  0.3006  0.5839 -1.0731
14971TIP3    H166328   5.340   1.228   1.340  1.0590 -1.6648  1.4640
14971TIP3    H266329   5.228   1.146   1.280  0.1124  1.8003 -1.9037
14972TIP3   OH266330   0.820   3.455  14.666 -0.1882  0.2196 -0.2462
14972TIP3    H166331   0.799   3.476  14.575 -2.0906  0.0641  0.1049
14972TIP3    H266332   0.750   3.397  14.694  1.4171 -1.3190  0.7766
14973TIP3   OH266333   3.925   1.428   3.905 -0.7270  0.4625 -0.0175
14973TIP3    H166334   3.921   1.393   3.994 -1.2720 -0.9927 -0.5864
14973TIP3    H266335   3.834   1.435   3.878 -0.5434  0.1837 -0.7242
14974TIP3   OH266336   5.710   6.559   5.214  0.1249  0.0200 -0.8872
14974TIP3    H166337   5.634   6.594   5.168 -0.2272 -0.2152 -0.4933
14974TIP3    H266338   5.684   6.470   5.239  0.2544  0.1920 -0.1084
14975TIP3   OH266339   0.506   4.775  14.232 -0.8264 -0.3194 -0.5089
14975TIP3    H166340   0.567   4.847  14.214 -0.3590 -0.2826  1.0650
14975TIP3    H266341   0.470   4.752  14.146  1.2803 -0.2247 -1.4786
14976TIP3   OH266342   6.185   2.804   5.890  0.2554 -0.2739  0.0983
14976TIP3    H166343   6.129   2.818   5.814  1.3841 -0.3116 -0.7671
14976TIP3    H266344   6.255   2.747   5.858  0.0631 -1.3516  1.4975
14977TIP3   OH266345   6.073   6.810   4.042 -0.1810  1.5434  0.3889
14977TIP3    H166346   6.082   6.886   3.985  1.2358  0.1966 -1.3036
14977TIP3    H266347   6.051   6.738   3.983 -0.9500  0.5033  1.8719
14978TIP3   OH266348   4.204   0.957  13.018  0.2602 -0.7665  0.7590
14978TIP3    H166349   4.154   0.932  13.096  0.2993 -0.5776  0.8457
14978TIP3    H266350   4.290   0.983  13.052 -0.3542  1.2968  0.8960
14979TIP3   OH266351   1.213   0.616  11.749  0.1272  0.1952  0.4699
14979TIP3    H166352   1.260   0.606  11.831 -0.1259  0.1764  0.6116
14979TIP3    H266353   1.280   0.603  11.681  1.1633  3.6327  0.6177
14980TIP3   OH266354   3.900   5.421   1.090 -0.2073  0.2921 -0.0947
14980TIP3    H166355   3.893   5.340   1.040  0.8797  0.3677 -0.3926
14980TIP3    H266356   3.812   5.460   1.085 -1.3144 -1.7647  1.6692
14981TIP3   OH266357   5.096   5.698  14.810 -0.0328  0.7120  0.1448
14981TIP3    H166358   5.039   5.627  14.782 -0.1796  1.1311 -0.6485
14981TIP3    H266359   5.038   5.774  14.818  0.0976  0.7215  1.1080
14982TIP3   OH266360   4.463   1.543  13.578  0.1141 -0.1040 -0.2236
14982TIP3    H166361   4.513   1.475  13.624 -0.2063 -0.3670 -0.2568
14982TIP3    H266362   4.467   1.619  13.636  0.2084 -0.2494 -0.0344
14983TIP3   OH266363   1.027   2.835   3.395  0.8534  0.0319  0.3662
14983TIP3    H166364   1.097   2.894   3.423  0.9877  0.2827 -0.4533
14983TIP3    H266365   0.948   2.890   3.396  1.4411  1.2360 -3.3934
14984TIP3   OH266366   0.442   7.162   5.871  0.1015 -0.1978  0.4208
14984TIP3    H166367   0.523   7.177   5.921 -0.1050  0.2022  0.6398
14984TIP3    H266368   0.462   7.194   5.783 -0.2333  1.1401  0.8030
14985TIP3   OH266369   0.423   0.543   2.163 -0.0740 -0.0363  0.7809
14985TIP3    H166370   0.435   0.571   2.072  0.7218  0.3624  1.0008
14985TIP3    H266371   0.480   0.601   2.213 -0.9314  0.1170  1.5949
14986TIP3   OH266372   7.194   6.079   1.624 -0.2315  0.2861 -0.6116
14986TIP3    H166373   7.111   6.035   1.645 -0.1513  0.4844  0.1553
14986TIP3    H266374   7.254   6.008   1.602 -0.1651  0.0146  0.4046
14987TIP3   OH266375   2.744   2.126   1.713 -0.6901 -0.3823  0.1379
14987TIP3    H166376   2.779   2.145   1.626  0.3446  1.2775  0.8737
14987TIP3    H266377   2.736   2.030   1.715  1.5970 -0.6579 -0.9302
14988TIP3   OH266378   1.623   4.866   2.613  0.0835 -0.2035 -0.6208
14988TIP3    H166379   1.688   4.858   2.682 -0.0484 -0.6911 -0.5493
14988TIP3    H266380   1.664   4.824   2.537  0.6911  1.3095 -1.1822
14989TIP3   OH266381   1.716   2.354   2.274  0.4906  0.0527 -0.3980
14989TIP3    H166382   1.780   2.412   2.313 -0.5713  1.2757 -0.4125
14989TIP3    H266383   1.724   2.369   2.179  1.8260 -1.5900 -0.5905
14990TIP3   OH266384   2.938   5.820   5.517 -0.6503 -0.6286  0.2048
14990TIP3    H166385   2.846   5.828   5.492 -0.6457  2.8758  0.7414
14990TIP3    H266386   2.971   5.910   5.517  2.3496 -1.5693  1.6819
14991TIP3   OH266387   5.390   5.117   5.415 -0.0159 -0.3073  0.4838
14991TIP3    H166388   5.390   5.165   5.497  1.5344 -0.0151  0.3449
14991TIP3    H266389   5.469   5.148   5.369  0.5031 -2.2712 -0.0257
14992TIP3   OH266390   1.462   4.224   1.606  0.5268  0.4214  0.5966
14992TIP3    H166391   1.448   4.162   1.678 -1.9216  0.5201  0.3098
14992TIP3    H266392   1.451   4.310   1.647  0.2571  0.5128  0.3379
14993TIP3   OH266393   1.939   0.000   0.373 -0.2468 -0.1666 -0.5317
14993TIP3    H166394   2.027  -0.037   0.376 -0.4053 -0.5074  0.1100
14993TIP3    H266395   1.920   0.008   0.280  0.3226 -0.4209 -0.6783
14994TIP3   OH266396   4.255   6.956  14.406 -0.3370 -0.1405 -0.1317
14994TIP3    H166397   4.239   6.995  14.492 -0.9827  0.5524 -0.5510
14994TIP3    H266398   4.199   6.879  14.404  0.6871 -0.9426  0.5685
14995TIP3   OH266399   5.329   7.163   0.695 -0.5983  0.0849  0.1239
14995TIP3    H166400   5.342   7.187   0.603  1.4299 -0.5468  0.2103
14995TIP3    H266401   5.320   7.068   0.694 -1.4370  0.1478  0.5203
14996TIP3   OH266402   2.322   0.022   0.694 -0.4345 -0.3394 -0.6291
14996TIP3    H166403   2.353  -0.025   0.617 -1.3592  0.1868 -1.3337
14996TIP3    H266404   2.260  -0.038   0.736  0.2921 -0.7474 -0.1015
14997TIP3   OH266405   6.055   3.961   1.750  0.0767  0.0104  0.2370
14997TIP3    H166406   5.993   3.905   1.796 -0.4090  0.9137  0.7076
14997TIP3    H266407   6.078   4.028   1.814  0.8306  0.2193 -0.2399
14998TIP3   OH266408   4.987   0.919  11.212 -0.2060  0.0916 -0.2281
14998TIP3    H166409   4.961   0.857  11.280 -0.9514 -0.9403 -1.4027
14998TIP3    H266410   5.056   0.971  11.252 -0.9222 -0.1840  1.4570
14999TIP3   OH266411   6.195   6.786   1.383 -0.7979  0.1748 -0.6006
14999TIP3    H166412   6.208   6.707   1.435  1.8289  0.6317 -0.3953
14999TIP3    H266413   6.173   6.755   1.296  1.1284 -0.8869 -0.7675
15000TIP3   OH266414   5.930   4.277   4.556  0.1573 -0.0151 -0.6565
15000TIP3    H166415   5.880   4.255   4.478  0.4057  1.6353 -1.3369
15000TIP3    H266416   5.864   4.295   4.623 -0.2162  1.8358 -1.4586
15001TIP3   OH266417   0.946   5.968   1.228 -0.3510  0.1175  0.6199
15001TIP3    H166418   0.881   6.027   1.264 -1.4920 -0.6712 -0.0835
15001TIP3    H266419   0.961   5.904   1.298 -1.0384 -0.2374  0.4489
15002TIP3   OH266420   2.135   0.338   4.471 -0.1637 -0.2493 -0.2991
15002TIP3    H166421   2.182   0.343   4.554 -1.3649 -2.0575  0.5442
15002TIP3    H266422   2.142   0.426   4.434  1.3364  0.3002  1.1682
15003TIP3   OH266423   1.780   1.240   0.845  0.0956  0.1267  0.1462
15003TIP3    H166424   1.865   1.246   0.800  0.9418 -0.1755  1.6235
15003TIP3    H266425   1.733   1.171   0.799  0.5875  0.3984 -0.7885
15004TIP3   OH266426   6.662   3.448   3.311 -0.4915 -0.7684 -0.0820
15004TIP3    H166427   6.727   3.377   3.320  0.5455  0.3530  2.0785
15004TIP3    H266428   6.579   3.405   3.330 -0.1813 -1.8304 -0.9562
15005TIP3   OH266429   0.825   1.737  12.259 -0.0201  0.0728 -0.2083
15005TIP3    H166430   0.891   1.689  12.309  1.4264  0.1714 -1.9165
15005TIP3    H266431   0.814   1.819  12.306 -0.1829 -0.6211  1.0131
15006TIP3   OH266432   2.841   5.970   2.803 -0.1447 -0.4424  0.5663
15006TIP3    H166433   2.767   6.011   2.759  0.7209  1.6346  0.9414
15006TIP3    H266434   2.806   5.942   2.888 -0.7030 -0.2679  0.3951
15007TIP3   OH266435   6.324   0.804   3.911 -0.4814 -0.4313  0.0731
15007TIP3    H166436   6.316   0.802   3.815  0.5989  1.2780 -0.0793
15007TIP3    H266437   6.414   0.832   3.927 -0.8790  0.0489  1.5811
15008TIP3   OH266438   6.949   6.683   0.098 -0.7143  0.0534 -0.9675
15008TIP3    H166439   6.898   6.602   0.104 -0.7965  0.0414 -1.7865
15008TIP3    H266440   7.025   6.661   0.044  1.2219 -0.4453  1.7505
15009TIP3   OH266441   0.770   1.542   3.929  0.5137 -0.0201 -0.1791
15009TIP3    H166442   0.690   1.557   3.979  0.7902  0.1401  0.2219
15009TIP3    H266443   0.805   1.630   3.912  0.3028 -0.0596 -0.8574
15010TIP3   OH266444   3.069   2.806   2.762  0.1022 -0.0924  0.0370
15010TIP3    H166445   3.016   2.854   2.826 -0.5722 -0.9535  0.1528
15010TIP3    H266446   3.159   2.820   2.789 -0.1808 -0.5333  1.2442
15011TIP3   OH266447   3.496   0.540   0.974 -0.2503  0.0328 -0.4631
15011TIP3    H166448   3.468   0.495   0.894  0.1196  0.3922 -0.7984
15011TIP3    H266449   3.425   0.524   1.036 -0.1319 -0.9949 -0.5785
15012TIP3   OH266450   5.355   3.829  10.417  0.6711 -0.2159 -0.2173
15012TIP3    H166451   5.321   3.878  10.492  1.9606  0.4771 -0.0473
15012TIP3    H266452   5.312   3.743  10.422 -1.8676  0.9371 -0.6938
15013TIP3   OH266453   0.290   2.259   2.077  0.1521  0.0583  0.3597
15013TIP3    H166454   0.212   2.314   2.069  1.2482  1.7426  0.8525
15013TIP3    H266455   0.272   2.202   2.152 -0.4972  0.5913  0.6147
15014TIP3   OH266456   0.423   3.057  13.998 -0.1904 -0.6566  0.0936
15014TIP3    H166457   0.500   3.114  13.997 -1.5288  1.2297  0.8737
15014TIP3    H266458   0.450   2.982  13.945  1.2855  1.1543 -1.9056
15015TIP3   OH266459   0.490   4.838   2.394 -0.4472  0.0190  0.0328
15015TIP3    H166460   0.578   4.807   2.372  0.0113  0.0015  1.7340
15015TIP3    H266461   0.463   4.783   2.467 -1.7551  0.2449 -0.2641
15016TIP3   OH266462   2.642   2.997   2.579  0.4706 -0.1899 -0.2579
15016TIP3    H166463   2.709   3.064   2.576  0.6384 -0.3594 -0.3309
15016TIP3    H266464   2.689   2.917   2.604  0.5210 -0.5765 -1.5220
15017TIP3   OH266465   6.446   7.212   4.393 -0.4452 -0.4000  0.6103
15017TIP3    H166466   6.521   7.237   4.447  1.7745 -1.5556 -1.6902
15017TIP3    H266467   6.454   7.117   4.385 -0.4327 -0.2620 -1.9107
15018TIP3   OH266468   3.248   0.396  12.855 -0.1713 -0.3692  0.2911
15018TIP3    H166469   3.205   0.318  12.818  1.5483 -1.3928  0.3284
15018TIP3    H266470   3.328   0.405  12.803  1.0181 -0.2896  2.0595
15019TIP3   OH266471   5.819   1.090   4.650  0.0038 -0.8913 -0.5630
15019TIP3    H166472   5.892   1.135   4.692 -0.5636 -0.9682  0.5491
15019TIP3    H266473   5.766   1.160   4.610  0.6516 -0.8351 -1.3517
15020TIP3   OH266474   5.926   0.063   3.054  0.1531 -0.1446  0.5888
15020TIP3    H166475   5.866  -0.012   3.065  0.6496 -0.4478  1.2996
15020TIP3    H266476   6.013   0.023   3.046  0.3898  0.3472  0.6978
15021TIP3   OH266477   1.521   0.954   1.235 -0.0057 -0.3336 -0.1779
15021TIP3    H166478   1.591   0.915   1.286 -0.1340 -0.2299  0.0781
15021TIP3    H266479   1.524   0.908   1.151 -0.0821 -0.8134  0.0821
15022TIP3   OH266480   0.481   5.943   4.787  0.1862 -0.2925 -0.3120
15022TIP3    H166481   0.429   6.023   4.797  0.7446  0.0026  0.3476
15022TIP3    H266482   0.544   5.963   4.718  1.4315  0.4723  0.9747
15023TIP3   OH266483   6.936   4.188  13.245 -0.0711  0.4470 -0.3266
15023TIP3    H166484   6.848   4.151  13.237 -0.1482  0.3848  0.6389
15023TIP3    H266485   6.972   4.145  13.323  0.8435  0.4187 -0.7528
15024TIP3   OH266486   0.508   3.680  10.464 -0.1961  0.0207 -0.2184
15024TIP3    H166487   0.436   3.634  10.506 -0.4818  0.0737 -0.6490
15024TIP3    H266488   0.491   3.671  10.371  1.4931 -1.8238 -0.4069
15025TIP3   OH266489   3.464   5.730   4.725  0.0553 -0.1195 -0.4895
15025TIP3    H166490   3.439   5.771   4.643  0.0081 -2.0409 -1.4818
15025TIP3    H266491   3.411   5.774   4.791 -1.3618  0.1304 -1.7410
15026TIP3   OH266492   5.324   4.148   0.943 -0.0548  0.6498 -0.4734
15026TIP3    H166493   5.362   4.125   0.858  1.6222  1.4253  0.0289
15026TIP3    H266494   5.383   4.108   1.007 -0.9495  0.6040  0.3530
15027TIP3   OH266495   2.061   2.682   3.451  0.7305 -0.5107 -0.2304
15027TIP3    H166496   2.100   2.706   3.535  0.4330 -0.0408 -0.2228
15027TIP3    H266497   2.003   2.755   3.430 -0.3682 -1.3192 -0.1055
15028TIP3   OH266498   3.119   4.961   4.006 -0.6098  0.0346  0.2539
15028TIP3    H166499   3.052   4.949   4.074 -1.2316  0.7495 -0.2171
15028TIP3    H266500   3.174   4.882   4.012 -1.7679 -0.7900  0.3327
15029TIP3   OH266501   2.751   2.751   3.636 -0.4836 -0.2560 -0.5007
15029TIP3    H166502   2.809   2.677   3.650 -1.6181 -0.7014  2.5166
15029TIP3    H266503   2.686   2.719   3.573 -0.0278 -1.2448 -0.4844
15030TIP3   OH266504   4.827   3.966   2.253 -0.1041 -0.0175  0.3332
15030TIP3    H166505   4.922   3.964   2.258 -0.0215  0.0494 -0.8856
15030TIP3    H266506   4.803   4.055   2.279  0.2402  0.2565 -0.2714
15031TIP3   OH266507   1.116   3.092   3.274 -0.1379  0.3807 -0.4071
15031TIP3    H166508   1.152   3.079   3.362 -1.9168  0.0439  0.3285
15031TIP3    H266509   1.050   3.160   3.285 -0.8039 -0.0779 -1.3445
15032TIP3   OH266510   6.992   6.554  12.545  0.5419  0.1635  0.0132
15032TIP3    H166511   6.959   6.640  12.521  0.5906  0.7047  1.7435
15032TIP3    H266512   7.063   6.572  12.606 -0.5229 -1.1004  1.6989
15033TIP3   OH266513   2.078   1.678   4.772 -0.0482  0.9118  0.1178
15033TIP3    H166514   1.986   1.699   4.790 -0.9534 -1.1235 -1.7528
15033TIP3    H266515   2.106   1.627   4.848 -0.8394  0.5016  0.1382
15034TIP3   OH266516   0.973   0.431   3.916 -0.0188 -0.0162 -0.2545
15034TIP3    H166517   0.931   0.504   3.962 -0.4297 -0.5119  0.1650
15034TIP3    H266518   1.035   0.474   3.857 -1.3518  0.7634 -1.1655
15035TIP3   OH266519   1.576   3.965   3.797  0.0885 -0.4077 -0.0688
15035TIP3    H166520   1.539   3.953   3.884  2.4203 -1.3248  0.8872
15035TIP3    H266521   1.516   3.920   3.738 -2.1472  1.1999  0.8540
15036TIP3   OH266522   2.373   0.666   1.958  0.2479  0.0363  0.6978
15036TIP3    H166523   2.397   0.609   2.031 -0.9512 -1.5422 -0.0764
15036TIP3    H266524   2.283   0.641   1.936  0.6641  0.2649 -1.4951
15037TIP3   OH266525   0.428   5.558  13.551  0.1823  0.5693  0.2031
15037TIP3    H166526   0.352   5.610  13.525 -0.7889 -0.6557  0.5536
15037TIP3    H266527   0.503   5.611  13.522 -0.7418  0.0712 -3.7310
15038TIP3   OH266528   5.271   3.992   3.852  0.1642 -0.4519 -0.6435
15038TIP3    H166529   5.179   4.005   3.828 -0.3091 -1.3759  0.5851
15038TIP3    H266530   5.293   3.906   3.815  0.1905 -0.7283  0.0038
15039TIP3   OH266531   1.442   3.133   3.654 -0.4628  0.6090 -0.0848
15039TIP3    H166532   1.438   3.225   3.681 -0.9718  0.2492  1.1174
15039TIP3    H266533   1.463   3.085   3.734 -2.9051 -0.5934 -0.0812
15040TIP3   OH266534   5.356   3.414   1.015 -0.5440 -0.1484 -0.6141
15040TIP3    H166535   5.271   3.386   1.048  0.1091  0.3967  1.7010
15040TIP3    H266536   5.377   3.493   1.066  1.6573 -0.6722 -0.6111
15041TIP3   OH266537   4.228   1.195   2.027  0.4685  0.4160  0.1216
15041TIP3    H166538   4.242   1.230   2.115  0.3845  1.7358 -0.3704
15041TIP3    H266539   4.177   1.262   1.982  1.7565  0.4409 -1.3826
15042TIP3   OH266540   6.565   7.090   2.466  0.3439  0.1366  0.2128
15042TIP3    H166541   6.649   7.062   2.429  0.5043  0.2525  0.4862
15042TIP3    H266542   6.504   7.021   2.440  0.6198 -0.1852  0.3979
15043TIP3   OH266543   6.475   3.060   5.407 -0.8199  0.2593 -0.3751
15043TIP3    H166544   6.450   3.118   5.479  0.1652 -0.4456  0.5765
15043TIP3    H266545   6.504   2.980   5.450 -0.7226 -0.3904 -1.5970
15044TIP3   OH266546   6.901   0.814  13.602 -0.4753  0.2343 -0.1901
15044TIP3    H166547   6.815   0.809  13.642 -0.8528 -0.6650 -1.0770
15044TIP3    H266548   6.962   0.818  13.676 -1.2160 -0.1798  0.4500
15045TIP3   OH266549   1.379   1.650   3.152  0.4339 -0.1856  0.2926
15045TIP3    H166550   1.369   1.632   3.246  3.8217  1.2716  1.0901
15045TIP3    H266551   1.362   1.743   3.143 -0.4584 -0.4242 -0.6914
15046TIP3   OH266552   3.930   2.921   4.644 -0.5361  0.8987 -0.1250
15046TIP3    H166553   4.009   2.866   4.639  0.1569  1.6393  1.8238
15046TIP3    H266554   3.866   2.866   4.689 -1.3315  0.1432 -2.0784
15047TIP3   OH266555   1.491   2.970   5.505 -0.1178  0.2019  0.1173
15047TIP3    H166556   1.432   2.929   5.568 -0.3084 -1.5818 -1.1279
15047TIP3    H266557   1.548   3.026   5.558  0.2859 -1.8490  2.0023
15048TIP3   OH266558   3.355   5.237   2.262  0.0024 -0.7940  0.1948
15048TIP3    H166559   3.334   5.330   2.267  1.7750 -0.1631 -2.0851
15048TIP3    H266560   3.327   5.211   2.174  0.3422 -2.1817  0.4815
15049TIP3   OH266561   5.207   5.922   4.856 -0.1840 -0.2464  0.0221
15049TIP3    H166562   5.235   5.934   4.946 -0.0350  0.4535 -0.1104
15049TIP3    H266563   5.289   5.909   4.807 -0.3573 -2.5467  0.2395
15050TIP3   OH266564   6.841   2.706   0.226 -0.1149 -0.0830 -0.1604
15050TIP3    H166565   6.798   2.771   0.171 -1.1594  0.2866  1.0425
15050TIP3    H266566   6.775   2.637   0.238  0.1029 -0.1711  0.5945
15051TIP3   OH266567   6.707   6.512   5.131 -0.1295  0.6479 -0.1586
15051TIP3    H166568   6.700   6.566   5.052  0.9767 -0.6741 -1.1999
15051TIP3    H266569   6.637   6.544   5.188 -0.4236  2.1903 -1.3192
15052TIP3   OH266570   7.026   4.120  14.636 -0.4387 -0.2786 -0.1599
15052TIP3    H166571   7.102   4.104  14.581  0.0954 -0.0111  0.4845
15052TIP3    H266572   6.984   4.197  14.597 -0.8680 -0.9373 -1.0165
15053TIP3   OH266573   2.497   2.862   1.952  0.0394  0.0734  0.0267
15053TIP3    H166574   2.469   2.943   1.909 -0.4853  0.0218  0.2648
15053TIP3    H266575   2.422   2.803   1.943 -0.0180  0.0118  0.8805
15054TIP3   OH266576   4.000   1.624   4.853  0.1113  0.2528  0.2887
15054TIP3    H166577   4.059   1.575   4.796 -0.9898  0.0194 -0.6941
15054TIP3    H266578   3.913   1.610   4.815 -0.6269  0.3310  1.8771
15055TIP3   OH266579   3.027   4.977   0.003 -0.1470  0.4314 -0.1622
15055TIP3    H166580   2.968   4.905   0.026 -1.9417  2.1713  1.0093
15055TIP3    H266581   2.983   5.055   0.035  1.7719  2.0775 -1.2970
15056TIP3   OH266582   0.816   4.782  10.979  0.0905 -0.1310 -0.0788
15056TIP3    H166583   0.755   4.711  11.001  1.0119 -0.7540  0.5551
15056TIP3    H266584   0.823   4.833  11.059  1.4666 -0.8927  0.3257
15057TIP3   OH266585   1.193   3.249  15.078  0.2286 -0.1856 -0.2278
15057TIP3    H166586   1.127   3.317  15.091 -2.3130 -2.8994  3.0237
15057TIP3    H266587   1.146   3.179  15.033  1.9318 -0.8985 -0.9661
15058TIP3   OH266588   5.012   0.112  11.183 -0.2642  0.0917 -0.0707
15058TIP3    H166589   5.086   0.159  11.145  0.2762 -0.0125  0.8117
15058TIP3    H266590   5.023   0.022  11.154  0.0998  0.0282  0.2585
15059TIP3   OH266591   0.368   3.281   5.797 -0.1543 -0.5134 -0.0232
15059TIP3    H166592   0.447   3.303   5.846  0.2557 -0.5036 -0.6690
15059TIP3    H266593   0.399   3.221   5.728 -0.3926  0.8644 -1.3741
15060TIP3   OH266594   3.481   5.455   1.194 -0.3340  1.0105  0.2479
15060TIP3    H166595   3.424   5.381   1.215 -0.2413  0.3583 -1.6381
15060TIP3    H266596   3.539   5.463   1.270  0.3891 -1.5896  0.0684
15061TIP3   OH266597   0.146   1.252   2.236 -0.3834 -0.2917 -0.2212
15061TIP3    H166598   0.052   1.269   2.247 -0.4830 -0.0139 -1.3469
15061TIP3    H266599   0.150   1.169   2.188 -0.0459 -0.4139  0.0157
15062TIP3   OH266600   4.894   4.958  13.866  0.3243  0.4873  0.1694
15062TIP3    H166601   4.848   4.902  13.930 -1.5841 -1.8202 -2.9527
15062TIP3    H266602   4.985   4.928  13.870 -0.4995 -2.5021 -0.8769
15063TIP3   OH266603   5.866   2.588   2.269 -0.3967 -0.3380  0.6345
15063TIP3    H166604   5.873   2.682   2.286  1.1626 -0.6311  1.8580
15063TIP3    H266605   5.773   2.569   2.282 -0.3946  0.6629  2.7061
15064TIP3   OH266606   6.739   6.664   4.284 -0.6660  1.0380  0.4672
15064TIP3    H166607   6.690   6.724   4.228  0.8468  2.0817  0.2149
15064TIP3    H266608   6.672   6.608   4.323 -1.7583 -0.4313 -3.0839
15065TIP3   OH266609   0.542   6.448   4.143  0.0885  0.0724  0.1763
15065TIP3    H166610   0.544   6.354   4.160  0.4586 -0.2548 -1.4934
15065TIP3    H266611   0.602   6.486   4.207 -0.9769 -0.6710  1.6522
15066TIP3   OH266612   6.222   4.562   2.471  0.0210 -0.4408  0.1398
15066TIP3    H166613   6.219   4.595   2.560  0.3886  0.7640 -0.2717
15066TIP3    H266614   6.165   4.622   2.421  1.9267  0.5840 -0.9199
15067TIP3   OH266615   2.282   3.473  11.931 -0.0156  1.0745 -0.0960
15067TIP3    H166616   2.244   3.497  11.847 -0.1665 -0.0346 -0.3582
15067TIP3    H266617   2.342   3.401  11.911 -0.3151  0.5564  0.7915
15068TIP3   OH266618   6.123   6.725  15.250  0.1459 -0.2765 -0.0435
15068TIP3    H166619   6.197   6.664  15.261  0.7953  0.1622 -1.5963
15068TIP3    H266620   6.106   6.758  15.338  1.6510 -0.5739  0.3999
15069TIP3   OH266621   5.368   2.802  10.890 -0.0503  0.2413 -0.2564
15069TIP3    H166622   5.296   2.864  10.874 -0.2620 -0.1534 -0.8610
15069TIP3    H266623   5.369   2.746  10.812  0.5821 -0.0834 -0.0188
15070TIP3   OH266624   1.667   0.057   3.249  0.8132  0.3618  0.2928
15070TIP3    H166625   1.688   0.033   3.158 -1.1500 -2.9277  0.5463
15070TIP3    H266626   1.599   0.124   3.240 -0.2947 -0.8267 -0.7877
15071TIP3   OH266627   1.012   5.801   4.555 -0.2739 -0.0508  0.1298
15071TIP3    H166628   0.953   5.767   4.622  0.6093  0.4816  1.2091
15071TIP3    H266629   1.099   5.772   4.582 -0.0170 -1.0789 -1.5961
15072TIP3   OH266630   5.066   3.421  12.641 -0.3928 -0.3107 -0.1679
15072TIP3    H166631   4.987   3.466  12.611  0.2782 -0.7426 -2.9040
15072TIP3    H266632   5.138   3.473  12.607  0.5657  0.1901  2.4742
15073TIP3   OH266633   0.033   2.398   4.041  0.1503  0.1600  0.0553
15073TIP3    H166634   0.002   2.484   4.015  0.2672 -0.1573 -1.2062
15073TIP3    H266635   0.114   2.415   4.089 -0.3345  0.7945  0.6794
15074TIP3   OH266636   2.310   0.182   3.338 -0.8405  0.3602  0.0486
15074TIP3    H166637   2.321   0.242   3.412 -2.4882  0.8101 -0.0492
15074TIP3    H266638   2.219   0.155   3.342 -0.2070 -1.9510 -0.0901
15075TIP3   OH266639   1.964   3.749   4.145 -0.2517  0.3890 -0.1520
15075TIP3    H166640   1.989   3.667   4.103  0.8568  1.2866 -1.3434
15075TIP3    H266641   2.031   3.762   4.213  0.2141  0.8105 -0.6769
15076TIP3   OH266642   4.241   6.897  14.679 -0.0655 -0.0201 -0.2317
15076TIP3    H166643   4.160   6.850  14.700 -0.5037  0.0818 -1.6033
15076TIP3    H266644   4.227   6.986  14.711  0.1963 -0.4250  1.0652
15077TIP3   OH266645   0.461   2.334   4.784 -0.1827  0.7383 -0.1726
15077TIP3    H166646   0.415   2.283   4.850  1.1518  1.2889  1.2221
15077TIP3    H266647   0.431   2.424   4.798  1.3539  1.1224  0.8291
15078TIP3   OH266648   2.758   5.680  10.853  0.4193  0.2470  0.3858
15078TIP3    H166649   2.786   5.597  10.891 -3.6661 -0.4541  2.4024
15078TIP3    H266650   2.768   5.743  10.924  2.3390  1.3324 -0.7583
15079TIP3   OH266651   5.572   6.389  14.335  0.6023 -0.2736  0.8062
15079TIP3    H166652   5.641   6.451  14.357 -0.2358  0.3596  1.7717
15079TIP3    H266653   5.550   6.408  14.244  0.7870  0.4223  0.9023
15080TIP3   OH266654   5.680   4.026   2.638  0.0110 -0.1581 -0.2104
15080TIP3    H166655   5.716   4.073   2.713 -0.4455 -1.3574  0.8071
15080TIP3    H266656   5.737   3.950   2.627 -1.4316 -1.4427  0.6678
15081TIP3   OH266657   0.613   5.195   3.867  0.1946  0.2990  0.2101
15081TIP3    H166658   0.703   5.224   3.855  0.4039 -0.8474 -1.1733
15081TIP3    H266659   0.590   5.153   3.785 -1.4850  0.2257  0.6865
15082TIP3   OH266660   2.080   4.590  13.231 -0.0081 -0.4067 -0.4252
15082TIP3    H166661   2.122   4.544  13.304 -0.1684  0.3363  0.1419
15082TIP3    H266662   2.024   4.655  13.273  0.6232  0.6710 -1.2322
15083TIP3   OH266663   3.259   0.940   2.186  0.7074  0.2118 -0.5885
15083TIP3    H166664   3.180   0.896   2.155 -0.6097  1.1536  1.2879
15083TIP3    H266665   3.299   0.878   2.246  1.0686 -0.0079 -1.0478
15084TIP3   OH266666   6.673   4.647   4.591 -0.1273 -0.0030  0.5718
15084TIP3    H166667   6.689   4.643   4.497  0.2732 -1.1577  0.6736
15084TIP3    H266668   6.577   4.649   4.599 -0.1568  0.4359  0.1373
15085TIP3   OH266669   4.717   3.414   3.675 -0.4607 -0.4863 -0.4477
15085TIP3    H166670   4.640   3.396   3.730  0.9924 -1.1773  1.4750
15085TIP3    H266671   4.715   3.345   3.608  0.0436 -2.3559  1.3642
15086TIP3   OH266672   0.189   3.496   1.896 -0.4885 -0.4443  0.7772
15086TIP3    H166673   0.131   3.548   1.952  0.3393 -1.2100  2.4021
15086TIP3    H266674   0.165   3.405   1.914  1.8906 -0.8385  2.3234
15087TIP3   OH266675   1.586   4.413   2.715  0.0688  0.3759  0.4391
15087TIP3    H166676   1.623   4.414   2.804 -0.3479  0.5435  0.6150
15087TIP3    H266677   1.553   4.324   2.704  3.0326 -0.7013 -0.7968
15088TIP3   OH266678   4.047   4.981   9.686  0.4756  0.9752 -0.3964
15088TIP3    H166679   4.122   5.017   9.734  0.8670  2.3724 -1.9419
15088TIP3    H266680   4.044   4.889   9.712  0.2751  1.7419  2.7023
15089TIP3   OH266681   2.676   5.567   0.698  0.2795 -0.1858 -0.5685
15089TIP3    H166682   2.665   5.475   0.721 -0.5928  0.4932  2.1219
15089TIP3    H266683   2.588   5.604   0.703  0.9228  1.2883  1.1029
15090TIP3   OH266684   0.398   2.221  11.114  0.3085  1.1902  0.3822
15090TIP3    H166685   0.352   2.178  11.186  0.9396  0.9430  0.6544
15090TIP3    H266686   0.491   2.211  11.136  0.4990  1.5371 -0.2255
15091TIP3   OH266687   2.300   6.988   3.664 -0.5726  0.0184 -0.0595
15091TIP3    H166688   2.229   7.031   3.711  0.7091  0.0760  1.9125
15091TIP3    H266689   2.285   7.011   3.572 -1.8506  1.8313  0.5480
15092TIP3   OH266690   2.833   5.536   1.970 -0.3234 -0.3254  1.2478
15092TIP3    H166691   2.841   5.543   1.875 -1.5646  1.1030  1.2046
15092TIP3    H266692   2.923   5.544   2.002 -0.0184  0.6570  0.2442
15093TIP3   OH266693   6.165   1.407   4.957 -0.0003 -0.0186 -0.0137
15093TIP3    H166694   6.189   1.362   5.038 -0.7852  0.7100  0.6394
15093TIP3    H266695   6.080   1.448   4.976  0.1053  0.6947 -0.9932
15094TIP3   OH266696   6.934   1.164  13.607  0.1182  0.2666  0.2636
15094TIP3    H166697   6.929   1.131  13.518  0.4014  0.2621  0.2508
15094TIP3    H266698   7.025   1.153  13.632  0.8691  3.3963 -0.6415
15095TIP3   OH266699   2.187   0.487   0.440  0.1679 -0.2903 -0.2285
15095TIP3    H166700   2.192   0.426   0.514  0.0962 -0.4015 -0.3142
15095TIP3    H266701   2.097   0.520   0.442  0.0056 -0.6990 -0.5849
15096TIP3   OH266702   2.299   5.145  13.200  0.1782  0.6676 -0.0320
15096TIP3    H166703   2.330   5.092  13.274  0.8368  0.2381 -0.6069
15096TIP3    H266704   2.360   5.218  13.195 -0.4675  1.2583  0.4774
15097TIP3   OH266705   1.566   3.925   2.173 -0.0370 -0.3891 -0.2541
15097TIP3    H166706   1.483   3.957   2.135  0.5700  1.9829  0.2794
15097TIP3    H266707   1.630   3.937   2.103  0.4861  1.0394  0.4409
15098TIP3   OH266708   0.838   4.911   0.612 -0.0509 -0.7439  0.0762
15098TIP3    H166709   0.898   4.837   0.614 -0.2999 -0.9540  1.7889
15098TIP3    H266710   0.859   4.961   0.692  1.3649  2.0790 -1.8802
15099TIP3   OH266711   2.099   0.798   3.016  0.3736 -0.4384 -0.5392
15099TIP3    H166712   2.064   0.865   3.074  2.6360  0.7603 -0.4496
15099TIP3    H266713   2.186   0.778   3.052  0.0436 -2.9965 -0.9218
15100TIP3   OH266714   4.380   0.981   4.020 -0.4962 -0.0168 -0.0132
15100TIP3    H166715   4.369   0.886   4.008  0.4873 -0.1618  0.1473
15100TIP3    H266716   4.323   1.002   4.094 -0.5161 -0.5378  0.1247
15101TIP3   OH266717   5.469   3.852   1.407 -0.0378 -0.0356  0.1917
15101TIP3    H166718   5.456   3.901   1.327 -0.8881  0.3881  0.5721
15101TIP3    H266719   5.563   3.834   1.410 -0.2693 -2.0749 -2.0557
15102TIP3   OH266720   0.212   5.940   1.182 -0.0732  0.1162 -0.2152
15102TIP3    H166721   0.176   5.871   1.125  1.6306 -1.8654  0.9507
15102TIP3    H266722   0.254   6.001   1.122  1.7467 -1.9519 -1.1814
15103TIP3   OH266723   4.474   1.173   1.066 -0.0720  0.3870 -0.4474
15103TIP3    H166724   4.559   1.210   1.090  0.1526 -0.4211  0.0805
15103TIP3    H266725   4.410   1.237   1.096  0.2759  0.0736  1.0245
15104TIP3   OH266726   0.131   1.167   1.566  0.1406  0.2469 -0.4704
15104TIP3    H166727   0.167   1.166   1.477  0.3921 -1.9430 -0.4071
15104TIP3    H266728   0.087   1.251   1.573 -0.6955  0.1057 -2.9999
15105TIP3   OH266729   1.277   2.677   2.520 -0.7038  0.2356 -0.2111
15105TIP3    H166730   1.228   2.596   2.505  0.3476 -0.2805 -0.9370
15105TIP3    H266731   1.369   2.650   2.521 -0.2880  1.5276 -1.1913
15106TIP3   OH266732   0.195   5.169   4.585  0.0302 -0.1290  0.0210
15106TIP3    H166733   0.106   5.182   4.619 -0.2255 -0.0527 -0.6623
15106TIP3    H266734   0.213   5.076   4.600 -0.6735 -0.4467 -1.0044
15107TIP3   OH266735   1.842   2.488  15.320  0.1133 -0.7224  0.0742
15107TIP3    H166736   1.798   2.542  15.386 -0.7211 -0.6859 -0.4960
15107TIP3    H266737   1.815   2.399  15.340 -1.0027 -0.6099 -0.8406
15108TIP3   OH266738   0.347   5.304   2.104 -0.4416  0.0939 -0.2547
15108TIP3    H166739   0.396   5.381   2.134 -0.9344  0.3837 -0.1863
15108TIP3    H266740   0.297   5.335   2.028 -0.4977 -0.2102 -0.3450
15109TIP3   OH266741   6.021   1.266   0.375  0.0569  0.6427 -0.2368
15109TIP3    H166742   5.992   1.206   0.305  1.6879 -0.1602 -0.2791
15109TIP3    H266743   6.058   1.341   0.328 -0.1037  0.7365 -0.2135
15110TIP3   OH266744   5.901   4.952   4.772 -0.6804 -0.6642  0.1807
15110TIP3    H166745   5.817   4.994   4.754  0.0076  0.9421  0.5420
15110TIP3    H266746   5.963   4.999   4.716  0.5460  0.5704  2.4657
15111TIP3   OH266747   1.435   4.179   4.146 -0.5212 -0.1209 -0.2627
15111TIP3    H166748   1.509   4.150   4.200  0.6917 -0.0025 -1.7823
15111TIP3    H266749   1.448   4.273   4.136  0.0786 -0.3398 -1.8559
15112TIP3   OH266750   4.078   6.636   4.739 -0.3215 -0.3730  0.1418
15112TIP3    H166751   4.004   6.580   4.714 -0.2899  0.0724 -0.9966
15112TIP3    H266752   4.044   6.689   4.811 -0.8010 -0.8463  0.2757
15113TIP3   OH266753   1.231   5.161   5.370 -0.1862 -0.3236 -0.0065
15113TIP3    H166754   1.168   5.094   5.345  1.0772 -1.0452 -1.4379
15113TIP3    H266755   1.271   5.188   5.288  3.0344 -1.6125  0.9564
15114TIP3   OH266756   5.626   1.055   2.540 -0.3144 -0.1078 -0.6351
15114TIP3    H166757   5.543   1.063   2.588 -0.4178 -1.9761 -0.4484
15114TIP3    H266758   5.600   1.048   2.448 -0.5214 -2.2685 -0.4603
15115TIP3   OH266759   3.835   0.981   4.158  0.1398  0.1325 -1.3103
15115TIP3    H166760   3.739   0.977   4.152  0.1656 -0.9056 -1.0712
15115TIP3    H266761   3.862   1.023   4.076 -0.6202  2.1993 -0.5888
15116TIP3   OH266762   6.074   2.635  14.474  0.3000  0.1074  0.5903
15116TIP3    H166763   6.149   2.613  14.531  0.7257  0.7833  0.3036
15116TIP3    H266764   6.094   2.723  14.441 -0.8453  0.4891  0.8631
15117TIP3   OH266765   3.711   1.482  10.623 -0.1966 -0.2106 -0.9633
15117TIP3    H166766   3.649   1.461  10.693 -1.5335 -0.4671 -2.1680
15117TIP3    H266767   3.657   1.487  10.544  1.0946  1.1414 -1.8187
15118TIP3   OH266768   2.163   0.137   1.114 -0.1274  0.3317 -0.0394
15118TIP3    H166769   2.204   0.214   1.155 -1.4933  0.8345  0.4386
15118TIP3    H266770   2.237   0.087   1.079  0.9396  0.8600  1.3503
15119TIP3   OH266771   0.878   4.095   4.933  0.1824 -0.3043  0.2973
15119TIP3    H166772   0.866   4.190   4.937  2.3471 -0.0228  2.8591
15119TIP3    H266773   0.961   4.083   4.886 -0.2752 -0.9969 -0.3732
15120TIP3   OH266774   5.802   6.882   0.999 -0.8442  0.2849  0.3072
15120TIP3    H166775   5.786   6.965   0.954 -0.5933 -0.2143 -0.7343
15120TIP3    H266776   5.716   6.858   1.035 -0.6666  1.5956  1.7203
15121TIP3   OH266777   2.449   1.595   3.461  0.3815 -0.1352 -0.0719
15121TIP3    H166778   2.401   1.676   3.449 -1.1240 -0.9827 -0.0206
15121TIP3    H266779   2.396   1.529   3.416  1.5139 -1.1166 -0.0236
15122TIP3   OH266780   6.886   2.156   1.764  0.2238 -0.3020 -0.1672
15122TIP3    H166781   6.968   2.106   1.756 -0.2750 -1.1603  0.0068
15122TIP3    H266782   6.912   2.246   1.746  1.3836 -0.4274  0.7212
15123TIP3   OH266783   4.212   5.841  12.819  0.1244  0.7700 -0.8732
15123TIP3    H166784   4.203   5.758  12.774 -1.2519 -0.5251  1.5584
15123TIP3    H266785   4.271   5.822  12.892 -2.3154  1.0842  1.3286
15124TIP3   OH266786   1.605   5.450   5.107  0.1429  0.5942 -0.2134
15124TIP3    H166787   1.577   5.391   5.177 -0.0917 -0.2738 -1.0325
15124TIP3    H266788   1.620   5.533   5.152  0.1019  0.0272  0.8922
15125TIP3   OH266789   5.115   3.458   1.857  0.3619 -0.8116 -0.7142
15125TIP3    H166790   5.154   3.396   1.794  1.1490 -2.3762  1.2202
15125TIP3    H266791   5.125   3.415   1.942  0.8569  1.9604  0.7170
15126TIP3   OH266792   0.995   1.885   1.066 -0.3320 -0.2084 -0.0379
15126TIP3    H166793   1.068   1.937   1.098  1.7291 -0.6393 -3.5871
15126TIP3    H266794   1.020   1.795   1.085  0.4616 -0.4020 -1.8516
15127TIP3   OH266795   5.726   1.847   3.211 -0.1830 -0.3913  0.6888
15127TIP3    H166796   5.789   1.911   3.243  0.6511 -0.9630  0.2337
15127TIP3    H266797   5.732   1.774   3.272  0.5251 -0.9748 -0.0617
15128TIP3   OH266798   5.181   1.791   2.530 -0.0624  0.4626 -0.6807
15128TIP3    H166799   5.113   1.723   2.533 -0.2987  0.7297  0.4764
15128TIP3    H266800   5.221   1.781   2.444 -0.3004 -0.9446 -0.6557
15129TIP3   OH266801   0.267   0.457   4.134  0.1352 -0.0313  0.0617
15129TIP3    H166802   0.355   0.476   4.167 -0.4155  1.3159  0.8458
15129TIP3    H266803   0.211   0.520   4.179 -1.2788 -1.0376 -0.2272
15130TIP3   OH266804   3.219   0.872   1.672  0.3106  0.1828  0.4129
15130TIP3    H166805   3.207   0.789   1.719  0.1651 -0.7430 -1.1984
15130TIP3    H266806   3.131   0.895   1.641  0.7656 -0.5627 -1.5506
15131TIP3   OH266807   1.693   5.193  13.616  0.1224  0.2208 -0.6162
15131TIP3    H166808   1.773   5.184  13.564  0.3476 -0.3670 -0.1846
15131TIP3    H266809   1.720   5.239  13.695 -0.1046  0.6074 -0.7606
15132TIP3   OH266810   0.226   1.718   1.219  0.2023 -0.6299  0.6017
15132TIP3    H166811   0.181   1.756   1.295 -0.6125 -0.4312  0.0406
15132TIP3    H266812   0.228   1.624   1.237 -0.5028 -0.6495  0.6200
15133TIP3   OH266813   0.736   6.841  10.986  0.5135 -0.0927 -0.0565
15133TIP3    H166814   0.820   6.886  10.989 -0.0106  0.9396 -0.5685
15133TIP3    H266815   0.704   6.855  10.896 -0.2458 -0.3969  0.1547
15134TIP3   OH266816   4.162   2.603   4.974 -0.0997 -0.2647  0.5584
15134TIP3    H166817   4.199   2.531   4.922 -0.5764  0.3282 -0.6511
15134TIP3    H266818   4.104   2.560   5.036 -1.4778 -0.8854 -1.0841
15135TIP3   OH266819   5.869   2.336   1.758 -0.1479  0.4116 -0.4704
15135TIP3    H166820   5.860   2.242   1.742  2.0671 -0.0534  0.7123
15135TIP3    H266821   5.801   2.355   1.823 -1.3349 -0.1040 -1.5158
15136TIP3   OH266822   3.913   2.231   1.144  0.3080  0.3311 -0.3581
15136TIP3    H166823   3.875   2.228   1.056  1.1068  0.2063 -0.7057
15136TIP3    H266824   3.997   2.187   1.136  1.1554  1.7925  0.0948
15137TIP3   OH266825   2.525   4.951   1.044 -0.1046 -0.0759 -0.4632
15137TIP3    H166826   2.434   4.933   1.019  0.1137 -3.9707  0.8708
15137TIP3    H266827   2.576   4.921   0.969  0.1331 -0.7417 -0.0457
15138TIP3   OH266828   1.556   0.069   3.984 -0.4125 -0.3540  0.0533
15138TIP3    H166829   1.505  -0.011   4.002 -0.2997 -0.5168 -0.3305
15138TIP3    H266830   1.502   0.140   4.020 -0.2327 -0.6544  0.9263
15139TIP3   OH266831   6.854   5.476   0.487  0.5784 -0.0211 -0.0543
15139TIP3    H166832   6.778   5.453   0.540  1.2126 -0.4542  0.6913
15139TIP3    H266833   6.906   5.533   0.543  0.6900  0.4766 -0.6513
15140TIP3   OH266834   5.032   6.195   3.963 -0.1271  0.3670  0.1523
15140TIP3    H166835   5.008   6.260   4.029 -0.1430  0.7542 -0.2261
15140TIP3    H266836   5.074   6.125   4.012 -1.2596  0.0650  0.7275
15141TIP3   OH266837   1.882   2.854   5.184 -0.9884  0.6486  0.0329
15141TIP3    H166838   1.877   2.780   5.246 -2.1651 -0.2164 -1.0301
15141TIP3    H266839   1.968   2.846   5.143 -1.3434 -0.5534 -0.5317
15142TIP3   OH266840   5.594   1.573   1.895 -0.4646  0.2489  0.0206
15142TIP3    H166841   5.645   1.625   1.957 -0.1988 -0.4425  0.3889
15142TIP3    H266842   5.657   1.511   1.858 -1.2566 -1.5161  1.4531
15143TIP3   OH266843   2.946   4.949   5.317  0.4434  0.4200  0.0383
15143TIP3    H166844   2.935   4.993   5.233 -0.0439 -0.5787 -0.4359
15143TIP3    H266845   2.944   5.019   5.382  0.6881  1.1881 -0.7681
15144TIP3   OH266846   2.269   1.301   4.893  0.2277 -0.2388 -0.7185
15144TIP3    H166847   2.187   1.266   4.928  0.2726 -0.6832 -1.0433
15144TIP3    H266848   2.300   1.363   4.959 -0.1572 -0.3771 -0.4080
15145TIP3   OH266849   2.727   6.186   1.613 -0.4255 -0.5527 -0.3573
15145TIP3    H166850   2.794   6.235   1.661 -0.8626  0.1061 -0.4018
15145TIP3    H266851   2.652   6.182   1.673 -1.6182  1.8053 -1.5657
15146TIP3   OH266852   2.670   7.139   4.277  0.0400 -0.3817  0.4294
15146TIP3    H166853   2.607   7.084   4.231 -1.8170  1.0660  1.1175
15146TIP3    H266854   2.682   7.215   4.220  2.2420 -1.1876 -0.3051
15147TIP3   OH266855   6.487   5.740  13.003 -0.4930 -0.0945 -0.4305
15147TIP3    H166856   6.509   5.648  12.986 -1.5737 -0.4286 -0.0783
15147TIP3    H266857   6.570   5.786  12.993  0.5479 -1.4065  1.4792
15148TIP3   OH266858   0.995   6.787   1.346 -0.3986  0.1948 -0.2793
15148TIP3    H166859   1.031   6.842   1.416 -2.1471  1.5553 -0.3909
15148TIP3    H266860   0.983   6.701   1.387 -0.6396  0.7544  0.8705
15149TIP3   OH266861   2.659   2.418  15.031 -0.2053  0.0365  0.3956
15149TIP3    H166862   2.629   2.330  15.011 -1.3109 -0.2827  3.0132
15149TIP3    H266863   2.754   2.415  15.021  0.0211 -2.1116  2.4585
15150TIP3   OH266864   2.624   2.655   4.183 -0.2817  0.8347  0.5358
15150TIP3    H166865   2.533   2.654   4.154 -0.1771  0.7767  0.1963
15150TIP3    H266866   2.620   2.669   4.277 -0.6519  0.5910  0.5582
15151TIP3   OH266867   4.919   0.030   3.371  0.3345 -0.3738  0.2710
15151TIP3    H166868   4.916  -0.062   3.347 -2.2465  0.2014 -2.1190
15151TIP3    H266869   4.985   0.068   3.313 -0.0763 -0.3770 -0.2014
15152TIP3   OH266870   1.497   3.303  10.874  0.2229  0.2173  0.3584
15152TIP3    H166871   1.422   3.244  10.869 -0.3271  0.9201  0.1606
15152TIP3    H266872   1.485   3.364  10.801  0.8402  0.4993  0.4872
15153TIP3   OH266873   0.755   7.126  12.169  0.0564  0.2527 -0.2463
15153TIP3    H166874   0.700   7.050  12.190  1.8776 -0.8882  0.6559
15153TIP3    H266875   0.778   7.163  12.254 -0.4514  1.5754 -0.6673
15154TIP3   OH266876   3.061   2.219   6.239 -0.0709 -0.0603  0.1382
15154TIP3    H166877   2.971   2.184   6.237 -0.3983  0.6300  1.7137
15154TIP3    H266878   3.053   2.302   6.284  1.4423 -0.2079  0.7077
15155TIP3   OH266879   0.675   3.257   5.083  0.7153  0.6827 -0.1515
15155TIP3    H166880   0.743   3.201   5.121  0.0951  2.0137  3.2689
15155TIP3    H266881   0.596   3.202   5.082  1.2688 -0.1514 -2.0267
15156TIP3   OH266882   2.025   1.371   3.705  0.0343 -0.1858 -0.1982
15156TIP3    H166883   2.119   1.352   3.696  0.5234  1.9189  0.0503
15156TIP3    H266884   2.019   1.427   3.782 -1.2636  0.8389 -1.0109
15157TIP3   OH266885   3.716   2.177   2.793 -0.2342 -0.4133 -0.7110
15157TIP3    H166886   3.669   2.237   2.851 -0.4228 -1.4334  0.2188
15157TIP3    H266887   3.648   2.117   2.761  0.0639 -0.5511 -1.0926
15158TIP3   OH266888   0.004   5.598   1.802 -0.0096 -0.0333  0.3957
15158TIP3    H166889  -0.079   5.631   1.768  0.5839 -0.4114 -1.5472
15158TIP3    H266890   0.052   5.676   1.828  1.1157  0.7722 -3.5374
15159TIP3   OH266891   0.089   3.280   1.237  0.2501  0.5772 -0.4412
15159TIP3    H166892  -0.006   3.277   1.250  0.2817  1.6456  0.1485
15159TIP3    H266893   0.116   3.365   1.274  1.6529 -0.3926  0.8831
15160TIP3   OH266894   0.177   4.137   2.934 -0.2922 -0.2076  0.6637
15160TIP3    H166895   0.193   4.167   2.844 -0.0457  0.3708  0.8940
15160TIP3    H266896   0.088   4.166   2.953  0.0196  0.5880  0.9590
15161TIP3   OH266897   4.184   0.169  14.839  0.4919  0.0073 -0.3456
15161TIP3    H166898   4.122   0.239  14.859 -1.2214 -1.7806  1.0654
15161TIP3    H266899   4.265   0.196  14.883 -0.7922  0.1027  2.1610
15162TIP3   OH266900   1.844   2.624   1.385 -0.4042 -0.3508  0.2310
15162TIP3    H166901   1.798   2.675   1.319 -1.1839 -2.2532 -0.7727
15162TIP3    H266902   1.920   2.678   1.408 -1.5940  1.5843 -0.1460
15163TIP3   OH266903   4.771   1.272  11.454  0.3044  0.2422 -0.9794
15163TIP3    H166904   4.763   1.263  11.359  0.4590  1.7915 -1.1605
15163TIP3    H266905   4.863   1.255  11.472  0.0281 -1.3561 -0.9157
15164TIP3   OH266906   0.127   0.448   5.202  0.3836 -0.3126  0.1660
15164TIP3    H166907   0.088   0.376   5.152  0.3164 -0.6292  0.6622
15164TIP3    H266908   0.052   0.491   5.243  0.5442 -1.0976  1.3563
15165TIP3   OH266909   3.183   2.124  14.040  0.4839 -0.0158 -0.2383
15165TIP3    H166910   3.207   2.182  13.968 -0.1780 -0.0486 -0.4906
15165TIP3    H266911   3.134   2.180  14.101  1.9471  0.2793  0.7310
15166TIP3   OH266912   5.304   0.427   5.622  0.0458  0.0373  0.1801
15166TIP3    H166913   5.351   0.354   5.583  1.1214  0.4939  0.5740
15166TIP3    H266914   5.212   0.406   5.609  0.3006 -1.6929  0.8210
15167TIP3   OH266915   5.929   1.223  12.704 -1.0435 -0.2744  0.4168
15167TIP3    H166916   5.884   1.300  12.670  1.3399  0.7275 -0.6736
15167TIP3    H266917   5.909   1.223  12.798 -0.5850  2.0845  0.5727
15168TIP3   OH266918   2.169   3.778   4.317 -0.0636 -0.1204 -0.4248
15168TIP3    H166919   2.232   3.724   4.269  0.3256 -0.9167  0.9214
15168TIP3    H266920   2.222   3.850   4.352 -0.1385 -0.1135 -0.3254
15169TIP3   OH266921   2.238   0.518  14.330  0.0569  0.3237 -0.1269
15169TIP3    H166922   2.204   0.572  14.259 -0.2354  0.5991  0.2173
15169TIP3    H266923   2.163   0.465  14.357  0.2021  0.1293 -0.1128
15170TIP3   OH266924   5.957   6.415   2.898  0.3377  0.0131  0.0596
15170TIP3    H166925   5.996   6.430   2.812  0.5060 -1.6469 -0.2033
15170TIP3    H266926   5.876   6.465   2.898  0.8946  0.9463 -0.6128
15171TIP3   OH266927   1.543   3.923   4.564  0.3531 -0.3378 -0.5874
15171TIP3    H166928   1.635   3.901   4.549  0.8222  1.8403 -1.2389
15171TIP3    H266929   1.520   3.876   4.644  1.7884 -1.5109 -0.8144
15172TIP3   OH266930   1.718   3.577   2.057 -0.0808  0.2339 -0.3524
15172TIP3    H166931   1.659   3.502   2.060  2.4812 -1.8939 -0.1056
15172TIP3    H266932   1.743   3.592   2.148  1.1917 -0.1164 -0.6364
15173TIP3   OH266933   4.450   0.940   1.378 -0.1359 -0.0480  0.0571
15173TIP3    H166934   4.410   0.853   1.386  0.7310 -0.3172  2.1625
15173TIP3    H266935   4.524   0.928   1.319 -0.1884 -0.6889  0.1176
15174TIP3   OH266936   0.994   3.229   5.269  0.1951  0.3100 -0.7528
15174TIP3    H166937   0.986   3.198   5.179  2.4167 -2.2163 -0.2224
15174TIP3    H266938   1.009   3.323   5.261 -2.8569  0.7616 -2.7415
15175TIP3   OH266939   2.690   6.213   9.341 -0.2634  0.2237 -0.6083
15175TIP3    H166940   2.669   6.297   9.299 -0.5400  1.1795  1.3285
15175TIP3    H266941   2.610   6.188   9.387 -0.3003 -1.3315 -1.4584
15176TIP3   OH266942   4.485   2.814   5.465 -0.0852 -0.7072 -0.0068
15176TIP3    H166943   4.518   2.868   5.393  0.8265  0.7242  1.4340
15176TIP3    H266944   4.392   2.837   5.471  0.4977  1.6502  1.2833
15177TIP3   OH266945   6.127   6.694  13.469  0.4636  0.5872  1.2046
15177TIP3    H166946   6.163   6.781  13.488 -0.9144  1.3870  0.2801
15177TIP3    H266947   6.035   6.701  13.492  0.3204 -0.6165  1.0367
15178TIP3   OH266948   0.305   3.247   0.724  0.0834 -0.7209 -0.6197
15178TIP3    H166949   0.246   3.245   0.800 -0.3853 -0.4068 -0.9713
15178TIP3    H266950   0.246   3.249   0.649  0.5390 -1.5519 -1.0157
15179TIP3   OH266951   1.148   3.652   0.949 -0.5052 -0.5550 -0.2224
15179TIP3    H166952   1.058   3.642   0.982 -0.0481 -0.4447  1.1223
15179TIP3    H266953   1.190   3.568   0.969  0.3420  0.2072  1.3346
15180TIP3   OH266954   4.940   1.619   2.578 -0.3141  0.4865  0.3012
15180TIP3    H166955   4.948   1.552   2.510 -0.2382 -0.6417  1.3845
15180TIP3    H266956   4.858   1.665   2.557  0.7027  1.4865 -1.6668
15181TIP3   OH266957   5.386   3.571   1.450  0.2586  0.2231  0.1582
15181TIP3    H166958   5.405   3.664   1.437 -0.9719  0.7337  1.6036
15181TIP3    H266959   5.328   3.569   1.526 -1.0787 -1.5988 -0.8144
15182TIP3   OH266960   1.624   4.198  10.769 -0.3959  0.4252 -0.0284
15182TIP3    H166961   1.577   4.161  10.695 -1.1502 -2.3111  1.7025
15182TIP3    H266962   1.595   4.289  10.773 -3.0639 -0.3014 -0.9774
15183TIP3   OH266963   3.799   3.144   2.988  0.6073 -0.4368 -0.3969
15183TIP3    H166964   3.726   3.130   3.049  0.9426  0.1353  0.1543
15183TIP3    H266965   3.869   3.181   3.043  0.2621  1.9863 -1.4556
15184TIP3   OH266966   0.886   5.842   5.796 -0.1622  0.4477  0.0520
15184TIP3    H166967   0.914   5.752   5.777 -1.2416  0.3574 -1.2539
15184TIP3    H266968   0.903   5.889   5.715 -2.7284  0.6238 -0.4647
15185TIP3   OH266969   0.392   6.856   0.515  0.6672  0.5059 -0.0403
15185TIP3    H166970   0.458   6.893   0.457  0.4116 -0.4023 -0.9493
15185TIP3    H266971   0.442   6.813   0.585  1.0462 -0.1286 -0.6932
15186TIP3   OH266972   5.804   0.229   2.603 -0.4004 -0.5441  0.3959
15186TIP3    H166973   5.741   0.286   2.647 -1.7619  1.1744 -3.3780
15186TIP3    H266974   5.883   0.284   2.594 -0.1331 -0.8787  0.6703
15187TIP3   OH266975   0.606   5.584   5.834 -0.1484 -0.0465 -0.2516
15187TIP3    H166976   0.515   5.591   5.861 -0.1695 -0.0580 -0.3204
15187TIP3    H266977   0.656   5.584   5.916  0.0455  3.5377 -0.2144
15188TIP3   OH266978   4.083   4.501  13.212  0.2192 -0.5891  0.0211
15188TIP3    H166979   4.050   4.425  13.260  0.1951 -1.1973 -0.9218
15188TIP3    H266980   4.060   4.576  13.267  1.4997 -1.3446  1.6507
15189TIP3   OH266981   2.571   4.804   4.722  0.0306 -0.1390  0.6345
15189TIP3    H166982   2.619   4.755   4.655 -0.5135  0.0046  0.1187
15189TIP3    H266983   2.573   4.748   4.799 -1.9021 -1.7561 -0.3801
15190TIP3   OH266984   3.350   5.998  14.102 -0.4948 -0.6055 -0.0158
15190TIP3    H166985   3.258   6.009  14.081 -0.7312  0.2276  1.3481
15190TIP3    H266986   3.352   5.924  14.163 -0.2298 -0.7481 -0.1937
15191TIP3   OH266987   2.625   2.920   1.459 -0.3561 -0.1077  0.8197
15191TIP3    H166988   2.634   2.851   1.393 -1.8174 -1.1553  1.6450
15191TIP3    H266989   2.656   2.879   1.540  0.6871  0.8992  0.9376
15192TIP3   OH266990   7.110   6.479   3.118 -0.6348  0.1561 -0.1876
15192TIP3    H166991   7.053   6.425   3.174 -1.4187 -0.3530 -1.4179
15192TIP3    H266992   7.141   6.549   3.175 -1.2402 -0.4579  0.9282
15193TIP3   OH266993   1.827   4.262   3.446 -0.1829  0.6440 -0.1790
15193TIP3    H166994   1.787   4.204   3.511  1.9991  0.9909  1.5757
15193TIP3    H266995   1.803   4.350   3.476 -1.3263  0.7651 -1.3690
15194TIP3   OH266996   3.855   7.058   5.192 -0.2264  1.0714  0.4594
15194TIP3    H166997   3.814   7.061   5.278 -0.6967  1.0768  0.2365
15194TIP3    H266998   3.805   6.992   5.144  2.7626 -2.3800  1.5918
15195TIP3   OH266999   2.134   5.866   3.004 -0.1316  0.9929 -0.2774
15195TIP3    H167000   2.166   5.776   3.016  0.0533  0.7572 -2.2925
15195TIP3    H267001   2.039   5.859   3.017 -0.1286  0.4991 -0.5014
15196TIP3   OH267002   3.761   1.273   3.333  0.5461  0.5899  0.8207
15196TIP3    H167003   3.745   1.194   3.280 -1.4169  1.6618 -0.2989
15196TIP3    H267004   3.855   1.273   3.347  0.7896 -1.1628 -0.4307
15197TIP3   OH267005   0.831   3.460   0.201  0.1737 -0.1360  0.6588
15197TIP3    H167006   0.776   3.469   0.278 -1.3087  0.4663 -0.4188
15197TIP3    H267007   0.785   3.396   0.146  1.8463 -1.5285  0.7850
15198TIP3   OH267008   6.600   2.674   2.166  0.4734  0.0430  0.1922
15198TIP3    H167009   6.639   2.591   2.137 -0.5229 -0.1401 -0.6764
15198TIP3    H267010   6.555   2.652   2.247  0.6354 -0.1448  0.2334
15199TIP3   OH267011   2.309   6.310   2.651 -0.3596 -0.2853  0.0833
15199TIP3    H167012   2.295   6.271   2.565  0.4188 -2.5765  0.9269
15199TIP3    H267013   2.305   6.236   2.712  1.5232  0.8947  1.7568
15200TIP3   OH267014   6.401   2.768   3.678 -0.2440 -0.3596 -0.3769
15200TIP3    H167015   6.447   2.848   3.702  1.1442 -1.1561 -0.2894
15200TIP3    H267016   6.331   2.797   3.619 -0.9654  1.1157  1.1162
15201TIP3   OH267017   1.991   5.327   0.113 -0.4685 -0.5927 -0.3027
15201TIP3    H167018   1.954   5.416   0.114 -0.4129 -0.5646  1.0217
15201TIP3    H267019   2.060   5.331   0.046  0.3559  0.7225  0.5677
15202TIP3   OH267020   2.318   5.705  12.892  0.1103  0.2715  0.4474
15202TIP3    H167021   2.290   5.632  12.837 -1.0544 -0.6223  2.1511
15202TIP3    H267022   2.347   5.772  12.830 -0.4460 -0.9677 -1.2099
15203TIP3   OH267023   5.589   6.823  15.065 -0.0759 -0.3652 -0.0797
15203TIP3    H167024   5.604   6.748  15.007  2.3818 -0.5108  0.5895
15203TIP3    H267025   5.544   6.786  15.141  0.6560 -1.1103  0.0154
15204TIP3   OH267026   7.041   3.544  11.188  0.4169  0.0733  0.7708
15204TIP3    H167027   6.949   3.561  11.170 -0.1095 -3.3652 -0.7147
15204TIP3    H267028   7.087   3.576  11.110  0.5654  1.9615  1.5937
15205TIP3   OH267029   4.400   6.018   2.084  0.6569 -0.0951  0.4418
15205TIP3    H167030   4.405   6.112   2.063  1.1213 -0.2727 -0.2845
15205TIP3    H267031   4.396   5.975   1.998 -0.4398 -0.6984  0.7703
15206TIP3   OH267032   6.757   4.260   0.998  0.1763  0.3463  0.0213
15206TIP3    H167033   6.702   4.337   1.012  0.8415  0.8025  0.1689
15206TIP3    H267034   6.735   4.202   1.071  0.4068  0.8382  0.4934
15207TIP3   OH267035   1.942   0.992   3.495 -0.1109 -0.0628 -0.0040
15207TIP3    H167036   1.987   1.033   3.569 -1.2232 -0.2700  0.8084
15207TIP3    H267037   1.883   1.059   3.461 -0.2883 -0.2651 -0.1039
15208TIP3   OH267038   0.269   4.905   3.685 -0.2915 -0.9755 -0.3298
15208TIP3    H167039   0.232   4.934   3.602  1.0970 -0.1779 -0.7062
15208TIP3    H267040   0.219   4.828   3.708 -1.9021 -0.1693 -0.9909
15209TIP3   OH267041   6.994   5.743   1.162 -0.7309 -0.1953  0.0281
15209TIP3    H167042   7.048   5.717   1.237 -0.6967 -0.3064 -0.0345
15209TIP3    H267043   6.984   5.838   1.172  0.0589 -0.0624 -0.3367
15210TIP3   OH267044   4.260   6.470  10.346  0.3568  0.8999  0.3293
15210TIP3    H167045   4.262   6.565  10.339 -0.0368  0.8321 -0.9306
15210TIP3    H267046   4.352   6.445  10.359  0.6547  1.3762 -0.7204
15211TIP3   OH267047   6.967   4.359   2.751  0.3986 -0.8299 -0.4491
15211TIP3    H167048   6.879   4.396   2.756 -0.0749 -2.0257  0.7402
15211TIP3    H267049   7.020   4.414   2.808  0.1945 -0.6873 -0.3943
15212TIP3   OH267050   3.674   2.677  14.329  0.1957  0.1768 -0.1015
15212TIP3    H167051   3.704   2.655  14.417  1.3917 -1.7494 -0.9286
15212TIP3    H267052   3.708   2.765  14.313  3.1253 -0.8179  0.0707
15213TIP3   OH267053   6.007   0.906   3.071  0.2244 -0.2805  0.0503
15213TIP3    H167054   5.944   0.853   3.023 -0.8009 -0.6273  1.7162
15213TIP3    H267055   5.955   0.974   3.114  1.0530 -0.1619  0.9266
15214TIP3   OH267056   0.450   3.849   5.066 -0.3123  0.1838 -0.6695
15214TIP3    H167057   0.437   3.825   4.975 -1.8228 -0.0471 -0.4178
15214TIP3    H267058   0.530   3.802   5.092 -0.4227 -0.5359 -1.5937
15215TIP3   OH267059   5.595   2.038   4.097  0.4663 -0.1678  0.4446
15215TIP3    H167060   5.547   2.088   4.163 -0.0975 -0.3881  0.2112
15215TIP3    H267061   5.530   1.977   4.061  0.4769  0.6618 -1.0706
15216TIP3   OH267062   4.497   1.483   3.135  0.2358 -0.3040  0.0634
15216TIP3    H167063   4.507   1.519   3.047 -2.0421  0.3643  0.0202
15216TIP3    H267064   4.526   1.392   3.127 -0.3438 -0.3769 -1.5015
15217TIP3   OH267065   3.381   2.736   3.307  0.3792  0.3806 -0.6475
15217TIP3    H167066   3.422   2.819   3.284 -0.8036  1.3911  0.7127
15217TIP3    H267067   3.294   2.741   3.267  1.2580 -1.4997 -3.0448
15218TIP3   OH267068   2.039   0.170   3.301 -0.3400  0.6738 -0.3440
15218TIP3    H167069   1.975   0.129   3.242 -0.2785 -0.8616  0.5796
15218TIP3    H267070   2.014   0.262   3.304 -1.5104  0.4134 -1.2555
15219TIP3   OH267071   6.827   1.112   4.227  0.6866 -0.0150  0.2545
15219TIP3    H167072   6.801   1.021   4.214  2.1979 -0.4770  0.2806
15219TIP3    H267073   6.769   1.144   4.296 -0.7281 -0.5555 -0.6595
15220TIP3   OH267074   5.045   1.247  10.947 -0.2040 -0.2444  0.3344
15220TIP3    H167075   5.093   1.168  10.926 -0.1436 -0.5243  1.4625
15220TIP3    H267076   4.960   1.236  10.905  0.2433 -0.3359 -0.5589
15221TIP3   OH267077   4.561   2.616   4.158  0.3302 -0.1200  0.3146
15221TIP3    H167078   4.483   2.598   4.106  0.9690  0.3124 -0.8346
15221TIP3    H267079   4.553   2.559   4.235 -0.9897 -0.2400  0.1034
15222TIP3   OH267080   6.950   5.237   1.437  0.0459  0.6024 -0.2038
15222TIP3    H167081   7.016   5.299   1.408  1.3742 -0.2285  0.9258
15222TIP3    H267082   6.967   5.227   1.531 -1.0376 -0.4091 -0.1009
15223TIP3   OH267083   4.535   6.983   3.129 -0.4869 -0.0838  0.4744
15223TIP3    H167084   4.529   6.889   3.148 -0.0624 -0.2813 -0.3009
15223TIP3    H267085   4.581   6.987   3.045 -0.8080  0.8083  0.3323
15224TIP3   OH267086   5.703   0.591   3.543  0.3115  0.1115  0.4319
15224TIP3    H167087   5.612   0.615   3.527  0.2738 -0.9592 -1.1864
15224TIP3    H267088   5.700   0.533   3.619 -0.2152  0.8877  1.0221
15225TIP3   OH267089   1.391   6.458   1.066  0.4271  0.1500  0.5910
15225TIP3    H167090   1.473   6.409   1.071 -0.1008 -0.7230  0.8036
15225TIP3    H267091   1.323   6.391   1.062 -0.5001  0.7863  3.2968
15226TIP3   OH267092   1.025   0.743   5.783 -0.3989  0.0171  0.8740
15226TIP3    H167093   1.112   0.733   5.822 -0.5360 -0.4959  1.0492
15226TIP3    H267094   1.001   0.655   5.755 -0.4923  0.3013  0.0250
15227TIP3   OH267095   5.763   3.197   3.188  0.0524 -0.2010 -0.2489
15227TIP3    H167096   5.833   3.218   3.127  0.0778 -0.2671 -0.2422
15227TIP3    H267097   5.685   3.238   3.150  0.4807  1.7096  0.8212
15228TIP3   OH267098   7.054   6.049   3.744 -0.0343  0.9102 -0.1147
15228TIP3    H167099   7.063   5.990   3.669 -2.6804 -1.2943  1.1174
15228TIP3    H267100   6.999   6.120   3.712  0.3729  0.9535 -0.7396
15229TIP3   OH267101   1.246   0.534  12.587 -0.2505  0.1618 -0.5330
15229TIP3    H167102   1.185   0.483  12.641 -0.6855  1.1667 -0.0547
15229TIP3    H267103   1.189   0.584  12.528  0.2108 -0.9856 -2.0284
15230TIP3   OH267104   0.729   7.095   4.107  0.3135 -0.5760 -0.0866
15230TIP3    H167105   0.658   7.075   4.169  2.1011 -4.6311  0.9444
15230TIP3    H267106   0.788   7.153   4.156  0.5342 -1.8526  1.2107
15231TIP3   OH267107   3.790   1.954   1.745  0.0697  0.1424  0.4178
15231TIP3    H167108   3.786   1.918   1.834  1.7181  0.2158  0.5465
15231TIP3    H267109   3.882   1.951   1.721 -0.2394  0.8467 -1.0080
15232TIP3   OH267110   4.090   7.199  14.639  0.3143  0.7334 -0.6067
15232TIP3    H167111   3.998   7.213  14.659 -0.3244 -4.4269  1.5902
15232TIP3    H267112   4.137   7.250  14.705 -0.9903  2.1442 -0.7318
15233TIP3   OH267113   0.477   7.035   2.517 -0.5583  0.3316 -0.5094
15233TIP3    H167114   0.480   7.099   2.446  0.7146  1.7459  0.7396
15233TIP3    H267115   0.559   6.985   2.508  0.0312  1.0933  0.4312
15234TIP3   OH267116   5.365   5.880   1.655 -0.0893 -0.4321  0.7042
15234TIP3    H167117   5.368   5.826   1.576 -0.6838 -0.3426  0.6126
15234TIP3    H267118   5.380   5.969   1.623  3.5631 -0.7481  1.1556
15235TIP3   OH267119   1.917   2.949   3.365  0.0796  0.6322 -1.2538
15235TIP3    H167120   1.941   2.995   3.446  0.5831 -1.3455 -0.2188
15235TIP3    H267121   1.824   2.969   3.353 -0.3727 -0.0950  0.6012
15236TIP3   OH267122   3.670   0.815   4.511  0.1651 -0.0367  0.2606
15236TIP3    H167123   3.659   0.742   4.451  3.2872  0.0514 -0.5961
15236TIP3    H267124   3.758   0.802   4.548  0.0651  2.2803  1.4700
15237TIP3   OH267125   4.380   3.872   5.307 -0.0845 -0.4931 -0.3730
15237TIP3    H167126   4.292   3.863   5.342 -0.7043  0.5638 -1.5671
15237TIP3    H267127   4.428   3.919   5.375 -0.7099 -0.2328 -0.1029
15238TIP3   OH267128   6.973   2.582   1.600  0.4819  0.0489  0.1220
15238TIP3    H167129   6.952   2.656   1.543  0.3220 -0.6604 -0.7677
15238TIP3    H267130   6.939   2.506   1.554  0.8634 -0.6147  0.9042
15239TIP3   OH267131   6.406   5.054   9.483 -0.0340 -0.5678 -0.0398
15239TIP3    H167132   6.487   5.020   9.444 -0.5667 -2.6028  0.5077
15239TIP3    H267133   6.338   4.995   9.452 -1.4030  1.2573 -0.6885
15240TIP3   OH267134   5.161   0.065   4.446  0.4117  0.5396  0.2232
15240TIP3    H167135   5.134   0.123   4.517 -0.5505 -0.4806  0.7179
15240TIP3    H267136   5.083   0.054   4.392  0.2983 -0.9843  0.6456
15241TIP3   OH267137   3.737   3.128   0.423  0.0252 -0.2715 -0.1494
15241TIP3    H167138   3.809   3.146   0.362 -0.2101  0.2496 -0.2767
15241TIP3    H267139   3.777   3.132   0.509  0.2606 -0.5316 -0.2432
15242TIP3   OH267140   1.005   2.480  14.821  0.4570 -0.0589 -0.0624
15242TIP3    H167141   1.048   2.562  14.796  0.4505 -0.3825 -1.1796
15242TIP3    H267142   1.075   2.427  14.859  0.2551  0.8370  1.6474
15243TIP3   OH267143   4.946   1.789   4.166 -1.0502  0.5239  0.0162
15243TIP3    H167144   5.014   1.741   4.213 -0.7037 -1.8128 -2.6546
15243TIP3    H267145   4.922   1.860   4.226  2.8468  0.7690  1.5979
15244TIP3   OH267146   1.974   2.980   4.153  0.1322  0.0023 -0.2845
15244TIP3    H167147   1.918   2.984   4.231 -0.1399  1.0289 -0.5069
15244TIP3    H267148   2.035   2.908   4.170  1.0028  1.0824  1.5191
15245TIP3   OH267149   1.648   1.376   4.618 -0.4387 -0.3484  0.1716
15245TIP3    H167150   1.685   1.292   4.591  0.6204  0.7791 -2.1710
15245TIP3    H267151   1.570   1.386   4.563 -1.2185 -0.2643  1.2554
15246TIP3   OH267152   1.225   0.934   4.859  0.2187 -0.4071  0.1401
15246TIP3    H167153   1.183   0.876   4.923  0.9197 -0.8395  0.2202
15246TIP3    H267154   1.153   0.963   4.802  0.0476 -2.4619 -0.7743
15247TIP3   OH267155   1.022   2.792   4.374 -0.3234 -0.1019 -0.7735
15247TIP3    H167156   1.090   2.747   4.424 -0.5836 -2.6991 -2.4972
15247TIP3    H267157   0.944   2.787   4.429 -0.6158 -2.9149 -1.2993
15248TIP3   OH267158   5.205   0.914   0.340  0.2031 -0.5287  0.1812
15248TIP3    H167159   5.227   0.933   0.431  1.4703 -1.4536  0.1038
15248TIP3    H267160   5.202   1.000   0.298  0.2440 -0.1362  0.9564
15249TIP3   OH267161   0.658   6.422   3.169  0.2143 -0.3137 -0.3741
15249TIP3    H167162   0.685   6.352   3.109 -1.0517  0.8299 -2.3688
15249TIP3    H267163   0.630   6.493   3.112  1.5244  1.9059  1.5796
15250TIP3   OH267164   0.896   4.510   4.187  0.1966 -0.2678 -0.2540
15250TIP3    H167165   0.817   4.464   4.159  0.7241 -1.6545  0.4263
15250TIP3    H267166   0.940   4.449   4.246  1.2125  0.9178  0.2744
15251TIP3   OH267167   3.927   0.395  14.587 -0.5943  0.1179 -0.4709
15251TIP3    H167168   3.988   0.377  14.515  1.5473  0.3882  1.2039
15251TIP3    H267169   3.936   0.320  14.646 -0.1760  1.2209  0.9127
15252TIP3   OH267170   6.590   4.656   0.854 -0.0215  0.1739  0.1926
15252TIP3    H167171   6.675   4.636   0.814 -0.3226  0.2687 -0.5162
15252TIP3    H267172   6.530   4.591   0.817 -0.4881  0.8199 -0.2159
15253TIP3   OH267173   6.676   1.231   1.340  0.1878  0.3715  0.5141
15253TIP3    H167174   6.594   1.186   1.320  0.8154 -0.7664  0.4095
15253TIP3    H267175   6.703   1.271   1.257  1.6448 -2.4657 -0.5236
15254TIP3   OH267176   4.836   2.475  14.956 -0.0120  0.4543  0.3834
15254TIP3    H167177   4.812   2.554  15.004  1.6192  0.8169  0.6557
15254TIP3    H267178   4.848   2.504  14.866  2.5910  1.0343  0.8168
15255TIP3   OH267179   4.202   1.510   4.252 -0.4172  0.3292 -0.4391
15255TIP3    H167180   4.181   1.456   4.327 -0.2219  0.3676 -0.3558
15255TIP3    H267181   4.186   1.454   4.176 -0.0181  0.0901 -0.3449
15256TIP3   OH267182   1.790   5.687  14.499  0.0553  0.3006 -0.2231
15256TIP3    H167183   1.816   5.634  14.574 -2.7312 -0.4033  0.3684
15256TIP3    H267184   1.826   5.774  14.517  1.3140 -0.3967  0.7783
15257TIP3   OH267185   6.204   2.658   2.871 -0.2744  0.0184  0.1359
15257TIP3    H167186   6.143   2.648   2.799  2.1905  2.2249 -2.5291
15257TIP3    H267187   6.280   2.605   2.846 -0.7827 -2.4952  3.2390
15258TIP3   OH267188   6.072   0.819   4.561 -0.2947  0.1711 -0.4395
15258TIP3    H167189   6.144   0.795   4.503 -0.2506 -2.2722  0.5033
15258TIP3    H267190   6.016   0.876   4.509  1.0351  0.0973 -2.0113
15259TIP3   OH267191   4.169   4.115  11.908  0.4640  0.1922  0.4690
15259TIP3    H167192   4.132   4.057  11.841 -1.5774 -1.1991  2.6294
15259TIP3    H267193   4.218   4.181  11.858 -0.5661 -0.9826 -2.3306
15260TIP3   OH267194   1.407   2.689   2.110  0.6373  0.1780  0.6766
15260TIP3    H167195   1.428   2.610   2.060 -3.0083 -0.3803 -0.2557
15260TIP3    H267196   1.411   2.661   2.202 -2.6050 -1.9043  0.3597
15261TIP3   OH267197   2.883   0.576   2.898  0.0750  1.0723  0.0001
15261TIP3    H167198   2.926   0.546   2.818 -1.7965 -0.1861 -0.5764
15261TIP3    H267199   2.840   0.499   2.934 -0.7330  2.0242  1.1812
15262TIP3   OH267200   6.218   0.760   4.313 -0.0780  0.2539 -0.0089
15262TIP3    H167201   6.193   0.716   4.232 -1.1033 -0.1343  0.4976
15262TIP3    H267202   6.288   0.820   4.288 -0.9196  0.7190 -1.3324
15263TIP3   OH267203   5.143   4.309   1.223 -0.1554 -0.0437 -0.5108
15263TIP3    H167204   5.082   4.316   1.150  0.0726 -0.2225 -0.7173
15263TIP3    H267205   5.224   4.348   1.191  0.4017 -1.4356 -0.8590
15264TIP3   OH267206   5.643   0.113   1.927  0.2971 -0.4439 -0.1074
15264TIP3    H167207   5.679   0.034   1.887  1.8055  0.1242  0.0889
15264TIP3    H267208   5.719   0.162   1.958 -0.6789  0.4841  0.9264
15265TIP3   OH267209   4.869   0.338   4.306 -0.4193 -0.1559 -0.0872
15265TIP3    H167210   4.945   0.349   4.363  0.0685 -0.7444 -0.6038
15265TIP3    H267211   4.906   0.313   4.221 -1.1567  0.2047 -0.5326
15266TIP3   OH267212   5.438   0.681  11.319  0.2451  0.6450  0.0466
15266TIP3    H167213   5.415   0.697  11.410 -1.0684 -2.9441  0.4929
15266TIP3    H267214   5.530   0.655  11.321  0.1894  0.4747  0.3623
15267TIP3   OH267215   6.619   1.330   0.726 -0.1887 -0.1074  0.3435
15267TIP3    H167216   6.644   1.308   0.815  0.0011 -0.8647  0.1163
15267TIP3    H267217   6.524   1.341   0.729 -0.1592  0.0460  0.6757
15268TIP3   OH267218   6.298   0.792   3.643 -0.3702 -0.7431 -0.1495
15268TIP3    H167219   6.233   0.790   3.573  0.1354 -0.6057 -0.6298
15268TIP3    H267220   6.375   0.833   3.603  0.4081 -1.9432  0.0762
15269TIP3   OH267221   2.926   1.311   2.446  0.4220  0.8515 -0.2080
15269TIP3    H167222   2.988   1.284   2.514 -1.4532  1.0884  1.7195
15269TIP3    H267223   2.935   1.245   2.377  3.1153  1.1628 -0.2510
15270TIP3   OH267224   0.605   3.636   1.277 -0.1569  0.6576 -0.2748
15270TIP3    H167225   0.577   3.553   1.238 -0.1010  0.4831  0.0608
15270TIP3    H267226   0.568   3.703   1.219  0.1120  0.3946 -0.7536
15271TIP3   OH267227   5.607   0.998  11.572 -0.5606 -0.1057  0.3693
15271TIP3    H167228   5.650   1.059  11.512  0.7852 -0.4863  0.9100
15271TIP3    H267229   5.518   1.031  11.580  0.0720  1.6792  0.4795
15272TIP3   OH267230   6.228   2.956   3.291  0.3042  0.9764 -0.2508
15272TIP3    H167231   6.321   2.939   3.278 -0.1620 -1.9672 -0.4745
15272TIP3    H267232   6.186   2.914   3.216 -1.3564 -0.3965  1.3680
15273TIP3   OH267233   4.710   2.264   1.332  0.7181  0.4863  0.2891
15273TIP3    H167234   4.774   2.197   1.356  0.6159  1.0629  2.3837
15273TIP3    H267235   4.758   2.324   1.275  1.4013 -0.2462  0.0796
15274TIP3   OH267236   1.197   1.499   1.209 -0.1009  0.1776 -0.4612
15274TIP3    H167237   1.151   1.414   1.214 -0.8289  0.5265 -1.0039
15274TIP3    H267238   1.285   1.477   1.181  1.0073 -0.8117  3.1811
15275TIP3   OH267239   5.110   6.136  12.019 -0.0596  0.0466 -0.6602
15275TIP3    H167240   5.102   6.095  11.933  0.8227 -2.2645  0.2679
15275TIP3    H267241   5.173   6.207  12.007  0.0309 -0.2350 -1.9090
15276TIP3   OH267242   4.436   7.061   3.393 -0.2614 -0.1627 -0.0794
15276TIP3    H167243   4.482   7.074   3.310 -0.0483 -1.1065 -0.1168
15276TIP3    H267244   4.368   7.129   3.394  0.1431  0.2612 -0.7270
15277TIP3   OH267245   0.067   2.260   0.559 -0.0743  0.6898  0.1138
15277TIP3    H167246   0.020   2.286   0.638  0.1506 -2.5532  1.4871
15277TIP3    H267247   0.153   2.302   0.567 -0.3025  0.9778  1.2433
15278TIP3   OH267248   3.370   1.003   5.149  0.2973 -0.2813 -0.3412
15278TIP3    H167249   3.381   1.079   5.206 -1.5258 -0.2306 -0.0132
15278TIP3    H267250   3.315   1.034   5.077 -0.7138 -1.3264 -0.0608
15279TIP3   OH267251   5.922   3.114   1.291 -0.0968  0.2452 -0.3004
15279TIP3    H167252   5.965   3.170   1.226 -0.4421  0.0825 -0.6736
15279TIP3    H267253   5.967   3.030   1.285 -0.2896  0.1541 -0.5099
15280TIP3   OH267254   5.164   4.468   5.373 -0.0858  0.0686  0.1733
15280TIP3    H167255   5.138   4.448   5.283 -0.6850  0.3248  0.2857
15280TIP3    H267256   5.178   4.562   5.374  1.9859 -0.1878 -0.1610
15281TIP3   OH267257   5.750   5.761   4.085  0.3701  0.2148  0.1917
15281TIP3    H167258   5.695   5.684   4.070  1.4372 -0.5540  0.0953
15281TIP3    H267259   5.798   5.740   4.165  2.0714 -0.0852 -0.8556
15282TIP3   OH267260   2.544   2.436   2.754  0.3155  0.2424 -0.0120
15282TIP3    H167261   2.455   2.471   2.760  0.1887  0.1401 -1.1309
15282TIP3    H267262   2.549   2.371   2.825 -0.4042  0.4405  0.2271
15283TIP3   OH267263   5.842   4.356   3.411 -0.4122  0.1332 -0.3870
15283TIP3    H167264   5.860   4.432   3.466  0.0045  0.1984 -0.6078
15283TIP3    H267265   5.818   4.287   3.473  0.3231  0.1247 -0.0884
15284TIP3   OH267266   1.328   3.936   2.967  0.6890  0.0416  0.2772
15284TIP3    H167267   1.266   4.009   2.959  1.3457  0.5480 -0.3130
15284TIP3    H267268   1.390   3.964   3.034  0.8985 -0.0105  0.1049
15285TIP3   OH267269   6.475   6.393   4.357 -0.1001 -0.2416  0.2664
15285TIP3    H167270   6.409   6.349   4.304  0.4615 -0.0259 -0.6395
15285TIP3    H267271   6.554   6.391   4.303 -0.2146  2.4948 -0.1731
15286TIP3   OH267272   1.801   6.278   4.088 -0.3305  0.4900 -0.3978
15286TIP3    H167273   1.720   6.309   4.047 -0.7988  0.1523  0.2599
15286TIP3    H267274   1.777   6.263   4.180  0.8420  1.7729  0.1500
15287TIP3   OH267275   3.279   5.236   2.858 -0.0647 -0.1931  0.4119
15287TIP3    H167276   3.235   5.321   2.858 -0.0296 -0.0919 -1.8746
15287TIP3    H267277   3.222   5.179   2.807  1.3703 -0.6575 -0.7644
15288TIP3   OH267278   6.953   0.845   5.031 -0.3932 -0.1551  0.5216
15288TIP3    H167279   6.995   0.859   4.947 -0.7384  0.1807  0.3973
15288TIP3    H267280   6.889   0.916   5.037 -0.5207 -0.3054  0.9679
15289TIP3   OH267281   1.454   4.561   6.105  0.1815  0.4573  0.1792
15289TIP3    H167282   1.480   4.579   6.195  0.2797 -0.3638  0.3229
15289TIP3    H267283   1.524   4.600   6.052 -0.4200  1.8892  0.4004
15290TIP3   OH267284   2.902   6.409   0.495 -0.3920  0.6626 -0.0550
15290TIP3    H167285   2.818   6.373   0.468  0.5872 -1.1973 -0.8239
15290TIP3    H267286   2.881   6.495   0.532 -2.6115  0.2216 -0.1577
15291TIP3   OH267287   5.645   2.280   0.544  0.2267 -0.0066 -0.3184
15291TIP3    H167288   5.600   2.199   0.521 -0.0113 -0.0940  0.4418
15291TIP3    H267289   5.590   2.349   0.509  0.4592 -0.1691 -1.0207
15292TIP3   OH267290   5.923   2.900  13.701  0.1708  0.1064 -0.2914
15292TIP3    H167291   5.864   2.829  13.676  0.5545 -0.9428  1.5937
15292TIP3    H267292   5.912   2.966  13.632 -3.2210 -0.0038 -0.0419
15293TIP3   OH267293   5.005   3.034  14.644 -0.0151  0.1820 -0.1208
15293TIP3    H167294   4.996   3.048  14.738  0.3426  0.4545 -0.1224
15293TIP3    H267295   5.036   2.943  14.637 -3.3003 -1.0428 -0.1648
15294TIP3   OH267296   3.782   0.261   4.339 -0.3484  0.4099  0.5140
15294TIP3    H167297   3.699   0.282   4.382  0.0675  1.0888  1.0129
15294TIP3    H267298   3.845   0.251   4.411  0.5160  2.2946  0.0796
15295TIP3   OH267299   2.098   5.210   5.309  0.4833 -0.1927  0.5977
15295TIP3    H167300   2.087   5.294   5.265  1.1394 -1.8024 -3.0136
15295TIP3    H267301   2.034   5.212   5.381 -0.5172  2.8088 -0.2295
15296TIP3   OH267302   0.199   4.374   4.780  0.5238  0.4234 -0.6541
15296TIP3    H167303   0.235   4.459   4.755  1.0223  0.8471  1.3155
15296TIP3    H267304   0.277   4.319   4.792  0.2755  0.1151 -0.4631
15297TIP3   OH267305   2.552   3.343   3.372  0.3995 -0.3593 -0.0378
15297TIP3    H167306   2.576   3.380   3.458  0.5429  0.8027 -0.5542
15297TIP3    H267307   2.616   3.380   3.312  0.2292 -1.0790 -0.6779
15298TIP3   OH267308   4.738   3.687   4.488 -0.2759  0.3528  0.2742
15298TIP3    H167309   4.769   3.768   4.528 -0.3083  1.0135 -0.9811
15298TIP3    H267310   4.679   3.716   4.418 -1.1829 -0.7881  0.5320
15299TIP3   OH267311   4.705   6.169   4.548 -0.2948 -0.0001  0.4745
15299TIP3    H167312   4.779   6.205   4.501 -1.2898 -1.4332 -2.3915
15299TIP3    H267313   4.698   6.079   4.517 -2.6879 -0.1836  1.3292
15300TIP3   OH267314   0.599   4.673   1.414  0.1467 -0.2538 -0.1649
15300TIP3    H167315   0.590   4.676   1.509  0.4909 -1.7734 -0.0488
15300TIP3    H267316   0.634   4.758   1.389 -0.8438  0.5012  0.9571
15301TIP3   OH267317   3.160   1.148   2.399 -0.5248 -0.5351 -0.2814
15301TIP3    H167318   3.086   1.095   2.368  0.6168 -2.2144 -0.2910
15301TIP3    H267319   3.214   1.086   2.449 -0.6063  1.2958  2.2890
15302TIP3   OH267320   2.990   6.576   3.194 -0.5348 -0.1768  0.5071
15302TIP3    H167321   3.047   6.572   3.118 -0.0311 -0.9308  0.9120
15302TIP3    H267322   3.039   6.626   3.258  0.0468 -1.5066  1.1427
15303TIP3   OH267323   4.798   1.759  15.129 -0.0462  0.0271  0.8855
15303TIP3    H167324   4.863   1.765  15.059 -0.3989 -0.3970  0.5202
15303TIP3    H267325   4.836   1.809  15.201  1.0763 -0.9342  0.9772
15304TIP3   OH267326   7.118   0.283  14.038  0.1587  0.5632  0.5714
15304TIP3    H167327   7.172   0.284  13.959  0.0838  2.2147  0.5024
15304TIP3    H267328   7.131   0.370  14.077 -2.4677  1.0639  0.5284
15305TIP3   OH267329   2.261   3.881   1.821  0.3046  0.4295 -0.1818
15305TIP3    H167330   2.269   3.906   1.913  0.0339  0.3632 -0.1409
15305TIP3    H267331   2.167   3.874   1.806  0.3721 -0.2974 -0.2719
15306TIP3   OH267332   5.981   2.172   5.010  0.4618 -0.5957 -0.7830
15306TIP3    H167333   5.898   2.206   5.043  1.0939 -0.4730  0.7694
15306TIP3    H267334   5.956   2.116   4.936 -1.0333 -0.8384 -0.1383
15307TIP3   OH267335   4.354   5.108   3.070 -0.1147 -0.2035  0.1538
15307TIP3    H167336   4.449   5.099   3.077  0.0694  1.2672 -0.2102
15307TIP3    H267337   4.320   5.022   3.096  1.3029 -0.7381  0.3240
15308TIP3   OH267338   4.289   5.317   3.377 -0.3719  0.5018 -0.0450
15308TIP3    H167339   4.219   5.330   3.441  0.6237  1.9123  0.8208
15308TIP3    H267340   4.285   5.395   3.321  0.4657  0.5773 -0.0096
15309TIP3   OH267341   1.067   6.013  12.114  0.0592 -0.2859 -0.4504
15309TIP3    H167342   1.142   6.044  12.063  0.1850  0.2442  0.0550
15309TIP3    H267343   0.991   6.052  12.070  0.2058  0.6301  0.0910
15310TIP3   OH267344   5.824   1.389   3.582 -0.3038  0.4030 -0.1065
15310TIP3    H167345   5.847   1.298   3.563 -1.6295  0.2495 -1.1062
15310TIP3    H267346   5.828   1.395   3.677  0.7001 -0.4436 -0.0720
15311TIP3   OH267347   1.589   0.367   2.477 -0.0866 -0.3798  0.5712
15311TIP3    H167348   1.496   0.359   2.501  0.0806  1.3056  2.0157
15311TIP3    H267349   1.635   0.319   2.547  0.1949  0.4218  0.9480
15312TIP3   OH267350   4.677   4.877   1.308 -0.3115 -0.0816  0.8120
15312TIP3    H167351   4.727   4.930   1.369 -1.5943 -0.9025  2.6475
15312TIP3    H267352   4.625   4.940   1.258 -0.2219  0.5238  1.4755
15313TIP3   OH267353   6.495   1.541   2.893 -0.2345 -0.0166 -0.0691
15313TIP3    H167354   6.428   1.498   2.840  0.7681 -0.6170 -0.8898
15313TIP3    H267355   6.474   1.634   2.888 -2.3257 -0.3098  1.5650
15314TIP3   OH267356   2.804   2.999   5.459 -0.5929  0.2443  0.2533
15314TIP3    H167357   2.784   2.915   5.501  1.1147 -0.5306 -0.3700
15314TIP3    H267358   2.889   3.025   5.497 -0.5782  1.1493 -0.3642
15315TIP3   OH267359   6.064   3.345   2.331 -0.2528 -0.2423  0.0942
15315TIP3    H167360   6.033   3.333   2.421  0.9636 -0.2342  0.5334
15315TIP3    H267361   6.150   3.385   2.341  0.6882 -1.8561 -0.9948
15316TIP3   OH267362   6.877   5.977   0.081  0.4819  0.1539 -0.2137
15316TIP3    H167363   6.859   5.966  -0.012  0.5492 -0.2220 -0.1816
15316TIP3    H267364   6.919   5.895   0.108 -1.5906 -0.6710  0.6623
15317TIP3   OH267365   1.282   1.315   4.439  0.2955  0.4960 -0.4945
15317TIP3    H167366   1.211   1.255   4.463 -0.7778  1.4174 -1.2776
15317TIP3    H267367   1.359   1.258   4.432 -0.6429 -0.7743 -1.0331
15318TIP3   OH267368   6.422   4.153   4.864  0.4219  0.2868  0.2938
15318TIP3    H167369   6.418   4.203   4.945  0.9441  0.6807  0.0846
15318TIP3    H267370   6.505   4.105   4.869  1.0486  1.2510 -0.5315
15319TIP3   OH267371   3.406   7.102  15.161  0.1702 -0.4479  0.0703
15319TIP3    H167372   3.337   7.089  15.097  0.3301 -0.0045 -0.2026
15319TIP3    H267373   3.427   7.014  15.194  0.7134 -0.7887 -1.1486
15320TIP3   OH267374   0.276   4.811  15.096 -0.2440  0.2819 -0.2022
15320TIP3    H167375   0.277   4.735  15.038  1.6662  1.1442 -1.4160
15320TIP3    H267376   0.324   4.783  15.174 -1.1550 -0.2978  0.1601
15321TIP3   OH267377   3.636   4.425   0.805 -0.2818  0.2518  0.6825
15321TIP3    H167378   3.601   4.409   0.718 -1.6126  1.4186  0.9587
15321TIP3    H267379   3.583   4.498   0.839  1.5547  1.2110  1.6606
15322TIP3   OH267380   5.348   3.709  13.288  1.0991  0.6487 -0.5163
15322TIP3    H167381   5.280   3.776  13.295  1.3476  1.1651 -2.4634
15322TIP3    H267382   5.407   3.742  13.220  3.0328 -0.0399  0.7503
15323TIP3   OH267383   1.456   6.284  13.804 -0.0128  0.2526 -0.1213
15323TIP3    H167384   1.398   6.347  13.846 -0.0570 -0.2613  0.6021
15323TIP3    H267385   1.431   6.286  13.712 -0.4838  0.7807  0.0139
15324TIP3   OH267386   3.297   3.587   2.578  0.0106 -0.2247  0.5235
15324TIP3    H167387   3.325   3.515   2.522 -0.1476  1.4071 -1.7861
15324TIP3    H267388   3.276   3.658   2.518  2.0894  2.4934  2.6879
15325TIP3   OH267389   6.376   0.792  15.069  0.0918 -0.1442  0.4682
15325TIP3    H167390   6.395   0.877  15.028 -0.0208  0.0634  0.8466
15325TIP3    H267391   6.461   0.747  15.068 -0.5197 -1.5416 -3.1228
15326TIP3   OH267392   5.562   4.510   5.532  0.1808  0.0770  0.4730
15326TIP3    H167393   5.569   4.586   5.590 -0.1949 -0.7004  1.5557
15326TIP3    H267394   5.622   4.530   5.459 -2.0968  2.7611 -0.8391
15327TIP3   OH267395   5.536   0.704  13.072  0.3636  0.1571 -0.5449
15327TIP3    H167396   5.479   0.712  12.996  1.8006  1.4033 -1.5742
15327TIP3    H267397   5.550   0.794  13.101  0.8530 -0.2092  0.4268
15328TIP3   OH267398   0.888   6.043   0.657  0.4459 -0.5314  0.0694
15328TIP3    H167399   0.929   6.128   0.671 -0.8825  0.7963 -3.2015
15328TIP3    H267400   0.961   5.982   0.647  1.4403  0.5111  0.7257
15329TIP3   OH267401   1.287   4.392   5.466  0.0927 -0.3033  0.0364
15329TIP3    H167402   1.370   4.433   5.443  0.5411 -0.5086  1.2510
15329TIP3    H267403   1.286   4.310   5.417  0.3514 -0.0495 -0.4011
15330TIP3   OH267404   1.558   6.568   4.248 -0.2303 -0.5550  0.5853
15330TIP3    H167405   1.498   6.495   4.266  0.7884 -1.0641  2.1431
15330TIP3    H267406   1.622   6.531   4.186  0.0140 -0.8444  1.0083
15331TIP3   OH267407   3.018   0.870  13.565 -0.1778 -0.3863 -0.0931
15331TIP3    H167408   3.016   0.775  13.572 -0.1927 -0.5051 -1.3802
15331TIP3    H267409   2.926   0.896  13.563 -0.1751 -0.3103  0.5115
15332TIP3   OH267410   0.903   5.145   3.928  0.0297  0.4078 -0.1517
15332TIP3    H167411   0.940   5.094   3.999 -3.7060  1.5598  2.9496
15332TIP3    H267412   0.923   5.236   3.950  0.5960  0.7275 -1.7942
15333TIP3   OH267413   1.198   2.563  14.204 -0.1597  0.1498  0.0710
15333TIP3    H167414   1.167   2.473  14.220  2.1528 -0.3281  2.6420
15333TIP3    H267415   1.236   2.560  14.116 -2.4503 -0.6040 -0.9738
15334TIP3   OH267416   4.023   2.044  15.064  1.1633  0.3192  0.1922
15334TIP3    H167417   3.974   2.054  15.145  1.4140 -0.4422  0.4543
15334TIP3    H267418   3.997   2.118  15.010  1.5252  1.2346  1.2352
15335TIP3   OH267419   7.026   5.677   0.890 -0.1145  0.1923  0.6730
15335TIP3    H167420   6.996   5.761   0.855 -2.7520 -0.7723  0.4399
15335TIP3    H267421   7.022   5.688   0.985 -1.6989 -0.0227  0.6584
15336TIP3   OH267422   0.573   6.550   5.973 -0.1123 -0.6900  0.1939
15336TIP3    H167423   0.611   6.615   5.914 -1.5058  0.1396  0.1737
15336TIP3    H267424   0.480   6.550   5.952 -1.0778  1.1794  3.8204
15337TIP3   OH267425   2.983   0.034   3.189 -0.1832  0.6616 -0.0332
15337TIP3    H167426   2.914   0.007   3.249  1.0191 -0.5347  0.8679
15337TIP3    H267427   3.001  -0.044   3.137  0.7125  0.8665 -0.0408
15338TIP3   OH267428   0.683   5.970   2.490 -0.1054 -0.4079 -0.1251
15338TIP3    H167429   0.711   5.899   2.548  1.2018  0.3428  0.1861
15338TIP3    H267430   0.760   6.025   2.479 -1.5744  2.1772  1.3630
15339TIP3   OH267431   4.517   1.793   0.684 -0.2893  0.1093 -0.0268
15339TIP3    H167432   4.427   1.761   0.683  0.2982 -1.8121  1.7497
15339TIP3    H267433   4.570   1.714   0.696  1.6102  1.2564 -0.5381
15340TIP3   OH267434   7.086   4.429   4.097 -0.0427  0.1069 -0.6176
15340TIP3    H167435   7.042   4.357   4.142 -0.3279  0.7751  0.2153
15340TIP3    H267436   7.086   4.500   4.161 -0.0444  0.9480 -1.5264
15341TIP3   OH267437   2.084   3.402   0.293 -0.0289  0.4897 -0.9250
15341TIP3    H167438   2.105   3.457   0.218 -0.7536 -0.0502 -1.5336
15341TIP3    H267439   1.999   3.364   0.272 -0.5993  0.9033  0.4913
15342TIP3   OH267440   4.238   5.316  12.047 -0.0579  0.1822 -0.4523
15342TIP3    H167441   4.226   5.222  12.051 -1.7375  0.4033  3.6459
15342TIP3    H267442   4.208   5.340  11.959 -2.2745 -2.8000 -0.6649
15343TIP3   OH267443   0.645   5.378   2.003  0.1252  0.2339 -0.2737
15343TIP3    H167444   0.597   5.420   2.074 -0.0861  1.2159 -0.9687
15343TIP3    H267445   0.721   5.337   2.045 -0.3921  0.1617  0.6002
15344TIP3   OH267446   0.005   6.080   3.960  0.3448 -0.3679  0.3303
15344TIP3    H167447   0.014   5.985   3.964  0.8560 -0.2876  1.6980
15344TIP3    H267448  -0.057   6.096   3.889  1.2702 -1.6484 -0.8183
15345TIP3   OH267449   1.430   2.454   1.971 -0.4492  0.2344 -0.6882
15345TIP3    H167450   1.376   2.376   1.983  1.0066 -0.7960 -0.5489
15345TIP3    H267451   1.519   2.426   1.994  0.0581  2.0552 -0.2096
15346TIP3   OH267452   0.210   2.159   4.333  0.5494 -0.0247  0.3645
15346TIP3    H167453   0.148   2.103   4.286 -0.0496  1.0235 -0.1473
15346TIP3    H267454   0.274   2.099   4.370  0.4357 -0.9817 -0.9106
15347TIP3   OH267455   0.620   3.338   1.731 -0.1398 -0.0482  0.3733
15347TIP3    H167456   0.597   3.391   1.655 -0.1170  1.2385  1.2315
15347TIP3    H267457   0.619   3.399   1.804 -0.8641 -1.4024  1.5448
15348TIP3   OH267458   2.252   5.062   1.845  0.4291  0.0108 -0.1157
15348TIP3    H167459   2.169   5.015   1.853  0.6890 -0.1058  3.0193
15348TIP3    H267460   2.229   5.143   1.799 -1.0806 -0.6761 -0.6386
15349TIP3   OH267461   7.012   4.899   4.862  0.4762 -0.3412  0.3326
15349TIP3    H167462   6.951   4.953   4.812 -0.4702 -0.8555  0.9190
15349TIP3    H267463   7.082   4.960   4.887 -0.8430  0.7677  1.4444
15350TIP3   OH267464   2.541   0.231   3.202  0.1201  0.3986 -0.6938
15350TIP3    H167465   2.519   0.270   3.117 -2.0738 -0.5278 -0.6210
15350TIP3    H267466   2.457   0.217   3.244  1.1558  0.5182  1.5317
15351TIP3   OH267467   1.596   5.683   4.594  0.6312 -0.4028  0.0721
15351TIP3    H167468   1.575   5.609   4.650 -0.3382 -2.0900 -2.3311
15351TIP3    H267469   1.562   5.759   4.640 -0.1967 -1.6834  1.6793
15352TIP3   OH267470   6.625   2.614   2.851  0.0829 -0.0973 -0.4470
15352TIP3    H167471   6.679   2.617   2.773  1.1896 -0.3830  0.2804
15352TIP3    H267472   6.543   2.575   2.822 -0.5731  2.2676 -2.0125
15353TIP3   OH267473   2.556   2.280   3.010  0.9296  0.0721  0.1609
15353TIP3    H167474   2.460   2.284   3.010  0.8102 -1.7230 -0.3007
15353TIP3    H267475   2.581   2.305   3.099  0.1185  1.4552  0.0377
15354TIP3   OH267476   7.077   3.253   2.107  0.0251 -0.2658 -0.1659
15354TIP3    H167477   7.004   3.229   2.050  0.4652  2.5118 -2.1112
15354TIP3    H267478   7.036   3.296   2.182 -0.4305  2.0394 -1.6458
15355TIP3   OH267479   6.887   6.958   4.345 -1.0873 -0.2025  0.3860
15355TIP3    H167480   6.911   6.964   4.252 -1.7634  1.3150  0.2852
15355TIP3    H267481   6.828   6.883   4.350 -0.6964 -0.5711 -0.3189
15356TIP3   OH267482   3.800   4.845   2.587 -0.4870  0.2959  0.5543
15356TIP3    H167483   3.854   4.919   2.563  1.7854 -1.4629 -0.0850
15356TIP3    H267484   3.774   4.862   2.678  2.0532  0.7342  1.2603
15357TIP3   OH267485   3.840   2.065   0.558 -0.5697 -0.8246  0.3236
15357TIP3    H167486   3.806   2.021   0.480  1.2090  0.2853 -1.1644
15357TIP3    H267487   3.783   2.141   0.569 -0.8810 -1.0327  0.1679
15358TIP3   OH267488   5.118   4.142   5.151  0.4264  0.0345 -0.0475
15358TIP3    H167489   5.093   4.206   5.218 -0.8909 -0.6717  0.1766
15358TIP3    H267490   5.051   4.152   5.083  1.5630  0.5189 -1.1218
15359TIP3   OH267491   2.276   3.269   2.044 -0.0412 -0.5678 -0.1709
15359TIP3    H167492   2.222   3.341   2.010  0.2605 -0.6791 -0.9138
15359TIP3    H267493   2.238   3.190   2.005  0.0490 -0.7390  0.0891
15360TIP3   OH267494   6.868   5.008   2.932 -0.1035 -0.2162  0.1788
15360TIP3    H167495   6.820   5.066   2.873 -0.4533  0.8157  1.4348
15360TIP3    H267496   6.851   4.920   2.898 -1.2235  0.2750 -0.5877
15361TIP3   OH267497   3.545   1.574   5.420  0.2280 -0.3513  0.1232
15361TIP3    H167498   3.563   1.482   5.442 -1.4591 -0.4604  1.2164
15361TIP3    H267499   3.569   1.622   5.500 -1.4253 -0.1843  0.5481
15362TIP3   OH267500   3.639   0.132   4.656 -0.0739 -0.4556 -0.0100
15362TIP3    H167501   3.581   0.083   4.715 -2.2247 -0.8200 -2.2659
15362TIP3    H267502   3.710   0.072   4.635  1.4793  0.1013  3.0557
15363TIP3   OH267503   0.015   1.011  15.242 -0.6725  0.1818  0.3005
15363TIP3    H167504   0.057   0.989  15.160  0.2124  1.8459  0.2503
15363TIP3    H267505   0.082   0.996  15.309 -1.3750 -1.1336  0.7493
15364TIP3   OH267506   6.314   4.699   0.830  0.4758  0.0869  0.1305
15364TIP3    H167507   6.386   4.695   0.768 -0.1303 -1.4887 -0.5195
15364TIP3    H267508   6.249   4.637   0.796 -0.5727  0.4055  1.4591
15365TIP3   OH267509   0.580   2.167   0.741 -0.4091 -1.0156 -0.2307
15365TIP3    H167510   0.569   2.251   0.696  0.2353 -0.4870  0.5897
15365TIP3    H267511   0.595   2.105   0.670  2.4402  0.1013 -0.7247
15366TIP3   OH267512   5.398   4.500   1.805  0.4646 -0.4243  0.0896
15366TIP3    H167513   5.387   4.424   1.863  0.3645  0.1753  0.8711
15366TIP3    H267514   5.324   4.494   1.744  0.3396 -0.8489  0.2773
15367TIP3   OH267515   4.164   1.893   5.234 -0.1144 -0.2938 -0.0065
15367TIP3    H167516   4.165   1.810   5.186  0.5051 -1.0909  1.3063
15367TIP3    H267517   4.220   1.951   5.183 -0.0581 -0.8805 -0.6279
15368TIP3   OH267518   2.480   5.119   0.495  0.5263  0.0462 -0.1143
15368TIP3    H167519   2.573   5.124   0.514  1.0575  0.4999 -2.5342
15368TIP3    H267520   2.449   5.043   0.545  1.6199  1.2568  2.5897
15369TIP3   OH267521   5.462   2.357   1.454  0.6745 -0.5628  0.2455
15369TIP3    H167522   5.468   2.293   1.383 -1.4787 -1.7587  1.0598
15369TIP3    H267523   5.480   2.306   1.533  0.1423  0.1120  0.8074
15370TIP3   OH267524   2.964   1.944   4.684  0.3961  0.2502 -0.8305
15370TIP3    H167525   2.974   2.035   4.656 -0.5361  0.7115  0.2080
15370TIP3    H267526   2.869   1.930   4.686  0.3849  0.1404  1.5322
15371TIP3   OH267527   5.569   4.755   5.641 -0.6760 -0.7224 -0.2657
15371TIP3    H167528   5.528   4.806   5.572 -0.0971 -0.3225 -0.3192
15371TIP3    H267529   5.544   4.799   5.722  1.2376  0.7336 -0.3878
15372TIP3   OH267530   2.491   6.046  14.179  0.6292 -0.4846 -0.0821
15372TIP3    H167531   2.564   6.087  14.132  0.0655 -0.0450 -0.5997
15372TIP3    H267532   2.416   6.059  14.121 -0.0981  0.0961  0.9476
15373TIP3   OH267533   1.970   5.266   3.279 -0.2407  0.5041  0.1831
15373TIP3    H167534   1.914   5.332   3.237 -0.4195  0.3762  0.2186
15373TIP3    H267535   1.931   5.253   3.365 -1.5421 -1.2471 -0.6021
15374TIP3   OH267536   1.862   3.742   1.300  0.4259  0.4298  0.7537
15374TIP3    H167537   1.768   3.755   1.291  0.4807 -0.5980 -2.3496
15374TIP3    H267538   1.901   3.801   1.236  1.5469 -2.1355 -1.1086
15375TIP3   OH267539   7.115   2.401   1.351  0.1826  0.1539  0.0872
15375TIP3    H167540   7.021   2.405   1.331 -0.0078 -0.1777  0.8690
15375TIP3    H267541   7.130   2.479   1.405  0.1710 -0.2488  0.6772
15376TIP3   OH267542   5.524   2.264   2.588 -0.5017 -0.6360 -0.1006
15376TIP3    H167543   5.513   2.220   2.504  0.9234 -2.6503  0.7124
15376TIP3    H267544   5.575   2.343   2.568  1.0925 -1.8400 -0.9748
15377TIP3   OH267545   5.189   2.671  14.832  0.0410 -0.2250 -0.5113
15377TIP3    H167546   5.114   2.671  14.773 -2.1236  0.2816  2.0535
15377TIP3    H267547   5.234   2.754  14.815 -0.9972  0.2657 -0.8859
15378TIP3   OH267548   6.172   4.513   0.680 -0.3725 -0.5590  0.4029
15378TIP3    H167549   6.152   4.521   0.586  0.8199  1.1560  0.2316
15378TIP3    H267550   6.159   4.421   0.700  1.7066 -1.5370 -2.0707
15379TIP3   OH267551   2.275   7.083   1.295 -0.7127 -0.7434 -0.0284
15379TIP3    H167552   2.252   7.115   1.383 -0.0739 -0.7138  0.1351
15379TIP3    H267553   2.192   7.077   1.249 -1.1310 -1.3912  0.7902
15380TIP3   OH267554   6.369   7.206   4.994 -0.2992 -0.2186 -0.1801
15380TIP3    H167555   6.437   7.256   5.039 -1.5967  1.5645 -0.1186
15380TIP3    H267556   6.391   7.114   5.013  1.3023  0.3541  0.9563
15381TIP3   OH267557   3.109   1.798   4.488  0.3930  0.2461  0.3156
15381TIP3    H167558   3.073   1.851   4.559 -1.3994 -0.7504  0.2251
15381TIP3    H267559   3.032   1.756   4.449  1.6817 -2.2178  0.2413
15382TIP3   OH267560   5.390   0.169   2.046  0.1764 -0.2590  0.1718
15382TIP3    H167561   5.397   0.264   2.057  2.3701  0.0686 -2.8407
15382TIP3    H267562   5.479   0.140   2.029 -0.4186 -2.9474  1.1649
15383TIP3   OH267563   0.576   6.789   4.207 -0.2151  0.2328  1.0845
15383TIP3    H167564   0.667   6.782   4.176 -1.1781 -1.2575 -1.7740
15383TIP3    H267565   0.552   6.880   4.189  0.1407  0.1129 -0.1166
15384TIP3   OH267566   5.586   6.358   1.742 -0.6468  0.4237  0.1245
15384TIP3    H167567   5.676   6.329   1.732 -0.8335 -0.3021  0.4978
15384TIP3    H267568   5.535   6.278   1.752 -1.3207  0.8288  0.0377
15385TIP3   OH267569   2.611   3.596   1.775  0.1692 -0.1185  0.3508
15385TIP3    H167570   2.594   3.653   1.699  0.0033  1.0542  1.2440
15385TIP3    H267571   2.673   3.531   1.742 -1.6228 -1.0515 -1.4245
15386TIP3   OH267572   3.870   6.996   2.690  0.5152  0.3505 -0.0247
15386TIP3    H167573   3.802   6.931   2.709 -0.4053  1.3480  0.2196
15386TIP3    H267574   3.870   7.004   2.595  0.1201  0.5034 -0.0142
15387TIP3   OH267575   5.968   2.765   4.108 -0.0262 -0.1987 -0.1505
15387TIP3    H167576   5.969   2.672   4.132  3.7531 -0.5900 -1.1696
15387TIP3    H267577   5.904   2.771   4.038  0.8598 -2.4819 -1.2691
15388TIP3   OH267578   0.631   6.968  11.910 -0.2429  0.6252  0.6892
15388TIP3    H167579   0.673   6.968  11.996 -0.3629 -1.0692  0.7706
15388TIP3    H267580   0.614   6.876  11.891 -1.1152  1.0438 -0.7221
15389TIP3   OH267581   3.841   1.352   1.106 -0.0581 -0.5408 -0.2220
15389TIP3    H167582   3.848   1.316   1.017 -2.8379 -3.1752  0.4727
15389TIP3    H267583   3.886   1.289   1.161  0.2804  0.2552  0.4257
15390TIP3   OH267584   0.481   0.901   1.795 -0.4935 -0.2612  0.2077
15390TIP3    H167585   0.397   0.914   1.839  0.0450  0.0694  1.1666
15390TIP3    H267586   0.460   0.906   1.702 -1.9298 -2.5842  0.3310
15391TIP3   OH267587   6.294   6.683  12.542 -0.3469 -0.4078  0.2724
15391TIP3    H167588   6.206   6.648  12.550  0.2060 -1.7760  0.6264
15391TIP3    H267589   6.346   6.611  12.507  0.1884  1.0851 -2.2735
15392TIP3   OH267590   2.200   0.359   0.002  0.0362 -0.5865 -0.6844
15392TIP3    H167591   2.226   0.311   0.081 -0.6278 -0.6991 -0.5218
15392TIP3    H267592   2.197   0.450   0.029  2.2302 -0.2877 -1.2382
15393TIP3   OH267593   5.645   4.261   1.549 -0.1648 -0.3389 -0.2903
15393TIP3    H167594   5.655   4.180   1.597 -1.0202 -0.6512 -0.6172
15393TIP3    H267595   5.665   4.330   1.612  1.4046 -0.8111 -0.2401
15394TIP3   OH267596   2.745   6.675  12.250  0.2516 -0.3947  0.3427
15394TIP3    H167597   2.683   6.709  12.186 -0.1710  0.6779  1.2891
15394TIP3    H267598   2.830   6.678  12.206 -0.2676 -1.4488 -0.8073
15395TIP3   OH267599   6.495   0.563   3.085 -0.4484 -0.1903 -0.3246
15395TIP3    H167600   6.433   0.557   3.158 -1.0040  0.8140 -0.7030
15395TIP3    H267601   6.494   0.476   3.046  0.5309 -1.0316  1.3911
15396TIP3   OH267602   1.396   6.692  15.261 -0.6876 -0.0472  0.1419
15396TIP3    H167603   1.365   6.614  15.213 -1.5885  0.4049 -0.0418
15396TIP3    H267604   1.366   6.677  15.351 -0.2883 -0.2147  0.2460
15397TIP3   OH267605   5.645   3.538   2.418  0.0870 -0.0168  0.0080
15397TIP3    H167606   5.570   3.494   2.459 -1.8799  1.5940 -1.6473
15397TIP3    H267607   5.707   3.468   2.399 -2.3139 -1.9265 -1.3248
15398TIP3   OH267608   0.845   5.290   2.384  0.3633 -0.6072  0.1153
15398TIP3    H167609   0.927   5.268   2.428  0.4068  1.2699  1.0655
15398TIP3    H267610   0.866   5.368   2.333  0.1521 -2.3414 -2.8452
15399TIP3   OH267611   5.604   2.803   1.972 -0.9945  0.5310  0.4287
15399TIP3    H167612   5.532   2.741   1.986 -1.3669  0.8066 -0.1817
15399TIP3    H267613   5.641   2.818   2.059 -1.1862 -0.2015  0.6420
15400TIP3   OH267614   6.060   4.874  13.466 -0.3049  0.4460 -0.0717
15400TIP3    H167615   6.036   4.875  13.374 -1.1759  2.4035  0.1400
15400TIP3    H267616   6.154   4.854  13.466 -0.8009 -2.4203 -1.1735
15401TIP3   OH267617   3.303   2.954   4.604  1.0931  0.5057  0.6623
15401TIP3    H167618   3.311   2.895   4.679 -0.0154 -0.0267  0.3916
15401TIP3    H267619   3.288   3.040   4.642 -0.3420  0.1039  1.0902
15402TIP3   OH267620   1.544   3.333   0.286  0.3580 -0.1127  0.1381
15402TIP3    H167621   1.514   3.260   0.231  0.2007 -0.2491  0.4013
15402TIP3    H267622   1.464   3.381   0.307  0.7289  1.8639 -2.4276
15403TIP3   OH267623   1.611   4.195   2.963  0.1674  0.0879 -0.4582
15403TIP3    H167624   1.618   4.105   2.996  0.0525  0.3128  0.2012
15403TIP3    H267625   1.519   4.218   2.977  0.1844  0.2934 -0.6766
15404TIP3   OH267626   2.018   0.733   3.314 -0.8849 -0.5860 -0.2248
15404TIP3    H167627   1.930   0.695   3.314 -0.5869 -1.4940 -2.5343
15404TIP3    H267628   2.004   0.828   3.312 -1.8467 -0.7332 -1.2300
15405TIP3   OH267629   5.768   4.436   1.266 -0.1871  0.2889  0.0770
15405TIP3    H167630   5.851   4.399   1.295 -0.1647 -0.7790 -1.2774
15405TIP3    H267631   5.702   4.375   1.298 -0.4210  0.8812  0.7382
15406TIP3   OH267632   5.028   4.585   2.437 -0.3572  0.0361  0.5137
15406TIP3    H167633   4.969   4.535   2.493 -0.1002 -2.2860 -1.1724
15406TIP3    H267634   4.975   4.610   2.361 -0.4364  2.3050  1.2389
15407TIP3   OH267635   6.388   4.994   5.180 -0.5582 -0.3973 -0.5917
15407TIP3    H167636   6.443   5.018   5.255 -0.5402 -0.5407 -0.5588
15407TIP3    H267637   6.383   4.898   5.184 -1.2978 -0.3565 -0.2414
15408TIP3   OH267638   4.624   0.956   0.684  0.0280 -0.5393  0.2058
15408TIP3    H167639   4.637   1.049   0.703  0.5013 -0.5290 -0.1714
15408TIP3    H267640   4.680   0.938   0.609  0.0935 -1.1804  0.4032
15409TIP3   OH267641   6.695   4.009  13.532 -0.9730 -0.0687  0.5062
15409TIP3    H167642   6.782   4.050  13.529 -0.3031 -1.4932 -1.2183
15409TIP3    H267643   6.634   4.083  13.535  0.2598  0.9905  0.4949
15410TIP3   OH267644   3.746   6.036   4.199  0.4815  0.0303 -0.1827
15410TIP3    H167645   3.765   6.130   4.196 -0.0792  0.1489 -0.2086
15410TIP3    H267646   3.681   6.027   4.269  2.2633 -0.6761  1.4674
15411TIP3   OH267647   2.510   4.833  15.187 -0.0168 -0.0807  0.3477
15411TIP3    H167648   2.486   4.921  15.158  1.8458 -0.5244 -3.1202
15411TIP3    H267649   2.427   4.786  15.195 -0.8713  0.6636 -2.8255
15412TIP3   OH267650   3.957   5.429   4.241  0.3624 -0.5896 -0.4314
15412TIP3    H167651   3.882   5.372   4.225  0.9765 -1.9140  1.1881
15412TIP3    H267652   4.033   5.378   4.213  0.9415 -0.6900  1.2361
15413TIP3   OH267653   1.923   3.335  12.778  0.2653 -0.3073  0.6415
15413TIP3    H167654   1.896   3.245  12.796  1.1903 -1.1351 -1.7349
15413TIP3    H267655   1.874   3.360  12.699  1.8806  0.3364 -0.1993
15414TIP3   OH267656   1.448   2.191   1.203 -0.1600  0.2159 -0.1957
15414TIP3    H167657   1.383   2.187   1.134 -1.7801 -1.6454  1.3237
15414TIP3    H267658   1.400   2.221   1.280  1.2139  0.6543  0.5308
15415TIP3   OH267659   5.041   6.603   5.463  0.2428 -0.2376 -0.5190
15415TIP3    H167660   4.962   6.641   5.425 -0.6196  1.4702  2.6066
15415TIP3    H267661   5.084   6.677   5.507  3.8405 -1.0119 -2.3160
15416TIP3   OH267662   2.244   6.511   5.146  0.4222 -0.6367  0.0073
15416TIP3    H167663   2.309   6.503   5.216 -0.2206 -2.0761  0.4733
15416TIP3    H267664   2.215   6.421   5.130 -0.6162 -0.1445 -0.9909
15417TIP3   OH267665   4.096   4.263   4.873 -0.0821  1.1483  0.3208
15417TIP3    H167666   4.105   4.179   4.917 -0.4913  1.0609  0.2440
15417TIP3    H267667   4.044   4.243   4.794  0.2639  1.3769  0.0312
15418TIP3   OH267668   0.514   7.153   5.296 -0.2890  0.0828  0.1656
15418TIP3    H167669   0.534   7.059   5.297 -0.9079 -0.1128  2.7271
15418TIP3    H267670   0.419   7.156   5.287 -0.3061  0.4525  0.4804
15419TIP3   OH267671   1.004   6.702  13.979  0.2241 -0.2169  0.0852
15419TIP3    H167672   1.036   6.791  13.963  1.5009 -0.1707  2.3935
15419TIP3    H267673   0.927   6.694  13.924 -0.6985  2.7897  0.7346
15420TIP3   OH267674   3.479   5.293   0.678  0.4564 -0.3087  0.1765
15420TIP3    H167675   3.509   5.348   0.751 -0.5759  1.2864 -0.5518
15420TIP3    H267676   3.494   5.203   0.708  2.3864  0.3384  1.3338
15421TIP3   OH267677   1.252   5.470  10.248  0.2933  0.0039  0.0981
15421TIP3    H167678   1.164   5.507  10.250 -0.1600 -1.0407  0.1805
15421TIP3    H267679   1.285   5.490  10.160  0.5644  1.6850  0.5543
15422TIP3   OH267680   5.487   1.210   3.102 -0.2913  0.3393 -0.3971
15422TIP3    H167681   5.424   1.167   3.160 -1.1500  1.0732 -0.7680
15422TIP3    H267682   5.481   1.303   3.124  0.2767  0.4822 -0.8151
15423TIP3   OH267683   5.814   5.613   4.312  0.3356  0.0306 -0.4958
15423TIP3    H167684   5.886   5.593   4.372 -0.1298 -0.4486 -0.0873
15423TIP3    H267685   5.735   5.594   4.362 -0.0653 -0.6463 -1.3583
15424TIP3   OH267686   0.445   4.319   3.556 -0.2536 -0.4785  0.0560
15424TIP3    H167687   0.512   4.263   3.518  0.0570  0.7295 -1.2774
15424TIP3    H267688   0.473   4.408   3.535 -0.8179  0.2093  1.9514
15425TIP3   OH267689   3.980   2.494  13.873 -0.3723 -0.4003  0.2811
15425TIP3    H167690   4.071   2.497  13.902 -0.1750  0.1275 -0.3735
15425TIP3    H267691   3.985   2.462  13.783 -0.7757  0.2620  0.0188
15426TIP3   OH267692   3.782   4.396   0.422  0.4277  0.3226 -0.3876
15426TIP3    H167693   3.709   4.370   0.479  1.0182  0.0062  0.2417
15426TIP3    H267694   3.741   4.444   0.350 -0.5096 -0.7663 -0.6018
15427TIP3   OH267695   2.948   5.196   3.423  0.3049 -0.6322 -0.0756
15427TIP3    H167696   2.872   5.138   3.435  0.1409 -0.3696  0.1635
15427TIP3    H267697   2.949   5.214   3.329 -1.0568  0.8717  0.1540
15428TIP3   OH267698   6.745   2.419   2.020 -0.4495 -0.1727 -0.2459
15428TIP3    H167699   6.818   2.421   1.959  0.1890 -0.0337  0.4987
15428TIP3    H267700   6.786   2.425   2.107 -1.1899 -2.0231  0.2981
15429TIP3   OH267701   0.145   1.800   3.820  0.1847  0.5337 -0.3109
15429TIP3    H167702   0.085   1.873   3.802  0.2236  0.6384 -0.0083
15429TIP3    H267703   0.107   1.727   3.772 -0.9478  0.2479  0.9587
15430TIP3   OH267704   0.499   6.328  15.156 -0.0793  0.6448 -0.3058
15430TIP3    H167705   0.408   6.351  15.175 -0.5089  0.8711 -2.3546
15430TIP3    H267706   0.498   6.303  15.064  2.0407  1.1968 -0.5316
15431TIP3   OH267707   1.405   2.755   4.812  0.0910  0.7944 -0.1761
15431TIP3    H167708   1.381   2.669   4.777  0.8191  0.6808 -0.4337
15431TIP3    H267709   1.374   2.753   4.903 -0.5027  0.5223 -0.3778
15432TIP3   OH267710   6.167   5.951   2.356  0.4618 -0.0828 -0.2553
15432TIP3    H167711   6.099   5.884   2.358  1.2781 -0.9795 -1.3756
15432TIP3    H267712   6.215   5.935   2.274  1.8889  0.6631  0.3942
15433TIP3   OH267713   3.275   6.811   4.654  0.3638  0.8560  0.4275
15433TIP3    H167714   3.280   6.802   4.559 -2.6571  0.4113  0.2109
15433TIP3    H267715   3.303   6.900   4.672  0.4073  1.1410 -0.9612
15434TIP3   OH267716   7.145   4.840   3.451 -0.0224 -1.0486  0.0367
15434TIP3    H167717   7.182   4.900   3.386 -0.4463 -0.2765  0.4867
15434TIP3    H267718   7.215   4.777   3.468 -0.3149 -1.9832 -2.0235
15435TIP3   OH267719   1.514   6.366  15.316  0.0771 -0.2187  0.1970
15435TIP3    H167720   1.558   6.288  15.349 -2.1810 -0.2199  3.6253
15435TIP3    H267721   1.453   6.334  15.250  1.4221 -0.8455 -0.7943
15436TIP3   OH267722   2.003   3.122  11.585  0.0697  0.4590  0.0041
15436TIP3    H167723   2.086   3.083  11.611  1.1848  2.4154 -0.5078
15436TIP3    H267724   2.007   3.126  11.490 -0.4886  0.8359 -0.0087
15437TIP3   OH267725   3.350   4.537   3.748 -0.5707 -0.2605 -0.2205
15437TIP3    H167726   3.344   4.569   3.838 -0.8563 -1.8077  0.3486
15437TIP3    H267727   3.260   4.512   3.725 -1.0310  2.5863 -1.9593
15438TIP3   OH267728   4.052   0.951   4.506 -0.2876  0.3269  0.5946
15438TIP3    H167729   3.966   0.946   4.547  0.7759 -2.1062  2.7787
15438TIP3    H267730   4.070   0.862   4.476  1.4276  0.8135  0.0773
15439TIP3   OH267731   1.202   6.536   4.755 -0.2335  0.4898  0.3847
15439TIP3    H167732   1.231   6.577   4.836 -0.5886 -0.4727  1.0216
15439TIP3    H267733   1.271   6.555   4.692  0.6216  0.2507  1.2294
15440TIP3   OH267734   0.382   3.656   4.379 -0.1996  0.4161 -0.0592
15440TIP3    H167735   0.338   3.692   4.303 -1.9765 -0.5609  0.4612
15440TIP3    H267736   0.423   3.732   4.422 -1.4461  1.3698 -0.5186
15441TIP3   OH267737   0.839   4.335   4.754  0.0401 -0.2312  0.1199
15441TIP3    H167738   0.769   4.271   4.745  0.3385 -0.4531 -0.7712
15441TIP3    H267739   0.809   4.412   4.705  1.0920 -0.9349 -1.7693
15442TIP3   OH267740   1.076   0.620  13.543 -0.4117  1.1758  0.1047
15442TIP3    H167741   1.006   0.655  13.597 -1.2564  0.2165 -0.3392
15442TIP3    H267742   1.031   0.568  13.476  0.7033  0.8696 -0.4300
15443TIP3   OH267743   4.433   0.152   1.465  0.2116 -0.7221 -0.0845
15443TIP3    H167744   4.523   0.152   1.431  0.5748 -1.5924  0.8162
15443TIP3    H267745   4.384   0.097   1.404  0.5919 -1.3223  0.1482
15444TIP3   OH267746   6.792   0.806   2.633 -0.1839  0.1959  0.1825
15444TIP3    H167747   6.781   0.891   2.676 -0.2342 -0.2876  1.1362
15444TIP3    H267748   6.887   0.795   2.628 -0.1316 -0.6966  2.1396
15445TIP3   OH267749   2.955   7.099   5.753 -0.5914 -0.5989  0.3920
15445TIP3    H167750   3.043   7.105   5.790  0.2869 -1.3294 -1.4448
15445TIP3    H267751   2.912   7.030   5.804  0.7677 -1.9702 -0.2399
15446TIP3   OH267752   3.621   4.033  11.706  0.2021 -0.5109 -0.1607
15446TIP3    H167753   3.609   4.124  11.734  0.3927 -0.9412  1.3906
15446TIP3    H267754   3.660   3.990  11.781  1.9822 -1.4548 -1.5446
15447TIP3   OH267755   0.048   1.832   2.100 -0.3434 -0.3561 -0.6001
15447TIP3    H167756   0.082   1.832   2.010 -1.1181 -1.3356 -0.8968
15447TIP3    H267757   0.100   1.765   2.145 -0.1215 -0.0350 -0.3740
15448TIP3   OH267758   7.205   7.169   4.876  0.4193 -0.0583  0.4399
15448TIP3    H167759   7.284   7.206   4.837 -0.5219  2.7322  0.9275
15448TIP3    H267760   7.193   7.218   4.957 -1.6084 -0.6046  0.5252
15449TIP3   OH267761   1.396   4.962   0.595  0.4665  0.4689  0.1072
15449TIP3    H167762   1.415   4.892   0.657 -1.5431 -0.2865 -0.0482
15449TIP3    H267763   1.463   4.953   0.527  0.6332 -0.8877  0.4246
15450TIP3   OH267764   1.453   1.089   2.198 -0.9199 -0.3861 -0.9467
15450TIP3    H167765   1.358   1.078   2.186 -1.3643  2.2904 -0.4390
15450TIP3    H267766   1.491   1.021   2.142 -3.0905 -2.3544 -0.2437
15451TIP3   OH267767   4.863   2.887   5.497 -0.8018  0.0334 -0.6303
15451TIP3    H167768   4.838   2.802   5.531  1.4814 -0.0164  1.1162
15451TIP3    H267769   4.836   2.949   5.564 -1.9483  0.6802 -1.6415
15452TIP3   OH267770   5.312   4.573   2.393  0.0029 -0.6619  0.3788
15452TIP3    H167771   5.347   4.635   2.457  0.7790 -0.7894  0.0922
15452TIP3    H267772   5.219   4.594   2.387  0.6635  2.3935 -1.7735
15453TIP3   OH267773   6.857   4.691   5.377 -0.4606 -0.1997  0.2866
15453TIP3    H167774   6.899   4.614   5.414  0.4448  0.4033  0.5547
15453TIP3    H267775   6.823   4.739   5.453  1.0941  0.8655  0.3546
15454TIP3   OH267776   3.947   5.732   0.101 -0.0995 -0.0502 -0.5505
15454TIP3    H167777   3.933   5.703   0.191  1.3498  1.4774  0.2127
15454TIP3    H267778   3.861   5.721   0.059 -0.6107 -1.5012  0.7812
15455TIP3   OH267779   2.984   0.551   4.668 -0.0448 -0.2515  0.0676
15455TIP3    H167780   3.065   0.601   4.654 -0.8979  0.8006 -1.5142
15455TIP3    H267781   2.946   0.589   4.747  0.7114 -0.3681  0.5007
15456TIP3   OH267782   4.395   3.555   0.518 -0.3143 -0.8315 -0.4017
15456TIP3    H167783   4.482   3.593   0.510 -0.9141  0.6790 -0.0524
15456TIP3    H267784   4.409   3.472   0.564  0.5208  1.5762  4.3397
15457TIP3   OH267785   2.230   2.022   4.745 -0.4362 -0.0269 -0.4598
15457TIP3    H167786   2.137   2.038   4.730 -0.3368  0.4366 -0.5796
15457TIP3    H267787   2.251   2.072   4.824 -0.7607 -1.7695  0.8043
15458TIP3   OH267788   6.889   4.205   3.799 -0.0730  0.2070 -0.4940
15458TIP3    H167789   6.968   4.221   3.851 -1.1119  1.1887  0.8587
15458TIP3    H267790   6.899   4.115   3.768  1.6782  0.3987 -0.5685
15459TIP3   OH267791   3.497   6.282   0.248  0.8507 -0.3228  0.1379
15459TIP3    H167792   3.456   6.196   0.241  0.9892 -0.3035 -1.0118
15459TIP3    H267793   3.466   6.330   0.171  1.9712  0.1484 -0.0332
15460TIP3   OH267794   0.322   6.539   4.322  0.0946 -0.5104  0.1516
15460TIP3    H167795   0.403   6.560   4.368  0.3997 -0.0045 -0.5988
15460TIP3    H267796   0.350   6.498   4.241 -0.4641 -2.3276  0.8245
15461TIP3   OH267797   6.917   5.695   0.131  0.7405  0.0775  0.3822
15461TIP3    H167798   6.924   5.601   0.117  1.5140 -0.0610  1.5807
15461TIP3    H267799   6.824   5.714   0.121  0.6648 -0.6837 -0.5664
15462TIP3   OH267800   0.409   0.729   3.561  0.3621 -0.4128 -0.2225
15462TIP3    H167801   0.497   0.702   3.536 -0.1545 -1.9560 -0.4746
15462TIP3    H267802   0.412   0.825   3.559  1.9131 -0.4431 -0.6152
15463TIP3   OH267803   5.944   2.641   2.717 -0.1084 -0.5666 -0.1151
15463TIP3    H167804   5.943   2.611   2.808 -0.5722 -0.9719 -0.2491
15463TIP3    H267805   5.947   2.560   2.666  2.2904 -0.3395 -0.4477
15464TIP3   OH267806   0.769   4.879   3.707 -0.1620  0.6547  0.5359
15464TIP3    H167807   0.847   4.932   3.721 -1.1910  2.4267 -0.0419
15464TIP3    H267808   0.772   4.855   3.614 -0.1533  0.4399  0.5900
15465TIP3   OH267809   3.208   5.106   0.760 -0.5116  0.0655  0.1543
15465TIP3    H167810   3.235   5.153   0.839 -0.0755 -0.8719  0.5917
15465TIP3    H267811   3.114   5.096   0.769 -0.6847  1.2641 -0.1878
15466TIP3   OH267812   4.669   0.327   1.673  0.7007 -0.3265  0.2924
15466TIP3    H167813   4.604   0.382   1.630  0.5241  0.8451  1.9858
15466TIP3    H267814   4.693   0.263   1.606 -0.9590  0.2241 -0.9104
15467TIP3   OH267815   5.456   7.160   2.345 -0.2450  0.2740 -0.4435
15467TIP3    H167816   5.371   7.191   2.314  0.5320  0.6775 -2.3318
15467TIP3    H267817   5.449   7.064   2.341 -0.4723  0.3091 -1.0490
15468TIP3   OH267818   2.253   3.052   0.396 -0.1253 -0.5120  0.2730
15468TIP3    H167819   2.335   3.098   0.413 -0.6242  1.5691 -2.2120
15468TIP3    H267820   2.229   3.012   0.480  2.2322  0.7615  1.6457
15469TIP3   OH267821   6.950   4.674   3.875  0.3141  0.0437 -0.6146
15469TIP3    H167822   6.963   4.754   3.928  0.0577  2.2215 -3.5955
15469TIP3    H267823   7.038   4.653   3.843  0.0465  0.7148 -1.8648
15470TIP3   OH267824   1.871   7.181   4.092  0.4199 -0.2969 -0.4407
15470TIP3    H167825   1.813   7.176   4.168 -0.7232  0.0694 -1.2523
15470TIP3    H267826   1.847   7.105   4.039  2.9226 -1.9989  0.6653
15471TIP3   OH267827   3.075   0.319  13.660 -0.0706 -0.5710  0.5526
15471TIP3    H167828   3.116   0.386  13.715  0.3723 -0.9663  0.7083
15471TIP3    H267829   3.060   0.363  13.576 -3.2801  0.9255  1.7337
15472TIP3   OH267830   1.132   1.046   2.170 -0.4340 -0.0615  0.2455
15472TIP3    H167831   1.131   0.987   2.246 -0.2212 -1.0471 -0.4974
15472TIP3    H267832   1.046   1.088   2.171  0.0638  1.0216  1.8347
15473TIP3   OH267833   1.085   1.733   4.670 -0.4146  0.2584  0.2980
15473TIP3    H167834   1.075   1.808   4.612 -0.1253  2.0107  2.3678
15473TIP3    H267835   1.178   1.711   4.666 -0.8968 -1.7669 -2.2630
15474TIP3   OH267836   6.507   3.895  11.520  0.3861 -0.0848  0.4515
15474TIP3    H167837   6.535   3.816  11.566 -1.9267 -0.3483  1.5763
15474TIP3    H267838   6.489   3.958  11.590 -2.7752 -0.3512  0.0104
15475TIP3   OH267839   2.117   1.181  14.898  0.3370 -0.6041  0.2325
15475TIP3    H167840   2.084   1.263  14.860  1.4829 -0.3055 -0.1367
15475TIP3    H267841   2.144   1.129  14.823  2.1096 -0.2306  0.5701
15476TIP3   OH267842   3.150   0.718   4.933 -0.1179  0.0913 -0.0371
15476TIP3    H167843   3.201   0.639   4.948 -1.3683 -0.6633  0.3899
15476TIP3    H267844   3.175   0.747   4.846 -0.9443 -1.7935 -0.9473
15477TIP3   OH267845   0.032   4.138   5.850 -0.2249 -0.2429 -0.3388
15477TIP3    H167846  -0.010   4.139   5.935 -0.7119 -0.5717 -0.5727
15477TIP3    H267847   0.118   4.177   5.865 -1.0709  1.6711 -0.0981
15478TIP3   OH267848   2.399   7.000  14.327  0.0311  0.4811 -0.0790
15478TIP3    H167849   2.321   6.999  14.382 -0.2289  0.6899 -0.4422
15478TIP3    H267850   2.468   6.964  14.383 -0.1332  1.0851  0.5258
15479TIP3   OH267851   1.144   4.677  15.051  0.0299 -0.0240 -0.1372
15479TIP3    H167852   1.212   4.714  14.994 -0.2462  3.3055  1.4674
15479TIP3    H267853   1.161   4.716  15.136 -2.2546 -1.3326  1.0019
15480TIP3   OH267854   2.729   2.403   4.113  0.2012  0.1576  0.3123
15480TIP3    H167855   2.686   2.489   4.117 -0.1693 -0.0467  0.9208
15480TIP3    H267856   2.706   2.362   4.196  2.6770  0.5590  1.2821
15481TIP3   OH267857   6.935   5.753   2.638 -0.3706  0.4146 -0.1432
15481TIP3    H167858   6.903   5.788   2.721  0.2531  0.5342  0.0509
15481TIP3    H267859   7.013   5.805   2.618 -0.2623  0.0940 -0.5804
15482TIP3   OH267860   3.122   2.438   3.138 -0.3460 -0.2495  0.2856
15482TIP3    H167861   3.060   2.468   3.205 -1.2904  0.5881 -0.9203
15482TIP3    H267862   3.067   2.406   3.067  0.6389 -0.9404 -0.1885
15483TIP3   OH267863   6.651   6.282  14.001 -0.0953  0.3634  0.6054
15483TIP3    H167864   6.644   6.321  14.088 -0.3268  0.7547  0.4156
15483TIP3    H267865   6.657   6.357  13.942 -0.7758  0.1132  0.2092
15484TIP3   OH267866   3.559   3.360   1.649  0.0831  0.3004  0.2239
15484TIP3    H167867   3.619   3.400   1.586  0.9164  2.2320  2.1182
15484TIP3    H267868   3.472   3.379   1.613  0.5360  1.2432 -0.4323
15485TIP3   OH267869   0.973   3.322  13.517  0.2108 -0.0494 -0.1969
15485TIP3    H167870   1.000   3.265  13.446  3.1093  1.6534 -0.6534
15485TIP3    H267871   0.945   3.403  13.474  0.9950  0.6176  0.4916
15486TIP3   OH267872   4.276   2.150   0.344  0.8749 -0.0726  0.1536
15486TIP3    H167873   4.258   2.075   0.288  2.3921 -0.4466  0.1213
15486TIP3    H267874   4.328   2.115   0.416 -0.1599  0.5940  1.2484
15487TIP3   OH267875   2.270   0.719   4.101 -0.0455  0.3005  0.5939
15487TIP3    H167876   2.189   0.695   4.056  0.8754  0.0436 -1.0065
15487TIP3    H267877   2.279   0.813   4.086  1.0673 -0.0500 -1.2133
15488TIP3   OH267878   3.350   4.174  14.594 -0.3692 -0.2284 -0.2047
15488TIP3    H167879   3.395   4.090  14.591 -3.2258 -1.8853 -0.5142
15488TIP3    H267880   3.259   4.152  14.613 -1.1519  2.8663  0.2420
15489TIP3   OH267881   2.863   3.649   2.263 -0.4174  0.3471 -0.3065
15489TIP3    H167882   2.949   3.621   2.231  0.2708  0.8040  1.0996
15489TIP3    H267883   2.801   3.600   2.209  0.7035  0.4288 -1.7295
15490TIP3   OH267884   6.483   2.769   1.442  0.1831  0.0307  0.1423
15490TIP3    H167885   6.513   2.802   1.526  0.1892  0.2301  0.0618
15490TIP3    H267886   6.464   2.847   1.390 -0.9191 -0.0902  0.3510
15491TIP3   OH267887   3.551   1.229   3.042 -0.1399  0.1949 -0.3819
15491TIP3    H167888   3.562   1.291   2.970 -0.5201  3.2375  1.9953
15491TIP3    H267889   3.460   1.199   3.034  0.6643 -2.0431 -2.8607
15492TIP3   OH267890   2.182   6.074   2.743  0.4702  0.3788  0.0121
15492TIP3    H167891   2.218   6.022   2.671  2.2726  0.6530  0.6833
15492TIP3    H267892   2.181   6.014   2.818 -0.8118  0.2850 -0.0523
15493TIP3   OH267893   2.845   2.712   2.364  0.4660 -0.4485 -0.2574
15493TIP3    H167894   2.885   2.634   2.325  0.9287  0.3327 -1.4176
15493TIP3    H267895   2.763   2.723   2.317  0.1653 -0.5126  0.2492
15494TIP3   OH267896   1.619   4.098  14.036 -0.5170 -0.6024 -0.4177
15494TIP3    H167897   1.577   4.124  14.118 -2.0466 -1.6830 -0.8052
15494TIP3    H267898   1.680   4.169  14.017 -0.5227 -0.0709  1.3632
15495TIP3   OH267899   6.098   5.597   2.881  0.1045 -0.0653  0.4988
15495TIP3    H167900   6.162   5.603   2.952  0.5391  0.7938  0.0490
15495TIP3    H267901   6.070   5.687   2.866 -1.2992 -0.4278  0.7505
15496TIP3   OH267902   4.700   4.086   1.673  0.2547  0.3419 -0.0344
15496TIP3    H167903   4.713   4.103   1.766 -1.6311 -0.8293  0.4762
15496TIP3    H267904   4.674   4.170   1.637  0.4779  0.6831  0.5847
15497TIP3   OH267905   2.344   2.870   0.123 -0.2914 -0.1705  0.7143
15497TIP3    H167906   2.312   2.960   0.126 -0.9282 -0.2428 -1.8581
15497TIP3    H267907   2.275   2.819   0.165 -1.3298  0.2375 -0.4447
15498TIP3   OH267908   3.784   6.675   4.270 -1.0340  0.0098 -0.4853
15498TIP3    H167909   3.863   6.640   4.312 -1.7136  0.0099  0.8339
15498TIP3    H267910   3.814   6.708   4.186  0.8837  2.3052  0.9754
15499TIP3   OH267911   0.043   5.499   0.435  0.3781  0.1539 -0.0502
15499TIP3    H167912   0.122   5.446   0.423  0.4692 -0.1853  1.8079
15499TIP3    H267913   0.061   5.551   0.513 -0.6659  1.1853 -0.4749
15500TIP3   OH267914   5.452   5.568   4.118 -0.0878  0.2437 -0.0462
15500TIP3    H167915   5.471   5.510   4.192  4.6665 -2.5512 -2.9453
15500TIP3    H267916   5.402   5.515   4.057 -1.1907  1.4407 -0.2353
15501TIP3   OH267917   3.550   6.977   1.765  0.0522 -0.6226  0.7034
15501TIP3    H167918   3.559   6.883   1.747 -2.3243 -0.5926 -1.1934
15501TIP3    H267919   3.566   7.019   1.680 -2.0086  0.3856  0.7424
15502TIP3   OH267920   0.932   5.175   1.329 -0.2721  0.8292  0.0814
15502TIP3    H167921   0.903   5.263   1.351 -1.8576  0.2371  0.4386
15502TIP3    H267922   0.989   5.149   1.401  0.3081  1.5954 -0.0910
15503TIP3   OH267923   6.175   4.225  11.496  0.3056 -0.1687 -0.0034
15503TIP3    H167924   6.151   4.299  11.552  1.0950  1.6349 -1.9185
15503TIP3    H267925   6.106   4.222  11.430  1.2832  0.1500 -1.0717
15504TIP3   OH267926   6.271   5.544   5.196  0.2069  0.2902 -0.2330
15504TIP3    H167927   6.364   5.525   5.187  0.7909  1.9023  1.8054
15504TIP3    H267928   6.243   5.495   5.274 -0.5371  0.2391 -0.5192
15505TIP3   OH267929   2.230   7.112   4.749  0.1012  0.8413 -0.3975
15505TIP3    H167930   2.165   7.177   4.776  0.0288  0.5302  0.1937
15505TIP3    H267931   2.218   7.103   4.654 -0.8612  0.6365 -0.2647
15506TIP3   OH267932   1.246   6.288   4.922  0.1028 -0.1739  0.0466
15506TIP3    H167933   1.193   6.364   4.900  1.2839  0.3425 -1.1932
15506TIP3    H267934   1.200   6.214   4.883 -1.3700 -0.2294  1.7688
15507TIP3   OH267935   7.111   4.004   2.939 -0.1062  0.0782  0.2555
15507TIP3    H167936   7.119   3.977   2.848 -0.7140 -0.6617  0.4177
15507TIP3    H267937   7.018   4.020   2.952 -0.3145 -1.6800  1.2558
15508TIP3   OH267938   2.714   0.148   2.489 -0.3669  0.0650 -0.3595
15508TIP3    H167939   2.806   0.141   2.465 -0.5853  3.4557 -2.9672
15508TIP3    H267940   2.667   0.138   2.406 -2.6417 -3.1458  1.0905
15509TIP3   OH267941   5.210   5.837   2.194 -0.1326 -0.2817 -0.4038
15509TIP3    H167942   5.248   5.920   2.166 -0.4324 -0.8376 -2.6630
15509TIP3    H267943   5.128   5.830   2.145 -0.2585 -1.7785 -0.0437
15510TIP3   OH267944   0.603   0.732   4.363 -0.0316 -0.4230 -0.1835
15510TIP3    H167945   0.514   0.761   4.384  0.4264  1.5074 -0.7293
15510TIP3    H267946   0.626   0.781   4.284  1.7127 -0.4763  0.2636
15511TIP3   OH267947   1.920   6.603   3.584 -0.1020  0.1041  0.0681
15511TIP3    H167948   1.954   6.667   3.646  0.4975 -0.4171  0.2854
15511TIP3    H267949   1.838   6.642   3.552  0.1054  0.8393  0.4121
15512TIP3   OH267950   4.958   3.418   5.656 -0.2432  0.0349  0.4260
15512TIP3    H167951   4.941   3.333   5.615  0.1216  0.1780 -0.0383
15512TIP3    H267952   4.891   3.476   5.622  0.0920  0.1667 -0.0170
15513TIP3   OH267953   4.263   2.246   1.429  0.4726  0.1015 -0.0589
15513TIP3    H167954   4.244   2.238   1.335 -1.7674  0.0143  0.3491
15513TIP3    H267955   4.354   2.219   1.437 -0.2518 -3.4627 -1.7438
15514TIP3   OH267956   1.437   6.195   4.112  0.1003 -0.0280 -0.0328
15514TIP3    H167957   1.389   6.157   4.039  1.0006 -0.5680 -0.3561
15514TIP3    H267958   1.478   6.273   4.076  2.3669 -1.4508 -0.7730
15515TIP3   OH267959   0.839   3.759   0.413 -0.4173  0.3800  0.1082
15515TIP3    H167960   0.902   3.806   0.358  0.5378  0.4324  1.2115
15515TIP3    H267961   0.767   3.736   0.354  0.7455  0.1106 -1.2393
15516TIP3   OH267962   3.750   7.177  15.111  0.1479  0.3346  0.1746
15516TIP3    H167963   3.709   7.253  15.070  0.8537  0.1730 -0.8723
15516TIP3    H267964   3.838   7.174  15.073  1.1568  0.6620  2.3198
15517TIP3   OH267965   1.156   3.025   5.958  0.0927  0.6341 -0.6555
15517TIP3    H167966   1.170   2.977   6.040 -0.7296  1.1085 -0.2232
15517TIP3    H267967   1.181   3.115   5.978  0.8174  0.5645 -1.2175
15518TIP3   OH267968   4.279   1.150   1.387  0.4719 -0.0406  0.8949
15518TIP3    H167969   4.250   1.148   1.296  3.3213 -0.4406 -0.0974
15518TIP3    H267970   4.336   1.074   1.396  0.4680  0.1409  2.9439
15519TIP3   OH267971   4.111   6.167   4.389  0.3428  0.6463 -0.3338
15519TIP3    H167972   4.027   6.200   4.359  0.7230  0.5367 -1.5439
15519TIP3    H267973   4.164   6.158   4.310  1.1760 -0.2034  0.2943
15520TIP3   OH267974   1.685   7.172   3.726 -0.0476  0.3298 -0.3544
15520TIP3    H167975   1.604   7.173   3.676  0.2292 -1.2835 -0.9185
15520TIP3    H267976   1.661   7.135   3.810  0.0724 -0.0982 -0.5027
15521TIP3   OH267977   5.073   1.718   3.391 -0.0331  0.3885 -0.2450
15521TIP3    H167978   4.983   1.737   3.417 -0.2361 -0.3491 -0.3866
15521TIP3    H267979   5.090   1.779   3.319 -0.0097  1.3317  0.5332
15522TIP3   OH267980   3.269   6.024   4.293  0.0175 -0.3542 -0.3694
15522TIP3    H167981   3.327   6.096   4.317 -0.8873  0.4821 -0.6183
15522TIP3    H267982   3.261   6.030   4.198 -0.7435 -0.2443 -0.3033
15523TIP3   OH267983   5.300   4.273  13.665 -0.4876  0.1094  0.7913
15523TIP3    H167984   5.265   4.224  13.740 -2.2249  0.1282  0.0601
15523TIP3    H267985   5.297   4.210  13.593  0.7618  0.2211  0.6283
15524TIP3   OH267986   1.152   3.744   3.045 -0.0716  0.0739 -0.1552
15524TIP3    H167987   1.220   3.802   3.010  0.0095 -0.1745 -0.4137
15524TIP3    H267988   1.151   3.763   3.139  0.0814  0.3622 -0.2103
15525TIP3   OH267989   6.094   5.220   4.797 -0.0123 -0.2968 -0.1559
15525TIP3    H167990   6.112   5.287   4.862  0.3635  1.6893 -2.1741
15525TIP3    H267991   6.134   5.141   4.832  2.1427  1.2047  0.9884
15526TIP3   OH267992   6.791   5.345   5.500 -0.3276 -0.1317  0.4316
15526TIP3    H167993   6.816   5.438   5.494 -1.8183  0.2165 -1.5085
15526TIP3    H267994   6.822   5.317   5.586  0.2649  2.1319  1.0203
15527TIP3   OH267995   0.024   6.344   1.596 -0.3891  0.7881 -0.7330
15527TIP3    H167996  -0.002   6.386   1.678 -0.8461  2.3291 -1.6272
15527TIP3    H267997   0.022   6.250   1.616 -0.4078  1.1138  1.0279
15528TIP3   OH267998   1.387   3.506   1.225  0.3841 -0.1369  0.1741
15528TIP3    H167999   1.336   3.530   1.303  1.2415 -0.1001  0.7366
15528TIP3    H268000   1.327   3.452   1.173 -0.5205  0.6346  0.3910
15529TIP3   OH268001   5.637   5.895   2.712  0.4482  0.4692  0.0968
15529TIP3    H168002   5.546   5.916   2.690  0.4141 -0.6172 -0.8852
15529TIP3    H268003   5.641   5.903   2.807 -0.4523  1.3696  0.0786
15530TIP3   OH268004   3.451   0.527   1.898 -0.3312  0.1336 -0.1763
15530TIP3    H168005   3.455   0.618   1.869  1.7268 -0.3478 -1.6245
15530TIP3    H268006   3.538   0.491   1.877 -1.4410 -2.4670 -0.7425
15531TIP3   OH268007   5.055   1.273   1.307 -0.0621  0.0377 -0.7949
15531TIP3    H168008   5.027   1.332   1.377  1.0347  0.2614 -0.5366
15531TIP3    H268009   5.099   1.330   1.244 -0.0708 -0.3321 -1.1397
15532TIP3   OH268010   6.765   1.268   3.256  0.1362 -0.6129 -0.0225
15532TIP3    H168011   6.803   1.349   3.290 -0.3080 -1.1364  1.8905
15532TIP3    H268012   6.676   1.292   3.228  0.0382 -0.4027  0.4601
15533TIP3   OH268013   7.001   0.613   0.234 -0.0246  0.4632  0.3563
15533TIP3    H168014   7.024   0.613   0.328  0.5984  0.4439  0.2100
15533TIP3    H268015   7.052   0.542   0.197 -0.2822  0.4643 -0.0003
15534TIP3   OH268016   1.228   6.151   2.140  0.2192  0.1741 -0.6780
15534TIP3    H168017   1.246   6.103   2.059  0.2815 -3.0129  1.0429
15534TIP3    H268018   1.133   6.144   2.151  0.5010 -2.1843  0.9585
15535TIP3   OH268019   5.103   6.559   4.367  0.4808  0.7905  0.2989
15535TIP3    H168020   5.144   6.627   4.313 -1.8978  1.7033 -0.5057
15535TIP3    H268021   5.097   6.599   4.454  1.1765  0.6739  0.4095
15536TIP3   OH268022   5.534   3.449   0.534 -0.3810 -0.0980  0.4701
15536TIP3    H168023   5.513   3.398   0.612 -0.0675 -0.1973  0.4924
15536TIP3    H268024   5.523   3.540   0.562 -0.4564 -0.1395  0.5767
15537TIP3   OH268025   0.419   0.975   1.539  0.6088  0.3670 -0.0325
15537TIP3    H168026   0.449   0.929   1.461  2.4008 -0.7955  1.2714
15537TIP3    H268027   0.325   0.955   1.543  1.0410 -2.0596 -0.3103
15538TIP3   OH268028   0.795   1.407   0.945 -0.2221  0.1230 -0.7203
15538TIP3    H168029   0.831   1.483   0.989  0.8157 -0.2618 -0.8715
15538TIP3    H268030   0.706   1.399   0.978  0.1151  0.6025  0.3199
15539TIP3   OH268031   0.902   2.148   4.255  0.0885  0.0940 -0.3439
15539TIP3    H168032   0.911   2.104   4.170 -1.4351  0.1786 -0.5696
15539TIP3    H268033   0.975   2.210   4.258  0.3026 -0.0859 -1.4839
15540TIP3   OH268034   4.834   1.515   2.886  0.1519  0.7026 -0.1738
15540TIP3    H168035   4.843   1.498   2.980 -1.5031  1.1834  0.0967
15540TIP3    H268036   4.743   1.543   2.875 -0.1576 -0.8435 -2.1645
15541TIP3   OH268037   0.470   0.718  14.792  0.6975 -0.1487 -0.2606
15541TIP3    H168038   0.491   0.768  14.870 -0.9484  0.3350 -0.0795
15541TIP3    H268039   0.554   0.691  14.757  1.4836 -0.4297  1.7072
15542TIP3   OH268040   4.890   5.355   2.262  0.0417  0.0121  0.3398
15542TIP3    H168041   4.896   5.264   2.232 -0.0166  0.7996 -2.3036
15542TIP3    H268042   4.981   5.382   2.275  0.1412 -0.0720 -0.1402
15543TIP3   OH268043   6.472   4.274   5.436  0.3032 -0.1397 -0.0514
15543TIP3    H168044   6.456   4.359   5.477 -1.3165 -0.3167 -0.2537
15543TIP3    H268045   6.510   4.221   5.506 -3.4538 -0.8000  1.7606
15544TIP3   OH268046   2.479   5.370  15.135 -0.8670  0.4924 -0.2087
15544TIP3    H168047   2.555   5.375  15.192 -1.2030 -0.1246  0.3012
15544TIP3    H268048   2.514   5.384  15.047 -0.1241 -0.0593 -0.0052
15545TIP3   OH268049   1.853   2.467   3.609  0.4648 -0.3705 -0.5370
15545TIP3    H168050   1.943   2.483   3.583  0.9994  0.0623  1.4101
15545TIP3    H268051   1.833   2.380   3.574  2.0515 -0.9830 -0.0375
15546TIP3   OH268052   5.777   7.036   3.149 -0.1558 -0.2533  0.2266
15546TIP3    H168053   5.818   6.989   3.076  1.0815  0.3925  0.4768
15546TIP3    H268054   5.707   7.087   3.108 -0.1008 -0.6357 -0.3615
15547TIP3   OH268055   3.845   0.918   4.697 -0.4765 -0.0642 -0.2439
15547TIP3    H168056   3.780   0.968   4.647 -0.9349 -0.2191  0.1872
15547TIP3    H268057   3.864   0.974   4.773  2.9789  1.9665 -2.2829
15548TIP3   OH268058   5.009   4.708   2.965  0.2998 -0.4835 -0.0122
15548TIP3    H168059   4.980   4.618   2.979 -1.4099  0.0504  0.1339
15548TIP3    H268060   5.023   4.743   3.053  1.2887 -0.6863 -0.0770
15549TIP3   OH268061   4.365   5.719   1.492  0.5826  1.2074  0.5884
15549TIP3    H168062   4.290   5.716   1.433  0.0183  0.3118  1.3356
15549TIP3    H268063   4.384   5.813   1.501 -1.1025  1.5247  1.2238
15550TIP3   OH268064   1.793   2.305   3.239  0.6234 -0.0437  0.4529
15550TIP3    H168065   1.850   2.311   3.162 -0.3032  0.0383 -0.2486
15550TIP3    H268066   1.712   2.349   3.212  1.3636  2.8508  2.5650
15551TIP3   OH268067   6.833   7.146   2.363  0.3076 -0.2946  0.0913
15551TIP3    H168068   6.852   7.128   2.455  0.3519 -1.6691 -0.1756
15551TIP3    H268069   6.837   7.242   2.356 -0.4085 -0.1262  1.6635
15552TIP3   OH268070   5.136   5.581   3.309 -0.4199 -0.0217  0.5160
15552TIP3    H168071   5.217   5.631   3.299  0.0104 -0.5900  1.0649
15552TIP3    H268072   5.143   5.542   3.396 -2.1481  1.4492  1.3650
15553TIP3   OH268073   0.832   5.265   3.548  0.0038  0.0945  0.1043
15553TIP3    H168074   0.861   5.329   3.613  0.8053 -0.3915  0.2346
15553TIP3    H268075   0.763   5.311   3.499 -0.4300  0.5566  1.1136
15554TIP3   OH268076   3.944   4.786   4.922  0.6119  0.5263 -0.0212
15554TIP3    H168077   3.868   4.821   4.875  0.0115 -0.1571  0.4025
15554TIP3    H268078   3.960   4.701   4.882 -0.7265 -0.6524  1.7902
15555TIP3   OH268079   1.385   2.144  14.443  0.6160 -0.5050  0.0195
15555TIP3    H168080   1.354   2.095  14.367 -1.5418  1.1442 -0.2731
15555TIP3    H268081   1.439   2.214  14.407 -1.1907  0.8653 -0.1819
15556TIP3   OH268082   5.436   1.090  15.017  0.0336  0.4183 -0.1315
15556TIP3    H168083   5.437   0.995  15.025 -0.2278  0.4014 -0.2913
15556TIP3    H268084   5.529   1.116  15.018  0.1440  0.0849 -1.0074
15557TIP3   OH268085   1.030   1.896   9.782 -0.2920 -0.2266  0.3046
15557TIP3    H168086   0.977   1.955   9.728  0.5636  1.7504  1.5197
15557TIP3    H268087   1.117   1.935   9.781  0.3761 -1.6435  0.9570
15558TIP3   OH268088   2.105   2.553   3.851  0.1301  0.0374  0.0886
15558TIP3    H168089   2.026   2.519   3.894  1.7629 -0.7164  2.7154
15558TIP3    H268090   2.075   2.628   3.800 -2.3194 -0.4455  0.7108
15559TIP3   OH268091   2.948   5.637   1.020  0.1144  0.0012 -0.2442
15559TIP3    H168092   2.990   5.704   0.966  2.4837 -1.8846 -0.8834
15559TIP3    H268093   3.021   5.590   1.061 -1.4611 -2.2016  0.1873
15560TIP3   OH268094   6.116   1.739  12.903  0.1339  0.3477 -0.2071
15560TIP3    H168095   6.058   1.669  12.874  0.1695  0.2335 -0.0043
15560TIP3    H268096   6.201   1.697  12.912 -0.0027  0.2362  0.6547
15561TIP3   OH268097   1.881   1.994   1.781 -0.2258 -0.1612 -0.8018
15561TIP3    H168098   1.921   1.958   1.701 -0.2830  0.9761 -1.3562
15561TIP3    H268099   1.950   2.046   1.821 -0.5746  0.2919 -0.7803
15562TIP3   OH268100   4.406   1.178  13.061 -0.3271 -0.3922  0.3426
15562TIP3    H168101   4.456   1.241  13.112 -0.3465  0.8824 -1.1306
15562TIP3    H268102   4.327   1.226  13.034 -1.6403 -1.8819  1.3477
15563TIP3   OH268103   0.222   4.312   3.845  0.2185 -0.1921 -0.6126
15563TIP3    H168104   0.133   4.281   3.828  0.0638 -0.9544  1.3137
15563TIP3    H268105   0.278   4.240   3.816  0.1608 -0.0509 -1.0764
15564TIP3   OH268106   1.280   2.916   2.640  0.1673 -0.0391 -0.1021
15564TIP3    H168107   1.215   2.925   2.710  1.2045 -0.5454  0.9536
15564TIP3    H268108   1.287   2.821   2.627  1.2634 -0.0365  0.3619
15565TIP3   OH268109   6.420   5.847  15.009  0.4175  0.0580 -0.4007
15565TIP3    H168110   6.348   5.845  15.073  0.5867 -2.5927 -0.1817
15565TIP3    H268111   6.418   5.936  14.974 -1.2749  0.8557  1.4992
15566TIP3   OH268112   2.454   3.357   4.544 -0.0311  0.2828  0.0505
15566TIP3    H168113   2.421   3.444   4.566  1.7127  0.5418  1.9402
15566TIP3    H268114   2.402   3.296   4.596  0.7809  0.4848  1.1274
15567TIP3   OH268115   3.841   2.465   1.258 -0.2945  0.7550  0.5208
15567TIP3    H168116   3.860   2.381   1.215 -2.6283  0.7574 -0.7422
15567TIP3    H268117   3.823   2.442   1.349 -1.6664 -0.2852  0.0270
15568TIP3   OH268118   2.190   3.195   3.601  0.1875  0.0530 -0.0655
15568TIP3    H168119   2.226   3.166   3.685  0.9133 -1.5518 -0.8815
15568TIP3    H268120   2.095   3.189   3.611  0.2692 -0.0973  0.6419
15569TIP3   OH268121   4.833   1.843   2.796 -0.2595 -0.1497 -0.1310
15569TIP3    H168122   4.850   1.936   2.780  0.5822 -0.4244 -0.9055
15569TIP3    H268123   4.799   1.840   2.885 -0.9146  0.9669 -0.3187
15570TIP3   OH268124   0.743   2.852   3.966  0.2053 -0.3069  0.3913
15570TIP3    H168125   0.747   2.772   4.019 -0.3776 -1.0518 -0.6276
15570TIP3    H268126   0.763   2.923   4.026  2.1721 -1.3302  1.0528
15571TIP3   OH268127   3.997   3.251   2.318 -0.1360 -1.0726 -0.0730
15571TIP3    H168128   4.006   3.195   2.396  1.9473 -0.6888  0.0176
15571TIP3    H268129   3.947   3.326   2.349 -0.3081 -1.4519  0.6025
15572TIP3   OH268130   7.188   5.159  12.942 -0.2189  0.2632  0.2036
15572TIP3    H168131   7.108   5.198  12.908  0.6168  0.2949 -1.8239
15572TIP3    H268132   7.210   5.090  12.880  1.6664  0.6598  0.3624
15573TIP3   OH268133   4.065   3.424   1.578 -0.4615  0.2508  0.0562
15573TIP3    H168134   4.012   3.354   1.616  0.8726 -1.1499 -0.5974
15573TIP3    H268135   4.001   3.486   1.543 -1.7156 -1.5181 -0.9514
15574TIP3   OH268136   7.031   5.553   5.120 -0.9743 -0.1875 -0.3971
15574TIP3    H168137   7.055   5.555   5.027  0.6438 -0.6587 -0.0193
15574TIP3    H268138   7.080   5.480   5.156 -1.6889 -0.0982  0.8273
15575TIP3   OH268139   3.192   6.174  13.452  0.6174  0.6039  0.2097
15575TIP3    H168140   3.098   6.195  13.457  0.7906  1.5472 -0.2969
15575TIP3    H268141   3.208   6.119  13.529  0.0538  2.0918  1.4660
15576TIP3   OH268142   4.991   2.241  11.444  0.4782 -0.5652 -0.0844
15576TIP3    H168143   4.967   2.183  11.516  2.1348 -1.5520 -0.2565
15576TIP3    H268144   5.070   2.286  11.475 -0.1706  0.8122 -0.3710
15577TIP3   OH268145   6.122   5.860   1.389 -0.1154 -0.3112 -0.0921
15577TIP3    H168146   6.069   5.916   1.445 -0.6975  0.9633 -1.8173
15577TIP3    H268147   6.158   5.920   1.323 -0.9733 -1.9759 -2.1632
15578TIP3   OH268148   3.077   3.649   2.759 -0.0842  0.3358 -0.5453
15578TIP3    H168149   3.115   3.737   2.757 -0.1015  0.3373 -2.1327
15578TIP3    H268150   3.147   3.592   2.727  0.1206 -0.3339  1.0233
15579TIP3   OH268151   1.299   2.207   1.994 -0.2058 -0.0665 -0.5968
15579TIP3    H168152   1.349   2.187   2.073 -0.3636  2.1609  0.1402
15579TIP3    H268153   1.207   2.202   2.022 -0.3267 -1.0434 -1.1290
15580TIP3   OH268154   6.328   7.119  13.007 -0.6005  0.2093  0.1802
15580TIP3    H168155   6.330   7.182  13.079 -0.6910 -0.2745  0.6167
15580TIP3    H268156   6.257   7.149  12.950 -0.1467  0.9252 -0.0203
15581TIP3   OH268157   2.648   3.436   3.590 -0.5441 -0.2211  0.1434
15581TIP3    H168158   2.638   3.425   3.684  2.0228  0.3934  0.5739
15581TIP3    H268159   2.715   3.504   3.581 -0.5940 -0.4045 -2.1183
15582TIP3   OH268160   1.048   5.140  13.732  0.5041 -0.0151 -0.2675
15582TIP3    H168161   0.960   5.125  13.765  0.7452  0.1856  0.4750
15582TIP3    H268162   1.106   5.112  13.803  1.0135  1.6916  0.0262
15583TIP3   OH268163   1.414   3.721   2.272  0.2331 -0.3705 -0.3613
15583TIP3    H168164   1.387   3.786   2.337  2.5515 -0.1611  0.4759
15583TIP3    H268165   1.467   3.770   2.209  0.8222 -1.1861 -0.5141
15584TIP3   OH268166   4.567   6.355   1.176 -0.1153  1.0159  0.1173
15584TIP3    H168167   4.607   6.380   1.093  0.7021 -2.1529 -0.6024
15584TIP3    H268168   4.642   6.334   1.232 -0.6912  1.4630  1.0679
15585TIP3   OH268169   5.995   0.964  13.831  0.2695 -0.6333 -0.2613
15585TIP3    H168170   6.024   0.918  13.753 -1.9892 -0.3407 -1.3549
15585TIP3    H268171   6.065   0.951  13.894  1.6814 -1.7826 -1.9799
15586TIP3   OH268172   2.976   2.003  12.957  0.4664 -0.5850 -0.1482
15586TIP3    H168173   2.974   2.065  12.884  0.8836 -0.5505 -0.1303
15586TIP3    H268174   2.981   1.917  12.915 -1.2478 -0.6907 -0.2039
15587TIP3   OH268175   2.921   6.504  13.256 -0.2771 -0.6531 -0.1105
15587TIP3    H168176   2.948   6.427  13.306  2.3293  0.8383  0.9691
15587TIP3    H268177   2.946   6.578  13.311 -0.9374  1.0118 -1.9519
15588TIP3   OH268178   4.576   6.484   2.175  0.1650 -0.5377 -0.7032
15588TIP3    H168179   4.500   6.481   2.235  0.0483 -2.5060 -0.8828
15588TIP3    H268180   4.650   6.461   2.231 -0.0172 -2.9436 -1.3221
15589TIP3   OH268181   0.871   3.430   0.605 -0.0497  0.0735  0.5129
15589TIP3    H168182   0.953   3.460   0.565 -0.0570  3.0130  2.3865
15589TIP3    H268183   0.888   3.433   0.699 -2.1431  0.3252  0.9383
15590TIP3   OH268184   1.977   6.799   2.539  0.1252 -0.0444  0.4751
15590TIP3    H168185   1.970   6.712   2.501  0.1868  0.1858 -0.0708
15590TIP3    H268186   2.051   6.793   2.599  1.1598  0.0577 -0.7573
15591TIP3   OH268187   7.182   0.814   2.966 -1.4162 -0.1668 -0.0013
15591TIP3    H168188   7.174   0.839   3.058 -1.9111 -0.9312  0.1714
15591TIP3    H268189   7.138   0.729   2.960 -1.0203 -0.3261 -0.8574
15592TIP3   OH268190   7.122   3.969   1.865  0.3097  1.0987 -0.0251
15592TIP3    H168191   7.115   4.059   1.833 -0.6813  0.9770 -0.1720
15592TIP3    H268192   7.106   3.914   1.788  0.3657  0.7953  0.1750
15593TIP3   OH268193   5.082   1.508   1.823  0.3701 -0.0429 -0.3081
15593TIP3    H168194   5.012   1.482   1.883 -0.1551 -1.3782 -1.4415
15593TIP3    H268195   5.064   1.601   1.804 -0.0032  0.1329  0.8302
15594TIP3   OH268196   1.791   1.552   1.942 -0.3172  0.1459  0.0646
15594TIP3    H168197   1.851   1.622   1.966 -3.2776  2.0730  2.5803
15594TIP3    H268198   1.739   1.587   1.870 -1.5844  0.5085  1.1079
15595TIP3   OH268199   3.130   6.228   1.630  0.3567 -0.4817  0.0412
15595TIP3    H168200   3.150   6.228   1.724 -0.1886 -1.1634  0.1715
15595TIP3    H268201   3.131   6.135   1.606  1.9863 -0.2325 -0.9723
15596TIP3   OH268202   3.123   3.233   4.199 -0.7475  0.0143 -0.8984
15596TIP3    H168203   3.161   3.179   4.129 -0.7123  0.9737 -1.6350
15596TIP3    H268204   3.183   3.307   4.207 -0.0193 -0.7385  1.0881
15597TIP3   OH268205   3.639   5.294   3.436 -0.4269 -0.3299 -0.1518
15597TIP3    H168206   3.633   5.284   3.341  1.2114 -0.3751 -0.2748
15597TIP3    H268207   3.589   5.220   3.471  0.0599 -1.0723 -0.9851
15598TIP3   OH268208   1.235   5.664   1.697  0.2093 -0.8262 -0.4025
15598TIP3    H168209   1.153   5.668   1.746 -0.5232 -0.1415 -1.6280
15598TIP3    H268210   1.225   5.588   1.639  0.0057 -0.1703 -1.2542
15599TIP3   OH268211   5.711   6.447  14.709  0.3090  0.2417  0.4851
15599TIP3    H168212   5.783   6.476  14.654 -1.0585  1.1491 -0.9154
15599TIP3    H268213   5.698   6.355  14.687 -0.8193  0.8163 -1.5013
15600TIP3   OH268214   3.951   4.532   3.901  0.1187 -0.0202  0.2636
15600TIP3    H168215   3.901   4.510   3.980 -0.9060  2.0042  0.2596
15600TIP3    H268216   3.889   4.581   3.846  1.9303  2.3136  0.1006
15601TIP3   OH268217   4.283   6.294  12.140 -0.6171  0.1455 -0.1323
15601TIP3    H168218   4.307   6.306  12.049 -0.1159 -0.1039 -0.0391
15601TIP3    H268219   4.346   6.229  12.173 -0.7553  0.2742  0.3984
15602TIP3   OH268220   5.263   6.751   2.097 -0.0960  0.2504 -0.2009
15602TIP3    H168221   5.300   6.665   2.073  1.2381  0.3812  1.2630
15602TIP3    H268222   5.336   6.812   2.086  0.4023  0.4535  3.1283
15603TIP3   OH268223   0.490   6.854   2.203 -0.3613  0.2969  0.1572
15603TIP3    H168224   0.449   6.775   2.240  0.4993 -2.1910 -3.6169
15603TIP3    H268225   0.418   6.902   2.162 -0.3766 -1.2922 -1.8569
15604TIP3   OH268226   5.301   5.916   5.766 -0.2673  0.0503  0.3070
15604TIP3    H168227   5.213   5.881   5.752 -0.4516  1.2863 -2.1061
15604TIP3    H268228   5.301   6.000   5.720  1.3974  1.3478  2.4842
15605TIP3   OH268229   2.057   2.902   4.568  0.5789 -0.6616  0.2846
15605TIP3    H168230   2.118   2.856   4.626  1.9244 -0.9375 -1.2791
15605TIP3    H268231   1.985   2.840   4.556  0.2949 -0.6151  1.6010
15606TIP3   OH268232   1.520   0.370   5.392 -0.0414  0.0935 -0.2001
15606TIP3    H168233   1.610   0.383   5.362 -0.1289  0.3751 -0.3424
15606TIP3    H268234   1.526   0.299   5.455  0.2075 -0.2301 -0.5789
15607TIP3   OH268235   2.511   5.074   5.069  0.4549  0.8806  0.6838
15607TIP3    H168236   2.581   5.106   5.014 -1.2583  1.3790 -1.3416
15607TIP3    H268237   2.435   5.129   5.047 -0.8493 -0.2826  1.9993
15608TIP3   OH268238   4.142   4.594  13.649 -0.2949 -0.2224 -0.6712
15608TIP3    H168239   4.121   4.631  13.563  0.4407 -0.0018 -0.7661
15608TIP3    H268240   4.203   4.523  13.629  0.8370  0.5990 -0.2598
15609TIP3   OH268241   1.454   1.675   5.529  0.4512 -0.1817  0.4828
15609TIP3    H168242   1.367   1.637   5.515  0.7641 -0.9582  0.5792
15609TIP3    H268243   1.515   1.605   5.504  1.1233  1.1713 -2.0837
15610TIP3   OH268244   4.769   2.945   3.198 -0.3816 -0.3549 -0.0034
15610TIP3    H168245   4.689   2.993   3.175  0.8524  1.5694 -0.5158
15610TIP3    H268246   4.812   2.929   3.114  0.6532  0.3025  0.3751
15611TIP3   OH268247   5.444   0.308   3.830  0.2123 -0.7759  0.2716
15611TIP3    H168248   5.370   0.312   3.890 -0.0097 -1.8344  0.0874
15611TIP3    H268249   5.506   0.250   3.872  0.8745 -0.0322  0.3426
15612TIP3   OH268250   5.931   1.070   5.286 -0.2164  0.2987  0.2095
15612TIP3    H168251   5.859   1.133   5.291 -1.3044 -0.8933 -0.0427
15612TIP3    H268252   5.911   1.006   5.354  0.9393  0.2735  0.5431
15613TIP3   OH268253   6.968   3.085   1.081  0.3053 -0.1611 -0.1538
15613TIP3    H168254   6.956   3.180   1.074 -0.4721 -0.3040 -0.9318
15613TIP3    H268255   6.896   3.056   1.136  1.2809 -0.1618  1.1785
15614TIP3   OH268256   5.952   5.769   2.340 -0.2054 -0.8147 -0.4582
15614TIP3    H168257   5.863   5.767   2.375  0.0779 -2.2253  0.2568
15614TIP3    H268258   6.003   5.715   2.400  0.9999 -0.5992 -1.2421
15615TIP3   OH268259   2.773   1.224   2.159 -0.1399  0.3610 -0.3643
15615TIP3    H168260   2.727   1.176   2.091 -0.8337 -1.4608  1.2724
15615TIP3    H268261   2.711   1.289   2.190  0.0196  0.8934 -1.1495
15616TIP3   OH268262   6.064   2.949  11.210 -0.3520 -0.4543  0.3557
15616TIP3    H168263   5.970   2.952  11.195 -0.3283 -0.1510  0.2516
15616TIP3    H268264   6.078   3.009  11.283 -0.3375 -1.1165  0.8999
15617TIP3   OH268265   0.615   4.652  12.880  0.5328 -0.1687  0.0035
15617TIP3    H168266   0.629   4.605  12.962  0.2147 -0.2438  0.0170
15617TIP3    H268267   0.647   4.592  12.813 -0.8450 -0.8638 -0.0645
15618TIP3   OH268268   2.399   6.557  11.249 -0.0864 -0.0397  0.1992
15618TIP3    H168269   2.377   6.464  11.248 -0.3349 -0.0161 -2.2611
15618TIP3    H268270   2.399   6.580  11.342 -3.6457 -1.6564  0.7940
15619TIP3   OH268271   0.120   6.566  14.981  0.1330  0.2225 -0.1562
15619TIP3    H168272   0.038   6.567  14.933  0.2746 -3.1554 -0.6827
15619TIP3    H268273   0.146   6.658  14.985 -1.4744  1.0168 -3.7730
15620TIP3   OH268274   2.808   4.441   3.919 -0.2653  0.0168  0.1735
15620TIP3    H168275   2.892   4.482   3.900  0.1429 -0.5408  0.7114
15620TIP3    H268276   2.812   4.420   4.012 -0.0996 -1.9617 -0.2179
15621TIP3   OH268277   0.136   0.523   0.352 -0.1587  0.4805  0.0985
15621TIP3    H168278   0.080   0.464   0.302 -0.1123  0.3442  0.2057
15621TIP3    H268279   0.187   0.570   0.286  0.7888 -0.5722  0.0450
15622TIP3   OH268280   5.582   4.732   4.936 -0.8385 -0.4926 -0.5104
15622TIP3    H168281   5.665   4.687   4.921 -0.1713  0.7869 -0.7769
15622TIP3    H268282   5.517   4.680   4.888 -0.1146 -1.2175 -0.7228
15623TIP3   OH268283   6.567   0.903   0.486 -0.0631 -0.0666  0.4168
15623TIP3    H168284   6.656   0.933   0.508 -0.6225  1.4068  0.8051
15623TIP3    H268285   6.520   0.904   0.569 -0.5360 -0.4850  0.1556
15624TIP3   OH268286   4.429   5.908   4.524 -0.6486  0.4573  0.1549
15624TIP3    H168287   4.335   5.894   4.537 -0.9377  1.8041 -0.3317
15624TIP3    H268288   4.449   5.986   4.574 -0.1499  1.1518 -1.0743
15625TIP3   OH268289   3.554   4.372   0.129 -0.1406  0.1329  0.2520
15625TIP3    H168290   3.583   4.281   0.140 -0.5155  0.1739  1.8932
15625TIP3    H268291   3.468   4.364   0.086  1.0433 -0.1014 -2.2484
15626TIP3   OH268292   2.691   1.172   0.013 -0.6826 -0.1141  0.1358
15626TIP3    H168293   2.630   1.125   0.070  1.0612 -0.1365  2.1022
15626TIP3    H268294   2.732   1.103  -0.039  0.2212 -0.5568  1.3863
15627TIP3   OH268295   5.419   4.771   2.570  0.2698  0.1570  0.6395
15627TIP3    H168296   5.405   4.740   2.659  1.3358 -1.6596  0.2482
15627TIP3    H268297   5.514   4.778   2.562  0.1515  1.0763 -0.1178
15628TIP3   OH268298   6.656   5.546  13.616 -0.1049 -0.2687  0.0277
15628TIP3    H168299   6.584   5.506  13.666 -0.7676  0.3427 -0.4007
15628TIP3    H268300   6.715   5.580  13.683 -0.6526 -0.0366  0.4090
15629TIP3   OH268301   1.490   3.303   5.753  0.4346  0.4580  0.2789
15629TIP3    H168302   1.544   3.230   5.782  0.1103  0.4166  0.7954
15629TIP3    H268303   1.554   3.372   5.730  0.7813 -0.3531 -1.3024
15630TIP3   OH268304   5.528   2.704   1.166  0.2354  0.1635  0.4707
15630TIP3    H168305   5.577   2.629   1.199 -0.1713 -0.0548  0.5813
15630TIP3    H268306   5.444   2.701   1.213 -0.6778 -0.6096 -1.1350
15631TIP3   OH268307   1.109   1.414   1.708  0.0644  0.1481 -0.4232
15631TIP3    H168308   1.071   1.389   1.624  0.3056 -1.1095 -0.1750
15631TIP3    H268309   1.079   1.347   1.769  1.8599 -0.3437 -0.0189
15632TIP3   OH268310   6.355   5.275   2.218 -0.6132 -0.1201 -0.2594
15632TIP3    H168311   6.304   5.207   2.175  1.1339  0.2762 -3.2086
15632TIP3    H268312   6.434   5.283   2.165  0.3278  2.5862  1.3535
15633TIP3   OH268313   3.025   5.776   4.163  0.0883  0.1004 -0.1881
15633TIP3    H168314   2.955   5.752   4.103  0.6731 -0.7886 -0.5439
15633TIP3    H268315   2.996   5.745   4.248  0.2397 -0.7082 -0.4168
15634TIP3   OH268316   0.617   3.444   2.935 -0.1356 -0.7351 -0.3082
15634TIP3    H168317   0.611   3.534   2.966 -0.4189 -1.1356  0.8243
15634TIP3    H268318   0.644   3.452   2.843 -1.5092  0.5370 -0.6321
15635TIP3   OH268319   4.796   4.200   2.731  0.0525  0.4867  0.1185
15635TIP3    H168320   4.830   4.121   2.773  1.0152  0.0286 -1.4414
15635TIP3    H268321   4.706   4.208   2.763  0.7036  0.1545  2.1880
15636TIP3   OH268322   5.888   4.354   2.518 -0.7462 -0.2818 -0.1484
15636TIP3    H168323   5.968   4.379   2.564 -0.1553 -1.0924 -0.6942
15636TIP3    H268324   5.919   4.324   2.433 -1.7570  0.5426 -0.8234
15637TIP3   OH268325   6.537   3.691  13.942 -0.0113 -0.4920  0.1640
15637TIP3    H168326   6.632   3.694  13.938 -0.0330  0.4270  0.2214
15637TIP3    H268327   6.507   3.742  13.867 -0.4662 -0.9868 -0.0027
15638TIP3   OH268328   3.518   5.576  12.738 -0.0198  0.0402  0.0479
15638TIP3    H168329   3.491   5.668  12.734  2.2459  0.7351 -1.2049
15638TIP3    H268330   3.505   5.544  12.649 -0.5012 -0.7835  0.4056
15639TIP3   OH268331   1.844   0.057   0.117 -0.2750  0.2982 -0.6027
15639TIP3    H168332   1.769   0.090   0.068 -0.9101 -3.1332 -2.2298
15639TIP3    H268333   1.919   0.073   0.060 -0.0616  1.6456  0.0149
15640TIP3   OH268334   4.461   2.940   1.265  0.1324  0.3187 -0.0101
15640TIP3    H168335   4.470   2.850   1.233 -0.3720  0.2920 -0.0914
15640TIP3    H268336   4.406   2.932   1.343  0.1663  0.5483  0.0389
15641TIP3   OH268337   0.058   4.931   3.233 -0.0001 -0.5220 -0.2990
15641TIP3    H168338   0.135   4.874   3.229 -0.2645 -0.9243  0.1576
15641TIP3    H268339   0.087   5.015   3.197  0.6600 -0.6619 -0.0906
15642TIP3   OH268340   6.901   3.904   1.182  0.2777  0.1376  0.0093
15642TIP3    H168341   6.853   3.987   1.183 -1.1409 -0.5795  2.7254
15642TIP3    H268342   6.958   3.910   1.106  0.4250  3.6873  0.2346
15643TIP3   OH268343   2.834   1.543   2.578  0.1017 -0.2041  0.5469
15643TIP3    H168344   2.809   1.494   2.656  0.0812 -0.4312  0.4001
15643TIP3    H268345   2.878   1.478   2.523  1.8098  0.3885  1.1760
15644TIP3   OH268346   6.103   3.323   4.758  0.5756  0.2200  0.7281
15644TIP3    H168347   6.147   3.244   4.729 -1.0053  0.0719 -1.4575
15644TIP3    H268348   6.112   3.385   4.685 -2.5663  0.2355  0.2296
15645TIP3   OH268349   3.420   3.574   3.293 -0.1952  0.0135 -0.4291
15645TIP3    H168350   3.515   3.579   3.280 -0.1828 -0.3921 -0.5069
15645TIP3    H268351   3.392   3.504   3.235 -0.2147 -1.4602  1.2870
15646TIP3   OH268352   2.341   5.161   2.875 -0.2746 -0.1751 -0.4195
15646TIP3    H168353   2.262   5.147   2.927  0.6840 -1.0297  0.8573
15646TIP3    H268354   2.398   5.214   2.932  0.4393 -0.3497 -0.9593
15647TIP3   OH268355   0.978   4.160   4.583  0.8886  0.3889 -0.5464
15647TIP3    H168356   0.957   4.230   4.645  0.0666  1.2970 -1.7894
15647TIP3    H268357   1.070   4.173   4.561  1.3998 -0.3866  0.9823
15648TIP3   OH268358   4.525   6.407   5.463  0.3067 -0.3455  0.7514
15648TIP3    H168359   4.539   6.327   5.515  1.0553 -1.0159 -0.4336
15648TIP3    H268360   4.440   6.394   5.421  0.6652 -0.7683  0.1456
15649TIP3   OH268361   2.044   5.627  12.472 -0.4244  0.7433 -0.6100
15649TIP3    H168362   2.041   5.535  12.447  0.5302  0.0325  1.6533
15649TIP3    H268363   2.099   5.668  12.404  0.5291 -0.6854 -0.7548
15650TIP3   OH268364   4.640   3.507   4.054 -0.2165  0.2949  0.0796
15650TIP3    H168365   4.728   3.539   4.033  0.2020  0.2696  1.6337
15650TIP3    H268366   4.643   3.414   4.035 -0.2003  0.4546 -0.7312
15651TIP3   OH268367   6.769   4.219   4.070 -0.2023  0.6244  0.0311
15651TIP3    H168368   6.773   4.212   3.975  0.1327  1.8442 -0.0628
15651TIP3    H268369   6.763   4.313   4.087 -0.6737  0.4030  1.2022
15652TIP3   OH268370   0.452   0.303   2.344 -0.0293 -0.3545 -0.4564
15652TIP3    H168371   0.500   0.337   2.419 -0.5679  0.5524 -0.5103
15652TIP3    H268372   0.461   0.370   2.277 -1.3810 -0.1515 -0.4606
15653TIP3   OH268373   2.277   0.230  15.092 -0.4666 -0.2808  0.2431
15653TIP3    H168374   2.183   0.221  15.074 -0.9481  1.3247  1.7194
15653TIP3    H268375   2.281   0.258  15.183  1.4754 -0.5332  0.2621
15654TIP3   OH268376   0.936   2.373   1.105 -0.7703 -0.3463  0.4970
15654TIP3    H168377   0.899   2.332   1.027 -0.0679 -0.9701  0.4726
15654TIP3    H268378   0.942   2.466   1.083  1.2295 -0.7429 -0.9844
15655TIP3   OH268379   1.611   1.209   4.188  0.0231  0.1981  0.1394
15655TIP3    H168380   1.604   1.260   4.107 -1.2945  0.4833  0.4078
15655TIP3    H268381   1.691   1.158   4.177  0.7091  1.3936 -0.6697
15656TIP3   OH268382   6.152   0.753  14.903  0.7994  0.6029  0.3848
15656TIP3    H168383   6.110   0.834  14.875  0.2557 -0.1903 -1.2733
15656TIP3    H268384   6.235   0.780  14.942  0.7435  1.9366 -0.3840
15657TIP3   OH268385   1.011   1.386  14.979  0.2998  0.4670 -0.5254
15657TIP3    H168386   0.930   1.363  14.933 -0.4619 -0.5746  1.2525
15657TIP3    H268387   0.999   1.353  15.068  2.9975 -0.4435 -0.3988
15658TIP3   OH268388   3.776   5.925   4.657 -0.5038 -0.2779  0.0253
15658TIP3    H168389   3.796   5.931   4.751  1.1495  1.1624 -0.3795
15658TIP3    H268390   3.799   5.835   4.634 -0.3729 -0.4769  0.8728
15659TIP3   OH268391   4.071   4.563   4.527 -0.3540  0.4471 -0.2885
15659TIP3    H168392   4.166   4.554   4.518 -0.2254 -0.5362  1.6278
15659TIP3    H268393   4.051   4.650   4.491  1.5388  1.4977  1.0438
15660TIP3   OH268394   1.787   2.365   0.673  0.4407  0.3595  0.1745
15660TIP3    H168395   1.807   2.438   0.613  0.7720 -1.8244 -2.5686
15660TIP3    H268396   1.754   2.296   0.616 -1.6346 -1.0679  2.8878
15661TIP3   OH268397   3.864   6.459   1.257 -0.1497  0.3754  0.4911
15661TIP3    H168398   3.892   6.435   1.345 -1.2590 -1.3523  0.4212
15661TIP3    H268399   3.940   6.440   1.202  0.5088  1.3534  1.0419
15662TIP3   OH268400   0.836   3.184  15.006  0.3944  0.0744 -0.1659
15662TIP3    H168401   0.761   3.234  15.037 -0.2781 -0.8014 -0.3552
15662TIP3    H268402   0.808   3.093  15.009  1.1132 -0.1977 -1.1460
15663TIP3   OH268403   3.205   0.398   5.043 -0.1205  0.1422 -0.2425
15663TIP3    H168404   3.268   0.358   5.103  0.4976  0.7884 -0.4523
15663TIP3    H268405   3.122   0.395   5.091  0.1318 -0.4000  0.1754
15664TIP3   OH268406   4.613   6.840   4.747  0.2114  0.7441 -0.0752
15664TIP3    H168407   4.617   6.818   4.840 -0.7562 -1.1617 -0.4421
15664TIP3    H268408   4.705   6.837   4.719  0.3112 -1.3723  0.2839
15665TIP3   OH268409   6.347   3.211   3.272 -0.4196  0.1825  0.0366
15665TIP3    H168410   6.313   3.135   3.224  0.8930  0.0782 -0.7932
15665TIP3    H268411   6.356   3.279   3.205  1.8985 -0.1090 -0.0387
15666TIP3   OH268412   5.239   5.701   4.399  0.6664  0.1371  0.0644
15666TIP3    H168413   5.189   5.692   4.481  1.0982  0.6387  0.3871
15666TIP3    H268414   5.311   5.760   4.421 -0.1022  1.5649 -1.0879
15667TIP3   OH268415   3.709   3.325   4.332  0.3311 -0.0075 -0.0052
15667TIP3    H168416   3.642   3.284   4.386 -1.7846  0.2050 -2.3079
15667TIP3    H268417   3.721   3.412   4.371 -1.8021  0.4850 -0.3083
15668TIP3   OH268418   0.081   2.567   1.528  0.2329 -0.3252 -0.0025
15668TIP3    H168419   0.038   2.641   1.570  2.2446  1.3247 -0.6657
15668TIP3    H268420   0.104   2.509   1.600  0.7410  0.8744  0.8430
15669TIP3   OH268421   4.628   4.920  12.265 -0.1105 -0.7787 -0.0385
15669TIP3    H168422   4.693   4.967  12.317 -1.4440 -0.3815  1.3412
15669TIP3    H268423   4.646   4.945  12.175  0.6158  0.6324  0.4764
15670TIP3   OH268424   6.757   6.088   2.477 -0.6331  0.4919 -0.1158
15670TIP3    H168425   6.737   6.079   2.570  0.9177  2.9589  0.5584
15670TIP3    H268426   6.831   6.029   2.463 -1.7206 -0.9211 -0.1772
15671TIP3   OH268427   5.461   1.363   3.944 -0.5057  0.1819 -0.6420
15671TIP3    H168428   5.429   1.382   3.856  0.4434  0.5052 -0.9365
15671TIP3    H268429   5.536   1.421   3.955 -0.3421 -0.1768  0.2102
15672TIP3   OH268430   4.820   6.879   1.381 -0.1801 -0.0513 -0.5865
15672TIP3    H168431   4.781   6.943   1.322 -1.3201 -0.9393 -0.8242
15672TIP3    H268432   4.765   6.882   1.460 -0.5479 -1.0571 -0.7857
15673TIP3   OH268433   5.275   0.992  14.410  0.4761  0.5528 -0.5105
15673TIP3    H168434   5.337   0.960  14.476  1.1721  0.8699 -0.9935
15673TIP3    H268435   5.206   1.036  14.460 -0.4452 -1.5615  0.1717
15674TIP3   OH268436   5.078   2.347   4.863 -0.5046  0.2974 -0.0438
15674TIP3    H168437   5.139   2.390   4.802 -0.9349  0.7577 -0.1601
15674TIP3    H268438   5.090   2.394   4.945  0.6290 -0.8203  0.4561
15675TIP3   OH268439   6.117   3.042   4.592  0.4584  0.0848 -0.6147
15675TIP3    H168440   6.208   3.072   4.582  1.3891 -2.2143  0.3020
15675TIP3    H268441   6.096   3.000   4.509 -0.6452  2.5227 -1.6809
15676TIP3   OH268442   3.510   0.549  12.430  0.0634 -0.1300  0.0410
15676TIP3    H168443   3.554   0.486  12.373  0.3560 -0.2184  0.3537
15676TIP3    H268444   3.576   0.616  12.446 -0.0592 -0.0400  0.1693
15677TIP3   OH268445   1.168   3.807  14.416  0.6907  0.1079  0.5473
15677TIP3    H168446   1.166   3.726  14.365  0.5516 -0.1454  0.9518
15677TIP3    H268447   1.118   3.786  14.495  0.6459  0.5932  0.6456
15678TIP3   OH268448   0.393   4.026   1.469  0.0507 -0.0601  0.2270
15678TIP3    H168449   0.437   4.095   1.518 -0.3712  0.5667 -0.2512
15678TIP3    H268450   0.458   3.957   1.461  1.8375  1.7001 -2.3577
15679TIP3   OH268451   2.550   7.005   3.239  0.0832  0.7631  0.4399
15679TIP3    H168452   2.562   6.924   3.190 -1.4165  1.5265 -1.2996
15679TIP3    H268453   2.571   6.981   3.330 -1.1707 -1.8073  0.1513
15680TIP3   OH268454   4.124   7.112   3.478  0.3503  0.1315  0.1644
15680TIP3    H168455   4.127   7.059   3.398  0.0932  1.9722 -1.1198
15680TIP3    H268456   4.123   7.203   3.447  3.9142  1.0787  2.3079
15681TIP3   OH268457   4.529   3.702   1.433  0.4628 -0.6422 -0.2625
15681TIP3    H168458   4.587   3.758   1.382 -0.0503  0.8655  0.7750
15681TIP3    H268459   4.453   3.688   1.375  0.5998 -0.2976 -0.5260
15682TIP3   OH268460   0.384   2.308   3.424  0.4281 -0.5725 -0.9228
15682TIP3    H168461   0.438   2.385   3.404  2.4172 -1.7188 -0.2976
15682TIP3    H268462   0.369   2.313   3.518 -1.6625  0.3608 -1.2572
15683TIP3   OH268463   3.367   3.826   4.910  0.4534 -0.0896 -0.3205
15683TIP3    H168464   3.347   3.803   5.001  0.6043 -0.9971 -0.5041
15683TIP3    H268465   3.294   3.790   4.860 -0.0328  1.1007 -0.4899
15684TIP3   OH268466   5.526   6.965   1.054  0.8948 -0.7659  0.4801
15684TIP3    H168467   5.570   7.011   1.125 -0.6278  0.7724  0.4918
15684TIP3    H268468   5.506   7.033   0.990 -1.3583 -1.3686  0.4539
15685TIP3   OH268469   2.925   2.422   0.018 -0.1732 -0.2895 -0.1191
15685TIP3    H168470   2.918   2.485  -0.054  1.5779  0.6395  0.4666
15685TIP3    H268471   2.912   2.337  -0.023 -1.8025  0.3677 -1.0691
15686TIP3   OH268472   1.593   5.891  13.748  0.4155  0.5398  0.0753
15686TIP3    H168473   1.525   5.957  13.741 -0.6390 -0.6387 -1.5261
15686TIP3    H268474   1.674   5.941  13.762 -0.3894  2.1346 -0.7068
15687TIP3   OH268475   5.441   6.241   2.075  0.1999  0.3967  0.3569
15687TIP3    H168476   5.471   6.162   2.029 -0.1306  0.7881 -0.5537
15687TIP3    H268477   5.521   6.281   2.109  0.1951 -2.0019  3.7318
15688TIP3   OH268478   2.643   4.711   2.888 -0.1193  0.2831 -1.0741
15688TIP3    H168479   2.696   4.635   2.865  1.7170  0.8557  0.9359
15688TIP3    H268480   2.705   4.784   2.890 -1.2699  1.2754 -0.1197
15689TIP3   OH268481   0.147   3.417   4.567 -0.2147 -0.7083  0.5246
15689TIP3    H168482   0.164   3.324   4.578  0.9188 -0.7125 -1.0051
15689TIP3    H268483   0.233   3.459   4.579 -0.3156 -0.0707 -0.7983
15690TIP3   OH268484   4.180   1.684   5.049 -0.0566  0.0191  0.3301
15690TIP3    H168485   4.266   1.669   5.009  0.4540  1.8731  0.6328
15690TIP3    H268486   4.118   1.673   4.977  0.5552  0.0394 -0.2113
15691TIP3   OH268487   2.164   1.091   1.961  0.2454  0.0348 -0.7069
15691TIP3    H168488   2.197   1.093   2.051 -0.6825 -0.3950 -0.3464
15691TIP3    H268489   2.086   1.146   1.962 -2.0314 -2.9829 -0.2810
15692TIP3   OH268490   1.811   4.970   1.585 -0.5088  0.4733  0.0791
15692TIP3    H168491   1.773   4.911   1.520 -1.3566 -0.0523  1.0292
15692TIP3    H268492   1.740   4.987   1.647  0.5693  0.0980  1.4701
15693TIP3   OH268493   0.114   0.677   5.457 -0.3847  0.1441 -0.4539
15693TIP3    H168494   0.143   0.603   5.510 -1.2477  1.0693  1.4018
15693TIP3    H268495   0.027   0.651   5.425 -0.7484  0.3825  0.3130
15694TIP3   OH268496   3.293   1.486   1.421  0.3124  0.0058 -0.2337
15694TIP3    H168497   3.253   1.468   1.336  0.4429 -1.8472  0.0619
15694TIP3    H268498   3.380   1.521   1.399 -0.4511  1.6042 -0.8468
15695TIP3   OH268499   5.936   2.189   4.618  0.5717  0.3118 -0.1260
15695TIP3    H168500   5.894   2.196   4.533  1.3360 -0.8567 -0.6375
15695TIP3    H268501   5.865   2.167   4.679 -0.1788  2.3516 -0.2043
15696TIP3   OH268502   3.631   0.520   4.450  0.1047  0.3574  0.4779
15696TIP3    H168503   3.588   0.497   4.531 -0.5071  0.4365  0.1794
15696TIP3    H268504   3.604   0.452   4.388  1.8387 -0.6274  0.7337
15697TIP3   OH268505   4.206   4.947  14.687 -0.4196 -0.3776 -0.1098
15697TIP3    H168506   4.230   4.879  14.624 -1.7490  0.3000 -1.4263
15697TIP3    H268507   4.259   5.023  14.661 -0.0806 -0.4331  0.3867
15698TIP3   OH268508   1.116   3.172   4.273  0.1276 -0.1722  0.4282
15698TIP3    H168509   1.195   3.226   4.263 -0.4274  0.7480  0.8998
15698TIP3    H268510   1.055   3.207   4.208  0.3942 -1.4710 -0.5702
15699TIP3   OH268511   5.190   0.281   0.508  0.1255  0.1966  0.8273
15699TIP3    H168512   5.209   0.374   0.519 -0.4696  0.6263 -1.2548
15699TIP3    H268513   5.162   0.273   0.417 -1.2020 -1.7969  1.3306
15700TIP3   OH268514   4.314   4.696  12.902 -0.2285 -0.1366 -0.5336
15700TIP3    H168515   4.246   4.641  12.863 -0.2560  0.3922 -1.2667
15700TIP3    H268516   4.303   4.686  12.996 -1.9691  0.6983 -0.6051
15701TIP3   OH268517   0.644   4.404   0.044 -0.6563  0.4208 -0.2855
15701TIP3    H168518   0.662   4.446  -0.040 -0.8948  0.1420 -0.4765
15701TIP3    H268519   0.646   4.476   0.107  0.1911  0.5314 -0.4288
15702TIP3   OH268520   4.573   2.773  14.725  0.2290 -0.0848 -0.1200
15702TIP3    H168521   4.528   2.823  14.793  1.9044 -1.0267  1.7853
15702TIP3    H268522   4.518   2.696  14.713 -0.6326  0.5877 -0.6556
15703TIP3   OH268523   2.625   0.939   3.404  0.8091  0.4789  0.0065
15703TIP3    H168524   2.611   0.970   3.494 -1.5472  0.1436 -0.1774
15703TIP3    H268525   2.680   0.861   3.414  0.5890  0.4486  1.1721
15704TIP3   OH268526   4.824   5.579   4.541 -0.4725  0.1033 -0.4225
15704TIP3    H168527   4.868   5.542   4.465 -0.8293 -0.4471 -0.3652
15704TIP3    H268528   4.885   5.646   4.574  0.8104 -1.3648  0.2889
15705TIP3   OH268529   0.244   2.335  15.174 -0.2772 -0.0776 -0.2249
15705TIP3    H168530   0.205   2.382  15.248  0.1195  0.7340 -0.5245
15705TIP3    H268531   0.312   2.280  15.213 -1.0281 -0.7400  0.1781
15706TIP3   OH268532   5.428   3.098   1.073 -0.2716 -0.7384 -0.1522
15706TIP3    H168533   5.502   3.101   1.013 -1.2780 -0.3881 -1.4366
15706TIP3    H268534   5.398   3.189   1.079 -0.6649 -0.8879  0.2612
15707TIP3   OH268535   2.546   4.014   5.703 -0.6048 -0.3228  0.0355
15707TIP3    H168536   2.504   3.946   5.649 -1.7823  0.7641 -0.4794
15707TIP3    H268537   2.634   3.981   5.719 -1.6974 -2.8410  1.3486
15708TIP3   OH268538   4.366   4.856   2.869  0.1173 -0.7015 -0.1265
15708TIP3    H168539   4.438   4.820   2.816 -0.7563 -0.4342 -1.5703
15708TIP3    H268540   4.294   4.866   2.806 -0.8592 -0.0221  1.0699
15709TIP3   OH268541   2.550   6.795  11.929 -0.7933 -0.3134 -0.2597
15709TIP3    H168542   2.597   6.820  11.850  0.6310 -2.6393 -0.2365
15709TIP3    H268543   2.540   6.876  11.978  0.4558  0.7627 -1.7142
15710TIP3   OH268544   3.223   2.183  14.970 -0.5178  1.1081  0.2801
15710TIP3    H168545   3.160   2.112  14.983 -1.1206  1.0595 -2.2455
15710TIP3    H268546   3.302   2.139  14.938 -1.0703  1.5291 -1.8254
15711TIP3   OH268547   1.647   5.130   3.302  0.3366  0.4663 -0.0850
15711TIP3    H168548   1.562   5.101   3.335  0.2510  0.8926  0.0811
15711TIP3    H268549   1.701   5.143   3.380  1.5082 -2.5476 -0.2778
15712TIP3   OH268550   6.526   6.034   5.526  0.1246 -0.1269 -0.4095
15712TIP3    H168551   6.573   5.953   5.504 -2.2206 -1.4025 -1.0594
15712TIP3    H268552   6.457   6.040   5.460 -0.4986  1.7961  0.3548
15713TIP3   OH268553   0.359   0.161   3.796 -0.4728 -0.0037 -0.0996
15713TIP3    H168554   0.414   0.192   3.867  0.2088 -2.6223  0.6182
15713TIP3    H268555   0.376   0.223   3.724  2.2048  0.2281  0.6105
15714TIP3   OH268556   0.434   2.601   5.211  0.1903  0.0297 -0.2673
15714TIP3    H168557   0.346   2.580   5.239  0.2018  1.2621  0.8034
15714TIP3    H268558   0.485   2.606   5.292  1.1661 -0.3310 -0.8395
15715TIP3   OH268559   4.521   2.193   3.326 -0.0825 -0.2039 -0.5246
15715TIP3    H168560   4.434   2.168   3.355  0.0827  0.1472  0.3257
15715TIP3    H268561   4.509   2.226   3.237 -0.9622  0.6641 -0.1038
15716TIP3   OH268562   3.266   6.200   5.257 -0.5279 -0.1761  0.6811
15716TIP3    H168563   3.253   6.233   5.345 -0.7356  0.7742  0.3049
15716TIP3    H268564   3.181   6.210   5.214 -0.1388  0.4500  0.0319
15717TIP3   OH268565   3.413   4.686  12.510  0.3114 -0.3036  0.0823
15717TIP3    H168566   3.424   4.778  12.485  0.2839 -0.0052  1.1463
15717TIP3    H268567   3.500   4.647  12.501  0.2363 -0.2878 -0.7907
15718TIP3   OH268568   0.889   6.909   4.494  0.4380  0.1899 -0.2679
15718TIP3    H168569   0.958   6.928   4.557  0.5340  2.3426 -0.9072
15718TIP3    H268570   0.820   6.972   4.515 -1.3255 -1.7999  0.2535
15719TIP3   OH268571   0.439   3.410   4.396 -0.3480 -0.0889 -0.2908
15719TIP3    H168572   0.421   3.503   4.387  0.9986  0.0019 -3.0546
15719TIP3    H268573   0.526   3.405   4.434 -1.0749 -0.3103  1.4416
15720TIP3   OH268574   2.519   0.645   3.234  0.2386  0.5560 -0.9934
15720TIP3    H168575   2.569   0.564   3.247  1.1359  0.8115 -2.6210
15720TIP3    H268576   2.542   0.700   3.309  0.3061 -0.3479 -0.3344
15721TIP3   OH268577   0.301   1.640   1.936 -0.1954  0.4814  0.9601
15721TIP3    H168578   0.365   1.583   1.893 -0.0556  2.1195 -1.1923
15721TIP3    H268579   0.290   1.603   2.024  0.8093 -2.0769  0.0991
15722TIP3   OH268580   2.631   7.107   2.863  0.4778  0.9425  0.4084
15722TIP3    H168581   2.571   7.051   2.912  1.1870 -1.3769 -1.1541
15722TIP3    H268582   2.575   7.155   2.802  0.1109 -2.0053 -1.8057
15723TIP3   OH268583   1.065   4.332   2.904  0.1601  0.0383 -0.4993
15723TIP3    H168584   1.086   4.353   2.813 -2.8985  1.6769 -0.9478
15723TIP3    H268585   1.076   4.414   2.951  1.7896 -0.8184  0.6923
15724TIP3   OH268586   1.454   7.112   0.365  0.3406  0.0427 -0.4414
15724TIP3    H168587   1.435   7.032   0.413 -1.5816  0.0929 -1.0257
15724TIP3    H268588   1.526   7.152   0.413 -1.4791  0.1179  2.4755
15725TIP3   OH268589   6.576   7.177   4.127 -0.0898  0.4196  0.4800
15725TIP3    H168590   6.655   7.228   4.107  1.0368 -0.9360  1.2303
15725TIP3    H268591   6.558   7.198   4.219 -0.5188  0.6001  0.3553
15726TIP3   OH268592   1.513   5.411  14.651 -0.3297  0.7131 -0.3820
15726TIP3    H168593   1.438   5.466  14.673 -0.1628  1.9955 -2.7181
15726TIP3    H268594   1.527   5.426  14.558  2.0608 -0.4744 -0.2832
15727TIP3   OH268595   1.547   4.729   4.329 -0.5942 -0.4743  0.0101
15727TIP3    H168596   1.482   4.679   4.280  0.0981 -1.5464  0.1432
15727TIP3    H268597   1.606   4.764   4.262 -0.3847 -0.8621 -0.0102
15728TIP3   OH268598   1.837   5.464   3.740  0.3453 -0.1385  0.2242
15728TIP3    H168599   1.748   5.466   3.704  0.3807  2.2697  0.0783
15728TIP3    H268600   1.856   5.555   3.761  2.4086 -0.7430  1.2393
15729TIP3   OH268601   6.680   2.138  14.148 -0.0560 -0.2389  0.0593
15729TIP3    H168602   6.719   2.106  14.230  0.8284  1.7910  0.4859
15729TIP3    H268603   6.596   2.174  14.174  0.2183  0.3920  0.1034
15730TIP3   OH268604   5.830   4.573  12.409  0.4621  0.3488  0.6991
15730TIP3    H168605   5.874   4.541  12.330  0.7086  1.4473  0.3631
15730TIP3    H268606   5.858   4.514  12.478  0.1555 -0.7053 -0.0540
15731TIP3   OH268607   4.861   3.535  14.060 -0.7465  0.2117 -0.4911
15731TIP3    H168608   4.770   3.560  14.072 -0.8956 -0.3917 -0.3478
15731TIP3    H268609   4.885   3.492  14.141 -0.2519  0.5859 -0.4308
15732TIP3   OH268610   5.386   4.723   4.111  0.3695 -0.7258 -0.1075
15732TIP3    H168611   5.448   4.650   4.111 -0.9944 -1.9502  0.5597
15732TIP3    H268612   5.395   4.762   4.198 -0.2818 -1.3698  0.2611
15733TIP3   OH268613   3.470   3.309   0.189  0.3231  0.6164  0.4151
15733TIP3    H168614   3.375   3.309   0.195  0.2892  2.2205  0.1401
15733TIP3    H268615   3.491   3.231   0.137 -0.8361  0.3373  0.3527
15734TIP3   OH268616   3.960   2.412   5.796  0.2776 -0.4888 -0.0763
15734TIP3    H168617   3.907   2.487   5.824 -1.1145 -1.0903 -0.9579
15734TIP3    H268618   4.034   2.450   5.750 -0.9879  0.3801 -1.4948
15735TIP3   OH268619   2.238   2.322   0.944 -0.0657 -0.1169 -0.6356
15735TIP3    H168620   2.168   2.311   0.879  0.3151  0.4389 -1.1536
15735TIP3    H268621   2.208   2.395   0.998  0.2081  0.2672 -0.9955
15736TIP3   OH268622   6.543   7.108   1.939 -0.2872  0.0807  0.0886
15736TIP3    H168623   6.599   7.067   2.005  3.5729  0.6934 -2.4698
15736TIP3    H268624   6.506   7.034   1.891 -2.6589 -0.3523  2.3466
15737TIP3   OH268625   3.503   5.358  14.496 -0.8400 -0.0429 -0.3417
15737TIP3    H168626   3.415   5.345  14.459 -1.1702  0.6678  0.1754
15737TIP3    H268627   3.518   5.279  14.549 -0.2153 -1.2492 -2.2110
15738TIP3   OH268628   4.680   2.820   4.578 -0.1666  0.1075  0.9843
15738TIP3    H168629   4.769   2.811   4.546 -1.0477 -1.3026 -1.2993
15738TIP3    H268630   4.625   2.804   4.502 -2.4554  4.7862  1.2680
15739TIP3   OH268631   2.131   0.706  11.633  0.2681  0.2442  0.4932
15739TIP3    H168632   2.084   0.789  11.643 -0.3323 -0.1731  1.2631
15739TIP3    H268633   2.088   0.664  11.558  1.7364  1.3595 -1.0770
15740TIP3   OH268634   2.087   4.346   5.261 -0.2414  0.1539  0.2499
15740TIP3    H168635   2.057   4.327   5.350  0.5078 -0.8932  0.2990
15740TIP3    H268636   2.009   4.335   5.206 -0.4060 -0.5617  0.6160
15741TIP3   OH268637   5.406   0.857   1.302 -0.4938 -0.4699  0.1701
15741TIP3    H168638   5.321   0.833   1.265  0.7102 -0.5950 -2.8411
15741TIP3    H268639   5.417   0.949   1.280  0.4390 -0.6500 -0.1987
15742TIP3   OH268640   5.782   3.974  14.564  0.3324  0.0973  0.1418
15742TIP3    H168641   5.689   3.951  14.555 -0.2340  2.5226 -0.9675
15742TIP3    H268642   5.827   3.890  14.571 -1.9449 -1.1447  0.8014
15743TIP3   OH268643   3.989   6.070  13.405 -0.5682  0.7449 -0.4193
15743TIP3    H168644   4.007   6.158  13.439 -0.0430  0.0675  1.1420
15743TIP3    H268645   3.935   6.029  13.472  1.3294 -0.9787  0.1502
15744TIP3   OH268646   2.901   5.613   2.881 -0.7562 -0.2231  0.0946
15744TIP3    H168647   2.817   5.629   2.926  0.0382  0.7620  1.3027
15744TIP3    H268648   2.948   5.695   2.890  0.3374 -0.7622 -0.5973
15745TIP3   OH268649   1.627   6.915   4.802 -0.5180  0.2081  0.0551
15745TIP3    H168650   1.713   6.933   4.839 -0.6629  0.3464  0.3299
15745TIP3    H268651   1.566   6.927   4.875 -0.6788 -0.9064  0.1281
15746TIP3   OH268652   2.483   6.703  14.001 -0.0968  0.0086  0.4706
15746TIP3    H168653   2.543   6.768  13.965 -0.9618 -0.1867 -1.4639
15746TIP3    H268654   2.402   6.751  14.018 -1.1005 -0.6435 -1.9733
15747TIP3   OH268655   7.054   0.696   4.159 -0.0098 -0.1958 -0.1346
15747TIP3    H168656   7.017   0.621   4.112 -1.4317  1.1445 -1.2508
15747TIP3    H268657   6.989   0.716   4.227  0.4253 -0.0475  0.2396
15748TIP3   OH268658   5.761   7.042   2.043  0.0048  0.5643  0.2301
15748TIP3    H168659   5.820   7.080   1.979  0.2828  0.4283  0.4058
15748TIP3    H268660   5.729   6.962   2.002  2.0257 -0.8022  1.1867
15749TIP3   OH268661   0.856   5.100   4.511  0.1752 -0.3297 -0.3313
15749TIP3    H168662   0.832   5.131   4.599 -0.1746  0.6564 -0.7561
15749TIP3    H268663   0.913   5.169   4.477 -1.1077  0.1761 -1.5392
15750TIP3   OH268664   1.267   0.481   4.431 -0.1782 -0.8235  0.1338
15750TIP3    H168665   1.335   0.539   4.465 -1.0979  0.0643  0.5111
15750TIP3    H268666   1.186   0.532   4.439 -0.7642 -1.5133 -1.1439
15751TIP3   OH268667   3.809   6.364  13.679  0.7955 -0.0156  0.2045
15751TIP3    H168668   3.746   6.298  13.710  0.9866 -0.2196  0.1621
15751TIP3    H268669   3.773   6.447  13.710  0.2956 -0.0869 -0.1630
15752TIP3   OH268670   0.062   3.930  14.764 -0.0886  0.2947 -0.3126
15752TIP3    H168671   0.002   3.962  14.832  0.9894 -0.5945  1.1226
15752TIP3    H268672   0.006   3.881  14.704 -0.9536  0.3223  0.4379
15753TIP3   OH268673   4.662   6.116  15.268  0.6471  0.2226 -0.2629
15753TIP3    H168674   4.683   6.134  15.360 -1.0897 -0.4214  0.3046
15753TIP3    H268675   4.597   6.182  15.245  0.7300  0.0888 -0.8985
15754TIP3   OH268676   6.726   4.519  14.440  0.4106 -0.0222 -0.5716
15754TIP3    H168677   6.758   4.554  14.522  0.1373 -0.2110 -0.3821
15754TIP3    H268678   6.805   4.496  14.391  0.5724  0.0357 -0.3390
15755TIP3   OH268679   6.712   4.137   1.983 -0.5886  1.1054 -0.2888
15755TIP3    H168680   6.664   4.205   2.030  1.0794  0.8375  1.9731
15755TIP3    H268681   6.645   4.072   1.959 -1.4531  0.7622  2.7112
15756TIP3   OH268682   6.871   5.294   4.619  0.4928  0.3329 -0.2042
15756TIP3    H168683   6.834   5.344   4.692 -1.0436  0.5320 -1.0653
15756TIP3    H268684   6.913   5.361   4.564  0.6775  0.3344 -0.0608
15757TIP3   OH268685   1.510   1.273   1.489  0.1343  0.5925 -0.2376
15757TIP3    H168686   1.502   1.195   1.545  2.1629  1.0994  0.8974
15757TIP3    H268687   1.485   1.243   1.402  1.5492 -1.5586  0.0165
15758TIP3   OH268688   1.784   0.899  12.411 -0.3156  0.3763  0.1456
15758TIP3    H168689   1.709   0.919  12.467 -0.6001 -2.8668  1.1101
15758TIP3    H268690   1.746   0.882  12.325 -0.2270  2.0820 -0.2783
15759TIP3   OH268691   6.290   4.811   1.923  1.1740  0.5842  0.1389
15759TIP3    H168692   6.279   4.732   1.871  1.8151  1.4219 -1.3510
15759TIP3    H268693   6.302   4.780   2.013  0.8659 -0.9585 -0.3284
15760TIP3   OH268694   3.414   4.129   2.676  0.2609  0.0413 -0.2327
15760TIP3    H168695   3.369   4.108   2.594 -2.3072  2.8087  0.2982
15760TIP3    H268696   3.389   4.058   2.735 -0.5396 -0.2922 -0.9396
15761TIP3   OH268697   4.222   7.055  10.552  0.1907 -0.1404  0.7159
15761TIP3    H168698   4.221   6.966  10.586 -1.3901  0.1483  1.4794
15761TIP3    H268699   4.222   7.044  10.457  2.1833 -0.9278  0.7482
15762TIP3   OH268700   4.902   2.507   4.711 -0.5787  0.1976  0.1809
15762TIP3    H168701   4.829   2.542   4.761 -1.2846  0.0650 -0.7157
15762TIP3    H268702   4.945   2.445   4.770 -0.1503  1.5292  1.2936
15763TIP3   OH268703   5.008   6.043   1.510 -0.0435  0.0822 -0.0135
15763TIP3    H168704   4.999   5.951   1.536 -2.5673 -0.9015 -3.6172
15763TIP3    H268705   4.957   6.092   1.574  0.5620 -1.0840  1.4102
15764TIP3   OH268706   2.023   5.934   0.561  0.7147 -0.1307  0.1650
15764TIP3    H168707   1.927   5.930   0.558  0.7584 -1.8720  0.3540
15764TIP3    H268708   2.042   5.974   0.647  0.1782  0.9513 -0.1934
15765TIP3   OH268709   0.376   1.588   5.435  0.2761  0.1749  0.1515
15765TIP3    H168710   0.348   1.580   5.526  1.5443 -0.0179  0.5401
15765TIP3    H268711   0.470   1.606   5.440  0.0226  2.2202 -1.0552
15766TIP3   OH268712   3.576   2.308   3.748 -0.1988 -0.0552 -0.4902
15766TIP3    H168713   3.556   2.398   3.724 -0.0817  0.3093  0.7141
15766TIP3    H268714   3.536   2.296   3.834  0.6506 -0.8219 -0.1751
15767TIP3   OH268715   6.334   6.252   5.101  0.0374  0.4519 -0.2249
15767TIP3    H168716   6.381   6.317   5.049  2.7549 -0.5742  0.7964
15767TIP3    H268717   6.272   6.212   5.040  2.6783 -0.3390 -2.5912
15768TIP3   OH268718   0.938   2.030   1.880  0.8147 -0.2210  0.2818
15768TIP3    H168719   0.912   2.069   1.797  1.4693 -0.7096 -0.1625
15768TIP3    H268720   0.862   1.980   1.909  0.1167  0.9883  0.6378
15769TIP3   OH268721   5.891   3.283   1.901 -0.3861  0.0041 -0.2044
15769TIP3    H168722   5.897   3.322   1.989  0.9689  1.1437 -0.7785
15769TIP3    H268723   5.859   3.194   1.918 -0.9685  0.4607  1.3666
15770TIP3   OH268724   7.190   0.345   2.608  0.0123  0.0846 -0.7111
15770TIP3    H168725   7.131   0.420   2.609  0.4381  0.4301 -1.0662
15770TIP3    H268726   7.265   0.374   2.556  0.8083 -0.1111  0.2929
15771TIP3   OH268727   0.172   1.632  14.470  0.0841 -0.2143 -0.2811
15771TIP3    H168728   0.142   1.650  14.381  1.3440 -0.5588 -0.7833
15771TIP3    H268729   0.097   1.656  14.525 -0.4275  0.7627 -1.3624
15772TIP3   OH268730   0.613   3.468   5.243 -0.5816  0.2467 -0.5076
15772TIP3    H168731   0.619   3.406   5.316  0.6639  0.3945 -0.4678
15772TIP3    H268732   0.644   3.419   5.167  1.8263  1.1899 -0.2166
15773TIP3   OH268733   0.438   5.721  14.997 -0.4681 -0.7035  0.3925
15773TIP3    H168734   0.376   5.704  15.068 -0.1778 -0.6215  0.6648
15773TIP3    H268735   0.523   5.729  15.040  0.0022 -2.3842 -0.1274
15774TIP3   OH268736   5.394   3.601   4.523  0.3814 -0.0087  0.1824
15774TIP3    H168737   5.340   3.632   4.596 -0.4089  1.7324 -1.0644
15774TIP3    H268738   5.480   3.638   4.540  0.9759 -1.9265  1.6347
15775TIP3   OH268739   2.781   5.443   5.045 -0.0609 -0.1830  0.0597
15775TIP3    H168740   2.852   5.380   5.059 -0.9911 -1.3099 -0.1330
15775TIP3    H268741   2.825   5.528   5.042  1.1988 -0.7761  0.6508
15776TIP3   OH268742   5.938   6.317   3.865  0.4824 -0.2053 -0.3890
15776TIP3    H168743   5.846   6.315   3.841  0.5885  1.4033 -1.0676
15776TIP3    H268744   5.949   6.243   3.925 -0.8016 -1.5792 -1.7565
15777TIP3   OH268745   0.803   3.895   3.186  0.1240  0.0050 -0.1894
15777TIP3    H168746   0.836   3.806   3.173 -0.7618 -0.2028 -1.1363
15777TIP3    H268747   0.749   3.913   3.109  0.5195  1.4813 -0.1552
15778TIP3   OH268748   4.473   4.673   1.286 -0.0725  0.6113 -0.1300
15778TIP3    H168749   4.543   4.732   1.314  2.0906 -1.2786 -1.2244
15778TIP3    H268750   4.485   4.595   1.339 -0.5572 -0.2061 -1.1894
15779TIP3   OH268751   0.575   1.913  14.441 -0.6016 -0.1837 -0.2650
15779TIP3    H168752   0.621   1.984  14.397 -1.5619 -0.7150 -2.2486
15779TIP3    H268753   0.610   1.913  14.530 -0.9369  3.0832 -0.0173
15780TIP3   OH268754   6.272   6.370   2.113 -0.1064  0.1580  0.8074
15780TIP3    H168755   6.365   6.393   2.103  0.1394 -0.8472  0.6554
15780TIP3    H268756   6.242   6.422   2.187  0.4960  0.7220  0.6692
15781TIP3   OH268757   6.948   2.967   1.547  0.2258 -1.0408  0.2188
15781TIP3    H168758   6.893   2.933   1.477  0.3979 -0.1356 -0.3807
15781TIP3    H268759   7.035   2.931   1.529  0.2234 -0.9824  0.0923
15782TIP3   OH268760   5.099   2.763  14.574 -0.1969 -0.0196 -0.4269
15782TIP3    H168761   5.080   2.673  14.545 -1.6320  0.7655 -2.1236
15782TIP3    H268762   5.171   2.792  14.518 -1.2210  0.6091 -1.4606
15783TIP3   OH268763   3.982   0.220   2.947 -0.3589  0.0398  0.4475
15783TIP3    H168764   3.934   0.302   2.963  0.4205  1.0851 -2.0989
15783TIP3    H268765   3.915   0.158   2.919 -0.7318  0.3234  0.7030
15784TIP3   OH268766   4.878   2.403   2.540  0.5270 -0.0402  0.0690
15784TIP3    H168767   4.789   2.434   2.555  0.4817 -0.1075 -0.0614
15784TIP3    H268768   4.929   2.442   2.611  0.4205  0.1152  0.0607
15785TIP3   OH268769   2.856   1.155   1.045 -1.0553 -0.0624  0.2617
15785TIP3    H168770   2.835   1.067   1.014 -2.6950  0.4587 -0.2030
15785TIP3    H268771   2.794   1.170   1.116 -2.1016  1.4153 -0.9150
15786TIP3   OH268772   0.749   2.396   4.807 -0.1850 -0.1555  0.0116
15786TIP3    H168773   0.761   2.362   4.896  1.8355 -2.2611 -0.9512
15786TIP3    H268774   0.656   2.385   4.790 -0.1727 -2.3798  0.9606
15787TIP3   OH268775   6.657   3.399  12.769  0.3344  0.2131 -0.1439
15787TIP3    H168776   6.636   3.459  12.697  1.0894  1.3777  0.5728
15787TIP3    H268777   6.711   3.331  12.729  1.3056  1.2084 -0.5753
15788TIP3   OH268778   5.172   6.302  11.691  0.4875 -0.2706 -0.3076
15788TIP3    H168779   5.159   6.355  11.769  1.5830 -1.3650  0.6549
15788TIP3    H268780   5.150   6.213  11.719  4.1035 -1.2696 -0.2120
15789TIP3   OH268781   3.697   6.069   2.773  0.4846 -0.3911 -0.2666
15789TIP3    H168782   3.713   6.132   2.844  0.5722 -0.5174 -0.1730
15789TIP3    H268783   3.753   5.994   2.795 -2.0127 -1.9025  1.4043
15790TIP3   OH268784   2.395   4.838   2.959 -0.2449  0.0946  0.7225
15790TIP3    H168785   2.420   4.903   3.025 -0.0190  0.5181  0.2268
15790TIP3    H268786   2.478   4.806   2.925 -0.3613 -0.1065  0.6259
15791TIP3   OH268787   0.832   2.626  12.730 -0.3563  0.2876  0.0951
15791TIP3    H168788   0.744   2.632  12.693 -0.1995 -0.5855 -0.4539
15791TIP3    H268789   0.830   2.545  12.782 -0.4045  1.1982  1.5564
15792TIP3   OH268790   0.499   4.445   4.546  0.1420  0.3500 -0.0093
15792TIP3    H168791   0.490   4.418   4.638  0.5797 -0.7187 -0.2613
15792TIP3    H268792   0.593   4.450   4.532  0.0728  2.0047  0.0006
15793TIP3   OH268793   3.652   2.871  14.993  0.1415 -0.0530 -0.2750
15793TIP3    H168794   3.724   2.900  14.937  1.4740 -0.1239  1.3574
15793TIP3    H268795   3.639   2.779  14.969  0.7661 -0.1132 -0.3990
15794TIP3   OH268796   4.467   3.354  14.696  0.4711  0.1566 -0.1138
15794TIP3    H168797   4.538   3.302  14.733 -0.8451 -1.6789 -0.0186
15794TIP3    H268798   4.510   3.423  14.647  2.3499 -1.5261 -0.9678
15795TIP3   OH268799   6.362   1.657   0.669  0.3485 -0.0875  0.3530
15795TIP3    H168800   6.382   1.577   0.717  0.8878 -0.2954 -0.2090
15795TIP3    H268801   6.375   1.634   0.577  0.1928  0.5575  0.1643
15796TIP3   OH268802   1.024   6.959  13.890  0.5142  0.2588  0.1642
15796TIP3    H168803   1.057   6.917  13.810 -0.3406  1.3903 -0.8122
15796TIP3    H268804   1.036   7.053  13.875 -0.3902  0.5356  1.0392
15797TIP3   OH268805   5.819   0.817   3.726  0.2544 -0.3082  0.3128
15797TIP3    H168806   5.857   0.904   3.718 -0.2390  0.0714  1.7906
15797TIP3    H268807   5.786   0.797   3.638  1.6942  0.3498 -0.4067
15798TIP3   OH268808   6.980   1.285   1.401  0.0710  0.3977  0.1130
15798TIP3    H168809   7.058   1.339   1.415  0.4598 -0.1471  0.1007
15798TIP3    H268810   6.907   1.347   1.402  0.3595  0.7460  1.6319
15799TIP3   OH268811   2.138   2.063   3.597  0.3552  0.4309  0.2572
15799TIP3    H168812   2.117   2.098   3.510 -0.3244 -1.5391 -0.4328
15799TIP3    H268813   2.181   2.136   3.642 -2.1273  2.5802 -0.5605
15800TIP3   OH268814   0.379   2.844   2.888 -0.2662 -0.7677 -0.2491
15800TIP3    H168815   0.457   2.898   2.900 -1.0807  0.5895 -0.8272
15800TIP3    H268816   0.368   2.839   2.793 -0.6557 -1.2984 -0.1803
15801TIP3   OH268817   2.059   1.556   5.028  0.6482 -0.2138  0.2061
15801TIP3    H168818   1.965   1.546   5.043 -0.2803 -1.8433 -4.6784
15801TIP3    H268819   2.096   1.472   5.053  0.5382 -0.1279  0.6666
15802TIP3   OH268820   4.093   2.453   2.633  0.4608 -0.2937 -0.1412
15802TIP3    H168821   4.112   2.444   2.726  1.3436  0.1414 -0.2662
15802TIP3    H268822   4.179   2.460   2.592  0.0434  1.0900 -0.8262
15803TIP3   OH268823   1.705   1.971   0.112  0.9157  0.3185  0.3598
15803TIP3    H168824   1.710   1.896   0.171 -0.1237 -1.0191 -1.1773
15803TIP3    H268825   1.763   1.948   0.040  0.4766  0.9374 -0.2025
15804TIP3   OH268826   2.084   3.500   0.997  0.5059 -0.1865 -0.0230
15804TIP3    H168827   2.051   3.570   0.941  1.1504 -0.6624 -1.0317
15804TIP3    H268828   2.010   3.479   1.055  0.0556  0.7925 -0.2158
15805TIP3   OH268829   6.434   5.801   1.471  0.0604 -0.2614  0.1463
15805TIP3    H168830   6.404   5.889   1.447 -1.5638 -0.8458 -0.1109
15805TIP3    H268831   6.363   5.767   1.526  0.7005 -1.3871  0.2807
15806TIP3   OH268832   0.907   0.505   5.719  0.0462 -0.1263 -0.5176
15806TIP3    H168833   0.983   0.450   5.702 -0.7492 -1.2797 -0.5270
15806TIP3    H268834   0.837   0.466   5.665 -0.7366  0.4240  0.0753
15807TIP3   OH268835   1.488   5.323  12.905 -0.1263 -0.4539  0.3559
15807TIP3    H168836   1.476   5.414  12.931  2.9752  0.1777 -0.0495
15807TIP3    H268837   1.411   5.278  12.939 -0.7479  1.9247  2.3994
15808TIP3   OH268838   1.386   3.314  14.455 -0.3405 -0.0903 -0.3239
15808TIP3    H168839   1.357   3.268  14.534  0.6972 -2.3735 -1.1659
15808TIP3    H268840   1.326   3.284  14.387  0.4193 -0.2990 -0.9145
15809TIP3   OH268841   3.454   5.393   4.420 -0.2407  0.3896  0.2182
15809TIP3    H168842   3.451   5.378   4.514  0.2684  2.7381  0.6707
15809TIP3    H268843   3.468   5.487   4.411  1.5699 -0.0007 -2.1832
15810TIP3   OH268844   1.841   5.894   1.356  0.1204  0.6977  0.1255
15810TIP3    H168845   1.913   5.871   1.296 -1.2251  1.7814 -2.0077
15810TIP3    H268846   1.859   5.984   1.381 -0.0288  0.6674  0.3422
15811TIP3   OH268847   6.678   6.983   5.241 -0.2820  0.4196 -0.6190
15811TIP3    H168848   6.653   6.990   5.333  0.7112  0.9581 -0.3715
15811TIP3    H268849   6.716   7.069   5.221  1.1492 -0.2818 -1.0101
15812TIP3   OH268850   5.646   6.867   0.248 -0.8047  0.7158  0.3370
15812TIP3    H168851   5.730   6.823   0.245 -1.4883 -0.6124 -0.0758
15812TIP3    H268852   5.661   6.951   0.203 -0.0048 -0.0445 -0.8668
15813TIP3   OH268853   4.490   3.179   4.378  0.4764  0.5467  0.3103
15813TIP3    H168854   4.460   3.218   4.296  1.0952 -1.4419 -0.9381
15813TIP3    H268855   4.560   3.238   4.408 -1.3540  2.6203  0.7711
15814TIP3   OH268856   2.093   4.733   2.468 -0.3095 -0.5829 -0.7319
15814TIP3    H168857   2.024   4.690   2.419 -0.0792 -1.6996 -0.1069
15814TIP3    H268858   2.058   4.821   2.485 -1.1942 -0.8292 -1.1894
15815TIP3   OH268859   2.462   3.622  15.287 -0.9968 -0.5285  0.2475
15815TIP3    H168860   2.416   3.545  15.321  0.3581 -1.6534 -0.3685
15815TIP3    H268861   2.428   3.695  15.339 -4.7417 -0.9333 -1.2353
15816TIP3   OH268862   3.181   6.368   0.540 -0.2875  0.1718 -0.1763
15816TIP3    H168863   3.093   6.347   0.509 -0.3854  0.3661 -0.0279
15816TIP3    H268864   3.167   6.419   0.619 -0.0863  2.4649 -1.5234
15817TIP3   OH268865   6.989   5.968   5.167 -0.7939 -0.1381 -0.5453
15817TIP3    H168866   7.043   6.000   5.094 -0.9492  1.3362 -0.0392
15817TIP3    H268867   6.925   5.910   5.125 -0.1987 -0.1846 -1.4299
15818TIP3   OH268868   2.316   2.635  15.267 -0.3479 -0.0201 -0.2481
15818TIP3    H168869   2.408   2.619  15.250 -0.3385 -0.9408  0.5683
15818TIP3    H268870   2.313   2.724  15.303  0.2242  0.0042 -0.2543
15819TIP3   OH268871   3.868   5.758   1.661 -0.2842 -0.4581  0.1715
15819TIP3    H168872   3.857   5.667   1.636  0.2884 -0.1608 -1.3003
15819TIP3    H268873   3.780   5.796   1.654 -1.0400 -1.3911  3.2310
15820TIP3   OH268874   0.404   0.834  11.496 -0.2209  0.1507  0.0651
15820TIP3    H168875   0.350   0.788  11.431  1.0808 -2.2948  0.5735
15820TIP3    H268876   0.464   0.766  11.529  0.9149  1.9472  1.9152
15821TIP3   OH268877   0.145   6.172   2.134  0.3546  0.3223 -0.0504
15821TIP3    H168878   0.119   6.245   2.191  0.0857  0.8475 -0.8174
15821TIP3    H268879   0.214   6.209   2.079 -0.4998  0.3231 -1.1524
15822TIP3   OH268880   5.370   4.114   4.842  0.0545  0.7222 -0.3888
15822TIP3    H168881   5.452   4.122   4.891 -0.4963 -0.2156  0.7379
15822TIP3    H268882   5.332   4.202   4.844  0.2466  0.7902  0.5020
15823TIP3   OH268883   2.608   1.541   4.434 -0.1824  0.5535 -0.1628
15823TIP3    H168884   2.516   1.552   4.457 -0.1204  0.4110  0.1525
15823TIP3    H268885   2.607   1.533   4.338 -0.6307 -0.6873 -0.0829
15824TIP3   OH268886   1.434   6.881  12.036 -0.0897 -0.6542  0.5665
15824TIP3    H168887   1.466   6.842  11.954 -1.8090 -0.7754 -0.0801
15824TIP3    H268888   1.361   6.825  12.062 -0.7843  0.4987  1.1526
15825TIP3   OH268889   5.421   6.600   3.356 -0.1140 -0.1500  0.6412
15825TIP3    H168890   5.482   6.654   3.306 -0.3610 -0.7182 -0.2981
15825TIP3    H268891   5.422   6.638   3.444  0.1204  1.0488  0.1471
15826TIP3   OH268892   2.195   0.104   5.630 -0.0797 -0.1361 -0.8331
15826TIP3    H168893   2.115   0.156   5.643  0.1576 -0.3069  2.1206
15826TIP3    H268894   2.265   0.163   5.656  0.6928 -0.3770 -2.2773
15827TIP3   OH268895   4.297   2.637   2.863 -0.5402 -0.0881  0.0301
15827TIP3    H168896   4.370   2.699   2.868 -0.6373  0.1225 -0.9150
15827TIP3    H268897   4.248   2.665   2.785 -0.3560 -1.6148 -0.6525
15828TIP3   OH268898   3.997   4.330  10.606 -0.3264 -0.5241  0.0027
15828TIP3    H168899   3.939   4.397  10.570  0.5942  1.7516  2.4006
15828TIP3    H268900   4.085   4.364  10.592  0.2952 -2.2121 -0.4321
15829TIP3   OH268901   4.080   1.359   1.825 -0.3217  0.0906  0.1330
15829TIP3    H168902   4.044   1.298   1.761  0.3473 -0.4850  0.2939
15829TIP3    H268903   4.008   1.374   1.886 -1.1301  1.0244 -0.9965
15830TIP3   OH268904   1.400   0.367   2.105  0.1233 -0.4151  0.3146
15830TIP3    H168905   1.309   0.348   2.080  0.6337 -1.0758 -1.1473
15830TIP3    H268906   1.416   0.455   2.071 -0.4409  0.4105  2.0331
15831TIP3   OH268907   4.378   0.754  11.843  0.0546 -0.6312 -0.0277
15831TIP3    H168908   4.352   0.685  11.781  0.8975 -1.4096  0.4636
15831TIP3    H268909   4.316   0.825  11.827 -1.2269 -1.7296 -0.1342
15832TIP3   OH268910   5.873   3.902  15.171 -0.2647  0.0456 -0.2110
15832TIP3    H168911   5.796   3.956  15.190 -0.7223 -0.9445  0.9118
15832TIP3    H268912   5.871   3.889  15.076  0.6019  3.0168 -0.7316
15833TIP3   OH268913   0.765   4.541   4.543 -0.2145 -0.1882  0.3794
15833TIP3    H168914   0.857   4.544   4.515 -0.5783 -0.4818 -0.9113
15833TIP3    H268915   0.722   4.610   4.494 -0.4958  0.6791  1.8039
15834TIP3   OH268916   5.792   4.202   4.362 -0.2406  0.0423 -0.0373
15834TIP3    H168917   5.801   4.259   4.286 -0.0214  2.3758  1.6436
15834TIP3    H268918   5.715   4.148   4.342  0.8865 -0.7329 -2.6491
15835TIP3   OH268919   4.788   5.759   3.459 -0.0404 -0.3121  0.3847
15835TIP3    H168920   4.839   5.762   3.540  1.1499 -2.4803 -0.1829
15835TIP3    H268921   4.723   5.690   3.474  1.0408 -1.6722 -0.8895
15836TIP3   OH268922   5.685   1.955   2.084 -0.3159 -0.2923  0.4651
15836TIP3    H168923   5.707   1.865   2.111  0.8304 -0.4664 -0.9184
15836TIP3    H268924   5.590   1.958   2.087 -0.3354 -1.2838  1.3819
15837TIP3   OH268925   5.292   3.345   4.523 -0.0764 -0.1682 -0.0400
15837TIP3    H168926   5.320   3.436   4.520  1.4920 -0.5677  1.1401
15837TIP3    H268927   5.220   3.343   4.585  1.4696 -0.0581  1.8464
15838TIP3   OH268928   0.479   6.042   5.345  0.2249  0.5501  0.0941
15838TIP3    H168929   0.557   5.990   5.361 -0.6064 -0.5280  0.7605
15838TIP3    H268930   0.477   6.055   5.250 -0.0901 -1.5288 -0.2159
15839TIP3   OH268931   6.213   2.884  13.002  0.0247 -0.0973  0.7128
15839TIP3    H168932   6.203   2.968  13.048  1.0934 -0.3665  1.4663
15839TIP3    H268933   6.148   2.827  13.043  0.2328 -0.0250  1.1485
15840TIP3   OH268934   3.618   6.796   5.627  0.0015  0.0118  0.2958
15840TIP3    H168935   3.676   6.775   5.700 -1.8833 -0.1240  1.8412
15840TIP3    H268936   3.542   6.739   5.639 -0.3264 -0.0787 -1.8596
15841TIP3   OH268937   2.673   1.050   1.977 -0.8442 -0.1375 -0.2898
15841TIP3    H168938   2.619   1.086   1.906  0.5192  0.6217 -1.0020
15841TIP3    H268939   2.649   0.958   1.982 -1.2484 -0.1111 -1.4895
15842TIP3   OH268940   5.343   2.811  12.114  0.1787  0.3949 -0.5197
15842TIP3    H168941   5.263   2.764  12.135  0.9784 -0.6928  0.1616
15842TIP3    H268942   5.316   2.903  12.113 -1.1231  0.0389 -0.5525
15843TIP3   OH268943   5.978   5.521   4.497 -0.2415  0.2477  0.5339
15843TIP3    H168944   5.910   5.484   4.554  0.1163 -0.1616  0.7056
15843TIP3    H268945   6.056   5.470   4.518  0.4764  1.6347  1.3549
15844TIP3   OH268946   3.351   2.324   4.687 -0.6712 -0.4526  0.1891
15844TIP3    H168947   3.280   2.325   4.623 -1.0147  1.5886  0.5311
15844TIP3    H268948   3.387   2.236   4.681  0.5395  0.0689 -4.1642
15845TIP3   OH268949   1.807   7.198   2.185 -0.2137  0.0478 -0.3982
15845TIP3    H168950   1.780   7.284   2.215  0.5930  0.5523 -1.0569
15845TIP3    H268951   1.789   7.198   2.091 -2.0688 -1.2541 -0.1017
15846TIP3   OH268952   6.490   5.242   2.473  0.4797  0.2772 -0.2338
15846TIP3    H168953   6.460   5.325   2.509  1.6141  0.6074 -0.0078
15846TIP3    H268954   6.480   5.251   2.378  1.4247  1.0148 -0.2723
15847TIP3   OH268955   0.071   3.727  15.250 -0.0179  0.4573  0.3026
15847TIP3    H168956   0.003   3.767  15.196 -0.5457 -0.0216  0.5966
15847TIP3    H268957   0.055   3.633  15.243  1.6969  0.2140 -1.0218
15848TIP3   OH268958   3.349   4.593  12.982 -0.2575 -0.2491  0.1128
15848TIP3    H168959   3.395   4.586  13.066 -0.0141  1.4294  0.1596
15848TIP3    H268960   3.417   4.614  12.919 -0.7316  0.8315 -0.0713
15849TIP3   OH268961   3.928   4.024   2.820  0.2026 -0.1918  0.3224
15849TIP3    H168962   3.852   4.006   2.765  0.3380 -0.9942  0.3804
15849TIP3    H268963   4.003   4.012   2.761  0.4308 -2.5017  0.9775
15850TIP3   OH268964   4.505   1.119   2.206  0.0119  0.2206  0.2819
15850TIP3    H168965   4.472   1.188   2.149  0.4428  0.5215  0.3881
15850TIP3    H268966   4.458   1.041   2.179  0.0778  0.3976 -0.3649
15851TIP3   OH268967   4.382   4.387   2.218  0.2216 -0.2774 -0.1568
15851TIP3    H168968   4.441   4.339   2.159 -1.4377 -1.1959 -1.1329
15851TIP3    H268969   4.295   4.356   2.195 -0.5249 -0.4839  2.6556
15852TIP3   OH268970   5.748   6.344   1.048  0.0450  0.5402  0.0771
15852TIP3    H168971   5.734   6.314   1.138 -1.3826 -2.2139 -0.9535
15852TIP3    H268972   5.670   6.316   1.001  1.0293  1.3547 -2.1710
15853TIP3   OH268973   4.051   4.936   1.460  0.2556  0.5468  0.1221
15853TIP3    H168974   4.095   4.969   1.381  0.2993  0.6341  0.1834
15853TIP3    H268975   4.059   5.007   1.523 -0.5425  0.8225 -0.0727
15854TIP3   OH268976   3.860   7.188   2.875  0.3020 -0.2372 -0.7066
15854TIP3    H168977   3.824   7.150   2.795 -2.3299  1.4893 -0.4539
15854TIP3    H268978   3.783   7.203   2.931  1.7082  1.4183  0.8998
15855TIP3   OH268979   1.504   4.670   4.779 -0.4923  0.2899 -0.2198
15855TIP3    H168980   1.476   4.688   4.869  1.8564  2.0372  0.2562
15855TIP3    H268981   1.546   4.751   4.750 -0.0087 -0.6818 -2.4318
15856TIP3   OH268982   2.690   3.716   0.235  0.7197  0.0337 -0.0284
15856TIP3    H168983   2.618   3.658   0.260  0.1040  1.4082  1.5647
15856TIP3    H268984   2.769   3.672   0.265  0.4631 -0.9106 -0.6931
15857TIP3   OH268985   2.076   2.788  12.159 -0.3840  0.4177  0.2357
15857TIP3    H168986   2.017   2.780  12.234 -0.8792 -0.5668 -0.2440
15857TIP3    H268987   2.018   2.802  12.084  0.0812  0.8617 -0.0541
15858TIP3   OH268988   1.309   3.974   4.040  0.2284  0.4062  0.0204
15858TIP3    H168989   1.294   3.906   4.106  4.5868 -1.5322 -0.6417
15858TIP3    H268990   1.366   4.037   4.084  1.2367  0.3374 -1.1356
15859TIP3   OH268991   4.614   3.736   2.871 -0.0283 -0.6320  0.0558
15859TIP3    H168992   4.638   3.792   2.945 -0.9112 -0.6365  0.3563
15859TIP3    H268993   4.642   3.786   2.794 -1.4167  0.5866  0.2850
15860TIP3   OH268994   2.940   6.208  12.599  0.6465  0.1700  0.4545
15860TIP3    H168995   3.034   6.196  12.591  0.6833  1.0354 -0.5205
15860TIP3    H268996   2.903   6.125  12.568  1.0577  0.1594 -0.0069
15861TIP3   OH268997   1.851   3.681  12.725  0.1061  0.2496  0.4502
15861TIP3    H168998   1.895   3.714  12.646  1.0918 -2.9868 -0.5089
15861TIP3    H268999   1.912   3.699  12.796  1.2819 -0.7206 -0.2739
15862TIP3   OH269000   3.168   2.803   1.831  0.4536  0.5822  0.3184
15862TIP3    H169001   3.111   2.726   1.838  0.7650  0.0681 -1.8917
15862TIP3    H269002   3.112   2.869   1.790  1.3383  0.0569 -1.9233
15863TIP3   OH269003   4.170   1.213   4.489 -0.6907 -0.6663  0.1331
15863TIP3    H169004   4.193   1.127   4.454  0.5072 -0.1319 -0.4610
15863TIP3    H269005   4.251   1.245   4.529  0.1542  1.8594 -3.1727
15864TIP3   OH269006   3.284   2.338  10.111  0.1768  0.2253 -0.2847
15864TIP3    H169007   3.225   2.336  10.036  0.1947 -0.4363 -0.2845
15864TIP3    H269008   3.372   2.338  10.073  0.2256  2.4630 -0.3250
15865TIP3   OH269009   0.334   5.713   0.151 -0.0505  0.1836 -0.1756
15865TIP3    H169010   0.344   5.692   0.244  0.3858  0.0135 -0.2606
15865TIP3    H269011   0.370   5.801   0.143 -2.5391  1.3345  0.3211
15866TIP3   OH269012   0.191   7.078   4.342  0.0218  0.0268  0.0288
15866TIP3    H169013   0.102   7.069   4.378  0.0015  0.6840  0.1610
15866TIP3    H269014   0.217   6.989   4.321 -0.6688 -0.1786 -0.0038
15867TIP3   OH269015   6.505   6.825   4.635  0.3827  0.5247  0.6079
15867TIP3    H169016   6.484   6.856   4.547  1.2879 -1.6890 -0.4522
15867TIP3    H269017   6.588   6.868   4.657  0.8638  0.0399 -0.2174
15868TIP3   OH269018   0.369   1.336   5.008  0.1916  0.4625 -0.2600
15868TIP3    H169019   0.307   1.274   4.971  1.7349 -0.6829 -1.0277
15868TIP3    H269020   0.377   1.310   5.100 -1.2646  1.3417  0.1590
15869TIP3   OH269021   4.454   1.994   5.297  0.1688 -0.2771  0.0343
15869TIP3    H169022   4.475   1.945   5.376 -0.2785  0.4617  0.6298
15869TIP3    H269023   4.409   2.072   5.328 -0.6875 -0.3293 -1.0002
15870TIP3   OH269024   6.180   3.181   0.199 -0.3591  0.4511  0.0165
15870TIP3    H169025   6.085   3.167   0.208 -0.2783 -0.5346 -0.5871
15870TIP3    H269026   6.186   3.268   0.159 -0.9945  0.6943  0.4243
15871TIP3   OH269027   2.933   5.599   5.347 -0.0447  0.4670  0.1135
15871TIP3    H169028   2.950   5.670   5.410 -1.6509  1.5979 -0.6458
15871TIP3    H269029   2.854   5.557   5.380  0.8159 -0.9187  0.4732
15872TIP3   OH269030   7.053   5.616   4.838  0.4201 -0.0028 -0.5974
15872TIP3    H169031   7.113   5.599   4.764  0.7665  0.9284 -0.5570
15872TIP3    H269032   6.967   5.621   4.798  0.3052 -1.6325 -0.6213
15873TIP3   OH269033   3.518   5.714   1.052 -0.2309 -1.3670  0.4427
15873TIP3    H169034   3.500   5.710   0.958  0.3213 -0.4205  0.2872
15873TIP3    H269035   3.493   5.627   1.084  0.2210 -1.9399 -0.6842
15874TIP3   OH269036   3.642   3.235  12.597  0.7182 -0.7627 -0.5785
15874TIP3    H169037   3.736   3.218  12.586  0.9444 -1.1560  1.5462
15874TIP3    H269038   3.601   3.149  12.592  0.6583 -0.7711  0.0018
15875TIP3   OH269039   2.312   5.076   3.503  0.1804 -0.6343 -0.0958
15875TIP3    H169040   2.276   4.987   3.499 -1.4020 -0.0191 -0.2149
15875TIP3    H269041   2.278   5.112   3.585  2.0424 -0.6179  0.7112
15876TIP3   OH269042   2.387   0.316   5.719 -0.3917  0.6035 -0.5042
15876TIP3    H169043   2.364   0.409   5.713  0.1177  0.6936 -1.1730
15876TIP3    H269044   2.471   0.316   5.764 -0.5225  0.4418 -0.2579
15877TIP3   OH269045   0.600   4.214   4.359  0.2525 -0.0559 -0.5529
15877TIP3    H169046   0.564   4.280   4.300 -0.5469  0.6092  0.6328
15877TIP3    H269047   0.523   4.172   4.397  0.7322  0.1477  0.6719
15878TIP3   OH269048   6.769   6.052   3.355  0.2403  0.7718 -0.1375
15878TIP3    H169049   6.752   6.053   3.449  1.0570  1.4063  0.0035
15878TIP3    H269050   6.682   6.048   3.316 -0.1029  0.2959  0.6404
15879TIP3   OH269051   4.232   0.909   4.728  0.0640  0.3678  0.2958
15879TIP3    H169052   4.308   0.933   4.675  0.5535 -1.1252  0.2663
15879TIP3    H269053   4.156   0.935   4.676  0.4303  3.9632  1.2543
15880TIP3   OH269054   6.384   2.513   1.814  0.2045  0.0437  0.1127
15880TIP3    H169055   6.386   2.596   1.766 -0.7744  0.3725  0.6164
15880TIP3    H269056   6.292   2.489   1.817  0.1091  0.5103  2.6088
15881TIP3   OH269057   6.389   5.784   2.995  0.0267 -0.3457  0.1762
15881TIP3    H169058   6.410   5.812   2.906 -0.1945 -0.2121  0.1654
15881TIP3    H269059   6.379   5.865   3.045 -2.0852 -0.3266 -0.1899
15882TIP3   OH269060   6.538   1.596   5.373 -0.2402 -0.4948  0.4526
15882TIP3    H169061   6.480   1.644   5.314 -0.3801  0.4034  1.2822
15882TIP3    H269062   6.491   1.596   5.457  0.5035 -0.6587  0.8749
15883TIP3   OH269063   3.403   0.381  13.569 -0.0762  0.4288  0.4782
15883TIP3    H169064   3.322   0.417  13.532  1.3380  1.8519 -1.4863
15883TIP3    H269065   3.469   0.395  13.500  2.0501  0.2401  2.3468
15884TIP3   OH269066   3.177   2.326   2.702  0.2934  0.3013  0.5106
15884TIP3    H169067   3.136   2.379   2.769 -0.2459  1.8911 -1.0120
15884TIP3    H269068   3.249   2.379   2.669  0.4389 -0.3658 -0.2976
15885TIP3   OH269069   1.616   1.969  14.290  0.4677 -0.2032 -0.1570
15885TIP3    H169070   1.594   1.900  14.228  0.6677 -0.5859  0.2009
15885TIP3    H269071   1.633   1.924  14.373 -0.0623  0.3306  0.2458
15886TIP3   OH269072   5.416   7.147   1.707  0.7722  0.0819  0.0715
15886TIP3    H169073   5.511   7.143   1.693  0.6058 -2.9926 -1.1516
15886TIP3    H269074   5.384   7.061   1.677 -2.6389  1.6588 -1.3408
15887TIP3   OH269075   0.193   4.783   0.802 -0.5505  0.1402  0.2329
15887TIP3    H169076   0.269   4.825   0.842  0.5513 -1.2406 -0.3531
15887TIP3    H269077   0.196   4.810   0.711  0.1994 -1.1915 -0.1625
15888TIP3   OH269078   0.652   0.432   1.778 -0.8910  0.7881 -0.1801
15888TIP3    H169079   0.643   0.467   1.689  0.1345  0.2881 -0.4989
15888TIP3    H269080   0.658   0.510   1.834  0.6728  1.1460 -0.8033
15889TIP3   OH269081   5.381   6.507   3.040 -0.0584 -0.4729  0.1640
15889TIP3    H169082   5.438   6.582   3.024 -0.8522  0.5974  2.0166
15889TIP3    H269083   5.322   6.536   3.110 -0.9310 -2.5460  0.3653
15890TIP3   OH269084   6.839   2.158  10.445  0.1063  0.6853  0.2446
15890TIP3    H169085   6.802   2.237  10.485 -0.2160 -0.0680  1.4872
15890TIP3    H269086   6.855   2.183  10.354 -1.0581  1.8208  0.3178
15891TIP3   OH269087   0.151   3.505  14.041  0.1456  0.3155 -0.2913
15891TIP3    H169088   0.215   3.546  14.099  0.4177 -1.0890  0.4435
15891TIP3    H269089   0.195   3.501  13.956  0.9190 -0.3308  0.1264
15892TIP3   OH269090   4.465   0.139  14.957  0.0354 -0.6600  0.2557
15892TIP3    H169091   4.498   0.165  14.871  0.8707 -2.1775  0.0792
15892TIP3    H269092   4.516   0.191  15.019 -1.7390  1.7040 -0.1477
15893TIP3   OH269093   0.178   1.625   2.248  0.2152 -0.3175  0.7067
15893TIP3    H169094   0.130   1.588   2.322  0.8310  0.1815  1.3675
15893TIP3    H269095   0.260   1.577   2.246  0.4297  0.0422  0.6939
15894TIP3   OH269096   6.591   4.735  14.313  0.4649 -0.7928  0.2685
15894TIP3    H169097   6.646   4.672  14.359  2.6944  0.8327  0.0184
15894TIP3    H269098   6.629   4.820  14.336  0.0023  0.2288 -2.4167
15895TIP3   OH269099   6.857   2.876   1.774  0.2529  0.1313 -0.2209
15895TIP3    H169100   6.893   2.907   1.691  4.4744 -2.3272  0.4169
15895TIP3    H269101   6.785   2.818   1.750  0.8856  0.0824 -2.1248
15896TIP3   OH269102   0.663   0.768   5.160 -0.2953  0.1758 -0.4735
15896TIP3    H169103   0.663   0.862   5.179  0.8001  0.1047  0.0122
15896TIP3    H269104   0.718   0.730   5.229  0.7616 -0.5850 -1.6803
15897TIP3   OH269105   0.104   4.084   0.571 -1.0760  0.0984 -0.4324
15897TIP3    H169106   0.140   4.166   0.537 -1.6179 -0.2616 -1.9970
15897TIP3    H269107   0.170   4.052   0.632 -1.5977  2.5002  1.5397
15898TIP3   OH269108   0.536   3.961   2.834 -0.1855 -0.7583  0.4709
15898TIP3    H169109   0.539   4.044   2.787  0.6714  0.0910  1.9642
15898TIP3    H269110   0.468   3.911   2.789  0.0091  0.3276 -1.1155
15899TIP3   OH269111   2.909   5.933   3.530  0.1261  0.7688  0.1272
15899TIP3    H169112   2.873   6.021   3.519 -0.3087  0.6556  0.5862
15899TIP3    H269113   2.871   5.902   3.612 -0.9004 -0.4159 -0.7584
15900TIP3   OH269114   5.874   2.328   5.437  0.0383 -0.3225 -0.0719
15900TIP3    H169115   5.830   2.292   5.515 -0.6495  1.6677  0.5215
15900TIP3    H269116   5.811   2.390   5.401  1.5441  1.0527 -0.4271
15901TIP3   OH269117   5.523   4.455   4.644 -0.3016  0.0761  0.1690
15901TIP3    H169118   5.537   4.547   4.621 -0.7659  0.6719  2.1394
15901TIP3    H269119   5.429   4.442   4.639 -0.4309  0.2401  1.6490
15902TIP3   OH269120   0.649   4.359   2.804  0.5510 -0.9349  0.0451
15902TIP3    H169121   0.627   4.309   2.726  2.3358 -1.8855  0.0981
15902TIP3    H269122   0.567   4.365   2.853 -0.9985  0.9438 -2.5132
15903TIP3   OH269123   6.467   5.433   2.805 -0.6354 -0.1489  0.2256
15903TIP3    H169124   6.427   5.466   2.725 -1.1253 -0.7987  0.1915
15903TIP3    H269125   6.395   5.428   2.868 -0.0524  1.4687  1.0975
15904TIP3   OH269126   3.180   5.010   4.957 -0.3764 -0.2612 -0.0195
15904TIP3    H169127   3.249   5.046   4.900 -1.0128  1.4146  0.2034
15904TIP3    H269128   3.217   5.016   5.045  0.4237 -2.4141 -0.1617
15905TIP3   OH269129   2.201   4.033   5.126 -0.0570 -0.2167 -0.4176
15905TIP3    H169130   2.223   3.942   5.142  0.1728 -0.2562 -0.9421
15905TIP3    H269131   2.172   4.036   5.035 -1.0615  0.0502 -0.1101
15906TIP3   OH269132   3.870   4.106   5.191  0.3611 -0.1357 -0.2593
15906TIP3    H169133   3.901   4.164   5.260  0.3922 -1.3182  0.7601
15906TIP3    H269134   3.948   4.084   5.141  0.2155  1.3534 -1.1986
15907TIP3   OH269135   3.970   0.574  15.283  0.1815 -0.0752 -0.0957
15907TIP3    H169136   3.930   0.593  15.197  1.0442  1.4762 -0.1952
15907TIP3    H269137   4.033   0.504  15.266 -0.2741 -0.3840 -0.5464
15908TIP3   OH269138   0.194   5.376   4.105 -0.0682  0.3774  0.1334
15908TIP3    H169139   0.164   5.372   4.014 -0.5358  1.2242  0.2418
15908TIP3    H269140   0.231   5.289   4.122 -0.1533  0.1487 -0.8003
15909TIP3   OH269141   2.337   6.011   5.151 -0.9057 -0.1848 -0.2905
15909TIP3    H169142   2.377   6.098   5.140  0.0884 -0.7388 -1.1615
15909TIP3    H269143   2.364   5.984   5.239 -1.1178  0.3267 -0.0610
15910TIP3   OH269144   2.293   2.235  15.031 -0.2182 -0.5507  0.3098
15910TIP3    H169145   2.257   2.323  15.036 -0.5569 -0.7003  0.5728
15910TIP3    H269146   2.271   2.196  15.116 -0.9573 -1.2268 -0.1783
15911TIP3   OH269147   1.189   4.776   4.800 -0.0849  0.2042 -0.2942
15911TIP3    H169148   1.135   4.701   4.826  0.6677  0.5266  2.4865
15911TIP3    H269149   1.233   4.747   4.720 -2.8159 -0.7818 -1.5428
15912TIP3   OH269150   6.302   1.297   1.038  0.5300 -0.5023  0.4986
15912TIP3    H169151   6.258   1.219   1.005  2.1320 -0.7253 -1.2876
15912TIP3    H269152   6.370   1.263   1.096 -0.0846 -0.2907  1.3639
15913TIP3   OH269153   4.441   5.586  12.686  0.1112 -0.5919 -0.1777
15913TIP3    H169154   4.350   5.590  12.715 -0.5552  3.1933 -2.1678
15913TIP3    H269155   4.493   5.608  12.763 -1.0727  1.7894  0.0327
15914TIP3   OH269156   5.381   0.108   1.328 -0.0690 -0.7598 -0.2893
15914TIP3    H169157   5.315   0.110   1.398 -0.7754  1.0751 -0.9341
15914TIP3    H269158   5.361   0.185   1.274  2.7005 -0.0201 -0.4302
15915TIP3   OH269159   6.343   1.412   2.716  0.4067  0.5393  0.4035
15915TIP3    H169160   6.403   1.448   2.651  0.5744 -2.3179 -1.2147
15915TIP3    H269161   6.262   1.462   2.703  0.8134  0.8561 -1.1968
15916TIP3   OH269162   0.463   5.218   1.532  0.1632 -0.0515  0.0687
15916TIP3    H169163   0.428   5.248   1.616  0.2359  0.4902 -0.0881
15916TIP3    H269164   0.405   5.147   1.506  0.9195 -1.1366  1.2116
15917TIP3   OH269165   0.401   2.327   2.381  0.1168  0.5137 -0.3889
15917TIP3    H169166   0.420   2.420   2.389 -1.5742  0.9861 -1.4309
15917TIP3    H269167   0.453   2.298   2.305  0.3639  0.6936 -0.2870
15918TIP3   OH269168   5.837   3.378   2.171 -0.2936  0.0556 -0.2650
15918TIP3    H169169   5.918   3.407   2.213  0.9887 -1.8132 -1.2843
15918TIP3    H269170   5.784   3.342   2.243  0.2031  0.3921  0.2772
15919TIP3   OH269171   0.588   2.279  10.350  0.6294 -0.2931 -0.4237
15919TIP3    H169172   0.588   2.271  10.254  1.3024 -0.4638 -0.4176
15919TIP3    H269173   0.592   2.374  10.365  0.5934 -0.2678 -0.5646
15920TIP3   OH269174   1.674   0.473   5.885 -0.3484  0.2565 -0.1909
15920TIP3    H169175   1.633   0.550   5.925 -0.3156  0.3551 -0.3477
15920TIP3    H269176   1.651   0.478   5.793  0.8272  0.8544 -0.4768
15921TIP3   OH269177   3.061   0.462   0.369  0.0424 -0.4781 -0.0698
15921TIP3    H169178   3.149   0.429   0.388  0.8121  1.5351  0.1041
15921TIP3    H269179   3.073   0.556   0.352 -2.1108 -0.0796  0.2532
15922TIP3   OH269180   3.598   4.496  14.835 -0.0844 -0.3934  0.0999
15922TIP3    H169181   3.626   4.405  14.832  0.7312 -0.1561  0.2157
15922TIP3    H269182   3.665   4.543  14.785 -1.1934 -0.0241 -1.0979
15923TIP3   OH269183   2.249   3.418   5.315  0.4823  0.5907  0.6389
15923TIP3    H169184   2.289   3.502   5.339 -0.0376  1.3810 -1.0707
15923TIP3    H269185   2.324   3.359   5.301  0.8792  0.9472  1.2043
15924TIP3   OH269186   6.823   1.543  14.865  0.6021  0.6487  0.0061
15924TIP3    H169187   6.847   1.555  14.774  2.5249  0.8924  0.5118
15924TIP3    H269188   6.881   1.602  14.914  0.7216 -0.6194  1.4850
15925TIP3   OH269189   1.512   6.367   4.864  0.3557  0.1296 -0.6259
15925TIP3    H169190   1.535   6.460   4.864 -1.5703  0.6554 -1.3662
15925TIP3    H269191   1.419   6.365   4.885  0.1200 -1.5628 -1.6153
15926TIP3   OH269192   0.369   1.670   4.530 -0.1960  0.0696  0.4987
15926TIP3    H169193   0.452   1.659   4.484  0.0057  0.3204  0.7933
15926TIP3    H269194   0.394   1.678   4.623 -0.3772  1.8162  0.4466
15927TIP3   OH269195   0.604   7.082   3.826 -0.4471 -0.1223 -0.4925
15927TIP3    H169196   0.680   7.116   3.873 -1.5632  1.3014  0.3686
15927TIP3    H269197   0.530   7.100   3.884 -1.4623 -1.5252 -1.2804
15928TIP3   OH269198   2.747   1.915   2.013 -0.6487  0.4822  0.1393
15928TIP3    H169199   2.768   1.855   1.941 -2.4044  0.9836 -0.8363
15928TIP3    H269200   2.810   1.893   2.082 -0.7010 -1.9013 -0.5032
15929TIP3   OH269201   3.310   3.335  14.818  0.0638  0.5018 -0.3252
15929TIP3    H169202   3.393   3.379  14.834 -0.5837  1.6084  0.1217
15929TIP3    H269203   3.260   3.397  14.765 -0.4094 -0.2312 -0.7522
15930TIP3   OH269204   4.217   1.655   0.138 -0.2895  0.2030 -0.0771
15930TIP3    H169205   4.294   1.621   0.092 -0.7224  1.3329 -1.6902
15930TIP3    H269206   4.247   1.736   0.178  0.0849 -0.7662  1.7513
15931TIP3   OH269207   1.419   6.911   2.564  0.3654 -0.7480 -0.3982
15931TIP3    H169208   1.492   6.934   2.621 -1.0226 -0.1922  1.2220
15931TIP3    H269209   1.396   6.822   2.589 -1.1972  0.0086  1.0418
15932TIP3   OH269210   0.906   5.886  13.508  0.5577 -0.2447  0.6255
15932TIP3    H169211   0.953   5.875  13.591  1.3718 -1.6425  0.0228
15932TIP3    H269212   0.897   5.797  13.473 -0.7216  0.2086 -0.2831
15933TIP3   OH269213   6.837   3.248   5.455 -0.3571  0.3196 -0.4278
15933TIP3    H169214   6.870   3.162   5.427 -0.0003 -0.5145  2.2458
15933TIP3    H269215   6.855   3.306   5.381  2.0475 -1.2935 -1.2500
15934TIP3   OH269216   0.563   3.752   3.666 -0.3182 -0.1403  0.0918
15934TIP3    H169217   0.652   3.754   3.629  0.1346  1.6559  1.1840
15934TIP3    H269218   0.532   3.663   3.648  1.9219 -1.0055  0.1679
15935TIP3   OH269219   0.246   2.671   0.483 -0.4041 -0.3435 -0.4743
15935TIP3    H169220   0.339   2.694   0.475 -0.2834 -0.6388  0.0415
15935TIP3    H269221   0.225   2.688   0.575 -0.8500 -0.3335 -0.5744
15936TIP3   OH269222   1.074   2.518   2.423 -0.0941 -0.0520 -0.3295
15936TIP3    H169223   1.090   2.425   2.405 -1.8930 -0.2578 -1.0402
15936TIP3    H269224   1.018   2.547   2.351 -2.3403  0.7313  1.6358
15937TIP3   OH269225   6.783   3.833  14.960  0.0661 -0.4101  0.3204
15937TIP3    H169226   6.835   3.909  14.935 -1.7652  1.2497  1.2468
15937TIP3    H269227   6.787   3.774  14.885  1.2681  0.7543 -0.5600
15938TIP3   OH269228   1.967   6.155   2.325  0.2207  0.2628  0.0297
15938TIP3    H169229   2.032   6.223   2.308  0.3662  0.1503  0.1397
15938TIP3    H269230   1.905   6.162   2.252  1.0842 -0.5110 -0.8039
15939TIP3   OH269231   4.605   0.029   1.825 -0.7690 -0.3744  0.7353
15939TIP3    H169232   4.573   0.029   1.916 -1.5706  0.7215  0.4729
15939TIP3    H269233   4.574   0.112   1.789  1.5072  0.2762  0.1291
15940TIP3   OH269234   0.936   2.058  13.212  0.1333 -0.4759  0.3896
15940TIP3    H169235   1.008   2.021  13.161  0.1292  0.3081 -0.1919
15940TIP3    H269236   0.955   2.032  13.302  0.1574 -1.8430  0.0162
15941TIP3   OH269237   5.561   0.902   3.793  0.8642  0.0906 -0.2287
15941TIP3    H169238   5.536   0.966   3.726 -2.1926 -1.0626 -0.3484
15941TIP3    H269239   5.639   0.859   3.757  0.7647  1.1938 -1.8799
15942TIP3   OH269240   2.087   4.019  12.532 -0.0918  0.7689 -0.1982
15942TIP3    H169241   2.048   4.042  12.616 -1.5410 -0.4819 -0.4835
15942TIP3    H269242   2.020   4.041  12.467 -0.2264 -1.0626 -0.7331
15943TIP3   OH269243   4.403   3.621   4.741  0.0062  0.3039  0.5122
15943TIP3    H169244   4.491   3.591   4.763 -0.4248 -0.4311  1.3194
15943TIP3    H269245   4.362   3.545   4.698 -0.3838  0.4672  0.5917
15944TIP3   OH269246   5.958   0.935   2.062 -0.5770 -0.2789  0.0208
15944TIP3    H169247   6.017   1.009   2.049  0.0546 -0.8325 -0.3357
15944TIP3    H269248   6.016   0.861   2.079 -1.2216 -0.3289  2.3957
15945TIP3   OH269249   5.754   1.546   2.901  0.8007 -0.1591  0.9498
15945TIP3    H169250   5.682   1.561   2.963 -0.6180 -0.7154 -0.4779
15945TIP3    H269251   5.716   1.567   2.815  2.3089 -0.6387  0.1276
15946TIP3   OH269252   0.235   3.862   2.969 -0.1284  0.0234  0.2019
15946TIP3    H169253   0.209   3.952   2.989  1.4107  0.0970  2.2178
15946TIP3    H269254   0.246   3.861   2.874  1.8083  2.6142  0.2640
15947TIP3   OH269255   3.716   6.479  14.589 -0.1080 -0.4786 -0.0146
15947TIP3    H169256   3.767   6.398  14.582  0.8934 -0.2752  3.3624
15947TIP3    H269257   3.650   6.461  14.655 -2.2891  0.4122 -1.8131
15948TIP3   OH269258   4.559   2.755   2.951 -0.1159  0.4893  0.1605
15948TIP3    H169259   4.573   2.671   2.909  0.7025 -0.0377  1.4182
15948TIP3    H269260   4.635   2.808   2.924  0.0650  0.3709  0.4307
15949TIP3   OH269261   6.229   1.357   4.700 -0.3671  0.2942 -0.3415
15949TIP3    H169262   6.242   1.377   4.793  1.2725 -0.5076 -0.3778
15949TIP3    H269263   6.173   1.428   4.668  0.2247  1.3697  0.9316
15950TIP3   OH269264   3.121   4.266   2.045  0.1088  0.3874 -0.0267
15950TIP3    H169265   3.038   4.233   2.081 -0.0845  0.4245 -0.4357
15950TIP3    H269266   3.120   4.360   2.064  0.6670  0.1723  1.1534
15951TIP3   OH269267   2.526   0.603   3.885 -0.0390  0.1327 -0.2644
15951TIP3    H169268   2.594   0.668   3.903  0.7925 -0.7770 -0.0357
15951TIP3    H269269   2.446   0.654   3.876  0.2240  1.0314  1.9134
15952TIP3   OH269270   3.227   0.325   1.689 -0.1447 -0.2602 -0.1419
15952TIP3    H169271   3.288   0.290   1.624  1.2788  0.2684  0.8356
15952TIP3    H269272   3.205   0.249   1.744 -0.0582 -0.3824 -0.2742
15953TIP3   OH269273   4.193   1.485   1.148  0.2461  0.0588 -0.0486
15953TIP3    H169274   4.269   1.532   1.115  0.9756 -0.3014  1.0484
15953TIP3    H269275   4.172   1.422   1.079  0.7489  0.3805 -0.5018
15954TIP3   OH269276   1.389   0.333  14.920 -0.1857  0.6909 -0.0838
15954TIP3    H169277   1.354   0.262  14.973  5.6442 -1.5321  1.6067
15954TIP3    H269278   1.383   0.301  14.830  0.2072 -0.9572  0.4412
15955TIP3   OH269279   5.872   1.307   2.972  0.4454 -0.3781  0.4268
15955TIP3    H169280   5.966   1.286   2.974  0.2351 -1.4811 -0.4759
15955TIP3    H269281   5.867   1.381   2.911  0.5397 -1.5898 -1.1239
15956TIP3   OH269282   5.904   6.329  12.103  0.1459  0.2230 -0.6139
15956TIP3    H169283   5.848   6.342  12.180 -0.4729 -1.2254 -0.7859
15956TIP3    H269284   5.958   6.254  12.126 -0.9043 -1.0356 -2.0235
15957TIP3   OH269285   5.446   5.874   1.318  0.0651  0.5584  0.1730
15957TIP3    H169286   5.375   5.809   1.312 -0.5718  1.1099  1.3297
15957TIP3    H269287   5.500   5.857   1.241 -1.1703 -0.0682 -0.6044
15958TIP3   OH269288   2.135   4.622  12.253  0.0479  0.2326 -0.2737
15958TIP3    H169289   2.142   4.716  12.236  2.1096 -0.1319 -1.8384
15958TIP3    H269290   2.094   4.586  12.175  0.8616 -0.3441 -0.4524
15959TIP3   OH269291   6.845   2.115   1.247  0.0085 -0.0244  0.8633
15959TIP3    H169292   6.867   2.200   1.209  0.2959  0.0855  1.2636
15959TIP3    H269293   6.812   2.135   1.335  1.4878 -0.4042  1.5412
15960TIP3   OH269294   2.691   1.788   4.789 -0.0512  0.1024 -0.1507
15960TIP3    H169295   2.654   1.829   4.867 -3.1515 -1.0820 -0.8413
15960TIP3    H269296   2.740   1.713   4.821 -0.2245  0.3493  0.7118
15961TIP3   OH269297   5.076   5.706   2.917 -0.5675 -0.1003 -0.5628
15961TIP3    H169298   5.004   5.741   2.864 -0.8955  1.5693  0.8880
15961TIP3    H269299   5.154   5.749   2.883 -0.8029  1.1176  0.3923
15962TIP3   OH269300   4.127   5.234   4.205 -0.0023 -0.1640 -0.2934
15962TIP3    H169301   4.078   5.169   4.154 -1.9482 -0.5010  1.8272
15962TIP3    H269302   4.196   5.183   4.248  0.3887 -0.2280 -0.9693
15963TIP3   OH269303   4.504   6.767   1.039  0.1258  0.6386  0.1468
15963TIP3    H169304   4.444   6.730   1.103  0.1121  1.3693  0.5678
15963TIP3    H269305   4.572   6.701   1.028 -0.9415 -0.3800 -0.6248
15964TIP3   OH269306   3.622   3.701   5.481 -0.2101  0.2311 -0.1806
15964TIP3    H169307   3.615   3.632   5.547 -0.9407  1.7781  1.4360
15964TIP3    H269308   3.599   3.782   5.527 -0.0410  1.4953 -2.1613
15965TIP3   OH269309   2.122   6.287   5.027 -0.5219 -0.0058 -0.2661
15965TIP3    H169310   2.048   6.335   4.990 -0.3129  1.2340  0.8413
15965TIP3    H269311   2.082   6.226   5.089 -0.7391 -0.7179 -1.0988
15966TIP3   OH269312   0.640   1.546   1.651 -0.2566  0.5181 -0.3339
15966TIP3    H169313   0.590   1.604   1.593 -1.1001  1.3637  1.1806
15966TIP3    H269314   0.624   1.458   1.616 -0.6247  1.0182 -1.4649
15967TIP3   OH269315   5.479   6.530   1.379  0.6219  0.0249  1.3841
15967TIP3    H169316   5.514   6.602   1.430  1.4358 -1.2896  2.7619
15967TIP3    H269317   5.475   6.563   1.289  0.6580  1.8572  2.0298
15968TIP3   OH269318   3.525   2.230   5.915 -0.1528 -0.3761 -0.4046
15968TIP3    H169319   3.589   2.167   5.948 -0.0371  1.0967  2.4933
15968TIP3    H269320   3.443   2.207   5.959 -0.4203  0.6532 -0.3211
15969TIP3   OH269321   2.971   0.620   1.946 -0.0525  0.2177  0.0341
15969TIP3    H169322   3.033   0.609   1.874  0.1601  0.0090  0.2464
15969TIP3    H269323   2.885   0.604   1.906  0.1912 -1.6847  0.1884
15970TIP3   OH269324   5.051   6.073   3.155 -0.0142 -0.1247  0.3647
15970TIP3    H169325   5.087   6.162   3.153 -2.9031  1.1259 -1.0526
15970TIP3    H269326   5.017   6.059   3.066 -2.9116 -1.1131  1.5091
15971TIP3   OH269327   4.759   4.096   1.936 -0.5167  0.2166  0.1634
15971TIP3    H169328   4.847   4.135   1.939  0.1229 -1.0533 -0.6989
15971TIP3    H269329   4.753   4.046   2.017 -0.5080  0.4316  0.2983
15972TIP3   OH269330   3.485   5.211   1.818 -0.3671  0.1391 -0.0294
15972TIP3    H169331   3.536   5.225   1.898 -0.3850  1.9352 -0.2996
15972TIP3    H269332   3.548   5.169   1.758  0.8737  2.2881 -0.3448
15973TIP3   OH269333   1.097   5.823   4.933  0.5114  0.1580 -0.1418
15973TIP3    H169334   1.133   5.891   4.875 -0.3331  1.0960  0.4111
15973TIP3    H269335   1.117   5.741   4.888 -0.4836  0.8690 -2.0139
15974TIP3   OH269336   3.393   4.626   4.928 -0.7028 -0.5056  0.2461
15974TIP3    H169337   3.410   4.701   4.985  0.3565  0.6947 -1.5487
15974TIP3    H269338   3.470   4.570   4.938 -0.6291 -0.4150  0.1919
15975TIP3   OH269339   1.498   2.089   4.878  0.3829  0.0799  0.6411
15975TIP3    H169340   1.529   2.000   4.890 -0.3437 -0.2106  0.4520
15975TIP3    H269341   1.480   2.121   4.966  0.6424  0.0400  0.7080
15976TIP3   OH269342   0.684   7.061   3.087  0.4480 -0.6372 -0.0793
15976TIP3    H169343   0.635   7.127   3.136  0.9490 -0.8219  0.6849
15976TIP3    H269344   0.617   6.999   3.058  0.0616 -0.1721 -0.1963
15977TIP3   OH269345   2.291   6.454  14.430 -0.5926 -0.2775 -0.2684
15977TIP3    H169346   2.213   6.416  14.472  0.7233 -1.1272  1.5607
15977TIP3    H269347   2.321   6.520  14.492  0.1981 -0.0217 -0.9141
15978TIP3   OH269348   2.963   6.349   2.257  0.1820 -0.4354 -0.3139
15978TIP3    H169349   2.975   6.345   2.163 -1.9055  0.2335 -0.6756
15978TIP3    H269350   2.966   6.442   2.278 -0.1924 -0.5208  0.1401
15979TIP3   OH269351   7.136   5.571   4.085  0.1657  0.6409 -0.3713
15979TIP3    H169352   7.111   5.647   4.138  0.7587  0.3380  0.3538
15979TIP3    H269353   7.229   5.559   4.102 -0.0696 -0.6985  0.1062
15980TIP3   OH269354   4.142   5.957   5.174  0.4349  0.1826  0.1928
15980TIP3    H169355   4.186   5.985   5.094  0.1429  0.7408  0.2225
15980TIP3    H269356   4.165   6.024   5.239  1.3921 -0.7221  0.8289
15981TIP3   OH269357   0.260   0.030   4.819  0.1192  0.2472 -0.2765
15981TIP3    H169358   0.296   0.064   4.737 -1.9335  1.2637 -0.8192
15981TIP3    H269359   0.337   0.018   4.875  1.3456  2.0009 -1.4571
15982TIP3   OH269360   5.650   0.681  14.604 -0.2680 -0.1128 -0.2011
15982TIP3    H169361   5.607   0.602  14.638 -0.5217  0.5806  1.1471
15982TIP3    H269362   5.734   0.685  14.650 -0.2077  0.3425 -0.3437
15983TIP3   OH269363   0.606   5.643   4.013  0.2318  0.8520 -0.1222
15983TIP3    H169364   0.552   5.718   4.039  1.0608  1.2724  0.4244
15983TIP3    H269365   0.647   5.614   4.094  2.5403  1.9135 -0.8348
15984TIP3   OH269366   0.221   3.668   3.437 -0.2033 -0.0140  0.6387
15984TIP3    H169367   0.127   3.669   3.456 -0.3780 -2.8708  0.4876
15984TIP3    H269368   0.246   3.575   3.445  1.7822 -0.0187 -3.1402
15985TIP3   OH269369   5.537   5.189   4.421 -0.2635  0.8055 -0.1932
15985TIP3    H169370   5.472   5.121   4.440  0.1801  0.7969  1.5059
15985TIP3    H269371   5.519   5.257   4.486 -0.0587  1.8646 -1.2323
15986TIP3   OH269372   6.381   6.949   3.213 -0.1233  0.3058  0.5822
15986TIP3    H169373   6.454   7.010   3.217 -1.0755  1.4277  1.4173
15986TIP3    H269374   6.369   6.933   3.119 -0.0466  1.6436  0.3225
15987TIP3   OH269375   1.318   2.314   4.992 -0.3306 -0.1124 -0.0678
15987TIP3    H169376   1.285   2.238   5.039 -1.4221  0.4075  0.0389
15987TIP3    H269377   1.294   2.389   5.047  0.4351  0.3334 -0.3301
15988TIP3   OH269378   6.148   5.652   3.866 -0.3600 -0.2521  0.2114
15988TIP3    H169379   6.098   5.720   3.823 -1.7422 -0.6062  1.1834
15988TIP3    H269380   6.137   5.575   3.810  1.5834  0.3880 -1.1308
15989TIP3   OH269381   4.525   5.073  13.100 -0.7667  0.0247 -0.0594
15989TIP3    H169382   4.475   5.021  13.037 -0.0244 -1.2899  0.3997
15989TIP3    H269383   4.573   5.009  13.152 -0.6945  1.1246  1.2920
15990TIP3   OH269384   7.063   6.718  14.290  0.8146 -1.0175 -0.0906
15990TIP3    H169385   7.112   6.636  14.291  0.0662 -1.4666  0.3019
15990TIP3    H269386   7.027   6.725  14.378  1.3957  0.0583  0.0772
15991TIP3   OH269387   2.606   4.649   3.243 -0.3699 -0.6715 -0.3037
15991TIP3    H169388   2.618   4.585   3.173  1.7290 -2.0165  1.1545
15991TIP3    H269389   2.614   4.734   3.200  1.5301 -1.4583 -1.6465
15992TIP3   OH269390   2.386   1.317   3.214 -0.2667 -0.5406 -0.5575
15992TIP3    H169391   2.342   1.246   3.166 -1.1320 -0.3672 -0.0432
15992TIP3    H269392   2.327   1.336   3.287 -0.8920  1.8272 -1.5753
15993TIP3   OH269393   1.731   4.443   4.775  0.0234  0.5868  0.0768
15993TIP3    H169394   1.695   4.522   4.815 -0.0441 -0.6424  2.5944
15993TIP3    H269395   1.687   4.371   4.820  1.7322 -0.9041 -0.5433
15994TIP3   OH269396   4.082   5.234  12.519  0.7193 -0.4649 -0.5056
15994TIP3    H169397   4.135   5.282  12.583  0.8596  0.1158 -1.0557
15994TIP3    H269398   4.106   5.142  12.534 -0.0344 -0.4434  0.9837
15995TIP3   OH269399   0.759   3.191  12.031 -0.2947  0.4712 -0.6727
15995TIP3    H169400   0.850   3.164  12.045 -0.2599 -0.0550 -1.8472
15995TIP3    H269401   0.723   3.199  12.120  1.4788  2.8799 -0.0706
15996TIP3   OH269402   3.475   4.191   2.184  0.6053 -0.3240  0.0960
15996TIP3    H169403   3.417   4.259   2.150 -2.2503 -3.4404 -1.9045
15996TIP3    H269404   3.563   4.222   2.165 -0.5411  2.6431 -0.8716
15997TIP3   OH269405   4.342   6.489   2.318 -0.2509  0.5371 -0.3275
15997TIP3    H169406   4.311   6.401   2.297  1.3456  0.1955 -1.4563
15997TIP3    H269407   4.275   6.547   2.282  0.0990 -0.1791 -2.2790
15998TIP3   OH269408   6.912   5.864   2.884  0.8488  0.2335 -0.4205
15998TIP3    H169409   6.851   5.935   2.902 -0.4040 -0.7821 -0.4828
15998TIP3    H269410   6.925   5.821   2.969  0.9617  0.0573 -0.5244
15999TIP3   OH269411   5.790   3.733   2.521  0.0480  0.1672  0.1462
15999TIP3    H169412   5.737   3.681   2.461  0.8253  0.8026 -1.1225
15999TIP3    H269413   5.875   3.689   2.523  0.7607  1.4029 -1.0450
16000TIP3   OH269414   5.420   5.185   5.693 -0.1967 -0.3712 -0.1515
16000TIP3    H169415   5.332   5.165   5.725 -0.3060  0.2040 -0.0961
16000TIP3    H269416   5.443   5.268   5.735  0.8325 -1.0739  0.7403
16001TIP3   OH269417   2.469   6.739  13.307 -0.8339  0.0438  0.6137
16001TIP3    H169418   2.455   6.687  13.228  1.8090  0.0898  0.0097
16001TIP3    H269419   2.527   6.685  13.362  1.1303  1.7994  0.4203
16002TIP3   OH269420   6.036   4.389   3.631 -0.2718 -0.2064  0.5187
16002TIP3    H169421   6.032   4.314   3.690  0.1953 -0.4920  0.1893
16002TIP3    H269422   6.006   4.463   3.685 -0.7384 -0.6234  0.8392
16003TIP3   OH269423   6.961   1.748   5.098  0.3886  0.2898 -0.3922
16003TIP3    H169424   7.037   1.689   5.090 -0.7244 -1.1307 -0.9771
16003TIP3    H269425   6.985   1.809   5.167  1.2358 -1.4649  0.9382
16004TIP3   OH269426   2.877   4.865   0.345 -0.3504  0.0227 -0.5979
16004TIP3    H169427   2.967   4.884   0.372 -0.0386  0.1802 -1.6791
16004TIP3    H269428   2.865   4.772   0.365  0.3193 -0.1889 -1.1352
16005TIP3   OH269429   4.139   2.959  10.400 -0.1715 -0.5167  0.1104
16005TIP3    H169430   4.091   2.945  10.481 -1.8921  0.0596 -0.7457
16005TIP3    H269431   4.220   3.003  10.426 -0.8147 -0.0937  1.4761
16006TIP3   OH269432   1.569   3.545  15.211 -0.0524  0.1833 -0.0381
16006TIP3    H169433   1.480   3.513  15.195 -1.4478  3.1884  1.0228
16006TIP3    H269434   1.613   3.538  15.126 -1.9904  0.6077 -1.1226
16007TIP3   OH269435   6.077   6.840   2.320  0.5518 -0.0593  0.0529
16007TIP3    H169436   6.138   6.792   2.376  0.9886 -0.0595 -0.4133
16007TIP3    H269437   6.015   6.880   2.380  0.2945 -1.0524  0.4596
16008TIP3   OH269438   6.156   7.073   3.484 -0.3332 -0.0188  0.6040
16008TIP3    H169439   6.100   7.150   3.495  1.4427  1.3833  0.4488
16008TIP3    H269440   6.104   7.012   3.433 -1.8845  0.9942  0.9146
16009TIP3   OH269441   1.481   5.843   1.218  0.0820  0.0466  0.2406
16009TIP3    H169442   1.425   5.896   1.160  2.1349  1.7512 -0.3073
16009TIP3    H269443   1.493   5.761   1.170 -1.1971 -0.0151 -0.0281
16010TIP3   OH269444   2.300   2.338  12.951  0.3866 -0.2275 -0.1691
16010TIP3    H169445   2.342   2.376  13.029  0.9620 -0.7678 -0.2085
16010TIP3    H269446   2.333   2.391  12.878  1.8334 -1.2831 -0.3175
16011TIP3   OH269447   3.560   1.853   4.707  0.3930  0.0703  0.2021
16011TIP3    H169448   3.628   1.892   4.652  0.2552  1.1612  0.7811
16011TIP3    H269449   3.608   1.815   4.780  0.5061 -0.6248 -0.2269
16012TIP3   OH269450   0.284   4.740   1.558  0.0670  0.1875 -0.0294
16012TIP3    H169451   0.356   4.705   1.611  0.7757  0.6101 -0.6988
16012TIP3    H269452   0.254   4.666   1.506 -0.5224 -0.1900  0.8122
16013TIP3   OH269453   0.566   5.191   2.962  0.1618  0.0511 -0.0975
16013TIP3    H169454   0.595   5.268   3.012  0.4122  0.2989 -0.6144
16013TIP3    H269455   0.646   5.142   2.946  0.0809 -0.0266 -0.2572
16014TIP3   OH269456   2.642   6.432   1.459  0.1384 -0.3876 -0.1663
16014TIP3    H169457   2.652   6.339   1.441 -1.2449 -0.0165 -3.5340
16014TIP3    H269458   2.625   6.471   1.374  0.0984  2.9090  1.2112
16015TIP3   OH269459   1.999   6.437  14.444 -0.1544  0.0745  0.1679
16015TIP3    H169460   1.969   6.418  14.355 -0.8597  0.2440  0.3615
16015TIP3    H269461   1.982   6.357  14.493  1.3228 -0.4379 -0.0987
16016TIP3   OH269462   1.046   4.541   4.497 -0.1856 -0.2948  0.1207
16016TIP3    H169463   1.107   4.495   4.439  1.2010  0.5485  0.8631
16016TIP3    H269464   1.099   4.568   4.572 -1.1593  1.7081  0.1498
16017TIP3   OH269465   6.374   0.773  12.783 -0.3569  0.3973 -0.4033
16017TIP3    H169466   6.344   0.837  12.719  1.0807  0.9661 -0.5531
16017TIP3    H269467   6.405   0.826  12.857 -0.5914 -0.1965  0.1318
16018TIP3   OH269468   0.697   5.034  15.283 -0.6498  0.2261 -0.1801
16018TIP3    H169469   0.734   5.095  15.220 -0.6710  0.0117 -0.4011
16018TIP3    H269470   0.658   5.090  15.351 -1.1956  0.4640 -0.6852
16019TIP3   OH269471   6.466   6.955  15.265  0.5086 -0.2886  0.2983
16019TIP3    H169472   6.449   7.044  15.296  0.8665 -0.7478  1.8986
16019TIP3    H269473   6.395   6.937  15.203  0.5939  1.2014 -0.2613
16020TIP3   OH269474   5.787   4.551   2.333  0.0762 -0.1363 -0.1390
16020TIP3    H169475   5.798   4.487   2.404  0.7625 -1.0613 -1.0407
16020TIP3    H269476   5.724   4.510   2.274  1.0134 -0.2980 -1.0575
16021TIP3   OH269477   0.893   2.915   0.908 -0.5053 -0.0161  0.3454
16021TIP3    H169478   0.880   2.887   0.817 -0.2566 -2.7349  1.0794
16021TIP3    H269479   0.974   2.966   0.905  0.7168 -1.8963 -0.6764
16022TIP3   OH269480   2.056   5.773   5.137  0.7050  0.3351  0.2394
16022TIP3    H169481   2.014   5.742   5.217 -0.9580 -1.0682 -1.1285
16022TIP3    H269482   2.020   5.861   5.124  0.4738  0.3075  0.6633
16023TIP3   OH269483   4.300   6.170   3.500  0.6481  0.5361 -0.7449
16023TIP3    H169484   4.377   6.227   3.496  0.1823  1.3173  0.5612
16023TIP3    H269485   4.229   6.223   3.467  0.2033  0.7646  0.5041
16024TIP3   OH269486   6.795   5.543   4.750  0.4497 -0.0221  0.1981
16024TIP3    H169487   6.713   5.592   4.743 -0.2072 -1.1920 -0.5963
16024TIP3    H269488   6.787   5.493   4.831 -0.2303 -1.1494 -0.5292
16025TIP3   OH269489   2.964   2.450   2.277 -0.4975  0.2106 -0.3819
16025TIP3    H169490   3.053   2.430   2.247 -1.0590 -3.2303 -0.0627
16025TIP3    H269491   2.956   2.408   2.362 -2.5221  0.2323 -0.5003
16026TIP3   OH269492   4.430   6.701   4.027  0.7363  0.0160  0.1908
16026TIP3    H169493   4.366   6.635   4.053 -0.5472  0.9563 -0.4693
16026TIP3    H269494   4.471   6.730   4.109  1.9108 -2.1157  0.4329
16027TIP3   OH269495   5.852   1.894   0.937 -0.4615 -0.0494  0.2601
16027TIP3    H169496   5.760   1.900   0.964 -0.2940  1.6331  0.5862
16027TIP3    H269497   5.853   1.827   0.869 -1.9789  0.0634  0.0902
16028TIP3   OH269498   3.590   0.789   3.489 -0.6014 -0.2656 -0.1345
16028TIP3    H169499   3.647   0.725   3.445 -0.6759 -0.7261  0.4404
16028TIP3    H269500   3.614   0.783   3.581 -0.2403  0.9133 -0.1321
16029TIP3   OH269501   0.653   4.137   4.681 -0.3687 -0.5459  1.1317
16029TIP3    H169502   0.611   4.053   4.700 -0.5947 -0.9501 -0.8996
16029TIP3    H269503   0.719   4.116   4.614 -1.6874  1.1194 -0.8179
16030TIP3   OH269504   2.446   0.487   3.599  0.0874  0.8599 -0.2309
16030TIP3    H169505   2.514   0.437   3.644  0.1353 -0.1971 -1.4269
16030TIP3    H269506   2.434   0.564   3.653  1.6405  0.6626  0.4596
16031TIP3   OH269507   5.928   6.890   0.699  0.0503 -0.2153  0.5663
16031TIP3    H169508   5.991   6.842   0.754  0.7046  3.1988  3.0861
16031TIP3    H269509   5.970   6.975   0.683 -1.5520  0.1290 -2.6507
16032TIP3   OH269510   5.125   5.031   3.952 -0.1855 -0.1078  0.4121
16032TIP3    H169511   5.065   4.970   3.910  0.1040 -0.0390 -0.1154
16032TIP3    H269512   5.068   5.101   3.986 -0.6997 -1.4435  2.4791
16033TIP3   OH269513   0.279   1.940   4.727  0.1587 -0.3250 -0.0009
16033TIP3    H169514   0.332   1.862   4.744 -0.8595 -1.1524 -0.4929
16033TIP3    H269515   0.206   1.933   4.789  0.5866  0.7980  0.6684
16034TIP3   OH269516   4.153   7.050   4.602 -0.3511 -0.0440  0.8324
16034TIP3    H169517   4.239   7.077   4.634 -0.3731  0.7398  0.2566
16034TIP3    H269518   4.171   6.978   4.541  0.1263  1.5035 -0.9508
16035TIP3   OH269519   0.045   0.216   3.557  0.3626  0.3295  0.0934
16035TIP3    H169520  -0.004   0.275   3.500 -0.0800 -0.1327 -0.0073
16035TIP3    H269521   0.102   0.167   3.497  0.8052  0.7163  0.1874
16036TIP3   OH269522   3.452   0.468   3.244  0.6643  0.0545 -0.1768
16036TIP3    H169523   3.443   0.516   3.162 -2.2968  0.0288  0.0086
16036TIP3    H269524   3.399   0.518   3.306  0.8317 -1.2584  1.0634
16037TIP3   OH269525   6.957   0.136   2.859 -0.3565  0.6512  0.2630
16037TIP3    H169526   6.914   0.180   2.785 -0.2467 -1.3501 -1.0692
16037TIP3    H269527   7.050   0.151   2.845 -0.2601 -0.6581 -0.6943
16038TIP3   OH269528   4.831   1.133   1.006  0.8738  0.1429 -0.3033
16038TIP3    H169529   4.921   1.154   0.979  1.6920 -0.6461  1.5899
16038TIP3    H269530   4.842   1.082   1.086 -1.3097  1.2681  0.8064
16039TIP3   OH269531   2.705   2.565   0.296  0.2858  0.0137  1.0251
16039TIP3    H169532   2.694   2.589   0.204 -0.3013  0.2633  1.1588
16039TIP3    H269533   2.632   2.506   0.315 -0.6654  1.3964  1.8156
16040TIP3   OH269534   6.213   5.779   4.748 -0.5002 -0.1450  0.4189
16040TIP3    H169535   6.266   5.781   4.828 -0.8498 -0.8479  0.6746
16040TIP3    H269536   6.249   5.707   4.697 -1.6814 -1.1454  0.9454
16041TIP3   OH269537   1.912   5.158   4.407 -0.4426  0.0749 -0.3468
16041TIP3    H169538   1.973   5.103   4.359 -0.9057 -0.1751 -0.6581
16041TIP3    H269539   1.828   5.146   4.362 -0.8798 -0.1289  0.4961
16042TIP3   OH269540   4.778   4.889   4.049  0.1957 -0.4292  0.1759
16042TIP3    H169541   4.708   4.892   3.984  0.8633 -0.9097 -0.5759
16042TIP3    H269542   4.818   4.975   4.046  0.8733 -0.7660 -0.7859
16043TIP3   OH269543   2.629   0.055   5.497  0.1576 -0.0846  0.5156
16043TIP3    H169544   2.714   0.075   5.537  0.8425  0.7005 -1.2213
16043TIP3    H269545   2.638  -0.036   5.468  0.3304 -0.0707  0.5205
16044TIP3   OH269546   1.439   2.739   3.178  0.0326  0.2650 -0.1829
16044TIP3    H169547   1.407   2.681   3.247 -1.0715 -0.0038 -0.8958
16044TIP3    H269548   1.363   2.792   3.154  0.7941  1.4007 -0.1722
16045TIP3   OH269549   7.208   1.047   2.486 -0.5583  0.0658 -0.2168
16045TIP3    H169550   7.209   1.102   2.564  2.6016  0.6876 -0.5639
16045TIP3    H269551   7.214   1.108   2.413 -0.3486 -0.6304 -0.7981
16046TIP3   OH269552   2.745   2.832  14.965 -0.3756  0.1245  0.0837
16046TIP3    H169553   2.745   2.797  14.876  1.0451  0.2032  0.0409
16046TIP3    H269554   2.822   2.793  15.006 -1.8284 -1.1405  1.7873
16047TIP3   OH269555   6.593   3.496   3.967 -0.2663 -0.4944  0.1618
16047TIP3    H169556   6.548   3.418   3.932 -0.8482  0.3466 -1.0398
16047TIP3    H269557   6.534   3.528   4.036 -0.7104 -0.3474 -0.2780
16048TIP3   OH269558   3.882   1.913   4.306  0.4844 -0.5180 -0.1076
16048TIP3    H169559   3.927   1.837   4.343 -1.8327 -2.1961 -0.5322
16048TIP3    H269560   3.904   1.911   4.213  0.5359 -0.5665 -0.0942
16049TIP3   OH269561   6.444   4.332   4.603  0.6070 -0.4779 -0.9350
16049TIP3    H169562   6.417   4.294   4.687  0.9197 -1.6903 -1.3625
16049TIP3    H269563   6.363   4.344   4.554  0.4159  0.3046 -0.4468
16050TIP3   OH269564   0.296   3.421   4.901  0.1366  0.8600 -0.1099
16050TIP3    H169565   0.374   3.448   4.851 -0.3243  0.6716 -0.9437
16050TIP3    H269566   0.315   3.331   4.927  0.6855  1.1867  0.7060
16051TIP3   OH269567   3.298   3.572   3.837  0.5073  0.5426  0.3994
16051TIP3    H169568   3.322   3.544   3.749  0.8207  0.1471  0.6062
16051TIP3    H269569   3.330   3.661   3.845 -1.0370  1.2174 -0.4895
16052TIP3   OH269570   0.925   0.187   5.759  0.1052 -0.2987  0.2160
16052TIP3    H169571   0.971   0.268   5.740 -0.0441  0.0230  1.1906
16052TIP3    H269572   0.990   0.133   5.805  0.0343 -0.5185  0.0605
16053TIP3   OH269573   0.858   0.122   5.033 -0.7473 -0.0095 -0.2327
16053TIP3    H169574   0.806   0.050   4.998 -0.7653  0.2184 -0.6757
16053TIP3    H269575   0.887   0.171   4.956  1.2584 -0.8883 -0.0876
16054TIP3   OH269576   3.224   3.160   0.798 -0.2129  0.1071  0.7746
16054TIP3    H169577   3.148   3.192   0.749  0.6199 -1.3747 -1.6335
16054TIP3    H269578   3.290   3.229   0.788 -1.1414  1.4280  2.9253
16055TIP3   OH269579   0.668   4.559  15.123 -0.0227  0.6064  0.1412
16055TIP3    H169580   0.656   4.651  15.100 -0.9784  0.4020 -0.2115
16055TIP3    H269581   0.719   4.522  15.052  0.7435  0.9567  0.4985
16056TIP3   OH269582   4.634   6.367   4.866 -0.5291 -0.5907  0.3990
16056TIP3    H169583   4.558   6.330   4.910  0.1765 -2.7550 -0.0766
16056TIP3    H269584   4.706   6.308   4.888  0.3461 -0.4159 -1.7127
16057TIP3   OH269585   4.007   5.571   0.643  0.4911  0.0140  0.3091
16057TIP3    H169586   3.963   5.652   0.669  1.5288  0.2790  1.2656
16057TIP3    H269587   3.980   5.507   0.708  1.9065  0.3095  1.2248
16058TIP3   OH269588   6.904   0.245   5.668  0.5408 -0.0384  0.4346
16058TIP3    H169589   6.976   0.200   5.713 -0.8924 -0.2730  2.6431
16058TIP3    H269590   6.828   0.189   5.683 -0.3296  0.7229 -0.9548
16059TIP3   OH269591   4.117   3.755   2.648  0.0588 -0.1087 -0.2224
16059TIP3    H169592   4.044   3.730   2.705  0.5006 -0.6898  0.0966
16059TIP3    H269593   4.109   3.698   2.572  0.3646 -0.3848 -0.0456
16060TIP3   OH269594   4.777   3.275   4.826 -0.0622 -0.8242 -0.4078
16060TIP3    H169595   4.746   3.330   4.754  1.3869  0.8313  0.1540
16060TIP3    H269596   4.862   3.242   4.796 -0.2701 -1.6237 -0.1553
16061TIP3   OH269597   4.928   3.551   4.045  0.1158 -0.0215 -0.1502
16061TIP3    H169598   4.968   3.591   3.968  0.4141 -2.6651 -1.4920
16061TIP3    H269599   4.994   3.489   4.077 -1.0778 -1.0371  0.4530
16062TIP3   OH269600   2.682   0.163   2.222  0.4716 -0.2768 -0.7951
16062TIP3    H169601   2.612   0.100   2.205  0.2077  0.3700 -2.2419
16062TIP3    H269602   2.746   0.147   2.153  1.5188 -0.4826  0.1840
16063TIP3   OH269603   0.411   4.336   2.409 -0.1513 -0.6701  0.2046
16063TIP3    H169604   0.463   4.309   2.333 -0.2802 -0.0747 -0.1022
16063TIP3    H269605   0.471   4.389   2.461 -1.3280  3.2363 -1.9775
16064TIP3   OH269606   6.393   2.458   0.098  0.1396  0.3020  0.7227
16064TIP3    H169607   6.368   2.373   0.064  2.8003 -0.5279  0.6855
16064TIP3    H269608   6.310   2.496   0.130 -1.4109 -1.4236 -1.0046
16065TIP3   OH269609   6.821   0.255   5.116  0.2987  0.0669  0.1367
16065TIP3    H169610   6.753   0.322   5.109  0.1929 -0.1714 -1.5016
16065TIP3    H269611   6.863   0.272   5.200 -1.1971  0.7707  0.7770
16066TIP3   OH269612   5.750   4.426   0.628 -0.2898  0.1952  0.3129
16066TIP3    H169613   5.681   4.365   0.654  0.5540 -1.1773 -0.5096
16066TIP3    H269614   5.826   4.401   0.681  0.1507  0.3236 -0.2415
16067TIP3   OH269615   6.596   6.003   3.574 -0.4027 -0.0841 -0.4505
16067TIP3    H169616   6.555   5.930   3.621  0.1565 -0.5914 -0.7266
16067TIP3    H269617   6.550   6.005   3.489 -0.1113 -0.4122 -0.6177
16068TIP3   OH269618   1.027   0.153   1.592 -0.6612 -0.3908  0.3072
16068TIP3    H169619   1.097   0.186   1.648 -0.6104 -0.5675  0.3489
16068TIP3    H269620   0.967   0.109   1.652  0.0602 -1.7309  0.0822
16069TIP3   OH269621   5.581   3.920  10.721  0.2056  0.4682 -0.2952
16069TIP3    H169622   5.526   3.966  10.658  0.6510  1.0223 -0.2909
16069TIP3    H269623   5.645   3.986  10.749  0.6940 -0.0831 -0.0933
16070TIP3   OH269624   2.007   1.208  13.458  0.5519  0.0145  0.4678
16070TIP3    H169625   1.967   1.148  13.395 -1.4386 -1.5793  3.0510
16070TIP3    H269626   2.070   1.258  13.406 -1.3801 -0.7044 -2.8909
16071TIP3   OH269627   3.116   6.513   3.658 -0.8565  0.0348  0.0819
16071TIP3    H169628   3.105   6.604   3.685 -0.0106 -0.0147  0.6448
16071TIP3    H269629   3.031   6.488   3.623 -1.0944  1.0511 -0.1164
16072TIP3   OH269630   7.166   6.919   5.254  0.3299  0.0918  0.1569
16072TIP3    H169631   7.079   6.916   5.292  0.5625  1.6151  0.8884
16072TIP3    H269632   7.219   6.862   5.309  0.5917  2.0126  2.0479
16073TIP3   OH269633   6.546   3.827   4.231 -0.3000 -0.8443  0.1714
16073TIP3    H169634   6.462   3.855   4.197 -0.2828  1.1229  1.6089
16073TIP3    H269635   6.611   3.870   4.175 -0.2839  0.6982  1.3097
16074TIP3   OH269636   1.129   2.833   2.352 -0.3318  0.6840 -0.2762
16074TIP3    H169637   1.167   2.770   2.413  1.8166  1.9847 -0.1674
16074TIP3    H269638   1.051   2.866   2.398 -0.7024 -0.8290  0.2454
16075TIP3   OH269639   2.889   1.784   3.780  0.3869  0.2192 -0.3657
16075TIP3    H169640   2.902   1.750   3.868  1.2842  1.4260 -0.0082
16075TIP3    H269641   2.977   1.787   3.742 -0.0049 -0.4040 -1.3603
16076TIP3   OH269642   4.002   4.622   2.016 -0.3941 -0.0707 -0.0827
16076TIP3    H169643   4.013   4.543   2.069 -0.0030 -0.9826 -1.4688
16076TIP3    H269644   3.909   4.620   1.989 -0.2891 -0.2955 -0.4450
16077TIP3   OH269645   1.162   4.463  11.832 -0.5671 -0.3089  0.5686
16077TIP3    H169646   1.202   4.407  11.765 -0.7624 -0.0623  0.2453
16077TIP3    H269647   1.198   4.550  11.815 -0.8396 -0.1882  0.5999
16078TIP3   OH269648   4.072   5.704   5.214  0.0592 -0.0063  0.1266
16078TIP3    H169649   4.054   5.710   5.308 -1.4257  0.8298 -0.1648
16078TIP3    H269650   4.090   5.794   5.187  1.4928 -0.3802 -0.2251
16079TIP3   OH269651   6.485   1.980   0.361  0.1755 -0.8990  0.1250
16079TIP3    H169652   6.409   2.030   0.388  0.8019 -0.4137  1.0538
16079TIP3    H269653   6.550   1.997   0.429  0.9792 -1.6120 -0.4437
16080TIP3   OH269654   6.165   6.518   1.551  0.1415 -0.2165  0.0755
16080TIP3    H169655   6.255   6.507   1.583 -0.0149 -0.9495  0.2805
16080TIP3    H269656   6.114   6.457   1.603 -0.4266 -0.0453 -0.2763
16081TIP3   OH269657   0.167   5.567   3.626 -0.2912 -0.0212  0.6410
16081TIP3    H169658   0.083   5.550   3.669  0.8084  0.3770  3.1326
16081TIP3    H269659   0.231   5.525   3.683  1.2528 -0.0401 -1.0336
16082TIP3   OH269660   0.325   1.247   1.898  0.4049 -0.1778 -0.3230
16082TIP3    H169661   0.251   1.298   1.931 -0.4752 -1.0596 -0.8903
16082TIP3    H269662   0.305   1.157   1.922  0.4240 -0.6673 -1.9904
16083TIP3   OH269663   4.693   2.655   2.084 -0.4467  0.4114  0.0930
16083TIP3    H169664   4.773   2.697   2.053 -0.6175 -1.0234 -2.5855
16083TIP3    H269665   4.646   2.725   2.129  0.6365  2.2915 -1.5169
16084TIP3   OH269666   0.624   2.951   2.949 -0.1697  0.1958  0.3646
16084TIP3    H169667   0.682   3.007   2.898  0.0017 -1.2323 -1.0844
16084TIP3    H269668   0.682   2.890   2.995 -0.4423 -0.3318  0.0230
16085TIP3   OH269669   7.084   3.344   4.440  0.2602  0.7970  0.0117
16085TIP3    H169670   7.090   3.264   4.492  0.2360  0.2649 -0.8019
16085TIP3    H269671   7.174   3.377   4.436  0.7910 -0.6932 -1.9722
16086TIP3   OH269672   1.682   6.897   5.674  0.1428 -0.3308  0.6663
16086TIP3    H169673   1.623   6.908   5.748 -0.1645 -1.4106  0.6068
16086TIP3    H269674   1.747   6.834   5.704 -0.0332 -0.8455  0.0072
16087TIP3   OH269675   0.166   5.229  15.093 -0.2776  0.2278  0.2573
16087TIP3    H169676   0.096   5.235  15.158 -0.7735 -0.4481 -0.2030
16087TIP3    H269677   0.125   5.256  15.011  0.0273 -0.0657  0.0035
16088TIP3   OH269678   4.210   6.314  14.182  0.1348  0.0000  0.2390
16088TIP3    H169679   4.255   6.230  14.175 -0.6347 -0.4263  0.3441
16088TIP3    H269680   4.242   6.351  14.265 -0.3544 -0.6981  0.7534
16089TIP3   OH269681   2.172   1.867   4.996 -0.1701  0.5923 -0.1840
16089TIP3    H169682   2.156   1.837   4.907  2.4099  1.0922 -0.9016
16089TIP3    H269683   2.125   1.950   5.002  1.3955  1.6818 -1.9157
16090TIP3   OH269684   0.537   0.044   5.634  0.3169 -0.1393  0.0232
16090TIP3    H169685   0.520   0.138   5.641  0.4595  0.0017 -1.2410
16090TIP3    H269686   0.631   0.037   5.619  0.3118 -0.4804  0.1315
16091TIP3   OH269687   6.974   4.078  13.503 -0.0658  0.0109 -0.1532
16091TIP3    H169688   6.976   4.121  13.588  2.6693  1.9643 -1.0357
16091TIP3    H269689   6.985   3.985  13.523 -0.4970  0.3091  1.6577
16092TIP3   OH269690   4.367   4.381  15.182 -0.8739  0.0134 -0.1838
16092TIP3    H169691   4.392   4.432  15.106  1.3460  1.5173  1.4260
16092TIP3    H269692   4.407   4.295  15.167  2.5417  1.2911  0.6561
16093TIP3   OH269693   6.844   5.884   1.594 -0.4364  0.3343 -0.3741
16093TIP3    H169694   6.837   5.899   1.499 -1.0256  2.2026 -0.0729
16093TIP3    H269695   6.854   5.971   1.631 -0.2593 -0.3715  1.3035
16094TIP3   OH269696   7.075   4.144   5.151  0.7313  0.1132  0.2943
16094TIP3    H169697   7.069   4.218   5.091 -2.0626 -0.4312 -0.2719
16094TIP3    H269698   7.141   4.087   5.113  1.6824  1.5052 -0.1975
16095TIP3   OH269699   0.791   2.895   2.672 -0.3849 -0.1732 -0.3785
16095TIP3    H169700   0.702   2.875   2.703 -0.1109  0.3669  0.8350
16095TIP3    H269701   0.829   2.809   2.652 -1.6475 -0.3279 -2.3570
16096TIP3   OH269702   4.788   5.500   3.662  0.0739  0.2924  0.4155
16096TIP3    H169703   4.848   5.508   3.588  0.4091 -0.6453  0.5754
16096TIP3    H269704   4.777   5.590   3.693  0.7396  0.5735 -0.1295
16097TIP3   OH269705   2.211   4.034  13.811  0.1234 -0.0087 -0.1976
16097TIP3    H169706   2.179   4.032  13.901  1.2131  1.8418  0.2856
16097TIP3    H269707   2.136   4.066  13.760 -0.1225  0.1523  0.2603
16098TIP3   OH269708   0.762   6.342  10.649  0.1865  0.0920 -0.1502
16098TIP3    H169709   0.679   6.358  10.694 -0.6065 -2.6811 -0.4397
16098TIP3    H269710   0.818   6.414  10.676 -2.1739  1.8874  0.3420
16099TIP3   OH269711   3.069   6.525   4.437  0.1876  0.2567 -0.2136
16099TIP3    H169712   3.115   6.457   4.387 -1.7242  0.3773 -2.2928
16099TIP3    H269713   3.134   6.595   4.446  0.6033  0.3537 -2.8908
16100TIP3   OH269714   6.212   0.704   4.998  0.7215 -0.7147  0.3769
16100TIP3    H169715   6.185   0.766   5.066  2.2930  0.1231  0.2837
16100TIP3    H269716   6.137   0.700   4.938 -0.3457 -0.7989  1.6813
16101TIP3   OH269717   3.879   3.372   4.632  0.2187 -0.4671 -0.4197
16101TIP3    H169718   3.901   3.281   4.614  1.2561 -0.1503 -0.8510
16101TIP3    H269719   3.912   3.389   4.720 -2.1656 -1.1705  0.6684
16102TIP3   OH269720   5.692   0.131   4.582 -0.3747  0.3211  0.2800
16102TIP3    H169721   5.734   0.121   4.496 -1.6470 -0.3652 -0.2843
16102TIP3    H269722   5.699   0.044   4.622 -0.3299  0.4793  0.6153
16103TIP3   OH269723   5.503   4.377   2.358 -0.3269 -0.4706  0.8691
16103TIP3    H169724   5.547   4.365   2.442 -0.1094  1.5785  1.0785
16103TIP3    H269725   5.431   4.438   2.376 -0.2286  0.0711 -0.4388
16104TIP3   OH269726   3.149   2.835   2.240 -0.0719 -0.1589  0.1517
16104TIP3    H169727   3.115   2.886   2.314 -0.6629 -0.6439  0.2108
16104TIP3    H269728   3.157   2.746   2.273 -0.9158 -0.5053 -0.5430
16105TIP3   OH269729   6.645   4.880  14.777  0.4989 -0.1747  0.3069
16105TIP3    H169730   6.550   4.878  14.769  0.4874  1.3108 -0.3485
16105TIP3    H269731   6.667   4.973  14.774  2.1398 -0.5496 -1.8978
16106TIP3   OH269732   0.296   5.273   5.238 -0.0233 -0.5389 -0.3445
16106TIP3    H169733   0.374   5.261   5.185 -0.7368  0.7167 -1.7659
16106TIP3    H269734   0.324   5.328   5.311 -0.0963  2.2756 -2.3232
16107TIP3   OH269735   3.385   2.619   4.013  0.0719 -0.1032  0.2921
16107TIP3    H169736   3.455   2.560   4.043  0.8877  1.3241  1.2850
16107TIP3    H269737   3.314   2.606   4.075 -0.0758 -0.6246  0.0240
16108TIP3   OH269738   2.996   1.258   3.187  0.3037  0.3803 -0.5004
16108TIP3    H169739   2.983   1.173   3.229 -0.1753 -0.3845 -2.1020
16108TIP3    H269740   2.916   1.307   3.207  0.9365  0.8139  1.1398
16109TIP3   OH269741   6.929   6.847   1.501 -1.0103 -0.3700  0.6028
16109TIP3    H169742   6.862   6.884   1.444 -1.1969 -2.6047 -0.7671
16109TIP3    H269743   6.928   6.753   1.481  2.0272 -0.6004  1.0426
16110TIP3   OH269744   4.960   2.221   4.578 -0.1369  0.0031 -0.5676
16110TIP3    H169745   4.913   2.218   4.661  1.6092  0.6197  0.4837
16110TIP3    H269746   4.922   2.295   4.531 -2.2074 -1.2741 -1.0473
16111TIP3   OH269747   0.570   4.428   5.075  0.2802  0.1215  0.0337
16111TIP3    H169748   0.594   4.456   5.164 -1.1340 -0.0192  0.4821
16111TIP3    H269749   0.499   4.487   5.050  1.1354  0.6439 -1.3287
16112TIP3   OH269750   0.934   2.975   3.053 -0.1016  0.1905  0.7226
16112TIP3    H169751   0.965   2.960   3.142  1.1826  0.3978  0.3217
16112TIP3    H269752   0.960   2.896   3.005 -1.2264 -0.1391  0.6310
16113TIP3   OH269753   5.243   0.196   1.561  0.5847 -0.5515 -0.0839
16113TIP3    H169754   5.291   0.252   1.622 -0.2369  0.6330 -0.4881
16113TIP3    H269755   5.228   0.115   1.610  1.9741 -0.5236  0.4425
16114TIP3   OH269756   2.052   4.718   3.586 -0.3017  0.1309 -0.0437
16114TIP3    H169757   2.074   4.779   3.515 -0.5075 -0.4317 -0.5978
16114TIP3    H269758   2.136   4.683   3.615 -0.2847 -0.4205 -0.7241
16115TIP3   OH269759   4.556   1.867  15.189 -0.8565 -0.0344 -0.2388
16115TIP3    H169760   4.506   1.859  15.108 -0.3006 -0.6348 -0.5347
16115TIP3    H269761   4.644   1.836  15.166 -0.3718  0.9087  0.2949
16116TIP3   OH269762   6.730   6.316   0.865  0.4788 -0.8058 -0.1285
16116TIP3    H169763   6.674   6.305   0.941  1.0019 -1.8167  0.1157
16116TIP3    H269764   6.692   6.259   0.798  0.6557 -0.7523 -0.2766
16117TIP3   OH269765   3.526   0.995   3.762  0.0101  0.1256  0.1695
16117TIP3    H169766   3.564   0.908   3.760 -1.0717 -0.3749  0.4932
16117TIP3    H269767   3.534   1.027   3.672 -1.6134 -1.2365 -0.5231
16118TIP3   OH269768   3.399   6.021   3.330  0.1625  0.0002 -0.2488
16118TIP3    H169769   3.385   6.115   3.334  1.7654  0.2410  0.1984
16118TIP3    H269770   3.337   5.985   3.394 -0.6349  0.7176 -0.6052
16119TIP3   OH269771   2.468   6.307  14.310 -0.1079  0.2536 -0.0583
16119TIP3    H169772   2.502   6.357  14.236  0.0347 -0.7498 -0.6888
16119TIP3    H269773   2.407   6.366  14.353  2.0172  1.9390  0.8111
16120TIP3   OH269774   4.261   0.712   5.735 -0.0885  0.2611 -0.3509
16120TIP3    H169775   4.289   0.749   5.652 -1.8285  2.3084 -0.1056
16120TIP3    H269776   4.190   0.652   5.712  0.8471 -0.8182 -0.4958
16121TIP3   OH269777   0.176   0.772   2.721 -0.0491 -0.2552 -0.5022
16121TIP3    H169778   0.134   0.850   2.757 -0.6303  0.3381 -2.3518
16121TIP3    H269779   0.233   0.805   2.652  0.0044 -1.4285 -1.0429
16122TIP3   OH269780   4.113   1.672   1.377  0.2193 -0.2467  0.5061
16122TIP3    H169781   4.055   1.650   1.451  0.9533  0.4213  1.2976
16122TIP3    H269782   4.198   1.637   1.402  0.5574  0.3082  0.1473
16123TIP3   OH269783   3.593   5.596   1.445  0.5399 -0.1241  0.6198
16123TIP3    H169784   3.626   5.507   1.436 -0.0984 -0.4769  1.5800
16123TIP3    H269785   3.546   5.596   1.529  0.0959  0.9767  0.3936
16124TIP3   OH269786   6.864   3.506   3.125 -0.3504  0.8353  0.1089
16124TIP3    H169787   6.780   3.488   3.168  0.3668 -1.0769  0.8212
16124TIP3    H269788   6.886   3.595   3.150 -0.6343  0.2653  2.5769
16125TIP3   OH269789   5.172   0.274   4.749 -0.4878 -0.2399  0.1415
16125TIP3    H169790   5.255   0.231   4.767  0.0250  0.9531  0.7530
16125TIP3    H269791   5.117   0.251   4.824 -0.3368 -0.1294  0.2869
16126TIP3   OH269792   6.531   3.776   2.458 -0.0086  0.3522  0.5963
16126TIP3    H169793   6.565   3.790   2.369  0.8227 -0.1572  0.8213
16126TIP3    H269794   6.608   3.755   2.510 -0.3469  1.6311  1.6656
16127TIP3   OH269795   5.137   2.381  12.212 -0.1333 -0.3032 -0.3216
16127TIP3    H169796   5.135   2.427  12.129 -0.6526  0.1117 -0.0863
16127TIP3    H269797   5.219   2.408  12.253  0.3191 -0.8262 -0.8704
16128TIP3   OH269798   4.996   0.981   1.995 -0.2081 -0.0265 -0.1618
16128TIP3    H169799   5.028   1.071   2.006 -0.3082  0.1299 -1.0718
16128TIP3    H269800   4.912   0.991   1.951  0.2345 -0.5928 -1.1715
16129TIP3   OH269801   0.851   1.849   2.365  0.4994  0.5648  0.3396
16129TIP3    H169802   0.820   1.914   2.428 -0.0626  1.8819 -1.2098
16129TIP3    H269803   0.908   1.899   2.306  1.4050 -0.7321  0.0695
16130TIP3   OH269804   5.338   7.034   4.889 -0.3711 -0.1251  0.1369
16130TIP3    H169805   5.286   6.967   4.933 -1.8178 -0.2850 -1.6941
16130TIP3    H269806   5.427   6.998   4.889 -0.6610 -0.9233  1.2740
16131TIP3   OH269807   2.869   2.990   3.787  0.2146  0.1935 -0.1562
16131TIP3    H169808   2.856   3.023   3.698  1.5145  0.7510 -0.1576
16131TIP3    H269809   2.906   3.064   3.835  0.2400 -0.3348  0.6575
16132TIP3   OH269810   3.059   0.106  15.320 -0.3295  0.6281  0.1923
16132TIP3    H169811   3.034   0.019  15.350  2.1919 -0.0716  0.5062
16132TIP3    H269812   3.025   0.166  15.388 -2.0825 -0.0486 -0.0319
16133TIP3   OH269813   2.692   5.251   1.450  0.0788  0.3145 -0.0056
16133TIP3    H169814   2.761   5.195   1.415 -0.1980  0.2317 -0.4210
16133TIP3    H269815   2.665   5.207   1.531 -1.3297 -1.1105 -1.1938
16134TIP3   OH269816   4.928   2.587   5.367 -0.1432  0.2400 -0.4244
16134TIP3    H169817   5.005   2.642   5.354 -0.1516  0.4084  0.2030
16134TIP3    H269818   4.922   2.576   5.462 -0.4145 -0.4577 -0.5197
16135TIP3   OH269819   6.977   7.032  15.129  1.0669  1.1036  0.0980
16135TIP3    H169820   6.996   7.071  15.044 -0.9331 -0.8261 -1.3421
16135TIP3    H269821   6.896   7.075  15.158  1.0427  0.8574  0.4059
16136TIP3   OH269822   6.250   0.108   3.168 -0.0912 -0.0160  0.0141
16136TIP3    H169823   6.215   0.138   3.252 -0.5083  1.3004 -0.6211
16136TIP3    H269824   6.202   0.027   3.150  0.3360 -0.5753  1.2560
16137TIP3   OH269825   2.808   0.159   5.223  0.1102 -0.3672 -0.2816
16137TIP3    H169826   2.756   0.081   5.240 -0.4758  0.4798  2.2701
16137TIP3    H269827   2.861   0.170   5.302  1.2189  1.0549 -1.1640
16138TIP3   OH269828   1.288   1.305   1.943  0.0746  0.0807  0.1136
16138TIP3    H169829   1.336   1.238   1.893  0.7960  0.1878  0.6388
16138TIP3    H269830   1.198   1.273   1.947  0.2863 -0.5608 -0.1532
16139TIP3   OH269831   2.403   3.754   3.423 -0.1202  0.5098 -0.3523
16139TIP3    H169832   2.310   3.756   3.402 -0.1729 -1.7605 -0.5255
16139TIP3    H269833   2.407   3.739   3.517 -0.0728 -3.0605 -0.7784
16140TIP3   OH269834   5.622   6.513   0.322  0.1172 -0.3558  0.1952
16140TIP3    H169835   5.689   6.582   0.333 -0.5011  0.1854  0.6618
16140TIP3    H269836   5.596   6.491   0.411 -1.6389  0.7568 -0.0017
16141TIP3   OH269837   4.224   6.319  15.220  0.4959 -0.0579  0.8001
16141TIP3    H169838   4.170   6.330  15.297  0.6687 -1.1553  1.0962
16141TIP3    H269839   4.292   6.257  15.247  0.2280 -0.8961 -0.3918
16142TIP3   OH269840   1.679   2.749   2.930  0.9694  1.2568  0.4611
16142TIP3    H169841   1.716   2.680   2.875 -0.7310  0.9826 -0.4211
16142TIP3    H269842   1.608   2.785   2.877 -0.4692  1.2537  2.3208
16143TIP3   OH269843   4.629   6.431  12.218  0.2983  0.8842  0.2860
16143TIP3    H169844   4.566   6.497  12.190  0.3238  0.7161 -0.1768
16143TIP3    H269845   4.691   6.478  12.273  0.1253  1.1776  0.2299
16144TIP3   OH269846   4.760   0.577   5.006 -0.3395 -0.1407  0.2394
16144TIP3    H169847   4.748   0.596   4.913  1.1639  0.3399  0.1105
16144TIP3    H269848   4.831   0.636   5.034 -1.5472  0.5725  1.9880
16145TIP3   OH269849   3.764   4.523   4.795 -0.1747  0.3158  0.3990
16145TIP3    H169850   3.740   4.549   4.884  0.2949  0.5695  0.4574
16145TIP3    H269851   3.859   4.515   4.798 -0.2842 -1.2232  0.3234
16146TIP3   OH269852   3.876   6.183   2.509  0.3641 -0.2060 -0.1972
16146TIP3    H169853   3.909   6.097   2.536  0.3241 -0.1568  0.0059
16146TIP3    H269854   3.867   6.232   2.590 -1.0639 -0.5169 -0.1416
16147TIP3   OH269855   3.576   0.730  11.451  0.1648  0.2857 -0.8807
16147TIP3    H169856   3.489   0.693  11.435 -0.9189  2.2576  0.0191
16147TIP3    H269857   3.560   0.824  11.460  2.2407  0.5608  0.5295
16148TIP3   OH269858   1.486   1.735   3.586 -0.1121  0.3352  0.1479
16148TIP3    H169859   1.444   1.706   3.667  2.1543 -0.3573  1.1635
16148TIP3    H269860   1.423   1.715   3.517 -1.7666  0.1638  1.6411
16149TIP3   OH269861   1.410   1.691  12.840  0.1874  0.0046  0.8260
16149TIP3    H169862   1.398   1.747  12.917 -0.1896 -0.6238  1.2237
16149TIP3    H269863   1.422   1.603  12.875 -2.3028 -0.7090  0.1328
16150TIP3   OH269864   0.461   2.908   2.012  0.2598 -0.0826 -0.4444
16150TIP3    H169865   0.463   2.970   1.939  0.7191 -0.2025 -0.5319
16150TIP3    H269866   0.381   2.857   1.997 -1.7280  2.3132  1.1436
16151TIP3   OH269867   1.952   0.762   1.023  0.3716  0.5274 -0.3280
16151TIP3    H169868   1.987   0.831   1.079  1.4115 -0.7119  0.5998
16151TIP3    H269869   1.923   0.808   0.944 -0.2079  2.1891  0.7823
16152TIP3   OH269870   1.826   0.573   0.836 -0.0700  0.7383 -0.6391
16152TIP3    H169871   1.833   0.638   0.905 -1.2453  0.2995 -0.0975
16152TIP3    H269872   1.809   0.491   0.881  1.4910  0.0046 -1.3085
16153TIP3   OH269873   6.958   5.315   2.671 -0.1443 -0.1549 -0.9206
16153TIP3    H169874   7.048   5.328   2.641  1.0279  2.0353  2.8760
16153TIP3    H269875   6.938   5.225   2.648  2.9899 -0.7092 -1.9922
16154TIP3   OH269876   3.872   2.700   3.269  0.4490  0.0074 -0.1206
16154TIP3    H169877   3.896   2.670   3.182  0.3078  0.3871 -0.2926
16154TIP3    H269878   3.954   2.700   3.319  0.6811  0.5887 -0.4913
16155TIP3   OH269879   7.002   3.103   3.504 -0.0054 -0.0095 -0.0363
16155TIP3    H169880   6.979   3.049   3.579 -0.5696  1.6116  1.0203
16155TIP3    H269881   6.918   3.129   3.466  0.2663 -1.2249 -1.5957
16156TIP3   OH269882   5.316   3.053  13.997  0.1126  0.1674 -0.1665
16156TIP3    H169883   5.252   3.063  14.067 -0.7312 -0.2093 -0.8575
16156TIP3    H269884   5.393   3.100  14.027  0.1038 -0.7586  1.4179
16157TIP3   OH269885   1.645   3.776   5.091  0.5672 -0.1319 -0.1778
16157TIP3    H169886   1.603   3.860   5.069 -0.2861 -0.5837 -0.2889
16157TIP3    H269887   1.610   3.754   5.177  1.1805 -0.1358  0.0772
16158TIP3   OH269888   5.636   6.889   1.817  0.3420 -0.3864  0.0541
16158TIP3    H169889   5.707   6.952   1.805  0.0885 -0.3978 -1.6709
16158TIP3    H269890   5.677   6.804   1.800  0.0585 -0.4454 -0.3421
16159TIP3   OH269891   6.989   2.642   2.069  0.1673 -0.3275 -0.4474
16159TIP3    H169892   6.989   2.728   2.111 -0.4529 -0.3479 -0.3881
16159TIP3    H269893   6.944   2.585   2.131 -2.0701 -0.0526 -1.6945
16160TIP3   OH269894   2.438   4.106   2.996  0.3131 -0.3042 -0.3596
16160TIP3    H169895   2.448   4.037   3.062 -0.6094 -1.4832 -1.4049
16160TIP3    H269896   2.473   4.068   2.916  0.9428  0.9256 -0.6934
16161TIP3   OH269897   2.908   2.941   2.979 -0.5598  0.0206 -0.2895
16161TIP3    H169898   2.876   3.031   2.978 -1.4180 -0.2692 -0.6032
16161TIP3    H269899   2.837   2.891   3.021  0.4212 -0.3318  0.9972
16162TIP3   OH269900   6.168   5.219  11.554  1.1504  0.5145  1.0583
16162TIP3    H169901   6.170   5.176  11.640  0.3068 -0.6714  0.5192
16162TIP3    H269902   6.086   5.188  11.514  2.3776 -0.4045 -0.8845
16163TIP3   OH269903   6.326   2.877   1.742  0.0104 -0.1391 -0.1316
16163TIP3    H169904   6.296   2.967   1.732 -2.1758 -0.6858  0.8112
16163TIP3    H269905   6.369   2.875   1.827  1.3386  0.2953 -0.7732
16164TIP3   OH269906   2.705   1.215   5.429  0.3118 -0.3424  0.2838
16164TIP3    H169907   2.679   1.226   5.521 -0.2601  0.3878  0.0357
16164TIP3    H269908   2.705   1.303   5.393  1.6866 -0.4853 -0.1220
16165TIP3   OH269909   1.324   6.324  14.905  0.3931  0.4478 -0.1450
16165TIP3    H169910   1.289   6.377  14.833 -0.6085  1.1793  0.8403
16165TIP3    H269911   1.288   6.237  14.889 -0.5880  0.8168 -0.0517
16166TIP3   OH269912   5.230   0.819   3.414  0.3146  0.2877 -0.9053
16166TIP3    H169913   5.227   0.850   3.504 -0.6428 -0.9987 -0.4625
16166TIP3    H269914   5.226   0.898   3.361 -1.2460  0.9949  0.1765
16167TIP3   OH269915   1.340   4.827   2.454 -0.0411  0.2669  0.7174
16167TIP3    H169916   1.393   4.775   2.515  0.6872  0.9963  0.7215
16167TIP3    H269917   1.334   4.913   2.495 -2.1222 -0.0747  1.2183
16168TIP3   OH269918   3.240   5.229  15.303 -0.2175  0.9814  0.6034
16168TIP3    H169919   3.218   5.204  15.213 -4.7828 -0.9237  1.9713
16168TIP3    H269920   3.316   5.175  15.324  0.5811  0.9936 -1.8453
16169TIP3   OH269921   5.920   3.503   0.412  0.1729  0.5785 -0.3016
16169TIP3    H169922   5.888   3.513   0.501 -0.5383 -0.0805 -0.4757
16169TIP3    H269923   5.892   3.583   0.367 -0.3000  0.4828 -0.1771
16170TIP3   OH269924   6.034   6.755   3.649 -0.0924 -0.3368 -0.2083
16170TIP3    H169925   5.969   6.730   3.584 -0.5667 -0.9240  0.4795
16170TIP3    H269926   5.983   6.779   3.726  0.5112 -1.3457  0.5311
16171TIP3   OH269927   6.160   0.988   4.065 -0.2404 -0.4168  0.4020
16171TIP3    H169928   6.220   0.986   4.139 -0.6234 -0.7601  0.7120
16171TIP3    H269929   6.204   0.938   3.996  0.9185  1.3839 -0.2554
16172TIP3   OH269930   2.245   5.613   3.065  0.3093 -0.3435 -0.3187
16172TIP3    H169931   2.231   5.614   3.160 -1.2587  0.5778 -0.5159
16172TIP3    H269932   2.323   5.559   3.053  0.1482 -1.0478  1.4398
16173TIP3   OH269933   3.043   7.203  14.045 -0.9832 -0.3189 -0.8718
16173TIP3    H169934   3.110   7.197  13.977 -2.6716  2.2352 -2.9663
16173TIP3    H269935   3.092   7.209  14.127  1.1647 -2.3699 -1.8975
16174TIP3   OH269936   3.370   1.239   3.818 -0.0231 -0.2164  0.7492
16174TIP3    H169937   3.293   1.240   3.875 -0.5480 -0.1936  0.0570
16174TIP3    H269938   3.405   1.151   3.827 -0.8860 -0.6421  0.0975
16175TIP3   OH269939   2.513   5.546   4.098  0.1020 -0.2634 -0.2166
16175TIP3    H169940   2.534   5.635   4.127  2.1609 -0.9917  0.7233
16175TIP3    H269941   2.428   5.554   4.053  0.5234  2.2497 -0.6787
16176TIP3   OH269942   7.162   3.581   2.486  0.7532  0.7980  0.4245
16176TIP3    H169943   7.237   3.582   2.545  0.0280  2.9674  1.4050
16176TIP3    H269944   7.178   3.653   2.425  0.3929  0.0237 -0.6084
16177TIP3   OH269945   6.484   7.121   2.731 -0.2101 -0.4882 -0.6303
16177TIP3    H169946   6.554   7.164   2.781  0.4239 -1.7870 -0.3481
16177TIP3    H269947   6.526   7.089   2.652 -0.6355 -0.6747 -0.7874
16178TIP3   OH269948   2.902   1.806   2.520  0.1393 -0.2212 -0.1304
16178TIP3    H169949   2.857   1.862   2.583  0.4725 -1.6870  1.5149
16178TIP3    H269950   2.879   1.717   2.548  2.1562 -0.9599 -0.6671
16179TIP3   OH269951   5.067   6.667   2.436 -0.0283 -0.1487  0.2797
16179TIP3    H169952   5.068   6.701   2.526  0.7508 -0.2417  0.3113
16179TIP3    H269953   5.082   6.744   2.381 -1.8080  0.1436  0.1248
16180TIP3   OH269954   6.695   2.940   4.983 -0.2299 -0.2976  0.2369
16180TIP3    H169955   6.643   2.872   5.026  0.9036 -0.1283  1.9608
16180TIP3    H269956   6.706   3.008   5.049  0.4901  0.5701 -0.7451
16181TIP3   OH269957   2.089   1.591   2.866  0.9010 -0.0129  0.0893
16181TIP3    H169958   2.136   1.668   2.899  0.5795  0.7559 -1.1829
16181TIP3    H269959   2.126   1.518   2.915  1.8054  0.8546  0.7402
16182TIP3   OH269960   4.391   1.715   4.243 -0.4566  0.0897  1.3401
16182TIP3    H169961   4.365   1.755   4.160  3.3191  0.6553  0.2205
16182TIP3    H269962   4.345   1.631   4.245 -2.4222  1.0419 -0.1362
16183TIP3   OH269963   1.359   1.268   5.385 -0.1789 -0.1490  0.3347
16183TIP3    H169964   1.275   1.312   5.401  0.4058  0.9628  0.4317
16183TIP3    H269965   1.334   1.184   5.347 -1.3304  0.2582  0.1290
16184TIP3   OH269966   1.909   4.688   5.245  0.3573 -0.4834 -0.2669
16184TIP3    H169967   1.823   4.686   5.288 -0.1328 -1.5688 -1.2370
16184TIP3    H269968   1.936   4.780   5.249 -1.0249 -0.0566 -0.2833
16185TIP3   OH269969   7.051   0.256   1.868 -0.0077  0.4298  0.1652
16185TIP3    H169970   7.080   0.173   1.830 -1.5818  0.8519 -2.1579
16185TIP3    H269971   6.962   0.238   1.900  1.0354  0.2572  3.3451
16186TIP3   OH269972   5.600   6.752   0.662  0.0027  0.2514  0.1386
16186TIP3    H169973   5.506   6.740   0.674  0.1923 -1.9563 -0.1617
16186TIP3    H269974   5.641   6.698   0.729  1.0323 -0.0846 -0.7154
16187TIP3   OH269975   2.845   6.988  14.019  0.1709 -0.3871 -0.5437
16187TIP3    H169976   2.896   6.908  14.027 -0.2620 -0.5692  0.5529
16187TIP3    H269977   2.904   7.058  14.048  0.5779 -0.2752 -1.5838
16188TIP3   OH269978   6.622   5.057  13.191  0.5609  0.1217 -0.3110
16188TIP3    H169979   6.688   5.122  13.167 -1.4675  2.4608  0.0970
16188TIP3    H269980   6.570   5.099  13.259  0.5738 -2.8812  1.7769
16189TIP3   OH269981   6.255   1.681   2.879 -0.0572 -0.3626  0.6282
16189TIP3    H169982   6.197   1.609   2.902 -1.6078  0.0540 -1.6993
16189TIP3    H269983   6.199   1.745   2.837  1.5114  1.6623  1.4397
16190TIP3   OH269984   5.258   2.972   2.785 -0.8242  0.5469 -0.1439
16190TIP3    H169985   5.291   3.046   2.836  1.8532 -0.9761  0.5368
16190TIP3    H269986   5.290   2.989   2.696  1.8187 -0.7500  0.4437
16191TIP3   OH269987   5.868   6.094   1.203 -0.1079  0.1367 -0.6174
16191TIP3    H169988   5.841   6.149   1.277 -0.0299  0.0534 -0.5253
16191TIP3    H269989   5.791   6.089   1.147 -0.2535 -0.0162 -0.4069
16192TIP3   OH269990   5.949   2.587   0.340  0.3912  0.0485 -0.1909
16192TIP3    H169991   5.873   2.636   0.308  0.0543 -0.7459 -0.6255
16192TIP3    H269992   5.982   2.640   0.413 -2.4071 -1.0276  2.0480
16193TIP3   OH269993   0.521   3.039   2.353 -0.1196 -0.5539 -0.7895
16193TIP3    H169994   0.551   3.063   2.266 -0.0266  1.8531 -0.1649
16193TIP3    H269995   0.485   2.951   2.343  1.7024 -1.1473 -2.8025
16194TIP3   OH269996   0.243   3.814   4.780 -0.8573 -0.4372  0.1837
16194TIP3    H169997   0.152   3.830   4.805 -0.8164 -0.7605  0.5589
16194TIP3    H269998   0.244   3.722   4.753 -1.1791  0.2111 -2.3251
16195TIP3   OH269999   0.850   7.018  12.430 -0.2804 -0.1627  0.0563
16195TIP3    H170000   0.803   6.937  12.453  0.6242 -0.6713  0.1776
16195TIP3    H270001   0.935   7.008  12.473 -0.6590  1.4977  1.2653
16196TIP3   OH270002   7.030   1.378   2.539  1.1862  0.0307 -0.1753
16196TIP3    H170003   6.986   1.303   2.580  0.6995 -0.4153 -1.4709
16196TIP3    H270004   6.959   1.437   2.513  1.6032  1.5109  1.8002
16197TIP3   OH270005   2.092   7.097   0.727 -0.6088  0.5600  0.0385
16197TIP3    H170006   2.024   7.164   0.718  0.4215  1.9865  2.0832
16197TIP3    H270007   2.079   7.061   0.815  0.4850 -0.0705 -0.0338
16198TIP3   OH270008   6.267   5.503   1.407  0.3118 -0.4472 -0.0658
16198TIP3    H170009   6.326   5.441   1.364  0.5781  0.3651 -0.9146
16198TIP3    H270010   6.280   5.585   1.359 -2.4992 -0.5568 -1.2199
16199TIP3   OH270011   4.010   1.756   5.671 -0.1286  0.5496 -0.1226
16199TIP3    H170012   3.937   1.747   5.610  0.4798  0.8901 -0.9153
16199TIP3    H270013   4.071   1.816   5.628  0.3473  0.7511  0.7907
16200TIP3   OH270014   5.777   3.951   1.226 -0.1673  0.5727 -0.0580
16200TIP3    H170015   5.701   4.007   1.212  0.6528  1.8512  0.3876
16200TIP3    H270016   5.755   3.900   1.304 -0.7447  0.5795 -0.2095
16201TIP3   OH270017   3.486   3.179   9.990 -0.3121  0.4767  0.0370
16201TIP3    H170018   3.498   3.084   9.993 -0.2282  0.5074  0.7460
16201TIP3    H270019   3.457   3.203  10.078  1.2087  1.2986  0.3484
16202TIP3   OH270020   6.661   5.281   0.891  0.2891  0.1371 -0.8002
16202TIP3    H170021   6.691   5.192   0.872  0.0887 -0.2939  0.7675
16202TIP3    H270022   6.735   5.323   0.936  0.3956  0.7945 -1.5546
16203TIP3   OH270023   4.304   5.594   5.060  0.0501  0.1564  0.0022
16203TIP3    H170024   4.338   5.672   5.016  1.3034  0.5168  1.4959
16203TIP3    H270025   4.228   5.625   5.109  0.2071  0.3294  0.1402
16204TIP3   OH270026   0.427   6.076   2.551 -0.7878 -0.6752 -0.1286
16204TIP3    H170027   0.470   6.003   2.595 -0.0159  1.3180  2.7138
16204TIP3    H270028   0.483   6.096   2.476 -1.4677 -3.4041 -1.4754
16205TIP3   OH270029   2.013   1.636   2.380 -0.0536  0.2254  0.0822
16205TIP3    H170030   2.065   1.609   2.455 -1.4550  0.9722  1.3634
16205TIP3    H270031   1.923   1.631   2.410 -0.6949 -0.1838 -1.8033
16206TIP3   OH270032   5.658   3.163   0.252 -0.0258 -0.6972 -0.3038
16206TIP3    H170033   5.610   3.211   0.320  0.2251 -1.1886  0.2314
16206TIP3    H270034   5.604   3.086   0.234  1.1779 -2.0157  1.3317
16207TIP3   OH270035   5.779   4.587   3.207 -0.6945  0.3353  0.1630
16207TIP3    H170036   5.829   4.506   3.212  1.5871  1.5306 -1.3830
16207TIP3    H270037   5.694   4.566   3.246  0.3117 -2.3639  1.0932
16208TIP3   OH270038   5.391   4.001   4.431  0.6951  0.1884  0.5019
16208TIP3    H170039   5.351   4.070   4.377  2.0901  0.6315  0.0030
16208TIP3    H270040   5.340   3.922   4.410 -1.4702  1.1890  1.7169
16209TIP3   OH270041   0.199   5.691   0.555 -0.2569 -0.3533  0.2800
16209TIP3    H170042   0.242   5.733   0.481 -1.6020 -0.7274 -0.7686
16209TIP3    H270043   0.250   5.612   0.571  1.2066  0.7164  1.0649
16210TIP3   OH270044   7.088   1.233   2.279  0.2554 -0.0994  0.4665
16210TIP3    H170045   7.026   1.197   2.215 -1.3561  0.5609  1.5900
16210TIP3    H270046   7.037   1.297   2.329  1.8400  0.4272  1.4872
16211TIP3   OH270047   6.120   0.130  11.126  0.5484 -0.0078  0.5629
16211TIP3    H170048   6.069   0.059  11.165  0.2139  0.6556  1.3551
16211TIP3    H270049   6.202   0.131  11.175  0.5742  0.1213  0.5180
16212TIP3   OH270050   2.653   5.341   4.828  0.4361 -0.0492 -0.0399
16212TIP3    H170051   2.604   5.264   4.856 -3.0658  2.2226  0.7115
16212TIP3    H270052   2.713   5.360   4.900  0.2460 -1.1413  0.4204
16213TIP3   OH270053   5.123   1.507   2.780  0.4053  0.2352  0.0632
16213TIP3    H170054   5.171   1.461   2.849 -1.2647 -0.2569  0.9734
16213TIP3    H270055   5.160   1.475   2.698  0.6986 -1.1450  0.7170
16214TIP3   OH270056   5.370   5.199   3.463 -0.0482  0.5054 -0.1151
16214TIP3    H170057   5.457   5.237   3.469 -0.0752  0.4819  0.5692
16214TIP3    H270058   5.338   5.198   3.554  0.0367 -1.3183 -0.0563
16215TIP3   OH270059   2.574   6.064   0.338 -0.3570 -0.4893  0.1838
16215TIP3    H170060   2.584   6.008   0.260 -0.3331  0.4926 -0.5392
16215TIP3    H270061   2.522   6.139   0.307  0.5244  0.4187  0.8364
16216TIP3   OH270062   3.667   1.537   2.338  0.2945 -0.0665 -0.1055
16216TIP3    H170063   3.695   1.447   2.318  0.3763  0.1391 -0.9587
16216TIP3    H270064   3.673   1.544   2.433  2.8380 -0.1354 -0.2128
16217TIP3   OH270065   0.854   0.884   4.464 -0.1275 -0.1059  0.0412
16217TIP3    H170066   0.809   0.809   4.503  1.6861 -0.3646  1.8342
16217TIP3    H270067   0.798   0.959   4.484  0.2727 -0.3657  2.5178
16218TIP3   OH270068   2.710   1.392   0.715  0.3341 -0.2406 -0.5599
16218TIP3    H170069   2.756   1.475   0.698  2.5332 -0.8261  1.8816
16218TIP3    H270070   2.628   1.419   0.756  0.7464  0.7828 -0.3570
16219TIP3   OH270071   6.776   2.891   3.551  0.2732 -0.2174 -0.4658
16219TIP3    H170072   6.782   2.906   3.646 -1.6638  1.5998 -0.5456
16219TIP3    H270073   6.770   2.979   3.514 -1.3505 -0.9522 -2.0540
16220TIP3   OH270074   4.471   1.913   5.047 -0.6474 -0.6547 -0.1226
16220TIP3    H170075   4.442   1.929   5.137 -0.9187 -0.4245 -0.2508
16220TIP3    H270076   4.535   1.842   5.055 -0.6085 -0.5793  0.2618
16221TIP3   OH270077   5.920   0.307   3.181  0.5251 -0.1476  0.2853
16221TIP3    H170078   5.828   0.292   3.201  0.7027  0.3804  1.6383
16221TIP3    H270079   5.947   0.230   3.131 -0.6775 -0.2363 -0.2590
16222TIP3   OH270080   3.378   0.204   3.080 -0.3627  0.6471  0.4780
16222TIP3    H170081   3.438   0.276   3.064 -0.7023  1.3170  2.0199
16222TIP3    H270082   3.292   0.237   3.054 -0.2029 -0.0568 -1.0417
16223TIP3   OH270083   3.596   4.460   3.945  0.7619  0.5926  0.0898
16223TIP3    H170084   3.548   4.538   3.920  0.2256  0.9509  2.0471
16223TIP3    H270085   3.622   4.476   4.036  0.7191 -1.4536  0.5123
16224TIP3   OH270086   2.354   5.219   4.605 -0.5952  0.0508 -0.3207
16224TIP3    H170087   2.356   5.210   4.701 -0.7998 -0.7042 -0.3755
16224TIP3    H270088   2.444   5.244   4.582 -0.7037  0.8729  0.1157
16225TIP3   OH270089   4.068   3.383   5.098  0.4811 -0.1847  0.2233
16225TIP3    H170090   4.151   3.394   5.052  1.1922 -1.9189  1.0402
16225TIP3    H270091   4.012   3.453   5.062  1.6841 -0.1189 -1.6604
16226TIP3   OH270092   3.855   1.865   3.351  0.4041 -0.2604  0.2047
16226TIP3    H170093   3.807   1.887   3.431  0.2001  1.4462 -0.3447
16226TIP3    H270094   3.899   1.946   3.326  0.6862 -0.8325 -1.2666
16227TIP3   OH270095   2.883   4.761   0.896 -0.1353 -0.3128  0.2866
16227TIP3    H170096   2.933   4.681   0.912  0.6143 -0.1591 -1.0771
16227TIP3    H270097   2.841   4.780   0.979 -1.9231 -3.1767  0.1817
16228TIP3   OH270098   4.168   4.729   4.079 -0.0146 -0.1664 -0.3256
16228TIP3    H170099   4.098   4.681   4.036  1.0635 -1.7577 -0.3925
16228TIP3    H270100   4.238   4.732   4.014  0.1345  1.0361 -0.1221
16229TIP3   OH270101   5.688   4.976  10.580  0.6814 -0.7559 -0.0962
16229TIP3    H170102   5.783   4.985  10.576  0.5710  0.4874 -0.3970
16229TIP3    H270103   5.656   5.024  10.504 -0.2322 -0.1437  0.6494
16230TIP3   OH270104   3.509   2.290   2.977 -0.0658  0.0048  0.3586
16230TIP3    H170105   3.413   2.291   2.987  0.1975  1.7892  5.3239
16230TIP3    H270106   3.538   2.221   3.037  1.8631 -0.2473 -0.7939
16231TIP3   OH270107   3.774   1.839   3.806  0.1078  0.5963 -0.2967
16231TIP3    H170108   3.727   1.866   3.885 -1.3187 -1.4803 -0.3495
16231TIP3    H270109   3.790   1.920   3.758 -1.4450  1.6133  0.8173
16232TIP3   OH270110   5.790   1.628   3.409 -0.4707 -0.2415  0.3356
16232TIP3    H170111   5.800   1.568   3.482  0.6636  0.3431  0.6740
16232TIP3    H270112   5.805   1.575   3.331 -2.3381 -1.0195  0.4376
16233TIP3   OH270113   2.066   7.001   1.717  0.2335 -0.0817 -0.5978
16233TIP3    H170114   2.099   7.036   1.800  0.0664  0.3772 -0.7166
16233TIP3    H270115   2.051   7.079   1.663 -3.1713 -0.0085  0.2233
16234TIP3   OH270116   1.068   0.719   5.028 -0.0716 -0.4109 -0.1826
16234TIP3    H170117   1.024   0.786   5.080 -0.6590 -0.1697 -0.9644
16234TIP3    H270118   1.016   0.713   4.947 -0.0641 -1.8413 -0.1140
16235TIP3   OH270119   6.482   4.045   0.002  0.2171 -0.4668  0.0895
16235TIP3    H170120   6.416   4.115  -0.001 -0.1542 -0.8129  0.1479
16235TIP3    H270121   6.527   4.051  -0.082 -0.9220 -1.2168 -0.6002
16236TIP3   OH270122   2.309   0.384   0.882  0.3601 -0.2488 -0.3980
16236TIP3    H170123   2.262   0.448   0.936  1.9590  0.7718 -0.1334
16236TIP3    H270124   2.248   0.311   0.873 -0.6262  0.2918  1.3208
16237TIP3   OH270125   6.739   7.200   4.370 -0.2251  0.0408 -0.6739
16237TIP3    H170126   6.709   7.202   4.461 -1.7697  2.7062 -1.1329
16237TIP3    H270127   6.794   7.122   4.365 -0.4087 -0.4315  2.4209
16238TIP3   OH270128   5.361   0.817   3.958 -0.3130  0.1508 -0.0884
16238TIP3    H170129   5.328   0.754   3.895 -0.9129 -1.1074  1.4105
16238TIP3    H270130   5.447   0.843   3.923  0.0732 -1.7018 -0.6393
16239TIP3   OH270131   0.976   0.789  12.829  0.1913  0.0142 -0.0309
16239TIP3    H170132   0.902   0.752  12.878  1.2362 -1.4280  0.5584
16239TIP3    H270133   0.956   0.770  12.737 -1.3457  1.9165 -0.1516
16240TIP3   OH270134   6.790   3.476   1.508  0.1181 -0.5290  0.9960
16240TIP3    H170135   6.860   3.472   1.574 -0.5313 -2.0229  1.6231
16240TIP3    H270136   6.761   3.386   1.497 -1.0136 -0.0714 -0.0348
16241TIP3   OH270137   6.031   5.926   1.691  0.1892 -0.0931 -0.0922
16241TIP3    H170138   6.003   6.002   1.640 -1.3203  0.5288  1.5980
16241TIP3    H270139   6.098   5.960   1.750  1.4433 -0.6788 -1.1134
16242TIP3   OH270140   5.937   1.014   5.891  0.0461 -0.1123 -0.3784
16242TIP3    H170141   5.911   0.937   5.942  0.4739  1.9581  3.3249
16242TIP3    H270142   6.029   1.026   5.911 -0.4202  2.2920  0.5895
16243TIP3   OH270143   4.248   5.761  14.519 -0.0275 -0.1666 -0.1230
16243TIP3    H170144   4.228   5.780  14.427  0.5836  2.1161  0.1426
16243TIP3    H270145   4.343   5.768  14.525 -0.1864  1.9911  1.0415
16244TIP3   OH270146   5.851   6.897  15.148 -0.3321 -0.0607  0.2669
16244TIP3    H170147   5.759   6.887  15.122 -0.7893  2.2419  0.7722
16244TIP3    H270148   5.900   6.888  15.066 -0.7294 -3.1464  0.2209
16245TIP3   OH270149   6.977   1.651   0.096  0.3509  0.5227 -0.1153
16245TIP3    H170150   6.906   1.596   0.129  1.6029  0.0999  2.1710
16245TIP3    H270151   7.037   1.589   0.055 -0.8484  0.9641 -2.7085
16246TIP3   OH270152   6.978   5.790   4.123  0.2696  0.1231  0.2855
16246TIP3    H170153   6.917   5.760   4.191 -0.7943 -0.3830 -0.8550
16246TIP3    H270154   6.944   5.876   4.098 -0.1924 -0.3024 -0.5841
16247TIP3   OH270155   7.013   6.085  14.404  0.1843  0.0979  0.4011
16247TIP3    H170156   6.928   6.098  14.361  0.5556 -1.5296 -0.9303
16247TIP3    H270157   7.071   6.148  14.363  0.4838 -1.2962 -1.4320
16248TIP3   OH270158   3.609   4.062   4.124 -0.6701  0.1181 -0.3413
16248TIP3    H170159   3.520   4.059   4.159 -0.3169  1.6970  0.7786
16248TIP3    H270160   3.661   4.101   4.193  1.6165 -3.6414  0.3262
16249TIP3   OH270161   0.754   0.476  11.728 -0.2693  0.3533 -0.6253
16249TIP3    H170162   0.839   0.433  11.730 -1.2498 -1.7223  1.5133
16249TIP3    H270163   0.704   0.428  11.663 -1.0749 -1.3443  1.1299
16250TIP3   OH270164   4.511   5.335   5.432 -0.1694  0.5239  0.0236
16250TIP3    H170165   4.510   5.294   5.518 -1.0686  0.1096 -0.1776
16250TIP3    H270166   4.556   5.272   5.376 -1.7628 -0.3323 -0.3390
16251TIP3   OH270167   4.594   4.482   0.048  0.1451  0.0579  0.2551
16251TIP3    H170168   4.576   4.492   0.142 -1.8376  0.3332 -0.1241
16251TIP3    H270169   4.508   4.467   0.008  1.0335 -0.8147 -1.4413
16252TIP3   OH270170   4.930   1.101  14.943 -0.6995  0.1790  0.0382
16252TIP3    H170171   5.020   1.099  14.909 -0.9383  1.2131 -0.6758
16252TIP3    H270172   4.892   1.019  14.914  0.0207 -0.2925  0.3825
16253TIP3   OH270173   5.430   1.758   0.706  0.4938  0.3407 -0.4034
16253TIP3    H170174   5.433   1.713   0.790 -0.1683 -0.3350 -0.7274
16253TIP3    H270175   5.380   1.699   0.649  3.4237 -0.7042 -2.1644
16254TIP3   OH270176   1.259   5.996  13.884 -0.5732 -0.0390 -0.0799
16254TIP3    H170177   1.231   6.044  13.963  0.5413  0.6099 -0.0665
16254TIP3    H270178   1.306   6.061  13.832  0.7463 -1.0563 -0.1879
16255TIP3   OH270179   1.993   1.180   0.655  0.5023 -0.3067 -0.2802
16255TIP3    H170180   2.078   1.218   0.675 -0.0510  0.2468  1.1070
16255TIP3    H270181   2.009   1.127   0.576  1.9860  0.2326 -0.3799
16256TIP3   OH270182   3.692   2.250   4.650  0.1244 -0.4100 -0.4228
16256TIP3    H170183   3.668   2.207   4.732 -2.3041  0.8197 -0.4109
16256TIP3    H270184   3.698   2.178   4.587  2.7617 -1.4660  0.8647
16257TIP3   OH270185   6.916   6.351   4.783 -0.4007  0.0563 -0.2303
16257TIP3    H170186   6.848   6.414   4.762 -1.6681 -1.6749 -1.6817
16257TIP3    H270187   6.993   6.380   4.733 -0.8578  0.6403 -0.6007
16258TIP3   OH270188   5.623   2.155   4.576  0.1368 -0.1845 -0.0793
16258TIP3    H170189   5.626   2.250   4.584 -0.7598 -0.0934 -0.6786
16258TIP3    H270190   5.561   2.139   4.505 -0.7172 -1.2607  0.8775
16259TIP3   OH270191   1.762   1.389   1.545 -0.1094 -0.0569 -0.0036
16259TIP3    H170192   1.748   1.468   1.597 -1.2332 -1.6852  2.3808
16259TIP3    H270193   1.675   1.368   1.511  0.1250 -0.4025 -0.3949
16260TIP3   OH270194   4.723   6.319   2.787  0.3647 -0.5418  0.4954
16260TIP3    H170195   4.745   6.372   2.863  0.8582  1.6342 -1.0722
16260TIP3    H270196   4.720   6.229   2.820  1.3704  0.2356  2.8895
16261TIP3   OH270197   0.694   4.665   4.893  0.4981 -0.3310  0.4807
16261TIP3    H170198   0.632   4.595   4.911  1.2839 -0.8941  1.0751
16261TIP3    H270199   0.687   4.680   4.799 -2.3642  1.3907  0.8715
16262TIP3   OH270200   7.080   1.081   3.948 -0.2697  0.0527 -0.8441
16262TIP3    H170201   7.075   1.174   3.926 -0.7192 -0.1770 -1.7563
16262TIP3    H270202   6.990   1.057   3.969 -0.1228 -0.1328 -0.4209
16263TIP3   OH270203   6.590   3.217   3.084  0.1032  0.3352  0.1407
16263TIP3    H170204   6.628   3.216   3.171  2.5956 -0.9239 -0.8525
16263TIP3    H270205   6.523   3.285   3.087  0.1802  0.3666  2.9686
16264TIP3   OH270206   5.070   3.386   9.890  0.1784 -0.2664 -0.1519
16264TIP3    H170207   5.094   3.378   9.798 -0.5803  0.2677 -0.4073
16264TIP3    H270208   5.105   3.470   9.918 -0.3994  0.0052 -0.2213
16265TIP3   OH270209   0.814   3.962   4.496 -0.7147 -0.5365  0.0216
16265TIP3    H170210   0.859   4.046   4.504 -0.0782 -0.9073  0.3928
16265TIP3    H270211   0.862   3.903   4.553 -0.9944 -1.2239 -0.4387
16266TIP3   OH270212   7.118   5.834   1.980  0.3292  0.2670  0.0366
16266TIP3    H170213   7.171   5.893   1.927  0.1767 -1.4471 -2.1470
16266TIP3    H270214   7.154   5.843   2.069  2.3344  1.3111 -0.8143
16267TIP3   OH270215   2.799   4.474   2.807 -0.1261  0.0209  0.4134
16267TIP3    H170216   2.812   4.400   2.867  0.3862 -1.4791 -1.4398
16267TIP3    H270217   2.887   4.501   2.783 -0.3202 -0.0045 -0.3546
16268TIP3   OH270218   0.858   4.608   5.128 -0.0629 -0.1340 -0.0442
16268TIP3    H170219   0.799   4.631   5.056 -1.5812 -0.8123  0.9373
16268TIP3    H270220   0.801   4.600   5.204  0.9755 -2.7993  0.5631
16269TIP3   OH270221   6.409   2.719   0.723 -0.3229 -0.0508 -0.3689
16269TIP3    H170222   6.335   2.670   0.688  0.7300 -0.6933 -1.7859
16269TIP3    H270223   6.415   2.690   0.814 -0.1810 -2.0781 -0.9636
16270TIP3   OH270224   0.434   1.454  12.031  0.2725  0.1977 -0.0522
16270TIP3    H170225   0.448   1.549  12.032  2.8580 -0.0679 -1.6067
16270TIP3    H270226   0.522   1.417  12.037 -0.2668 -1.9967 -3.0775
16271TIP3   OH270227   1.021   1.826   4.331 -0.0165 -0.4612 -0.1679
16271TIP3    H170228   1.026   1.868   4.245 -2.5414 -0.9810 -0.6353
16271TIP3    H270229   0.999   1.897   4.391 -1.1544 -0.5664 -0.4464
16272TIP3   OH270230   5.261   1.727   4.293  0.7113 -0.0639  0.0673
16272TIP3    H170231   5.257   1.644   4.340 -0.2250 -0.6137 -0.9567
16272TIP3    H270232   5.339   1.720   4.238  0.7253 -0.1991  0.1040
16273TIP3   OH270233   2.272   6.613   4.860  0.7435 -0.5297  0.0770
16273TIP3    H170234   2.279   6.540   4.921 -1.6229  0.5788  1.8548
16273TIP3    H270235   2.296   6.576   4.775  3.9281 -2.2225  1.5348
16274TIP3   OH270236   1.358   5.994   3.077 -0.1477 -0.0380 -0.0562
16274TIP3    H170237   1.368   6.058   3.147 -0.7264  0.2741 -0.2532
16274TIP3    H270238   1.433   6.010   3.019  0.5178 -0.5220  0.6586
16275TIP3   OH270239   6.593   6.828   3.438 -0.3725  0.1714 -0.5972
16275TIP3    H170240   6.628   6.739   3.428  1.1650  0.7636 -0.8160
16275TIP3    H270241   6.645   6.881   3.378  1.1490  1.8093  1.9536
16276TIP3   OH270242   5.509   3.658   4.967  0.5639  0.1361  0.1048
16276TIP3    H170243   5.420   3.631   4.943  0.8072 -0.5544 -0.0473
16276TIP3    H270244   5.496   3.715   5.042  0.0902 -1.7465  1.5538
16277TIP3   OH270245   6.165   6.663   4.470 -0.0483 -0.1206 -0.5019
16277TIP3    H170246   6.096   6.729   4.470  0.7389  0.7255 -1.0842
16277TIP3    H270247   6.159   6.622   4.557 -1.3967 -0.2064 -0.6139
16278TIP3   OH270248   5.282   3.304   3.189 -0.4619  0.3664 -0.3768
16278TIP3    H170249   5.264   3.261   3.105  0.7725 -1.6578  0.3298
16278TIP3    H270250   5.359   3.359   3.172  0.2190 -0.5791 -0.4441
16279TIP3   OH270251   2.474   6.274   0.176 -0.4121  0.1863  0.6517
16279TIP3    H170252   2.381   6.258   0.187 -0.2857 -0.5542  0.6407
16279TIP3    H270253   2.486   6.287   0.081 -0.0503 -2.7571  0.2138
16280TIP3   OH270254   1.541   1.154  14.569 -0.1659  0.1073 -0.1828
16280TIP3    H170255   1.589   1.230  14.537  0.2134  0.4013  1.0355
16280TIP3    H270256   1.607   1.086  14.577  0.0797  0.5242  1.5375
16281TIP3   OH270257   4.401   6.192   5.592  0.3628 -0.1403 -0.0845
16281TIP3    H170258   4.356   6.233   5.666  0.7696 -0.5130  0.3769
16281TIP3    H270259   4.334   6.185   5.524 -0.0148  0.2114  0.2428
16282TIP3   OH270260   5.647   2.892   3.160  0.0035 -0.0117 -0.6811
16282TIP3    H170261   5.716   2.825   3.164  0.0391  0.0029 -0.9803
16282TIP3    H270262   5.570   2.850   3.197  0.3889  0.2535  0.4782
16283TIP3   OH270263   0.430   1.445   3.705 -0.1483 -0.2423 -0.4131
16283TIP3    H170264   0.464   1.535   3.705 -0.0841 -0.2347 -2.2631
16283TIP3    H270265   0.508   1.390   3.698  0.0254 -0.6342  2.9125
16284TIP3   OH270266   5.333   6.888   0.808 -0.3019  0.2631 -0.2338
16284TIP3    H170267   5.361   6.885   0.899 -1.9396 -0.7193  0.2696
16284TIP3    H270268   5.238   6.877   0.811 -0.3849  0.1031 -2.0691
16285TIP3   OH270269   0.841   0.478  15.132 -0.0597 -0.1406  0.2957
16285TIP3    H170270   0.911   0.477  15.197 -0.5880 -0.1699  0.8628
16285TIP3    H270271   0.775   0.419  15.167 -0.3839 -0.0945 -0.2318
16286TIP3   OH270272   6.104   6.222   5.401  0.0373 -0.5463 -0.6262
16286TIP3    H170273   6.195   6.250   5.394 -0.0403  0.2552  1.1547
16286TIP3    H270274   6.083   6.188   5.314  1.3987  1.1847 -1.6963
16287TIP3   OH270275   4.834   1.301   4.222 -0.1883  0.2156  0.6889
16287TIP3    H170276   4.750   1.277   4.263  0.2260 -0.7400  0.9862
16287TIP3    H270277   4.850   1.232   4.158  0.3102  0.4731  0.5381
16288TIP3   OH270278   2.032   4.333   1.242 -0.6789 -0.2375 -0.4254
16288TIP3    H170279   2.006   4.421   1.271  2.9521  0.3910  1.5765
16288TIP3    H270280   2.085   4.349   1.164 -0.3972 -0.7023 -0.3287
16289TIP3   OH270281   4.583   0.004   4.796 -0.1928  0.3489  0.0830
16289TIP3    H170282   4.510  -0.043   4.754  1.5917 -0.3182 -2.5680
16289TIP3    H270283   4.577  -0.020   4.888 -1.6597 -1.9909 -0.5178
16290TIP3   OH270284   3.218   4.314   3.265 -0.4153  0.3223 -0.0398
16290TIP3    H170285   3.125   4.318   3.290  0.0619  0.1475  1.9089
16290TIP3    H270286   3.264   4.356   3.337  1.2974 -2.6236  0.7436
16291TIP3   OH270287   3.280   0.785   1.290 -0.0528  0.5701 -0.0659
16291TIP3    H170288   3.316   0.780   1.379 -0.8328 -1.2496  0.1815
16291TIP3    H270289   3.230   0.867   1.289 -0.0126  0.6246  1.1788
16292TIP3   OH270290   1.669   2.867   5.022  0.7714  0.5063 -0.2234
16292TIP3    H170291   1.625   2.784   5.041  0.7537  0.3072 -1.0865
16292TIP3    H270292   1.758   2.855   5.055  1.4104 -0.6699 -2.1806
16293TIP3   OH270293   2.713   2.446   4.625  0.5713 -0.3576  0.0961
16293TIP3    H170294   2.664   2.389   4.684  0.2134  1.3604  1.5659
16293TIP3    H270295   2.648   2.483   4.567  0.9190 -2.0192 -1.4523
16294TIP3   OH270296   3.773   4.823  14.919  0.3391  0.1930  0.5796
16294TIP3    H170297   3.834   4.861  14.856  0.2999  0.5866  0.7748
16294TIP3    H270298   3.774   4.883  14.994 -0.6236  0.4660  0.3991
16295TIP3   OH270299   4.304   4.632   2.312  0.1535 -0.1266 -0.0566
16295TIP3    H170300   4.215   4.596   2.318  0.2243 -0.1643  1.0068
16295TIP3    H270301   4.357   4.560   2.277  0.1511 -0.8337  1.3311
16296TIP3   OH270302   1.244   2.191   3.950 -0.0379 -0.4373 -0.4163
16296TIP3    H170303   1.289   2.177   3.867  0.8160  2.1015 -0.4737
16296TIP3    H270304   1.289   2.133   4.012 -0.4862 -2.1232 -1.6147
16297TIP3   OH270305   5.449   3.320  13.720  0.5280 -0.0363  0.7786
16297TIP3    H170306   5.481   3.408  13.700  0.7793 -0.3430 -0.2618
16297TIP3    H270307   5.387   3.333  13.791  0.6272  0.9741  0.7054
16298TIP3   OH270308   1.425   0.278   4.076 -0.1923  0.1030  0.0602
16298TIP3    H170309   1.374   0.349   4.036  1.1544  1.1152  0.0959
16298TIP3    H270310   1.459   0.315   4.157 -1.7124 -1.4911  1.5131
16299TIP3   OH270311   4.727   4.891   0.350  0.0814 -0.0442  0.3907
16299TIP3    H170312   4.705   4.977   0.315  1.2568  0.4376  0.8056
16299TIP3    H270313   4.813   4.871   0.313 -1.0672 -2.0163 -1.4588
16300TIP3   OH270314   2.537   2.567   4.460 -0.5099  0.2414  0.5821
16300TIP3    H170315   2.458   2.617   4.439 -0.0195  1.1356  0.8174
16300TIP3    H270316   2.517   2.478   4.432 -1.3202  0.6107 -0.0588
16301TIP3   OH270317   7.191   2.111  13.006  0.2771 -1.0692  0.1879
16301TIP3    H170318   7.145   2.049  12.950 -1.5820  0.7315 -0.4196
16301TIP3    H270319   7.173   2.080  13.095 -1.4894 -0.8871 -0.0641
16302TIP3   OH270320   3.979   1.344   2.093  0.0915  0.6380 -0.4396
16302TIP3    H170321   3.898   1.394   2.084  0.5907  1.4851 -0.3954
16302TIP3    H270322   3.991   1.334   2.187  0.5298  1.3650 -0.4095
16303TIP3   OH270323   7.183   0.946   4.195 -0.0109  0.2731 -0.0031
16303TIP3    H170324   7.171   0.852   4.181  1.4334  0.0164  0.3308
16303TIP3    H270325   7.137   0.987   4.121 -3.6651 -0.4660  1.6205
16304TIP3   OH270326   6.649   6.421   3.422 -0.5238  0.1345 -0.0584
16304TIP3    H170327   6.647   6.423   3.518  0.5741 -2.1253  0.0736
16304TIP3    H270328   6.719   6.482   3.399  0.0447 -0.2315  0.6504
16305TIP3   OH270329   0.613   3.697   0.299  0.3890  0.1384 -0.5991
16305TIP3    H170330   0.587   3.608   0.325 -0.3587 -0.1041 -2.0671
16305TIP3    H270331   0.549   3.754   0.343  1.6101  0.0967  1.3556
16306TIP3   OH270332   2.439   7.013  13.261 -0.2717 -0.0194 -0.2018
16306TIP3    H170333   2.439   6.924  13.297 -0.4940 -0.3248 -0.9326
16306TIP3    H270334   2.495   7.008  13.183 -1.7204  0.0208 -1.2929
16307TIP3   OH270335   1.030   4.762   2.712 -0.2039  0.1851  0.0500
16307TIP3    H170336   0.998   4.847   2.683  0.4410  0.9533  1.4694
16307TIP3    H270337   1.122   4.777   2.734 -0.5242 -0.4106  2.0008
16308TIP3   OH270338   4.985   1.376   3.879  0.3913 -0.3796 -0.2205
16308TIP3    H170339   5.072   1.355   3.914  0.3116 -1.0579 -0.4183
16308TIP3    H270340   4.937   1.412   3.953  1.0084  0.5102 -0.2333
16309TIP3   OH270341   2.700   0.024   3.226  0.3207 -0.3759  0.2832
16309TIP3    H170342   2.640  -0.042   3.193  1.3337 -1.1706 -0.0287
16309TIP3    H270343   2.653   0.107   3.216  0.2300 -0.6519 -2.4577
16310TIP3   OH270344   4.297   1.030  14.099 -0.7538 -0.4935  0.3016
16310TIP3    H170345   4.306   1.044  14.005 -1.1088 -0.4526  0.2724
16310TIP3    H270346   4.217   1.077  14.123 -0.9946 -1.0058  0.5154
16311TIP3   OH270347   4.334   6.544   4.778  0.2550  0.1101  0.3463
16311TIP3    H170348   4.381   6.524   4.698 -0.8721  0.2032 -0.3558
16311TIP3    H270349   4.242   6.525   4.758  0.2788 -3.4666  2.7460
16312TIP3   OH270350   1.154   4.385   3.676  0.1419  0.8446 -0.4293
16312TIP3    H170351   1.237   4.372   3.630 -0.1297 -1.5705 -0.4106
16312TIP3    H270352   1.177   4.381   3.769  0.1536  1.4540 -0.4032
16313TIP3   OH270353   1.380   3.537  12.100  0.1483  0.2590  0.3275
16313TIP3    H170354   1.400   3.602  12.032 -3.4007  1.2676  0.0348
16313TIP3    H270355   1.447   3.551  12.167  0.9640  2.5117 -0.8508
16314TIP3   OH270356   5.944   2.540   4.246  0.0522 -0.3856 -0.2913
16314TIP3    H170357   5.891   2.566   4.321  2.5875 -0.3675  1.6287
16314TIP3    H270358   5.998   2.468   4.279  2.4118  0.6927 -1.5633
16315TIP3   OH270359   1.651   3.381   1.286 -0.2097  0.3137  0.1143
16315TIP3    H170360   1.583   3.406   1.224  0.1534 -2.5196 -1.5862
16315TIP3    H270361   1.612   3.311   1.339  1.0266 -0.7460 -0.2985
16316TIP3   OH270362   0.795   6.812  13.455 -0.4591  0.1228 -0.1300
16316TIP3    H170363   0.803   6.741  13.390  0.2329 -1.7914  1.9226
16316TIP3    H270364   0.707   6.802  13.490 -1.1624  1.7323 -1.3335
16317TIP3   OH270365   6.276   1.972   1.760 -0.2536 -0.4920 -0.0360
16317TIP3    H170366   6.201   2.002   1.708 -2.0639 -1.0731  2.0866
16317TIP3    H270367   6.321   2.053   1.785  0.2616 -0.1664 -1.8618
16318TIP3   OH270368   0.191   7.094  14.443  0.3846 -0.1442 -0.7898
16318TIP3    H170369   0.125   7.037  14.404  1.4878 -0.7352 -1.8508
16318TIP3    H270370   0.260   7.035  14.473 -0.2649  0.3138  1.8673
16319TIP3   OH270371   2.764   0.501   2.511  0.4440  0.5167 -0.3195
16319TIP3    H170372   2.791   0.457   2.430 -1.6574 -0.0025 -0.7950
16319TIP3    H270373   2.823   0.467   2.578 -0.5923 -2.5196 -0.8132
16320TIP3   OH270374   1.405   6.655   5.741  0.1404  0.1213 -0.2016
16320TIP3    H170375   1.432   6.592   5.806 -1.2656 -1.1436 -0.7850
16320TIP3    H270376   1.330   6.700   5.780 -0.5034 -0.4155 -0.7956
16321TIP3   OH270377   7.120   1.160  13.355 -0.4371  0.0661  0.1418
16321TIP3    H170378   7.197   1.216  13.356  1.3057 -2.1321 -0.7444
16321TIP3    H270379   7.107   1.140  13.262 -2.5093  0.8611  0.2045
16322TIP3   OH270380   2.971   2.734  15.070  0.5777 -1.2659  0.5770
16322TIP3    H170381   2.968   2.798  15.141 -0.5930 -0.0223 -0.5301
16322TIP3    H270382   3.039   2.671  15.097  0.3339 -0.7167  2.6543
16323TIP3   OH270383   6.690   3.958   4.019  0.3111  0.2820  0.0440
16323TIP3    H170384   6.707   4.042   4.061  1.8278  0.2457 -0.4160
16323TIP3    H270385   6.777   3.919   4.009 -0.0643 -0.1031 -2.2644
16324TIP3   OH270386   1.055   3.727  15.308  0.4759 -0.5393  0.1311
16324TIP3    H170387   1.025   3.718  15.218  1.4917 -1.2448 -0.1502
16324TIP3    H270388   1.076   3.820  15.317  1.4966 -0.6773 -0.7366
16325TIP3   OH270389   5.692   4.730  12.611  0.3060  0.0036  0.3613
16325TIP3    H170390   5.695   4.812  12.560 -0.9211 -0.4594 -0.5161
16325TIP3    H270391   5.763   4.677  12.576 -1.2235 -0.7824 -1.8195
16326TIP3   OH270392   5.415   3.597   0.776 -0.1416 -0.3356  0.6928
16326TIP3    H170393   5.356   3.533   0.816 -1.1940 -0.1461 -0.5133
16326TIP3    H270394   5.496   3.588   0.826 -1.0389 -0.8855  2.1375
16327TIP3   OH270395   4.014   1.150   5.810 -0.3470  0.7370  0.2015
16327TIP3    H170396   4.061   1.085   5.864 -0.2447 -0.4773 -1.2803
16327TIP3    H270397   4.022   1.232   5.859 -0.3562 -0.3226  2.0765
16328TIP3   OH270398   4.923   1.928   4.989 -0.2407 -0.4385  0.1899
16328TIP3    H170399   4.923   1.955   5.081 -0.9668  0.8277 -0.1569
16328TIP3    H270400   5.003   1.965   4.953 -0.1121 -0.6704  0.2350
16329TIP3   OH270401   5.569   4.777   0.841  0.1258  0.0449 -0.6347
16329TIP3    H170402   5.610   4.702   0.883 -0.2645 -0.4450 -1.1107
16329TIP3    H270403   5.642   4.828   0.807  0.4714  0.6831  0.9946
16330TIP3   OH270404   4.584   0.557   3.374 -0.1851  0.2440  0.0594
16330TIP3    H170405   4.571   0.652   3.370 -3.7734  0.1103  3.0519
16330TIP3    H270406   4.632   0.543   3.456  2.0322 -0.5165 -1.3026
16331TIP3   OH270407   5.392   0.848   5.157  0.0098 -0.1446 -0.2127
16331TIP3    H170408   5.373   0.845   5.063 -0.3939 -0.2800 -0.1284
16331TIP3    H270409   5.306   0.849   5.199  0.1812 -1.3452  0.1955
16332TIP3   OH270410   6.730   2.080  10.868 -0.3040  0.1787 -0.4061
16332TIP3    H170411   6.752   2.030  10.789  1.3370 -0.0971  0.1835
16332TIP3    H270412   6.749   2.171  10.845 -1.5383  0.3393 -0.8804
16333TIP3   OH270413   3.471   0.129   4.860  0.1506  0.6988  0.2116
16333TIP3    H170414   3.495   0.066   4.928  0.1636  0.4302 -0.0381
16333TIP3    H270415   3.378   0.111   4.844  0.5980 -0.5253 -1.1701
16334TIP3   OH270416   5.935   5.819   3.920  0.2975 -0.0607 -0.3527
16334TIP3    H170417   5.856   5.812   3.973 -0.1546  0.9247 -0.8668
16334TIP3    H270418   6.007   5.804   3.981 -0.2086  1.0117  0.5361
16335TIP3   OH270419   0.578   3.509   3.542  0.3018 -0.3797  0.0709
16335TIP3    H170420   0.561   3.534   3.451  1.7723  0.3602 -0.0208
16335TIP3    H270421   0.571   3.414   3.542 -0.7456 -0.3308 -0.5747
16336TIP3   OH270422   6.465   6.945   0.366 -0.2833 -0.4952  0.3035
16336TIP3    H170423   6.383   6.989   0.346 -1.8292 -2.6122  1.5888
16336TIP3    H270424   6.533   7.007   0.338 -2.2361  0.5104 -2.6812
16337TIP3   OH270425   5.936   0.926   3.395  0.2070 -0.2154  0.1288
16337TIP3    H170426   6.011   0.872   3.419 -0.5201 -0.7665  1.2728
16337TIP3    H270427   5.863   0.864   3.390 -0.1620  0.2776 -1.1444
16338TIP3   OH270428   6.128   4.421   2.708 -0.1542 -0.7797  0.0817
16338TIP3    H170429   6.132   4.372   2.790  0.7609  0.4130  0.7801
16338TIP3    H270430   6.117   4.512   2.736 -1.5907 -0.5249 -1.1702
16339TIP3   OH270431   2.567   1.777  12.236  0.1685  0.1421  0.5789
16339TIP3    H170432   2.530   1.697  12.273 -0.3179  0.6338  1.1843
16339TIP3    H270433   2.548   1.844  12.301 -0.6151  1.0170 -0.5124
16340TIP3   OH270434   5.832   6.915   4.145 -0.0082 -0.0541  0.4516
16340TIP3    H170435   5.820   6.949   4.235  0.0951 -0.6627  0.6954
16340TIP3    H270436   5.898   6.847   4.153 -1.9543 -2.0833  0.4198
16341TIP3   OH270437   2.637   0.994   3.679 -0.0236 -0.0321 -0.0802
16341TIP3    H170438   2.710   1.055   3.684  0.2079 -0.3187  0.0940
16341TIP3    H270439   2.658   0.927   3.744  0.3912 -1.0196 -1.2038
16342TIP3   OH270440   3.727   4.983   1.902 -0.4916  0.1823 -0.2990
16342TIP3    H170441   3.799   4.954   1.845 -0.9010  0.7358 -1.1248
16342TIP3    H270442   3.648   4.959   1.854 -0.8441  1.5738 -0.4654
16343TIP3   OH270443   0.059   1.802   1.422  0.0486 -0.2831 -0.2192
16343TIP3    H170444  -0.011   1.749   1.385  0.6545  0.0328 -1.8994
16343TIP3    H270445   0.044   1.889   1.385  1.7898 -0.4055 -1.2810
16344TIP3   OH270446   0.597   1.150   1.013  0.9015 -0.1839 -0.3666
16344TIP3    H170447   0.526   1.166   0.951 -0.5461  0.7226  1.4086
16344TIP3    H270448   0.618   1.237   1.047 -0.3340 -0.8722  2.4307
16345TIP3   OH270449   5.470   1.062   2.278 -0.0613  0.2576 -0.3157
16345TIP3    H170450   5.442   1.082   2.189  1.1121 -2.3641 -1.4090
16345TIP3    H270451   5.416   0.987   2.303  0.6616  0.0192  0.5664
16346TIP3   OH270452   1.291   2.453   3.782 -0.1827  0.0815  0.7264
16346TIP3    H170453   1.339   2.412   3.710 -0.2757  0.9164  0.1729
16346TIP3    H270454   1.305   2.547   3.770 -0.9264  0.2756  1.2909
16347TIP3   OH270455   7.193   3.475  13.100 -0.2301 -0.0416  0.2608
16347TIP3    H170456   7.101   3.448  13.104 -0.2219  0.0288  1.4892
16347TIP3    H270457   7.192   3.566  13.128  0.2529 -0.1602  0.6768
16348TIP3   OH270458   5.771   1.507   4.593  0.2956  0.2877 -0.2074
16348TIP3    H170459   5.730   1.516   4.679  1.6351 -0.1750  0.5259
16348TIP3    H270460   5.853   1.557   4.600  2.0548 -2.4108 -0.0349
16349TIP3   OH270461   5.064   0.098   4.148  0.6841 -0.2639  0.0416
16349TIP3    H170462   4.980   0.054   4.161  0.4979 -0.1696 -0.7847
16349TIP3    H270463   5.125   0.027   4.128  0.5508 -0.2245 -0.5129
16350TIP3   OH270464   2.482   2.376   5.088  0.1971  0.2825 -0.0752
16350TIP3    H170465   2.511   2.445   5.148 -0.8662  0.1189  0.6607
16350TIP3    H270466   2.485   2.416   5.002 -0.0434  1.1435  0.3029
16351TIP3   OH270467   0.394   5.444   2.541  0.1198 -0.5683  0.9816
16351TIP3    H170468   0.359   5.405   2.461 -0.4443  0.3206  0.7910
16351TIP3    H270469   0.423   5.368   2.593  0.8215 -1.1357 -0.1936
16352TIP3   OH270470   6.626   0.634   0.560 -0.0667 -0.5669 -0.1146
16352TIP3    H170471   6.605   0.718   0.519  1.4869 -1.1525 -2.2983
16352TIP3    H270472   6.720   0.638   0.578 -0.5903 -0.5237  3.1732
16353TIP3   OH270473   3.790   6.098  15.122  0.0784  0.6501 -0.3286
16353TIP3    H170474   3.770   6.083  15.215  1.1259  0.6091 -0.0990
16353TIP3    H270475   3.882   6.074  15.113  1.1686  4.3275 -0.5271
16354TIP3   OH270476   3.802   2.906   1.977  0.0734  0.1831  0.3489
16354TIP3    H170477   3.730   2.918   1.915 -0.2584 -0.7678  0.5313
16354TIP3    H270478   3.814   2.992   2.017  1.2692  1.2227 -2.0471
16355TIP3   OH270479   7.103   1.285   4.455  0.1513 -0.2896 -0.4136
16355TIP3    H170480   7.143   1.279   4.541 -0.7641 -1.7521 -0.0597
16355TIP3    H270481   7.010   1.299   4.472 -0.2165 -1.6911 -1.1033
16356TIP3   OH270482   2.997   0.179   2.392  0.0099 -0.1343  0.2733
16356TIP3    H170483   2.955   0.255   2.351 -0.4233 -0.9894 -0.9147
16356TIP3    H270484   3.090   0.204   2.399 -0.3987  1.1909  1.5800
16357TIP3   OH270485   3.028   2.816   3.623 -0.0595  0.2368 -0.4913
16357TIP3    H170486   2.947   2.866   3.629 -0.6216 -0.4816 -1.6364
16357TIP3    H270487   3.016   2.743   3.684  0.3488  0.9141  0.4267
16358TIP3   OH270488   3.106   6.326   4.624  0.1202  0.3767  0.0590
16358TIP3    H170489   3.089   6.398   4.563  1.0747  1.3143  0.8724
16358TIP3    H270490   3.198   6.305   4.611  0.4921  0.9752  1.5665
16359TIP3   OH270491   1.813   6.584   2.384 -0.0228 -0.0289 -0.2926
16359TIP3    H170492   1.806   6.507   2.327 -2.3488 -0.0435 -0.0956
16359TIP3    H270493   1.828   6.549   2.471 -1.1608 -0.3064 -0.1894
16360TIP3   OH270494   2.761   1.983   2.749  0.3102  0.3038  0.4130
16360TIP3    H170495   2.772   2.051   2.816  1.4493  0.1160  0.4383
16360TIP3    H270496   2.737   2.030   2.670 -2.5983  0.4222  1.2503
16361TIP3   OH270497   4.092   3.134   1.325 -0.3231  0.8524  0.6172
16361TIP3    H170498   4.078   3.041   1.339 -1.5697  1.0676  0.9012
16361TIP3    H270499   4.004   3.173   1.329  0.2495  2.1529  1.3772
16362TIP3   OH270500   0.827   1.485   3.651 -0.0981  0.2545  0.2117
16362TIP3    H170501   0.811   1.576   3.625 -1.4067  0.2665  0.9624
16362TIP3    H270502   0.834   1.489   3.747 -1.6281 -0.6151  0.3862
16363TIP3   OH270503   3.730   1.071   3.166 -0.4011 -0.1068 -0.0606
16363TIP3    H170504   3.649   1.109   3.132  0.0939  0.8745 -0.1774
16363TIP3    H270505   3.743   0.992   3.113 -1.4119 -0.4219  0.1414
16364TIP3   OH270506   2.675   6.931   3.503  0.3935  0.5501  0.5657
16364TIP3    H170507   2.669   6.838   3.525 -0.0072 -0.1270 -2.1053
16364TIP3    H270508   2.638   6.976   3.579 -1.5842 -1.5877  0.9709
16365TIP3   OH270509   5.757   5.866  12.484 -0.5240 -0.4265 -0.2999
16365TIP3    H170510   5.848   5.837  12.470 -0.1862  0.6360 -0.3769
16365TIP3    H270511   5.753   5.889  12.577 -0.9017 -1.0721 -0.1490
16366TIP3   OH270512   6.280   4.382  15.147  0.3705  0.4143  0.0547
16366TIP3    H170513   6.207   4.413  15.200  0.2054  0.6964 -0.3283
16366TIP3    H270514   6.248   4.300  15.108  0.1006  0.7526 -0.4437
16367TIP3   OH270515   2.045   1.574   3.923  0.0893  0.2900 -0.3193
16367TIP3    H170516   2.107   1.528   3.979 -0.1343 -1.7731 -1.6736
16367TIP3    H270517   2.091   1.655   3.897  1.3311 -0.1536  0.4432
16368TIP3   OH270518   5.327   2.447  12.761 -0.9046 -0.1286 -0.2752
16368TIP3    H170519   5.393   2.412  12.702 -1.5009  0.7576 -1.5273
16368TIP3    H270520   5.372   2.457  12.844 -0.0222 -1.3842 -0.5681
16369TIP3   OH270521   6.146   6.556  12.229  0.1200  0.0086  0.4307
16369TIP3    H170522   6.211   6.626  12.225 -1.3819  1.4513 -0.3128
16369TIP3    H270523   6.181   6.487  12.172  2.1866 -0.4279  2.0898
16370TIP3   OH270524   2.270   5.596   0.859  0.2229  0.2486  0.1666
16370TIP3    H170525   2.218   5.576   0.936  1.6857 -0.6041  0.9736
16370TIP3    H270526   2.262   5.518   0.804 -0.1169  0.5036 -0.1490
16371TIP3   OH270527   4.662   0.586   3.727  0.0287  0.3647  0.3639
16371TIP3    H170528   4.705   0.596   3.812 -0.5812 -1.1198  0.8604
16371TIP3    H270529   4.578   0.545   3.746 -1.8636  3.4569 -0.5602
16372TIP3   OH270530   2.024   6.012   4.279 -0.8000 -0.0974 -0.0557
16372TIP3    H170531   2.054   6.082   4.221  1.3377 -0.4323  0.5654
16372TIP3    H270532   1.985   6.058   4.354  0.5680  0.4931  0.3364
16373TIP3   OH270533   6.056   1.987   4.237 -0.7020  0.0362 -0.4467
16373TIP3    H170534   5.984   1.946   4.190 -0.1568 -1.1144 -0.3071
16373TIP3    H270535   6.056   1.944   4.323  0.3530 -0.2230 -0.5638
16374TIP3   OH270536   0.039   2.839   1.714  0.1934 -0.0821  0.5356
16374TIP3    H170537   0.014   2.872   1.628  0.6198 -0.5749  0.2196
16374TIP3    H270538  -0.042   2.838   1.764 -0.4031 -1.5158 -0.4201
16375TIP3   OH270539   3.286   2.890   0.886  0.8484 -0.0569  0.3911
16375TIP3    H170540   3.276   2.974   0.840 -0.6346  0.4036  1.4707
16375TIP3    H270541   3.198   2.854   0.889  0.7966  0.0976  3.1057
16376TIP3   OH270542   6.776   1.283  13.331  0.2687 -0.2064 -0.1931
16376TIP3    H170543   6.791   1.195  13.367 -0.3097  0.4351  1.7176
16376TIP3    H270544   6.695   1.274  13.280 -1.1702 -0.3218  1.9704
16377TIP3   OH270545   4.190   1.121   2.736  0.6846  0.2641  0.1072
16377TIP3    H170546   4.254   1.183   2.771 -0.5647  0.4425  2.3099
16377TIP3    H270547   4.241   1.062   2.681  2.2893  1.8635 -0.2271
16378TIP3   OH270548   1.472   0.839   0.607 -0.7395 -0.4880 -0.0305
16378TIP3    H170549   1.518   0.766   0.648 -2.7526 -1.0725  1.3101
16378TIP3    H270550   1.391   0.801   0.573 -1.0196  0.7964 -0.8602
16379TIP3   OH270551   4.160   0.011   2.888  0.0598 -0.1963  0.6528
16379TIP3    H170552   4.221   0.032   2.959 -0.3080 -0.3500  1.0168
16379TIP3    H270553   4.086   0.071   2.902  1.0489  1.5424 -1.0629
16380TIP3   OH270554   6.305   3.269  10.595 -0.6217 -0.0137  0.6251
16380TIP3    H170555   6.397   3.292  10.602 -1.0423  1.5500  1.4738
16380TIP3    H270556   6.299   3.179  10.626  0.5623 -0.0006  0.9076
16381TIP3   OH270557   0.275   3.652   4.108  0.0236  0.4617 -1.0687
16381TIP3    H170558   0.348   3.610   4.063  0.1174  0.5950 -1.0412
16381TIP3    H270559   0.219   3.580   4.137  1.2727  0.1965  0.8713
16382TIP3   OH270560   3.421   5.758   4.128 -0.3498 -0.1248 -0.2850
16382TIP3    H170561   3.331   5.739   4.104 -0.4613  0.9479 -0.7964
16382TIP3    H270562   3.431   5.852   4.113  0.3725  0.1053  1.3613
16383TIP3   OH270563   6.817   1.877  14.701  0.4103 -0.3798 -0.2844
16383TIP3    H170564   6.845   1.859  14.791 -1.5591 -2.1685  0.0421
16383TIP3    H270565   6.738   1.929  14.711  1.0402  0.7418 -1.0536
16384TIP3   OH270566   6.726   4.687   2.877 -0.2552  0.3895 -0.3397
16384TIP3    H170567   6.648   4.739   2.859 -1.5226 -1.2268  0.2934
16384TIP3    H270568   6.697   4.596   2.873  1.3739 -0.2470  0.9222
16385TIP3   OH270569   4.048   1.354   5.625 -0.5454  0.5430 -0.1045
16385TIP3    H170570   4.009   1.289   5.682 -0.6344  0.9925  0.3517
16385TIP3    H270571   4.065   1.429   5.682 -0.0265  0.7512 -0.5256
16386TIP3   OH270572   3.856   0.343   1.719  0.6993 -0.0444  0.4293
16386TIP3    H170573   3.903   0.262   1.698  1.7414  0.7627 -0.4667
16386TIP3    H270574   3.863   0.351   1.814 -0.1338 -1.4124  0.6404
16387TIP3   OH270575   2.377   6.429   1.558 -0.2157  0.0926 -0.4171
16387TIP3    H170576   2.331   6.367   1.501  0.4207  0.0105 -0.8536
16387TIP3    H270577   2.470   6.414   1.540 -0.0256  0.5460  0.1438
16388TIP3   OH270578   3.080   2.224   5.904  0.0158 -0.6770 -0.1934
16388TIP3    H170579   3.020   2.288   5.943  3.1371  1.3259  1.6664
16388TIP3    H270580   3.049   2.140   5.938  0.6097  0.6612  4.2544
16389TIP3   OH270581   0.397   4.529  13.085  0.6707 -0.6088 -0.1840
16389TIP3    H170582   0.422   4.607  13.133  1.1250 -0.3990 -0.7475
16389TIP3    H270583   0.309   4.549  13.051  1.2732  0.1768 -1.3730
16390TIP3   OH270584   5.704   6.316   4.749 -0.5073 -0.2625 -0.1922
16390TIP3    H170585   5.765   6.256   4.706  0.6661 -0.8165  2.0629
16390TIP3    H270586   5.687   6.384   4.685  2.2356 -0.2792 -1.0680
16391TIP3   OH270587   2.085   3.913   4.888  0.2427 -0.0442  0.5396
16391TIP3    H170588   2.034   3.860   4.949  0.2859 -2.2307 -1.2076
16391TIP3    H270589   2.020   3.968   4.844  0.1076  0.9026  1.8462
16392TIP3   OH270590   6.641   1.814   0.196  0.1623 -0.2512  0.1057
16392TIP3    H170591   6.598   1.738   0.157  0.8935 -0.6880  0.1494
16392TIP3    H270592   6.571   1.859   0.244 -0.7029  0.1599 -1.4793
16393TIP3   OH270593   6.932   3.574   2.678 -0.0112 -0.3804 -0.1989
16393TIP3    H170594   6.957   3.518   2.751 -1.4636 -0.2709  0.4278
16393TIP3    H270595   7.013   3.587   2.628  0.7926 -1.2775  0.8233
16394TIP3   OH270596   4.934   4.416   5.247 -0.0688  0.2978 -0.3699
16394TIP3    H170597   4.876   4.485   5.280 -1.3276 -0.1517 -1.5511
16394TIP3    H270598   4.916   4.341   5.304 -0.1520  0.3619 -0.3111
16395TIP3   OH270599   6.419   5.163   3.287 -0.4943 -0.1859 -0.2242
16395TIP3    H170600   6.489   5.225   3.311 -1.2819  0.4446  0.5173
16395TIP3    H270601   6.361   5.162   3.363 -0.7739 -1.4650 -0.4306
16396TIP3   OH270602   3.292   0.671   2.943 -0.2681 -0.0032 -0.0849
16396TIP3    H170603   3.293   0.766   2.948  1.3424 -0.0160  0.2830
16396TIP3    H270604   3.222   0.645   3.004 -0.9539  0.9271 -0.4455
16397TIP3   OH270605   6.498   4.473   4.863  0.7430  0.0981 -0.4377
16397TIP3    H170606   6.554   4.429   4.799  1.4183  0.7641 -0.3273
16397TIP3    H270607   6.425   4.508   4.812  1.1197  0.3673 -0.7964
16398TIP3   OH270608   5.990   0.436  13.837  0.3385  0.0616  0.1836
16398TIP3    H170609   5.974   0.521  13.795 -2.2851 -0.0274  0.8141
16398TIP3    H270610   6.041   0.457  13.915 -1.4956  1.3499  1.1226
16399TIP3   OH270611   4.489   6.263   2.007  0.2345  0.0235  0.5826
16399TIP3    H170612   4.407   6.282   1.962  1.0127  1.0986 -0.4137
16399TIP3    H270613   4.514   6.346   2.047  1.6623  0.1451 -0.5071
16400TIP3   OH270614   3.868   1.331   5.123  1.0133 -0.3582  0.0271
16400TIP3    H170615   3.862   1.425   5.141 -0.8712 -0.8114  2.1388
16400TIP3    H270616   3.861   1.290   5.209  1.1475 -2.4870 -0.9254
16401TIP3   OH270617   2.484   4.729   1.975  0.0318 -0.0203 -0.1749
16401TIP3    H170618   2.406   4.674   1.982  0.9084 -1.2435  0.5179
16401TIP3    H270619   2.462   4.809   2.022  0.0773 -1.4301  2.4414
16402TIP3   OH270620   0.826   5.113   2.937  0.2648 -0.3103  0.1976
16402TIP3    H170621   0.882   5.153   3.004  1.2817 -1.6829  0.2047
16402TIP3    H270622   0.880   5.115   2.857 -0.1723 -0.4889 -0.1029
16403TIP3   OH270623   1.855   5.393  13.730 -0.1463 -0.1978  0.1341
16403TIP3    H170624   1.783   5.405  13.792 -0.4715  0.4481 -0.3543
16403TIP3    H270625   1.895   5.480  13.724 -0.5500 -0.0844 -1.0904
16404TIP3   OH270626   1.039   2.390   3.949 -0.6467  0.0906 -0.7516
16404TIP3    H170627   1.062   2.451   3.879 -1.7877 -0.5426 -1.7030
16404TIP3    H270628   1.114   2.330   3.953 -1.0212 -0.5314 -2.2059
16405TIP3   OH270629   6.656   6.695  15.218  0.4350  0.4185  0.7536
16405TIP3    H170630   6.696   6.631  15.277  0.1047 -0.6248 -0.1217
16405TIP3    H270631   6.573   6.719  15.260  0.5023  0.1837  1.0229
16406TIP3   OH270632   5.523   1.717  14.124 -0.5113  0.3643 -0.5751
16406TIP3    H170633   5.508   1.777  14.197  0.6201  1.8193 -1.4837
16406TIP3    H270634   5.602   1.669  14.149 -0.0615  0.9386 -0.8722
16407TIP3   OH270635   1.196   0.829   1.216 -0.0621 -0.0717 -0.0126
16407TIP3    H170636   1.253   0.759   1.185 -0.3200  0.2432 -1.2222
16407TIP3    H270637   1.119   0.783   1.250  0.2662 -0.4186  0.2870
16408TIP3   OH270638   4.381   0.414  14.103  0.0521  0.3651  0.5097
16408TIP3    H170639   4.370   0.333  14.154  0.6774 -0.7492 -1.0306
16408TIP3    H270640   4.292   0.440  14.080 -0.1408 -0.0921  0.7160
16409TIP3   OH270641   4.569   6.667   1.919  0.4561  0.1895 -0.6421
16409TIP3    H170642   4.544   6.758   1.903 -0.0662  0.1678 -0.0201
16409TIP3    H270643   4.551   6.654   2.012 -0.4909 -0.8550 -0.9473
16410TIP3   OH270644   5.402   0.115   0.454 -0.5299 -0.0909 -0.0668
16410TIP3    H170645   5.469   0.171   0.416 -0.7123 -0.4850 -1.0065
16410TIP3    H270646   5.330   0.174   0.476 -0.3801  0.1560 -0.2426
16411TIP3   OH270647   3.467   0.974   1.728 -0.5128  0.2479 -0.2562
16411TIP3    H170648   3.388   0.934   1.692 -0.6828  0.4953 -0.1509
16411TIP3    H270649   3.458   0.966   1.823 -0.3187  0.0958 -0.2489
16412TIP3   OH270650   4.793   6.830   3.925 -0.2388  0.7822  0.7721
16412TIP3    H170651   4.886   6.808   3.933  0.0122  1.9143  1.2022
16412TIP3    H270652   4.758   6.765   3.864  0.9406  0.6232  0.2292
16413TIP3   OH270653   4.097   3.574   4.434  0.1827 -0.0154 -0.6361
16413TIP3    H170654   4.013   3.606   4.469 -0.5154 -1.8452 -0.5154
16413TIP3    H270655   4.148   3.653   4.417  0.0228  1.0719  3.1193
16414TIP3   OH270656   3.945   3.741   0.977 -0.0352  0.1349  0.2120
16414TIP3    H170657   3.938   3.733   0.882  0.0793 -3.0614  0.3613
16414TIP3    H270658   3.856   3.763   1.005 -0.6229 -1.1153 -0.5431
16415TIP3   OH270659   1.758   0.462   5.456 -0.3537  0.4507  0.3272
16415TIP3    H170660   1.722   0.413   5.529  0.9673  1.2256  1.5629
16415TIP3    H270661   1.813   0.529   5.497 -1.4380  2.4567 -1.2979
16416TIP3   OH270662   1.548   0.189   2.246 -0.7545  0.1291  0.2479
16416TIP3    H170663   1.566   0.227   2.332 -1.1282 -0.9364  0.8264
16416TIP3    H270664   1.505   0.259   2.197  1.1503  1.3558  0.2658
16417TIP3   OH270665   3.648   5.147   3.189  0.1614  0.0504  0.3938
16417TIP3    H170666   3.738   5.122   3.170  0.4109  1.2202 -0.0146
16417TIP3    H270667   3.607   5.160   3.103 -0.3789 -0.3800  0.5753
16418TIP3   OH270668   5.241   4.473   4.585  0.2262  0.2955 -0.7762
16418TIP3    H170669   5.212   4.387   4.553 -0.7400 -0.3490  1.6068
16418TIP3    H270670   5.165   4.530   4.570 -1.2447 -0.6097  2.4367
16419TIP3   OH270671   6.034   6.035   5.632  0.3053  0.1419  0.1445
16419TIP3    H170672   6.117   6.078   5.614 -0.2534  0.5129 -1.9018
16419TIP3    H270673   5.968   6.103   5.617 -0.4713 -0.7807 -0.7864
16420TIP3   OH270674   4.199   6.554   3.801 -0.4022 -0.4575  0.2524
16420TIP3    H170675   4.200   6.602   3.718  0.1009 -0.2964  0.3466
16420TIP3    H270676   4.179   6.464   3.776 -1.1297 -0.2445  0.0519
16421TIP3   OH270677   3.799   3.939   1.635 -0.0554  0.3230  0.4082
16421TIP3    H170678   3.734   3.968   1.700 -0.4800  0.8013 -0.2152
16421TIP3    H270679   3.827   4.020   1.592 -0.4250 -0.0654 -0.5941
16422TIP3   OH270680   2.267   5.394   5.445 -0.3877 -0.4293 -0.2210
16422TIP3    H170681   2.326   5.382   5.519 -0.2793  1.1814 -0.0019
16422TIP3    H270682   2.244   5.305   5.417  2.5991 -1.1302 -0.7258
16423TIP3   OH270683   3.241   6.963   1.761  0.4035  0.1149  0.0141
16423TIP3    H170684   3.314   7.002   1.809  1.0899 -1.5344  0.3862
16423TIP3    H270685   3.162   7.000   1.802  1.0011  0.4678  0.8731
16424TIP3   OH270686   4.857   3.110   3.875  0.1413  0.3409  0.2154
16424TIP3    H170687   4.780   3.089   3.822  1.0640 -0.4184 -0.8752
16424TIP3    H270688   4.837   3.073   3.961 -0.6543  0.0226 -0.0951
16425TIP3   OH270689   6.505   0.895   2.993 -0.4248  0.0244 -0.6772
16425TIP3    H170690   6.474   0.850   2.914  1.2339 -0.3183 -1.1761
16425TIP3    H270691   6.519   0.985   2.965  3.4871 -0.7403 -1.9079
16426TIP3   OH270692   3.695   3.946   1.931 -0.8173 -0.3996 -0.3365
16426TIP3    H170693   3.648   3.872   1.971  1.0018 -1.6772 -0.4168
16426TIP3    H270694   3.787   3.921   1.937 -0.3156  0.4495 -3.1767
16427TIP3   OH270695   4.149   1.012   4.973 -0.1031  0.3765 -0.3444
16427TIP3    H170696   4.188   0.952   4.909 -1.0669 -3.1225  2.0808
16427TIP3    H270697   4.056   0.994   4.970 -0.5807  2.4818 -0.1098
16428TIP3   OH270698   6.992   0.474   2.085  0.1749  0.7426 -0.1601
16428TIP3    H170699   7.051   0.408   2.048 -0.7068 -0.4217  0.4715
16428TIP3    H270700   6.930   0.425   2.138  0.9388  2.2909  2.3028
16429TIP3   OH270701   5.387   1.028   4.475 -0.0584  0.4600 -0.4220
16429TIP3    H170702   5.421   0.948   4.516 -1.1933 -1.9573 -3.7788
16429TIP3    H270703   5.413   1.021   4.383  0.0704  4.2129 -0.8306
16430TIP3   OH270704   2.975   5.063  13.385  0.5580 -0.3374  0.3837
16430TIP3    H170705   2.932   5.137  13.341  1.9595  1.2023  1.4666
16430TIP3    H270706   3.006   5.007  13.314  1.0206  1.0541 -0.5578
16431TIP3   OH270707   6.903   4.992  11.892  0.5382  0.3565 -0.1148
16431TIP3    H170708   6.986   5.036  11.874  1.1029  0.4777  2.4362
16431TIP3    H270709   6.899   4.987  11.988 -1.3010 -1.7562 -0.2413
16432TIP3   OH270710   7.034   1.962   2.260  0.2817  0.6980 -0.3421
16432TIP3    H170711   6.988   1.914   2.329  0.7679  2.4021  1.2472
16432TIP3    H270712   7.099   1.900   2.227 -0.2599 -0.2985  0.3974
16433TIP3   OH270713   1.778   4.357   4.150  0.7990 -0.1610 -0.4398
16433TIP3    H170714   1.709   4.422   4.140 -0.1610 -0.9130  1.0339
16433TIP3    H270715   1.733   4.273   4.150  1.6271 -0.6413  1.0794
16434TIP3   OH270716   0.260   2.345   2.891 -0.5630  0.3433  0.0519
16434TIP3    H170717   0.266   2.318   2.982  0.7891  3.2738  0.9410
16434TIP3    H270718   0.192   2.413   2.891  0.7819  1.7316 -0.7084
16435TIP3   OH270719   0.631   2.129   4.645 -0.0951 -0.3035  0.3963
16435TIP3    H170720   0.670   2.199   4.593 -0.0500 -1.8336 -1.7358
16435TIP3    H270721   0.549   2.166   4.678 -0.1857  0.6684 -0.8791
16436TIP3   OH270722   6.258   4.658   4.735  0.1086  0.2674 -0.3158
16436TIP3    H170723   6.225   4.699   4.814  0.3494 -0.8946  0.4090
16436TIP3    H270724   6.250   4.725   4.667  0.9462  1.6694  0.9218
16437TIP3   OH270725   1.317   1.137   3.908  0.3173  0.4139  0.7278
16437TIP3    H170726   1.395   1.192   3.908 -0.2582  1.2818 -0.6508
16437TIP3    H270727   1.279   1.148   3.995  1.5364  0.2223  1.3083
16438TIP3   OH270728   6.441   3.321   3.805  0.4484  0.1973  0.1181
16438TIP3    H170729   6.444   3.338   3.711 -1.3745  2.0569  0.3035
16438TIP3    H270730   6.357   3.359   3.833  1.1336  0.0806  2.5643
16439TIP3   OH270731   5.532   3.838  13.131  0.3205 -0.2281  0.5658
16439TIP3    H170732   5.507   3.831  13.038 -1.0012 -0.6279  0.9321
16439TIP3    H270733   5.620   3.875  13.129 -0.4701  1.7516 -0.8085
16440TIP3   OH270734   5.963   2.833   2.039 -0.2942  0.2028 -0.6015
16440TIP3    H170735   6.044   2.817   2.088 -0.9963 -1.9818 -0.0325
16440TIP3    H270736   5.899   2.859   2.106 -0.3542  0.7801 -0.8818
16441TIP3   OH270737   5.219   0.650   2.899  0.3803 -0.0657  0.1805
16441TIP3    H170738   5.149   0.683   2.843  0.8818 -1.5369 -1.3996
16441TIP3    H270739   5.293   0.637   2.840  1.0694 -1.3014  1.2683
16442TIP3   OH270740   1.341   4.267   2.926 -0.4497 -1.0731 -0.5063
16442TIP3    H170741   1.247   4.261   2.909 -0.1695  0.2926 -2.9520
16442TIP3    H270742   1.381   4.238   2.844  1.1539  2.4539 -1.1296
16443TIP3   OH270743   4.117   3.201   3.850  0.4286 -0.0650  0.9356
16443TIP3    H170744   4.061   3.225   3.924 -0.1306 -1.8582  1.1223
16443TIP3    H270745   4.157   3.118   3.875  0.1997 -0.7369 -0.7967
16444TIP3   OH270746   4.817   2.444   3.386  0.0334 -0.0033 -0.1736
16444TIP3    H170747   4.797   2.484   3.302  1.8493 -0.7925 -1.0252
16444TIP3    H270748   4.804   2.350   3.372 -2.5162  0.0284  1.3125
16445TIP3   OH270749   5.835   0.233   4.937  0.0083  0.1884  0.6026
16445TIP3    H170750   5.769   0.239   4.868  1.8346 -1.1948 -1.4010
16445TIP3    H270751   5.786   0.242   5.019 -2.6573 -0.9056 -0.7751
16446TIP3   OH270752   4.651   5.682   3.092 -0.0301  0.6243 -0.1043
16446TIP3    H170753   4.645   5.589   3.113 -0.6868  0.8543  0.7847
16446TIP3    H270754   4.739   5.707   3.119  0.2824  0.1804 -0.7011
16447TIP3   OH270755   5.912   1.518   1.300  0.0767 -0.0919 -0.2806
16447TIP3    H170756   5.980   1.452   1.302 -1.5922 -1.8675  0.5552
16447TIP3    H270757   5.947   1.591   1.351  2.0347 -0.1846 -1.4138
16448TIP3   OH270758   3.528   2.569   2.946  0.1723 -0.0845  0.4141
16448TIP3    H170759   3.486   2.497   2.993  0.0923 -0.4809 -0.2527
16448TIP3    H270760   3.545   2.635   3.013  0.0101 -0.6174  0.9855
16449TIP3   OH270761   1.931   3.352   4.642 -0.3253 -0.5970 -0.2614
16449TIP3    H170762   1.928   3.431   4.694  1.0599 -1.0318  0.5077
16449TIP3    H270763   1.954   3.382   4.554 -0.6374 -0.0777 -0.1714
16450TIP3   OH270764   6.167   5.722   3.158 -0.7547  0.3268  0.3134
16450TIP3    H170765   6.242   5.742   3.103  0.4487 -2.5758  0.7062
16450TIP3    H270766   6.114   5.802   3.157  1.7947  2.1279 -0.8014
16451TIP3   OH270767   0.614   6.582   4.402  0.2077  0.0075  0.7211
16451TIP3    H170768   0.637   6.657   4.347  0.1932 -0.8719 -0.5321
16451TIP3    H270769   0.669   6.592   4.480  0.7181  0.9346  0.2596
16452TIP3   OH270770   6.099   1.807   4.888 -0.1724 -0.7203 -0.2217
16452TIP3    H170771   6.102   1.884   4.832  0.3588  0.2829  1.1150
16452TIP3    H270772   6.191   1.789   4.910 -0.3870 -0.8510  0.6202
16453TIP3   OH270773   3.639   6.257   0.630 -0.2940  0.0244 -0.1249
16453TIP3    H170774   3.703   6.322   0.659  1.3757 -1.3185 -0.6161
16453TIP3    H270775   3.571   6.309   0.587 -0.0347  1.5834  1.2231
16454TIP3   OH270776   5.862   2.881   4.678  0.0966  0.1102 -0.5313
16454TIP3    H170777   5.857   2.884   4.773 -3.0113  0.3382 -0.6168
16454TIP3    H270778   5.858   2.973   4.650  0.1594  0.0020 -0.9139
16455TIP3   OH270779   0.719   0.535  14.271 -0.0647 -0.0889  0.2119
16455TIP3    H170780   0.698   0.500  14.185 -0.6087 -0.6486  0.5644
16455TIP3    H270781   0.808   0.570  14.262  0.0418 -0.5240 -0.4572
16456TIP3   OH270782   2.873   0.181  14.663 -0.0421  0.2233 -0.0000
16456TIP3    H170783   2.786   0.162  14.697  0.0655  0.2276  0.2840
16456TIP3    H270784   2.872   0.148  14.573 -1.1346  2.3812 -0.8473
16457TIP3   OH270785   3.820   0.986   1.840 -0.4154  0.0983 -0.3718
16457TIP3    H170786   3.815   0.898   1.878  1.4734 -0.0514 -0.4151
16457TIP3    H270787   3.752   1.035   1.887 -1.5810 -1.3913 -0.4284
16458TIP3   OH270788   1.441   2.211   2.728  0.0038 -0.2893  0.7676
16458TIP3    H170789   1.496   2.240   2.800 -0.1813  2.0106  0.0820
16458TIP3    H270790   1.469   2.265   2.654  0.5818 -2.9658 -1.0830
16459TIP3   OH270791   5.043   0.828   0.891 -0.0929 -0.2543 -0.2999
16459TIP3    H170792   5.062   0.790   0.806  0.8226 -0.0072 -0.2171
16459TIP3    H270793   4.983   0.766   0.932 -2.5063  0.7758 -2.0400
16460TIP3   OH270794   1.163   2.008   3.601  0.4710  0.3901 -0.0267
16460TIP3    H170795   1.238   2.009   3.661  1.2227  0.0645 -0.9341
16460TIP3    H270796   1.100   2.067   3.641 -0.6048 -2.4613  3.0010
16461TIP3   OH270797   5.508   5.982   2.970 -0.2847 -0.9644 -0.0984
16461TIP3    H170798   5.587   5.963   3.019 -0.5845  0.2159  0.8887
16461TIP3    H270799   5.449   5.910   2.991 -0.1252 -0.8862  0.6590
16462TIP3   OH270800   4.095   5.861   0.446  0.0950  0.4799  0.2755
16462TIP3    H170801   4.018   5.810   0.471 -0.1881  0.7341 -0.0687
16462TIP3    H270802   4.100   5.930   0.512 -1.2156  1.7284 -0.8671
16463TIP3   OH270803   5.577   6.952  13.246  0.4541  0.0602  0.1349
16463TIP3    H170804   5.641   7.000  13.298  1.9914 -0.6621 -1.0013
16463TIP3    H270805   5.517   7.019  13.215  1.6867  1.0600 -0.2133
16464TIP3   OH270806   0.506   1.944   0.963 -0.0391  0.2824 -0.1483
16464TIP3    H170807   0.585   1.917   1.008 -1.0737  0.3852  1.8232
16464TIP3    H270808   0.537   1.989   0.884  1.8063 -0.9349 -0.1680
16465TIP3   OH270809   0.413   0.136   4.599 -0.3630 -0.2546  0.3973
16465TIP3    H170810   0.403   0.098   4.511 -0.1588 -0.4510  0.4560
16465TIP3    H270811   0.496   0.182   4.595 -1.7658  2.4073 -0.4631
16466TIP3   OH270812   1.321   0.534  14.476  0.0717  0.3733  0.4091
16466TIP3    H170813   1.328   0.439  14.490 -0.6239  0.5182  1.9755
16466TIP3    H270814   1.236   0.546  14.434 -0.0988  0.3566  0.7519
16467TIP3   OH270815   4.010   2.253   0.210 -0.1191 -0.3376 -0.1268
16467TIP3    H170816   4.049   2.213   0.287  0.6362  1.9042  0.7536
16467TIP3    H270817   4.077   2.244   0.141  1.1941  1.6184  0.7940
16468TIP3   OH270818   3.602   3.124   0.907 -0.2036 -0.1319 -0.2084
16468TIP3    H170819   3.644   3.090   0.986  0.6915  1.3489 -0.0095
16468TIP3    H270820   3.566   3.208   0.934  1.7917  1.3338 -1.7996
16469TIP3   OH270821   1.485   1.595   1.420 -0.3518 -0.2666 -0.2004
16469TIP3    H170822   1.470   1.542   1.499 -1.1236 -1.5409 -1.1557
16469TIP3    H270823   1.484   1.531   1.349  0.6918  0.8206 -1.2153
16470TIP3   OH270824   5.467   4.919   5.839  0.3955  0.2656  0.6647
16470TIP3    H170825   5.376   4.889   5.834  0.4985 -0.1949  1.3593
16470TIP3    H270826   5.468   5.002   5.792  0.0846 -0.7924 -1.3184
16471TIP3   OH270827   1.012   0.989   4.682 -0.2239  0.8979  0.3067
16471TIP3    H170828   1.000   0.940   4.600 -0.0988  1.0303  0.2098
16471TIP3    H270829   1.029   1.079   4.654  0.7502  0.7668  0.4518
16472TIP3   OH270830   3.954   2.693   1.998 -0.0185  0.2370 -0.1265
16472TIP3    H170831   3.889   2.754   1.962 -0.0669 -0.3921 -1.1668
16472TIP3    H270832   4.017   2.682   1.926  0.2275 -0.5852  0.2089
16473TIP3   OH270833   0.255   3.846   2.684  0.0123 -0.4761 -0.3637
16473TIP3    H170834   0.282   3.774   2.627 -1.3630  0.6529 -2.5462
16473TIP3    H270835   0.252   3.923   2.627 -0.5261  0.9208  1.4474
16474TIP3   OH270836   6.605   4.153   1.420  0.4261 -0.5208 -0.5178
16474TIP3    H170837   6.524   4.196   1.448  1.5871  2.6057 -1.5292
16474TIP3    H270838   6.662   4.156   1.496  0.5118 -0.2611 -0.5924
16475TIP3   OH270839   4.077   1.740   4.362  0.3008 -0.2749 -0.4591
16475TIP3    H170840   4.115   1.763   4.447  0.0331 -1.6163  0.0589
16475TIP3    H270841   4.147   1.694   4.316  0.2105 -0.2095 -0.6634
16476TIP3   OH270842   2.788   5.345   3.952 -0.3001  0.2249 -0.3550
16476TIP3    H170843   2.695   5.336   3.928 -0.2258  0.9419 -0.9597
16476TIP3    H270844   2.798   5.291   4.030 -0.9907 -0.6717 -0.8742
16477TIP3   OH270845   0.438   1.657   0.136  0.4321  0.2212 -0.7368
16477TIP3    H170846   0.363   1.611   0.098  1.9858 -0.4696 -3.1358
16477TIP3    H270847   0.403   1.744   0.157 -1.7779 -0.9826  1.1253
16478TIP3   OH270848   6.954   1.124   3.442 -0.4018 -0.2147 -0.5937
16478TIP3    H170849   6.967   1.147   3.534  0.4570 -2.1245 -0.1780
16478TIP3    H270850   6.867   1.158   3.421 -1.0134 -0.5305  1.2277
16479TIP3   OH270851   1.481   3.394   5.362 -0.3283 -0.3701 -0.2171
16479TIP3    H170852   1.577   3.388   5.360 -0.3491 -0.8244 -0.1107
16479TIP3    H270853   1.452   3.308   5.333 -0.6973 -0.6941  1.0403
16480TIP3   OH270854   2.044   1.596   5.315 -0.6008 -0.3933 -0.3347
16480TIP3    H170855   1.958   1.610   5.355 -0.5674 -0.2778 -0.3017
16480TIP3    H270856   2.029   1.604   5.221 -0.7939 -1.2878 -0.3817
16481TIP3   OH270857   2.476   6.145   1.433 -0.5200 -0.5237 -0.2235
16481TIP3    H170858   2.524   6.070   1.398 -1.0742 -0.7231 -0.5586
16481TIP3    H270859   2.487   6.137   1.528  0.4706 -0.3203 -0.3037
16482TIP3   OH270860   3.138   6.874   4.387  0.6891  0.3819  0.5947
16482TIP3    H170861   3.078   6.909   4.322 -0.0389 -1.7528  0.0492
16482TIP3    H270862   3.225   6.891   4.352  0.3104 -1.6621 -1.5264
16483TIP3   OH270863   5.646   4.012   4.534  0.5860 -0.6385  0.1775
16483TIP3    H170864   5.657   3.935   4.589 -0.3705 -1.8359 -1.2393
16483TIP3    H270865   5.552   4.016   4.516  0.3320  1.9249  1.6708
16484TIP3   OH270866   6.748   6.465   2.984  0.8951 -0.3332  0.7493
16484TIP3    H170867   6.793   6.475   2.900  1.9268 -1.5250  1.1143
16484TIP3    H270868   6.666   6.421   2.962  1.2314 -0.7839  0.3751
16485TIP3   OH270869   0.925   0.722  14.509 -0.1643  0.1313 -0.3600
16485TIP3    H170870   0.848   0.750  14.558 -1.1906  2.0000 -2.8768
16485TIP3    H270871   0.982   0.681  14.576 -1.8980  1.5519  2.1428
16486TIP3   OH270872   0.875   3.678   3.015 -0.0553 -0.3908 -0.5066
16486TIP3    H170873   0.964   3.715   3.017 -0.8647  1.7188 -0.7513
16486TIP3    H270874   0.829   3.730   2.949 -1.9851 -0.1833  0.9128
16487TIP3   OH270875   4.779   4.233   2.299  0.0552 -0.6136 -0.2793
16487TIP3    H170876   4.800   4.271   2.214 -0.8542 -0.0750 -0.2682
16487TIP3    H270877   4.826   4.288   2.362  0.1134 -0.5529 -0.3749
16488TIP3   OH270878   5.193   4.050   1.265  0.3134  0.9083  0.3285
16488TIP3    H170879   5.276   4.044   1.218  0.6223 -2.6998  1.0170
16488TIP3    H270880   5.154   4.133   1.237  2.8030  1.3373 -2.2246
16489TIP3   OH270881   4.181   1.103   0.672  0.1381 -0.1752  0.5083
16489TIP3    H170882   4.165   1.178   0.615 -1.1427 -0.4775  0.4626
16489TIP3    H270883   4.232   1.140   0.745 -0.0826  0.6455  0.2589
16490TIP3   OH270884   3.403   5.507   5.181  0.2602  0.5283  0.0651
16490TIP3    H170885   3.394   5.436   5.244 -0.0509  2.1373  1.9547
16490TIP3    H270886   3.342   5.574   5.212 -0.8969  0.9065 -2.7549
16491TIP3   OH270887   2.798   6.732  13.718 -0.3912 -0.4926 -0.4224
16491TIP3    H170888   2.727   6.778  13.762 -1.2410  0.3431 -2.5636
16491TIP3    H270889   2.843   6.799  13.667  0.7752 -1.3595 -0.5867
16492TIP3   OH270890   0.445   4.900   5.897  0.2442 -0.0853 -0.1290
16492TIP3    H170891   0.455   4.806   5.913  0.9525 -0.0464 -0.3021
16492TIP3    H270892   0.494   4.942   5.969  0.0015  0.1482 -0.0985
16493TIP3   OH270893   3.172   5.192   4.235  0.0674  0.1374  0.4200
16493TIP3    H170894   3.219   5.108   4.237  0.4019  0.2240 -1.6054
16493TIP3    H270895   3.229   5.249   4.184 -1.9508  0.4167 -1.6690
16494TIP3   OH270896   0.342   3.400   2.923  0.5674 -0.7696 -0.9769
16494TIP3    H170897   0.312   3.442   3.004  0.8179 -0.6895 -0.9238
16494TIP3    H270898   0.438   3.397   2.932  0.5789 -0.9763 -1.1645
16495TIP3   OH270899   7.016   4.854   5.837  0.3226 -0.3231  0.2129
16495TIP3    H170900   6.965   4.888   5.911 -0.5099 -0.1730 -0.4135
16495TIP3    H270901   7.050   4.933   5.794  2.5740 -0.4396  1.5976
16496TIP3   OH270902   2.971   5.695   0.682  0.2408 -0.0963  0.8806
16496TIP3    H170903   2.900   5.667   0.625  1.3144 -0.1442 -0.5069
16496TIP3    H270904   2.936   5.770   0.730 -0.7375 -0.1263  0.2395
16497TIP3   OH270905   0.986   2.462   0.104  0.5074  0.0143  0.1917
16497TIP3    H170906   0.989   2.394   0.171 -0.8929  1.2556  1.6026
16497TIP3    H270907   0.893   2.474   0.087  0.8287 -0.3349 -2.1098
16498TIP3   OH270908   1.251   4.987   0.357  0.3326  0.4298 -0.4212
16498TIP3    H170909   1.278   4.897   0.370 -1.9441 -0.4975 -1.5247
16498TIP3    H270910   1.262   5.028   0.443  0.8126 -1.0527  0.2586
16499TIP3   OH270911   5.254   2.933   1.993 -0.6100 -0.3465  0.4237
16499TIP3    H170912   5.320   3.003   1.998 -2.4776  1.5662  0.0211
16499TIP3    H270913   5.230   2.917   2.085 -1.5266  1.0056  0.4645
16500TIP3   OH270914   1.405   2.059   3.737  0.1540 -0.3414 -0.5643
16500TIP3    H170915   1.430   2.124   3.671 -0.8962 -1.2171 -1.8935
16500TIP3    H270916   1.487   2.022   3.767  0.6487 -0.0992 -1.5810
16501TIP3   OH270917   1.910   5.877   3.283  0.0889 -0.3590 -0.1898
16501TIP3    H170918   1.988   5.825   3.266 -0.8875 -1.3619 -1.9875
16501TIP3    H270919   1.890   5.919   3.199 -1.2392 -0.0611  0.2458
16502TIP3   OH270920   5.713   6.283   5.237  0.6281 -0.4924 -0.2382
16502TIP3    H170921   5.730   6.201   5.283  2.9056 -0.2372 -0.5250
16502TIP3    H270922   5.672   6.257   5.155 -0.1925 -1.1938  0.3755
16503TIP3   OH270923   5.277   1.541   0.003  0.4892 -0.3344 -0.2558
16503TIP3    H170924   5.304   1.466   0.056 -0.0986  0.5658  1.3824
16503TIP3    H270925   5.341   1.609   0.022 -1.3354  0.9757  1.7031
16504TIP3   OH270926   5.949   0.581   2.484 -0.1173 -0.0480  0.1234
16504TIP3    H170927   5.908   0.580   2.570  1.0021 -0.6465  0.6655
16504TIP3    H270928   5.942   0.673   2.456 -1.8709 -0.1350  0.1373
16505TIP3   OH270929   6.787   3.080  15.078  0.5213  0.2579 -0.2553
16505TIP3    H170930   6.765   3.012  15.014 -1.1191 -1.7424  2.2205
16505TIP3    H270931   6.877   3.062  15.102  0.6651  0.0902 -0.8895
16506TIP3   OH270932   0.367   7.091   3.989  0.0056 -0.1567 -0.3315
16506TIP3    H170933   0.379   7.142   4.069  2.5774 -1.0712 -0.0710
16506TIP3    H270934   0.295   7.136   3.944 -0.6059  1.1899  1.8045
16507TIP3   OH270935   3.513   3.185   3.700 -0.1262 -0.1401 -0.3062
16507TIP3    H170936   3.440   3.200   3.759 -0.2114  1.1382 -0.7117
16507TIP3    H270937   3.495   3.240   3.624  0.6512 -0.7275 -0.9394
16508TIP3   OH270938   6.196   2.910   1.488  0.8610  0.0053  0.1072
16508TIP3    H170939   6.227   2.857   1.561 -0.3173  2.4350  2.5501
16508TIP3    H270940   6.102   2.890   1.482  1.0384 -0.5831 -1.1970
16509TIP3   OH270941   1.444   2.716   0.382  0.6420  0.0450 -0.1020
16509TIP3    H170942   1.441   2.638   0.326  1.7758 -0.2643  0.2278
16509TIP3    H270943   1.445   2.790   0.321 -0.1379 -0.2060 -0.4280
16510TIP3   OH270944   5.277   2.398   3.384  0.0820 -0.1857  0.2100
16510TIP3    H170945   5.196   2.448   3.387  0.1224 -0.1391  0.5245
16510TIP3    H270946   5.250   2.306   3.380 -0.0589 -0.1276 -2.5845
16511TIP3   OH270947   4.527   5.437   5.707 -0.2964  0.4698 -0.4010
16511TIP3    H170948   4.559   5.477   5.627  3.4387  1.3680  1.3408
16511TIP3    H270949   4.550   5.345   5.700  0.7054  0.6842 -0.1294
16512TIP3   OH270950   6.604   5.602   3.405 -0.3796  0.4077  0.6329
16512TIP3    H170951   6.543   5.580   3.334  0.7536  0.8654 -0.5132
16512TIP3    H270952   6.637   5.518   3.435  1.2757  0.2484 -1.3578
16513TIP3   OH270953   2.254   4.017   3.327 -0.9069  0.0653 -0.4375
16513TIP3    H170954   2.206   4.026   3.409 -0.1613  0.5508 -0.0349
16513TIP3    H270955   2.204   4.069   3.264 -0.1317  1.8706  0.3388
16514TIP3   OH270956   4.570   0.699   2.323 -0.3157 -0.1298 -0.0128
16514TIP3    H170957   4.622   0.749   2.386 -2.0036 -0.6253  1.8861
16514TIP3    H270958   4.618   0.706   2.240  1.1653  1.8782  0.9495
16515TIP3   OH270959   3.160   2.074   4.353 -0.4755  0.3802 -0.0669
16515TIP3    H170960   3.105   2.153   4.346 -0.0249  0.6631 -0.5442
16515TIP3    H270961   3.105   2.011   4.398 -0.4488  1.3312  1.3658
16516TIP3   OH270962   6.725   0.248   3.257 -0.1451  0.2114 -0.4759
16516TIP3    H170963   6.749   0.330   3.215  2.7114 -1.8673 -3.4316
16516TIP3    H270964   6.807   0.218   3.298 -0.9128 -1.4989 -0.1125
16517TIP3   OH270965   1.985   0.094  11.849 -0.3471 -0.0558  0.0757
16517TIP3    H170966   1.977  -0.001  11.861  0.4319  0.0330  1.5890
16517TIP3    H270967   1.895   0.126  11.859 -0.4938 -0.5594  0.4660
16518TIP3   OH270968   4.102   3.729   4.128 -0.3334  0.1674 -0.5690
16518TIP3    H170969   4.006   3.727   4.119 -0.4830  3.2758 -0.6717
16518TIP3    H270970   4.117   3.769   4.213  0.8516  1.1627 -1.2177
16519TIP3   OH270971   0.533   6.501  12.919 -0.4797  0.3239  0.0931
16519TIP3    H170972   0.509   6.569  12.857 -0.4781  1.8369  1.6885
16519TIP3    H270973   0.467   6.507  12.988 -0.1387 -0.9151  0.5612
16520TIP3   OH270974   7.041   3.731   1.352 -0.4471 -0.1772 -0.1980
16520TIP3    H170975   7.015   3.644   1.323 -2.6021 -0.0963  1.2344
16520TIP3    H270976   6.995   3.791   1.293 -2.4589 -0.0514  1.3575
16521TIP3   OH270977   6.065   1.865   2.824 -0.0511  0.5053 -0.5267
16521TIP3    H170978   6.033   1.927   2.890 -2.1150 -0.4572 -0.5381
16521TIP3    H270979   6.048   1.907   2.740  0.9779  0.9940 -0.5086
16522TIP3   OH270980   1.312   3.340   2.244 -0.1029 -0.6535 -0.3625
16522TIP3    H170981   1.397   3.340   2.288  0.0453  0.8603 -0.5955
16522TIP3    H270982   1.253   3.297   2.306  0.0104  1.7697  1.6092
16523TIP3   OH270983   1.886   5.300   2.889 -0.1186 -0.2729 -0.0223
16523TIP3    H170984   1.890   5.385   2.933  1.1194 -0.5228  0.4085
16523TIP3    H270985   1.938   5.242   2.944 -0.7954 -1.2692 -0.4091
16524TIP3   OH270986   0.513   6.934   4.587 -0.8359 -0.1502 -0.5734
16524TIP3    H170987   0.423   6.908   4.567 -1.6740  1.1889  1.2041
16524TIP3    H270988   0.528   6.905   4.677  0.7916 -0.9735 -1.0703
16525TIP3   OH270989   6.510   1.139   5.116  0.3028  0.1968  0.4071
16525TIP3    H170990   6.459   1.147   5.197 -0.2516  1.3512 -0.0396
16525TIP3    H270991   6.521   1.229   5.085  0.3439 -0.2388 -0.9162
16526TIP3   OH270992   3.890   0.571   2.710 -0.0439 -0.5676 -0.1641
16526TIP3    H170993   3.970   0.604   2.668  0.2481 -1.2745 -0.1659
16526TIP3    H270994   3.916   0.558   2.802 -0.7598  1.2723  0.3479
16527TIP3   OH270995   2.507   4.465   2.740  0.2583 -0.0274 -0.6938
16527TIP3    H170996   2.601   4.478   2.756  0.0747  0.0706  0.3830
16527TIP3    H270997   2.469   4.552   2.746 -0.2387 -0.3469  1.3710
16528TIP3   OH270998   4.834   4.214  14.719 -0.4566  0.1954  0.2899
16528TIP3    H170999   4.779   4.277  14.672 -4.2034 -0.4519  3.3217
16528TIP3    H271000   4.828   4.133  14.668  1.0819  1.1104 -1.4722
16529TIP3   OH271001   2.313   5.556  14.054 -0.0933 -0.8129  0.3177
16529TIP3    H171002   2.334   5.464  14.035 -0.8463 -1.3900  2.0926
16529TIP3    H271003   2.380   5.584  14.116  0.2763 -0.0578 -0.4018
16530TIP3   OH271004   5.540   0.409  14.304  0.6031 -0.2405 -0.3807
16530TIP3    H171005   5.482   0.405  14.227  0.4589  0.7749 -0.3439
16530TIP3    H271006   5.585   0.494  14.295 -1.5862  1.3421  2.1656
16531TIP3   OH271007   6.669   6.868  12.454 -0.6112  0.0446 -0.2358
16531TIP3    H171008   6.587   6.840  12.411 -1.0516  1.0011 -0.0460
16531TIP3    H271009   6.640   6.921  12.528  0.1811  1.2747 -0.7757
16532TIP3   OH271010   2.345   6.937  12.931 -0.0448  0.3454 -0.0178
16532TIP3    H171011   2.339   7.032  12.934 -0.5778  0.3071  0.3568
16532TIP3    H271012   2.258   6.908  12.903 -0.6814 -0.1122  2.2179
16533TIP3   OH271013   4.665   2.028   4.299  0.5001  0.3750 -0.0360
16533TIP3    H171014   4.590   2.027   4.359  0.8442  2.6131  0.5418
16533TIP3    H271015   4.678   1.937   4.275 -2.2733 -0.1262  0.0051
16534TIP3   OH271016   4.732   5.838   1.098  0.3898  0.2980  0.4972
16534TIP3    H171017   4.655   5.873   1.054  1.2768  1.3636 -0.2654
16534TIP3    H271018   4.790   5.810   1.026  0.6513 -0.6328  1.0556
16535TIP3   OH271019   1.330   3.105  13.919  0.4367  0.4505 -0.7273
16535TIP3    H171020   1.344   3.015  13.890 -0.7296  0.5244 -1.5676
16535TIP3    H271021   1.251   3.133  13.873 -1.3258  0.7048  2.2584
16536TIP3   OH271022   4.721   3.461   4.623  0.2565  0.1242 -0.0379
16536TIP3    H171023   4.657   3.414   4.570  1.0956 -0.7776 -0.2789
16536TIP3    H271024   4.739   3.541   4.573 -1.1090  0.6889  0.3295
16537TIP3   OH271025   5.976   5.073  15.035 -0.1226 -0.0764  0.0182
16537TIP3    H171026   6.038   5.145  15.044  0.9853 -0.8291 -1.2200
16537TIP3    H271027   5.900   5.112  14.993 -0.0361  0.6155  0.4852
16538TIP3   OH271028   4.817   4.571   1.597  0.0655  0.3647  0.5570
16538TIP3    H171029   4.911   4.579   1.613 -0.1059  3.6242  0.4924
16538TIP3    H271030   4.777   4.582   1.683 -0.3143  0.7949  0.3272
16539TIP3   OH271031   7.153   4.273   3.871  0.4806 -0.2340  0.3305
16539TIP3    H171032   7.174   4.196   3.924  1.2479  0.5202  1.1498
16539TIP3    H271033   7.149   4.345   3.934  0.0880  0.4569 -0.4670
16540TIP3   OH271034   4.470   0.618   0.358  0.1611 -0.2099  0.2089
16540TIP3    H171035   4.423   0.628   0.275 -1.1213 -1.3125  0.7707
16540TIP3    H271036   4.408   0.647   0.425  1.5874  1.8117  0.7727
16541TIP3   OH271037   2.209   6.876   0.349 -0.4159  0.3059 -0.4123
16541TIP3    H171038   2.234   6.784   0.339 -0.0677  0.2703  0.6920
16541TIP3    H271039   2.125   6.883   0.304 -0.2214 -0.4454 -0.9101
16542TIP3   OH271040   4.333   3.991   1.932 -0.4201  0.4887 -0.3047
16542TIP3    H171041   4.266   4.011   1.997 -1.1226  0.2861 -0.9513
16542TIP3    H271042   4.286   3.989   1.849  0.1518 -0.9099 -0.6203
16543TIP3   OH271043   0.099   6.172   1.299 -0.3365  0.1322 -0.5542
16543TIP3    H171044   0.170   6.214   1.347 -1.4982 -0.4024  1.7872
16543TIP3    H271045   0.136   6.090   1.267  0.4795  0.4956 -0.5605
16544TIP3   OH271046   5.067   3.006   0.981  0.5793 -0.1185  0.0253
16544TIP3    H171047   5.104   2.943   1.043  0.9010  0.6345  0.6167
16544TIP3    H271048   5.010   2.954   0.925 -0.5933 -0.6543  1.6498
16545TIP3   OH271049   5.149   4.814  14.631 -0.3028  0.9287  0.3118
16545TIP3    H171050   5.209   4.740  14.638 -0.7206  0.3691 -1.3765
16545TIP3    H271051   5.074   4.790  14.686 -1.8834 -1.4993 -2.6227
16546TIP3   OH271052   6.391   0.624  12.486  0.3093 -0.0662  0.1209
16546TIP3    H171053   6.461   0.574  12.445 -1.1491 -0.8971 -1.4749
16546TIP3    H271054   6.315   0.565  12.484 -0.9445  1.4882 -0.0014
16547TIP3   OH271055   1.638   3.693   3.665  0.2921 -0.4146 -0.0929
16547TIP3    H171056   1.636   3.783   3.696  0.1451 -0.3968 -0.1566
16547TIP3    H271057   1.595   3.643   3.735 -0.6068 -0.2928 -0.5505
16548TIP3   OH271058   6.496   3.840  12.718  0.0831  0.5072  0.6037
16548TIP3    H171059   6.576   3.789  12.727 -1.6607 -2.5458  0.2407
16548TIP3    H271060   6.485   3.852  12.624  0.0122  0.7307  0.6400
16549TIP3   OH271061   2.386   5.681   3.356 -0.1402  0.0271 -0.2139
16549TIP3    H171062   2.393   5.766   3.312  0.9020  0.4782  0.7592
16549TIP3    H271063   2.363   5.703   3.446  2.1836 -0.5505  0.5850
16550TIP3   OH271064   1.615   4.643  12.894 -0.1986  1.2128 -0.0233
16550TIP3    H171065   1.537   4.644  12.950  0.7841  0.9166  1.3834
16550TIP3    H271066   1.664   4.720  12.920  0.1219  1.2423 -0.7066
16551TIP3   OH271067   3.961   1.866  13.675  0.6947 -0.4343  0.5845
16551TIP3    H171068   3.977   1.924  13.601 -0.4136 -1.5157 -0.5356
16551TIP3    H271069   4.044   1.819  13.687  1.3253  0.7353  0.9664
16552TIP3   OH271070   0.466   4.044  14.543 -0.2180  0.7129  0.7125
16552TIP3    H171071   0.472   3.958  14.583 -1.3018  0.1423 -0.2713
16552TIP3    H271072   0.429   4.100  14.611 -1.8447 -0.1881  0.6292
16553TIP3   OH271073   1.295   5.747   2.984  0.3669 -0.0361 -0.3973
16553TIP3    H171074   1.281   5.679   3.050  0.2054 -0.4875 -0.9006
16553TIP3    H271075   1.282   5.829   3.033 -1.3916 -0.3797 -0.2156
16554TIP3   OH271076   2.749   0.364   3.035 -0.0749  0.2311 -0.0594
16554TIP3    H171077   2.655   0.384   3.041  0.2381  1.4654  1.2210
16554TIP3    H271078   2.753   0.268   3.041 -1.2179  0.1899  0.2971
16555TIP3   OH271079   4.218   0.011   3.923 -0.3685 -0.1331 -0.4218
16555TIP3    H171080   4.179  -0.076   3.917 -0.7110 -0.2393  2.1364
16555TIP3    H271081   4.310  -0.006   3.943  0.0867  0.1311 -2.1614
16556TIP3   OH271082   1.410   3.879   3.612  0.5798 -0.3896  0.1578
16556TIP3    H171083   1.421   3.851   3.521 -1.9056  0.7098 -0.5734
16556TIP3    H271084   1.347   3.951   3.607 -0.5818 -1.1124  2.8696
16557TIP3   OH271085   2.448   5.360   1.918  0.7776 -0.1329 -0.3337
16557TIP3    H171086   2.498   5.291   1.962 -1.7621 -0.5244  2.2034
16557TIP3    H271087   2.410   5.317   1.842  2.6952 -0.3043 -1.2518
16558TIP3   OH271088   3.697   4.243   1.982 -0.2117 -0.2391  0.2017
16558TIP3    H171089   3.687   4.293   1.901  0.4141 -1.3776 -0.6244
16558TIP3    H271090   3.686   4.152   1.954  1.5617 -0.7706  1.0886
16559TIP3   OH271091   1.335   6.550   1.319  0.3075  0.0077 -0.7830
16559TIP3    H171092   1.324   6.553   1.224  2.7333  0.8356 -1.0954
16559TIP3    H271093   1.358   6.459   1.338  0.6191  0.0237 -1.0871
16560TIP3   OH271094   4.444   3.118   2.515 -0.0123  0.6016 -0.5649
16560TIP3    H171095   4.422   3.031   2.482 -1.4593  0.6408  0.2082
16560TIP3    H271096   4.538   3.114   2.533 -0.2503 -1.1776  0.5176
16561TIP3   OH271097   2.864   4.034   5.048  0.5346  0.4494 -0.1689
16561TIP3    H171098   2.865   3.940   5.069  2.6227  0.5272  0.3947
16561TIP3    H271099   2.827   4.039   4.960 -2.0798 -0.5975  0.7667
16562TIP3   OH271100   3.827   3.656  13.753  0.4007  0.4339  0.3775
16562TIP3    H171101   3.830   3.709  13.673 -1.9865  1.8486  1.1326
16562TIP3    H271102   3.915   3.664  13.790  1.0224  1.2418 -1.1576
16563TIP3   OH271103   0.502   0.125  13.381 -0.5385 -0.0434 -0.2634
16563TIP3    H171104   0.553   0.129  13.463 -1.7947  0.5638  0.5199
16563TIP3    H271105   0.434   0.192  13.392  0.6067  1.7216 -2.7773
16564TIP3   OH271106   6.350   4.335   1.985 -0.1831 -0.1347 -0.0053
16564TIP3    H171107   6.414   4.295   2.045  1.3757  0.9337 -0.8729
16564TIP3    H271108   6.390   4.325   1.898 -1.7350 -0.3965 -0.7210
16565TIP3   OH271109   6.208   0.241  14.044 -0.2983  0.0984  0.2376
16565TIP3    H171110   6.156   0.187  14.103 -0.2027  1.0286  1.1915
16565TIP3    H271111   6.192   0.203  13.957  0.5604 -2.0877  0.9727
16566TIP3   OH271112   3.652   0.695   5.163  0.1453 -0.1419  0.5166
16566TIP3    H171113   3.561   0.674   5.186 -0.4471 -0.6535 -2.0005
16566TIP3    H271114   3.686   0.740   5.240 -1.7703 -1.2554  2.1202
16567TIP3   OH271115   6.387   4.173   4.023 -0.2592 -0.1833 -0.6687
16567TIP3    H171116   6.375   4.212   4.110 -2.4571 -0.9323 -0.5703
16567TIP3    H271117   6.447   4.233   3.978 -0.5324  1.2259  0.7543
16568TIP3   OH271118   3.831   1.828   5.097 -0.4978  0.2918 -0.4117
16568TIP3    H171119   3.874   1.811   5.013  2.5208 -0.2849  1.1191
16568TIP3    H271120   3.846   1.921   5.113  2.0212 -0.2779  0.9755
16569TIP3   OH271121   6.288   3.768   1.912 -0.7986 -0.2972 -0.1227
16569TIP3    H171122   6.257   3.798   1.827 -1.8282 -2.1236 -0.4407
16569TIP3    H271123   6.365   3.715   1.892 -1.0125 -0.6893  0.0731
16570TIP3   OH271124   2.482   5.120  14.194  0.7952  0.2453  0.1794
16570TIP3    H171125   2.557   5.070  14.162  0.9208  1.4892 -1.6014
16570TIP3    H271126   2.409   5.059  14.190  1.1485 -0.1274 -0.9092
16571TIP3   OH271127   7.091   0.059   3.773  0.1061 -0.5199 -0.2171
16571TIP3    H171128   7.130   0.142   3.744 -0.7068 -0.1277 -0.2200
16571TIP3    H271129   6.997   0.071   3.760  0.0051 -1.5933 -0.5747
16572TIP3   OH271130   1.720   1.413   1.277  0.3602  0.4329  0.0900
16572TIP3    H171131   1.748   1.339   1.224  2.2005  2.3872 -1.8900
16572TIP3    H271132   1.777   1.412   1.354  1.3025  0.5194 -0.5909
16573TIP3   OH271133   5.725   4.674   4.497  0.0846 -0.0988  0.1565
16573TIP3    H171134   5.783   4.667   4.572  0.8655 -0.9823 -0.5237
16573TIP3    H271135   5.685   4.761   4.507  0.8025  0.1395  1.1304
16574TIP3   OH271136   2.455   1.080   4.869 -0.4153 -0.1995  0.0148
16574TIP3    H171137   2.386   1.144   4.886  0.8215  0.7514  1.6994
16574TIP3    H271138   2.419   1.026   4.799 -1.0382  3.0769 -2.4633
16575TIP3   OH271139   3.447   6.256   4.307  0.6690 -0.1664  0.4154
16575TIP3    H171140   3.503   6.246   4.231  0.9473  0.8912  0.4658
16575TIP3    H271141   3.507   6.270   4.380  0.4308 -1.7702  0.9593
16576TIP3   OH271142   6.299   4.237   0.079 -0.3513 -0.6688  0.4201
16576TIP3    H171143   6.298   4.329   0.052 -1.0093 -0.2176  1.9002
16576TIP3    H271144   6.352   4.235   0.158  1.8700 -2.0297 -0.9845
16577TIP3   OH271145   2.644   2.711   1.643  0.2273  0.2198  0.8260
16577TIP3    H171146   2.592   2.632   1.629 -1.4258  1.2586  0.7038
16577TIP3    H271147   2.649   2.719   1.738 -0.2584  0.3418  0.8483
16578TIP3   OH271148   5.404   0.392  14.064  0.5059  0.2803  0.4666
16578TIP3    H171149   5.448   0.464  14.018 -1.0803  0.6739 -0.5431
16578TIP3    H271150   5.440   0.313  14.025 -0.9150  0.6045 -1.7108
16579TIP3   OH271151   2.795   2.761   5.010  0.2624 -0.5694 -0.5217
16579TIP3    H171152   2.847   2.730   5.084  1.2803  2.1575  0.0598
16579TIP3    H271153   2.855   2.759   4.936  1.6989  3.2619  0.2949
16580TIP3   OH271154   0.762   1.035   3.051  0.0090 -0.0497 -0.1732
16580TIP3    H171155   0.786   1.124   3.028 -0.6216 -0.1695 -1.3604
16580TIP3    H271156   0.763   0.987   2.968 -4.2177 -0.0803 -0.4426
16581TIP3   OH271157   1.487   3.194   1.677 -0.3350  0.1988  0.2691
16581TIP3    H171158   1.573   3.236   1.670 -0.2013  0.0470  0.9810
16581TIP3    H271159   1.445   3.239   1.750 -1.2175  0.8897 -0.6399
16582TIP3   OH271160   7.023   3.727   3.769  0.5256 -0.8667 -0.6472
16582TIP3    H171161   6.978   3.811   3.775  0.7329 -0.6715 -1.6992
16582TIP3    H271162   6.954   3.662   3.783  0.4091 -0.5317  0.4285
16583TIP3   OH271163   6.806   1.410   5.959 -0.5475 -0.5684  0.0993
16583TIP3    H171164   6.728   1.385   6.009 -1.0702 -1.5211 -1.1449
16583TIP3    H271165   6.872   1.345   5.982 -0.6938 -0.8290 -0.2117
16584TIP3   OH271166   2.785   4.579   2.193 -0.0654  0.1859 -0.5161
16584TIP3    H171167   2.728   4.593   2.268  0.3397  0.8467 -0.3175
16584TIP3    H271168   2.829   4.663   2.180  0.7880 -0.2715 -0.7240
16585TIP3   OH271169   0.323   1.270   2.994  0.3371  0.0122  0.2685
16585TIP3    H171170   0.293   1.186   3.031  0.8896  0.0447  0.8115
16585TIP3    H271171   0.395   1.296   3.051  1.4431 -0.0958 -1.0384
16586TIP3   OH271172   3.304   5.855   5.196  0.1298 -0.3051 -0.5970
16586TIP3    H171173   3.265   5.787   5.252 -1.6364  0.7484 -0.4907
16586TIP3    H271174   3.327   5.925   5.257 -0.0928  0.0924 -0.9728
16587TIP3   OH271175   5.111   0.299   2.832  0.8718 -0.1236  0.1791
16587TIP3    H171176   5.029   0.344   2.852  1.5146  1.1206  0.1271
16587TIP3    H271177   5.106   0.216   2.879  0.2726  0.6304  1.4798
16588TIP3   OH271178   0.619   4.559   5.321 -0.9078  0.4616 -0.2807
16588TIP3    H171179   0.530   4.532   5.344 -1.0200  1.4238  0.4457
16588TIP3    H271180   0.659   4.585   5.404  0.3602 -0.7733 -0.4525
16589TIP3   OH271181   1.187   5.040   3.342  0.7721 -0.0011 -0.2518
16589TIP3    H171182   1.272   4.996   3.342  0.5089 -0.7047  2.5850
16589TIP3    H271183   1.130   4.983   3.394 -1.1169  1.0566 -1.0478
16590TIP3   OH271184   0.547   2.530  15.149 -0.6993 -0.0485  0.0775
16590TIP3    H171185   0.489   2.453  15.151 -1.0803 -0.0027 -3.3671
16590TIP3    H271186   0.541   2.562  15.059  3.4825  0.9270 -0.0473
16591TIP3   OH271187   6.699   6.712  14.297 -0.0646  0.5707 -0.1941
16591TIP3    H171188   6.735   6.715  14.386  1.8343 -0.2594 -0.8835
16591TIP3    H271189   6.752   6.775  14.248  0.0628 -0.2336 -1.1112
16592TIP3   OH271190   2.404   1.491   2.500  0.1092 -0.2253 -0.0280
16592TIP3    H171191   2.454   1.544   2.562 -0.9546  0.3501  0.3652
16592TIP3    H271192   2.315   1.492   2.534 -0.5484  0.2873 -1.6602
16593TIP3   OH271193   6.551   2.253   4.952 -0.0660  0.4591  0.4132
16593TIP3    H171194   6.471   2.287   4.992 -0.2598  0.2513  0.2114
16593TIP3    H271195   6.606   2.329   4.938  0.5465  0.3875  2.2679
16594TIP3   OH271196   3.429   2.629   4.470 -0.1155  0.1645 -0.2511
16594TIP3    H171197   3.453   2.721   4.464  0.4836  0.1211  1.1617
16594TIP3    H271198   3.366   2.625   4.543  0.2312 -0.6003  0.0167
16595TIP3   OH271199   4.541   6.695   5.272  0.4151 -0.5476  0.9567
16595TIP3    H171200   4.447   6.678   5.266  0.5654 -1.2393  0.4426
16595TIP3    H271201   4.568   6.710   5.181  0.7230  0.1182  1.1509
16596TIP3   OH271202   5.886   6.971   4.805  0.3770  0.1886  0.2382
16596TIP3    H171203   5.798   6.995   4.776  0.3601 -1.1747 -0.9137
16596TIP3    H271204   5.944   7.028   4.754  0.2055  0.2522  0.1141
16597TIP3   OH271205   3.834   1.675   1.829 -0.6278  0.0195  0.0921
16597TIP3    H171206   3.895   1.745   1.852 -1.0780  0.1506  0.9125
16597TIP3    H271207   3.774   1.669   1.904 -1.2998 -0.4617 -0.4673
16598TIP3   OH271208   6.641   5.787   4.037  0.2334 -0.7469 -0.2218
16598TIP3    H171209   6.707   5.832   3.984  0.8304 -1.0190  0.2750
16598TIP3    H271210   6.579   5.752   3.973  0.4100 -0.2466 -0.6794
16599TIP3   OH271211   1.514   0.560   5.639  0.1588 -0.0845 -0.0677
16599TIP3    H171212   1.490   0.517   5.557 -1.5520  0.4694  0.1029
16599TIP3    H271213   1.443   0.536   5.699  1.6779 -0.9753  1.4536
16600TIP3   OH271214   6.430   0.989  14.139  0.2609  0.4700 -0.6404
16600TIP3    H171215   6.462   1.021  14.223 -0.1506 -1.4763  0.3062
16600TIP3    H271216   6.404   1.068  14.092  0.2406  1.5863  1.1510
16601TIP3   OH271217   2.749   1.763   1.422 -0.0718 -0.1598  0.0617
16601TIP3    H171218   2.810   1.692   1.406 -1.5056 -1.1143 -1.6191
16601TIP3    H271219   2.669   1.736   1.377 -0.9989  2.0623  0.2358
16602TIP3   OH271220   0.694   0.681   4.619 -0.3706  0.3283  0.2329
16602TIP3    H171221   0.641   0.716   4.690 -0.8921  1.1353 -0.5454
16602TIP3    H271222   0.634   0.675   4.545  0.3687  0.2611 -0.3693
16603TIP3   OH271223   3.896   6.157   3.841  0.2072  0.2973 -0.0441
16603TIP3    H171224   3.913   6.081   3.897 -0.5886  0.4564  0.4293
16603TIP3    H271225   3.974   6.165   3.786  0.5067 -0.5578  0.2519
16604TIP3   OH271226   4.297   7.180   1.983  0.4430  0.3357  0.9919
16604TIP3    H171227   4.352   7.193   2.060  0.5274 -1.6527  1.3143
16604TIP3    H271228   4.225   7.242   1.994  2.0441  2.2973  1.0546
16605TIP3   OH271229   1.915   3.720   1.965 -0.3566 -0.8711  0.8430
16605TIP3    H171230   1.850   3.652   1.985  1.0716 -2.1548  1.3377
16605TIP3    H271231   1.941   3.702   1.874  0.8501 -1.7630  1.3314
16606TIP3   OH271232   5.891   5.563  14.300  0.6914 -0.0102  0.4033
16606TIP3    H171233   5.825   5.512  14.346 -0.6083 -0.3574 -1.6857
16606TIP3    H271234   5.942   5.606  14.369 -0.6878 -1.0075  2.1121
16607TIP3   OH271235   6.090   3.374   0.719 -0.1539 -0.9247  0.0298
16607TIP3    H171236   6.184   3.390   0.726 -0.2723  0.3152 -0.8423
16607TIP3    H271237   6.078   3.344   0.629 -0.8169  0.9344 -0.5473
16608TIP3   OH271238   5.220   4.354   2.258 -0.2078 -0.0983 -0.2853
16608TIP3    H171239   5.136   4.390   2.230 -1.2539 -0.8057  1.7301
16608TIP3    H271240   5.270   4.429   2.289 -0.7585  0.1294  0.0570
16609TIP3   OH271241   3.023   0.930   5.345 -0.0039 -0.2984 -0.2321
16609TIP3    H171242   2.974   0.891   5.417 -0.8446 -3.2344 -2.2104
16609TIP3    H271243   3.114   0.909   5.364  0.1911  1.8205  1.5263
16610TIP3   OH271244   5.333   1.581   1.738 -0.0479 -0.0893 -0.1152
16610TIP3    H171245   5.401   1.598   1.804  0.5172  1.7072 -1.0743
16610TIP3    H271246   5.260   1.545   1.787  1.5051 -1.9033  0.9889
16611TIP3   OH271247   3.631   7.161   5.676  0.6943  0.4220  0.7125
16611TIP3    H171248   3.565   7.196   5.735  0.9032  0.4684  0.9166
16611TIP3    H271249   3.582   7.101   5.619  0.4691  0.4863  0.8370
16612TIP3   OH271250   3.124   5.182   3.840 -0.1308 -0.1377 -0.0768
16612TIP3    H171251   3.109   5.262   3.891 -0.3712  1.0716 -1.9476
16612TIP3    H271252   3.156   5.119   3.904 -0.5978  1.2337  1.5969
16613TIP3   OH271253   4.842   5.943  10.476 -0.4414  0.1092 -0.1304
16613TIP3    H171254   4.750   5.942  10.503 -0.7752 -2.1897 -1.1489
16613TIP3    H271255   4.839   5.938  10.381  0.7791  2.2803 -0.3545
16614TIP3   OH271256   4.647   2.538   3.593 -0.3358 -0.6605  0.5289
16614TIP3    H171257   4.712   2.496   3.536 -0.9618 -0.3325 -0.4456
16614TIP3    H271258   4.660   2.496   3.678  1.4985 -0.2503  0.5001
16615TIP3   OH271259   1.416   4.506  13.376  0.6938  0.2601 -0.0803
16615TIP3    H171260   1.439   4.456  13.454  1.4559  1.5597  0.5734
16615TIP3    H271261   1.334   4.549  13.398 -0.3275 -1.1777 -0.8982
16616TIP3   OH271262   2.797   6.346  14.676  0.1815 -0.5209 -0.2195
16616TIP3    H171263   2.857   6.416  14.702 -0.7987  0.9563 -1.6933
16616TIP3    H271264   2.746   6.327  14.755  0.5413  0.3686  0.2429
16617TIP3   OH271265   1.728   2.832   3.525  0.3368  0.6302 -0.2198
16617TIP3    H171266   1.721   2.781   3.444 -1.0846  1.2687 -0.5298
16617TIP3    H271267   1.673   2.909   3.510 -1.4696 -0.0937  1.9851
16618TIP3   OH271268   2.296   1.734   1.922 -0.3362  0.0164  0.1221
16618TIP3    H171269   2.269   1.711   2.010  0.5112 -1.4085  0.0515
16618TIP3    H271270   2.392   1.740   1.927 -0.1243 -1.7024 -1.0004
16619TIP3   OH271271   6.288   7.158   4.064  0.0566 -0.3837  0.4021
16619TIP3    H171272   6.246   7.108   3.994  1.7698 -0.5909 -0.5297
16619TIP3    H271273   6.373   7.116   4.076  1.2621  1.8199  0.1121
16620TIP3   OH271274   4.851   2.211   4.198  0.0293  0.7035 -0.0198
16620TIP3    H171275   4.889   2.170   4.121 -0.9747  0.3991 -0.3666
16620TIP3    H271276   4.771   2.161   4.216  1.1491 -0.3850  2.3013
16621TIP3   OH271277   1.676   0.106  12.219  0.3147  0.3296  0.5249
16621TIP3    H171278   1.715   0.164  12.283  0.7722  0.2412  0.3307
16621TIP3    H271279   1.608   0.158  12.177 -1.4841 -0.2502  2.5452
16622TIP3   OH271280   0.016   3.273   1.604 -0.6993  0.0381  0.2704
16622TIP3    H171281   0.007   3.299   1.695 -1.1440 -0.6282  0.4292
16622TIP3    H271282   0.076   3.198   1.606 -1.7083 -0.8073  0.1896
16623TIP3   OH271283   3.397   2.041   1.699 -0.1413  0.0715 -0.0495
16623TIP3    H171284   3.459   2.025   1.628 -0.8292  0.0201 -0.6494
16623TIP3    H271285   3.452   2.063   1.775  0.5974  0.1142 -0.5904
16624TIP3   OH271286   2.630   5.440   2.669 -0.7634 -0.8753 -0.4888
16624TIP3    H171287   2.612   5.527   2.704  0.7729  0.3419 -2.4878
16624TIP3    H271288   2.719   5.420   2.700 -0.5872 -1.1319 -1.1569
16625TIP3   OH271289   3.116   3.596   0.290 -0.2254  0.3156  0.0370
16625TIP3    H171290   3.149   3.684   0.311  1.2927 -0.0049 -0.8654
16625TIP3    H271291   3.040   3.585   0.347  1.1642  1.1351  2.1562
16626TIP3   OH271292   7.090   5.506  11.366 -0.0602  0.0700  0.1045
16626TIP3    H171293   7.134   5.573  11.419  1.0454  0.5920 -1.4061
16626TIP3    H271294   7.039   5.455  11.429 -1.0922  2.4209  1.3157
16627TIP3   OH271295   5.312   1.991   0.776  0.0662  0.5232 -0.1571
16627TIP3    H171296   5.232   1.989   0.724  0.3047  0.9203 -0.5479
16627TIP3    H271297   5.364   1.917   0.744 -0.2306  0.1378  0.2423
16628TIP3   OH271298   0.056   5.366  13.361  0.4896  0.4169 -0.3096
16628TIP3    H171299  -0.007   5.359  13.433  0.6992  0.6502 -0.1032
16628TIP3    H271300   0.057   5.279  13.321  0.1534  0.3690 -0.2147
16629TIP3   OH271301   1.359   5.411   2.937  0.0042  0.4193  0.4675
16629TIP3    H171302   1.421   5.416   3.011  1.1761 -1.3136 -0.3302
16629TIP3    H271303   1.397   5.468   2.870 -0.3897  0.9956  0.7268
16630TIP3   OH271304   6.705   0.374   4.634  0.6661  0.4292 -0.0527
16630TIP3    H171305   6.671   0.338   4.716  0.6141  0.6991  0.0449
16630TIP3    H271306   6.747   0.300   4.590  3.0753  0.8118  1.4349
16631TIP3   OH271307   2.308   2.734   0.417  0.1867 -0.4109  0.0227
16631TIP3    H171308   2.288   2.683   0.338 -0.9651  0.4885 -0.2945
16631TIP3    H271309   2.394   2.773   0.400 -0.1896  0.0309 -0.9346
16632TIP3   OH271310   3.410   4.765   2.531 -0.2365  0.4310  0.1760
16632TIP3    H171311   3.498   4.759   2.494 -0.1934  2.3659 -0.1251
16632TIP3    H271312   3.417   4.830   2.600 -1.1818 -0.2988  0.9890
16633TIP3   OH271313   3.651   6.914   3.326  1.0542 -0.5007 -0.5363
16633TIP3    H171314   3.734   6.921   3.373  0.2078 -0.4467  1.0157
16633TIP3    H271315   3.610   6.834   3.360 -0.2054  0.2836 -0.1297
16634TIP3   OH271316   4.834   0.526   3.509  0.3921  0.3063 -0.2927
16634TIP3    H171317   4.889   0.576   3.448  0.7886 -0.0695 -0.2468
16634TIP3    H271318   4.802   0.592   3.571 -0.1460  0.7179 -0.9908
16635TIP3   OH271319   4.562   0.841   1.854  0.4572 -0.0289  0.4808
16635TIP3    H171320   4.494   0.852   1.920  1.7456 -1.8765  2.2660
16635TIP3    H271321   4.536   0.899   1.782 -3.2870 -1.0356  0.7792
16636TIP3   OH271322   2.210   0.881   1.807  0.3104  0.5518 -0.3126
16636TIP3    H171323   2.276   0.839   1.863  0.0519  0.6978  0.1060
16636TIP3    H271324   2.194   0.965   1.850 -3.0288 -0.9827  1.8877
16637TIP3   OH271325   3.512   3.479   1.919  0.0007 -0.0563 -0.4215
16637TIP3    H171326   3.533   3.436   1.836  0.4149  0.2825 -0.4963
16637TIP3    H271327   3.570   3.437   1.982  0.2701  0.2574 -0.4590
16638TIP3   OH271328   4.605   3.131   0.073 -0.5566 -0.3843  0.1521
16638TIP3    H171329   4.683   3.076   0.068 -1.8008 -2.3274  0.9407
16638TIP3    H271330   4.533   3.074   0.045 -1.6560  1.5040 -1.0619
16639TIP3   OH271331   3.859   5.881   2.903 -0.0545 -0.6037 -0.2086
16639TIP3    H171332   3.905   5.805   2.867  2.7961  1.5192 -1.4242
16639TIP3    H271333   3.925   5.928   2.953 -1.1993  1.9828 -0.9496
16640TIP3   OH271334   0.840   0.499   0.383  0.6285 -0.1444 -0.1886
16640TIP3    H171335   0.790   0.429   0.426  0.0329 -0.8208 -1.8816
16640TIP3    H271336   0.919   0.456   0.351  2.2098  0.8452  2.1391
16641TIP3   OH271337   5.475   0.728   3.346  0.2763 -0.5613 -0.2093
16641TIP3    H171338   5.386   0.751   3.372  0.9461 -2.0733  4.2841
16641TIP3    H271339   5.467   0.640   3.308 -0.0796 -1.3541  1.6039
16642TIP3   OH271340   1.383   1.751   4.076 -0.2084  0.6589 -0.4316
16642TIP3    H171341   1.311   1.780   4.020 -0.3380 -1.6367 -1.5501
16642TIP3    H271342   1.354   1.772   4.165 -0.2643  3.8053 -1.0468
16643TIP3   OH271343   0.455   6.066   3.118 -0.0970 -0.2980 -0.0103
16643TIP3    H171344   0.472   5.982   3.075  0.9432 -0.2320  0.2434
16643TIP3    H271345   0.476   6.050   3.210 -2.0231 -0.3583  0.4638
16644TIP3   OH271346   6.164   6.334   1.846  0.2886 -0.6412  0.3422
16644TIP3    H171347   6.176   6.350   1.940  1.5487  1.6381 -0.1386
16644TIP3    H271348   6.233   6.271   1.823  0.1197 -1.0314  0.8762
16645TIP3   OH271349   2.010   2.987  13.023  0.0543  0.0157  0.4289
16645TIP3    H171350   2.064   3.025  12.953  0.4851  1.1324  1.3430
16645TIP3    H271351   1.997   3.059  13.085 -1.3458 -0.6175  0.9076
16646TIP3   OH271352   5.377   4.419   1.148 -0.1930 -0.0934  0.2519
16646TIP3    H171353   5.394   4.391   1.238 -1.3206  3.6807  1.8511
16646TIP3    H271354   5.461   4.409   1.103  1.3881  1.0289  2.7502
16647TIP3   OH271355   6.913   0.525  15.217  0.6774 -0.4292 -0.6988
16647TIP3    H171356   6.915   0.510  15.123  0.8265  0.1492 -0.7903
16647TIP3    H271357   7.004   0.518  15.245  0.5856 -1.0302 -0.5201
16648TIP3   OH271358   2.482   1.592   3.936  0.3753 -0.5873 -0.1492
16648TIP3    H171359   2.465   1.674   3.891  0.1817  0.1074  1.1416
16648TIP3    H271360   2.535   1.541   3.875  1.5080  0.9641 -0.5108
16649TIP3   OH271361   1.774   6.511   5.399  0.3327 -0.1347 -0.4660
16649TIP3    H171362   1.820   6.581   5.353  0.0821  0.2912 -0.0822
16649TIP3    H271363   1.843   6.452   5.428  0.5852  0.1598 -0.4558
16650TIP3   OH271364   6.080   3.874   1.113 -0.4081 -0.2933 -0.3202
16650TIP3    H171365   5.993   3.898   1.084 -0.2538 -0.0795 -0.6094
16650TIP3    H271366   6.097   3.789   1.072 -0.4725 -0.3269 -0.2770
16651TIP3   OH271367   6.216   2.827  12.721  0.1867  0.3021 -0.7848
16651TIP3    H171368   6.300   2.781  12.711 -0.6852 -1.8750  0.8592
16651TIP3    H271369   6.217   2.857  12.812 -1.2387 -0.8006 -0.3701
16652TIP3   OH271370   0.555   0.039   1.051 -0.3033 -0.3804 -0.3911
16652TIP3    H171371   0.649   0.053   1.037 -0.3681  0.0483 -0.3977
16652TIP3    H271372   0.515   0.124   1.035 -0.3329  0.3372  2.8502
16653TIP3   OH271373   2.523   2.137   4.944  0.4282  0.6818  0.0165
16653TIP3    H171374   2.441   2.164   4.985 -0.2088 -0.9735 -0.0966
16653TIP3    H271375   2.521   2.041   4.947  2.1237  0.6046 -0.4585
16654TIP3   OH271376   4.161   3.361   3.639  0.3416  0.0423 -0.0882
16654TIP3    H171377   4.083   3.396   3.595  0.3538 -1.6250 -1.5689
16654TIP3    H271378   4.127   3.309   3.711  0.0307 -1.0651 -1.0152
16655TIP3   OH271379   3.529   1.254   2.072  0.1773 -0.2413  0.0117
16655TIP3    H171380   3.435   1.259   2.056  0.3450 -0.2418 -1.0799
16655TIP3    H271381   3.567   1.241   1.985  1.2283  0.4082  0.3588
16656TIP3   OH271382   6.679   5.719   1.767 -0.1503  0.2135 -0.1472
16656TIP3    H171383   6.729   5.702   1.847 -1.2983 -0.5452  0.4331
16656TIP3    H271384   6.735   5.779   1.717  1.6883 -1.1827  0.1095
16657TIP3   OH271385   2.053   0.159   5.004  0.0324 -0.1846  0.5016
16657TIP3    H171386   2.026   0.251   5.000 -1.6779 -0.6400  0.9766
16657TIP3    H271387   2.105   0.153   5.084  1.0982  0.5890 -0.1111
16658TIP3   OH271388   6.672   3.203   4.303 -0.3495  0.0605 -0.2656
16658TIP3    H171389   6.758   3.231   4.271  0.1709 -0.7910  0.3408
16658TIP3    H271390   6.680   3.108   4.312 -1.2716  0.0074  0.0720
16659TIP3   OH271391   5.302   2.973  12.558  0.3621  0.0921  0.0003
16659TIP3    H171392   5.365   3.010  12.497  3.0495 -0.4313  2.2303
16659TIP3    H271393   5.240   3.044  12.576  2.5115  1.9330  0.4774
16660TIP3   OH271394   7.111   2.317   5.207  0.0740  0.3788 -0.2481
16660TIP3    H171395   7.039   2.272   5.251  1.2813  0.5341  2.0235
16660TIP3    H271396   7.070   2.395   5.170 -1.2857 -0.5548 -0.7910
16661TIP3   OH271397   1.494   1.726   4.998 -0.3284  0.3742 -0.1037
16661TIP3    H171398   1.589   1.723   4.990 -0.1586  0.6342  1.4754
16661TIP3    H271399   1.478   1.761   5.086 -1.8787  0.1122 -0.2479
16662TIP3   OH271400   6.029   0.023   4.955 -0.0864  0.2045 -0.0062
16662TIP3    H171401   5.991   0.107   4.930  1.1941  1.1588  1.0781
16662TIP3    H271402   5.958  -0.024   4.998 -1.4761 -0.2713 -2.6241
16663TIP3   OH271403   6.341   4.404  13.146  0.4000  0.4963 -0.9115
16663TIP3    H171404   6.399   4.460  13.094  1.4806  1.0964  0.8503
16663TIP3    H271405   6.304   4.462  13.212  0.9681 -0.6824  0.4941
16664TIP3   OH271406   5.230   0.987   4.128  0.1427  0.2449  0.0464
16664TIP3    H171407   5.276   0.912   4.089  0.3875  0.4872 -0.1269
16664TIP3    H271408   5.229   1.053   4.059  1.6471  1.1420  0.8283
16665TIP3   OH271409   2.371   0.621   4.695 -0.2511  0.1137 -0.0236
16665TIP3    H171410   2.400   0.530   4.687  0.9172  0.4345  0.4512
16665TIP3    H271411   2.450   0.671   4.712 -0.8951  1.2203 -0.1556
16666TIP3   OH271412   5.425   3.158   1.954 -0.6963 -0.1647  0.4401
16666TIP3    H171413   5.353   3.204   1.998  0.7457  0.2897  2.4536
16666TIP3    H271414   5.461   3.222   1.893 -0.6969  0.3009  0.9259
16667TIP3   OH271415   6.691   3.647   4.739 -0.8042 -0.3488  0.0134
16667TIP3    H171416   6.755   3.580   4.714  0.1877  0.1860  1.0244
16667TIP3    H271417   6.738   3.730   4.728 -0.8042 -0.0173  2.1617
16668TIP3   OH271418   6.583   4.964   4.848 -0.3043  0.0456  0.3526
16668TIP3    H171419   6.561   4.871   4.846 -0.3850  0.0776 -0.2897
16668TIP3    H271420   6.542   4.996   4.929  1.6875 -0.9536  1.8502
16669TIP3   OH271421   1.251   7.061   3.811 -0.6394 -0.2423 -0.0832
16669TIP3    H171422   1.225   7.153   3.805 -2.5221 -0.8210 -1.9403
16669TIP3    H271423   1.210   7.030   3.892  0.2202  0.5829  0.6880
16670TIP3   OH271424   5.554   4.940   0.027  0.2609 -0.3223  0.2442
16670TIP3    H171425   5.581   5.012   0.085  0.9195 -0.0274 -0.4216
16670TIP3    H271426   5.543   4.981  -0.059  1.1821 -1.1116 -0.2661
16671TIP3   OH271427   1.914   6.169   4.485 -0.0183 -0.3600  0.0384
16671TIP3    H171428   1.872   6.254   4.476 -0.9883 -0.9750 -1.7111
16671TIP3    H271429   1.841   6.108   4.499  0.7171 -0.8378  2.1638
16672TIP3   OH271430   2.751   0.917   0.923  0.0705 -0.3385  0.1406
16672TIP3    H171431   2.791   0.864   0.854  0.1514  0.2780 -0.2904
16672TIP3    H271432   2.709   0.990   0.877 -1.0350 -0.6348  0.6318
16673TIP3   OH271433   1.613   4.500   3.471 -0.6571 -0.7816  0.1981
16673TIP3    H171434   1.691   4.501   3.416 -0.0591 -1.9325  1.0006
16673TIP3    H271435   1.617   4.582   3.520  0.0632 -0.8465  0.2547
16674TIP3   OH271436   5.264   2.928   1.216 -0.1105  0.8183  0.2249
16674TIP3    H171437   5.316   2.978   1.153  0.9042 -1.5271 -0.9294
16674TIP3    H271438   5.325   2.905   1.286 -0.5124  1.0670  0.6580
16675TIP3   OH271439   7.063   6.183   0.050 -0.3989  0.0745 -0.1932
16675TIP3    H171440   7.140   6.143   0.091 -0.3074 -0.2646 -0.6837
16675TIP3    H271441   6.993   6.120   0.062 -0.8774  0.8234  1.1559
16676TIP3   OH271442   5.612   0.455   1.413  0.4222  0.5147  0.5497
16676TIP3    H171443   5.623   0.365   1.443 -1.6396 -0.0644 -0.1929
16676TIP3    H271444   5.653   0.457   1.326 -1.9666 -0.6036 -0.7040
16677TIP3   OH271445   5.131   1.817   1.140  0.5891  0.2554  0.1894
16677TIP3    H171446   5.143   1.900   1.093 -0.1044  0.1011 -0.2741
16677TIP3    H271447   5.150   1.838   1.231  1.7198  0.6189 -0.1083
16678TIP3   OH271448   3.656   3.095   4.829 -0.3001 -0.1448 -0.5521
16678TIP3    H171449   3.703   3.024   4.786  0.2782 -0.0185 -0.1484
16678TIP3    H271450   3.658   3.072   4.922  0.6465  0.8116 -0.3162
16679TIP3   OH271451   5.805   3.023   5.511  0.7653 -0.2288 -1.3784
16679TIP3    H171452   5.891   2.981   5.521  1.0348  0.8793  2.3941
16679TIP3    H271453   5.814   3.076   5.432  2.5910 -2.1444 -2.5820
16680TIP3   OH271454   7.062   0.838  13.850 -0.1989  0.0818 -0.1591
16680TIP3    H171455   7.155   0.820  13.861 -0.3610 -0.2287  0.7638
16680TIP3    H271456   7.052   0.930  13.877 -0.2695 -0.0975  0.4467
16681TIP3   OH271457   2.394   4.743   2.610  0.2887 -0.2579  0.2247
16681TIP3    H171458   2.359   4.753   2.522  0.1042 -0.5813  0.2598
16681TIP3    H271459   2.438   4.826   2.629  1.4841 -0.6566 -0.6792
16682TIP3   OH271460   3.439   2.193   5.336 -0.1507  0.0820 -0.2391
16682TIP3    H171461   3.437   2.148   5.251 -0.3329 -0.3356 -0.0155
16682TIP3    H271462   3.478   2.129   5.396 -0.8831  0.0339  0.1904
16683TIP3   OH271463   2.764   2.258   4.882  0.0198  0.6716 -0.3073
16683TIP3    H171464   2.766   2.351   4.858  2.0115  0.6633 -0.3134
16683TIP3    H271465   2.676   2.244   4.917 -0.4067  2.4952 -0.5749
16684TIP3   OH271466   3.290   6.363   0.080 -0.4073 -0.2822  0.1955
16684TIP3    H171467   3.303   6.439   0.137  0.8034  1.5621 -2.3525
16684TIP3    H271468   3.203   6.331   0.101 -0.5949  1.2503  1.9699
16685TIP3   OH271469   3.003   4.904   1.330  0.2955  0.5425  0.0742
16685TIP3    H171470   3.033   4.921   1.419  1.3682  0.2257 -0.2086
16685TIP3    H271471   3.079   4.866   1.286 -0.8076 -1.2351 -0.4155
16686TIP3   OH271472   0.222   1.638   1.583  0.0594 -0.3481 -0.0449
16686TIP3    H171473   0.195   1.599   1.666 -0.0700  1.6714  0.9178
16686TIP3    H271474   0.149   1.694   1.558  0.5245 -0.1548 -1.0081
16687TIP3   OH271475   5.128   2.333   2.405 -0.8100 -0.3643 -0.4144
16687TIP3    H171476   5.034   2.344   2.420 -1.1339 -0.5895 -2.0922
16687TIP3    H271477   5.167   2.414   2.438 -1.6905  0.0822 -0.4298
16688TIP3   OH271478   2.470   1.028   4.370 -0.3318 -0.4071  0.5061
16688TIP3    H171479   2.434   0.989   4.290 -0.0197  1.9174 -0.8821
16688TIP3    H271480   2.540   0.970   4.396 -0.1660 -1.0284 -1.1767
16689TIP3   OH271481   6.556   0.633   4.246 -0.0439 -0.2111 -0.0253
16689TIP3    H171482   6.609   0.557   4.221 -0.2918  0.0738 -1.4566
16689TIP3    H271483   6.537   0.618   4.339  2.2759 -0.4627  0.4640
16690TIP3   OH271484   6.638   0.005   1.200  0.1527  0.1598 -0.1382
16690TIP3    H171485   6.674   0.093   1.207 -0.5637  0.5031 -0.5413
16690TIP3    H271486   6.653  -0.020   1.109  0.3111 -0.1118 -0.0374
16691TIP3   OH271487   6.522   3.654   0.059 -0.0058  0.0404 -0.2294
16691TIP3    H171488   6.542   3.685  -0.029 -2.0031  0.0870 -0.7209
16691TIP3    H271489   6.470   3.724   0.098 -0.2124 -0.5227  0.5315
16692TIP3   OH271490   3.296   1.190   3.140 -0.2980 -0.1766  0.8258
16692TIP3    H171491   3.324   1.135   3.213 -1.1205 -1.8967 -0.1016
16692TIP3    H271492   3.220   1.238   3.173 -1.7220 -2.1910  0.6793
16693TIP3   OH271493   1.603   6.313   1.663  0.2399  0.0784  0.1642
16693TIP3    H171494   1.578   6.377   1.729  2.3580  0.0053  1.1312
16693TIP3    H271495   1.523   6.265   1.645 -0.6771  0.8815  1.8154
16694TIP3   OH271496   5.182   0.362   3.493  0.4223  0.9209  0.0025
16694TIP3    H171497   5.095   0.395   3.518  0.4888 -0.1008  1.6953
16694TIP3    H271498   5.197   0.399   3.406 -2.3468 -0.0683 -1.0078
16695TIP3   OH271499   3.819   3.679   4.188 -0.3090  0.0408 -0.9576
16695TIP3    H171500   3.740   3.730   4.168  0.5886  0.8293 -2.7072
16695TIP3    H271501   3.814   3.663   4.282 -2.5210  0.1021 -1.0023
16696TIP3   OH271502   7.193   0.883   5.232  0.6986 -0.4318 -0.7190
16696TIP3    H171503   7.119   0.917   5.282  0.6526 -0.1773 -0.9580
16696TIP3    H271504   7.152   0.837   5.158  0.7787 -0.2828 -0.8558
16697TIP3   OH271505   2.994   7.082   5.163  0.3482 -0.0625  0.4596
16697TIP3    H171506   3.025   7.169   5.188 -0.3977  0.8870 -1.7417
16697TIP3    H271507   3.059   7.051   5.099 -1.0273  0.2496 -1.1482
16698TIP3   OH271508   6.065   5.427  14.891 -0.4298 -0.6882  0.0778
16698TIP3    H171509   6.112   5.499  14.850 -0.2587 -0.8946 -0.0863
16698TIP3    H271510   6.126   5.354  14.890 -0.4641 -0.7312  0.5938
16699TIP3   OH271511   1.570   5.678   0.955 -0.0376  0.1558  0.0493
16699TIP3    H171512   1.490   5.633   0.981 -0.6625  1.6191  0.7639
16699TIP3    H271513   1.591   5.642   0.868 -1.4934 -0.2198 -0.1665
16700TIP3   OH271514   0.770   6.665   2.684  0.2228  0.4157  0.0226
16700TIP3    H171515   0.849   6.614   2.667  0.0678  0.5325 -1.1183
16700TIP3    H271516   0.795   6.755   2.664 -0.1273  0.4861 -0.1083
16701TIP3   OH271517   4.026   1.114  15.025  0.1192  0.0710  0.3099
16701TIP3    H171518   3.984   1.171  15.089 -0.1613 -0.7313  0.8640
16701TIP3    H271519   4.041   1.169  14.948  0.3930  1.0271  1.0409
16702TIP3   OH271520   5.057   5.996   2.455  0.5226 -0.1238  0.1395
16702TIP3    H171521   5.073   6.051   2.532 -0.4726 -0.5807  0.6930
16702TIP3    H271522   5.129   5.932   2.457  1.0891  0.4976  0.0881
16703TIP3   OH271523   1.859   5.899  12.407 -0.2924 -0.2065 -0.0463
16703TIP3    H171524   1.875   5.828  12.345 -0.1158  0.4297 -0.7340
16703TIP3    H271525   1.917   5.879  12.481  0.3014 -0.3822 -0.5525
16704TIP3   OH271526   0.897   1.976   3.324  0.0394 -0.5040 -0.3872
16704TIP3    H171527   0.911   2.069   3.307  0.1770 -0.3396  0.5818
16704TIP3    H271528   0.985   1.939   3.335 -0.0543 -0.2003  1.9279
16705TIP3   OH271529   5.153   4.574   3.895 -0.4173 -0.2453 -0.0334
16705TIP3    H171530   5.232   4.590   3.844 -0.9699  1.0044 -0.5647
16705TIP3    H271531   5.141   4.655   3.946 -1.1902 -0.5250  0.2457
16706TIP3   OH271532   5.320   5.635   5.027  0.2284  0.1489  0.3179
16706TIP3    H171533   5.416   5.633   5.027  0.2345  0.0049 -0.5160
16706TIP3    H271534   5.297   5.720   5.063  0.7215  1.0517 -1.3874
16707TIP3   OH271535   3.392   6.898   4.257 -0.0656 -0.0823  0.1183
16707TIP3    H171536   3.427   6.954   4.187  1.0450  0.4710  1.0845
16707TIP3    H271537   3.445   6.818   4.252 -1.1133 -0.7496 -0.7383
16708TIP3   OH271538   2.159   3.978   2.986  0.2379 -0.1065  0.5958
16708TIP3    H171539   2.249   3.957   2.965  0.8938 -1.1142  3.8313
16708TIP3    H271540   2.164   4.058   3.037 -0.8702  0.5324 -0.2419
16709TIP3   OH271541   4.894   3.319   0.809  0.1939 -0.1148 -0.0628
16709TIP3    H171542   4.908   3.391   0.870  0.3626 -0.0322 -0.1975
16709TIP3    H271543   4.866   3.361   0.727 -0.9101 -0.2826  0.2137
16710TIP3   OH271544   1.298   4.148  14.432 -0.0698 -0.6751 -0.4845
16710TIP3    H171545   1.313   4.229  14.481 -0.3580  0.0888 -1.6249
16710TIP3    H271546   1.205   4.128  14.446 -0.1796 -0.3949 -0.7893
16711TIP3   OH271547   5.571   4.335   2.903  0.2163 -0.1462  0.4960
16711TIP3    H171548   5.518   4.346   2.983  1.1125 -0.8809  1.2225
16711TIP3    H271549   5.631   4.409   2.904 -2.5872  2.3927 -1.8826
16712TIP3   OH271550   6.512   5.527   4.451 -0.1238  0.2503 -0.2373
16712TIP3    H171551   6.579   5.557   4.512  0.1364  0.8812 -0.8206
16712TIP3    H271552   6.552   5.537   4.365 -0.2497 -1.1938 -0.5023
16713TIP3   OH271553   6.375   7.084   5.343 -0.1901  0.0974 -0.0799
16713TIP3    H171554   6.438   7.021   5.379  1.1383  1.1027 -0.5646
16713TIP3    H271555   6.302   7.030   5.313  0.5195 -1.1272  0.3099
16714TIP3   OH271556   2.303   4.330   1.126 -0.8187  0.0638 -0.0697
16714TIP3    H171557   2.358   4.287   1.192  0.1152 -0.0714 -0.9078
16714TIP3    H271558   2.329   4.422   1.129  1.6091 -0.4298 -2.4187
16715TIP3   OH271559   0.700   1.254  11.106  0.4658  0.1170  0.5067
16715TIP3    H171560   0.713   1.323  11.172  0.9593  1.0127 -0.4912
16715TIP3    H271561   0.607   1.234  11.109  0.4801  0.1587  1.4550
16716TIP3   OH271562   2.785   1.356   0.266 -0.2830  0.2695 -0.0129
16716TIP3    H171563   2.740   1.314   0.193  0.7208 -1.8287  0.4760
16716TIP3    H271564   2.873   1.319   0.264  0.1243  1.0437  1.5647
16717TIP3   OH271565   4.473   4.401   2.730 -0.0187  0.0027  0.1053
16717TIP3    H171566   4.475   4.305   2.721  1.3483 -0.3097  2.7482
16717TIP3    H271567   4.557   4.423   2.770 -0.1295  2.4121 -0.8151
16718TIP3   OH271568   1.923   6.873   3.199  1.0969  0.2061 -0.2416
16718TIP3    H171569   2.004   6.835   3.234  0.5583  0.1871  1.0539
16718TIP3    H271570   1.853   6.823   3.241  0.3703  2.0049  0.8255
16719TIP3   OH271571   4.388   0.382   5.600 -0.2293 -0.2378 -0.7558
16719TIP3    H171572   4.390   0.477   5.590  0.4019 -0.1619  0.0352
16719TIP3    H271573   4.304   0.356   5.561  0.3259  0.4457 -2.4877
16720TIP3   OH271574   5.774   6.027   3.733  0.1580  0.3353 -0.4775
16720TIP3    H171575   5.719   6.004   3.808 -1.2161  2.3316 -0.7902
16720TIP3    H271576   5.863   6.006   3.761 -0.3820  0.4468  1.4870
16721TIP3   OH271577   6.666   0.192   4.869 -0.3959 -0.1438 -0.2199
16721TIP3    H171578   6.756   0.187   4.901  0.0856 -0.1205 -1.5362
16721TIP3    H271579   6.628   0.265   4.918  1.3814  2.2333 -2.1251
16722TIP3   OH271580   6.060   6.502   5.154 -0.5446 -0.1517  0.3693
16722TIP3    H171581   5.988   6.503   5.092 -0.2376 -1.1904 -0.0293
16722TIP3    H271582   6.105   6.419   5.137  1.6384  1.1034 -0.4082
16723TIP3   OH271583   4.422   2.860   3.189  0.2286  0.4909 -0.0071
16723TIP3    H171584   4.472   2.839   3.109  0.6766 -0.0262  0.4019
16723TIP3    H271585   4.421   2.956   3.192  0.9242  0.5117 -0.1949
16724TIP3   OH271586   0.055   7.178  13.725  0.3470  0.0619 -1.0528
16724TIP3    H171587  -0.031   7.137  13.715  0.0110  0.0221  1.4403
16724TIP3    H271588   0.092   7.177  13.637 -0.9141 -2.7843 -1.6659
16725TIP3   OH271589   2.832   3.670   0.553  0.1823  0.2492 -0.1738
16725TIP3    H171590   2.743   3.661   0.587  0.7131  1.9512  1.9066
16725TIP3    H271591   2.868   3.582   0.554 -1.4614 -0.4795 -1.1350
16726TIP3   OH271592   2.653   2.359   3.378  0.0513  0.0429  0.3347
16726TIP3    H171593   2.604   2.425   3.330  0.5507  0.2247  0.0630
16726TIP3    H271594   2.599   2.339   3.454  0.9337  2.5164  1.7326
16727TIP3   OH271595   6.468   2.564   2.386  0.0839  0.5143 -0.0651
16727TIP3    H171596   6.382   2.576   2.426  1.2668  1.4025  2.3955
16727TIP3    H271597   6.492   2.474   2.407 -0.0953  0.3746 -0.4544
16728TIP3   OH271598   0.004   0.801   2.254  0.0176 -0.4309 -1.1573
16728TIP3    H171599   0.009   0.748   2.174  0.3433 -1.2618 -0.6003
16728TIP3    H271600   0.009   0.737   2.325  2.0749  0.4459 -0.4377
16729TIP3   OH271601   3.687   0.461  13.725 -0.5335  0.2939 -0.0185
16729TIP3    H171602   3.753   0.530  13.724 -0.5811  0.3456  0.3255
16729TIP3    H271603   3.712   0.404  13.797 -1.0545  0.5010  0.3352
16730TIP3   OH271604   1.890   0.663  11.431 -0.2506 -0.1079  0.2401
16730TIP3    H171605   1.867   0.747  11.472 -0.7398  0.7280 -1.6426
16730TIP3    H271606   1.901   0.684  11.338 -2.5822 -2.4942 -0.7103
16731TIP3   OH271607   2.438   0.203   5.176  0.1222  0.7445  0.3418
16731TIP3    H171608   2.474   0.253   5.249 -2.5850  0.4060  2.0580
16731TIP3    H271609   2.360   0.161   5.212 -1.9361  1.3671 -2.9624
16732TIP3   OH271610   1.559   6.486   1.881  0.5002 -0.2462 -0.5761
16732TIP3    H171611   1.565   6.567   1.829  0.2259 -0.4528 -0.9284
16732TIP3    H271612   1.624   6.499   1.951 -0.5741  0.9297  0.2584
16733TIP3   OH271613   6.398   6.591   3.932 -0.4103  0.1122 -0.2832
16733TIP3    H171614   6.333   6.552   3.990 -0.6538  1.5558  0.4549
16733TIP3    H271615   6.347   6.634   3.864 -0.1271 -1.7275 -1.7656
16734TIP3   OH271616   5.823   2.692   1.336 -0.1524 -0.3815  0.1121
16734TIP3    H171617   5.904   2.652   1.366  0.0434 -0.1408 -0.0987
16734TIP3    H271618   5.765   2.617   1.320 -0.0554 -0.5441  0.4828
16735TIP3   OH271619   3.159   2.131   1.638  0.4116 -0.3760 -0.5770
16735TIP3    H171620   3.152   2.224   1.617  2.0087  0.3651  1.7324
16735TIP3    H271621   3.253   2.114   1.644  0.1543 -2.0962 -0.7546
16736TIP3   OH271622   3.519   6.824  12.984  0.1452  0.4376 -0.3682
16736TIP3    H171623   3.565   6.792  12.906 -3.1813 -1.8707 -1.5904
16736TIP3    H271624   3.571   6.792  13.058  2.7729  1.7143 -1.5139
16737TIP3   OH271625   5.385   4.049   1.865 -0.3205 -0.1310  0.0617
16737TIP3    H171626   5.307   4.083   1.909 -0.1856 -0.0174  0.2152
16737TIP3    H271627   5.365   4.057   1.772 -0.3147  0.3087  0.0969
16738TIP3   OH271628   6.048   5.907   4.964 -0.2189  0.5091  0.0988
16738TIP3    H171629   6.079   5.887   5.053  0.2122  1.5493  0.1913
16738TIP3    H271630   6.126   5.901   4.909  0.0249  2.3214  0.2029
16739TIP3   OH271631   0.277   6.988   2.092 -0.0843 -0.2106  0.1892
16739TIP3    H171632   0.274   7.054   2.161 -1.0939 -0.1476  0.1129
16739TIP3    H271633   0.226   7.027   2.020  0.1506 -0.6629 -0.2291
16740TIP3   OH271634   3.208   4.855   2.811  0.6004 -0.5723  0.2130
16740TIP3    H171635   3.190   4.761   2.811 -0.0742 -0.4927 -1.5837
16740TIP3    H271636   3.297   4.863   2.778  0.5185 -0.5599 -0.0036
16741TIP3   OH271637   5.716   1.903   4.653 -0.0763  0.5600 -0.2380
16741TIP3    H171638   5.641   1.845   4.640  0.7172 -0.7647  0.8102
16741TIP3    H271639   5.684   1.990   4.630 -1.7767 -0.0507 -0.2862
16742TIP3   OH271640   3.955   5.084   5.419  0.0973 -0.5762 -0.1312
16742TIP3    H171641   3.905   5.157   5.457  1.4968  0.3827 -0.0624
16742TIP3    H271642   3.943   5.093   5.325  0.0599 -0.3929 -0.1102
16743TIP3   OH271643   0.189   0.432   5.612 -0.2870 -0.3786 -0.5726
16743TIP3    H171644   0.210   0.434   5.705 -2.1179 -0.6160 -0.1251
16743TIP3    H271645   0.132   0.356   5.601 -2.6463  1.3497 -1.2551
16744TIP3   OH271646   4.848   0.832   3.547  0.3410  0.5116 -0.2471
16744TIP3    H171647   4.766   0.855   3.590  0.1985  0.3191 -0.4097
16744TIP3    H271648   4.906   0.805   3.618  0.6267  1.6741 -0.0158
16745TIP3   OH271649   5.971   0.388   3.671 -0.2320  0.1720 -0.3097
16745TIP3    H171650   6.030   0.428   3.735 -0.3563 -0.6524  0.3409
16745TIP3    H271651   5.898   0.354   3.723  1.4066 -3.8624 -0.3121
16746TIP3   OH271652   2.966   1.779   2.867  0.3215 -0.6062 -0.0441
16746TIP3    H171653   2.891   1.833   2.844  1.8493  2.0745  0.8425
16746TIP3    H271654   2.927   1.699   2.903 -2.0765  0.3000 -0.4028
16747TIP3   OH271655   1.839   5.421   1.025 -0.3886 -0.2954 -0.1240
16747TIP3    H171656   1.869   5.395   0.938  3.0159 -2.3122  1.4349
16747TIP3    H271657   1.756   5.376   1.038  0.9652 -3.2241 -0.9627
16748TIP3   OH271658   2.598   6.982  12.762  0.0328 -0.3301  0.1120
16748TIP3    H171659   2.529   6.972  12.697  0.1616  0.9672 -0.2531
16748TIP3    H271660   2.551   6.987  12.846 -0.2268 -0.6724 -0.0122
16749TIP3   OH271661   1.105   2.201  15.176  0.2019  0.0969  0.0551
16749TIP3    H171662   1.019   2.175  15.211 -0.4228  0.1452 -1.3797
16749TIP3    H271663   1.155   2.120  15.174 -0.2337 -0.1706 -0.2441
16750TIP3   OH271664   4.000   3.028   0.915  0.2047  0.0547  0.0003
16750TIP3    H171665   4.071   2.969   0.892 -0.3033 -1.6850  2.4787
16750TIP3    H271666   4.043   3.105   0.953  0.8125 -0.9470  1.4099
16751TIP3   OH271667   5.561   5.069   2.295 -0.5086  0.5508  0.0396
16751TIP3    H171668   5.643   5.118   2.299 -0.2235  0.2208 -1.1877
16751TIP3    H271669   5.552   5.029   2.382  1.8363 -1.2930 -0.4641
16752TIP3   OH271670   0.843   1.819   3.914 -0.0976 -0.0224  0.0951
16752TIP3    H171671   0.938   1.813   3.912  0.0253  1.7375 -1.8914
16752TIP3    H271672   0.824   1.904   3.953 -0.9954 -1.1433  2.3421
16753TIP3   OH271673   5.233   2.940  14.895  0.0528  0.3857 -0.2917
16753TIP3    H171674   5.145   2.971  14.918 -0.7402 -1.8943 -0.0114
16753TIP3    H271675   5.292   2.990  14.952 -1.2495  0.3726  1.1414
16754TIP3   OH271676   6.059   1.126   4.833  0.3847 -0.2830 -0.1644
16754TIP3    H171677   6.086   1.217   4.826  0.3997 -0.3345 -0.8325
16754TIP3    H271678   6.137   1.079   4.861 -0.2130  0.2423  2.7075
16755TIP3   OH271679   1.577   1.306   3.911 -0.1319 -0.1199  0.4626
16755TIP3    H171680   1.638   1.275   3.843 -1.4731 -1.6260 -0.1359
16755TIP3    H271681   1.576   1.401   3.901  1.2183 -0.1602 -0.2862
16756TIP3   OH271682   3.047   2.519   1.937 -0.0018  0.2606  0.5266
16756TIP3    H171683   2.995   2.590   1.975 -2.9265 -2.3204  1.8317
16756TIP3    H271684   3.089   2.477   2.011 -2.1839 -2.1409  0.5424
16757TIP3   OH271685   0.699   0.528   1.492  0.0860  0.0047  0.6077
16757TIP3    H171686   0.750   0.472   1.433 -0.8960  1.2767 -1.5769
16757TIP3    H271687   0.760   0.598   1.517  0.7252 -0.9220  1.7838
16758TIP3   OH271688   0.173   0.281   4.320 -0.0350 -0.1592  0.1581
16758TIP3    H171689   0.204   0.345   4.256 -2.7403  0.4545 -0.6956
16758TIP3    H271690   0.186   0.324   4.405  1.5237 -0.0381 -0.1202
16759TIP3   OH271691   3.180   1.881   2.033  0.0692  0.3079 -0.2421
16759TIP3    H171692   3.227   1.823   1.973 -1.2894 -2.1014  0.8930
16759TIP3    H271693   3.140   1.947   1.976 -0.0625 -1.0950 -1.8524
16760TIP3   OH271694   6.708   3.114   5.180  0.2550  0.0282 -0.3128
16760TIP3    H171695   6.728   3.202   5.211  0.9894 -0.1572 -0.2336
16760TIP3    H271696   6.738   3.056   5.250 -2.7677 -0.2094  0.9006
16761TIP3   OH271697   0.675   5.881   0.115 -0.0114 -0.6751 -0.2623
16761TIP3    H171698   0.704   5.824   0.186  1.4520 -1.1678 -1.2039
16761TIP3    H271699   0.742   5.949   0.110 -0.7603  0.0634 -0.3708
16762TIP3   OH271700   1.045   1.741   3.686 -0.4277  0.0447 -0.6769
16762TIP3    H171701   1.097   1.815   3.717  0.9910 -1.7259  1.3937
16762TIP3    H271702   1.098   1.664   3.706 -3.9260 -1.9440  2.0040
16763TIP3   OH271703   3.436   6.607   5.621 -0.1429  0.0904 -0.0629
16763TIP3    H171704   3.418   6.539   5.556 -0.9270  0.0636  0.1702
16763TIP3    H271705   3.463   6.559   5.700  0.8696  0.1258 -0.3733
16764TIP3   OH271706   0.376   6.247   5.147  0.0648  0.0407 -0.0036
16764TIP3    H171707   0.308   6.296   5.193  1.1017  1.0540  0.4985
16764TIP3    H271708   0.329   6.175   5.105 -1.1617  0.0746  1.2252
16765TIP3   OH271709   7.119   0.445  12.743  0.0991 -0.5242 -0.0357
16765TIP3    H171710   7.091   0.467  12.832  0.5728  0.3159 -0.0848
16765TIP3    H271711   7.138   0.352  12.746  0.8244 -0.3587  0.9405
16766TIP3   OH271712   0.415   6.873   3.781  0.0933  0.8573 -0.0646
16766TIP3    H171713   0.427   6.807   3.850  0.0257  0.3186 -0.5663
16766TIP3    H271714   0.456   6.952   3.817 -0.6050  0.7946  0.9130
16767TIP3   OH271715   5.567   3.796   4.676 -0.4843  0.2177  0.1101
16767TIP3    H171716   5.482   3.840   4.671 -0.9256 -0.5097  0.9190
16767TIP3    H271717   5.586   3.792   4.770  0.1962 -0.0806 -0.0399
16768TIP3   OH271718   2.383   4.321   3.154 -0.1842 -0.1655 -0.1274
16768TIP3    H171719   2.407   4.244   3.102 -1.4758  0.5586 -1.9060
16768TIP3    H271720   2.355   4.386   3.089  0.5726  1.7190  1.3304
16769TIP3   OH271721   1.731   6.135   1.864  0.0930 -0.3493  1.2949
16769TIP3    H171722   1.813   6.118   1.817 -0.0571 -0.7103  1.1591
16769TIP3    H271723   1.676   6.183   1.801 -0.2348 -1.1264  0.9751
16770TIP3   OH271724   5.581   2.298   3.085 -0.0921  0.2630 -0.0070
16770TIP3    H171725   5.542   2.379   3.050  1.4478  1.1413  0.2161
16770TIP3    H271726   5.541   2.228   3.033 -0.1453  1.3017 -1.4336
16771TIP3   OH271727   2.692   0.310   4.827 -0.6603  0.1178  0.0575
16771TIP3    H171728   2.644   0.234   4.860  0.8493 -0.8284  0.2104
16771TIP3    H271729   2.687   0.302   4.732  0.4679 -0.8896  0.0491
16772TIP3   OH271730   0.323   1.938   4.422 -0.3821  0.2360 -0.5945
16772TIP3    H171731   0.269   1.867   4.457 -0.9059 -0.1801 -2.1894
16772TIP3    H271732   0.389   1.954   4.490 -0.2111 -1.8179 -0.2223
16773TIP3   OH271733   1.084   0.626   5.421 -0.0636  0.3622  0.1389
16773TIP3    H171734   1.130   0.543   5.409  0.0028  0.6831 -2.4693
16773TIP3    H271735   1.142   0.691   5.382 -0.5317  1.5374  1.3291
16774TIP3   OH271736   7.197   1.538   3.431 -0.7444  0.5276 -0.0144
16774TIP3    H171737   7.170   1.595   3.360 -0.0940  1.0992  0.1860
16774TIP3    H271738   7.293   1.544   3.432 -0.7153  0.1066  0.5587
16775TIP3   OH271739   3.236   6.205   3.574  0.1288  0.1191  0.0012
16775TIP3    H171740   3.167   6.200   3.640  1.2856 -0.7334  1.1957
16775TIP3    H271741   3.317   6.215   3.624  1.0417 -0.4313 -1.3003
16776TIP3   OH271742   2.508   6.209   2.124 -0.0595  0.3842  0.1717
16776TIP3    H171743   2.434   6.219   2.184  0.9801 -0.0321  1.5818
16776TIP3    H271744   2.574   6.161   2.175  1.3059  1.0270 -0.9210
16777TIP3   OH271745   4.132   0.274  14.002  0.0960  0.1291 -0.0994
16777TIP3    H171746   4.203   0.210  13.999  0.9889  1.1040 -2.0262
16777TIP3    H271747   4.063   0.231  14.052  1.7263 -1.1762  1.1299
16778TIP3   OH271748   1.788   6.423   2.654 -0.4140  0.0592  0.0893
16778TIP3    H171749   1.876   6.457   2.639  0.4240 -1.3374  1.4572
16778TIP3    H271750   1.734   6.501   2.669  0.6776  0.9166 -0.2862
16779TIP3   OH271751   0.940   5.882   3.390  0.1117  0.1213 -0.0567
16779TIP3    H171752   0.877   5.811   3.405 -0.1940  0.5338  0.6349
16779TIP3    H271753   1.026   5.839   3.399 -0.0653 -0.0639  0.9384
16780TIP3   OH271754   5.301   3.005   0.329  0.5456  0.3051 -0.2574
16780TIP3    H171755   5.255   3.087   0.314 -0.2341  0.2877  1.7737
16780TIP3    H271756   5.364   3.025   0.399  2.9654  0.0529 -2.2049
16781TIP3   OH271757   6.658   5.591   4.249  0.0935 -0.1320  0.1148
16781TIP3    H171758   6.641   5.668   4.195  2.0905 -0.9414 -1.8079
16781TIP3    H271759   6.745   5.562   4.223  0.5864 -1.4298  2.8117
16782TIP3   OH271760   0.153   2.083   5.575 -0.2101 -0.0640  0.4355
16782TIP3    H171761   0.076   2.121   5.617 -0.1145  1.6927 -0.8615
16782TIP3    H271762   0.227   2.109   5.631 -0.2176  1.1773 -0.1054
16783TIP3   OH271763   6.418   1.885  11.918 -0.5122 -0.2163  0.5096
16783TIP3    H171764   6.435   1.911  11.827 -2.2742 -0.3256  0.0957
16783TIP3    H271765   6.469   1.805  11.931  0.5256  0.3359 -0.0507
16784TIP3   OH271766   4.313   6.287   4.561  0.2452  0.1571 -0.0790
16784TIP3    H171767   4.369   6.350   4.516 -1.1948  2.4219  1.0584
16784TIP3    H271768   4.267   6.241   4.490  0.2604  1.4712 -0.9931
16785TIP3   OH271769   4.451   3.358  15.134  0.0743  0.2396 -0.5844
16785TIP3    H171770   4.491   3.347  15.220  0.3190 -0.8225 -0.8162
16785TIP3    H271771   4.460   3.451  15.115 -1.4691  0.8327  1.2410
16786TIP3   OH271772   0.960   4.357   5.094  1.0277 -0.5409 -0.0066
16786TIP3    H171773   0.993   4.342   5.183  2.0327  1.6745  0.0558
16786TIP3    H271774   0.892   4.423   5.105  1.4330  0.0395 -0.9242
16787TIP3   OH271775   4.550   7.038  14.309  0.2441 -0.1010 -0.0686
16787TIP3    H171776   4.495   7.035  14.231 -1.0501 -1.3587  0.8348
16787TIP3    H271777   4.491   7.017  14.381  1.1708  2.0380  1.4304
16788TIP3   OH271778   5.317   4.128  11.706 -0.5012 -0.0314  0.0452
16788TIP3    H171779   5.271   4.183  11.769 -0.8696 -0.9231  0.5698
16788TIP3    H271780   5.249   4.072  11.668  0.1591 -1.5955  1.0653
16789TIP3   OH271781   2.180   1.872   2.554  0.5322 -0.2745 -0.3643
16789TIP3    H171782   2.245   1.855   2.486 -0.0145 -0.6081 -0.8119
16789TIP3    H271783   2.097   1.879   2.507  0.0268 -1.3148  0.3476
16790TIP3   OH271784   1.511   6.692   5.490 -0.5467 -0.3826  0.1289
16790TIP3    H171785   1.485   6.614   5.540 -1.8819 -0.2084 -0.2357
16790TIP3    H271786   1.556   6.747   5.553  0.0292 -1.2505  0.5024
16791TIP3   OH271787   2.156   4.335   0.266 -0.4038  1.1344  0.2295
16791TIP3    H171788   2.096   4.271   0.226 -0.0737 -0.0981  1.6392
16791TIP3    H271789   2.228   4.342   0.204 -0.9881  1.0215 -0.4796
16792TIP3   OH271790   1.801   6.639   5.638  0.1142  0.5551  0.5683
16792TIP3    H171791   1.887   6.679   5.623  0.6880 -0.7532  0.2838
16792TIP3    H271792   1.761   6.638   5.551  0.0094  0.6894  0.6139
16793TIP3   OH271793   6.530   3.972  11.994  0.3278 -0.7127  0.3754
16793TIP3    H171794   6.592   3.910  11.957 -1.1119 -1.8096 -0.3140
16793TIP3    H271795   6.495   3.929  12.072 -0.4523 -0.6671  0.0650
16794TIP3   OH271796   4.592   1.036   4.847 -0.8682 -0.1203  0.1750
16794TIP3    H171797   4.649   1.077   4.911  0.6368  0.1919 -1.2733
16794TIP3    H271798   4.577   0.948   4.881 -1.5212  0.5768  1.7591
16795TIP3   OH271799   2.195   3.235   0.670 -0.4832 -0.0251  0.1296
16795TIP3    H171800   2.164   3.167   0.730 -0.1835 -0.1689  0.1225
16795TIP3    H271801   2.290   3.226   0.670 -0.4931 -0.2011 -0.5607
16796TIP3   OH271802   6.536   2.093   4.558 -0.0194  0.3863  0.0478
16796TIP3    H171803   6.450   2.087   4.517  0.5863  0.3256 -1.2703
16796TIP3    H271804   6.563   2.184   4.546  0.9789 -0.0705 -1.4767
16797TIP3   OH271805   3.307   6.327  14.041 -0.1464 -0.2090  0.0069
16797TIP3    H171806   3.267   6.328  14.129  0.9885  1.4224  0.5382
16797TIP3    H271807   3.309   6.234  14.018 -0.6090 -0.6739  1.6526
16798TIP3   OH271808   5.375   3.649   4.023 -0.6401  0.0923  0.1499
16798TIP3    H171809   5.355   3.673   4.114  0.4637 -0.7990  0.6653
16798TIP3    H271810   5.437   3.576   4.032 -2.4032 -1.6990 -1.2990
16799TIP3   OH271811   3.091   2.835   5.629 -0.5102  0.0299 -0.3581
16799TIP3    H171812   3.103   2.917   5.581 -0.0770  0.7004  0.8563
16799TIP3    H271813   3.177   2.815   5.665 -0.9081 -0.2431  0.4673
16800TIP3   OH271814   0.378   4.139   4.487  0.1999  0.3106  0.2905
16800TIP3    H171815   0.385   4.157   4.581 -0.0363 -0.1251  0.3938
16800TIP3    H271816   0.298   4.185   4.460  1.2305  1.9668 -0.0823
16801TIP3   OH271817   3.264   5.945   2.024 -0.1942  0.3005  0.1431
16801TIP3    H171818   3.270   5.884   1.951  0.9886 -2.3976  2.3197
16801TIP3    H271819   3.317   6.020   1.997  0.2239 -0.6038 -1.7060
16802TIP3   OH271820   1.309   5.370   3.781  0.0184  0.5025 -0.2770
16802TIP3    H171821   1.381   5.325   3.824  0.5730 -1.0422 -2.6418
16802TIP3    H271822   1.349   5.449   3.744  0.5335 -0.3024 -1.5016
16803TIP3   OH271823   1.206   6.015   4.753 -0.5065  0.0609  0.3607
16803TIP3    H171824   1.230   5.929   4.719 -0.6711 -0.5196  1.6395
16803TIP3    H271825   1.278   6.072   4.728  0.2698 -0.7597  0.6626
16804TIP3   OH271826   6.356   4.490  13.500  0.4276 -0.1380  0.0536
16804TIP3    H171827   6.386   4.563  13.446  0.4174  1.2056  1.7614
16804TIP3    H271828   6.274   4.462  13.459  0.2652  1.0330 -0.4635
16805TIP3   OH271829   6.658   2.797  12.222  0.0948  0.0049 -0.8466
16805TIP3    H171830   6.589   2.750  12.269  0.4887  0.5872  0.3490
16805TIP3    H271831   6.730   2.735  12.215  0.0552 -0.0637 -0.6293
16806TIP3   OH271832   1.274   0.021   1.475 -0.1561  0.0943 -0.3334
16806TIP3    H171833   1.256   0.062   1.390 -2.4614 -1.4559 -0.6870
16806TIP3    H271834   1.199   0.045   1.529 -0.2057 -1.3736  0.3038
16807TIP3   OH271835   4.728   1.477   5.085  0.2648 -0.2655  0.3017
16807TIP3    H171836   4.682   1.426   5.152 -0.0638 -1.6083 -0.8870
16807TIP3    H271837   4.796   1.418   5.053  0.6494  0.4905 -0.3026
16808TIP3   OH271838   0.186   5.698   4.476  0.4447  0.1086 -0.6221
16808TIP3    H171839   0.120   5.762   4.448 -0.2969 -0.5410 -0.3663
16808TIP3    H271840   0.208   5.725   4.565  0.3390  0.1666 -0.6129
16809TIP3   OH271841   4.764   1.072   3.885  0.6930 -0.2008 -0.1391
16809TIP3    H171842   4.760   1.121   3.967 -0.0099  0.4405 -0.5423
16809TIP3    H271843   4.838   1.012   3.896  0.4012 -0.3544  1.0838
16810TIP3   OH271844   5.714   3.530   1.588  0.2744  0.1712 -0.3630
16810TIP3    H171845   5.633   3.486   1.615  0.9093  0.2733  1.8718
16810TIP3    H271846   5.784   3.470   1.614  1.0137  1.2083  0.1114
16811TIP3   OH271847   5.507   5.712   1.806 -0.4422  0.2839  0.7752
16811TIP3    H171848   5.500   5.630   1.757 -1.2942 -2.0069  4.3154
16811TIP3    H271849   5.466   5.778   1.750  0.0409 -1.7040 -2.1189
16812TIP3   OH271850   4.330   2.586   3.977  0.1353  0.2092  0.0129
16812TIP3    H171851   4.308   2.580   3.884 -1.2636  0.0270  0.3308
16812TIP3    H271852   4.246   2.576   4.022  0.7171  0.8295  1.2822
16813TIP3   OH271853   5.050   0.809   3.793 -0.3237  0.1276  0.7831
16813TIP3    H171854   5.013   0.800   3.880  2.0297 -1.0723  1.7421
16813TIP3    H271855   5.121   0.744   3.790  0.0498  0.5439 -1.8037
16814TIP3   OH271856   2.979   2.638   4.800 -0.2367 -0.0481 -0.6327
16814TIP3    H171857   3.026   2.675   4.875 -0.8813  1.7833 -1.0697
16814TIP3    H271858   3.028   2.559   4.777  2.6138  1.6840 -1.0029
16815TIP3   OH271859   1.863   2.744   2.691  0.0238 -0.6330 -0.3410
16815TIP3    H171860   1.953   2.771   2.709 -0.2251  0.2244 -0.3674
16815TIP3    H271861   1.868   2.648   2.688  1.1804 -0.5755 -1.6090
16816TIP3   OH271862   4.269   6.490  13.771 -0.4427  0.2187  0.3852
16816TIP3    H171863   4.225   6.413  13.734  0.2276  0.1630 -0.3154
16816TIP3    H271864   4.337   6.454  13.827  0.3181  0.2833 -0.4773
16817TIP3   OH271865   0.448   2.934   2.643 -0.0688  0.0781  0.2493
16817TIP3    H171866   0.490   3.014   2.611 -1.0197  0.7807  0.6848
16817TIP3    H271867   0.378   2.917   2.581  1.4395 -1.6902 -1.0706
16818TIP3   OH271868   5.833   6.689   4.778 -0.0254  0.8480 -0.1160
16818TIP3    H171869   5.809   6.764   4.724  0.6819  1.2697  0.1418
16818TIP3    H271870   5.921   6.710   4.811  0.6683 -0.5856 -0.9486
16819TIP3   OH271871   5.621   3.793   4.196 -0.5008 -0.6034 -0.3129
16819TIP3    H171872   5.656   3.819   4.281 -1.3992  0.1381 -0.1588
16819TIP3    H271873   5.604   3.699   4.205 -0.0965 -0.6354  0.1425
16820TIP3   OH271874   4.453   1.652  15.337 -0.0726 -0.0175 -0.4209
16820TIP3    H171875   4.482   1.734  15.298  1.3090  0.2571  1.0807
16820TIP3    H271876   4.521   1.630  15.401 -1.7182 -0.9496  1.1107
16821TIP3   OH271877   3.951   7.049  13.164  0.1739 -0.0900 -0.2749
16821TIP3    H171878   4.007   6.998  13.223  0.1464  1.1121  0.8455
16821TIP3    H271879   4.012   7.099  13.110  0.2243  0.6511  0.4364
16822TIP3   OH271880   3.999   2.264   4.658 -0.2763 -0.0089 -0.1584
16822TIP3    H171881   3.928   2.246   4.719  0.2116 -1.0375  0.1259
16822TIP3    H271882   4.006   2.359   4.657 -1.2769  0.0816  0.2436
16823TIP3   OH271883   0.087   6.566   3.431  0.0568  1.1092  0.0559
16823TIP3    H171884   0.039   6.547   3.512 -0.6207  0.8718 -0.3964
16823TIP3    H271885   0.176   6.533   3.448 -0.1939  0.6675  0.5460
16824TIP3   OH271886   6.744   1.839  13.538 -0.0999 -0.4546  0.3396
16824TIP3    H171887   6.747   1.762  13.481  0.2422  0.5234 -1.0180
16824TIP3    H271888   6.651   1.847  13.562 -0.0769 -1.5265  0.8795
16825TIP3   OH271889   1.207   3.695  14.684  0.1901 -0.0881  0.1681
16825TIP3    H171890   1.120   3.696  14.726  0.7681 -0.1017  1.4099
16825TIP3    H271891   1.241   3.608  14.701  0.0015 -0.4872 -1.3398
16826TIP3   OH271892   0.921   5.844   2.414  0.2416 -0.1577 -0.0806
16826TIP3    H171893   0.994   5.786   2.432  0.6171  0.4779  0.4831
16826TIP3    H271894   0.906   5.835   2.320  0.3211 -1.1170 -0.0080
16827TIP3   OH271895   4.912   3.843   4.054 -0.3709 -0.3520  0.9453
16827TIP3    H171896   4.833   3.823   4.003  0.9061 -1.0403 -0.8568
16827TIP3    H271897   4.944   3.758   4.084  1.2503 -0.4159 -0.8155
16828TIP3   OH271898   0.816   3.343   1.117 -0.0209 -0.0113  0.7927
16828TIP3    H171899   0.878   3.300   1.177 -1.1361 -2.4289  0.3544
16828TIP3    H271900   0.730   3.319   1.151 -0.7662  2.3317  0.7320
16829TIP3   OH271901   0.187   7.028   5.796 -0.4013  0.1312  0.9794
16829TIP3    H171902   0.157   7.005   5.884  1.0604 -0.0278  1.4606
16829TIP3    H271903   0.275   7.063   5.809 -0.4991  0.9273 -0.3380
16830TIP3   OH271904   5.630   2.858  13.293 -0.3449  0.6895 -0.5838
16830TIP3    H171905   5.583   2.919  13.349 -1.2677  0.5323 -1.1547
16830TIP3    H271906   5.569   2.785  13.281  1.1163 -0.8665  0.9380
16831TIP3   OH271907   0.857   3.631   4.738 -0.7864  0.4136  0.4284
16831TIP3    H171908   0.828   3.693   4.805 -0.1169  1.8534 -0.5811
16831TIP3    H271909   0.948   3.613   4.760 -0.6468  0.6743  0.0659
16832TIP3   OH271910   5.808   6.719   3.497 -0.8237 -0.6273 -0.2553
16832TIP3    H171911   5.878   6.700   3.435  0.5385 -0.8645  1.2814
16832TIP3    H271912   5.738   6.658   3.474 -0.1078 -1.1355 -1.1574
16833TIP3   OH271913   4.894   4.387   0.420 -0.1090 -0.4369  0.1547
16833TIP3    H171914   4.834   4.314   0.434 -1.1318  0.9298  3.9789
16833TIP3    H271915   4.851   4.462   0.462  3.0924  1.2415  0.7134
16834TIP3   OH271916   6.644   5.336   3.474  0.4132  0.1176  0.3551
16834TIP3    H171917   6.690   5.257   3.448  0.3230  0.2810 -0.3177
16834TIP3    H271918   6.565   5.305   3.518  1.2768 -0.1663  1.7758
16835TIP3   OH271919   0.706   1.794   4.516  0.8113 -0.9207 -0.0667
16835TIP3    H171920   0.694   1.875   4.466  0.9454 -0.6243  0.3771
16835TIP3    H271921   0.669   1.814   4.602 -0.0505 -1.6540 -0.2538
16836TIP3   OH271922   0.315   3.542   0.373  0.0864 -0.2595 -0.6254
16836TIP3    H171923   0.364   3.461   0.382 -0.3697 -0.7385 -2.1326
16836TIP3    H271924   0.253   3.525   0.303 -1.0902  0.8898  0.0848
16837TIP3   OH271925   2.014   4.383   4.308  0.4737  0.4573  0.9591
16837TIP3    H171926   1.938   4.358   4.257 -0.2845  4.6161 -0.3613
16837TIP3    H271927   2.089   4.346   4.261 -0.4205  1.4879 -1.3823
16838TIP3   OH271928   2.601   1.447   1.770  0.0640  0.1979  0.2618
16838TIP3    H171929   2.685   1.443   1.816  1.1339  2.9823 -1.2497
16838TIP3    H271930   2.542   1.489   1.832 -0.2602 -1.6435  1.2776
16839TIP3   OH271931   5.672   6.296   1.312 -0.6377  0.0451  0.4616
16839TIP3    H171932   5.605   6.362   1.330 -0.6396  0.2279 -0.1875
16839TIP3    H271933   5.624   6.213   1.309 -0.8638  0.1940 -0.1577
16840TIP3   OH271934   6.861   3.170   0.290  0.2959 -0.3204  0.2644
16840TIP3    H171935   6.779   3.219   0.284  1.0489  0.8210 -1.4437
16840TIP3    H271936   6.837   3.088   0.331 -1.5007  0.4343  0.7983
16841TIP3   OH271937   0.027   0.067   3.125 -0.0776  0.1442  0.0172
16841TIP3    H171938   0.083   0.067   3.202  0.1346 -2.2170 -0.0709
16841TIP3    H271939   0.083   0.036   3.054 -0.3366  2.0350 -1.0755
16842TIP3   OH271940   6.590   1.903   3.329 -0.0757  0.0020 -0.3082
16842TIP3    H171941   6.550   1.894   3.243 -0.2965  2.1537 -0.4744
16842TIP3    H271942   6.521   1.939   3.384  0.4717 -0.0403  0.4136
16843TIP3   OH271943   0.952   1.252   2.682  0.0341 -0.5520  0.2127
16843TIP3    H171944   0.865   1.242   2.644  0.7366 -0.6528 -1.4411
16843TIP3    H271945   0.940   1.233   2.775 -1.9911  0.9891  0.3109
16844TIP3   OH271946   3.810   2.132   3.766  0.6920  0.2483 -0.2279
16844TIP3    H171947   3.734   2.159   3.714  2.3377  1.9144 -1.8705
16844TIP3    H271948   3.811   2.192   3.841  0.7118  0.5622 -0.4828
16845TIP3   OH271949   4.221   3.985   4.129 -0.2981  0.5232  0.0979
16845TIP3    H171950   4.240   4.016   4.040  1.1034 -0.1813  0.1276
16845TIP3    H271951   4.277   3.908   4.140 -2.4005 -1.0323  0.6506
16846TIP3   OH271952   3.564   3.388   1.048  0.7804  0.3695  0.4607
16846TIP3    H171953   3.656   3.410   1.063  1.0030 -0.2781  0.0915
16846TIP3    H271954   3.526   3.385   1.136  1.0989  0.6709  0.6145
16847TIP3   OH271955   6.965   5.509   3.174 -0.1592 -0.2764  0.3972
16847TIP3    H171956   6.905   5.569   3.218  0.4412 -0.3190  1.2891
16847TIP3    H271957   6.980   5.549   3.088 -1.0089  0.0240  0.3768
16848TIP3   OH271958   1.087   5.187   4.375  0.2380 -0.3860  0.2734
16848TIP3    H171959   1.130   5.142   4.447 -0.5494 -0.4348  0.7260
16848TIP3    H271960   1.153   5.248   4.342  0.1964  0.6267  1.9177
16849TIP3   OH271961   1.159   3.733  10.853  0.2341 -0.6846 -0.3610
16849TIP3    H171962   1.143   3.822  10.822  1.4217 -0.0225  0.8365
16849TIP3    H271963   1.111   3.727  10.935  1.3785 -0.6056  0.3388
16850TIP3   OH271964   1.347   2.103  13.141 -0.4873  0.4886 -0.0855
16850TIP3    H171965   1.442   2.103  13.153 -0.3899  1.0405 -0.8360
16850TIP3    H271966   1.314   2.156  13.214 -0.3141 -0.5593  0.7838
16851TIP3   OH271967   1.861   1.401   3.085  0.6861 -0.1535 -0.4770
16851TIP3    H171968   1.776   1.436   3.060  1.0917  1.8971  0.7756
16851TIP3    H271969   1.888   1.347   3.010 -2.2136 -1.9533 -0.4019
16852TIP3   OH271970   4.877   1.845  13.998 -0.4434  0.1355  0.5848
16852TIP3    H171971   4.931   1.781  13.953 -0.6709  0.3691 -0.0261
16852TIP3    H271972   4.842   1.798  14.074 -1.2007 -0.6965 -0.2459
16853TIP3   OH271973   2.227   0.726   5.176 -0.2952  0.3924 -0.0730
16853TIP3    H171974   2.193   0.636   5.178 -2.4282  1.1474  0.5764
16853TIP3    H271975   2.271   0.738   5.260 -1.0643  0.3205  0.3443
16854TIP3   OH271976   3.139   3.079   0.234  0.1689 -0.1778  0.6185
16854TIP3    H171977   3.179   3.166   0.226 -0.4301  0.1775  1.3757
16854TIP3    H271978   3.129   3.049   0.144  2.4134 -0.4197  0.3807
16855TIP3   OH271979   0.749   3.707   4.371 -0.3533  0.1220  0.4427
16855TIP3    H171980   0.768   3.799   4.392  0.6433 -0.1440  0.7789
16855TIP3    H271981   0.672   3.711   4.314  0.0728  1.2116 -0.0911
16856TIP3   OH271982   0.911   6.295   3.441 -0.1154  0.2184  0.0427
16856TIP3    H171983   0.851   6.360   3.405 -0.8768 -0.1030  0.6963
16856TIP3    H271984   0.857   6.242   3.500  0.8674  0.0942  0.8696
16857TIP3   OH271985   6.142   1.777   2.003  0.5127  0.0242 -0.0541
16857TIP3    H171986   6.196   1.704   1.973  1.6856  1.4075 -1.4728
16857TIP3    H271987   6.198   1.854   1.993 -0.7932  1.1775  1.0875
16858TIP3   OH271988   7.106   3.166   0.834  0.3393  0.3293  0.1834
16858TIP3    H171989   7.061   3.232   0.886 -0.1611  0.5513 -0.5079
16858TIP3    H271990   7.129   3.097   0.896  0.6628  1.0501  0.8709
16859TIP3   OH271991   0.235   6.892   1.016  0.8338 -0.2440  0.5032
16859TIP3    H171992   0.230   6.930   0.928  1.1002  0.6754  0.8748
16859TIP3    H271993   0.329   6.877   1.030  0.7887 -0.4155  0.6218
16860TIP3   OH271994   0.150   0.285   3.982 -0.5676 -0.1867 -0.2359
16860TIP3    H171995   0.211   0.350   4.015 -0.1808 -0.4624 -0.4052
16860TIP3    H271996   0.205   0.214   3.949 -0.9821 -0.5581 -0.1437
16861TIP3   OH271997   0.383   1.599   5.023 -0.3334 -0.1397  0.0968
16861TIP3    H171998   0.289   1.614   5.014 -0.4733 -0.3541  1.0006
16861TIP3    H271999   0.391   1.504   5.031  0.0210 -0.1677 -0.5495
16862TIP3   OH272000   1.327   6.582   4.997  0.0243  0.1774  0.7951
16862TIP3    H172001   1.354   6.545   5.081  1.1793 -1.6960 -0.3398
16862TIP3    H272002   1.404   6.629   4.965 -0.4967  1.1176  0.8581
16863TIP3   OH272003   5.300   5.811   2.745  0.4446 -0.1558 -0.3011
16863TIP3    H172004   5.273   5.826   2.654  0.4638 -1.8287 -0.6179
16863TIP3    H272005   5.349   5.889   2.769  0.3818  0.3456 -1.7193
16864TIP3   OH272006   5.053   6.569   3.854  0.1836 -0.2437 -0.0811
16864TIP3    H172007   4.971   6.524   3.878 -1.0620  1.0565 -1.6434
16864TIP3    H272008   5.081   6.526   3.774 -0.8302  1.4376 -1.3984
16865TIP3   OH272009   5.291   4.275   2.019  0.1786 -0.8731  0.7036
16865TIP3    H172010   5.385   4.260   2.018  0.1761 -1.0350 -1.4229
16865TIP3    H272011   5.271   4.300   2.109  2.4058  0.2475  0.9404
16866TIP3   OH272012   4.476   4.455   3.720  0.0441  0.3003 -0.1406
16866TIP3    H172013   4.556   4.408   3.698 -0.1325  0.1446 -0.4576
16866TIP3    H272014   4.430   4.464   3.637 -0.3797  0.1787  0.0770
16867TIP3   OH272015   1.468   6.974   5.035  0.0250 -0.5390  0.4339
16867TIP3    H172016   1.491   6.909   5.101 -1.5633 -1.1581  0.4254
16867TIP3    H272017   1.500   7.057   5.070  2.8997 -1.3844  0.0393
16868TIP3   OH272018   6.013   3.363   5.448 -0.3355  0.4576 -0.4043
16868TIP3    H172019   6.008   3.392   5.539  0.2237  1.7691 -0.7680
16868TIP3    H272020   6.063   3.282   5.451 -0.2711  0.5172  0.4494
16869TIP3   OH272021   5.017   3.776   2.892  0.4995  0.0264  0.2625
16869TIP3    H172022   5.011   3.713   2.821  0.4954 -0.2375  0.4965
16869TIP3    H272023   5.101   3.821   2.878  0.6759 -0.2897  0.3101
16870TIP3   OH272024   6.257   0.519  15.139 -0.7558  0.2348  0.1965
16870TIP3    H172025   6.308   0.601  15.139 -1.0818  0.4399  0.0623
16870TIP3    H272026   6.166   0.548  15.136 -0.8456 -0.1500 -2.3693
16871TIP3   OH272027   6.328   5.848   2.133 -0.1465  0.7887  0.0210
16871TIP3    H172028   6.298   5.758   2.120 -1.0789  0.9202  1.1346
16871TIP3    H272029   6.303   5.893   2.052 -2.6609  0.7893  0.7164
16872TIP3   OH272030   7.104   2.753   3.554  0.1239 -0.2510 -0.6152
16872TIP3    H172031   7.145   2.823   3.504 -2.2562  2.7260  1.2296
16872TIP3    H272032   7.086   2.684   3.489  2.1176  0.9889 -2.6262
16873TIP3   OH272033   0.150   4.276   3.449  0.2529 -0.3182 -0.4299
16873TIP3    H172034   0.222   4.313   3.501 -0.0076 -0.7971  0.2806
16873TIP3    H272035   0.092   4.350   3.434  0.3463 -0.1688 -0.0660
16874TIP3   OH272036   1.010   6.101   4.606  0.5718  0.6379 -0.3514
16874TIP3    H172037   1.077   6.110   4.674 -0.1033  2.8732  0.1182
16874TIP3    H272038   1.009   6.008   4.586  1.5942  0.0609  1.8918
16875TIP3   OH272039   4.767   2.685  14.325  0.2452 -0.2608  0.0296
16875TIP3    H172040   4.851   2.668  14.283 -0.6426 -0.8229 -1.6327
16875TIP3    H272041   4.788   2.737  14.402  2.2016 -1.2811  0.2404
16876TIP3   OH272042   1.666   0.809   5.534  0.2895  0.0893  0.0593
16876TIP3    H172043   1.686   0.848   5.620  0.5383 -1.1712  0.5926
16876TIP3    H272044   1.725   0.734   5.528 -0.3259 -0.3295 -0.8636
16877TIP3   OH272045   3.344   2.537   5.622  0.1416 -0.0904 -0.7262
16877TIP3    H172046   3.275   2.483   5.660 -1.2352  0.5770 -2.1525
16877TIP3    H272047   3.354   2.609   5.683 -0.7567  0.0276 -0.6992
16878TIP3   OH272048   4.429   0.699   4.689 -0.0557  0.5923  0.1653
16878TIP3    H172049   4.391   0.613   4.670  0.8544  0.1983  0.0358
16878TIP3    H272050   4.362   0.745   4.739  0.5436 -1.3481  3.0124
16879TIP3   OH272051   3.199   1.172   0.465 -0.1342  0.1689 -0.1429
16879TIP3    H172052   3.193   1.157   0.559 -0.2341 -0.9957 -0.3233
16879TIP3    H272053   3.212   1.267   0.456 -1.9116  0.5662  0.9647
16880TIP3   OH272054   5.076   1.028   2.683 -0.2967  0.0780  0.2738
16880TIP3    H172055   5.118   1.051   2.600  0.5281  0.0776  0.6849
16880TIP3    H272056   5.012   1.098   2.697 -1.2096 -0.4864 -0.8849
16881TIP3   OH272057   2.895   0.056  12.879  0.4170  0.0252  0.5107
16881TIP3    H172058   2.873  -0.029  12.840 -0.9600  0.3400  0.5241
16881TIP3    H272059   2.898   0.039  12.973  1.0443 -0.1885  0.4544
16882TIP3   OH272060   5.569   4.052   5.009  0.2454 -0.0748 -0.3539
16882TIP3    H172061   5.639   3.993   4.979 -0.5048  0.1044 -2.7217
16882TIP3    H272062   5.609   4.103   5.080  1.3825 -2.3503  0.7560
16883TIP3   OH272063   0.459   2.611   4.810 -0.6627  0.0597 -0.4103
16883TIP3    H172064   0.402   2.687   4.811 -1.5192 -0.5504 -0.8259
16883TIP3    H272065   0.522   2.626   4.880  0.0754  1.7904 -1.3755
16884TIP3   OH272066   3.632   1.933   0.998 -0.6960 -0.1319  0.5813
16884TIP3    H172067   3.703   1.977   0.951  1.1824 -1.1216  2.2833
16884TIP3    H272068   3.631   1.975   1.084 -1.5694 -0.7425  0.8837
16885TIP3   OH272069   1.671   6.102   3.351 -0.3369  0.6603 -0.3621
16885TIP3    H172070   1.601   6.137   3.296  0.3941  0.7281 -1.2728
16885TIP3    H272071   1.737   6.071   3.289 -0.2927 -0.9497  0.4414
16886TIP3   OH272072   2.459   0.251   5.435 -0.2031  0.2598 -0.5815
16886TIP3    H172073   2.517   0.176   5.449 -2.2139 -1.8283 -2.6282
16886TIP3    H272074   2.405   0.254   5.514  1.8400  1.6109  0.8968
16887TIP3   OH272075   1.018   6.603   3.387  0.0491 -0.5250 -0.0583
16887TIP3    H172076   1.034   6.660   3.311  2.0511  0.0784  0.7547
16887TIP3    H272077   0.924   6.588   3.386 -0.7061  3.1867 -0.0972
16888TIP3   OH272078   2.111   0.560   4.299  0.2878 -0.2543  0.1418
16888TIP3    H172079   2.062   0.582   4.219 -1.1177 -0.6131  0.8730
16888TIP3    H272080   2.100   0.636   4.356  1.1118 -0.0858  0.0825
16889TIP3   OH272081   5.199   3.729   0.635  0.8240  0.2551  0.7664
16889TIP3    H172082   5.167   3.811   0.673  0.6043  2.1577 -3.0074
16889TIP3    H272083   5.293   3.730   0.650  0.9404  1.6678  0.0786
16890TIP3   OH272084   3.109   1.807   1.356 -0.1799  0.7007 -0.2436
16890TIP3    H172085   3.182   1.867   1.369  0.9828 -0.8766  0.9407
16890TIP3    H272086   3.094   1.807   1.262  0.5779  1.9261 -0.3830
16891TIP3   OH272087   1.198   0.505   3.730  0.4140  0.0488  0.6723
16891TIP3    H172088   1.259   0.444   3.687 -0.3557 -0.4473  0.2684
16891TIP3    H272089   1.241   0.527   3.813  0.6588 -1.1353  0.8750
16892TIP3   OH272090   6.283   1.074   4.502 -0.2307 -0.1908 -0.2887
16892TIP3    H172091   6.282   1.049   4.594  0.9596  2.4117  0.5336
16892TIP3    H272092   6.214   1.140   4.494  0.1009  0.0744 -1.0749
16893TIP3   OH272093   5.926   6.799   4.471  0.3902 -1.0464  0.3663
16893TIP3    H172094   5.978   6.864   4.422  0.1174 -0.0619  1.3514
16893TIP3    H272095   5.837   6.833   4.469  0.3258 -1.1352  1.3006
16894TIP3   OH272096   2.432   2.066   1.838  0.1704  0.0751 -0.4647
16894TIP3    H172097   2.517   2.058   1.796 -0.5379 -1.5562 -1.6708
16894TIP3    H272098   2.368   2.048   1.769 -1.1915  1.5010  0.3422
16895TIP3   OH272099   2.495   5.422   5.624  0.0089  0.0759  0.2556
16895TIP3    H172100   2.450   5.501   5.653  0.7606  0.0250  1.5913
16895TIP3    H272101   2.499   5.366   5.701  2.1340 -0.0283  0.1203
16896TIP3   OH272102   0.009   0.696   1.647  0.5358 -0.1774 -0.7148
16896TIP3    H172103   0.044   0.628   1.704  1.9179  1.6879  0.7738
16896TIP3    H272104  -0.045   0.750   1.705 -0.1463  0.3091 -1.7660
16897TIP3   OH272105   4.736   3.609   4.866  0.0195 -0.1992 -0.1769
16897TIP3    H172106   4.767   3.580   4.780  0.6239  0.5547 -0.2333
16897TIP3    H272107   4.699   3.696   4.850 -0.1925 -0.2050  0.2617
16898TIP3   OH272108   1.466   1.261   3.025 -0.2498  0.1183 -0.7569
16898TIP3    H172109   1.431   1.223   3.105 -2.4411  0.9953 -1.2171
16898TIP3    H272110   1.514   1.189   2.983 -2.4570 -1.5749 -0.5735
16899TIP3   OH272111   5.153   3.433   4.224  0.1544  0.2163 -0.3720
16899TIP3    H172112   5.197   3.517   4.234  1.4578 -0.6538  1.9576
16899TIP3    H272113   5.080   3.437   4.286 -1.6374  0.6955 -2.4075
16900TIP3   OH272114   5.349   1.296   0.132  0.3336 -0.0407  0.2897
16900TIP3    H172115   5.433   1.265   0.167  0.3480 -0.4677 -0.1177
16900TIP3    H272116   5.283   1.250   0.183  0.3548 -0.7318 -0.2955
16901TIP3   OH272117   4.684   0.800   4.670  0.0827 -0.0120 -0.1192
16901TIP3    H172118   4.601   0.753   4.661  0.0691 -0.1010  0.4391
16901TIP3    H272119   4.704   0.829   4.581 -1.0494  0.8916 -0.0996
16902TIP3   OH272120   3.441   0.522   5.480 -0.1440  0.2039  0.3681
16902TIP3    H172121   3.503   0.494   5.413 -1.8276 -1.4589 -0.5815
16902TIP3    H272122   3.451   0.618   5.483  3.1297 -0.0234  1.0240
16903TIP3   OH272123   2.159   1.824   3.936  0.1872  0.0458  0.2557
16903TIP3    H172124   2.068   1.851   3.920 -0.6754 -1.7375  1.7504
16903TIP3    H272125   2.177   1.852   4.026  0.9776 -0.0034  0.1225
16904TIP3   OH272126   3.995   2.965   3.420 -0.3781  0.3411 -0.1802
16904TIP3    H172127   3.951   2.908   3.483  0.5896  2.4725  2.7127
16904TIP3    H272128   3.954   3.051   3.433  0.2618  0.9895 -2.1009
16905TIP3   OH272129   3.623   1.172   1.823 -0.1239 -0.3533  0.7149
16905TIP3    H172130   3.655   1.254   1.784 -1.0766 -0.2884  0.0385
16905TIP3    H272131   3.575   1.129   1.752  0.6958 -1.7131  0.9332
16906TIP3   OH272132   3.665   1.023  12.094  0.0381  0.4170  0.5168
16906TIP3    H172133   3.679   0.936  12.131 -0.3539  0.1151 -0.0298
16906TIP3    H272134   3.749   1.047  12.056  0.2827  0.4873  1.1019
16907TIP3   OH272135   3.509   0.096   1.818 -0.2538 -0.1067  0.9385
16907TIP3    H172136   3.519   0.161   1.887  1.7585 -0.8326  1.3866
16907TIP3    H272137   3.463   0.023   1.859 -2.3590  0.8880  0.4809
16908TIP3   OH272138   6.705   3.194   1.586  0.6997 -0.2729 -0.7403
16908TIP3    H172139   6.659   3.136   1.525 -0.3535 -0.5632  0.3066
16908TIP3    H272140   6.788   3.150   1.603 -0.0189 -1.4127 -0.0864
16909TIP3   OH272141   5.484   2.824  15.280 -0.3010  0.2287 -0.2041
16909TIP3    H172142   5.567   2.777  15.285  0.1713  0.7858 -2.1524
16909TIP3    H272143   5.417   2.755  15.281  0.1313 -0.2142  1.5429
16910TIP3   OH272144   5.685   3.197   5.328 -0.0729  0.5046 -0.1095
16910TIP3    H172145   5.606   3.184   5.277 -0.1797  0.2485  0.1193
16910TIP3    H272146   5.663   3.270   5.387 -0.1755  0.3569  0.0335
16911TIP3   OH272147   3.401   0.055   5.510 -0.3061  0.1446 -0.2453
16911TIP3    H172148   3.367   0.113   5.577  1.2745 -0.7127  1.3740
16911TIP3    H272149   3.446   0.113   5.448 -0.2421  0.7845  0.3968
16912TIP3   OH272150   5.505   0.787   0.712  0.0591 -0.6384 -0.3695
16912TIP3    H172151   5.537   0.824   0.630  1.8979 -2.0116 -0.3325
16912TIP3    H272152   5.412   0.811   0.715  0.0017 -0.3582 -2.7312
16913TIP3   OH272153   4.999   2.176   5.146  0.2297  0.0214 -0.2747
16913TIP3    H172154   5.019   2.226   5.067  0.6207 -0.2506 -0.3527
16913TIP3    H272155   4.969   2.242   5.209 -0.9390  0.1233 -0.9164
16914TIP3   OH272156   1.064   0.640   4.590  0.5080  0.0919  0.2575
16914TIP3    H172157   1.031   0.708   4.649 -2.3232 -0.8018 -0.1600
16914TIP3    H272158   1.064   0.561   4.643  0.5717 -0.2156 -0.2008
16915TIP3   OH272159   5.547   6.891   4.820  0.6487  0.4682 -0.2998
16915TIP3    H172160   5.569   6.886   4.913  0.2705  0.3777 -0.2171
16915TIP3    H272161   5.481   6.823   4.806  0.4275  0.7321 -0.5548
16916TIP3   OH272162   5.714   6.042   4.014 -0.3616 -0.5308  0.5479
16916TIP3    H172163   5.661   6.087   4.080  0.2432 -0.8964  1.2934
16916TIP3    H272164   5.702   5.949   4.033  0.4191 -0.6216  0.6222
16917TIP3   OH272165   3.452   4.148  13.673  0.5106  0.0783 -0.2841
16917TIP3    H172166   3.544   4.161  13.695  0.9614  1.0010 -2.5019
16917TIP3    H272167   3.453   4.106  13.587 -1.1205  2.3675 -1.5135
16918TIP3   OH272168   5.249   1.293  15.069 -0.2313 -0.5094  0.7863
16918TIP3    H172169   5.188   1.281  15.142 -2.3984 -1.2655 -1.0049
16918TIP3    H272170   5.306   1.216  15.072 -0.8928 -0.9995  1.1805
16919TIP3   OH272171   3.688   0.244   0.469  0.4856  0.4314  0.0140
16919TIP3    H172172   3.749   0.187   0.516  0.6012  1.8631  1.6946
16919TIP3    H272173   3.642   0.185   0.409  2.8195 -0.8625 -0.6192
16920TIP3   OH272174   2.849   4.884   2.897 -0.5140 -0.1007  0.0817
16920TIP3    H172175   2.917   4.852   2.956 -0.9066 -0.9701  0.0816
16920TIP3    H272176   2.873   4.975   2.880 -0.0180 -0.0391  1.0313
16921TIP3   OH272177   2.139   5.809  14.992  0.2055  0.7194  0.1104
16921TIP3    H172178   2.186   5.876  14.943  1.7251  0.7350  1.5008
16921TIP3    H272179   2.104   5.856  15.068 -2.0381  0.6791 -0.8313
16922TIP3   OH272180   3.076   5.724   2.354 -0.5407 -0.4564 -0.1820
16922TIP3    H172181   3.053   5.759   2.440  0.9992 -0.7839  0.4012
16922TIP3    H272182   3.117   5.797   2.309 -0.2746 -0.6028 -0.1817
16923TIP3   OH272183   6.784   6.831   2.738  0.1082 -0.7198 -0.3163
16923TIP3    H172184   6.858   6.820   2.798  0.3707  0.2378 -0.4481
16923TIP3    H272185   6.795   6.919   2.703  0.6049 -1.6572 -2.6449
16924TIP3   OH272186   5.484   4.728   0.347 -0.0577  0.4339 -0.0922
16924TIP3    H172187   5.397   4.726   0.387  0.2270  0.7315  0.5601
16924TIP3    H272188   5.509   4.821   0.349  0.4807  0.2868  0.1926
16925TIP3   OH272189   5.848   3.209   5.093 -0.1049  0.0716  0.6568
16925TIP3    H172190   5.822   3.119   5.073  0.4342  0.2751 -1.0932
16925TIP3    H272191   5.817   3.223   5.183  0.5855 -2.1559  1.3306
16926TIP3   OH272192   4.806   1.804   3.442 -0.4593  0.0369 -0.3859
16926TIP3    H172193   4.725   1.775   3.484 -0.4930 -0.3677 -0.7342
16926TIP3    H272194   4.799   1.774   3.352 -0.4604  1.0528 -0.7373
16927TIP3   OH272195   6.205   3.424   3.437  0.5741  0.5605 -0.2129
16927TIP3    H172196   6.236   3.336   3.418  1.1519  0.7958 -0.3907
16927TIP3    H272197   6.123   3.432   3.389  0.6095  0.1810 -0.3374
16928TIP3   OH272198   3.966   6.967   3.002 -0.2624  0.4683 -0.2829
16928TIP3    H172199   3.982   7.050   2.957  0.6295 -0.2415 -1.3273
16928TIP3    H272200   3.926   6.911   2.935  3.5007 -1.5005 -1.1741
16929TIP3   OH272201   0.353   5.021   1.121  0.0696 -0.0093  0.2306
16929TIP3    H172202   0.364   5.099   1.175 -2.7421 -0.7724  2.1328
16929TIP3    H272203   0.369   4.948   1.180  0.5697 -0.9105 -0.9706
16930TIP3   OH272204   3.972   3.549   4.887  0.3247 -0.0622 -0.5170
16930TIP3    H172205   3.917   3.614   4.843  0.9161  1.1653  0.4810
16930TIP3    H272206   4.051   3.544   4.833  0.7578  0.9294 -0.0136
16931TIP3   OH272207   2.703   2.700   2.822 -0.3595 -0.3246 -0.3748
16931TIP3    H172208   2.757   2.734   2.750  0.7931 -1.3613 -0.0262
16931TIP3    H272209   2.690   2.607   2.800  0.4039 -0.7790  0.9544
16932TIP3   OH272210   0.318   4.775   3.204  0.1048  0.5424  0.2090
16932TIP3    H172211   0.338   4.745   3.115 -0.0893  0.7422  0.0994
16932TIP3    H272212   0.316   4.694   3.256 -2.7981  0.0445 -0.5165
16933TIP3   OH272213   6.333   2.936   1.240 -0.6270  0.1333  0.9107
16933TIP3    H172214   6.282   2.921   1.319 -2.4490 -2.0410 -0.5431
16933TIP3    H272215   6.269   2.936   1.169  1.2248 -3.3706 -1.1033
16934TIP3   OH272216   2.183   0.524   5.499 -0.2631  0.2803 -0.7997
16934TIP3    H172217   2.099   0.479   5.491  0.3367 -0.8726 -0.8027
16934TIP3    H272218   2.213   0.536   5.409 -0.6091  1.0771 -0.8178
16935TIP3   OH272219   1.753   2.676   5.708 -0.6245 -0.0231 -0.2712
16935TIP3    H172220   1.699   2.607   5.747  0.1258 -1.3594 -1.5055
16935TIP3    H272221   1.839   2.636   5.697  0.2649  1.6148  0.3673
16936TIP3   OH272222   3.028   3.508   0.718  0.4568  0.5083 -0.2289
16936TIP3    H172223   2.976   3.565   0.776  1.0219  0.2859  0.5173
16936TIP3    H272224   2.964   3.448   0.679 -0.0096  1.0302 -0.2710
16937TIP3   OH272225   4.218   5.227   4.897 -0.1979 -0.0257 -0.1539
16937TIP3    H172226   4.230   5.296   4.833 -0.3227 -1.4172 -1.7343
16937TIP3    H272227   4.149   5.172   4.860  1.0978 -1.9651  0.1823
16938TIP3   OH272228   4.971   3.334   3.738 -0.4171 -0.2928 -0.2682
16938TIP3    H172229   4.890   3.381   3.720 -0.7608 -1.0526 -0.7208
16938TIP3    H272230   4.946   3.263   3.797  0.2591  0.6008  1.1612
16939TIP3   OH272231   1.639   4.425   1.007 -0.0887  0.6552  0.2926
16939TIP3    H172232   1.584   4.464   1.075 -1.3848  0.1835 -0.4644
16939TIP3    H272233   1.647   4.333   1.033  2.3249  1.1547  1.6562
16940TIP3   OH272234   2.818   6.343   5.425  0.0204 -0.2600  0.1314
16940TIP3    H172235   2.758   6.411   5.454  0.1196  0.0821 -0.4445
16940TIP3    H272236   2.870   6.321   5.502  1.4570  1.8284 -0.1637
16941TIP3   OH272237   6.461   4.506   3.008  0.2145 -0.4102 -0.8365
16941TIP3    H172238   6.529   4.473   3.067  0.9350  1.4999 -0.5249
16941TIP3    H272239   6.444   4.595   3.038  0.0949  0.3873 -3.0637
16942TIP3   OH272240   5.738   5.766   5.793  0.2232 -0.2521  0.5196
16942TIP3    H172241   5.699   5.829   5.853 -0.2401 -0.5748  0.5636
16942TIP3    H272242   5.721   5.802   5.706 -0.7264 -0.7007  0.5151
16943TIP3   OH272243   6.225   0.230   4.745  0.1710  0.1130 -0.1598
16943TIP3    H172244   6.213   0.303   4.684  2.1220 -0.5157 -1.3612
16943TIP3    H272245   6.232   0.273   4.831  0.0613  1.2252 -0.6847
16944TIP3   OH272246   3.731   4.675   1.991  0.2096  0.1864  0.4054
16944TIP3    H172247   3.740   4.767   2.015 -1.3326  1.0648 -2.0126
16944TIP3    H272248   3.664   4.674   1.922  0.9342 -2.6243 -0.4081
16945TIP3   OH272249   0.504   6.841   4.880  0.0217 -0.0750  0.4497
16945TIP3    H172250   0.458   6.757   4.879  0.6028 -0.3960  0.5234
16945TIP3    H272251   0.481   6.879   4.964 -1.1055  0.3299 -0.0220
16946TIP3   OH272252   7.191   2.315   0.809 -0.0940  0.6797 -0.3564
16946TIP3    H172253   7.186   2.394   0.863 -1.1957 -0.1070  0.7388
16946TIP3    H272254   7.226   2.248   0.867  0.4112  0.2412 -1.1487
16947TIP3   OH272255   1.400   0.243   4.519 -0.0984 -0.7733 -0.1617
16947TIP3    H172256   1.491   0.271   4.527  0.5031 -2.3213 -1.0911
16947TIP3    H272257   1.352   0.323   4.497  1.2773 -0.1688 -1.1352
16948TIP3   OH272258   3.645   7.127   3.949 -0.8330  0.1960 -0.3938
16948TIP3    H172259   3.559   7.088   3.936 -0.6328 -0.5063  0.3418
16948TIP3    H272260   3.640   7.169   4.035 -0.2722 -0.3129 -0.1078
16949TIP3   OH272261   6.137   3.407   3.804 -0.1520 -0.1330  0.0859
16949TIP3    H172262   6.137   3.391   3.898 -0.4337 -1.1037 -0.0625
16949TIP3    H272263   6.137   3.319   3.765  0.9927  0.2447 -0.8235
16950TIP3   OH272264   3.527   6.779   2.327 -0.8634  0.3833  0.3153
16950TIP3    H172265   3.504   6.687   2.314  0.2647 -0.0417  1.2184
16950TIP3    H272266   3.490   6.802   2.412 -0.6637  0.6060  0.3432
16951TIP3   OH272267   5.165   6.044   1.107  0.0057 -0.5328  0.2247
16951TIP3    H172268   5.151   5.971   1.167 -0.3346 -0.5730  0.1003
16951TIP3    H272269   5.090   6.041   1.047 -0.5163  0.4752  0.7974
16952TIP3   OH272270   3.881   0.198   1.257  0.5365 -0.4699  0.5333
16952TIP3    H172271   3.937   0.274   1.241 -0.1696 -0.2569 -1.1853
16952TIP3    H272272   3.932   0.124   1.224 -1.0698  0.0122 -3.5970
16953TIP3   OH272273   3.851   1.342   4.165  0.0996 -0.1704 -0.6389
16953TIP3    H172274   3.881   1.287   4.237  0.3726  1.3243  0.4439
16953TIP3    H272275   3.762   1.311   4.147 -0.5598  0.3533  1.3804
16954TIP3   OH272276   1.871   5.927   4.026 -0.3029  0.2541  0.2849
16954TIP3    H172277   1.917   5.950   4.107 -0.9603 -2.3167  1.4740
16954TIP3    H272278   1.916   5.978   3.958 -0.2865  3.1524  2.3050
16955TIP3   OH272279   4.570   6.137   4.222  0.1422 -0.1812  0.1874
16955TIP3    H172280   4.618   6.213   4.191 -0.6609  0.5152  0.6232
16955TIP3    H272281   4.478   6.165   4.224 -0.0581 -0.8461  1.2593
16956TIP3   OH272282   1.862   4.034   4.793  0.2045  0.0378 -0.1213
16956TIP3    H172283   1.783   4.010   4.842  0.7559 -3.0246 -0.5277
16956TIP3    H272284   1.850   3.992   4.708  1.1460  1.7402 -1.1438
16957TIP3   OH272285   3.505   5.133   4.423  0.2769  0.4096  0.4633
16957TIP3    H172286   3.425   5.102   4.380  1.7508 -3.0612 -0.0760
16957TIP3    H272287   3.503   5.228   4.410 -3.2790  0.3800 -0.2633
16958TIP3   OH272288   6.155   6.771   0.886 -0.5094  0.1284 -0.0952
16958TIP3    H172289   6.166   6.681   0.855 -0.8520  0.2121 -0.4735
16958TIP3    H272290   6.227   6.820   0.845  0.3630 -0.1834  1.0151
16959TIP3   OH272291   2.207   1.408   3.400  0.1611  0.0904  0.3052
16959TIP3    H172292   2.134   1.357   3.436 -0.7971  0.8919 -0.4843
16959TIP3    H272293   2.177   1.499   3.404  1.5955  0.5576  1.0802
16960TIP3   OH272294   1.101   6.225   4.323  0.1962 -0.1891  0.2176
16960TIP3    H172295   1.079   6.223   4.416 -0.0141 -0.8571  0.1639
16960TIP3    H272296   1.061   6.305   4.289  3.5808  2.2851  1.4753
16961TIP3   OH272297   0.174   3.529   2.297 -0.1992 -0.0396  0.2400
16961TIP3    H172298   0.137   3.441   2.303 -0.3330  0.1164  2.6406
16961TIP3    H272299   0.266   3.515   2.273 -0.1191 -0.8683  0.9828
16962TIP3   OH272300   1.186   3.005   5.274  0.2993  0.7034 -0.5956
16962TIP3    H172301   1.163   2.960   5.193 -1.3138  0.7174 -0.1804
16962TIP3    H272302   1.123   3.077   5.280  1.3505  1.6174 -0.0603
16963TIP3   OH272303   2.393   1.141   3.619  0.0138 -0.3516 -0.0655
16963TIP3    H172304   2.407   1.183   3.534  2.0568  2.0088  1.2826
16963TIP3    H272305   2.466   1.080   3.628 -0.5329 -1.0353 -0.2409
16964TIP3   OH272306   4.250   0.942   5.879 -0.1534  0.2509  0.2660
16964TIP3    H172307   4.318   0.995   5.837  1.3265 -0.7630  1.2505
16964TIP3    H272308   4.259   0.856   5.838 -0.3435 -0.0810  0.9097
16965TIP3   OH272309   2.090   3.772   5.412 -0.1100 -0.8800  0.1512
16965TIP3    H172310   2.044   3.856   5.419  0.0933 -0.7714  0.1761
16965TIP3    H272311   2.123   3.756   5.500 -0.8924 -1.4112  0.3552
16966TIP3   OH272312   6.096   1.129   2.458  0.5342 -0.0323 -0.0132
16966TIP3    H172313   6.024   1.117   2.520  1.9653  2.4331  2.3361
16966TIP3    H272314   6.161   1.063   2.483 -0.4757 -1.7069 -1.6001
16967TIP3   OH272315   3.437   0.182   1.536  0.1382 -0.7250 -0.1732
16967TIP3    H172316   3.459   0.173   1.629 -2.1454 -2.6603  0.2963
16967TIP3    H272317   3.495   0.120   1.491 -0.0457 -1.1942  0.2267
16968TIP3   OH272318   2.954   1.031   2.263  0.1708  0.5067 -0.1929
16968TIP3    H172319   2.879   1.084   2.235 -0.5525 -0.4275 -0.0539
16968TIP3    H272320   2.951   0.954   2.207  0.0454 -0.3165  0.9242
16969TIP3   OH272321   0.055   5.221   0.781 -0.5607  0.7066 -0.4777
16969TIP3    H172322   0.015   5.175   0.707  0.8223  0.9912 -1.4507
16969TIP3    H272323   0.069   5.154   0.847  2.3971 -0.6113 -2.2603
16970TIP3   OH272324   5.757   1.390   5.122  0.3528 -0.4049 -0.1822
16970TIP3    H172325   5.777   1.306   5.081 -0.2458 -0.2677 -0.7810
16970TIP3    H272326   5.766   1.375   5.216  1.4149 -0.8204 -0.3387
16971TIP3   OH272327   3.290   2.188   6.075 -0.1423 -0.2208  0.2681
16971TIP3    H172328   3.243   2.202   6.157 -1.8994 -1.0610 -0.5462
16971TIP3    H272329   3.227   2.211   6.007  1.7210  1.7794 -0.8908
16972TIP3   OH272330   2.632   0.587   5.846  0.1297  0.2863 -0.0875
16972TIP3    H172331   2.651   0.494   5.860 -0.9706 -0.0609 -0.7324
16972TIP3    H272332   2.545   0.587   5.805  1.1287  1.4651 -2.3657
16973TIP3   OH272333   3.237   4.053   1.141  0.3511  0.5001  0.3858
16973TIP3    H172334   3.276   4.132   1.177  1.1503  0.4788 -0.3963
16973TIP3    H272335   3.167   4.085   1.084  0.1153  0.5971  0.7247
16974TIP3   OH272336   4.565   1.758   3.917 -0.3442  0.0002  0.1288
16974TIP3    H172337   4.526   1.840   3.888 -0.3490  0.6490  1.8663
16974TIP3    H272338   4.492   1.695   3.913 -1.7587  1.2053  3.3491
16975TIP3   OH272339   5.898   4.409   0.886  0.3716  0.2903  0.0961
16975TIP3    H172340   5.878   4.347   0.955 -0.2888  0.6265  0.2058
16975TIP3    H272341   5.860   4.491   0.915  0.3436  0.5040 -0.5318
16976TIP3   OH272342   3.603   2.321   0.944  0.3319  0.0463  0.4120
16976TIP3    H172343   3.511   2.320   0.919  0.2149  0.5824  0.7813
16976TIP3    H272344   3.621   2.414   0.962  0.8438 -0.1028  0.6821
16977TIP3   OH272345   4.117   1.934   1.020 -0.2194 -0.2083  0.0990
16977TIP3    H172346   4.212   1.935   1.034 -0.0708  0.0147 -0.8106
16977TIP3    H272347   4.106   1.970   0.931 -1.0100 -1.9172 -0.5430
16978TIP3   OH272348   4.518   2.259   3.980  0.1273  0.5255  0.0162
16978TIP3    H172349   4.510   2.276   4.074  2.0773 -1.6145  0.6761
16978TIP3    H272350   4.584   2.322   3.950 -0.8849  1.5698 -0.0692
16979TIP3   OH272351   6.237   6.442   2.974 -0.0018 -0.0042  0.0424
16979TIP3    H172352   6.173   6.393   3.027  0.6512 -1.0456 -0.1009
16979TIP3    H272353   6.245   6.526   3.018 -2.0390  0.4568 -0.3604
16980TIP3   OH272354   2.794   6.064   5.655 -0.3229  0.0876 -0.3080
16980TIP3    H172355   2.720   6.094   5.603 -0.6770 -0.0591  0.1027
16980TIP3    H272356   2.853   6.139   5.659 -0.6733  0.3594 -0.2349
16981TIP3   OH272357   4.098   6.635  15.266 -0.4532  0.4294 -0.1121
16981TIP3    H172358   4.059   6.550  15.289 -0.9105  1.0298  1.4951
16981TIP3    H272359   4.160   6.614  15.196 -0.2361 -1.3230  0.5243
16982TIP3   OH272360   1.165   2.140   2.709  0.1127 -0.1607  0.1978
16982TIP3    H172361   1.104   2.214   2.719  0.1599  0.2885 -2.1602
16982TIP3    H272362   1.251   2.177   2.728  0.1217  0.4269 -0.8596
16983TIP3   OH272363   3.907   6.469  15.278 -0.1355  0.4976  0.4124
16983TIP3    H172364   3.893   6.458  15.184 -0.3881  1.6885  0.3014
16983TIP3    H272365   3.845   6.408  15.318  1.9227 -2.1780 -0.1667
16984TIP3   OH272366   7.065   4.966   4.566  0.6374 -0.3585  0.1057
16984TIP3    H172367   6.986   4.986   4.617  0.5530  1.1891 -0.5805
16984TIP3    H272368   7.035   4.964   4.475  1.0202 -1.8650 -0.0150
16985TIP3   OH272369   0.345   1.276   3.287 -0.6735  0.1503 -0.1888
16985TIP3    H172370   0.353   1.371   3.278 -0.9632  0.0579 -1.7835
16985TIP3    H272371   0.251   1.260   3.286 -0.6919 -0.0632  1.6585
16986TIP3   OH272372   3.016   4.370   4.841  0.0310  0.6558  0.0015
16986TIP3    H172373   2.953   4.380   4.913 -1.5763  1.3246 -1.4201
16986TIP3    H272374   3.071   4.448   4.847  0.7862  0.0513  1.2819
16987TIP3   OH272375   3.001   6.266   5.181 -0.1272  0.3887 -0.0521
16987TIP3    H172376   2.925   6.235   5.231 -0.7852  3.0926  0.7873
16987TIP3    H272377   2.963   6.320   5.111  0.9070 -1.3745 -2.1007
16988TIP3   OH272378   2.845   0.140   5.837  0.0673 -0.0358 -0.3721
16988TIP3    H172379   2.885   0.225   5.816 -1.9749  1.9847  2.9135
16988TIP3    H272380   2.909   0.076   5.807  2.8413  2.7264 -0.9798
16989TIP3   OH272381   3.962   6.495  14.278  0.2682 -0.1065 -0.1818
16989TIP3    H172382   4.019   6.433  14.324  0.5730 -1.1492 -1.8876
16989TIP3    H272383   4.011   6.519  14.200 -0.8580  0.4296 -0.7454
16990TIP3   OH272384   1.883   2.534   2.355  0.3541 -0.3998 -0.1119
16990TIP3    H172385   1.971   2.566   2.376 -0.7471  1.8166  1.5091
16990TIP3    H272386   1.847   2.599   2.295 -1.4849  0.9601  2.2567
16991TIP3   OH272387   4.539   4.477   1.868 -0.1589  0.0299 -0.1293
16991TIP3    H172388   4.512   4.401   1.919  0.9398 -1.1328 -1.2275
16991TIP3    H272389   4.458   4.525   1.851 -0.6610 -0.0353  1.8899
16992TIP3   OH272390   0.499   5.037   4.664 -0.3379  0.5275 -0.3549
16992TIP3    H172391   0.526   5.095   4.592  1.2126 -0.8873 -0.9880
16992TIP3    H272392   0.520   4.949   4.633  0.0800 -0.1584  1.6936
16993TIP3   OH272393   0.697   1.522   2.628 -0.1869  0.0753 -0.1451
16993TIP3    H172394   0.698   1.432   2.659 -0.4380  0.3559  0.6944
16993TIP3    H272395   0.647   1.570   2.693  0.1056  0.8627 -0.4804
16994TIP3   OH272396   6.230   6.903   4.710 -0.2405  0.1069 -0.2116
16994TIP3    H172397   6.321   6.925   4.693  0.0569  0.9082  2.0283
16994TIP3    H272398   6.187   6.988   4.722 -0.5921 -0.3063  1.7181
16995TIP3   OH272399   0.650   3.022   4.810 -0.6837 -0.1022 -0.3634
16995TIP3    H172400   0.667   3.112   4.839  0.6511 -0.4385 -0.0391
16995TIP3    H272401   0.639   2.973   4.891  0.4859 -0.5702 -0.4767
16996TIP3   OH272402   5.118   1.154   4.929  0.2779  0.8564 -0.0276
16996TIP3    H172403   5.111   1.081   4.867 -1.0887  1.0188 -0.0883
16996TIP3    H272404   5.201   1.139   4.974  0.7257  0.0781 -1.0593
16997TIP3   OH272405   3.324   3.281   5.290 -0.1045  0.5865  0.4868
16997TIP3    H172406   3.374   3.363   5.290  0.6505  0.1768 -1.0919
16997TIP3    H272407   3.350   3.238   5.372  1.0084  1.0637  0.4147
16998TIP3   OH272408   0.464   1.736   4.782  0.5727 -0.0515  0.0031
16998TIP3    H172409   0.547   1.775   4.807  0.4141 -0.0644  0.5644
16998TIP3    H272410   0.439   1.683   4.857  0.3528 -0.5319 -0.3984
16999TIP3   OH272411   7.135   1.221   5.032 -0.4313 -0.1119 -0.9688
16999TIP3    H172412   7.223   1.245   5.060 -0.3541  0.2221 -1.4991
16999TIP3    H272413   7.080   1.241   5.108 -0.1030 -0.0046 -0.7579
17000TIP3   OH272414   0.208   3.081   1.622 -0.6221  0.9690 -0.5405
17000TIP3    H172415   0.225   3.064   1.715 -1.5931  1.8968 -0.1650
17000TIP3    H272416   0.290   3.059   1.578  0.4602  2.2062  0.7586
17001TIP3   OH272417   5.032   6.155   4.764  0.3435 -0.3200  0.0629
17001TIP3    H172418   5.102   6.096   4.790 -0.1854 -1.0423 -0.1106
17001TIP3    H272419   5.042   6.165   4.670  0.8137  0.3805  0.1818
17002TIP3   OH272420   5.115   2.572   2.647  0.2954  0.1384 -0.2605
17002TIP3    H172421   5.200   2.612   2.632  0.8335 -1.0518 -0.5019
17002TIP3    H272422   5.059   2.609   2.580  0.5320  1.1766  0.1027
17003TIP3   OH272423   2.872   1.635   2.175  0.2885  0.3304 -0.2919
17003TIP3    H172424   2.888   1.725   2.203  0.3280  0.6403 -1.2771
17003TIP3    H272425   2.781   1.618   2.200 -0.2594  1.2249 -1.5296
17004TIP3   OH272426   4.780   3.423  12.780 -0.0172  0.9133  0.1914
17004TIP3    H172427   4.762   3.458  12.867 -0.0368  1.4853 -0.0389
17004TIP3    H272428   4.826   3.493  12.734  0.9775  0.2277  0.0915
17005TIP3   OH272429   1.293   4.818   2.786 -0.4041 -0.3557  0.1165
17005TIP3    H172430   1.336   4.903   2.783 -0.2678 -0.4223  0.1472
17005TIP3    H272431   1.343   4.768   2.850  0.3437 -0.8962 -0.8552
17006TIP3   OH272432   3.984   2.555   2.225  0.1149 -0.3567  0.2927
17006TIP3    H172433   3.932   2.605   2.289 -0.7666 -1.0893  0.1626
17006TIP3    H272434   3.974   2.604   2.143  1.0032  0.4189  0.6239
17007TIP3   OH272435   3.179   0.822   3.185  0.1386  0.6108 -0.2999
17007TIP3    H172436   3.243   0.771   3.234 -1.0825  1.1233  1.9642
17007TIP3    H272437   3.102   0.765   3.180 -0.7038  1.5973  0.8944
17008TIP3   OH272438   3.524   4.097   3.694 -0.7636  0.3360  0.1066
17008TIP3    H172439   3.554   4.016   3.652 -0.1203  0.0423  1.0963
17008TIP3    H272440   3.570   4.167   3.647 -0.3486  0.0399  0.0712
17009TIP3   OH272441   0.653   2.110   1.405  0.1823  0.4986 -0.1978
17009TIP3    H172442   0.606   2.116   1.322  0.9736 -2.5137 -1.0065
17009TIP3    H272443   0.736   2.155   1.390  0.3335 -0.0468 -1.1149
17010TIP3   OH272444   6.572   5.433   3.813 -0.2577  0.0196 -0.5713
17010TIP3    H172445   6.579   5.355   3.759  3.4618 -1.1941  1.2761
17010TIP3    H272446   6.541   5.401   3.898  0.6231  0.6101 -0.0051
17011TIP3   OH272447   0.909   5.372   4.135 -0.0838 -0.0762 -0.0791
17011TIP3    H172448   0.918   5.296   4.192  0.1225  2.1666  3.1932
17011TIP3    H272449   0.997   5.389   4.102 -0.1411 -1.2172 -0.8622
17012TIP3   OH272450   1.897   6.317   1.615  0.2302 -0.1230 -0.0556
17012TIP3    H172451   1.804   6.312   1.592 -0.0743  1.4298  0.7385
17012TIP3    H272452   1.902   6.386   1.681  2.0835  0.4801 -0.7650
17013TIP3   OH272453   3.666   6.130  13.654  0.5424  0.3908  0.1250
17013TIP3    H172454   3.686   6.055  13.597  0.8503 -0.3003  1.1163
17013TIP3    H272455   3.580   6.109  13.690 -0.1366  1.3401 -0.8793
17014TIP3   OH272456   6.123   0.610  14.317  0.0341 -0.2804  0.2093
17014TIP3    H172457   6.153   0.550  14.384 -1.1233 -0.3744  0.6527
17014TIP3    H272458   6.202   0.659  14.292  1.1085 -2.2950 -0.5321
17015TIP3   OH272459   0.212   3.119   4.567  0.0973  0.2449 -0.5026
17015TIP3    H172460   0.173   3.037   4.539 -2.1840  0.7852  0.8059
17015TIP3    H272461   0.260   3.151   4.491 -1.7264 -0.7046 -2.1339
17016TIP3   OH272462   1.799   3.627   2.355 -0.2058 -0.1875 -0.2274
17016TIP3    H172463   1.776   3.705   2.407  0.8862  0.7133 -1.0461
17016TIP3    H272464   1.874   3.590   2.400 -0.4624 -0.5344 -0.0799
17017TIP3   OH272465   5.628   3.473  14.620 -0.3032  0.5914  0.0255
17017TIP3    H172466   5.659   3.384  14.602  0.4494  0.7422  0.5340
17017TIP3    H272467   5.637   3.483  14.715  0.4717  1.5180 -0.1329
17018TIP3   OH272468   1.018   1.075  15.256 -0.1075  0.9673 -0.3372
17018TIP3    H172469   0.945   1.016  15.237  0.4457  0.4958 -1.0991
17018TIP3    H272470   1.096   1.022  15.241  0.4401  2.2205 -2.3338
17019TIP3   OH272471   3.852   5.770   3.395 -0.5341  0.4798  0.2540
17019TIP3    H172472   3.801   5.818   3.329  0.4220  0.2940 -0.6539
17019TIP3    H272473   3.847   5.824   3.474 -1.1526  1.0455 -0.1646
17020TIP3   OH272474   4.000   1.542   3.059 -0.5482  0.5245  0.3254
17020TIP3    H172475   4.051   1.603   3.006 -1.1513  0.5421 -0.2541
17020TIP3    H272476   4.063   1.475   3.086 -0.1074  0.8391  0.0963
17021TIP3   OH272477   1.815   1.456   3.535  0.2214 -0.5134  0.1026
17021TIP3    H172478   1.873   1.409   3.595  0.3578 -0.4999 -0.0212
17021TIP3    H272479   1.755   1.503   3.593  0.9882  0.3113  0.2512
17022TIP3   OH272480   2.338   2.570   3.526  0.0655 -0.1890  0.1795
17022TIP3    H172481   2.311   2.645   3.474  2.5119  1.9244  1.6989
17022TIP3    H272482   2.354   2.606   3.613  3.0523 -2.0491  0.5503
17023TIP3   OH272483   6.833   5.018   4.699 -0.0518 -0.0059  0.3341
17023TIP3    H172484   6.749   5.004   4.743 -0.2762 -0.6724 -0.2791
17023TIP3    H272485   6.821   5.098   4.649 -0.2694 -0.0096  0.3804
17024TIP3   OH272486   3.196   4.583   2.835  0.3960 -0.0446  0.1596
17024TIP3    H172487   3.164   4.524   2.767  0.7447  0.0174 -0.0553
17024TIP3    H272488   3.272   4.538   2.873  0.9150  0.4517 -0.2824
17025TIP3   OH272489   4.575   0.223  14.701  0.3817  0.3557 -0.6870
17025TIP3    H172490   4.545   0.149  14.649  0.4495  0.0117 -0.2383
17025TIP3    H272491   4.501   0.285  14.699  0.0606 -0.0150 -0.4994
17026TIP3   OH272492   5.248   3.379   3.848  0.1972 -0.6656  0.0786
17026TIP3    H172493   5.161   3.342   3.832  0.8668 -1.2118 -2.8704
17026TIP3    H272494   5.231   3.468   3.879 -1.3827 -1.6447  2.2897
17027TIP3   OH272495   6.377   2.190   5.278  0.4202 -0.2485  0.1732
17027TIP3    H172496   6.434   2.159   5.348  1.2740 -1.1627 -0.8910
17027TIP3    H272497   6.294   2.209   5.322  2.1714  3.6028  2.2438
17028TIP3   OH272498   1.211   4.511   5.985  0.1504 -0.4901 -0.2093
17028TIP3    H172499   1.195   4.531   5.892  0.1127 -0.1208 -0.1239
17028TIP3    H272500   1.304   4.532   5.998 -0.2820  1.2406  0.2892
17029TIP3   OH272501   4.785   4.217   3.854  0.3122  0.3872  0.5135
17029TIP3    H172502   4.742   4.167   3.923  0.3296  0.3470  0.4951
17029TIP3    H272503   4.774   4.309   3.881 -0.7742  0.4399 -0.0664
17030TIP3   OH272504   6.264   2.192   5.028  0.2337  0.2825  0.7689
17030TIP3    H172505   6.168   2.190   5.038  0.2494 -1.5911  0.8515
17030TIP3    H272506   6.296   2.180   5.117  0.5058 -1.2673  0.4839
17031TIP3   OH272507   4.409   5.886   1.830 -0.0660 -0.5741 -0.1368
17031TIP3    H172508   4.449   5.801   1.848 -2.0586 -1.0957  2.4558
17031TIP3    H272509   4.318   5.866   1.807 -0.3450  0.8282 -0.3965
17032TIP3   OH272510   2.412   1.825   3.804 -0.6733  0.1602 -0.0199
17032TIP3    H172511   2.326   1.838   3.846 -1.4420 -0.0532 -1.4715
17032TIP3    H272512   2.391   1.785   3.720  0.7939  0.9993 -0.8106
17033TIP3   OH272513   4.178   3.920   3.073  0.3236  0.0885  0.2984
17033TIP3    H172514   4.211   3.911   3.163  1.9006 -1.3904 -0.3650
17033TIP3    H272515   4.243   3.974   3.029 -0.4764  0.8567  0.0308
17034TIP3   OH272516   0.670   1.233   2.628 -0.5012 -0.2547  0.0154
17034TIP3    H172517   0.607   1.202   2.562  1.0417 -0.6829 -1.3219
17034TIP3    H272518   0.639   1.194   2.710 -0.0488 -3.4761 -1.1729
17035TIP3   OH272519   5.263   5.818   2.467 -0.5880  0.4364  0.3010
17035TIP3    H172520   5.334   5.755   2.482  0.2791  1.1883 -0.4932
17035TIP3    H272521   5.239   5.806   2.375 -0.7251  0.9388  0.2648
17036TIP3   OH272522   3.830   6.331   5.418 -0.0807 -0.7313  0.4930
17036TIP3    H172523   3.820   6.375   5.334  2.4688 -2.3480 -0.7946
17036TIP3    H272524   3.851   6.402   5.479 -1.5472  0.4247 -0.2629
17037TIP3   OH272525   3.311   1.946   2.968 -0.3121  0.4979  0.1099
17037TIP3    H172526   3.347   1.941   2.879 -0.2706  1.0688  0.0908
17037TIP3    H272527   3.296   2.040   2.982 -1.1115  0.3296  0.3874
17038TIP3   OH272528   6.585   5.703   4.696  0.1454  0.2098 -0.0676
17038TIP3    H172529   6.632   5.787   4.695  1.5737 -0.5569 -0.2589
17038TIP3    H272530   6.505   5.720   4.646  0.7009  1.3087 -0.6286
17039TIP3   OH272531   1.583   6.755   1.325  0.1148  0.2109 -0.2383
17039TIP3    H172532   1.566   6.667   1.360 -0.1354  0.5988  0.6282
17039TIP3    H272533   1.539   6.814   1.386  0.3913  0.9499 -0.7479
17040TIP3   OH272534   4.217   2.855   5.406 -0.3889 -0.0960  0.3147
17040TIP3    H172535   4.172   2.778   5.370  0.8701 -1.0489  0.6833
17040TIP3    H272536   4.167   2.930   5.374 -0.4858 -0.9836 -1.7382
17041TIP3   OH272537   6.366   4.140   4.332 -0.1504 -0.1962 -0.1832
17041TIP3    H172538   6.312   4.060   4.338 -1.1701  0.3661 -1.3430
17041TIP3    H272539   6.322   4.202   4.389 -1.4545  0.6177 -1.9783
17042TIP3   OH272540   2.566   2.174  13.373 -0.1470 -0.0170 -0.6984
17042TIP3    H172541   2.551   2.109  13.305 -1.3539  0.8296 -1.2591
17042TIP3    H272542   2.485   2.224  13.379  0.2935  0.6162  0.6304
17043TIP3   OH272543   0.620   6.426   4.765 -0.3562  0.2127  0.5022
17043TIP3    H172544   0.703   6.428   4.719 -0.0833 -0.5028  0.9517
17043TIP3    H272545   0.593   6.334   4.765 -1.7888  0.5943 -0.7502
17044TIP3   OH272546   2.373   0.604   5.722 -0.2518  0.0102  0.6045
17044TIP3    H172547   2.317   0.621   5.646  2.8874 -2.3906 -2.5823
17044TIP3    H272548   2.367   0.684   5.774 -2.0224  2.1806 -2.5670
17045TIP3   OH272549   6.992   1.186   2.847 -0.3506 -0.0534  0.3378
17045TIP3    H172550   6.959   1.171   2.936  1.9985 -0.0959  1.2871
17045TIP3    H272551   7.045   1.265   2.854  0.3285 -0.3654 -0.8941
17046TIP3   OH272552   5.972   3.239  14.893 -0.0579 -0.2725 -0.2416
17046TIP3    H172553   5.889   3.195  14.910 -0.1052 -0.2055 -0.3001
17046TIP3    H272554   6.035   3.168  14.884 -0.0680 -0.3144  0.0235
17047TIP3   OH272555   6.638   1.653  13.157 -0.1685  0.0999 -0.0414
17047TIP3    H172556   6.691   1.708  13.099  1.3506 -0.7702  0.4307
17047TIP3    H272557   6.678   1.664  13.244 -0.1611 -1.2897  0.1606
17048TIP3   OH272558   2.182   3.448   1.370 -0.4347  0.1809 -0.0492
17048TIP3    H172559   2.256   3.387   1.376 -0.2813  0.4561  1.5400
17048TIP3    H272560   2.210   3.513   1.306  1.2608  0.9170  1.3302
17049TIP3   OH272561   5.863   3.187   4.348 -0.1492  0.1984 -0.1142
17049TIP3    H172562   5.894   3.108   4.303  0.7570  0.9405 -0.8332
17049TIP3    H272563   5.943   3.239   4.362 -0.8355  1.3476 -0.3850
17050TIP3   OH272564   6.000   2.202   0.003 -0.0912  0.1404 -0.3243
17050TIP3    H172565   5.939   2.155  -0.054  1.3711  0.2819 -2.0975
17050TIP3    H272566   5.948   2.273   0.040 -1.3863 -0.6628 -0.5304
17051TIP3   OH272567   1.465   1.060   3.602 -0.4830  0.4040  0.1768
17051TIP3    H172568   1.434   0.970   3.612 -1.4592  0.8443  1.3435
17051TIP3    H272569   1.496   1.065   3.512 -1.9051 -0.6646 -0.4099
17052TIP3   OH272570   2.743   7.057   1.715 -0.3779  0.4457  0.1289
17052TIP3    H172571   2.726   7.150   1.700  1.6457  0.9578  0.6601
17052TIP3    H272572   2.827   7.056   1.760  1.3849 -1.7854 -2.8631
17053TIP3   OH272573   5.503   6.017   1.922 -0.3374 -0.7695 -0.0515
17053TIP3    H172574   5.435   6.010   1.855  0.4149  0.2237 -0.9621
17053TIP3    H272575   5.576   5.967   1.887  0.0350 -0.3002  0.0500
17054TIP3   OH272576   3.396   3.488   0.448 -0.3954  0.4513 -0.5211
17054TIP3    H172577   3.314   3.443   0.466 -1.7201  1.9853 -2.2618
17054TIP3    H272578   3.433   3.442   0.373 -1.1768  1.4596 -1.5714
17055TIP3   OH272579   6.080   4.793   3.639 -0.4226  0.3549 -0.1786
17055TIP3    H172580   5.985   4.788   3.645 -0.4860  2.2471  1.3591
17055TIP3    H272581   6.106   4.708   3.603 -2.6721 -0.1780 -0.7331
17056TIP3   OH272582   4.251   1.330   3.866  0.4116  0.0707  0.2528
17056TIP3    H172583   4.208   1.286   3.939  0.6785 -0.5350  0.0580
17056TIP3    H272584   4.275   1.259   3.807 -2.6581  0.7437 -2.0415
17057TIP3   OH272585   3.730   5.262   4.183 -0.5023 -0.1860 -0.3573
17057TIP3    H172586   3.656   5.322   4.192 -0.5941 -0.1820 -1.1321
17057TIP3    H272587   3.756   5.269   4.092  2.4859  2.1840  0.5208
17058TIP3   OH272588   3.996   2.586   3.015  0.0299  0.6935 -0.0352
17058TIP3    H172589   3.947   2.654   2.969  1.0986  1.7558  0.3444
17058TIP3    H272590   4.066   2.633   3.060  1.2386 -0.7336 -0.3357
17059TIP3   OH272591   1.845   3.266   5.179  0.3714 -0.0879 -0.8942
17059TIP3    H172592   1.829   3.281   5.086 -0.3007  0.0341 -0.7709
17059TIP3    H272593   1.816   3.347   5.221  0.5746 -0.1817 -0.5746
17060TIP3   OH272594   2.377   5.068   4.155  0.4901  0.5223 -0.0287
17060TIP3    H172595   2.453   5.027   4.115 -0.9662 -1.3250 -1.0124
17060TIP3    H272596   2.310   5.069   4.087 -0.7030  1.2266  1.0826
17061TIP3   OH272597   5.162   5.159   5.298  0.0476  0.5051  0.3621
17061TIP3    H172598   5.246   5.152   5.342 -0.1359  3.1486  1.2616
17061TIP3    H272599   5.174   5.111   5.216  1.2112 -2.3285  2.0274
17062TIP3   OH272600   6.524   4.900   5.480  0.0196  0.2664 -0.1115
17062TIP3    H172601   6.613   4.865   5.483 -0.4739 -1.0093  0.9305
17062TIP3    H272602   6.520   4.961   5.554 -0.2043 -0.3441  0.3956
17063TIP3   OH272603   6.916   0.108   4.866 -0.8663 -0.9159  0.1387
17063TIP3    H172604   6.901   0.032   4.809 -0.1613  0.1152 -1.5075
17063TIP3    H272605   6.974   0.076   4.934 -0.8520 -1.9432 -0.3371
17064TIP3   OH272606   4.278   5.527   4.430  0.3014  0.8232  0.6460
17064TIP3    H172607   4.214   5.474   4.477 -0.6387  0.5266 -0.9043
17064TIP3    H272608   4.226   5.594   4.386  1.1523  1.1050  0.0501
17065TIP3   OH272609   4.583   5.105   0.074 -0.4469 -0.6738  0.7980
17065TIP3    H172610   4.648   5.122   0.143  1.0146 -2.1603 -0.1404
17065TIP3    H272611   4.624   5.140  -0.006  0.1189 -3.3180 -0.1528
17066TIP3   OH272612   3.815   6.438   2.701 -0.2605 -0.1824 -0.4956
17066TIP3    H172613   3.883   6.487   2.654 -0.4336 -0.1206 -0.6848
17066TIP3    H272614   3.864   6.379   2.759 -0.0241  2.3852  2.1224
17067TIP3   OH272615   6.995   2.605   3.092 -0.0367 -0.0162  0.2000
17067TIP3    H172616   6.943   2.658   3.153 -0.6651 -0.6255  0.2020
17067TIP3    H272617   6.985   2.650   3.008 -0.6879 -0.2039  0.1697
17068TIP3   OH272618   6.771   5.278   3.041  0.1014  0.2849  0.8425
17068TIP3    H172619   6.815   5.330   3.108  1.4322  0.3719 -0.0599
17068TIP3    H272620   6.842   5.240   2.990 -0.8342  1.1711 -1.2568
17069TIP3   OH272621   4.088   3.983   2.325  0.4822  0.7575  0.1873
17069TIP3    H172622   4.135   3.901   2.339 -1.4403 -0.1413  2.0351
17069TIP3    H272623   4.092   3.997   2.231  1.6270 -0.9680 -0.0830
17070TIP3   OH272624   3.464   1.495   3.144 -0.0583  0.1069 -0.0431
17070TIP3    H172625   3.421   1.418   3.182 -0.1038 -0.1538 -0.6091
17070TIP3    H272626   3.527   1.523   3.211 -0.2302 -0.2628  0.2763
17071TIP3   OH272627   5.857   0.275   0.428  0.8021  0.2234 -0.6520
17071TIP3    H172628   5.887   0.288   0.339  3.0054  1.9422  0.2460
17071TIP3    H272629   5.934   0.247   0.477 -0.2773 -0.4177  0.7860
17072TIP3   OH272630   2.570   2.738   1.035  0.0012 -0.0326 -0.5428
17072TIP3    H172631   2.609   2.683   0.966 -1.0316 -0.9625 -0.4188
17072TIP3    H272632   2.475   2.732   1.019 -0.1780  0.8307  0.1524
17073TIP3   OH272633   0.675   4.923   4.979 -0.0004  0.3716 -0.7177
17073TIP3    H172634   0.583   4.910   5.003  0.0965 -0.9693 -0.9885
17073TIP3    H272635   0.702   4.839   4.942  1.8939  0.1008  1.0984
17074TIP3   OH272636   3.325   1.063   3.371  0.0128 -0.1848 -0.3160
17074TIP3    H172637   3.409   1.092   3.406 -0.2308  2.1880 -1.5230
17074TIP3    H272638   3.260   1.113   3.420 -0.7554 -1.9984  0.6051
17075TIP3   OH272639   3.711   0.566   3.351  0.3472  0.1270  0.2113
17075TIP3    H172640   3.798   0.530   3.330  0.7204  0.9049  0.3766
17075TIP3    H272641   3.653   0.529   3.285  0.2947 -2.3837  1.5343
17076TIP3   OH272642   4.894   4.457   9.637 -0.2150  0.5409 -0.4309
17076TIP3    H172643   4.914   4.520   9.707  1.7315 -0.0507 -0.3884
17076TIP3    H272644   4.961   4.473   9.571  0.3680 -1.4864 -0.3979
17077TIP3   OH272645   4.638   5.615   2.162  0.3074  0.0827 -0.2659
17077TIP3    H172646   4.639   5.705   2.194 -0.7662  0.1830 -0.4896
17077TIP3    H272647   4.631   5.562   2.242 -0.0744  0.2398 -0.1923
17078TIP3   OH272648   6.951   2.382   2.247 -0.8411  0.3394 -0.2986
17078TIP3    H172649   6.915   2.317   2.307  0.1721  0.4359  0.4403
17078TIP3    H272650   7.045   2.368   2.250 -0.7945 -0.4591 -2.8265
17079TIP3   OH272651   5.935   3.239   3.436  0.0812  0.3933 -0.2034
17079TIP3    H172652   5.889   3.287   3.505  0.0019 -0.4447  0.3382
17079TIP3    H272653   5.867   3.218   3.372  0.0476  0.6904 -0.2656
17080TIP3   OH272654   0.846   2.867  15.025  0.3650  0.3367 -0.6126
17080TIP3    H172655   0.757   2.881  15.060 -0.0585  1.7394 -2.1454
17080TIP3    H272656   0.836   2.795  14.964  0.9203 -1.4740  1.3060
17081TIP3   OH272657   2.643   6.535   2.606 -0.4603 -0.0176 -0.5979
17081TIP3    H172658   2.697   6.614   2.614  0.4583 -0.6717 -0.0892
17081TIP3    H272659   2.649   6.494   2.693 -0.4904 -0.9142 -1.0156
17082TIP3   OH272660   4.365   0.795   4.404 -0.4409 -0.2351  0.7444
17082TIP3    H172661   4.399   0.832   4.485  1.3682 -0.3583  0.0841
17082TIP3    H272662   4.279   0.760   4.427 -0.5777  1.0275  2.2492
17083TIP3   OH272663   1.862   3.921   4.509 -0.2908 -0.0338 -0.0838
17083TIP3    H172664   1.937   3.865   4.525 -0.1030  0.5816  1.3205
17083TIP3    H272665   1.897   3.995   4.460 -0.6508 -1.3560 -2.5045
17084TIP3   OH272666   4.882   5.001  13.014  0.0470 -0.7411  0.5464
17084TIP3    H172667   4.887   4.927  12.953  0.7614 -0.7192  0.5706
17084TIP3    H272668   4.919   4.968  13.096  0.7690 -0.2411  0.4319
17085TIP3   OH272669   1.812   4.308   5.177  0.5962  0.0932 -0.2260
17085TIP3    H172670   1.810   4.261   5.260 -2.0689 -2.5591 -1.5845
17085TIP3    H272671   1.721   4.329   5.158  1.2610  1.8101 -1.8856
17086TIP3   OH272672   1.769   6.187  12.658  0.2033  0.0545 -0.0240
17086TIP3    H172673   1.773   6.225  12.570 -1.1352 -0.8477 -0.5076
17086TIP3    H272674   1.802   6.098  12.647 -0.1450 -0.1224  0.3427
17087TIP3   OH272675   3.881   3.195   3.539  0.0768 -0.1191  0.1224
17087TIP3    H172676   3.861   3.288   3.528  1.5172  0.1098 -0.8044
17087TIP3    H272677   3.871   3.179   3.633 -0.1104  0.9894  0.3053
17088TIP3   OH272678   2.799   3.880  13.978 -0.0458 -0.4420  0.0350
17088TIP3    H172679   2.788   3.838  14.064  0.1771 -0.2112  0.1803
17088TIP3    H272680   2.819   3.971  13.999 -1.1407 -0.1153 -0.2881
17089TIP3   OH272681   5.886   7.097   5.370 -0.1269  0.5538 -0.3769
17089TIP3    H172682   5.863   7.029   5.433 -1.6565  1.5502  0.1932
17089TIP3    H272683   5.941   7.158   5.419  0.2479  0.3647 -0.5544
17090TIP3   OH272684   6.181   2.186   2.735 -0.0248 -0.8120 -0.0993
17090TIP3    H172685   6.092   2.210   2.762 -0.4301 -2.7118  0.4152
17090TIP3    H272686   6.237   2.220   2.805 -0.5798 -1.3179  0.6133
17091TIP3   OH272687   6.855   5.495   4.098  0.1553  0.7910 -0.4842
17091TIP3    H172688   6.949   5.481   4.103  0.3047  1.3971 -1.3314
17091TIP3    H272689   6.834   5.487   4.005 -0.3135  2.5045 -0.5614
17092TIP3   OH272690   4.281   0.557   3.070  0.0850  0.2750  0.1992
17092TIP3    H172691   4.201   0.600   3.102 -0.0480 -0.3099  0.6618
17092TIP3    H272692   4.297   0.597   2.985 -0.8138  0.2610  0.0132
17093TIP3   OH272693   6.588   0.619   3.898 -0.2583 -0.2156  0.2444
17093TIP3    H172694   6.540   0.679   3.955  0.6826 -0.0740  0.8997
17093TIP3    H272695   6.599   0.540   3.951  1.2163  0.1592  0.5299
17094TIP3   OH272696   0.138   1.899  14.927 -0.5967  0.2865  1.1369
17094TIP3    H172697   0.051   1.915  14.963 -1.8175 -2.5234 -0.3070
17094TIP3    H272698   0.150   1.805  14.932  0.9890  0.2256 -1.6512
17095TIP3   OH272699   4.165   6.771   4.516  0.6014 -0.5293 -0.1855
17095TIP3    H172700   4.145   6.707   4.584 -0.0992 -0.4660 -0.3226
17095TIP3    H272701   4.080   6.810   4.495  0.9208 -0.0461 -0.5910
17096TIP3   OH272702   1.260   3.375   3.123 -0.0897 -0.0819  0.0586
17096TIP3    H172703   1.236   3.412   3.038  0.2144  1.6427  0.6915
17096TIP3    H272704   1.202   3.300   3.133 -0.7506  0.2171 -1.2660
17097TIP3   OH272705   3.655   2.339   5.704 -0.0399  0.0701  0.0608
17097TIP3    H172706   3.737   2.384   5.724 -0.2666  0.4737  0.0956
17097TIP3    H272707   3.609   2.335   5.788 -1.6519  3.0954 -0.5427
17098TIP3   OH272708   3.069   7.202   5.532 -0.2120 -0.6616 -0.0878
17098TIP3    H172709   3.010   7.140   5.575  0.1420 -0.4910  0.6719
17098TIP3    H272710   3.016   7.281   5.520 -0.3737 -0.7787 -0.1482
17099TIP3   OH272711   1.876   1.676   3.140 -0.1907 -0.1097 -0.2082
17099TIP3    H172712   1.902   1.600   3.193  0.5689  0.0517 -0.3303
17099TIP3    H272713   1.818   1.639   3.073 -0.4349 -0.4613  0.1905
17100TIP3   OH272714   2.551   3.108  14.591  0.3288 -0.6074 -0.0050
17100TIP3    H172715   2.492   3.183  14.596 -0.3836 -1.1476 -0.1406
17100TIP3    H272716   2.589   3.100  14.678  0.9579  0.3403 -0.1807
17101TIP3   OH272717   5.180   3.763   4.968 -0.4337 -0.2480  0.0629
17101TIP3    H172718   5.092   3.754   5.005 -0.1845 -2.2232  0.2650
17101TIP3    H272719   5.228   3.813   5.034  0.1074 -3.9798  2.8349
17102TIP3   OH272720   3.163   4.117   4.033 -0.4007  0.2564 -0.0053
17102TIP3    H172721   3.157   4.212   4.043 -0.6894  0.2488 -0.1070
17102TIP3    H272722   3.184   4.104   3.940  0.5455  0.2561  0.2000
17103TIP3   OH272723   5.423   6.549   2.049 -0.2210  0.0692 -0.3732
17103TIP3    H172724   5.434   6.454   2.038  0.7772  0.1388 -0.1272
17103TIP3    H272725   5.513   6.583   2.053 -0.5693  1.0400 -0.5639
17104TIP3   OH272726   2.743   6.186   4.854 -0.2783  0.0451  0.4111
17104TIP3    H172727   2.795   6.259   4.887 -1.7399  1.1467  0.3943
17104TIP3    H272728   2.767   6.112   4.909  0.8694  0.6596  0.7575
17105TIP3   OH272729   3.392   1.757   3.201 -0.0411 -0.1375 -0.9511
17105TIP3    H172730   3.347   1.811   3.136 -2.8387 -1.3292 -0.1252
17105TIP3    H272731   3.385   1.668   3.168 -0.8762 -0.6796  0.5713
17106TIP3   OH272732   4.800   4.178   0.835  0.1188  0.4138 -0.6014
17106TIP3    H172733   4.814   4.141   0.747  0.9632  0.6127 -0.5574
17106TIP3    H272734   4.762   4.106   0.885  2.6756 -0.7885 -0.2348
17107TIP3   OH272735   4.879   1.170  13.017 -0.4564 -0.0142 -0.4661
17107TIP3    H172736   4.856   1.077  13.013 -1.1708  0.0589  1.1392
17107TIP3    H272737   4.816   1.207  13.080  0.7479  1.2635  0.0263
17108TIP3   OH272738   3.608   0.332  14.906  0.2308  0.6986 -0.0382
17108TIP3    H172739   3.600   0.238  14.921  0.3760  0.8512  1.1273
17108TIP3    H272740   3.520   0.361  14.884 -0.0953  0.4918  0.9290
17109TIP3   OH272741   3.848   0.624   4.304 -0.0054  0.1128  0.2371
17109TIP3    H172742   3.835   0.571   4.225  0.3714  2.5371 -1.6052
17109TIP3    H272743   3.798   0.579   4.372 -2.0813 -1.0546 -1.8915
17110TIP3   OH272744   5.176   5.476  15.012 -0.1890  0.3370  0.3317
17110TIP3    H172745   5.173   5.569  14.989 -1.3939  0.3884  0.6440
17110TIP3    H272746   5.149   5.431  14.933 -1.7539  0.3796  0.8178
17111TIP3   OH272747   2.703   1.671  15.043 -0.2238 -0.0047  0.0593
17111TIP3    H172748   2.650   1.629  15.111  1.0556 -2.7712 -0.4782
17111TIP3    H272749   2.639   1.700  14.977 -1.2371 -1.2355  0.4497
17112TIP3   OH272750   3.865   5.442   3.058  0.3221  0.0714  0.3179
17112TIP3    H172751   3.830   5.428   2.970  0.9994  0.4726 -0.0218
17112TIP3    H272752   3.898   5.532   3.056  1.1753 -0.2306  0.7022
17113TIP3   OH272753   2.046   0.647   1.438  0.7208  0.0489 -0.4233
17113TIP3    H172754   2.062   0.564   1.482  1.7111  0.4274 -0.0323
17113TIP3    H272755   1.966   0.681   1.478 -0.6169 -1.4318 -1.7015
17114TIP3   OH272756   5.960   2.681  14.173  0.1923 -0.0728 -0.1271
17114TIP3    H172757   5.996   2.670  14.085  2.2572 -0.9132  0.7338
17114TIP3    H272758   6.014   2.750  14.212 -0.7887  0.3929  0.4313
17115TIP3   OH272759   0.303   5.791   3.632  0.0467 -0.5965 -0.3070
17115TIP3    H172760   0.239   5.725   3.658  2.4490 -2.3454  1.6766
17115TIP3    H272761   0.361   5.799   3.708  1.3504  1.9442 -1.4603
17116TIP3   OH272762   5.343   6.206   1.694 -0.6144 -0.3921 -0.1004
17116TIP3    H172763   5.249   6.203   1.710 -0.5719 -0.8782  0.0872
17116TIP3    H272764   5.351   6.230   1.601 -0.9279 -0.5669 -0.1737
17117TIP3   OH272765   5.978   3.368   4.097  0.2241  0.6663 -0.0045
17117TIP3    H172766   6.070   3.387   4.078 -0.2847  3.0870 -0.2948
17117TIP3    H272767   5.961   3.412   4.180 -0.9223  1.0901 -0.4483
17118TIP3   OH272768   0.392   3.143   4.801  0.1095 -0.2527 -0.2596
17118TIP3    H172769   0.322   3.160   4.738 -1.6300 -2.8632  0.7625
17118TIP3    H272770   0.464   3.109   4.749 -0.5670 -0.4963 -1.0643
17119TIP3   OH272771   6.223   0.492   1.537 -0.4195  0.2227 -0.5332
17119TIP3    H172772   6.311   0.497   1.574 -1.4308  0.2322  2.0430
17119TIP3    H272773   6.230   0.425   1.469  1.2901 -0.7056  0.4803
17120TIP3   OH272774   5.623   2.687   4.612 -0.2108  0.3511 -0.4948
17120TIP3    H172775   5.677   2.756   4.651 -0.4273 -0.5362  1.5329
17120TIP3    H272776   5.542   2.731   4.586  0.0262  1.0423 -0.0854
17121TIP3   OH272777   4.935   5.700   3.142  0.1201 -0.3781 -0.2611
17121TIP3    H172778   4.998   5.690   3.070  0.2028 -3.3605  0.0878
17121TIP3    H272779   4.983   5.673   3.220 -0.9813 -0.6882  0.3333
17122TIP3   OH272780   4.899   5.554   2.068 -0.0315  0.4346 -1.1380
17122TIP3    H172781   4.945   5.494   2.126  1.5679  1.4749 -1.2625
17122TIP3    H272782   4.816   5.572   2.113  0.3866 -0.1970 -0.0867
17123TIP3   OH272783   3.564   4.268   0.565 -0.1243 -0.3827  0.0833
17123TIP3    H172784   3.530   4.220   0.641 -0.0830  0.4922  0.6701
17123TIP3    H272785   3.494   4.260   0.500 -0.9415  0.3218  0.8342
17124TIP3   OH272786   6.704   1.108   5.835 -0.0439  0.2133  0.3102
17124TIP3    H172787   6.769   1.069   5.893 -0.3030 -2.3954 -1.0248
17124TIP3    H272788   6.739   1.095   5.747 -0.8357  1.8157 -0.2759
17125TIP3   OH272789   0.334   0.602   3.788  0.2218  0.2078 -0.1204
17125TIP3    H172790   0.398   0.543   3.747 -1.6926 -1.1558 -1.3216
17125TIP3    H272791   0.356   0.689   3.754  2.2858  0.0450  0.6402
17126TIP3   OH272792   0.256   6.372   1.445 -0.2072  0.0147  0.3060
17126TIP3    H172793   0.176   6.393   1.494 -2.0418  2.2144 -3.1865
17126TIP3    H272794   0.301   6.456   1.436 -0.5062 -0.0241 -2.4662
17127TIP3   OH272795   0.950   1.462   4.369  0.3009  0.1785 -0.0594
17127TIP3    H172796   0.903   1.524   4.314  0.7069 -0.7699 -1.5413
17127TIP3    H272797   0.930   1.489   4.459 -1.4764  0.9459 -0.6518
17128TIP3   OH272798   0.180   0.505  13.683 -0.3309 -0.4561 -0.5666
17128TIP3    H172799   0.134   0.570  13.630  0.9672  1.3704  0.4250
17128TIP3    H272800   0.153   0.523  13.773  0.1772 -1.1927 -0.2555
17129TIP3   OH272801   5.430   1.115   1.013 -0.6536  0.8358 -0.0979
17129TIP3    H172802   5.408   1.122   1.106  0.3522  1.0958  0.1280
17129TIP3    H272803   5.395   1.030   0.986 -0.2978  0.4335  0.6954
17130TIP3   OH272804   0.034   7.000   3.443  0.5861  0.1557 -0.0550
17130TIP3    H172805   0.111   6.944   3.451  0.1803 -0.5777 -1.1668
17130TIP3    H272806  -0.008   6.995   3.529  0.3506 -1.5533 -0.2516
17131TIP3   OH272807   5.994   0.456   5.453 -0.2268 -0.3125 -0.4935
17131TIP3    H172808   6.044   0.535   5.472 -1.0942  0.0895  0.2011
17131TIP3    H272809   6.008   0.401   5.530 -2.8406  0.8491  0.9238
17132TIP3   OH272810   4.442   1.910   4.432  0.1065 -0.3764  0.3219
17132TIP3    H172811   4.357   1.943   4.463  0.5082  1.5857 -0.5211
17132TIP3    H272812   4.419   1.839   4.372 -0.9794  0.4275 -0.2457
17133TIP3   OH272813   5.578   6.839   5.401 -0.8043 -0.5669  0.0477
17133TIP3    H172814   5.667   6.833   5.435 -0.2833 -0.6433 -1.2679
17133TIP3    H272815   5.524   6.799   5.469  0.1660 -0.5787  0.8391
17134TIP3   OH272816   2.105   4.124   3.520  0.2212  0.1673  0.1056
17134TIP3    H172817   2.037   4.190   3.529 -0.1843  0.0966 -1.9725
17134TIP3    H272818   2.151   4.125   3.604 -0.9793  1.7166  0.7875
17135TIP3   OH272819   5.280   3.852   4.738  0.6196  0.2772 -0.8240
17135TIP3    H172820   5.310   3.940   4.761  1.3187 -0.2482  0.3466
17135TIP3    H272821   5.225   3.826   4.812 -0.2226  0.0224 -1.5279
17136TIP3   OH272822   2.525   0.967   5.380 -0.6494  0.2332 -0.3598
17136TIP3    H172823   2.580   1.026   5.328  1.7142 -0.9068  0.7095
17136TIP3    H272824   2.541   0.994   5.470  1.4653 -2.7174  0.2646
17137TIP3   OH272825   2.453   4.243   5.853  0.6616 -0.1350 -0.0566
17137TIP3    H172826   2.505   4.179   5.804  1.1936  0.3206 -0.0942
17137TIP3    H272827   2.389   4.190   5.901  1.0628 -0.6888 -0.1240
17138TIP3   OH272828   6.690   5.468   0.174  0.1486 -0.5147  0.6634
17138TIP3    H172829   6.752   5.415   0.223 -2.1047 -3.1050  0.9212
17138TIP3    H272830   6.627   5.498   0.239 -0.0347  0.3536  0.1038
17139TIP3   OH272831   6.168   1.831   0.419 -0.3219  0.0584 -0.5737
17139TIP3    H172832   6.252   1.787   0.431  0.7746  2.2310  0.2762
17139TIP3    H272833   6.136   1.846   0.508  0.1086  2.2660 -0.7450
17140TIP3   OH272834   1.599   6.292   0.456  0.5146  0.0672 -0.0848
17140TIP3    H172835   1.532   6.285   0.525 -1.2067  0.6717 -1.6109
17140TIP3    H272836   1.577   6.372   0.409  1.7240 -0.2451 -1.2526
17141TIP3   OH272837   6.595   5.883   2.202  0.1895 -0.0244  0.4003
17141TIP3    H172838   6.631   5.794   2.195  0.7747  0.1852  0.7029
17141TIP3    H272839   6.504   5.874   2.172  0.3073 -0.6805  0.2137
17142TIP3   OH272840   6.742   3.126   4.729  0.5261  0.0621  0.4417
17142TIP3    H172841   6.733   3.089   4.641 -0.7916  1.9191 -0.2594
17142TIP3    H272842   6.690   3.067   4.785  0.9328 -0.8233 -0.0890
17143TIP3   OH272843   6.811   3.365   5.144 -0.6920  0.3988 -0.3149
17143TIP3    H172844   6.864   3.393   5.069 -1.4923 -0.3422 -1.1703
17143TIP3    H272845   6.728   3.411   5.134  0.1456  2.6024  1.7455
17144TIP3   OH272846   0.964   1.348   5.714 -0.4741 -0.3035  0.5626
17144TIP3    H172847   0.927   1.432   5.740 -1.6446 -0.7371  0.3614
17144TIP3    H272848   0.931   1.333   5.626 -0.5407 -1.1110  0.7108
17145TIP3   OH272849   5.285   0.609   5.438  0.3103 -0.3447  0.6461
17145TIP3    H172850   5.260   0.541   5.500 -1.3220 -0.7949 -0.4264
17145TIP3    H272851   5.257   0.691   5.480 -1.8855 -0.7329  0.0902
17146TIP3   OH272852   2.795   3.210  15.119  0.2675  0.2154 -0.4320
17146TIP3    H172853   2.880   3.205  15.077 -0.2985 -1.6890 -1.4579
17146TIP3    H272854   2.813   3.193  15.212  0.9770 -0.3330 -0.6642
17147TIP3   OH272855   4.786   7.000   5.133 -0.0986 -0.2123 -0.4690
17147TIP3    H172856   4.764   6.994   5.226 -1.6129 -1.2971 -0.8477
17147TIP3    H272857   4.877   6.971   5.128  0.4906  1.3146  0.8281
17148TIP3   OH272858   3.548   1.575   1.291  0.5565  0.3266 -0.3630
17148TIP3    H172859   3.634   1.612   1.313  0.4968 -0.2483  0.9280
17148TIP3    H272860   3.503   1.645   1.243  0.7411  1.6426  1.3122
17149TIP3   OH272861   6.918   0.475   4.043  0.2769  0.4191 -0.0336
17149TIP3    H172862   6.903   0.484   3.949  1.0315 -0.5762 -0.2605
17149TIP3    H272863   6.981   0.403   4.051 -1.8817 -1.4206  1.3943
17150TIP3   OH272864   4.688   4.654   4.563  0.2256  0.2208 -0.2794
17150TIP3    H172865   4.718   4.563   4.563  0.6841  0.3726 -0.7089
17150TIP3    H272866   4.646   4.665   4.478 -0.7224  0.1278  0.1531
17151TIP3   OH272867   1.778   0.282   2.708 -0.7506  0.0218 -0.4333
17151TIP3    H172868   1.871   0.305   2.699 -0.9760  0.5903 -1.4206
17151TIP3    H272869   1.752   0.323   2.791  0.0325 -0.6972  0.1868
17152TIP3   OH272870   6.615   0.693   5.020  0.9121  0.5654 -0.2465
17152TIP3    H172871   6.649   0.732   4.940  0.6610 -0.3912 -0.8374
17152TIP3    H272872   6.530   0.735   5.033  0.4581 -0.0665 -1.1027
17153TIP3   OH272873   6.126   6.521   0.414 -0.2605  1.0800  0.7081
17153TIP3    H172874   6.062   6.560   0.472 -0.5726  0.0771  1.0589
17153TIP3    H272875   6.076   6.494   0.337 -0.0432  1.3980  0.4526
17154TIP3   OH272876   6.231   5.016   4.909 -0.0467  0.1124 -0.1660
17154TIP3    H172877   6.275   5.044   4.989  2.5417  0.1326 -1.5070
17154TIP3    H272878   6.219   4.922   4.919  0.6290  0.0512  0.0864
17155TIP3   OH272879   2.424   0.743   4.329 -0.2375 -0.2065 -0.5736
17155TIP3    H172880   2.370   0.732   4.251  0.2781 -0.8641 -0.8465
17155TIP3    H272881   2.455   0.655   4.349  1.2571  0.2430 -0.8128
17156TIP3   OH272882   3.231   5.838   4.938 -0.4249  0.2321  0.1837
17156TIP3    H172883   3.173   5.914   4.949  0.5266  0.9879  0.1985
17156TIP3    H272884   3.258   5.816   5.027  0.4799  0.8485  0.0766
17157TIP3   OH272885   4.401   7.183   0.627 -0.5606  0.2588 -0.2486
17157TIP3    H172886   4.322   7.235   0.608 -0.2758  1.0099  0.5568
17157TIP3    H272887   4.473   7.244   0.609 -0.1269 -0.5887 -1.5041
17158TIP3   OH272888   0.568   3.567   4.851  0.0236  0.3495  0.0442
17158TIP3    H172889   0.596   3.523   4.770  0.7232  1.4973 -0.3699
17158TIP3    H272890   0.641   3.554   4.911 -0.6039 -0.7242  0.6131
17159TIP3   OH272891   2.967   2.434   4.504 -0.0412 -0.2102 -0.4752
17159TIP3    H172892   2.940   2.368   4.440  0.6784  0.5538 -1.6076
17159TIP3    H272893   2.888   2.484   4.523  0.1220  0.9422 -2.4807
17160TIP3   OH272894   7.078   7.110  14.903  0.0718  0.1819 -0.1686
17160TIP3    H172895   7.147   7.060  14.859  0.0382  0.6981 -0.8214
17160TIP3    H272896   7.115   7.196  14.918 -0.9542  1.0255 -2.0675
17161TIP3   OH272897   0.020   4.647   3.873 -0.2834 -0.1337 -0.2394
17161TIP3    H172898   0.096   4.630   3.818  0.7660  1.6318  0.5648
17161TIP3    H272899   0.056   4.691   3.950 -2.1088  0.6616  0.2052
17162TIP3   OH272900   3.326   6.839   2.828  0.3056  0.4755 -0.5974
17162TIP3    H172901   3.293   6.819   2.916 -1.5130  2.3492 -0.7900
17162TIP3    H272902   3.341   6.934   2.829  1.8538  0.2818 -1.8340
17163TIP3   OH272903   6.897   4.328   4.460  0.4151  0.8902 -0.0200
17163TIP3    H172904   6.958   4.282   4.403 -0.2798 -1.6411  1.1552
17163TIP3    H272905   6.954   4.372   4.524  1.1168  2.3573 -1.5659
17164TIP3   OH272906   4.598   0.341   5.751 -0.2717  0.0334 -0.5460
17164TIP3    H172907   4.509   0.367   5.727 -0.6902 -2.2926 -1.7832
17164TIP3    H272908   4.652   0.368   5.677 -0.0721  0.5821 -0.2127
17165TIP3   OH272909   5.228   5.906   5.425 -0.1367 -0.4231 -0.4457
17165TIP3    H172910   5.191   5.979   5.474 -0.7451 -2.0193  1.6188
17165TIP3    H272911   5.321   5.927   5.415  0.0099 -0.0098  1.4325
17166TIP3   OH272912   3.880   4.289   0.675  0.3412 -0.5914  0.1333
17166TIP3    H172913   3.841   4.295   0.588 -1.3951 -2.3896  0.7195
17166TIP3    H272914   3.898   4.196   0.686  2.9917 -0.0941  0.7351
17167TIP3   OH272915   2.735   5.656  14.960 -0.1037  0.0036  0.0640
17167TIP3    H172916   2.793   5.727  14.933  2.1719 -0.9836  1.9973
17167TIP3    H272917   2.710   5.680  15.050  0.0324 -1.2239  0.4385
17168TIP3   OH272918   3.143   6.411   2.930  0.3097 -0.4771  0.1335
17168TIP3    H172919   3.103   6.497   2.916  1.3879 -0.0832 -0.7354
17168TIP3    H272920   3.237   6.429   2.933  0.5833 -1.6910 -0.5856
17169TIP3   OH272921   5.841   0.166   2.306  0.0226 -0.0029 -0.3215
17169TIP3    H172922   5.848   0.071   2.311 -0.2079 -0.0465 -0.8267
17169TIP3    H272923   5.822   0.193   2.396  0.4207 -0.4022 -0.1127
17170TIP3   OH272924   3.260   4.714   4.028  0.4418 -0.2069 -0.2534
17170TIP3    H172925   3.181   4.682   3.985  0.0365 -0.3030  0.5356
17170TIP3    H272926   3.249   4.687   4.119  2.3672 -2.1150 -0.5096
17171TIP3   OH272927   4.371   4.896   4.951  0.5085  0.0580  0.2947
17171TIP3    H172928   4.379   4.983   4.990  0.4792  0.3872 -0.4350
17171TIP3    H272929   4.347   4.839   5.025  0.3314  0.6970  0.7343
17172TIP3   OH272930   3.795   2.991   0.716 -0.0228 -0.3493  0.0942
17172TIP3    H172931   3.726   3.002   0.781  0.6172 -1.9325  1.1005
17172TIP3    H272932   3.873   2.969   0.768  1.3595  1.6915 -0.9718
17173TIP3   OH272933   3.551   5.015  13.784  0.2029  0.1301  0.0827
17173TIP3    H172934   3.459   4.996  13.762 -0.4261  1.2251  1.5693
17173TIP3    H272935   3.576   4.943  13.842  0.6667 -0.7620 -1.1862
17174TIP3   OH272936   5.338   1.875   5.715 -0.1944 -0.1549 -0.2630
17174TIP3    H172937   5.342   1.882   5.619  0.1823 -0.7096 -0.2924
17174TIP3    H272938   5.262   1.927   5.740  0.6976  1.4153 -0.7204
17175TIP3   OH272939   0.145   4.664   3.496  0.3454  0.1188 -0.1696
17175TIP3    H172940   0.174   4.616   3.574 -0.4707 -1.0795 -0.5710
17175TIP3    H272941   0.193   4.623   3.424  1.1018  1.2242 -0.3197
17176TIP3   OH272942   5.693   1.746   4.238 -0.7195  0.5664 -0.2463
17176TIP3    H172943   5.603   1.722   4.258 -0.4160 -0.4389 -0.0012
17176TIP3    H272944   5.709   1.827   4.287 -1.3404  0.4946  0.0750
17177TIP3   OH272945   5.082   2.450   5.159 -0.4012 -0.4201  0.2784
17177TIP3    H172946   5.177   2.441   5.167 -0.5162 -1.9599  0.2632
17177TIP3    H272947   5.053   2.472   5.248  0.0774  1.6206 -0.0192
17178TIP3   OH272948   5.439   1.958   3.151 -0.4088 -0.2999 -0.0205
17178TIP3    H172949   5.447   2.046   3.189 -1.8749  0.2555 -0.9069
17178TIP3    H272950   5.529   1.928   3.142  0.0685 -0.0462  2.8525
17179TIP3   OH272951   1.348   4.385   4.698  0.2209 -0.3064  1.2565
17179TIP3    H172952   1.431   4.369   4.744  0.0404 -0.5301  1.5023
17179TIP3    H272953   1.280   4.372   4.764 -0.0746 -1.2032  0.8063
17180TIP3   OH272954   2.840   2.046   5.077 -0.3721  0.3991  0.0095
17180TIP3    H172955   2.843   2.113   5.009 -0.2814  1.8270  1.3648
17180TIP3    H272956   2.747   2.040   5.100 -0.6035 -1.0654 -1.1173
17181TIP3   OH272957   1.990   5.534   2.956  0.1248  0.2580 -0.2710
17181TIP3    H172958   2.080   5.553   2.982 -0.3516  0.6227  1.2038
17181TIP3    H272959   1.952   5.620   2.939 -1.0220  0.5338  2.9775
17182TIP3   OH272960   4.173   2.384   2.898  0.1100 -0.1720 -0.2921
17182TIP3    H172961   4.230   2.459   2.915  0.8248 -0.6979 -0.3228
17182TIP3    H272962   4.101   2.394   2.959  1.9292 -1.2934  2.2122
17183TIP3   OH272963   3.517   3.739   0.487  0.2423  0.1440  0.7775
17183TIP3    H172964   3.447   3.675   0.476 -1.1829  1.6368  0.7221
17183TIP3    H272965   3.587   3.709   0.429 -0.6830 -0.9435  0.1882
17184TIP3   OH272966   1.173   1.605   4.267  0.4325  0.1296 -0.0122
17184TIP3    H172967   1.132   1.528   4.307  3.9978 -0.6193  2.6855
17184TIP3    H272968   1.137   1.679   4.314  2.0890 -0.5313  2.5149
17185TIP3   OH272969   2.233   2.590   3.240 -0.1199 -0.3279 -0.5669
17185TIP3    H172970   2.159   2.602   3.299  0.2299 -1.0733  0.0320
17185TIP3    H272971   2.205   2.630   3.158 -0.0091  2.2238  0.5448
17186TIP3   OH272972   3.621   5.490   5.021  0.1420  0.0581 -0.4053
17186TIP3    H172973   3.546   5.498   5.080  0.2059  3.0075 -0.5543
17186TIP3    H272974   3.686   5.441   5.071 -0.0751  1.8419  1.7682
17187TIP3   OH272975   2.494   6.987   4.134 -0.2103  0.3202  0.0137
17187TIP3    H172976   2.399   6.983   4.122 -0.2793  1.4526  0.1405
17187TIP3    H272977   2.515   6.905   4.179 -0.9521 -0.5156 -1.0757
17188TIP3   OH272978   5.411   6.185   4.704 -0.6322 -0.1133 -0.9648
17188TIP3    H172979   5.385   6.093   4.704 -3.1331  0.5194 -1.8292
17188TIP3    H272980   5.472   6.193   4.631 -0.2119 -1.0953 -0.7404
17189TIP3   OH272981   2.972   0.861   2.053 -0.0682 -0.5449  0.3728
17189TIP3    H172982   3.040   0.888   1.991 -1.1472  2.5630  0.3890
17189TIP3    H272983   2.944   0.775   2.022  0.8011  0.0335 -2.2469
17190TIP3   OH272984   0.360   6.421   2.074  0.4864  0.3657 -0.1057
17190TIP3    H172985   0.321   6.503   2.045 -1.9476 -0.9204 -0.7742
17190TIP3    H272986   0.412   6.391   2.000 -0.9706 -0.0571 -0.9942
17191TIP3   OH272987   5.282   7.033   3.562  0.0836 -0.2420  0.2991
17191TIP3    H172988   5.237   7.115   3.580 -0.0573  0.2696 -2.1091
17191TIP3    H272989   5.347   7.026   3.631  1.3586  2.8600 -0.4374
17192TIP3   OH272990   0.491   3.043   5.109 -0.3248 -0.4082  0.0075
17192TIP3    H172991   0.558   2.977   5.090 -0.2234 -0.3953  0.3037
17192TIP3    H272992   0.419   2.993   5.147 -1.0134 -0.5961 -1.4826
17193TIP3   OH272993   4.785   1.902   2.307 -0.2016  0.9650 -0.3659
17193TIP3    H172994   4.788   1.944   2.392  0.9147  0.9264 -0.3660
17193TIP3    H272995   4.706   1.936   2.265 -0.6941  1.0704  0.6330
17194TIP3   OH272996   5.841   0.349   4.668 -0.2333  0.9629 -0.3142
17194TIP3    H172997   5.785   0.272   4.671 -0.1316  0.9056  0.3740
17194TIP3    H272998   5.894   0.338   4.590 -0.0419  0.2042 -0.0821
17195TIP3   OH272999   0.671   5.512   4.673  0.1096 -0.0161  0.2493
17195TIP3    H173000   0.644   5.432   4.719  0.3518 -1.0471 -1.3373
17195TIP3    H273001   0.599   5.573   4.688  0.3468 -0.1555  2.2991
17196TIP3   OH273002   3.323   2.536   1.720  0.8197 -0.1601 -0.7831
17196TIP3    H173003   3.352   2.587   1.644  0.4009 -0.7012 -1.3174
17196TIP3    H273004   3.281   2.601   1.777  0.9065  0.2123 -1.1363
17197TIP3   OH273005   1.021   6.309   2.907  0.5378 -0.1205 -0.4727
17197TIP3    H173006   0.955   6.243   2.886  0.9328 -1.1958  1.4505
17197TIP3    H273007   1.020   6.315   3.003  0.1899  3.0604 -0.5616
17198TIP3   OH273008   0.817   3.504   5.010  0.0803  0.3107 -0.1889
17198TIP3    H173009   0.893   3.562   5.018  0.4626 -0.2735  0.6002
17198TIP3    H273010   0.817   3.454   5.092 -0.8353 -0.0848 -0.4219
17199TIP3   OH273011   5.086   2.046   5.687 -0.1916  0.0930  0.5000
17199TIP3    H173012   5.002   2.034   5.731 -0.6104 -0.4703 -0.4097
17199TIP3    H273013   5.063   2.074   5.598  0.5481 -0.7489  0.0224
17200TIP3   OH273014   4.839   6.579   4.752  0.0503  0.0908 -0.2131
17200TIP3    H173015   4.749   6.547   4.742 -0.1160  0.6572 -0.6533
17200TIP3    H273016   4.843   6.611   4.842 -0.4832  0.8950 -0.4577
17201TIP3   OH273017   5.891   4.980  14.755 -0.5942  0.1704 -0.3171
17201TIP3    H173018   5.894   4.988  14.660 -1.0465 -2.5645 -0.6218
17201TIP3    H273019   5.828   5.047  14.783  1.1015  2.4666 -1.6568
17202TIP3   OH273020   4.670   1.751   4.218  0.3108  0.8907  0.1014
17202TIP3    H173021   4.687   1.774   4.127 -0.8500 -0.1740 -0.4235
17202TIP3    H273022   4.578   1.723   4.219  0.2438  1.0442  1.6380
17203TIP3   OH273023   5.907   5.371  14.686 -0.0731 -0.4815  0.2197
17203TIP3    H173024   5.962   5.403  14.757  1.7847 -2.9519  0.0225
17203TIP3    H273025   5.853   5.303  14.725 -1.0914  0.0803 -0.1733
17204TIP3   OH273026   3.361   6.097  13.085 -0.1545 -0.0844  0.3593
17204TIP3    H173027   3.293   6.029  13.090 -1.2300  0.9430  0.1920
17204TIP3    H273028   3.325   6.170  13.135  0.2354  0.9838 -0.8747
17205TIP3   OH273029   3.550   0.213   2.050 -0.5435 -0.0013  0.1650
17205TIP3    H173030   3.502   0.180   2.125 -1.6496 -0.3690 -0.6876
17205TIP3    H273031   3.635   0.239   2.086 -0.9434 -0.4365  1.4792
17206TIP3   OH273032   1.727   0.317   0.914  0.5196  0.3886  0.9318
17206TIP3    H173033   1.637   0.324   0.881 -0.5988  1.1221  3.8161
17206TIP3    H273034   1.749   0.224   0.905 -0.9725 -0.0121  1.1906
17207TIP3   OH273035   1.142   4.834   3.995  0.3350 -0.3382 -0.1362
17207TIP3    H173036   1.054   4.822   3.960  0.8171 -1.7630 -0.9464
17207TIP3    H273037   1.137   4.800   4.085  0.3239 -1.4865 -0.5624
17208TIP3   OH273038   1.592   6.831   5.248 -0.0306 -0.2588 -0.0162
17208TIP3    H173039   1.578   6.748   5.294  1.6465 -0.2652  0.5551
17208TIP3    H273040   1.631   6.889   5.313 -2.4741  1.5212  0.0161
17209TIP3   OH273041   4.530   4.858  14.621  1.4257  0.0577 -0.3540
17209TIP3    H173042   4.470   4.808  14.567  1.5077  0.1796 -0.5608
17209TIP3    H273043   4.614   4.854  14.575  1.2574  1.0070 -0.7681
17210TIP3   OH273044   6.785   0.268   1.914  0.1202  0.4496  0.5368
17210TIP3    H173045   6.733   0.340   1.879  0.2730  0.2852 -0.0459
17210TIP3    H273046   6.736   0.236   1.989 -1.7633 -1.1243 -1.2516
17211TIP3   OH273047   2.267   6.498   0.749  0.3583 -0.5831  0.7919
17211TIP3    H173048   2.235   6.409   0.763  0.8850 -0.9272 -0.1150
17211TIP3    H273049   2.192   6.547   0.716  0.5052 -1.1506 -0.4288
17212TIP3   OH273050   3.649   1.959   3.568 -0.1939  0.3161 -0.2950
17212TIP3    H173051   3.569   1.910   3.584 -0.8917  1.5511  0.1635
17212TIP3    H273052   3.619   2.040   3.526  1.0821 -0.4534 -2.8966
17213TIP3   OH273053   3.522   2.038   5.088 -0.3606  0.4963 -0.0113
17213TIP3    H173054   3.547   1.962   5.140 -1.1084  0.5672  0.4730
17213TIP3    H273055   3.590   2.045   5.021  0.5065  0.2723  0.8237
17214TIP3   OH273056   2.012   5.184   4.942 -0.3786 -0.0510  0.3528
17214TIP3    H173057   2.013   5.132   4.861  0.5473 -0.6417  0.7289
17214TIP3    H273058   1.932   5.236   4.936 -0.8518 -0.8462 -0.4655
17215TIP3   OH273059   2.160   3.563   3.722 -0.0664  0.1307  0.3689
17215TIP3    H173060   2.174   3.544   3.630  0.3571  1.4130  0.1421
17215TIP3    H273061   2.124   3.652   3.723 -1.7184 -0.5003  1.3521
17216TIP3   OH273062   1.095   2.867  12.425 -0.1017  0.1551 -0.0579
17216TIP3    H173063   1.006   2.900  12.429  0.1203  1.0504 -1.5562
17216TIP3    H273064   1.095   2.791  12.482 -1.7706  0.2582  0.1310
17217TIP3   OH273065   4.546   7.022   1.535 -0.2961 -0.1042  0.1776
17217TIP3    H173066   4.518   7.050   1.447  0.3607  0.8988  0.2757
17217TIP3    H273067   4.625   7.073   1.552  0.3906 -1.3372  0.7774
17218TIP3   OH273068   4.768   7.003   3.336  0.1035  0.2221 -0.4300
17218TIP3    H173069   4.727   6.917   3.334 -0.4066  0.2814  2.3962
17218TIP3    H273070   4.730   7.050   3.262 -0.5774 -1.5584 -1.2476
17219TIP3   OH273071   1.408   5.246   4.289 -0.1400  0.2879  0.3843
17219TIP3    H173072   1.441   5.299   4.216  0.2256  0.5654  0.7438
17219TIP3    H273073   1.402   5.308   4.362 -1.1048  0.1552  0.4272
17220TIP3   OH273074   1.953   4.338   3.917 -0.1768  0.2725  0.9068
17220TIP3    H173075   1.990   4.415   3.874 -1.0950 -0.0597 -0.5459
17220TIP3    H273076   1.887   4.373   3.977 -2.3103  0.5836 -1.4711
17221TIP3   OH273077   4.382   4.700   5.145  0.0548 -0.3832 -0.0647
17221TIP3    H173078   4.389   4.613   5.105 -0.8518 -1.0594  1.1739
17221TIP3    H273079   4.402   4.685   5.237  0.2331  0.7971  0.0993
17222TIP3   OH273080   2.878   0.012   4.700 -0.4071  0.0171 -0.1157
17222TIP3    H173081   2.946  -0.055   4.692 -1.4729 -1.0529 -0.5404
17222TIP3    H273082   2.923   0.088   4.737  0.8279 -0.9503  0.4357
17223TIP3   OH273083   5.342   3.356   5.284  0.6356 -0.0727  0.3367
17223TIP3    H173084   5.288   3.416   5.234 -0.5500 -1.4254 -0.0755
17223TIP3    H273085   5.342   3.392   5.373 -1.9091 -0.6054  0.6117
17224TIP3   OH273086   5.055   6.728   5.202  0.1572  0.0393  0.5855
17224TIP3    H173087   4.962   6.722   5.181  0.5513  0.3217 -1.3616
17224TIP3    H273088   5.083   6.638   5.216 -0.0174 -0.2306 -0.7129
17225TIP3   OH273089   5.737   7.097   5.758 -0.2935 -0.1274  0.1157
17225TIP3    H173090   5.801   7.035   5.723  2.0212  1.5230  1.0925
17225TIP3    H273091   5.790   7.172   5.787 -2.8078  1.8640 -0.0284
17226TIP3   OH273092   1.685   3.543   4.883 -0.8620 -0.2735 -0.2655
17226TIP3    H173093   1.721   3.628   4.907 -1.6439  0.3315 -1.1739
17226TIP3    H273094   1.591   3.550   4.903 -1.0318 -0.7049 -0.8766
17227TIP3   OH273095   5.758   4.177   0.474  0.0135 -0.1879  0.4770
17227TIP3    H173096   5.713   4.158   0.556  1.7064 -2.7019  0.9118
17227TIP3    H273097   5.817   4.249   0.495 -1.5766  1.1177  0.6643
17228TIP3   OH273098   5.883   1.915   2.600 -0.2942 -0.0617 -0.2750
17228TIP3    H173099   5.864   1.986   2.539 -0.2182  0.4282  0.2610
17228TIP3    H273100   5.886   1.836   2.546  0.6751  0.4847 -1.0568
17229TIP3   OH273101   6.829   1.822  13.035  0.2926  0.8900  0.7563
17229TIP3    H173102   6.838   1.857  13.124  1.4179 -0.5839  1.2650
17229TIP3    H273103   6.917   1.825  12.999  0.4952 -1.4739  0.8873
17230TIP3   OH273104   4.466   5.418  14.015  0.2843 -0.2752 -0.1151
17230TIP3    H173105   4.410   5.413  14.092  0.4849  1.3407  0.1638
17230TIP3    H273106   4.480   5.327  13.990 -1.8999 -0.7448  0.1975
17231TIP3   OH273107   7.127   4.678   1.996  0.1395  0.2382  0.1519
17231TIP3    H173108   7.074   4.698   1.919  0.4839  2.1059  0.3531
17231TIP3    H273109   7.120   4.583   2.006 -1.7005  0.2243 -0.8572
17232TIP3   OH273110   0.487   4.649   3.759 -0.1994  0.1053  0.2850
17232TIP3    H173111   0.473   4.677   3.850  0.0916  0.6496  0.1656
17232TIP3    H273112   0.567   4.597   3.763  0.5817  1.2450  0.1359
17233TIP3   OH273113   1.780   1.514   5.112 -0.2141  0.7503 -0.2951
17233TIP3    H173114   1.774   1.593   5.165  0.3955  0.5275  0.1145
17233TIP3    H273115   1.791   1.443   5.175  0.8531  0.5155 -0.7121
17234TIP3   OH273116   4.353   2.831   1.905 -0.0577 -0.0309 -0.2355
17234TIP3    H173117   4.314   2.869   1.984  0.4400  2.1702 -0.9759
17234TIP3    H273118   4.414   2.766   1.938 -2.6390 -2.0156  1.0198
17235TIP3   OH273119   1.078   6.574   4.477  0.0768 -0.4384  0.1240
17235TIP3    H173120   1.168   6.608   4.473  0.1089 -0.2300  1.7706
17235TIP3    H273121   1.051   6.566   4.386  0.6603  2.4196 -0.3845
17236TIP3   OH273122   2.619   1.472   4.787  0.0507 -0.3003  0.2221
17236TIP3    H173123   2.673   1.533   4.837 -0.8228  0.3050  0.4460
17236TIP3    H273124   2.676   1.396   4.772  0.9947  0.3665  0.3450
17237TIP3   OH273125   0.662   1.241   3.985  0.7903 -0.1172  0.4160
17237TIP3    H173126   0.641   1.218   4.076 -0.8684  1.6020  0.5232
17237TIP3    H273127   0.673   1.336   3.986 -0.9982  0.1767 -1.4729
17238TIP3   OH273128   4.705   4.654   4.979 -0.4315 -0.1969 -0.4650
17238TIP3    H173129   4.616   4.652   4.944 -0.0375 -1.8256 -1.4473
17238TIP3    H273130   4.693   4.638   5.073 -1.1034 -2.3278 -0.8506
17239TIP3   OH273131   3.991   3.730   1.698  0.1599  0.6960 -0.3452
17239TIP3    H173132   3.937   3.804   1.671  1.0967  2.5707  2.4624
17239TIP3    H273133   3.929   3.659   1.711 -1.1840  1.8095 -0.4016
17240TIP3   OH273134   3.886   6.405  14.806 -0.2249 -0.7577  0.0214
17240TIP3    H173135   3.811   6.346  14.814  0.4213 -1.4739  0.9781
17240TIP3    H273136   3.888   6.453  14.888 -0.7869  0.6945 -0.7785
17241TIP3   OH273137   3.454   4.253   4.980 -0.4357  1.2166 -0.3022
17241TIP3    H173138   3.389   4.230   4.913 -1.4837  0.8300  0.8075
17241TIP3    H273139   3.489   4.169   5.008 -2.0088  1.1172  1.5508
17242TIP3   OH273140   4.985   6.474  14.037  0.4436 -1.1159 -0.2186
17242TIP3    H173141   5.037   6.422  14.098  1.2391 -1.4908 -1.1849
17242TIP3    H273142   4.987   6.424  13.955  2.1095  0.8654 -1.4952
17243TIP3   OH273143   0.983   6.160   4.980  0.2641 -0.1227  0.4702
17243TIP3    H173144   0.951   6.189   5.066  0.8711 -0.5656  0.8586
17243TIP3    H273145   0.904   6.138   4.931 -0.2070  1.7748  0.2938
17244TIP3   OH273146   2.402   2.173  14.789  0.1249 -0.4739  0.1442
17244TIP3    H173147   2.324   2.200  14.837  0.6260 -0.4843  0.9822
17244TIP3    H273148   2.370   2.151  14.701 -0.8925 -0.9928  0.6299
17245TIP3   OH273149   5.689   5.627   1.067  0.3057  0.1318 -0.0206
17245TIP3    H173150   5.712   5.592   1.153 -0.6790 -0.3162  0.0789
17245TIP3    H273151   5.710   5.555   1.006  0.9511  0.4283 -0.1554
17246TIP3   OH273152   6.969   4.394   3.120 -0.3620 -0.1004  0.2514
17246TIP3    H173153   7.052   4.379   3.074 -1.3804  0.1853 -1.8352
17246TIP3    H273154   6.985   4.472   3.173  0.6626  0.0754 -0.2815
17247TIP3   OH273155   3.937   3.191   0.240  0.2734  0.1360 -0.5674
17247TIP3    H173156   3.909   3.235   0.159  0.3688 -0.2498 -0.8178
17247TIP3    H273157   3.996   3.122   0.209 -2.7337 -2.6799 -0.6130
17248TIP3   OH273158   5.020   1.804   1.451 -0.4738  0.3444  0.2075
17248TIP3    H173159   4.970   1.752   1.388 -0.4915 -0.9472  1.2446
17248TIP3    H273160   4.972   1.886   1.458  1.1689  1.8750 -3.7472
17249TIP3   OH273161   5.420   3.122   4.402  0.0704 -0.2183  0.5289
17249TIP3    H173162   5.353   3.173   4.447 -2.9992 -0.3853 -3.2902
17249TIP3    H273163   5.453   3.181   4.335  0.4821 -1.5180 -0.4498
17250TIP3   OH273164   5.775   4.842   3.692 -0.2283 -0.3148 -0.0462
17250TIP3    H173165   5.684   4.859   3.667 -0.5659  0.6681  1.6740
17250TIP3    H273166   5.814   4.929   3.699  0.6434 -0.6998 -0.0582
17251TIP3   OH273167   1.141   1.870   2.615  0.1776  0.3712 -0.6814
17251TIP3    H173168   1.051   1.857   2.644  1.1796  0.0322  2.6493
17251TIP3    H273169   1.159   1.962   2.632  0.9659  0.0354  0.4075
17252TIP3   OH273170   1.129   1.174   2.506  1.2160  0.0776  0.1002
17252TIP3    H173171   1.111   1.084   2.479  1.8442  0.1236 -0.4843
17252TIP3    H273172   1.053   1.198   2.560  1.6798 -1.2617  1.4245
17253TIP3   OH273173   2.906   4.309   3.672 -0.1320  0.0222 -0.2813
17253TIP3    H173174   2.853   4.313   3.593  0.6454  1.8363 -0.7497
17253TIP3    H273175   2.852   4.349   3.740 -0.5535 -0.9670 -0.0173
17254TIP3   OH273176   6.625   1.125   5.511  0.1654  0.1443  0.1912
17254TIP3    H173177   6.719   1.110   5.522  0.4254  1.1688 -0.4472
17254TIP3    H273178   6.584   1.071   5.578  1.1194 -1.5161 -0.4779
17255TIP3   OH273179   1.065   3.863   2.765 -1.1971 -0.6795  0.1809
17255TIP3    H173180   1.107   3.912   2.836 -1.1324  1.0363 -0.9766
17255TIP3    H273181   0.972   3.868   2.784 -1.2103  0.1531 -0.0677
17256TIP3   OH273182   2.949   1.006   3.018  0.0397 -0.6371 -0.1601
17256TIP3    H173183   2.992   1.091   3.031  0.0582 -0.6446 -0.1714
17256TIP3    H273184   2.960   0.987   2.925  0.5998 -0.9484 -0.0425
17257TIP3   OH273185   0.924   3.099   2.173 -0.2245  0.5317 -0.0778
17257TIP3    H173186   0.901   3.040   2.245  1.0369  0.8262  0.5947
17257TIP3    H273187   0.845   3.103   2.118 -0.4162 -1.5734 -0.0101
17258TIP3   OH273188   5.432   1.644   4.960  0.1529  0.0356 -0.4361
17258TIP3    H173189   5.454   1.662   5.051 -0.2649 -0.4816 -0.2215
17258TIP3    H273190   5.403   1.552   4.961 -1.7896  0.6016 -0.7216
17259TIP3   OH273191   4.747   5.952   1.686 -0.4343 -0.0849  0.6787
17259TIP3    H173192   4.706   6.036   1.705 -0.0299  0.3304 -0.2176
17259TIP3    H273193   4.673   5.891   1.675 -0.7916  0.4650 -0.0632
17260TIP3   OH273194   1.483   6.660   4.771  0.9316  0.3107  0.0848
17260TIP3    H173195   1.553   6.722   4.749  1.2956 -0.6452 -1.6298
17260TIP3    H273196   1.474   6.605   4.693 -1.0662 -0.2329  0.6457
17261TIP3   OH273197   2.511   4.104   3.929 -0.2527  0.5604 -0.3394
17261TIP3    H173198   2.518   4.159   3.851  0.0082  0.7091 -0.2123
17261TIP3    H273199   2.511   4.165   4.002 -0.1931  0.4032 -0.2076
17262TIP3   OH273200   2.850   2.827   3.296 -0.4070 -0.0333  0.8522
17262TIP3    H173201   2.801   2.763   3.245  1.1909 -0.4075 -0.2760
17262TIP3    H273202   2.783   2.886   3.332 -1.5959  0.8039 -2.4002
17263TIP3   OH273203   0.296   5.374   2.919  0.3110 -0.2260  0.0692
17263TIP3    H173204   0.332   5.459   2.893  0.8629  0.0279  1.5757
17263TIP3    H273205   0.347   5.349   2.996 -0.5447 -1.4363  0.2676
17264TIP3   OH273206   5.809   0.728  14.990 -0.0174  0.7810 -0.2284
17264TIP3    H173207   5.739   0.690  15.042  0.3912  0.3913  0.0506
17264TIP3    H273208   5.767   0.756  14.908 -0.7653  1.8677  0.5018
17265TIP3   OH273209   5.598   2.269  11.090  0.2931 -0.1717  0.3722
17265TIP3    H173210   5.667   2.303  11.033  1.4633 -3.1470 -0.2028
17265TIP3    H273211   5.538   2.225  11.030  1.1198 -2.6681  1.2419
17266TIP3   OH273212   2.921   1.333   4.319 -0.1912  0.2585  0.2162
17266TIP3    H173213   2.945   1.257   4.372  1.4009  2.0106  2.2032
17266TIP3    H273214   2.848   1.303   4.266 -1.4604 -1.8886  2.9039
17267TIP3   OH273215   0.087   5.440   1.599  0.3637  0.1269 -0.2627
17267TIP3    H173216   0.047   5.455   1.513  0.7073 -0.4874 -0.5360
17267TIP3    H273217   0.046   5.505   1.656 -1.1157 -0.5723 -0.4992
17268TIP3   OH273218   0.237   3.179   5.119  0.5272 -0.2095 -0.7675
17268TIP3    H173219   0.255   3.255   5.176  0.7899 -0.4984 -0.4608
17268TIP3    H273220   0.321   3.135   5.111  0.5489 -0.0181 -1.6193
17269TIP3   OH273221   3.140   4.435   3.595 -0.4060 -0.1843  0.0239
17269TIP3    H173222   3.068   4.374   3.610 -0.2135  0.0185  1.9440
17269TIP3    H273223   3.218   4.379   3.588 -0.4703 -0.2671 -0.0388
17270TIP3   OH273224   3.491   5.132   4.026 -0.1936  0.0542  0.2572
17270TIP3    H173225   3.514   5.057   4.080 -4.5918 -0.8198  1.3127
17270TIP3    H273226   3.534   5.116   3.942 -1.5010 -4.1787  0.1658
17271TIP3   OH273227   6.548   6.166   4.745 -0.0961 -0.1717  0.4084
17271TIP3    H173228   6.603   6.210   4.811  0.1361 -1.1979  0.9162
17271TIP3    H273229   6.608   6.106   4.701 -1.1106 -2.5481  2.0981
17272TIP3   OH273230   6.410   4.990   1.722  0.1331  0.1897  0.0219
17272TIP3    H173231   6.482   4.928   1.720  0.6717  0.7592  1.2229
17272TIP3    H273232   6.446   5.070   1.683  0.0945  0.4202  0.4580
17273TIP3   OH273233   2.285   5.356   4.109  1.2722 -0.1240  0.3716
17273TIP3    H173234   2.263   5.384   4.198 -1.4724  0.1561 -0.3006
17273TIP3    H273235   2.231   5.411   4.052 -0.4962 -3.2093 -1.2472
17274TIP3   OH273236   3.434   6.981   3.069  0.2056 -0.4598  0.3471
17274TIP3    H173237   3.443   7.022   3.155  0.3050  0.3757 -0.0494
17274TIP3    H273238   3.521   6.990   3.030  0.9287 -3.1480  1.1276
17275TIP3   OH273239   4.619   6.609   3.840 -0.2846  0.2543  0.5043
17275TIP3    H173240   4.569   6.552   3.782 -0.1207  0.8698 -0.2740
17275TIP3    H273241   4.553   6.669   3.877 -0.1351  1.2702 -0.7646
17276TIP3   OH273242   3.755   3.496   3.993 -0.4890  0.5305  0.1361
17276TIP3    H173243   3.753   3.569   3.931  1.2987 -0.2782 -0.9587
17276TIP3    H273244   3.799   3.531   4.070  0.0952  0.7056 -0.2703
17277TIP3   OH273245   1.114   0.545   2.132 -0.3727 -0.2833  0.7221
17277TIP3    H173246   1.054   0.613   2.164  0.1266  1.4310 -1.6475
17277TIP3    H273247   1.064   0.464   2.140 -0.9808  0.2685  3.7259
17278TIP3   OH273248   5.046   1.007   5.544  0.1886 -0.0065  0.2097
17278TIP3    H173249   4.965   1.035   5.502  0.9888  1.3491 -0.4818
17278TIP3    H273250   5.041   1.044   5.632  0.1369  0.2106  0.1152
17279TIP3   OH273251   1.308   0.229  14.306  0.6803  0.6103 -0.4958
17279TIP3    H173252   1.272   0.148  14.270  0.1014  0.2496  0.8520
17279TIP3    H273253   1.391   0.241  14.260  0.3723 -0.2934 -1.3105
17280TIP3   OH273254   4.935   2.582   0.988 -0.6821 -0.1733 -0.2216
17280TIP3    H173255   4.865   2.637   0.952 -2.1599 -1.1508  1.0144
17280TIP3    H273256   4.985   2.640   1.044 -1.5257  0.1922  0.1771
17281TIP3   OH273257   6.251   6.740   2.504 -0.6790  0.3793 -0.2157
17281TIP3    H173258   6.316   6.801   2.470  1.9002 -2.7627 -1.4596
17281TIP3    H273259   6.264   6.740   2.598  0.8298  0.1909 -0.4022
17282TIP3   OH273260   1.515   6.609   2.380  0.8616  0.1128 -0.0552
17282TIP3    H173261   1.564   6.691   2.374 -1.0117  1.2566 -0.4857
17282TIP3    H273262   1.564   6.547   2.326  1.3163  1.4778 -1.2565
17283TIP3   OH273263   6.586   1.571   4.836 -0.0991 -0.9206 -0.5053
17283TIP3    H173264   6.558   1.611   4.753  0.5157 -1.1830 -0.8419
17283TIP3    H273265   6.658   1.626   4.866 -3.2314  2.1784  2.3617
17284TIP3   OH273266   4.440   5.177   3.683  0.8742 -0.2068  0.5506
17284TIP3    H173267   4.429   5.178   3.778 -2.2195 -2.3590  0.3661
17284TIP3    H273268   4.369   5.231   3.650  0.6519 -1.1226 -0.5387
17285TIP3   OH273269   6.955   4.128   3.227 -0.0310  0.0194  0.1340
17285TIP3    H173270   7.047   4.107   3.213  0.3430  0.2609  2.0415
17285TIP3    H273271   6.945   4.218   3.196  0.0905 -0.3730 -1.0995
17286TIP3   OH273272   7.040   2.233   3.386  0.1585 -0.2907  0.1346
17286TIP3    H173273   7.102   2.162   3.401 -1.3073 -1.7689 -0.4232
17286TIP3    H273274   7.029   2.274   3.472  1.8693  0.0069  0.2330
17287TIP3   OH273275   4.267   0.454   3.472 -0.2676  0.0640  0.1420
17287TIP3    H173276   4.215   0.430   3.395 -1.1137  1.1186  0.3625
17287TIP3    H273277   4.335   0.386   3.477 -0.7856 -0.5653 -0.9584
17288TIP3   OH273278   5.776   6.867   3.876 -0.0266 -0.1018  0.4940
17288TIP3    H173279   5.782   6.889   3.969 -0.8475  1.4356  0.2282
17288TIP3    H273280   5.783   6.772   3.873 -0.3127 -0.2108  2.1505
17289TIP3   OH273281   4.899   0.565   4.629 -0.2473  0.1179  0.2196
17289TIP3    H173282   4.831   0.633   4.623 -0.2516  0.2631  1.6645
17289TIP3    H273283   4.853   0.487   4.658  0.1479  0.1660  1.0129
17290TIP3   OH273284   0.093   2.374   4.761  0.4334 -0.2271 -0.1850
17290TIP3    H173285   0.125   2.428   4.833 -0.3580 -1.5253  1.2032
17290TIP3    H273286   0.015   2.330   4.796 -0.1121 -0.7545 -1.9044
17291TIP3   OH273287   1.742   6.323   3.103 -0.6366 -0.3465  0.3103
17291TIP3    H173288   1.680   6.333   3.032  1.5290 -0.9547 -1.7944
17291TIP3    H273289   1.788   6.407   3.107 -0.0334 -0.6629  0.2467
17292TIP3   OH273290   0.956   1.997   4.548 -0.0026  0.1794  0.2323
17292TIP3    H173291   0.953   2.016   4.642  2.5922  1.2956  0.1657
17292TIP3    H273292   0.904   2.066   4.508  2.1246  2.1186  0.6349
17293TIP3   OH273293   3.837   0.383   2.172  0.1279  0.0883  0.3290
17293TIP3    H173294   3.898   0.401   2.100  1.8178  1.6580  2.0316
17293TIP3    H273295   3.893   0.372   2.249 -1.6667 -0.3374  1.6484
17294TIP3   OH273296   7.017   3.413   2.885 -0.1295  0.1412  0.4138
17294TIP3    H173297   7.104   3.408   2.923  0.2666  0.3323 -0.4421
17294TIP3    H273298   6.960   3.440   2.957  0.7054  1.1460  0.7117
17295TIP3   OH273299   3.575   3.139   2.587 -0.7526 -0.1233 -0.5226
17295TIP3    H173300   3.544   3.103   2.503 -0.2750  0.6946 -1.0637
17295TIP3    H273301   3.501   3.188   2.621 -1.5450 -1.8658  0.4087
17296TIP3   OH273302   5.678   5.589   3.239 -0.1378  0.0468 -0.3518
17296TIP3    H173303   5.731   5.611   3.163  0.4680 -1.0518 -0.2770
17296TIP3    H273304   5.685   5.493   3.246  1.1497  0.2213  2.0043
17297TIP3   OH273305   2.872   4.593   3.330 -0.5036  0.0546 -0.7091
17297TIP3    H173306   2.863   4.614   3.423 -0.3320 -2.9648  0.1010
17297TIP3    H273307   2.782   4.594   3.296 -1.1758 -2.9384  0.6242
17298TIP3   OH273308   5.616   0.229   2.876 -0.1884  0.1453 -0.7082
17298TIP3    H173309   5.523   0.243   2.860 -0.1686  0.9216 -0.1932
17298TIP3    H273310   5.634   0.279   2.956  0.2075 -1.7352  0.4478
17299TIP3   OH273311   6.111   7.021   5.578  0.5120 -0.3106 -0.3678
17299TIP3    H173312   6.113   7.106   5.623  1.8314 -0.8315  0.6243
17299TIP3    H273313   6.018   6.999   5.573  0.0926  1.4455 -1.1908
17300TIP3   OH273314   0.562   0.897  14.988  0.3648 -0.5649 -0.6804
17300TIP3    H173315   0.527   0.973  14.943  0.0547 -0.8557 -0.9368
17300TIP3    H273316   0.588   0.930  15.074  1.5735  0.1366 -1.2949
17301TIP3   OH273317   2.530   6.315   4.226  0.5344  0.2052 -0.7176
17301TIP3    H173318   2.456   6.267   4.264  2.1764 -0.7436  1.4414
17301TIP3    H273319   2.582   6.248   4.182  1.2085  0.5165 -0.4021
17302TIP3   OH273320   3.432   3.376  13.296 -0.2062 -0.7399 -0.4331
17302TIP3    H173321   3.511   3.349  13.249  1.8508  0.2937  2.1615
17302TIP3    H273322   3.378   3.420  13.230  2.4070  0.4852 -1.8973
17303TIP3   OH273323   0.299   2.934   3.894  0.3780  0.1942 -0.4312
17303TIP3    H173324   0.252   2.978   3.823 -0.3837 -0.7781 -0.5485
17303TIP3    H273325   0.312   2.844   3.862  0.3372 -0.1572  0.5092
17304TIP3   OH273326   3.395   4.448   2.049 -0.2418 -0.5718 -0.5640
17304TIP3    H173327   3.315   4.475   2.095  0.2054 -1.0986  0.5677
17304TIP3    H273328   3.465   4.490   2.099  0.2418 -0.8951 -0.9674
17305TIP3   OH273329   5.138   5.437   2.215 -0.7367 -0.2888  0.0544
17305TIP3    H173330   5.208   5.495   2.185 -0.1726 -0.9622  0.0350
17305TIP3    H273331   5.183   5.369   2.265 -1.3634 -0.7856 -0.0427
17306TIP3   OH273332   1.829   1.148   5.825 -0.8867 -0.0236 -0.3592
17306TIP3    H173333   1.889   1.163   5.898 -0.2265 -0.0446 -0.8876
17306TIP3    H273334   1.786   1.233   5.811 -0.4044  0.2032 -0.4817
17307TIP3   OH273335   5.711   2.452   3.667  0.5099  0.3300  0.2368
17307TIP3    H173336   5.616   2.453   3.654  0.6173 -1.0756 -0.8138
17307TIP3    H273337   5.725   2.387   3.736  0.7992 -0.5017 -0.5919
17308TIP3   OH273338   1.018   2.598   5.140 -0.2113  0.6994 -0.5602
17308TIP3    H173339   1.084   2.613   5.073  0.2228  2.5130  0.2205
17308TIP3    H273340   0.972   2.682   5.148 -2.3858 -0.3997 -0.8155
17309TIP3   OH273341   2.033   5.590   4.581  0.3368  0.5457  0.1840
17309TIP3    H173342   2.106   5.583   4.642 -0.1546  0.8447  0.8118
17309TIP3    H273343   2.061   5.656   4.517  0.7511  0.4126  0.2296
17310TIP3   OH273344   6.482   3.290   2.192  0.1153 -0.9943  0.0212
17310TIP3    H173345   6.565   3.335   2.176  0.4815 -1.8202 -0.4408
17310TIP3    H273346   6.506   3.198   2.204 -0.9291 -1.6992 -2.5552
17311TIP3   OH273347   5.605   0.236   0.310  0.3133  0.3613  0.4415
17311TIP3    H173348   5.677   0.283   0.353  1.1384  0.8311 -1.3487
17311TIP3    H273349   5.643   0.203   0.229 -0.7610 -1.8493  0.7642
17312TIP3   OH273350   0.089   2.666   4.470  0.0315 -0.5552 -0.3038
17312TIP3    H173351   0.120   2.749   4.435 -1.8311  0.6380  0.7162
17312TIP3    H273352   0.166   2.625   4.509  0.9893  0.6541 -0.8807
17313TIP3   OH273353   5.789   0.695   3.282  0.1122  0.2662 -0.2362
17313TIP3    H173354   5.706   0.710   3.327  0.8365  0.3734  1.0919
17313TIP3    H273355   5.774   0.728   3.193 -1.5752 -0.6308 -0.3389
17314TIP3   OH273356   0.287   3.935   5.525  0.1459 -0.1303  0.2647
17314TIP3    H173357   0.292   3.894   5.612  1.2792 -0.2454  0.1597
17314TIP3    H273358   0.354   4.003   5.527  1.0195 -0.9092 -0.9030
17315TIP3   OH273359   1.436   2.204   3.156 -0.1904 -0.3535 -0.0481
17315TIP3    H173360   1.498   2.131   3.157  2.2308  1.5030  1.9957
17315TIP3    H273361   1.407   2.211   3.247 -2.0639 -0.0373 -0.6313
17316TIP3   OH273362   5.010   4.614   4.496  0.1742  0.0097  0.1176
17316TIP3    H173363   4.950   4.688   4.486  0.9855  0.5326 -1.1556
17316TIP3    H273364   4.966   4.540   4.454 -0.7476 -0.3193  1.6121
17317TIP3   OH273365   4.979   3.104  14.905 -0.5320  0.4529 -0.0762
17317TIP3    H173366   5.018   3.190  14.888 -1.9027  0.8773 -1.3395
17317TIP3    H273367   4.902   3.124  14.959 -2.1169  0.3554 -2.1659
17318TIP3   OH273368   4.859   0.822   4.017  0.6902 -0.2607 -0.5370
17318TIP3    H173369   4.845   0.728   4.028 -1.1027  0.0976  0.9181
17318TIP3    H273370   4.772   0.861   4.031  1.6463  1.7115  0.4127
17319TIP3   OH273371   4.693   0.251   3.694  0.1977  0.6373 -0.1364
17319TIP3    H173372   4.698   0.280   3.603 -2.3670 -1.3650 -1.0546
17319TIP3    H273373   4.610   0.287   3.727 -0.9351 -1.8955  0.0140
17320TIP3   OH273374   4.846   2.853   1.259 -0.2040 -0.1266 -0.2694
17320TIP3    H173375   4.866   2.934   1.306  0.1773  0.3776 -1.2624
17320TIP3    H273376   4.788   2.805   1.317 -0.3722  0.8290  0.3764
17321TIP3   OH273377   7.054   2.256   3.904  0.2234 -0.7716 -1.0766
17321TIP3    H173378   7.010   2.197   3.964 -0.1635 -0.4771 -1.0616
17321TIP3    H273379   7.100   2.318   3.961  0.2993 -0.8172 -1.0884
17322TIP3   OH273380   3.342   5.869   4.532  0.1790  0.1989  0.1184
17322TIP3    H173381   3.317   5.877   4.440 -1.2192  2.4437  0.5850
17322TIP3    H273382   3.263   5.897   4.579  1.2324  0.1634  1.9604
17323TIP3   OH273383   3.766   1.488   5.990 -0.1495  0.3347 -0.1335
17323TIP3    H173384   3.698   1.449   5.936 -1.9504 -0.3722  2.4756
17323TIP3    H273385   3.739   1.579   6.001  1.3624  1.0793 -2.0724
17324TIP3   OH273386   5.212   3.504   5.098 -0.4431 -0.6806 -0.4416
17324TIP3    H173387   5.117   3.504   5.092 -0.7188  2.0906  1.6160
17324TIP3    H273388   5.240   3.562   5.026 -0.6014  0.8098  0.6537
17325TIP3   OH273389   4.288   6.110   2.983 -0.8063 -0.4096 -0.2554
17325TIP3    H173390   4.306   6.178   2.918 -0.7493 -0.3520 -0.1795
17325TIP3    H273391   4.369   6.104   3.034 -0.6563 -0.8395 -0.5385
17326TIP3   OH273392   4.131   4.869   2.726 -0.1723 -0.3087  0.7007
17326TIP3    H173393   4.072   4.861   2.801 -2.3289 -0.4641 -0.9381
17326TIP3    H273394   4.103   4.948   2.681  0.8135 -0.4525 -0.2051
17327TIP3   OH273395   6.043   5.915   1.078  1.0641 -0.3127 -0.1527
17327TIP3    H173396   6.023   5.975   1.006 -1.9309 -0.9553  0.0294
17327TIP3    H273397   5.977   5.933   1.144  2.1838 -1.5158  1.3641
17328TIP3   OH273398   4.258   5.189   2.681  0.0916  0.2905  0.4550
17328TIP3    H173399   4.171   5.175   2.645  0.1830 -0.0797  0.3781
17328TIP3    H273400   4.305   5.236   2.611  0.6076 -1.3853 -0.3901
17329TIP3   OH273401   1.605   5.457   1.684 -0.2336  0.5053 -0.3673
17329TIP3    H173402   1.587   5.504   1.766  0.4764  0.7723 -0.3537
17329TIP3    H273403   1.647   5.523   1.628  1.9421 -0.4010  0.0970
17330TIP3   OH273404   5.511   3.298   3.398 -0.7899  0.0925  0.3731
17330TIP3    H173405   5.565   3.220   3.411 -0.2181  0.6977  1.8349
17330TIP3    H273406   5.503   3.307   3.302  1.5075 -0.1534  0.1121
17331TIP3   OH273407   4.061   4.009   4.976 -0.2842  0.1550 -0.1684
17331TIP3    H173408   4.043   3.980   4.887  0.1660 -1.4491  0.2390
17331TIP3    H273409   4.031   3.937   5.032  0.1020  0.8255  0.9486
17332TIP3   OH273410   0.493   3.943   0.330  0.0672  0.6391 -0.2051
17332TIP3    H173411   0.408   3.967   0.367  0.2895  1.9125 -0.4946
17332TIP3    H273412   0.524   4.022   0.287  2.2088  0.7547  1.4072
17333TIP3   OH273413   6.520   5.842   2.735 -0.5206 -0.0004 -0.1424
17333TIP3    H173414   6.609   5.807   2.738 -0.3766  0.1464 -1.6815
17333TIP3    H273415   6.482   5.804   2.656 -1.3616  1.0216 -0.2494
17334TIP3   OH273416   2.622   0.709   2.864  0.3772 -0.0366  0.6314
17334TIP3    H173417   2.667   0.792   2.847  0.4255 -0.3512 -0.8684
17334TIP3    H273418   2.688   0.654   2.905  0.9800 -0.0464 -0.3324
17335TIP3   OH273419   5.506   3.261   5.088 -0.6270  0.4708  0.4383
17335TIP3    H173420   5.445   3.288   5.156 -0.9887 -0.2031  0.3953
17335TIP3    H273421   5.538   3.343   5.050 -2.0972  0.8462 -0.0594
17336TIP3   OH273422   5.160   5.250   0.805 -0.3180 -0.1312 -0.4047
17336TIP3    H173423   5.091   5.184   0.794 -0.4633  0.1060 -0.9765
17336TIP3    H273424   5.242   5.199   0.799 -0.4345 -0.3201 -0.4008
17337TIP3   OH273425   6.821   4.826   5.620 -0.2437 -1.0123 -0.4210
17337TIP3    H173426   6.896   4.822   5.680 -0.1533  0.3857 -0.4061
17337TIP3    H273427   6.794   4.918   5.623 -0.4209 -0.9751 -2.3004
17338TIP3   OH273428   2.619   0.833   1.170  0.0161  0.4044  0.0723
17338TIP3    H173429   2.640   0.748   1.132 -0.1724  0.3564  0.0752
17338TIP3    H273430   2.638   0.896   1.100 -1.8439  0.1944 -0.6855
17339TIP3   OH273431   3.362   1.272   2.824 -0.0755 -0.0450 -0.7269
17339TIP3    H173432   3.338   1.357   2.861 -0.3512 -0.9331  1.2652
17339TIP3    H273433   3.278   1.230   2.805 -0.3492 -2.0982  3.7782
17340TIP3   OH273434   5.310   1.470   4.398 -0.1201  0.0869  0.4390
17340TIP3    H173435   5.299   1.420   4.479 -1.0880  1.2230  1.0301
17340TIP3    H273436   5.244   1.434   4.339  0.4158 -0.5701  0.2319
17341TIP3   OH273437   3.232   6.403   5.500 -0.0595  0.2549  0.5807
17341TIP3    H173438   3.245   6.310   5.521 -1.8897 -0.1198  0.2089
17341TIP3    H273439   3.173   6.435   5.568 -0.4656  0.8097 -0.0199
17342TIP3   OH273440   5.868   4.946   5.036 -0.2478  0.3957 -0.0009
17342TIP3    H173441   5.848   4.944   4.942 -0.8941  1.8183  0.0759
17342TIP3    H273442   5.824   4.870   5.072 -0.9422  0.4635 -0.6920
17343TIP3   OH273443   3.894   2.121   2.996  0.6427 -0.5396  0.1493
17343TIP3    H173444   3.871   2.198   3.048  3.4784  0.3957  0.1903
17343TIP3    H273445   3.848   2.134   2.913 -0.3938  0.2324  0.8284
17344TIP3   OH273446   2.833   2.749   0.834 -0.3953 -0.6685  0.1264
17344TIP3    H173447   2.883   2.724   0.756  2.3416  0.9908  1.1672
17344TIP3    H273448   2.872   2.697   0.905 -0.7023  0.0658  0.8556
17345TIP3   OH273449   4.141   6.653   3.534  0.0884  0.3201  0.4218
17345TIP3    H173450   4.132   6.662   3.439 -0.6487 -0.5976  0.3895
17345TIP3    H273451   4.051   6.646   3.566  0.3379  0.5613  1.1806
17346TIP3   OH273452   2.382   4.463   1.452 -0.2767 -0.9876 -0.4816
17346TIP3    H173453   2.361   4.517   1.375 -1.4120  0.0246  0.4901
17346TIP3    H273454   2.414   4.525   1.517 -1.8742 -1.4069  0.7619
17347TIP3   OH273455   3.736   3.362   2.032  0.2033  0.3530  0.1014
17347TIP3    H173456   3.804   3.295   2.038 -0.6853 -0.4209  2.4195
17347TIP3    H273457   3.782   3.444   2.051  0.6375 -0.0700  0.9164
17348TIP3   OH273458   4.413   4.707   2.578  0.6245  0.3402 -0.6735
17348TIP3    H173459   4.416   4.770   2.506  0.3488 -0.9266 -1.8306
17348TIP3    H273460   4.331   4.659   2.566 -0.3619  1.3225  1.5986
17349TIP3   OH273461   3.588   4.879   5.431 -0.4584  0.0874  0.4962
17349TIP3    H173462   3.625   4.957   5.390  3.0647 -1.4277  0.5059
17349TIP3    H273463   3.562   4.824   5.357  1.8740 -0.8120  0.2654
17350TIP3   OH273464   5.942   4.814  14.320  0.9340  0.9375  0.5739
17350TIP3    H173465   6.024   4.821  14.270  1.5624 -1.7958  1.0556
17350TIP3    H273466   5.906   4.729  14.295 -2.4733  2.5674 -0.5206
17351TIP3   OH273467   6.331   1.867   3.782  0.2991  0.0887 -0.1550
17351TIP3    H173468   6.316   1.932   3.851  1.8085 -0.1128  0.3987
17351TIP3    H273469   6.355   1.920   3.705  2.6742  0.2443  0.5897
17352TIP3   OH273470   5.652   1.256   4.529 -0.3673 -0.4244  0.1185
17352TIP3    H173471   5.642   1.234   4.437 -0.6804 -0.7514  0.2252
17352TIP3    H273472   5.697   1.340   4.530 -0.9636 -0.0971 -0.3424
17353TIP3   OH273473   3.370   5.401   3.851  0.2152  0.1559  0.1177
17353TIP3    H173474   3.276   5.419   3.853  0.2872  0.5136  0.3940
17353TIP3    H273475   3.381   5.326   3.909  0.0313 -0.2256 -0.3370
17354TIP3   OH273476   3.247   0.493  14.599 -0.4868 -0.1807  0.6524
17354TIP3    H173477   3.169   0.547  14.590  0.4995  1.4197  1.2284
17354TIP3    H273478   3.218   0.415  14.647 -1.7110  0.3628  0.8132
17355TIP3   OH273479   1.340   5.415   5.470  0.0435 -0.3355  0.2472
17355TIP3    H173480   1.291   5.337   5.443  1.2602 -0.7435 -0.8698
17355TIP3    H273481   1.286   5.489   5.440 -0.6673 -0.7395  0.4962
17356TIP3   OH273482   2.239   1.368   1.443 -0.0333 -0.3119  0.3965
17356TIP3    H173483   2.237   1.420   1.363 -0.9305 -0.4624  0.3131
17356TIP3    H273484   2.257   1.279   1.413 -2.1085 -0.7035  0.1452
17357TIP3   OH273485   1.836   6.323  11.400 -0.1022  0.1090 -0.5702
17357TIP3    H173486   1.832   6.355  11.309 -0.3161 -3.1760 -1.8444
17357TIP3    H273487   1.760   6.362  11.442 -0.5356  0.9823 -2.0600
17358TIP3   OH273488   6.456   5.824   4.469  0.4929  0.0477 -0.0507
17358TIP3    H173489   6.451   5.787   4.381 -0.6713  0.2334 -0.0827
17358TIP3    H273490   6.385   5.888   4.472  0.3710 -0.1212  1.0957
17359TIP3   OH273491   3.790   0.807   5.622  0.0851  0.4001  0.1464
17359TIP3    H173492   3.828   0.758   5.695 -1.0061 -1.6312 -0.5735
17359TIP3    H273493   3.697   0.814   5.643 -0.8712 -2.7695 -2.2269
17360TIP3   OH273494   4.256   1.259   2.307  0.6492 -0.0139  0.4806
17360TIP3    H173495   4.193   1.272   2.378  1.1736 -0.5628  1.0663
17360TIP3    H273496   4.338   1.237   2.352  1.4462  1.3713 -0.2395
17361TIP3   OH273497   5.220   4.963   2.528  0.1089 -0.4895  0.0230
17361TIP3    H173498   5.165   4.934   2.600  0.7431 -1.2292  0.2198
17361TIP3    H273499   5.298   4.908   2.534  1.0425  0.7972 -0.0128
17362TIP3   OH273500   1.737   4.504  13.323 -0.0487 -0.3842 -0.3454
17362TIP3    H173501   1.799   4.514  13.395  0.9354 -0.6728 -1.1327
17362TIP3    H273502   1.666   4.565  13.344  0.6330  0.1629  0.4202
17363TIP3   OH273503   5.470   4.370   4.949  0.3806  0.0536  0.0146
17363TIP3    H173504   5.559   4.348   4.977  0.6684  1.4091  0.2167
17363TIP3    H273505   5.482   4.422   4.869 -0.2211  0.3617  0.1205
17364TIP3   OH273506   6.387   3.142   4.617 -0.2148 -0.1431 -0.1835
17364TIP3    H173507   6.386   3.181   4.530 -1.1236  1.4492  0.5002
17364TIP3    H273508   6.429   3.208   4.672 -0.6515 -0.6594  0.7950
17365TIP3   OH273509   1.737   0.730   4.194  0.8840  0.8904  0.1748
17365TIP3    H173510   1.768   0.821   4.194  0.1192  1.1637 -1.0209
17365TIP3    H273511   1.684   0.722   4.115  0.7903 -0.5575  0.3563
17366TIP3   OH273512   4.719   6.080   1.957  0.0726 -0.3395  0.3495
17366TIP3    H173513   4.778   6.127   1.899 -0.6193 -0.8205 -0.7847
17366TIP3    H273514   4.651   6.145   1.979 -0.0490 -0.3607  0.0403
17367TIP3   OH273515   5.924   1.356   3.837  0.1795 -0.5031 -1.0178
17367TIP3    H173516   5.904   1.325   3.926 -0.3463  0.2345 -0.8717
17367TIP3    H273517   5.981   1.431   3.850  1.7182 -1.5635 -1.3860
17368TIP3   OH273518   3.622   5.974   2.508 -0.5622 -0.1900 -0.1893
17368TIP3    H173519   3.695   5.916   2.485 -2.4401 -2.9643  0.3825
17368TIP3    H273520   3.647   6.012   2.592 -0.0879 -1.6641  0.3574
17369TIP3   OH273521   1.808   5.430  15.073 -0.2944 -0.5549 -0.0240
17369TIP3    H173522   1.852   5.363  15.124  1.5762  0.6700  0.1036
17369TIP3    H273523   1.879   5.477  15.029 -1.4777  1.4384  0.0247
17370TIP3   OH273524   5.931   1.570   5.565 -0.0666 -0.0867  0.4089
17370TIP3    H173525   5.853   1.625   5.566  0.1897  0.3356 -0.8366
17370TIP3    H273526   5.898   1.481   5.570 -0.9135 -0.1109 -2.9419
17371TIP3   OH273527   1.840   6.538  14.869  0.0066 -0.3798 -0.1566
17371TIP3    H173528   1.792   6.581  14.939 -0.6244 -0.3566 -0.5957
17371TIP3    H273529   1.799   6.570  14.788  0.5505 -0.6046 -0.5313
17372TIP3   OH273530   0.669   1.234   4.903 -0.1742  0.3452 -0.4904
17372TIP3    H173531   0.597   1.177   4.930  1.0225 -0.7728  0.5044
17372TIP3    H273532   0.660   1.242   4.808 -0.8339 -0.8539 -0.5423
17373TIP3   OH273533   0.702   4.920   5.295 -0.1136 -0.1356  0.2485
17373TIP3    H173534   0.669   4.892   5.209  1.7761 -1.7624 -0.0138
17373TIP3    H273535   0.787   4.959   5.277 -0.3813  0.9394  1.2402
17374TIP3   OH273536   1.195   6.831   5.828 -0.4346  0.2083  0.3003
17374TIP3    H173537   1.162   6.844   5.739 -3.4422 -0.3087  1.2405
17374TIP3    H273538   1.209   6.919   5.862 -2.1800  0.5153  0.2849
17375TIP3   OH273539   2.650   0.967   3.073  0.4276 -0.1081  0.4568
17375TIP3    H173540   2.732   0.961   3.122 -0.4446 -1.0555  1.9165
17375TIP3    H273541   2.589   0.911   3.123  0.0438 -3.0826 -2.9310
17376TIP3   OH273542   4.689   6.675   3.315 -0.0598 -0.3741  0.9360
17376TIP3    H173543   4.763   6.661   3.256  1.4575  3.3189  1.6487
17376TIP3    H273544   4.615   6.692   3.257 -0.0707 -2.6988  0.1994
17377TIP3   OH273545   4.266   0.828   3.296  0.0830  0.1634 -0.1563
17377TIP3    H173546   4.310   0.861   3.218 -1.9687  1.0134 -1.0318
17377TIP3    H273547   4.198   0.893   3.314  2.6145  1.9722  4.5069
17378TIP3   OH273548   6.837   3.903   4.695  0.2493 -0.8408  0.2054
17378TIP3    H173549   6.925   3.932   4.720 -0.0418 -1.3709  2.0083
17378TIP3    H273550   6.838   3.900   4.600  2.3179 -1.2057  0.2038
17379TIP3   OH273551   0.814   3.535   3.222 -0.1182  0.0238  0.3418
17379TIP3    H173552   0.849   3.570   3.140 -0.7587  0.1398  0.1199
17379TIP3    H273553   0.720   3.528   3.208  0.0297 -2.2758  0.2176
17380TIP3   OH273554   6.208   1.016   5.969 -0.3095  0.8641 -0.5283
17380TIP3    H173555   6.296   1.054   5.970 -0.3371  0.9742  1.3094
17380TIP3    H273556   6.221   0.927   5.937 -0.0401  1.8609 -3.4833
17381TIP3   OH273557   1.941   5.974   1.800 -0.5508  0.2290  0.5370
17381TIP3    H173558   2.034   5.995   1.810 -0.1621 -1.0701 -0.1130
17381TIP3    H273559   1.918   5.932   1.883 -0.5822  0.6539  0.7421
17382TIP3   OH273560   2.727   7.134   0.545  0.2073  0.0730  0.2308
17382TIP3    H173561   2.683   7.108   0.626  0.5483  0.2395  0.4707
17382TIP3    H273562   2.803   7.076   0.539 -0.9602 -1.4009 -1.0777
17383TIP3   OH273563   1.825   1.286   2.583 -0.2382  0.1881 -0.5396
17383TIP3    H173564   1.843   1.367   2.631  0.1028  0.1008 -0.5202
17383TIP3    H273565   1.760   1.240   2.637  1.9963 -1.1308  1.2401
17384TIP3   OH273566   6.416   1.176   1.284 -0.0862  0.2764 -0.3782
17384TIP3    H173567   6.365   1.104   1.247  0.9735 -1.6060  1.5306
17384TIP3    H273568   6.379   1.188   1.372  2.4712 -1.0532  1.0172
17385TIP3   OH273569   2.054   1.775   0.833  0.0042  0.6634  0.2288
17385TIP3    H173570   1.990   1.844   0.851  0.4915  0.9956  0.7168
17385TIP3    H273571   2.024   1.736   0.751 -1.4831  0.0541  1.0142
17386TIP3   OH273572   3.870   1.873   4.809 -0.0148  0.5751  0.2493
17386TIP3    H173573   3.873   1.786   4.770  0.3606 -0.4645  2.4807
17386TIP3    H273574   3.955   1.912   4.787  1.2045 -0.9409  2.0250
17387TIP3   OH273575   6.004   6.684   3.067  0.2476  0.4149 -0.1410
17387TIP3    H173576   5.957   6.742   3.007  1.3237  1.8498  0.3392
17387TIP3    H273577   6.096   6.698   3.047  0.6228  0.7253  1.6258
17388TIP3   OH273578   4.527   1.505   1.773  0.0757  0.3204 -0.2001
17388TIP3    H173579   4.480   1.555   1.707 -1.4235  0.3062  0.8135
17388TIP3    H273580   4.516   1.555   1.854  0.4873 -0.5009  0.3785
17389TIP3   OH273581   1.529   1.568   5.922 -0.2438 -0.1747  0.0304
17389TIP3    H173582   1.508   1.654   5.885 -0.4591 -0.4033 -0.3876
17389TIP3    H273583   1.469   1.558   5.996 -0.7950 -0.3182 -0.4298
17390TIP3   OH273584   0.901   0.756   4.797  0.2262 -0.2811 -0.1759
17390TIP3    H173585   0.811   0.733   4.776  0.6511 -2.9781  0.6358
17390TIP3    H273586   0.900   0.852   4.802 -2.7378 -0.2378  0.4329
17391TIP3   OH273587   5.094   6.487   3.601 -0.3199  0.5320 -0.7590
17391TIP3    H173588   5.011   6.462   3.561 -0.0295 -0.2900 -0.8717
17391TIP3    H273589   5.137   6.542   3.535 -1.1939  1.7976 -0.3009
17392TIP3   OH273590   1.403   0.151   3.284 -0.2249  0.0895  0.4176
17392TIP3    H173591   1.373   0.167   3.374  0.4935  0.5399  0.5886
17392TIP3    H273592   1.354   0.214   3.232  1.1824  1.6452  0.8469
17393TIP3   OH273593   7.035   5.425   1.921 -0.4241  0.2876 -0.0490
17393TIP3    H173594   6.993   5.473   1.992 -1.7615  1.0738 -1.3278
17393TIP3    H273595   7.100   5.486   1.886  1.2429 -0.5954  1.3240
17394TIP3   OH273596   5.754   0.305   5.170  0.6984  0.5245 -0.0677
17394TIP3    H173597   5.677   0.311   5.227  2.4698  2.6540  2.3148
17394TIP3    H273598   5.812   0.374   5.201  2.8502  0.2012 -2.9674
17395TIP3   OH273599   3.843   6.838   2.005 -0.4842 -0.3832  0.3863
17395TIP3    H173600   3.883   6.769   1.952 -0.2535 -0.4156  0.6024
17395TIP3    H273601   3.859   6.811   2.095  0.3457  0.3712  0.4813
17396TIP3   OH273602   6.121   5.434   3.678  0.0839 -0.1847  0.0885
17396TIP3    H173603   6.051   5.400   3.621  0.5705 -0.1437 -0.5430
17396TIP3    H273604   6.139   5.362   3.738  0.4878 -0.7328 -0.6681
17397TIP3   OH273605   4.828   2.068   5.758  0.1459  0.2615  0.6066
17397TIP3    H173606   4.805   1.975   5.761 -1.5204  0.6097 -0.0816
17397TIP3    H273607   4.747   2.111   5.733  0.7961  1.9581  1.3155
17398TIP3   OH273608   2.443   5.002   2.685 -0.1233 -0.2971  0.5812
17398TIP3    H173609   2.536   5.022   2.696 -0.3690  1.4929 -0.2376
17398TIP3    H273610   2.399   5.054   2.751 -0.6527  0.1669 -0.1211
17399TIP3   OH273611   1.925   0.269   4.309 -0.3336 -0.4458 -0.1595
17399TIP3    H173612   1.981   0.308   4.375 -0.4224  0.4951 -0.6215
17399TIP3    H273613   1.970   0.286   4.226 -0.3043 -1.4635 -0.3687
17400TIP3   OH273614   0.351   4.773   1.220 -0.1346  0.0114 -0.2621
17400TIP3    H173615   0.258   4.752   1.210 -0.0860 -1.5250  1.9399
17400TIP3    H273616   0.376   4.732   1.302  2.5510  0.2825 -0.8733
17401TIP3   OH273617   4.899   2.063   0.149 -0.0460 -0.4601 -0.6177
17401TIP3    H173618   4.816   2.021   0.171 -1.6545  1.7131 -2.0718
17401TIP3    H273619   4.885   2.155   0.172  1.6281  0.1153 -1.7310
17402TIP3   OH273620   4.415   3.232   5.194  0.0394 -0.2563 -0.1172
17402TIP3    H173621   4.402   3.166   5.126  1.7074  0.4312 -1.1640
17402TIP3    H273622   4.446   3.310   5.147 -2.1470  1.4376  1.0423
17403TIP3   OH273623   1.562   2.206   2.442  0.1827  0.0067 -0.3019
17403TIP3    H173624   1.612   2.148   2.500 -0.2066 -0.1195 -0.0853
17403TIP3    H273625   1.628   2.253   2.392  0.5358  0.3113  0.4344
17404TIP3   OH273626   5.273   4.840   0.922 -0.2793 -0.3792 -0.0335
17404TIP3    H173627   5.257   4.746   0.914  0.1868 -0.3324 -1.9219
17404TIP3    H273628   5.364   4.851   0.893 -0.3985  0.6792 -0.0145
17405TIP3   OH273629   0.167   5.895   3.302  0.0370 -0.0628  0.4901
17405TIP3    H173630   0.126   5.809   3.303  1.3762 -0.7112  1.1456
17405TIP3    H273631   0.111   5.947   3.244 -0.2379 -1.6447 -0.7410
17406TIP3   OH273632   5.047   0.753   2.706 -0.5102  0.8339  0.0794
17406TIP3    H173633   5.040   0.848   2.694 -1.0324  1.0003  1.4241
17406TIP3    H273634   4.964   0.719   2.671 -1.0053  1.0576  0.9934
17407TIP3   OH273635   6.161   5.182  14.127 -0.0764 -0.4875  0.1500
17407TIP3    H173636   6.223   5.214  14.192 -0.3200  3.1770 -1.1846
17407TIP3    H273637   6.078   5.175  14.174  0.4158 -1.1220  0.9482
17408TIP3   OH273638   4.230   1.578   1.943  0.0735  0.4748 -0.1700
17408TIP3    H173639   4.222   1.565   2.037 -2.7988  1.8052 -0.1325
17408TIP3    H273640   4.198   1.496   1.905  1.5400 -0.1871 -0.0336
17409TIP3   OH273641   2.206   6.183  15.024  0.1973 -0.3714  0.1184
17409TIP3    H173642   2.190   6.255  14.962  0.8234 -0.1617  0.2001
17409TIP3    H273643   2.230   6.109  14.969  3.2067  0.4520  0.1916
17410TIP3   OH273644   5.767   0.691   1.479 -0.2041  0.4925 -0.4639
17410TIP3    H173645   5.835   0.665   1.540  0.9322  2.5960 -0.7178
17410TIP3    H273646   5.728   0.609   1.448  1.3260 -0.7053  0.6825
17411TIP3   OH273647   6.966   5.731   4.415  0.2450 -0.5075 -0.2127
17411TIP3    H173648   7.056   5.753   4.393  0.5223 -1.2593  0.1139
17411TIP3    H273649   6.914   5.806   4.385  0.9775 -0.0593 -0.3804
17412TIP3   OH273650   6.764   0.269  10.505  0.4339  0.0599 -0.0675
17412TIP3    H173651   6.741   0.357  10.478 -0.6325 -0.1717  0.0260
17412TIP3    H273652   6.696   0.245  10.569 -0.6647 -1.6524 -1.7601
17413TIP3   OH273653   1.410   4.296   5.753 -0.4664 -0.6713 -0.1225
17413TIP3    H173654   1.391   4.354   5.680  1.1763  0.8885  0.6058
17413TIP3    H273655   1.349   4.321   5.821  0.1201  0.1132  0.1270
17414TIP3   OH273656   3.797   0.454   4.766 -0.2536  0.1515 -0.4785
17414TIP3    H173657   3.729   0.423   4.825  1.2684  1.0927  1.9104
17414TIP3    H273658   3.781   0.548   4.758  1.6594  0.7444  1.5609
17415TIP3   OH273659   5.232   6.390   4.802 -0.2382  0.3753 -0.4247
17415TIP3    H173660   5.276   6.308   4.778  0.0718  0.8021 -1.3445
17415TIP3    H273661   5.141   6.375   4.779 -0.5390 -0.3722  1.1306
17416TIP3   OH273662   3.613   7.033   2.251  0.0296  0.1930 -0.5551
17416TIP3    H173663   3.623   7.039   2.156 -2.1284  0.4690 -0.8128
17416TIP3    H273664   3.550   6.962   2.263  0.8750 -0.3771  0.7502
17417TIP3   OH273665   2.951   0.485   3.376 -0.0046  0.8480  0.0851
17417TIP3    H173666   2.866   0.456   3.343  0.0452 -0.0181  0.6838
17417TIP3    H273667   3.010   0.412   3.358  0.6999  1.5625 -0.6097
17418TIP3   OH273668   7.065   4.669   4.977 -0.0598 -0.1515 -0.8487
17418TIP3    H173669   6.990   4.612   4.995 -0.6237  1.2372  1.4929
17418TIP3    H273670   7.032   4.733   4.914 -0.2140 -0.7545 -1.3930
17419TIP3   OH273671   0.160   6.696   3.177  0.7743  0.1362  0.5304
17419TIP3    H173672   0.148   6.642   3.255  0.6670 -0.5497  0.0435
17419TIP3    H273673   0.220   6.766   3.205 -1.9158  1.9621  2.2138
17420TIP3   OH273674   5.217   1.977   3.986  0.2450 -0.5360 -0.1780
17420TIP3    H173675   5.231   1.952   3.894 -0.8196 -0.2976 -0.4127
17420TIP3    H273676   5.238   1.898   4.036  0.2489 -0.8500 -0.6680
17421TIP3   OH273677   0.093   0.108  13.457 -0.0893  0.1785  0.3796
17421TIP3    H173678   0.162   0.175  13.451 -0.4287  0.4006 -2.1832
17421TIP3    H273679   0.118   0.042  13.392 -0.6856 -1.3471  1.6259
17422TIP3   OH273680   5.903   3.399   0.990 -0.1774 -0.0095  0.1219
17422TIP3    H173681   5.976   3.425   0.934 -0.5319  0.5823 -0.0756
17422TIP3    H273682   5.937   3.408   1.079  0.8994 -2.4294  0.0391
17423TIP3   OH273683   0.796   0.198   2.750 -0.5498 -0.1334 -0.0515
17423TIP3    H173684   0.814   0.213   2.657  1.7457  0.0912  0.3796
17423TIP3    H273685   0.710   0.240   2.764 -0.7806  0.1378 -1.9714
17424TIP3   OH273686   6.162   7.026   3.852  0.1161 -0.5474 -0.2578
17424TIP3    H173687   6.074   7.049   3.823  0.9392 -0.7725 -3.3005
17424TIP3    H273688   6.213   7.021   3.771  2.6102 -1.7864  1.2704
17425TIP3   OH273689   1.525   4.187   0.807  0.0780  0.1566  0.5097
17425TIP3    H173690   1.550   4.153   0.892 -0.5715 -0.5373  0.4321
17425TIP3    H273691   1.429   4.186   0.807  0.0325  1.7168  0.3882
17426TIP3   OH273692   6.692   4.909   5.924 -0.0179 -0.1122 -0.1211
17426TIP3    H173693   6.701   4.956   5.841 -1.5600  3.2751  1.4207
17426TIP3    H273694   6.755   4.952   5.982 -0.5039 -0.9124  1.0434
17427TIP3   OH273695   0.705   1.246   3.707 -0.4387 -0.1137 -0.0413
17427TIP3    H173696   0.687   1.256   3.800 -0.7393 -2.1903  0.1772
17427TIP3    H273697   0.778   1.306   3.690  0.5212 -0.6546  1.8525
17428TIP3   OH273698   0.505   5.598   3.260 -0.4223 -0.0094 -0.3359
17428TIP3    H173699   0.452   5.518   3.252 -1.3670  0.5741  0.0142
17428TIP3    H273700   0.560   5.598   3.182  0.3565 -1.5421  0.1539
17429TIP3   OH273701   5.785   0.585   4.771  0.7460  0.3474 -0.2071
17429TIP3    H173702   5.761   0.555   4.858  0.8949 -0.6808 -0.5059
17429TIP3    H273703   5.803   0.504   4.722 -1.3826  0.7403 -1.8058
17430TIP3   OH273704   1.962   2.507   5.674 -0.3964 -0.6144 -0.2849
17430TIP3    H173705   1.949   2.413   5.660 -2.6120 -0.4319  0.2381
17430TIP3    H273706   2.056   2.515   5.694 -0.2420 -2.7667  0.1418
17431TIP3   OH273707   4.542   0.694   2.928 -0.0201 -0.3892  0.2810
17431TIP3    H173708   4.521   0.729   3.015  2.3689 -1.0498  1.2187
17431TIP3    H273709   4.637   0.685   2.929 -0.0426 -1.4967 -2.0166
17432TIP3   OH273710   5.364   4.000   2.530  0.3377  0.2181  0.1286
17432TIP3    H173711   5.454   3.969   2.535 -0.5354 -2.7605 -0.3418
17432TIP3    H273712   5.346   4.010   2.437 -0.2520 -0.8183  0.1113
17433TIP3   OH273713   2.765   1.737   4.525 -0.0362 -0.3066  0.2802
17433TIP3    H173714   2.703   1.669   4.500 -1.9314  1.3365  0.2384
17433TIP3    H273715   2.727   1.777   4.603  0.4060  1.4361 -0.3420
17434TIP3   OH273716   0.635   5.013   6.061  0.0138 -0.3991  0.2658
17434TIP3    H173717   0.646   4.931   6.110 -0.5446 -0.9406 -0.4925
17434TIP3    H273718   0.674   5.080   6.117  2.3286 -1.4584  0.0131
17435TIP3   OH273719   2.889   6.866  13.082  0.6434  0.6915 -0.5658
17435TIP3    H173720   2.916   6.924  13.011 -0.2526  2.4128  0.4579
17435TIP3    H273721   2.874   6.923  13.156  0.9682 -1.0052  0.8793
17436TIP3   OH273722   2.024   3.677   4.515  0.5511 -0.4879  0.2148
17436TIP3    H173723   2.092   3.706   4.455 -0.6196  1.3781 -0.2636
17436TIP3    H273724   1.985   3.601   4.472  1.7085 -1.0431  0.0919
17437TIP3   OH273725   5.942   2.618   3.677 -0.1118 -0.2348 -0.5122
17437TIP3    H173726   5.864   2.565   3.661 -1.0216  0.8680  0.1386
17437TIP3    H273727   5.926   2.699   3.629  0.0459  0.5000  0.6447
17438TIP3   OH273728   5.573   2.516   1.666 -0.0217  0.2789  0.6136
17438TIP3    H173729   5.569   2.427   1.700 -2.2138  0.3531  0.7008
17438TIP3    H273730   5.526   2.511   1.582  0.8644  1.1229  0.0548
17439TIP3   OH273731   4.063   4.127   3.836 -0.2779 -0.0331 -0.2060
17439TIP3    H173732   3.985   4.130   3.891  0.3985 -0.5903  0.8096
17439TIP3    H273733   4.087   4.035   3.832  1.9211  0.3323  1.8720
17440TIP3   OH273734   6.701   3.186   3.816  0.0844 -0.0889 -0.2716
17440TIP3    H173735   6.631   3.125   3.793 -1.1410  0.3264  2.0988
17440TIP3    H273736   6.665   3.273   3.799 -0.6351  0.2033  2.2714
17441TIP3   OH273737   3.407   2.240   5.646 -0.4394  0.3277 -0.4549
17441TIP3    H173738   3.484   2.190   5.618  0.2511  0.6762  0.7400
17441TIP3    H273739   3.439   2.293   5.719 -1.0971  2.6551 -1.7677
17442TIP3   OH273740   6.275   1.763   2.456  0.3465 -0.2330 -0.1615
17442TIP3    H173741   6.300   1.795   2.542  0.5449 -0.9174  0.0359
17442TIP3    H273742   6.211   1.827   2.424 -0.7333 -0.6921  1.0399
17443TIP3   OH273743   1.015   3.056   3.807  0.6740 -0.0117  0.3750
17443TIP3    H173744   1.051   3.144   3.812  0.4521  0.1810 -0.9104
17443TIP3    H273745   0.926   3.068   3.772  0.9503 -0.7865 -0.6548
17444TIP3   OH273746   1.308   1.627   3.786  0.5062  0.1559  0.0629
17444TIP3    H173747   1.304   1.577   3.868  2.0642 -1.9673 -1.0521
17444TIP3    H273748   1.338   1.564   3.721 -2.6640  1.1931 -2.6870
17445TIP3   OH273749   2.708   0.395   3.335  0.3372  0.3076 -0.2967
17445TIP3    H173750   2.650   0.355   3.270 -1.4244 -0.1945  1.4834
17445TIP3    H273751   2.687   0.350   3.417  4.0055 -0.5858  0.2986
17446TIP3   OH273752   1.433   3.139   5.275  0.7582 -0.5917  0.4752
17446TIP3    H173753   1.339   3.121   5.270  0.6274  0.2062 -0.2710
17446TIP3    H273754   1.466   3.078   5.341 -0.8815  1.6176  3.5540
17447TIP3   OH273755   4.422   1.644  11.632  0.4875 -0.6872 -0.5264
17447TIP3    H173756   4.347   1.680  11.585  0.8768  0.3874 -0.3347
17447TIP3    H273757   4.433   1.700  11.708  1.2658 -1.0593 -0.3545
17448TIP3   OH273758   1.065   4.856   3.502 -0.3397 -0.2317 -0.6914
17448TIP3    H173759   1.127   4.784   3.494 -0.4687 -0.4212 -0.0401
17448TIP3    H273760   1.043   4.858   3.595 -1.4759 -0.3029 -0.9525
17449TIP3   OH273761   5.938   1.744   4.543 -0.3689 -0.0207 -0.4822
17449TIP3    H173762   5.880   1.818   4.565 -0.5852 -0.2581 -0.2411
17449TIP3    H273763   5.950   1.750   4.449  1.2380  1.5071 -0.2341
17450TIP3   OH273764   6.158   1.233  14.188  0.3385  0.1158  0.1540
17450TIP3    H173765   6.068   1.264  14.177  0.5499  2.3097  3.3940
17450TIP3    H273766   6.154   1.170  14.260  1.2583 -0.9429 -0.6654
17451TIP3   OH273767   6.802   1.973   5.372 -0.1576 -0.0952  0.0545
17451TIP3    H173768   6.724   1.979   5.428 -0.3319 -2.4715  0.1952
17451TIP3    H273769   6.769   1.934   5.290  0.7990 -0.7445 -0.0349
17452TIP3   OH273770   3.555   4.053   0.780 -0.4940  0.0283 -0.1386
17452TIP3    H173771   3.579   3.962   0.764  0.1027 -0.0505  1.0966
17452TIP3    H273772   3.460   4.056   0.764 -0.7195 -1.0621  0.8660
17453TIP3   OH273773   5.502   2.351   4.798  0.2512  0.1249 -0.1080
17453TIP3    H173774   5.427   2.398   4.760  1.6182  0.0404 -3.1616
17453TIP3    H273775   5.540   2.413   4.860 -0.9092  1.0669 -0.2923
17454TIP3   OH273776   6.097   2.025   4.733 -0.3431  0.5325 -0.2782
17454TIP3    H173777   6.182   2.069   4.743 -0.7549  1.2735 -0.0416
17454TIP3    H273778   6.049   2.079   4.670 -0.7007  0.1890 -0.3074
17455TIP3   OH273779   2.314   2.321   3.171  0.0692 -1.1009  0.1613
17455TIP3    H173780   2.239   2.271   3.138 -0.6118 -1.6554  2.3856
17455TIP3    H273781   2.278   2.406   3.195  0.3719 -1.0036  0.2815
17456TIP3   OH273782   7.164   6.988   5.574 -0.1201  0.1446  0.0263
17456TIP3    H173783   7.229   7.032   5.628  0.3377  0.0020 -0.3996
17456TIP3    H273784   7.185   6.895   5.581 -0.5764  0.0536  0.2670
17457TIP3   OH273785   3.859   0.329   5.054  0.2355 -0.2636 -0.7401
17457TIP3    H173786   3.879   0.242   5.020 -1.6505 -0.9903 -0.1312
17457TIP3    H273787   3.772   0.349   5.020  0.0533  0.7704  0.2579
17458TIP3   OH273788   1.138   3.086   5.558 -0.3437 -0.4430 -0.1637
17458TIP3    H173789   1.184   3.169   5.552  0.7372 -0.9911  0.2121
17458TIP3    H273790   1.180   3.030   5.492 -0.5952 -0.8913  0.0471
17459TIP3   OH273791   6.280   3.854   3.360  0.3788  0.6928  0.7029
17459TIP3    H173792   6.358   3.878   3.410  0.5179 -1.2530  1.4978
17459TIP3    H273793   6.209   3.850   3.424 -0.1213  1.1524  0.2034
17460TIP3   OH273794   7.164   0.233   2.145 -0.8727  0.2806 -0.0595
17460TIP3    H173795   7.157   0.157   2.086 -2.0064 -0.0878  0.5246
17460TIP3    H273796   7.255   0.259   2.139 -0.0070 -2.1842  0.9989
17461TIP3   OH273797   5.877   3.527   3.894 -0.0150  0.1119  0.5466
17461TIP3    H173798   5.906   3.479   3.817  0.3487  0.1516  0.6582
17461TIP3    H273799   5.909   3.476   3.968  0.3064  0.4836  0.6664
17462TIP3   OH273800   1.809   6.063   2.532 -0.2728 -0.9501 -0.6536
17462TIP3    H173801   1.721   6.094   2.511  0.5366  1.0010 -1.3775
17462TIP3    H273802   1.866   6.109   2.471  1.4135 -1.0060  0.7998
17463TIP3   OH273803   4.365   2.729   4.398 -0.2288 -0.1671 -0.5750
17463TIP3    H173804   4.430   2.788   4.359  1.6450 -1.0576  1.0344
17463TIP3    H273805   4.402   2.641   4.385  0.0390 -0.5631  2.2464
17464TIP3   OH273806   1.674   0.850   6.042 -0.2225 -0.0990 -0.0862
17464TIP3    H173807   1.615   0.780   6.016  0.5866 -0.9261  0.2655
17464TIP3    H273808   1.700   0.827   6.132 -1.3237  1.5815  0.7236
17465TIP3   OH273809   2.946   6.143   4.492 -0.1286 -0.2844  0.2284
17465TIP3    H173810   2.865   6.169   4.449 -0.0831  0.8606  0.8080
17465TIP3    H273811   2.977   6.222   4.536 -0.8207 -1.6044  3.3994
17466TIP3   OH273812   2.019   3.557   5.277 -0.8656  0.4698 -0.0537
17466TIP3    H173813   2.074   3.495   5.229 -0.2918  0.8284  0.1326
17466TIP3    H273814   2.078   3.629   5.299 -1.2221  0.5030  0.8204
17467TIP3   OH273815   4.473   4.141   3.529  0.1308  0.2086  0.1655
17467TIP3    H173816   4.511   4.058   3.500 -1.0672 -0.4386  0.4049
17467TIP3    H273817   4.379   4.131   3.516 -0.0102  1.6627 -0.0980
17468TIP3   OH273818   5.082   2.570   4.311 -0.1217 -0.2743  0.0425
17468TIP3    H173819   5.141   2.505   4.274  2.7127  2.6934 -1.1664
17468TIP3    H273820   5.028   2.599   4.237  0.5794  0.6255 -0.1437
17469TIP3   OH273821   4.593   3.347   1.848  0.3221  0.0174 -0.3887
17469TIP3    H173822   4.684   3.340   1.819  0.3595 -1.4632  0.0120
17469TIP3    H273823   4.570   3.259   1.877 -1.3130  0.3164 -0.6685
17470TIP3   OH273824   1.815   0.030   1.645 -0.0765  0.1110 -0.0083
17470TIP3    H173825   1.756   0.103   1.624  2.0203  1.3126 -2.2507
17470TIP3    H273826   1.783  -0.042   1.591 -1.2052 -0.1969  1.0247
17471TIP3   OH273827   1.543   1.025  11.460 -0.1374 -0.8553 -0.0019
17471TIP3    H173828   1.500   0.977  11.531 -2.1396 -1.5539 -1.5844
17471TIP3    H273829   1.538   1.117  11.486 -0.7224 -1.1130  0.8281
17472TIP3   OH273830   0.053   3.558   3.887  0.0281 -0.4432 -0.0160
17472TIP3    H173831   0.012   3.636   3.925  0.1244 -1.3235  2.0390
17472TIP3    H273832  -0.011   3.525   3.824 -0.3362  0.8414 -0.3488
17473TIP3   OH273833   4.046   1.084   0.025  0.7369 -0.3792  0.8430
17473TIP3    H173834   4.085   1.100  -0.061 -1.5144 -0.5367 -0.2938
17473TIP3    H273835   4.050   1.169   0.070  0.3614  0.1728 -0.1378
17474TIP3   OH273836   3.820   2.762   2.889 -0.7427  0.1006 -0.8381
17474TIP3    H173837   3.747   2.765   2.951 -1.0500 -0.0230 -1.1899
17474TIP3    H273838   3.816   2.846   2.843  0.4730  0.8864  0.4126
17475TIP3   OH273839   5.324   3.115   3.917 -0.4793 -0.3827  0.1878
17475TIP3    H173840   5.346   3.179   3.850 -0.4664 -1.9751 -1.4044
17475TIP3    H273841   5.324   3.165   3.999  1.5984  1.2132 -0.6820
17476TIP3   OH273842   0.714   1.488  10.665 -0.2846 -0.0358  0.1895
17476TIP3    H173843   0.666   1.446  10.594  1.5615 -0.3705 -0.9380
17476TIP3    H273844   0.751   1.415  10.715  1.0789  0.1702 -0.4577
17477TIP3   OH273845   1.591   0.478   4.243  0.1115  0.6068 -0.1384
17477TIP3    H173846   1.548   0.563   4.239 -0.7792  0.1197 -1.6820
17477TIP3    H273847   1.676   0.492   4.202  0.6455  1.1195  1.1183
17478TIP3   OH273848   0.388   1.166   4.657  0.3361  0.9180 -0.0356
17478TIP3    H173849   0.302   1.126   4.650  0.5953  0.5375 -1.3146
17478TIP3    H273850   0.394   1.195   4.748 -0.0334 -1.5829  0.8851
17479TIP3   OH273851   4.786   0.213   5.269  0.6931  0.4430  0.2252
17479TIP3    H173852   4.879   0.236   5.271  0.9677 -0.6501  2.1244
17479TIP3    H273853   4.776   0.147   5.338 -1.4951  0.5390  0.0639
17480TIP3   OH273854   6.781   4.474   3.710 -0.4581 -0.2653 -0.6958
17480TIP3    H173855   6.828   4.394   3.734  0.6750 -0.4550 -3.1714
17480TIP3    H273856   6.841   4.545   3.733 -0.5188 -0.2804 -0.4958
17481TIP3   OH273857   4.369   5.276   0.992  0.2711 -0.0266 -0.3075
17481TIP3    H173858   4.286   5.283   0.945 -1.0966 -0.7144  1.9036
17481TIP3    H273859   4.384   5.364   1.028 -0.1467 -0.2117  0.3254
17482TIP3   OH273860   5.971   1.187   1.417  0.3824  0.2643  0.2842
17482TIP3    H173861   6.019   1.238   1.351 -0.9743  1.1550 -0.0567
17482TIP3    H273862   5.915   1.128   1.366 -0.7989  1.0774  0.6078
17483TIP3   OH273863   5.801   1.430   2.469  0.0266 -0.3732 -0.5403
17483TIP3    H173864   5.801   1.383   2.385 -1.1074  0.1296 -0.8379
17483TIP3    H273865   5.712   1.421   2.501  0.2576  0.0970  0.2481
17484TIP3   OH273866   6.273   6.701   3.400  0.5939  0.3354  0.0696
17484TIP3    H173867   6.291   6.607   3.393 -0.2028  0.1955 -0.2137
17484TIP3    H273868   6.177   6.708   3.392  0.4627  1.0174  1.7042
17485TIP3   OH273869   4.082   0.802   5.452 -0.6433 -0.0514 -0.0368
17485TIP3    H173870   4.174   0.829   5.453 -0.5568 -0.1015 -1.8351
17485TIP3    H273871   4.072   0.747   5.529  0.6483  0.5290  0.5769
17486TIP3   OH273872   6.215   5.288   4.569 -0.2949  0.3024  0.2486
17486TIP3    H173873   6.141   5.275   4.629 -0.7585  1.2709 -0.0914
17486TIP3    H273874   6.267   5.209   4.579 -0.8035  0.0687  1.3076
17487TIP3   OH273875   0.143   5.176   5.495  0.0194 -0.6170 -0.0375
17487TIP3    H173876   0.060   5.217   5.520  1.0396  0.5550  1.5650
17487TIP3    H273877   0.117   5.090   5.462 -2.0111  0.4781 -1.5954
17488TIP3   OH273878   2.862   5.141   2.834 -0.5493  0.3262  0.2298
17488TIP3    H173879   2.849   5.210   2.900 -0.9105  1.0187 -0.5505
17488TIP3    H273880   2.939   5.168   2.785 -1.4066  0.8490 -0.8805
17489TIP3   OH273881   2.143   7.188   4.023 -0.6618 -0.3854  0.2794
17489TIP3    H173882   2.168   7.274   3.989 -0.3201 -1.0119 -1.1498
17489TIP3    H273883   2.053   7.198   4.052 -0.2636  0.7333  1.1704
17490TIP3   OH273884   4.601   3.507   2.655  0.3187  0.2880  0.2350
17490TIP3    H173885   4.555   3.579   2.699 -0.7900  0.3150 -0.8790
17490TIP3    H273886   4.557   3.428   2.686 -0.0961  0.2710 -0.3810
17491TIP3   OH273887   3.174   5.254   3.153 -0.0291  0.5101  0.0368
17491TIP3    H173888   3.205   5.218   3.070  1.0715  0.3955  0.4859
17491TIP3    H273889   3.119   5.328   3.128  0.6781  0.7759 -0.7859
17492TIP3   OH273890   3.880   2.859  13.810  0.1375 -0.0840 -0.7535
17492TIP3    H173891   3.861   2.767  13.828 -0.9784  0.0824 -1.0210
17492TIP3    H273892   3.953   2.880  13.868  0.3115 -1.0986 -0.5843
17493TIP3   OH273893   0.619   5.976   3.706  0.2411 -0.0089  0.4124
17493TIP3    H173894   0.545   6.027   3.739  0.4303  0.1409  0.6052
17493TIP3    H273895   0.672   5.956   3.783  1.5429  1.7241  0.0489
17494TIP3   OH273896   5.584   5.604   5.115 -0.5060 -0.3600 -0.1124
17494TIP3    H173897   5.657   5.666   5.116  0.0761 -0.9312  2.8485
17494TIP3    H273898   5.621   5.524   5.078 -0.2327 -0.0333 -0.5511
17495TIP3   OH273899   4.325   2.390   4.580 -0.0399  0.6314 -0.0043
17495TIP3    H173900   4.284   2.377   4.665 -1.0802  0.7193 -0.4744
17495TIP3    H273901   4.296   2.314   4.528  0.0096  0.9350 -0.4849
17496TIP3   OH273902   0.359   7.179   0.295  0.4053  0.1342  0.0268
17496TIP3    H173903   0.347   7.099   0.244  1.1154 -1.6279  2.4526
17496TIP3    H273904   0.424   7.230   0.246  2.7444 -2.4854  0.1415
17497TIP3   OH273905   7.082   2.531   4.993 -0.1534  0.0537  0.1315
17497TIP3    H173906   7.161   2.584   4.987  0.4767 -0.6642  1.5447
17497TIP3    H273907   7.042   2.555   5.077 -1.3188  0.2383 -0.4544
17498TIP3   OH273908   4.999   4.274   1.448 -0.2317 -0.0380 -0.0751
17498TIP3    H173909   5.065   4.301   1.384  0.0497 -0.9959 -0.2064
17498TIP3    H273910   5.030   4.189   1.480 -1.1588 -0.2839  0.2051
17499TIP3   OH273911   0.480   0.424  12.235  0.3066  0.5248 -0.0025
17499TIP3    H173912   0.389   0.435  12.264 -0.4649 -1.7545 -1.2816
17499TIP3    H273913   0.477   0.437  12.140 -0.0063 -4.9933 -1.0773
17500TIP3   OH273914   4.004   4.768   2.941 -0.7144 -0.2359 -0.4310
17500TIP3    H173915   3.977   4.687   2.984  1.1931 -0.3224  0.7302
17500TIP3    H273916   4.074   4.802   2.997 -1.0719  1.9250 -1.2004
17501TIP3   OH273917   0.128   2.298   5.349 -0.5414 -0.3912 -0.4296
17501TIP3    H173918   0.057   2.305   5.285 -0.0642  1.0820 -0.8367
17501TIP3    H273919   0.114   2.212   5.390 -0.4973 -1.6870 -2.9147
17502TIP3   OH273920   4.045   6.212   2.874 -0.0549 -0.1705  0.2141
17502TIP3    H173921   4.089   6.139   2.918  0.3412 -0.2119 -0.2444
17502TIP3    H273922   4.114   6.275   2.857 -0.2817  0.0274  0.0197
17503TIP3   OH273923   3.702   5.403   2.453 -0.1677  0.2613  0.0310
17503TIP3    H173924   3.643   5.465   2.496 -0.6930 -0.7585  0.8268
17503TIP3    H273925   3.704   5.328   2.512 -0.0670 -0.7486 -1.2324
17504TIP3   OH273926   2.988   7.030   0.970  0.6628 -0.5780  0.2269
17504TIP3    H173927   3.050   6.989   1.031  0.5115 -0.1059  0.6995
17504TIP3    H273928   2.969   7.115   1.008 -0.6938 -0.9198  0.3614
17505TIP3   OH273929   3.164   5.534   0.826 -0.7815  0.7123  0.0879
17505TIP3    H173930   3.075   5.562   0.804 -0.5500  2.5810  1.2577
17505TIP3    H273931   3.203   5.508   0.743 -1.8216  1.7616 -0.7532
17506TIP3   OH273932   3.239   1.233   2.098 -0.0672 -0.0810 -0.2735
17506TIP3    H173933   3.246   1.201   2.188 -2.6186 -0.4265 -0.1282
17506TIP3    H273934   3.151   1.268   2.092 -0.0690 -0.3390 -2.7381
17507TIP3   OH273935   2.323   3.061   3.849  0.0004  0.0664 -0.1538
17507TIP3    H173936   2.343   2.969   3.835  0.5582  0.1351  0.2011
17507TIP3    H273937   2.393   3.094   3.904  0.2462  0.9037 -0.9352
17508TIP3   OH273938   4.330   1.232   1.758  0.3349 -0.0607 -0.0859
17508TIP3    H173939   4.297   1.279   1.681 -0.3339 -0.2870  0.0560
17508TIP3    H273940   4.252   1.213   1.810  0.6627 -0.7831  0.1603
17509TIP3   OH273941   3.357   1.257   5.307  0.3278 -0.5279 -0.5455
17509TIP3    H173942   3.436   1.294   5.348  0.5432 -0.3232 -1.1335
17509TIP3    H273943   3.288   1.272   5.371  0.9071 -1.4191  0.3231
17510TIP3   OH273944   3.503   5.143   2.964 -0.1822 -0.3328  0.1994
17510TIP3    H173945   3.546   5.070   2.920 -1.1706 -1.1949  0.6208
17510TIP3    H273946   3.429   5.165   2.907  0.1912  0.4563  0.0007
17511TIP3   OH273947   0.498   5.879   3.367 -0.0772 -0.3893  0.3237
17511TIP3    H173948   0.487   5.790   3.334 -0.4600 -0.3117  0.2344
17511TIP3    H273949   0.461   5.877   3.455 -1.1054 -0.0553 -0.0829
17512TIP3   OH273950   3.785   5.617   5.821  0.0943  0.6921 -0.1014
17512TIP3    H173951   3.722   5.687   5.840 -0.3297 -0.0686  1.4766
17512TIP3    H273952   3.739   5.536   5.846  0.2847 -0.2758 -2.5747
17513TIP3   OH273953   2.234   1.326   5.922  0.1681 -0.0146 -0.5049
17513TIP3    H173954   2.262   1.414   5.897 -1.9048  1.3639  1.6023
17513TIP3    H273955   2.298   1.268   5.881  0.2509  2.2538 -4.0934
17514TIP3   OH273956   2.123   4.722   4.371  0.0038  0.1606 -0.2389
17514TIP3    H173957   2.199   4.698   4.318 -0.5190 -0.0068 -0.9253
17514TIP3    H273958   2.068   4.644   4.371 -1.7001  1.2509 -2.4745
17515TIP3   OH273959   5.724   0.939  14.788 -0.2274  0.4405  0.3509
17515TIP3    H173960   5.793   1.005  14.797 -1.0567  1.0601  3.0658
17515TIP3    H273961   5.643   0.987  14.798 -0.9719 -0.6821 -0.0749
17516TIP3   OH273962   1.587   1.755   4.579 -0.6537 -0.1633  0.1761
17516TIP3    H173963   1.674   1.793   4.591 -0.5809 -0.2264 -0.1489
17516TIP3    H273964   1.604   1.667   4.543 -0.8688  0.0658 -0.5033
17517TIP3   OH273965   0.169   0.109   0.683 -0.5520 -0.8085  0.0738
17517TIP3    H173966   0.110   0.183   0.670 -1.5419 -1.1670  2.1487
17517TIP3    H273967   0.162   0.058   0.603 -2.3450 -0.3576 -0.0864
17518TIP3   OH273968   2.207   1.648   2.169  0.7095 -0.0250  0.6043
17518TIP3    H173969   2.130   1.646   2.226  0.5159  0.5987  0.3724
17518TIP3    H273970   2.240   1.558   2.171  0.3872 -0.1379  1.2623
17519TIP3   OH273971   5.045   6.886   4.423 -0.0359 -0.0957  0.5382
17519TIP3    H173972   4.961   6.931   4.420  0.3501  0.6308  0.3851
17519TIP3    H273973   5.090   6.924   4.498  1.2232  1.4920 -0.9500
17520TIP3   OH273974   1.181   1.576   5.520  0.1756  0.0753 -0.1828
17520TIP3    H173975   1.101   1.539   5.482  0.8796  0.4302 -2.0903
17520TIP3    H273976   1.150   1.625   5.597 -1.4110 -0.0190 -0.7296
17521TIP3   OH273977   1.207   3.586   3.962  0.2186 -0.3525 -0.1399
17521TIP3    H173978   1.126   3.600   3.913  0.4140  0.3418 -0.2812
17521TIP3    H273979   1.196   3.638   4.042 -1.0358 -3.2181  1.6805
17522TIP3   OH273980   1.252   5.111   3.709  0.6864 -0.6876 -0.0898
17522TIP3    H173981   1.161   5.102   3.680  1.3744 -0.5268 -2.5474
17522TIP3    H273982   1.267   5.205   3.711  0.7506 -0.7053  0.5752
17523TIP3   OH273983   5.022   5.518   4.801 -0.0335 -0.1190 -0.6849
17523TIP3    H173984   4.943   5.470   4.776  0.5634 -1.5331  0.0338
17523TIP3    H273985   4.990   5.588   4.858 -0.9748  0.7060 -2.1488
17524TIP3   OH273986   3.027   2.860   0.357  0.2187  0.3625 -0.3722
17524TIP3    H173987   3.103   2.802   0.357  0.8799  1.2247 -0.4093
17524TIP3    H273988   3.060   2.944   0.327 -1.1967  0.2082 -2.5651
17525TIP3   OH273989   2.897   0.036   4.407  0.0625  0.3251 -0.2906
17525TIP3    H173990   2.874   0.026   4.499  1.8633 -4.5032 -0.1159
17525TIP3    H273991   2.841  -0.028   4.361 -0.5177  2.3255 -2.6090
17526TIP3   OH273992   6.524   5.857  11.309  0.4811 -0.1022  0.0697
17526TIP3    H173993   6.477   5.832  11.229  0.3595 -1.9543  0.6832
17526TIP3    H273994   6.457   5.864  11.376  0.9620 -2.6002  0.9146
17527TIP3   OH273995   6.754   5.782   5.058 -0.0067  0.1918  0.7414
17527TIP3    H173996   6.771   5.710   5.119  1.2511 -1.4086 -1.3963
17527TIP3    H273997   6.706   5.742   4.986 -1.6436  2.0858  0.6811
17528TIP3   OH273998   1.830   0.579   1.576 -0.3366 -0.6617 -0.2638
17528TIP3    H173999   1.786   0.653   1.618 -0.4824 -0.1240 -1.3428
17528TIP3    H274000   1.760   0.517   1.557 -1.1483  1.1212 -4.0010
17529TIP3   OH274001   5.779   6.735   2.680  0.2391  0.4196 -0.3089
17529TIP3    H174002   5.822   6.707   2.599  1.6203  1.1922  0.1260
17529TIP3    H274003   5.765   6.654   2.729 -1.4113 -0.1770 -1.6409
17530TIP3   OH274004   2.778   1.243   3.888  0.0245  0.0890 -0.0305
17530TIP3    H174005   2.726   1.290   3.823  0.8438 -0.2780 -0.9594
17530TIP3    H274006   2.807   1.164   3.844 -1.0194 -1.1526  1.4036
17531TIP3   OH274007   4.922   5.925   5.294  0.2227  0.0934  0.0506
17531TIP3    H174008   4.906   5.832   5.311  2.3687 -0.2596  0.3732
17531TIP3    H274009   4.955   5.959   5.377 -0.1096  1.0583 -0.2042
17532TIP3   OH274010   2.251   5.172   3.238  0.2341 -0.2314  0.6727
17532TIP3    H174011   2.266   5.165   3.332 -2.0203  1.9975  1.3188
17532TIP3    H274012   2.162   5.207   3.230  0.6340  0.4130 -2.2668
17533TIP3   OH274013   0.399   5.588   5.129  0.4287  0.2697  0.1824
17533TIP3    H174014   0.423   5.580   5.221  1.0196  0.5372  0.0558
17533TIP3    H274015   0.460   5.653   5.094 -1.6484  2.3823  0.2643
17534TIP3   OH274016   1.781   0.615   3.383 -0.7258  1.0367 -0.7023
17534TIP3    H174017   1.803   0.551   3.451 -0.4152  1.9513  0.0780
17534TIP3    H274018   1.734   0.564   3.316  4.5076 -1.4389 -3.1096
17535TIP3   OH274019   3.242   2.893   4.341  0.3460  0.3576  0.1429
17535TIP3    H174020   3.151   2.868   4.331  0.4576  0.3901 -1.0310
17535TIP3    H274021   3.253   2.904   4.436 -0.1990 -2.1177  0.5740
17536TIP3   OH274022   4.341   0.395  12.759  0.0106 -0.6432 -0.0135
17536TIP3    H174023   4.300   0.341  12.691 -2.1500 -0.8017  1.3160
17536TIP3    H274024   4.409   0.444  12.713 -1.4750 -0.6061 -2.3313
17537TIP3   OH274025   7.154   2.218  14.088 -0.5329  0.6557  0.1766
17537TIP3    H174026   7.091   2.150  14.063  0.2359  0.1167 -0.3384
17537TIP3    H274027   7.100   2.295  14.105 -1.4446 -0.1536  1.0538
17538TIP3   OH274028   2.722   4.623   0.137  0.0566 -0.6830  0.9706
17538TIP3    H174029   2.673   4.657   0.212  1.5912  1.3307  1.1454
17538TIP3    H274030   2.735   4.531   0.157 -4.4233 -1.6560  0.4358
17539TIP3   OH274031   6.456   2.958   3.990  0.4348 -0.1819 -0.1774
17539TIP3    H174032   6.366   2.925   3.990  0.6743 -0.8636  0.3755
17539TIP3    H274033   6.489   2.935   4.077  1.2682 -0.2698 -0.5157
17540TIP3   OH274034   1.162   4.954   3.074 -0.0830  0.0220 -0.3269
17540TIP3    H174035   1.152   4.998   3.159 -1.8056 -1.1767  0.1572
17540TIP3    H274036   1.183   5.024   3.012 -1.6824  1.3748  0.5810
17541TIP3   OH274037   0.078   4.862   4.730 -0.0960 -0.1335 -0.4007
17541TIP3    H174038   0.026   4.905   4.662 -0.3672 -0.1729 -0.2211
17541TIP3    H274039   0.028   4.875   4.811  0.6977  0.7600 -0.0331
17542TIP3   OH274040   0.710   7.009   3.588 -0.3567 -0.3673  0.6835
17542TIP3    H174041   0.647   7.017   3.660 -2.1191  0.1926 -0.8737
17542TIP3    H274042   0.681   7.071   3.522  1.3145 -0.7543 -0.4922
17543TIP3   OH274043   2.601   0.995   4.105 -0.0202  0.1278 -0.2294
17543TIP3    H174044   2.650   0.945   4.171 -2.2885  0.0188  1.4880
17543TIP3    H274045   2.595   1.083   4.142 -0.6263  0.2793 -0.6879
17544TIP3   OH274046   2.372   3.608   4.163 -0.6603  0.2152  0.4298
17544TIP3    H174047   2.465   3.624   4.181 -0.3266  0.6090 -1.4210
17544TIP3    H274048   2.356   3.519   4.195  0.2287  0.2933  1.1434
17545TIP3   OH274049   4.926   3.978   3.622  0.5077 -0.1250 -0.4996
17545TIP3    H174050   4.918   3.941   3.709  1.2076 -0.2852 -0.5031
17545TIP3    H274051   4.869   3.923   3.567 -0.2995  0.2657 -0.0651
17546TIP3   OH274052   4.409   3.888   4.487  0.0904  0.0723  0.5055
17546TIP3    H174053   4.338   3.951   4.472  0.6634  0.6441  0.1935
17546TIP3    H274054   4.399   3.863   4.579  0.6184  1.5622  0.9894
17547TIP3   OH274055   5.698   5.316  13.511  0.9666 -0.3937  0.4064
17547TIP3    H174056   5.786   5.290  13.486  0.9450  0.3530 -0.4752
17547TIP3    H274057   5.655   5.338  13.429 -0.0227 -0.6647  0.8329
17548TIP3   OH274058   0.772   2.715   3.078  0.0008 -0.0329 -0.1539
17548TIP3    H174059   0.859   2.706   3.040  0.2002 -2.5523  0.7292
17548TIP3    H274060   0.787   2.719   3.172 -0.7490  1.7935 -0.0669
17549TIP3   OH274061   6.508   1.288   4.645 -0.2507  0.2653 -0.0473
17549TIP3    H174062   6.413   1.285   4.648 -0.3141  1.9656  0.4921
17549TIP3    H274063   6.529   1.369   4.598  0.9184  0.5616  0.9190
17550TIP3   OH274064   1.653   7.144   0.538 -0.0438  0.3233 -0.9042
17550TIP3    H174065   1.708   7.074   0.574 -0.1916 -0.6861 -2.5376
17550TIP3    H274066   1.609   7.181   0.614 -1.5175 -2.7196 -0.1375
17551TIP3   OH274067   6.397   6.033   3.128 -0.1802  0.0099  0.1040
17551TIP3    H174068   6.423   6.083   3.050 -2.9154  1.5944  0.0903
17551TIP3    H274069   6.455   6.065   3.197  1.3873 -0.4511 -0.9232
17552TIP3   OH274070   2.643   5.116   5.319  0.0623  0.4790 -0.5490
17552TIP3    H174071   2.564   5.115   5.374 -0.2426 -1.3948 -0.9474
17552TIP3    H274072   2.612   5.092   5.232  0.9529  0.5891 -0.9072
17553TIP3   OH274073   3.600   5.964   4.431  0.4947  0.4702 -0.1227
17553TIP3    H174074   3.521   5.977   4.484  0.8744  1.5686  0.2011
17553TIP3    H274075   3.671   5.957   4.496  0.7767  0.3815 -0.4387
17554TIP3   OH274076   3.708   1.226  14.348  0.5460 -0.2684 -0.2319
17554TIP3    H174077   3.672   1.218  14.259  0.2427  0.3467 -0.1646
17554TIP3    H274078   3.795   1.263  14.336 -0.1423  1.4770 -0.1765
17555TIP3   OH274079   6.939   7.054   5.412  0.2793  0.1162  0.1147
17555TIP3    H174080   6.856   7.068   5.457  1.1721 -0.4934  2.0646
17555TIP3    H274081   7.004   7.046   5.483  2.1644  1.5169 -1.3397
17556TIP3   OH274082   2.323   5.112  14.696  0.0975 -0.0648  0.2182
17556TIP3    H174083   2.305   5.023  14.664 -0.8004  0.3522 -0.5132
17556TIP3    H274084   2.343   5.101  14.789  0.4023 -1.0725  0.0424
17557TIP3   OH274085   6.945   3.175  11.370 -0.3315 -0.3058  0.1081
17557TIP3    H174086   6.915   3.158  11.281  1.2201  0.1607 -0.5337
17557TIP3    H274087   6.929   3.268  11.384 -1.9805 -0.6591  0.9225
17558TIP3   OH274088   4.646   5.535   2.840  0.6330 -0.3965 -0.0608
17558TIP3    H174089   4.650   5.610   2.901  0.5710  0.4883 -1.1097
17558TIP3    H274090   4.575   5.558   2.780 -1.3655 -2.6326  1.2623
17559TIP3   OH274091   0.900   3.653   3.495  0.3034  0.1691  0.0847
17559TIP3    H174092   0.871   3.745   3.496  1.3067  0.4837  0.6132
17559TIP3    H274093   0.887   3.626   3.404 -0.0128  0.8241 -0.0739
17560TIP3   OH274094   3.846   7.040   1.232 -0.2406  0.0191 -0.5679
17560TIP3    H174095   3.934   7.004   1.223  0.1770  0.1024  2.2347
17560TIP3    H274096   3.859   7.127   1.269 -1.4697  0.0086 -0.0532
17561TIP3   OH274097   0.814   1.665   4.250 -0.1006  0.6411  0.3438
17561TIP3    H174098   0.859   1.736   4.295  2.5141 -0.4521 -0.3339
17561TIP3    H274099   0.808   1.693   4.159 -1.1734  0.9461  0.5062
17562TIP3   OH274100   6.944   3.980   2.622 -0.7442  0.0532  0.1835
17562TIP3    H174101   6.878   3.968   2.553 -1.3926  0.9086  0.6359
17562TIP3    H274102   6.913   3.926   2.694 -0.8599  0.3122  0.3300
17563TIP3   OH274103   5.552   2.554   2.186 -0.4642  0.1879 -0.4943
17563TIP3    H174104   5.537   2.592   2.272  0.9961  1.7949 -0.8977
17563TIP3    H274105   5.473   2.575   2.136 -0.7724  0.3836  0.0774
17564TIP3   OH274106   0.263   0.949   0.122  0.7384 -0.3337  0.3123
17564TIP3    H174107   0.238   0.865   0.160  1.2013  0.6053  2.9137
17564TIP3    H274108   0.355   0.960   0.147  1.4656 -0.0871 -2.1179
17565TIP3   OH274109   6.278   6.113   4.303  0.6529  0.2951  0.2058
17565TIP3    H174110   6.224   6.192   4.305  0.3966  0.2221 -1.8575
17565TIP3    H274111   6.244   6.059   4.375 -0.3964  1.2746  0.4748
17566TIP3   OH274112   6.742   3.269   1.269  0.0212  0.0467  0.0302
17566TIP3    H174113   6.732   3.303   1.180  0.7394  0.1269 -0.0241
17566TIP3    H274114   6.659   3.290   1.312  0.4146  1.8439 -0.0148
17567TIP3   OH274115   1.230   4.130   5.314 -0.2424  0.2395 -0.2956
17567TIP3    H174116   1.154   4.083   5.350 -2.0974  1.3441 -2.4702
17567TIP3    H274117   1.229   4.109   5.220  1.1657  1.5923 -0.6593
17568TIP3   OH274118   1.436   5.296   1.543 -0.1002  0.2223  0.0163
17568TIP3    H174119   1.472   5.339   1.620  0.2628  1.0158 -0.5759
17568TIP3    H274120   1.506   5.301   1.477 -0.3032 -0.6795 -0.2837
17569TIP3   OH274121   3.368   5.468   1.762  0.0305 -0.0533 -0.2860
17569TIP3    H174122   3.430   5.529   1.803  0.4438 -0.2127 -0.6725
17569TIP3    H274123   3.392   5.382   1.797  0.0474 -0.1182 -0.4556
17570TIP3   OH274124   7.036   6.304   1.879 -0.0807  0.0891  0.1758
17570TIP3    H174125   6.979   6.377   1.905 -0.4648 -0.0419 -0.2933
17570TIP3    H274126   7.055   6.259   1.962 -0.3579  0.3536  0.3872
17571TIP3   OH274127   1.508   1.198   1.132  0.0729 -0.2643  0.1069
17571TIP3    H174128   1.499   1.103   1.146  1.8692 -0.5561 -0.3442
17571TIP3    H274129   1.602   1.214   1.142 -0.3532  1.7183  1.5085
17572TIP3   OH274130   3.223   0.374   4.429 -0.8202 -0.4822 -0.4008
17572TIP3    H174131   3.214   0.469   4.427  0.5987 -0.0484  3.8557
17572TIP3    H274132   3.312   0.358   4.397 -1.2508 -0.4603 -1.6355
17573TIP3   OH274133   6.856   0.641   4.390  0.5232  0.5633  0.3414
17573TIP3    H174134   6.857   0.552   4.355  1.5782  0.8367 -0.3581
17573TIP3    H274135   6.767   0.652   4.424  0.9508 -1.4469  2.3085
17574TIP3   OH274136   4.780   3.653   3.540 -0.3601  0.2095  0.0156
17574TIP3    H174137   4.817   3.621   3.457  1.5357  1.8045  0.1610
17574TIP3    H274138   4.760   3.573   3.589  0.8117 -0.7839 -1.0219
17575TIP3   OH274139   2.748   0.333   4.228  0.1737  0.5013 -0.6426
17575TIP3    H174140   2.832   0.339   4.273  0.0347 -1.0245 -0.1059
17575TIP3    H274141   2.756   0.254   4.174 -1.0146  0.1153 -0.2962
17576TIP3   OH274142   4.130   3.891  13.022  0.4574  0.0558  0.0752
17576TIP3    H174143   4.193   3.963  13.021 -0.1139  0.5827 -1.7399
17576TIP3    H274144   4.177   3.817  12.986  0.7364 -0.2326  0.9948
17577TIP3   OH274145   2.535   0.741   5.131  0.0541  0.2810 -0.1014
17577TIP3    H174146   2.557   0.774   5.044 -0.9626 -0.1914 -0.5506
17577TIP3    H274147   2.454   0.692   5.119 -0.2139  0.3743  1.1535
17578TIP3   OH274148   3.729   0.524   1.249  0.1737 -0.1807  0.6488
17578TIP3    H174149   3.725   0.479   1.334 -1.2925  0.6203  1.0444
17578TIP3    H274150   3.644   0.507   1.209 -0.3119  1.9125  0.6684
17579TIP3   OH274151   1.029   1.137   4.046  0.0146 -0.1522  0.1243
17579TIP3    H174152   0.978   1.122   3.966 -4.2220  0.1056  2.4828
17579TIP3    H274153   1.025   1.232   4.059 -0.0355 -0.2701  1.0220
17580TIP3   OH274154   2.081   3.335   5.839  0.0594  0.4473 -0.4218
17580TIP3    H174155   2.107   3.383   5.760 -3.2429 -0.5386 -2.2672
17580TIP3    H274156   2.009   3.386   5.876  0.9360  0.3797  1.4822
17581TIP3   OH274157   2.178   5.576   0.188  0.5883  0.1481  0.5525
17581TIP3    H174158   2.196   5.513   0.119 -0.1625 -0.0526  0.5361
17581TIP3    H274159   2.125   5.644   0.146  0.7478  0.4015  0.7545
17582TIP3   OH274160   6.791   0.715   2.979  0.2665  1.0103 -0.1607
17582TIP3    H174161   6.835   0.630   2.987 -1.2291  0.3136  1.6081
17582TIP3    H274162   6.854   0.771   2.934  0.9854 -1.2451 -2.1401
17583TIP3   OH274163   3.321   0.786   4.307  0.2825  0.0028  0.5460
17583TIP3    H174164   3.405   0.757   4.272  0.2712  1.0107 -0.3705
17583TIP3    H274165   3.338   0.803   4.400  0.3084 -2.7096  1.1389
17584TIP3   OH274166   0.116   6.447   4.848  0.3842  0.0769  0.1874
17584TIP3    H174167   0.083   6.513   4.909 -0.1972 -0.1454  0.1210
17584TIP3    H274168   0.168   6.496   4.785 -0.8505  0.6167 -0.4430
17585TIP3   OH274169   0.281   6.764   4.540 -0.2490  0.3964  0.1717
17585TIP3    H174170   0.221   6.705   4.496  2.2786 -2.1341 -0.1729
17585TIP3    H274171   0.249   6.768   4.630 -2.0499  0.8356 -0.4479
17586TIP3   OH274172   5.042   6.400   2.568  0.0294 -0.1229 -0.0732
17586TIP3    H174173   5.069   6.481   2.524 -0.7590  0.0307 -0.3018
17586TIP3    H274174   4.963   6.374   2.521  1.4544 -2.2527 -1.4508
17587TIP3   OH274175   2.104   0.061   4.524 -0.0750  0.0996  0.0902
17587TIP3    H174176   2.144   0.014   4.451  3.7022  2.3857  0.3778
17587TIP3    H274177   2.112   0.153   4.501 -2.6967  0.8104  1.6144
17588TIP3   OH274178   3.854   5.235   3.921 -0.5146 -0.9904 -0.1335
17588TIP3    H174179   3.867   5.140   3.917 -1.2698 -1.0952 -0.2665
17588TIP3    H274180   3.791   5.254   3.852 -3.2204 -0.9311  2.1633
17589TIP3   OH274181   1.761   2.032   2.992  0.0379  0.2193 -0.2788
17589TIP3    H174182   1.847   2.001   3.018  0.6904  1.2478 -1.1001
17589TIP3    H274183   1.750   2.000   2.902  0.9818  2.6827 -1.3721
17590TIP3   OH274184   4.982   1.641   5.150 -0.1692  0.2603  0.3647
17590TIP3    H174185   4.949   1.568   5.098  0.4951  0.5505 -0.4925
17590TIP3    H274186   4.921   1.648   5.223 -1.5399  0.2982 -0.7432
17591TIP3   OH274187   2.659   1.199   2.516 -0.1346 -0.7085  0.1061
17591TIP3    H174188   2.728   1.263   2.497  0.0208 -0.7484  0.5258
17591TIP3    H274189   2.680   1.167   2.604 -2.2007  1.2243  1.3880
17592TIP3   OH274190   3.719   3.537   3.331 -0.1774 -0.1087 -0.3661
17592TIP3    H174191   3.748   3.610   3.275 -3.1948  0.1769 -1.7577
17592TIP3    H274192   3.706   3.465   3.270 -0.0549 -0.9231  0.5605
17593TIP3   OH274193   2.399   0.490  13.235 -0.4748  0.0908 -0.4670
17593TIP3    H174194   2.419   0.398  13.220 -1.4005  0.0628 -1.6590
17593TIP3    H274195   2.306   0.491  13.256 -0.2928  0.6882  0.3867
17594TIP3   OH274196   3.418   3.378   4.986 -0.3687 -0.7948 -0.1739
17594TIP3    H174197   3.365   3.314   5.033 -0.1099 -0.7863  0.1325
17594TIP3    H274198   3.508   3.350   5.000 -0.2164 -0.0829  0.4010
17595TIP3   OH274199   7.086   4.704   3.168 -0.2697 -0.5429 -0.7721
17595TIP3    H174200   7.148   4.778   3.166 -0.0223 -0.7550 -0.9917
17595TIP3    H274201   7.034   4.715   3.088 -0.3812 -0.4836 -0.6926
17596TIP3   OH274202   1.465   3.571   3.237 -0.2108 -0.1751 -0.2870
17596TIP3    H174203   1.518   3.507   3.284  1.1608 -0.0035 -1.5475
17596TIP3    H274204   1.426   3.521   3.164  1.9818  0.6296 -2.1149
17597TIP3   OH274205   5.930   3.101   4.018 -0.2462 -0.5882 -0.0352
17597TIP3    H174206   5.904   3.113   3.926 -2.9609 -1.6290  0.4927
17597TIP3    H274207   5.967   3.186   4.043  0.2878 -0.1869 -1.9948
17598TIP3   OH274208   5.726   1.694   2.130  0.7907 -0.4702 -0.4814
17598TIP3    H174209   5.654   1.637   2.158  1.0089 -0.4749  0.0840
17598TIP3    H274210   5.804   1.641   2.144  0.9034 -0.4890 -1.1615
17599TIP3   OH274211   0.189   4.340   2.616 -0.7612  0.4949  0.4742
17599TIP3    H174212   0.196   4.387   2.699 -0.1863  1.3162 -0.0138
17599TIP3    H274213   0.278   4.345   2.579 -0.3045 -2.1724  1.0078
17600TIP3   OH274214   2.325   5.624   3.870 -0.4075 -0.3400 -0.4900
17600TIP3    H174215   2.308   5.558   3.803 -1.5779 -0.3800 -0.1769
17600TIP3    H274216   2.332   5.706   3.821  1.8085 -0.7468 -0.9667
17601TIP3   OH274217   1.445   1.539   4.445 -0.6393 -0.0299 -0.2915
17601TIP3    H174218   1.492   1.570   4.368  0.2131  0.8851  0.5682
17601TIP3    H274219   1.390   1.467   4.412  0.0974 -0.0167 -1.6345
17602TIP3   OH274220   4.760   4.640   1.898 -0.1383 -0.4011  0.6350
17602TIP3    H174221   4.681   4.585   1.897 -1.7313  1.7391 -0.7938
17602TIP3    H274222   4.727   4.730   1.902  2.0445  0.7630 -2.8059
17603TIP3   OH274223   1.397   5.229   5.147  0.7248 -0.9746 -0.3458
17603TIP3    H174224   1.465   5.191   5.091  2.5060 -0.9152  1.6822
17603TIP3    H274225   1.347   5.285   5.088  1.9501 -1.6056 -2.0676
17604TIP3   OH274226   2.298   3.750   5.155  0.3108  0.6763  0.5941
17604TIP3    H174227   2.274   3.682   5.093 -2.6042  1.0302  1.1960
17604TIP3    H274228   2.337   3.703   5.229  0.7332 -0.0408 -0.0673
17605TIP3   OH274229   6.529   5.865   3.360 -0.4493 -0.1661 -0.2284
17605TIP3    H174230   6.560   5.788   3.407 -0.2641  0.6438  0.9996
17605TIP3    H274231   6.434   5.864   3.373 -0.4905 -0.3561 -0.5080
17606TIP3   OH274232   2.270   4.519   5.130 -0.1106 -0.4104 -0.0024
17606TIP3    H174233   2.240   4.595   5.080  0.0632  0.6680  1.4571
17606TIP3    H274234   2.196   4.496   5.186 -0.3741 -1.7290 -0.8454
17607TIP3   OH274235   2.322   3.393   2.275  0.2871 -0.1899  0.0498
17607TIP3    H174236   2.328   3.486   2.253 -2.9822 -0.1054 -0.9430
17607TIP3    H274237   2.338   3.348   2.192  1.2259 -0.5253  0.3989
17608TIP3   OH274238   2.503   1.629   0.338 -0.4101  0.1455  0.6428
17608TIP3    H174239   2.460   1.709   0.308 -0.8009  0.1793  1.2771
17608TIP3    H274240   2.596   1.648   0.334 -0.5232  1.1260  2.1097
17609TIP3   OH274241   1.938   3.730   5.040  0.2399  0.1541  0.2160
17609TIP3    H174242   1.845   3.747   5.058  0.2532  0.0728  0.3682
17609TIP3    H274243   1.974   3.704   5.125  0.2866 -0.3406  0.0436
17610TIP3   OH274244   1.862   0.658   2.993  0.2322  0.1728 -0.5688
17610TIP3    H174245   1.801   0.706   3.049  0.6036 -1.1029  1.0114
17610TIP3    H274246   1.949   0.687   3.021  0.4516 -1.1963  0.2577
17611TIP3   OH274247   5.813   0.994   4.919  0.3988  0.0681 -0.1676
17611TIP3    H174248   5.800   0.960   4.830  1.4480  2.4805 -1.3041
17611TIP3    H274249   5.894   1.043   4.915 -0.7746  2.3283  1.4478
17612TIP3   OH274250   6.538   1.371   3.124 -0.2159 -0.2102 -0.2474
17612TIP3    H174251   6.536   1.398   3.032 -0.0929 -3.5450 -1.3529
17612TIP3    H274252   6.511   1.450   3.173  3.4921  2.9459 -2.6973
17613TIP3   OH274253   0.721   0.580  13.045  0.5237 -0.3182 -0.0014
17613TIP3    H174254   0.691   0.511  13.104  1.0961 -0.9330 -0.4175
17613TIP3    H274255   0.797   0.617  13.089 -1.1061  1.6524  1.3494
17614TIP3   OH274256   4.745   5.987  14.619 -0.2797  0.1400  0.0415
17614TIP3    H174257   4.679   6.057  14.626 -0.8404 -0.3132 -0.6126
17614TIP3    H274258   4.722   5.940  14.540  0.1972 -0.6964  0.3880
17615TIP3   OH274259   2.064   2.715   4.295 -0.3959 -0.9687 -0.2779
17615TIP3    H174260   1.998   2.712   4.364 -0.5089 -0.2496 -0.3476
17615TIP3    H274261   2.074   2.624   4.267  1.3770 -1.6923  2.2963
17616TIP3   OH274262   5.570   3.550  13.645  0.0715  0.3341  0.0630
17616TIP3    H174263   5.557   3.642  13.623 -2.9817 -0.0699 -0.1969
17616TIP3    H274264   5.554   3.502  13.564  0.0903 -0.5263  0.5493
17617TIP3   OH274265   6.182   4.360   2.295  0.4199  0.5102 -0.0161
17617TIP3    H174266   6.093   4.372   2.263 -1.0569  0.7341  3.6257
17617TIP3    H274267   6.190   4.422   2.368  3.1983 -0.2467  0.4517
17618TIP3   OH274268   0.701   6.625   5.497  0.5226  0.1449 -0.1526
17618TIP3    H174269   0.762   6.698   5.484  0.8990 -0.3084 -1.0139
17618TIP3    H274270   0.624   6.665   5.537  0.5929  1.0715 -0.9110
17619TIP3   OH274271   3.495   5.654   4.392  0.1235 -0.3492 -0.7176
17619TIP3    H174272   3.539   5.720   4.445 -1.0239  0.2308 -0.4444
17619TIP3    H274273   3.501   5.687   4.302  1.5631 -1.0435 -0.8973
17620TIP3   OH274274   6.841   2.061   4.884 -0.0108 -0.4977 -0.3015
17620TIP3    H174275   6.762   2.007   4.877  0.4953 -1.2637 -0.2250
17620TIP3    H274276   6.847   2.106   4.800  0.5044 -1.9050 -1.0578
17621TIP3   OH274277   4.704   2.689   5.586  0.4094 -0.3322 -0.2472
17621TIP3    H174278   4.617   2.720   5.560  1.1425 -0.3579 -2.9536
17621TIP3    H274279   4.687   2.628   5.658 -1.5669  1.5132  0.9640
17622TIP3   OH274280   2.287   3.201   5.964 -0.2504  0.6457 -0.3125
17622TIP3    H174281   2.350   3.262   6.002 -0.1441  0.1000  0.4130
17622TIP3    H274282   2.217   3.256   5.931  0.7676  1.3014 -1.4812
17623TIP3   OH274283   6.650   4.110   4.293 -0.1915  0.1072 -0.1216
17623TIP3    H174284   6.690   4.175   4.236 -0.4760 -1.0416 -1.7132
17623TIP3    H274285   6.557   4.113   4.272 -0.0158 -1.8869 -1.4530
17624TIP3   OH274286   1.623   4.072   5.741  0.1676 -0.0263  0.3073
17624TIP3    H174287   1.698   4.097   5.795 -1.1996 -0.0491  2.3370
17624TIP3    H274288   1.559   4.141   5.756  0.2641  0.8780 -2.6769
17625TIP3   OH274289   1.803   0.470   4.034  0.0320  0.0653  0.5924
17625TIP3    H174290   1.733   0.509   3.982  1.5944 -0.8914 -2.4400
17625TIP3    H274291   1.780   0.378   4.040  0.6314 -0.1130  0.2382
17626TIP3   OH274292   5.075   6.446   5.225 -0.0428  0.0611  0.2309
17626TIP3    H174293   5.112   6.380   5.165 -0.9006 -0.6112  0.4211
17626TIP3    H274294   5.018   6.396   5.282 -1.5122  1.1215 -0.2642
17627TIP3   OH274295   0.398   7.172   1.274 -0.2549 -0.0345  0.0869
17627TIP3    H174296   0.426   7.171   1.182  0.7674 -0.6139  0.3841
17627TIP3    H274297   0.309   7.208   1.272 -0.1825  0.1204 -1.1070
17628TIP3   OH274298   3.223   1.797   2.737  0.3380  0.6821  0.1808
17628TIP3    H174299   3.160   1.754   2.794  1.6298  1.2202  2.1006
17628TIP3    H274300   3.194   1.888   2.734  1.1590  1.0034  1.3387
17629TIP3   OH274301   3.692   1.222   2.309 -0.2201  0.1113  0.0988
17629TIP3    H174302   3.631   1.228   2.235 -0.1908  0.3340  0.0926
17629TIP3    H274303   3.636   1.202   2.384 -0.4925  1.7122  0.3588
17630TIP3   OH274304   5.309   1.745   1.456 -0.0101 -0.1741 -0.6313
17630TIP3    H174305   5.215   1.760   1.453  0.2177  1.3241 -1.0003
17630TIP3    H274306   5.333   1.758   1.547 -0.0675  0.0398 -0.6473
17631TIP3   OH274307   5.051   4.298   5.537  0.3410  0.0736  0.1778
17631TIP3    H174308   5.087   4.343   5.460 -1.5833  0.5726 -0.5015
17631TIP3    H274309   5.123   4.295   5.600  1.3466  1.5870 -0.8452
17632TIP3   OH274310   7.007   6.097   2.036 -0.6917  0.1454  0.2313
17632TIP3    H174311   7.016   6.011   1.997  0.3594  0.9865 -1.5095
17632TIP3    H274312   6.953   6.083   2.114 -2.5567 -1.6955 -1.2871
17633TIP3   OH274313   3.010   6.196   3.715  0.1926 -0.2727  0.0202
17633TIP3    H174314   3.030   6.185   3.808 -1.9947  0.0377  0.5725
17633TIP3    H274315   2.923   6.157   3.705  1.2098 -2.1986 -2.3512
17634TIP3   OH274316   3.302   0.960   2.974 -0.0257  0.2013  0.3236
17634TIP3    H174317   3.280   0.936   3.064  0.1213  0.9518  0.5676
17634TIP3    H274318   3.280   1.053   2.968  1.0610  0.4443 -0.0627
17635TIP3   OH274319   5.786   6.204   1.843  0.2546  0.2714  0.2393
17635TIP3    H174320   5.821   6.218   1.931  0.8082 -1.4469  0.3251
17635TIP3    H274321   5.755   6.113   1.843  1.9455 -0.3858 -1.8448
17636TIP3   OH274322   0.440   0.449   1.231 -0.1759  0.4353 -0.8186
17636TIP3    H174323   0.468   0.383   1.294  0.8136  1.7791  0.2288
17636TIP3    H274324   0.355   0.419   1.199  0.3603 -1.4452 -0.5924
17637TIP3   OH274325   5.460   5.368   4.620 -0.1716 -0.1241 -0.1297
17637TIP3    H174326   5.464   5.282   4.662  0.5452 -1.1838 -2.2271
17637TIP3    H274327   5.409   5.422   4.681 -0.8646 -2.0841  1.1307
17638TIP3   OH274328   6.374   1.152   5.346  0.0555 -0.0235  0.1747
17638TIP3    H174329   6.311   1.091   5.385 -1.3224  1.2886  0.1348
17638TIP3    H274330   6.453   1.143   5.400 -0.4066 -1.2007  0.6866
17639TIP3   OH274331   0.329   3.589   4.657  0.0395  0.3971  0.1305
17639TIP3    H174332   0.421   3.594   4.684 -0.0221  1.8181  0.1550
17639TIP3    H274333   0.331   3.609   4.563 -0.0567 -1.6610 -0.3668
17640TIP3   OH274334   0.946   3.717   2.544 -0.3352  0.5019  0.1974
17640TIP3    H174335   0.951   3.627   2.513  0.2685 -0.4611  2.8198
17640TIP3    H274336   1.026   3.758   2.513 -0.3921  0.0137 -0.6215
17641TIP3   OH274337   6.793   3.998   0.808 -0.4564 -0.8800 -0.4123
17641TIP3    H174338   6.703   4.030   0.799 -1.1563 -1.7070  2.5175
17641TIP3    H274339   6.785   3.916   0.857  1.8571 -1.3478 -0.6949
17642TIP3   OH274340   5.027   1.679   3.085  0.1871 -0.0257 -0.1248
17642TIP3    H174341   4.994   1.622   3.154  1.0502 -0.0336  0.2997
17642TIP3    H274342   5.073   1.749   3.132 -0.5274  0.8212 -0.6484
17643TIP3   OH274343   6.934   1.119   3.115 -0.0412  0.0161 -0.0259
17643TIP3    H174344   6.922   1.199   3.164  1.1244  0.2061 -0.0184
17643TIP3    H274345   7.004   1.072   3.161  1.3271  0.3513 -1.6224
17644TIP3   OH274346   3.839   5.413   2.756 -0.3269  0.0656 -0.9576
17644TIP3    H174347   3.879   5.336   2.715 -0.4846 -0.8645  0.5370
17644TIP3    H274348   3.746   5.407   2.733 -0.5454 -0.8557  0.0712
17645TIP3   OH274349   2.486   4.200   5.054  0.1069  0.0368 -0.1094
17645TIP3    H174350   2.558   4.225   4.996 -0.0914  1.1474  0.0920
17645TIP3    H274351   2.470   4.108   5.035  0.0570  0.3575 -1.8209
17646TIP3   OH274352   1.109   1.061   6.069  0.5665  0.4766  1.1870
17646TIP3    H174353   1.021   1.025   6.057  0.3789  1.2110  0.1897
17646TIP3    H274354   1.135   1.033   6.156 -0.1420 -0.8411  0.9968
17647TIP3   OH274355   2.947   4.947   4.835 -0.3459  0.5772 -0.2797
17647TIP3    H174356   2.956   4.967   4.742  0.2985  1.2600 -0.0776
17647TIP3    H274357   3.031   4.971   4.873 -1.1427  1.8799  0.7501
17648TIP3   OH274358   6.684   6.288   4.945 -0.3540  0.1848  0.3696
17648TIP3    H174359   6.771   6.295   4.907 -0.6688 -0.6897 -0.5707
17648TIP3    H274360   6.688   6.341   5.025  0.3816  1.9474 -0.7883
17649TIP3   OH274361   6.913   1.807   2.959  0.2044 -0.0900 -0.0431
17649TIP3    H174362   6.851   1.737   2.980 -0.4124  1.1164  2.5969
17649TIP3    H274363   6.864   1.867   2.904 -0.7837  0.4658  1.3856
17650TIP3   OH274364   1.353   6.376   4.314  0.3668 -0.4174 -0.5609
17650TIP3    H174365   1.265   6.391   4.279  0.0919 -0.3504  0.1360
17650TIP3    H274366   1.381   6.294   4.273 -0.2773 -0.7664 -0.3290
17651TIP3   OH274367   0.957   0.069   3.237 -0.6125  0.6870  0.9320
17651TIP3    H174368   1.000   0.082   3.321  1.3438  0.4339  0.0330
17651TIP3    H274369   0.958  -0.026   3.224  2.0169  0.8409 -0.7175
17652TIP3   OH274370   0.670   0.257   5.872 -0.1628 -0.5254 -0.0009
17652TIP3    H174371   0.725   0.251   5.794 -0.0513 -1.6387  0.1482
17652TIP3    H274372   0.662   0.167   5.903 -2.7532 -0.5364 -0.4866
17653TIP3   OH274373   2.060   6.756   5.721  0.4045 -0.7086  0.4619
17653TIP3    H174374   2.059   6.681   5.781 -1.0543 -0.8105  0.3417
17653TIP3    H274375   2.135   6.739   5.663  1.7115 -0.7034  2.1006
17654TIP3   OH274376   1.662   2.187   5.209 -0.2037 -0.0504 -0.3852
17654TIP3    H174377   1.679   2.250   5.140  2.1986 -0.3244 -0.1358
17654TIP3    H274378   1.717   2.215   5.282  0.2096 -1.8670  0.0693
17655TIP3   OH274379   6.310   6.558   0.066 -0.0075 -0.4020 -0.2060
17655TIP3    H174380   6.344   6.632   0.115 -1.3275 -0.1340  0.3455
17655TIP3    H274381   6.236   6.527   0.117  0.1781 -1.7645 -0.7132
17656TIP3   OH274382   5.413   2.652   4.057 -0.1339  0.3249 -0.1764
17656TIP3    H174383   5.448   2.715   3.995  1.1402 -0.2731 -0.0985
17656TIP3    H274384   5.387   2.705   4.133  0.4868  0.8100 -0.2923
17657TIP3   OH274385   3.524   0.205   3.338  0.5909 -0.1782 -0.0574
17657TIP3    H174386   3.555   0.283   3.292  0.6802 -0.2491 -0.1187
17657TIP3    H274387   3.449   0.175   3.286  1.1833 -0.7155 -0.6104
17658TIP3   OH274388   0.621   6.290   1.544 -0.4263 -0.0520  0.3295
17658TIP3    H174389   0.701   6.249   1.512 -0.9374  0.2250 -1.4248
17658TIP3    H274390   0.650   6.369   1.589  0.3659 -0.7920  1.1537
17659TIP3   OH274391   6.576   1.996   3.939  0.0135 -0.1534 -0.1007
17659TIP3    H174392   6.594   1.905   3.913 -0.5179 -0.0734 -0.7704
17659TIP3    H274393   6.601   2.048   3.863 -1.5032  0.0871 -0.4694
17660TIP3   OH274394   4.100   6.528   2.559  0.4836  0.3601  0.5010
17660TIP3    H174395   4.118   6.622   2.565  2.0963  0.2942 -2.0197
17660TIP3    H274396   4.185   6.486   2.578  0.5431 -0.4226 -1.3259
17661TIP3   OH274397   0.667   2.044   2.800 -0.1481 -0.1575  0.5568
17661TIP3    H174398   0.696   2.045   2.891 -0.8656 -0.2259  0.7903
17661TIP3    H274399   0.577   2.077   2.803 -0.2920 -0.4757 -0.0875
17662TIP3   OH274400   0.052   6.348   2.295  0.0447 -0.4995 -0.3320
17662TIP3    H174401   0.096   6.381   2.374  0.6829  2.5941 -1.8062
17662TIP3    H274402  -0.015   6.413   2.276 -0.8360 -1.7581 -1.7589
17663TIP3   OH274403   1.664   1.249   2.294 -0.0192 -0.4160  0.1842
17663TIP3    H174404   1.612   1.175   2.263  0.7088 -1.5712  1.5737
17663TIP3    H274405   1.735   1.209   2.344 -1.3844  1.2007  3.7694
17664TIP3   OH274406   0.138   1.115   0.733 -0.0228 -0.5542  0.6309
17664TIP3    H174407   0.176   1.076   0.812 -0.2645 -2.0018  0.0482
17664TIP3    H274408   0.104   1.200   0.763  0.9216 -0.5643  1.8230
17665TIP3   OH274409   3.914   4.001   1.212  0.2350 -0.3380  0.0664
17665TIP3    H174410   3.907   3.961   1.126  1.5764  0.1640 -0.3073
17665TIP3    H274411   3.832   4.049   1.223  0.5438  0.6241 -1.4890
17666TIP3   OH274412   1.461   2.938   4.120  0.5375 -0.3242 -0.0566
17666TIP3    H174413   1.421   2.855   4.146 -0.1669  0.5542  1.9459
17666TIP3    H274414   1.428   2.954   4.032 -0.9785 -1.2031  0.3011
17667TIP3   OH274415   6.993   1.346   5.264 -0.5057  0.1589  0.4238
17667TIP3    H174416   6.990   1.281   5.334 -0.1390 -0.0351  0.2645
17667TIP3    H274417   6.903   1.375   5.254 -0.4182  0.9655  1.6933
17668TIP3   OH274418   2.497   1.628   5.515  0.1089  0.4100  0.1731
17668TIP3    H174419   2.533   1.716   5.501  1.5557 -0.2324 -0.3634
17668TIP3    H274420   2.438   1.638   5.590 -0.9467  2.1346 -0.8003
17669TIP3   OH274421   6.186   3.185   0.978 -0.1081  0.4297  0.1535
17669TIP3    H174422   6.231   3.103   0.959  1.9009  1.4470  0.2176
17669TIP3    H274423   6.227   3.249   0.920 -0.1494  1.7836  1.5477
17670TIP3   OH274424   3.960   4.425   5.089 -0.2886 -0.0194 -0.3752
17670TIP3    H174425   3.950   4.372   5.169  1.7458  0.3742  0.2009
17670TIP3    H274426   4.011   4.369   5.030 -0.3249  0.3401 -0.7490
17671TIP3   OH274427   6.116   2.272   2.116 -0.8109 -0.3040  0.1905
17671TIP3    H174428   6.035   2.315   2.089 -1.3808 -0.4534  1.5858
17671TIP3    H274429   6.100   2.179   2.099 -0.6244 -0.2614 -0.2464
17672TIP3   OH274430   5.609   5.005   4.804  0.2327  0.2256  0.4233
17672TIP3    H174431   5.521   5.038   4.786  0.3489  0.1464 -0.3272
17672TIP3    H274432   5.596   4.930   4.862 -0.2656 -0.3506 -0.4136
17673TIP3   OH274433   6.301   6.836   5.586  0.3743 -0.6148 -0.5884
17673TIP3    H174434   6.236   6.766   5.598  2.4238 -2.6711 -0.8362
17673TIP3    H274435   6.248   6.914   5.570 -2.0737 -1.7748  1.0485
17674TIP3   OH274436   2.584   1.143   5.123  0.0321  0.0739 -0.0972
17674TIP3    H174437   2.523   1.191   5.179  0.4458 -1.3934  1.6788
17674TIP3    H274438   2.538   1.137   5.039 -1.6484  0.3030  0.7572
17675TIP3   OH274439   4.483   5.903   0.937  0.7387 -0.2100  0.3420
17675TIP3    H174440   4.470   5.826   0.882 -0.5968  1.2539 -1.5312
17675TIP3    H274441   4.452   5.877   1.024 -0.1253 -1.6297 -0.3715
17676TIP3   OH274442   0.619   6.115   3.363 -0.3888  0.1705  0.0350
17676TIP3    H174443   0.706   6.095   3.331 -0.1944  0.8957  0.1076
17676TIP3    H274444   0.576   6.029   3.371  0.9829 -0.4058  1.9576
17677TIP3   OH274445   6.751   4.106   3.455  0.8834 -0.5762 -0.1261
17677TIP3    H174446   6.707   4.189   3.473 -0.6087 -1.5398  0.8755
17677TIP3    H274447   6.802   4.122   3.376 -1.3414  0.6070 -1.4009
17678TIP3   OH274448   4.522   0.671   5.787 -0.3158 -0.8340 -0.5696
17678TIP3    H174449   4.524   0.615   5.864 -1.6029 -0.3855 -0.1954
17678TIP3    H274450   4.430   0.691   5.774 -0.2799 -1.8535 -2.9269
17679TIP3   OH274451   1.229   1.962   4.843  0.5694 -0.1685  0.2645
17679TIP3    H174452   1.294   2.026   4.815  1.3561 -0.0796  2.1436
17679TIP3    H274453   1.278   1.880   4.849  0.0841 -0.4803 -0.0091
17680TIP3   OH274454   1.647   1.789   1.289 -0.1146  0.2378  0.2196
17680TIP3    H174455   1.602   1.871   1.310 -1.1393 -0.1223 -0.4481
17680TIP3    H274456   1.608   1.725   1.348  1.6438  0.4607  1.6777
17681TIP3   OH274457   1.428   7.150   3.641 -0.1276  0.1029  0.2949
17681TIP3    H174458   1.399   7.242   3.641  2.7381  1.1120  1.1158
17681TIP3    H274459   1.363   7.105   3.694 -2.0167  1.4768 -0.7266
17682TIP3   OH274460   4.614   3.447   4.345 -0.1248 -0.1406  0.0709
17682TIP3    H174461   4.637   3.479   4.258  1.6222  2.4015  1.3607
17682TIP3    H274462   4.521   3.470   4.355  0.1247  1.1471 -0.4716
17683TIP3   OH274463   2.294   3.580   4.594  0.9318  0.2270 -0.1917
17683TIP3    H174464   2.202   3.596   4.612  0.8880  0.1148 -0.3167
17683TIP3    H274465   2.335   3.667   4.598  0.7339  0.3432 -0.6406
17684TIP3   OH274466   5.816   4.575   3.688  0.0783  0.2764  0.3228
17684TIP3    H174467   5.734   4.527   3.703 -0.1278  0.1621 -1.0726
17684TIP3    H274468   5.789   4.667   3.688  0.2254  0.3362  1.4486
17685TIP3   OH274469   1.767   1.828   4.240  0.0452  0.0266  0.0518
17685TIP3    H174470   1.709   1.896   4.271 -0.7454 -1.1396  1.2269
17685TIP3    H274471   1.712   1.750   4.234  1.1004 -0.7060 -0.4951
17686TIP3   OH274472   2.016   1.926   3.198  0.0991 -0.1701  0.2502
17686TIP3    H174473   2.019   2.000   3.259 -0.2899  0.2047 -0.1642
17686TIP3    H274474   1.956   1.864   3.239  2.3685 -1.4281  1.8280
17687TIP3   OH274475   6.203   2.001   0.833 -0.1520 -0.0079  0.0331
17687TIP3    H174476   6.157   1.920   0.812  1.8172 -1.1698 -0.0907
17687TIP3    H274477   6.252   2.022   0.753  0.0793  0.7907  0.3731
17688TIP3   OH274478   4.557   3.188  14.927  0.3437 -0.0026  0.3791
17688TIP3    H174479   4.504   3.251  14.975 -0.5172 -1.9432  2.1485
17688TIP3    H274480   4.619   3.155  14.991  0.9948 -0.7068 -0.5868
17689TIP3   OH274481   1.055   2.895   4.118 -0.0852  0.7644 -0.1913
17689TIP3    H174482   1.017   2.835   4.182  1.0223  0.0831 -0.1418
17689TIP3    H274483   1.110   2.954   4.169  1.4680 -0.3098 -0.5675
17690TIP3   OH274484   4.805   1.885   5.311  0.0219  0.6153  0.1141
17690TIP3    H174485   4.798   1.801   5.357 -1.1679  0.2921 -0.6064
17690TIP3    H274486   4.894   1.914   5.328  0.5635 -0.9340  0.1390
17691TIP3   OH274487   3.606   1.312   5.444 -0.0296  0.8008 -0.2967
17691TIP3    H174488   3.655   1.262   5.379 -0.0327  0.2298  0.1300
17691TIP3    H274489   3.673   1.340   5.508 -0.1918  0.3638  0.0706
17692TIP3   OH274490   0.317   2.877   5.228  0.3348 -0.7306  0.3943
17692TIP3    H174491   0.291   2.786   5.214 -2.1841  0.0981 -0.9779
17692TIP3    H274492   0.327   2.884   5.323 -3.6341 -1.5592  1.0670
17693TIP3   OH274493   4.400   0.160   3.462 -0.5479 -0.0794  0.2091
17693TIP3    H174494   4.490   0.169   3.430 -0.3477  0.5656  0.9030
17693TIP3    H274495   4.406   0.093   3.530 -0.9027 -1.1835 -0.8166
17694TIP3   OH274496   6.333   2.449   5.594 -0.2551  0.5222 -0.7471
17694TIP3    H174497   6.389   2.380   5.559  1.7399  0.3121  2.4195
17694TIP3    H274498   6.253   2.405   5.621  0.2426 -0.2325 -0.4784
17695TIP3   OH274499   6.098   1.242   3.659  0.4885  0.0593 -0.3343
17695TIP3    H174500   6.023   1.294   3.688  0.8696  0.3084  0.2334
17695TIP3    H274501   6.158   1.242   3.734  0.4770 -1.2595 -0.3006
17696TIP3   OH274502   5.741   5.397   0.882  0.2375  0.1703  0.0582
17696TIP3    H174503   5.725   5.355   0.797 -1.4870  0.3344  0.2618
17696TIP3    H274504   5.805   5.340   0.925 -0.6490 -1.2436 -0.4164
17697TIP3   OH274505   6.326   4.837   4.001  0.2056 -0.2958  0.1136
17697TIP3    H174506   6.372   4.754   4.009  0.3485 -0.3936 -1.3902
17697TIP3    H274507   6.269   4.841   4.078  3.3330  0.2853  2.6008
17698TIP3   OH274508   5.579   3.766   3.211  0.3313  0.0115 -0.5197
17698TIP3    H174509   5.657   3.710   3.214  1.2226  0.8935 -3.6173
17698TIP3    H274510   5.541   3.749   3.125 -1.8187  1.0780  0.1642
17699TIP3   OH274511   0.197   1.130  12.453  0.2299  0.2008  0.2276
17699TIP3    H174512   0.186   1.045  12.410  0.3783 -0.0580  0.6882
17699TIP3    H274513   0.205   1.193  12.381 -3.2605  0.3371 -0.2144
17700TIP3   OH274514   1.123   4.235   4.070 -0.4064  0.7395  0.1326
17700TIP3    H174515   1.141   4.143   4.088 -0.8511  0.3133 -1.4197
17700TIP3    H274516   1.079   4.267   4.149 -2.3625 -1.0264 -0.1619
17701TIP3   OH274517   0.083   1.844   5.666 -0.1080  0.1919 -0.5279
17701TIP3    H174518   0.133   1.922   5.644  1.0124 -0.5340 -0.6634
17701TIP3    H274519   0.147   1.772   5.660 -0.9225 -0.6362  0.3126
17702TIP3   OH274520   4.375   5.381   4.153 -0.1014 -0.7688 -0.1046
17702TIP3    H174521   4.286   5.397   4.185  0.1115  0.9333 -0.2579
17702TIP3    H274522   4.432   5.420   4.219  0.3807  1.6069 -1.7914
17703TIP3   OH274523   2.068   0.628  14.145  0.4184  0.6040 -0.5216
17703TIP3    H174524   2.119   0.610  14.066  1.1826 -2.2879  0.5144
17703TIP3    H274525   1.983   0.587  14.128 -0.0995  1.6461 -0.5424
17704TIP3   OH274526   5.567   1.844  10.641 -0.4963 -0.3863  0.2986
17704TIP3    H174527   5.584   1.758  10.680 -1.0425 -0.6232  0.0226
17704TIP3    H274528   5.653   1.886  10.639 -0.0672 -1.2602 -0.3716
17705TIP3   OH274529   5.772   7.162   2.653  0.1152  0.1354  0.3480
17705TIP3    H174530   5.682   7.133   2.666  0.1352  0.0525  0.3007
17705TIP3    H274531   5.766   7.258   2.647  0.1719  0.2293  1.5378
17706TIP3   OH274532   2.545   1.661   2.653  0.0735  0.3470  0.4827
17706TIP3    H174533   2.500   1.743   2.676 -1.3895  0.2969 -1.8722
17706TIP3    H274534   2.579   1.677   2.566 -0.9787 -1.7943 -0.3838
17707TIP3   OH274535   0.202   0.506   2.820  0.0656  0.2316 -0.0074
17707TIP3    H174536   0.231   0.457   2.742  1.4516  0.7368  0.1774
17707TIP3    H274537   0.191   0.596   2.789  0.8365  0.4792  0.4251
17708TIP3   OH274538   6.302   3.880   4.114 -0.2091  0.2242  0.2013
17708TIP3    H174539   6.251   3.948   4.070 -0.7409 -0.8476 -0.8979
17708TIP3    H274540   6.281   3.800   4.067  0.3403 -0.7298  1.5190
17709TIP3   OH274541   0.272   2.182   4.004  0.1978 -0.1980  0.2717
17709TIP3    H174542   0.233   2.236   4.073  0.6819 -0.1000  0.4730
17709TIP3    H274543   0.318   2.245   3.948 -0.0308 -0.3000 -0.0308
17710TIP3   OH274544   2.991   0.701  15.326 -0.7426 -0.4569 -0.1961
17710TIP3    H174545   2.995   0.793  15.302 -0.7521 -0.1231  1.0455
17710TIP3    H274546   3.066   0.661  15.282  0.9510  0.6937  1.4944
17711TIP3   OH274547   2.767   4.774   3.877 -0.0808 -0.1440 -0.3566
17711TIP3    H174548   2.676   4.780   3.847  0.2727  0.8680 -1.2952
17711TIP3    H274549   2.796   4.865   3.882  1.3009 -0.4907 -1.4368
17712TIP3   OH274550   1.799   3.502   5.900  0.4136 -0.1033 -0.2477
17712TIP3    H174551   1.780   3.497   5.806  0.9280 -0.4702 -0.3401
17712TIP3    H274552   1.732   3.560   5.935  1.8853  2.3873 -1.3149
17713TIP3   OH274553   1.644   3.140   3.492 -0.2831 -0.1286 -0.0667
17713TIP3    H174554   1.559   3.148   3.537  0.3890 -0.0274  1.2357
17713TIP3    H274555   1.625   3.087   3.415 -1.5038 -0.2706  0.3006
17714TIP3   OH274556   4.453   1.215  15.074  0.2558  0.5116  0.1817
17714TIP3    H174557   4.469   1.156  15.000  1.6671  1.9304 -0.7153
17714TIP3    H274558   4.538   1.221  15.118 -0.0907  1.2085  0.7584
17715TIP3   OH274559   4.774   5.195   0.945  0.1031  0.0447 -0.0851
17715TIP3    H174560   4.844   5.208   1.010 -0.6805 -0.1443  0.8210
17715TIP3    H274561   4.698   5.239   0.982 -0.5808 -0.7599 -0.4856
17716TIP3   OH274562   3.263   1.148   4.926 -0.4584 -0.5974 -0.5404
17716TIP3    H174563   3.314   1.228   4.934 -0.4875 -0.7303  2.3338
17716TIP3    H274564   3.305   1.098   4.857  2.3064  0.0414  0.5627
17717TIP3   OH274565   6.244   5.591   3.481 -0.4903  0.2463  0.0064
17717TIP3    H174566   6.213   5.561   3.395 -1.1768  0.7127  0.0808
17717TIP3    H274567   6.207   5.528   3.543 -1.8294  1.1450  0.1512
17718TIP3   OH274568   3.559   1.072  14.544  0.2084  0.2038  0.0253
17718TIP3    H174569   3.476   1.114  14.523  0.4209  0.8318  0.4026
17718TIP3    H274570   3.625   1.132  14.509  0.5118 -0.0466  0.1642
17719TIP3   OH274571   4.253   1.183  14.670 -0.1153  0.3824  0.0887
17719TIP3    H174572   4.216   1.271  14.678  0.2228  0.8194 -2.5370
17719TIP3    H274573   4.260   1.168  14.576  1.5439 -1.7543  0.4865
17720TIP3   OH274574   5.487   5.664   2.905 -0.1387 -0.1325 -0.2645
17720TIP3    H174575   5.418   5.693   2.964 -0.0388  0.8293 -0.5952
17720TIP3    H274576   5.457   5.690   2.818  1.1175  1.2990 -0.3049
17721TIP3   OH274577   3.270   4.136   4.474  0.3873 -0.5370 -0.0454
17721TIP3    H174578   3.219   4.057   4.456  0.9839 -1.2394  1.2437
17721TIP3    H274579   3.208   4.196   4.515 -0.0549 -0.3285 -0.9835
17722TIP3   OH274580   2.260   5.999  14.807 -0.6091 -0.3169 -0.3953
17722TIP3    H174581   2.260   5.963  14.718 -0.4509 -0.1250 -0.4749
17722TIP3    H274582   2.339   6.054  14.810 -0.6613 -0.2547 -0.1640
17723TIP3   OH274583   3.187   5.238   3.564  0.2641 -0.3417  0.0706
17723TIP3    H174584   3.117   5.195   3.514  0.3114 -0.8582  0.4394
17723TIP3    H274585   3.152   5.244   3.653  0.0272  0.9184 -0.0883
17724TIP3   OH274586   5.896   1.077   3.727 -0.2974  0.0697 -0.1596
17724TIP3    H174587   5.964   1.131   3.686  0.2144 -0.7174 -0.3683
17724TIP3    H274588   5.901   1.099   3.820 -0.9738  1.3273 -0.3942
17725TIP3   OH274589   1.995   2.401   2.116 -0.0585  0.0796  0.4652
17725TIP3    H174590   1.992   2.496   2.108 -1.0526 -0.0069 -0.4323
17725TIP3    H274591   2.037   2.371   2.036  0.7839 -0.2272  1.0019
17726TIP3   OH274592   3.812   3.737   3.852  0.0011 -0.1574  0.7986
17726TIP3    H174593   3.795   3.830   3.869  2.7359  0.3362  1.1736
17726TIP3    H274594   3.851   3.735   3.765  1.2290 -0.7550  1.3343
17727TIP3   OH274595   4.621   2.203   2.210  0.0543 -0.2421  0.1195
17727TIP3    H174596   4.676   2.195   2.133  0.2431  0.8864  0.1181
17727TIP3    H274597   4.671   2.258   2.270 -0.5392 -0.2309  0.6190
17728TIP3   OH274598   5.868   0.774   4.259  0.4680 -0.2421 -0.1627
17728TIP3    H174599   5.937   0.840   4.247  0.2931  0.5942  2.7262
17728TIP3    H274600   5.809   0.812   4.323 -1.5089 -1.8896 -0.8987
17729TIP3   OH274601   2.266   4.890   3.722 -0.2104 -0.0129  0.2619
17729TIP3    H174602   2.221   4.859   3.801 -0.7233  0.0883  0.0122
17729TIP3    H274603   2.341   4.940   3.755 -1.5103  1.7160  0.7435
17730TIP3   OH274604   5.312   0.877   0.960  0.2864 -0.5240 -0.1033
17730TIP3    H174605   5.343   0.788   0.977 -3.6976 -1.5662  3.2988
17730TIP3    H274606   5.235   0.866   0.905 -1.3758  0.4844  1.8708
17731TIP3   OH274607   5.500   6.318   3.480 -0.6290 -0.0310 -0.0768
17731TIP3    H174608   5.563   6.250   3.454  0.2358  0.3486  0.9692
17731TIP3    H274609   5.552   6.398   3.487 -0.8790 -0.0254  2.3726
17732TIP3   OH274610   1.783   4.822   3.777 -0.3541 -0.6014 -0.0896
17732TIP3    H174611   1.850   4.770   3.820  0.5117 -1.1320 -1.9797
17732TIP3    H274612   1.782   4.905   3.825  0.4884 -1.1894  0.9734
17733TIP3   OH274613   3.257   4.057   3.727  0.0174 -0.3022 -0.3123
17733TIP3    H174614   3.345   4.096   3.730  0.0786 -0.4986  0.6752
17733TIP3    H274615   3.232   4.063   3.635  0.7123  0.5442 -0.4658
17734TIP3   OH274616   6.420   0.876   5.122 -0.0718 -0.0835  0.5108
17734TIP3    H174617   6.334   0.896   5.159 -0.4143  1.5909 -1.0616
17734TIP3    H274618   6.473   0.954   5.138  1.1624 -1.0639  1.3877
17735TIP3   OH274619   4.952   2.058   3.519  0.1822  0.4144  0.2163
17735TIP3    H174620   4.897   2.132   3.494  0.3681  1.0520  1.5993
17735TIP3    H274621   4.895   1.982   3.512 -0.5821  0.9382  0.6236
17736TIP3   OH274622   3.233   0.299   4.774  0.2550 -0.4725 -0.1707
17736TIP3    H174623   3.138   0.284   4.771 -0.0034  0.7734  1.0857
17736TIP3    H274624   3.245   0.360   4.846  1.8446  0.7862 -1.4550
17737TIP3   OH274625   5.629   6.591   4.943 -0.1109 -0.3988  0.4956
17737TIP3    H174626   5.645   6.497   4.934 -2.2138 -0.7928  0.4569
17737TIP3    H274627   5.705   6.632   4.902  0.7746 -2.0696  0.3841
17738TIP3   OH274628   1.984   0.463   5.028  0.5720  0.7667 -0.3153
17738TIP3    H174629   2.037   0.513   4.965  0.7277  0.1055 -0.7207
17738TIP3    H274630   1.942   0.530   5.082  1.3281  1.3231 -0.3932
17739TIP3   OH274631   1.991   1.235   6.057 -0.0372 -0.0072 -0.1144
17739TIP3    H174632   2.084   1.246   6.040 -0.0350  0.3442  0.1035
17739TIP3    H274633   1.982   1.255   6.151 -0.4023  0.4451 -0.2432
17740TIP3   OH274634   3.091   6.338   1.392 -0.3332  0.7805 -0.0040
17740TIP3    H174635   3.079   6.294   1.477  0.3082 -0.4280 -0.5179
17740TIP3    H274636   3.090   6.267   1.328 -1.7754  1.7762 -1.1218
17741TIP3   OH274637   7.076   5.411   0.907 -0.1204 -0.2301  0.8729
17741TIP3    H174638   7.057   5.504   0.896 -0.9028 -0.3613  1.0648
17741TIP3    H274639   7.142   5.392   0.840  1.3157  0.8193  1.9124
17742TIP3   OH274640   3.025   3.605   5.647  0.7900 -0.0536  0.0182
17742TIP3    H174641   3.112   3.565   5.651  0.4576 -0.7383  3.0385
17742TIP3    H274642   2.989   3.593   5.735 -1.1781  2.9324 -0.2245
17743TIP3   OH274643   4.281   2.095   3.411  0.2296 -0.3244  0.0909
17743TIP3    H174644   4.207   2.043   3.379 -0.6318  0.6629  0.4118
17743TIP3    H274645   4.300   2.059   3.497 -2.3488  1.7031  1.6686
17744TIP3   OH274646   1.828   5.198   3.490  0.2508 -0.0724 -0.2233
17744TIP3    H174647   1.877   5.145   3.553  0.8651  0.9255  0.1785
17744TIP3    H274648   1.793   5.270   3.542  1.4503  1.2203 -1.1103
17745TIP3   OH274649   2.750   1.927   3.610  0.3964 -0.2970  0.4430
17745TIP3    H174650   2.664   1.887   3.623 -0.0260  0.1789 -0.7617
17745TIP3    H274651   2.812   1.865   3.650 -0.4923 -0.6598  1.2875
17746TIP3   OH274652   7.043   4.685   4.353 -0.0890 -0.0098 -0.4527
17746TIP3    H174653   7.036   4.780   4.349  0.7098  0.0477 -0.8018
17746TIP3    H274654   7.137   4.668   4.360 -0.1877 -0.7812 -0.8447
17747TIP3   OH274655   4.541   6.878   3.575 -0.4726 -0.6950 -0.5732
17747TIP3    H174656   4.615   6.924   3.613 -1.8298  0.5730  0.6763
17747TIP3    H274657   4.501   6.942   3.515 -1.8338 -0.4912  0.4801
17748TIP3   OH274658   6.060   5.888   2.836  0.2556  0.2988 -0.9901
17748TIP3    H174659   5.986   5.910   2.780 -1.4273  0.5876  1.2072
17748TIP3    H274660   6.096   5.972   2.863  2.0049  0.1750 -2.6745
17749TIP3   OH274661   6.223   3.819   2.808 -0.2464  0.0530  0.0660
17749TIP3    H174662   6.260   3.905   2.787 -0.0254 -0.3114 -1.0897
17749TIP3    H274663   6.243   3.764   2.732 -0.5801 -0.9682  0.6892
17750TIP3   OH274664   4.150   4.417   1.741 -0.3338  0.3045 -0.0437
17750TIP3    H174665   4.227   4.374   1.704  0.8266  2.6031 -0.4949
17750TIP3    H274666   4.186   4.480   1.803 -1.8366  1.5342 -0.3707
17751TIP3   OH274667   3.992   1.626   3.400  0.1001 -0.6523  0.5571
17751TIP3    H174668   4.066   1.665   3.446  0.8989 -0.2851 -0.9955
17751TIP3    H274669   3.991   1.535   3.429  0.8384 -0.5333  0.9771
17752TIP3   OH274670   3.124   4.086   4.861  0.0264 -0.1779 -0.1148
17752TIP3    H174671   3.079   4.170   4.846 -1.9852 -1.0888  0.4447
17752TIP3    H274672   3.083   4.026   4.799  2.1398 -0.5703 -1.2013
17753TIP3   OH274673   2.362   3.684   2.443 -0.1912 -0.4804  0.0686
17753TIP3    H174674   2.419   3.630   2.499 -1.2634 -0.9419  0.7601
17753TIP3    H274675   2.420   3.717   2.374  0.2287 -3.8782 -1.4034
17754TIP3   OH274676   6.774   3.628   3.824  0.3578  0.3999 -0.0951
17754TIP3    H174677   6.722   3.572   3.883 -1.4538  0.2558 -1.7365
17754TIP3    H274678   6.732   3.618   3.739  2.5380  1.0888 -1.3083
17755TIP3   OH274679   4.461   4.625   4.792  0.6523 -0.1609 -0.0645
17755TIP3    H174680   4.434   4.707   4.835 -0.7760 -0.7322  0.1750
17755TIP3    H274681   4.401   4.559   4.826  2.2108 -1.4648  0.2453
17756TIP3   OH274682   2.739   1.376   3.193  0.0769  0.3118 -0.3983
17756TIP3    H174683   2.693   1.327   3.125 -1.1443 -0.3913  0.8755
17756TIP3    H274684   2.696   1.350   3.274  2.2585  0.2141  0.7920
17757TIP3   OH274685   4.376   2.776  11.167 -0.7852  0.7266 -0.4849
17757TIP3    H174686   4.282   2.766  11.184 -0.7533  0.9061 -0.2014
17757TIP3    H274687   4.396   2.866  11.191 -0.0527  0.0144  1.8127
17758TIP3   OH274688   6.403   5.283   1.864 -0.5123 -0.3722 -0.2768
17758TIP3    H174689   6.472   5.244   1.811 -1.2060 -1.6519 -0.2725
17758TIP3    H274690   6.384   5.367   1.821  0.5397 -0.3242 -0.6756
17759TIP3   OH274691   1.648   5.106   4.321 -0.1206 -0.1806 -0.1036
17759TIP3    H174692   1.615   5.095   4.232  0.8404  1.6689 -0.7310
17759TIP3    H274693   1.618   5.193   4.347 -1.1190 -1.0177  1.7364
17760TIP3   OH274694   5.581   5.232   4.147  0.1843  0.3213  0.3423
17760TIP3    H174695   5.574   5.238   4.242  1.5624 -2.0944  0.6820
17760TIP3    H274696   5.514   5.169   4.122  0.3392  0.3652 -0.1941
17761TIP3   OH274697   3.993   3.106   2.543 -0.2237 -0.1492 -0.0893
17761TIP3    H174698   4.050   3.070   2.611  0.5645  0.3481 -0.4680
17761TIP3    H274699   3.949   3.181   2.585  0.5696  0.4076 -0.2361
17762TIP3   OH274700   3.765   1.639   3.560  0.1555  0.3136 -0.9874
17762TIP3    H174701   3.775   1.709   3.624  1.5292 -0.6368 -0.0974
17762TIP3    H274702   3.839   1.650   3.500  1.1480 -1.0756 -0.0884
17763TIP3   OH274703   3.880   3.578   0.532  0.7634 -0.0397 -0.5916
17763TIP3    H174704   3.836   3.623   0.459 -0.2860  1.3220  0.8249
17763TIP3    H274705   3.815   3.516   0.564  0.7440  0.2732 -0.0156
17764TIP3   OH274706   4.238   4.215   5.149  0.1189  0.1219  0.7169
17764TIP3    H174707   4.330   4.238   5.138  0.5074 -1.5351  0.2176
17764TIP3    H274708   4.228   4.201   5.244 -0.0185  1.7694  0.9712
17765TIP3   OH274709   3.374   3.649   5.157 -0.0904  0.0629 -0.3095
17765TIP3    H174710   3.280   3.644   5.144 -0.3055  2.2666  0.0351
17765TIP3    H274711   3.400   3.559   5.176 -2.3570 -0.3723  1.1068
17766TIP3   OH274712   1.146   0.507   1.200 -0.1497  0.7699 -0.3163
17766TIP3    H174713   1.084   0.575   1.172  0.5530  1.9108  0.7576
17766TIP3    H274714   1.093   0.446   1.251 -0.5990  1.1298 -0.3393
17767TIP3   OH274715   5.219   4.201   4.065  0.3853 -0.3112  0.1930
17767TIP3    H174716   5.304   4.207   4.021 -0.1132 -0.1672 -0.7623
17767TIP3    H274717   5.163   4.155   4.003 -0.4092  0.1602  0.5547
17768TIP3   OH274718   1.186   5.203   4.838 -0.0818  0.2093 -0.3092
17768TIP3    H174719   1.095   5.232   4.849  0.2742  1.7698 -1.1543
17768TIP3    H274720   1.236   5.260   4.896  0.2632 -1.4548  1.0807
17769TIP3   OH274721   2.141   0.082   3.650 -0.6224 -0.1228 -0.4026
17769TIP3    H174722   2.057   0.123   3.669  0.7505  2.7173  0.0677
17769TIP3    H274723   2.169   0.121   3.568  0.2734 -1.0155 -0.5395
17770TIP3   OH274724   6.518   6.788   2.655  0.1042 -0.1133  0.2932
17770TIP3    H174725   6.594   6.789   2.713 -0.1597  3.1025  0.7785
17770TIP3    H274726   6.556   6.780   2.567  1.0503  1.2155  0.5415
17771TIP3   OH274727   2.819   5.645   0.445 -0.3989 -0.0304  0.1341
17771TIP3    H174728   2.731   5.673   0.470  0.1710  1.0014  1.1030
17771TIP3    H274729   2.847   5.711   0.381  0.6911  1.3462  1.9151
17772TIP3   OH274730   6.823   4.355   1.324  0.4872  0.9981 -0.4915
17772TIP3    H174731   6.871   4.299   1.386 -1.2768  0.6570  0.6466
17772TIP3    H274732   6.746   4.303   1.300  0.0595  1.9820 -1.3217
17773TIP3   OH274733   7.058   5.121   5.407 -0.6337  0.4605 -0.0859
17773TIP3    H174734   6.965   5.142   5.392 -0.6672  2.5609  2.3802
17773TIP3    H274735   7.058   5.077   5.491  0.6109  0.3646 -0.1301
17774TIP3   OH274736   0.263   6.558   1.825 -0.5222  0.1726  0.1365
17774TIP3    H174737   0.203   6.484   1.836  0.4703 -0.6468  0.1646
17774TIP3    H274738   0.211   6.625   1.780 -1.4493 -0.5097  0.1707
17775TIP3   OH274739   5.461   1.091   3.604 -0.5103 -0.0708 -0.2670
17775TIP3    H174740   5.459   1.165   3.543  0.5187  0.2078  0.0143
17775TIP3    H274741   5.369   1.074   3.624 -1.0234 -1.3495 -3.2630
17776TIP3   OH274742   5.039   0.110   2.076 -0.3060  0.7374  0.3475
17776TIP3    H174743   4.985   0.188   2.073  1.0319  1.7049  0.4024
17776TIP3    H274744   5.108   0.125   2.011  1.0153  0.4371  1.5992
17777TIP3   OH274745   2.849   3.867   5.659  0.8800  0.4021  0.1134
17777TIP3    H174746   2.898   3.785   5.663  2.1246  1.1557  0.8642
17777TIP3    H274747   2.861   3.907   5.745  0.2273  1.3422 -0.2127
17778TIP3   OH274748   0.983   3.700   3.752  0.4153  0.0095  0.8415
17778TIP3    H174749   0.939   3.654   3.681 -0.1222  0.5732  0.8037
17778TIP3    H274750   1.071   3.716   3.719  0.1176  0.4157  0.2255
17779TIP3   OH274751   3.592   4.022   4.514 -0.5054  0.0349  0.2976
17779TIP3    H174752   3.586   4.023   4.609 -1.5164  2.8803  0.2935
17779TIP3    H274753   3.529   3.954   4.487  1.4308 -2.4603  1.5984
17780TIP3   OH274754   3.672   6.050   1.104 -0.4312  0.2987 -0.3217
17780TIP3    H174755   3.698   6.000   1.181  1.0863  0.8880 -0.4030
17780TIP3    H274756   3.752   6.054   1.051 -1.2293  0.5990 -1.5288
17781TIP3   OH274757   3.354   2.805   5.721  0.5603  0.5796  0.5391
17781TIP3    H174758   3.398   2.822   5.804  0.3335  0.5586  0.6665
17781TIP3    H274759   3.413   2.840   5.655  0.6907  0.6998  0.7171
17782TIP3   OH274760   6.117   3.289   4.389 -0.2233 -0.2572 -0.2744
17782TIP3    H174761   6.141   3.231   4.317  1.6999 -0.7515  0.7080
17782TIP3    H274762   6.196   3.338   4.408 -0.8008  0.1588  1.2275
17783TIP3   OH274763   0.815   2.708   4.550 -0.2904  0.6605 -0.1446
17783TIP3    H174764   0.720   2.702   4.541 -0.0254 -3.1004 -2.3137
17783TIP3    H274765   0.830   2.704   4.645 -2.2614 -1.5658  0.1576
17784TIP3   OH274766   1.733   0.054   1.913  0.1717 -0.6676 -0.0091
17784TIP3    H174767   1.736   0.021   1.823  0.4221 -0.1561 -0.1944
17784TIP3    H274768   1.759   0.146   1.905  1.9519 -1.0695  0.8119
17785TIP3   OH274769   2.829   5.330   3.012 -0.5680 -0.1706 -0.2838
17785TIP3    H174770   2.780   5.334   3.094 -0.8276 -1.9237 -0.3006
17785TIP3    H274771   2.799   5.404   2.961  0.5685  1.7773  1.7014
17786TIP3   OH274772   1.420   2.076   5.148  0.1737 -0.0174  0.0985
17786TIP3    H174773   1.423   1.985   5.177  2.0190 -0.4716 -1.2916
17786TIP3    H274774   1.498   2.115   5.184  0.3265  0.5108 -0.7718
17787TIP3   OH274775   3.407   1.338  12.789  0.0136  0.2483  0.0512
17787TIP3    H174776   3.373   1.428  12.790 -0.9944 -0.1267  0.2232
17787TIP3    H274777   3.429   1.320  12.880 -2.3226 -0.5954  0.5148
17788TIP3   OH274778   0.264   5.447   3.178  0.2803  0.1312 -0.3819
17788TIP3    H174779   0.191   5.468   3.236  0.5901 -0.9444  0.4339
17788TIP3    H274780   0.246   5.496   3.098 -0.5905  0.9849  0.3163
17789TIP3   OH274781   0.196   2.903   4.387 -0.0645  0.3154  0.4924
17789TIP3    H174782   0.287   2.874   4.388 -0.7670 -2.2749 -0.9284
17789TIP3    H274783   0.181   2.931   4.297 -1.3534 -1.9307 -0.0503
17790TIP3   OH274784   4.972   0.353   5.006 -0.1328  0.6149  0.0561
17790TIP3    H174785   4.990   0.306   5.088  0.5716  1.6760  0.5331
17790TIP3    H274786   5.007   0.441   5.020  0.2825  0.7295 -1.5092
17791TIP3   OH274787   4.950   2.128   3.962 -0.4278  0.1135 -0.0151
17791TIP3    H174788   4.887   2.072   3.916  0.9083 -0.2975 -1.4149
17791TIP3    H274789   5.022   2.070   3.985  0.1786  0.8981  0.0932
17792TIP3   OH274790   5.440   1.765   0.031  0.2141 -0.1128 -0.0622
17792TIP3    H174791   5.447   1.833  -0.035 -1.5935 -0.7055 -0.9263
17792TIP3    H274792   5.405   1.809   0.109 -1.4021 -0.0949 -0.7649
17793TIP3   OH274793   5.992   3.559   5.266 -0.0970  0.7956  0.5130
17793TIP3    H174794   5.996   3.511   5.349 -1.5247 -1.4861 -0.6370
17793TIP3    H274795   5.985   3.491   5.199  0.5647  2.5714 -1.4953
17794TIP3   OH274796   3.562   0.956   4.071  0.1116  0.2381  0.0177
17794TIP3    H174797   3.554   0.924   3.981 -1.4129 -0.6281  0.4237
17794TIP3    H274798   3.504   1.031   4.075  0.0293  0.1588  0.3213
17795TIP3   OH274799   6.592   3.537   5.012  0.2352  0.9473 -0.1757
17795TIP3    H174800   6.505   3.500   5.024  0.6801 -0.8030 -1.8587
17795TIP3    H274801   6.589   3.577   4.925  1.4051 -0.1038 -0.7237
17796TIP3   OH274802   4.767   1.615   3.804  0.4195 -0.1347  0.7153
17796TIP3    H174803   4.786   1.546   3.868 -0.6140 -2.0200 -0.9166
17796TIP3    H274804   4.692   1.662   3.842  1.7913  0.8734  2.3445
17797TIP3   OH274805   0.842   1.552   4.592  0.2956  0.6084  0.7868
17797TIP3    H174806   0.899   1.577   4.665  1.1838  1.0156 -0.0252
17797TIP3    H274807   0.813   1.635   4.554  1.8296  0.4606 -0.8309
17798TIP3   OH274808   2.687   2.200   3.736 -0.9459  0.6678 -0.3513
17798TIP3    H174809   2.734   2.131   3.689 -0.6406  0.0139  0.8677
17798TIP3    H274810   2.635   2.153   3.802 -0.1885  1.6128  0.9696
17799TIP3   OH274811   6.756   1.929   1.091 -0.1520  0.0016  0.0103
17799TIP3    H174812   6.795   2.010   1.125 -0.7899 -0.3620  1.6845
17799TIP3    H274813   6.664   1.951   1.076  0.1483  0.1996 -1.7034
17800TIP3   OH274814   1.778   0.200   3.957  0.3355  0.0772  0.5504
17800TIP3    H174815   1.693   0.157   3.960  0.5270 -0.3148  0.5568
17800TIP3    H274816   1.836   0.142   4.007  0.4974  0.5923  0.9712
17801TIP3   OH274817   6.766   1.814  14.954 -0.2308 -0.2016 -0.3304
17801TIP3    H174818   6.790   1.788  15.043  0.8697 -1.6034 -1.0049
17801TIP3    H274819   6.682   1.860  14.964 -1.5763 -2.7652  1.1460
17802TIP3   OH274820   5.452   6.691   5.127  0.4749 -0.3519 -0.3103
17802TIP3    H174821   5.484   6.780   5.109  0.5554 -0.3248 -0.0431
17802TIP3    H274822   5.469   6.642   5.047 -1.7737  0.4776 -1.4101
17803TIP3   OH274823   1.206   2.542   4.263 -0.2637  0.0548 -0.4364
17803TIP3    H174824   1.223   2.577   4.351  2.5188  0.7008 -1.1438
17803TIP3    H274825   1.221   2.448   4.271  1.2931  0.2834 -0.4650
17804TIP3   OH274826   6.713   0.980   0.840 -0.2867 -0.1334 -0.4267
17804TIP3    H174827   6.620   0.969   0.820 -0.8036 -1.0403  2.1053
17804TIP3    H274828   6.718   1.064   0.887  0.5426  0.9140 -2.2735
17805TIP3   OH274829   6.566   3.932   2.223 -0.1894  0.0318  0.6508
17805TIP3    H174830   6.601   3.930   2.134 -1.4846 -0.4238  0.1208
17805TIP3    H274831   6.626   3.988   2.272  0.4573  0.4033 -0.5434
17806TIP3   OH274832   6.043   5.048   2.376  0.4755 -0.1276  0.7249
17806TIP3    H174833   6.086   5.114   2.432  1.3852  1.7756 -2.0077
17806TIP3    H274834   6.115   5.012   2.324 -0.5675 -0.5098 -0.4772
17807TIP3   OH274835   0.586   1.702   2.818  0.4826 -0.1973  0.5091
17807TIP3    H174836   0.498   1.738   2.807 -0.2235 -1.4475  1.7694
17807TIP3    H274837   0.642   1.779   2.830 -0.7145  0.5610  1.4455
17808TIP3   OH274838   2.349   2.780   4.342  0.5656  0.5190 -0.3462
17808TIP3    H174839   2.332   2.854   4.401  1.1010  1.3055 -1.1643
17808TIP3    H274840   2.262   2.752   4.313  0.3192  0.3591  0.5206
17809TIP3   OH274841   1.942   0.713   4.656 -0.5488  0.3959  0.0095
17809TIP3    H174842   1.877   0.700   4.588 -0.4830  0.1384 -0.0043
17809TIP3    H274843   1.892   0.720   4.737 -0.5199 -1.4074  0.2274
17810TIP3   OH274844   5.644   7.012   0.610 -0.2293 -0.2059  0.3121
17810TIP3    H174845   5.622   6.920   0.626  2.3091 -1.2410 -1.4902
17810TIP3    H274846   5.709   7.032   0.678 -0.2989  0.0682  0.2970
17811TIP3   OH274847   5.244   4.146   3.321  0.4357 -0.9638  0.5830
17811TIP3    H174848   5.245   4.074   3.258  0.7349  0.0273 -0.5954
17811TIP3    H274849   5.253   4.104   3.407  0.9955 -2.2944 -0.1030
17812TIP3   OH274850   5.577   5.868   0.241  0.1817  0.3902  0.1100
17812TIP3    H174851   5.628   5.848   0.162  1.9467  0.0961  1.2732
17812TIP3    H274852   5.487   5.845   0.217  0.9414 -1.5639 -1.1800
17813TIP3   OH274853   4.625   6.456  13.177 -0.3685 -0.7303 -0.0890
17813TIP3    H174854   4.595   6.532  13.228 -0.6148 -1.7592  1.3666
17813TIP3    H274855   4.545   6.419  13.140 -0.3069 -0.6030 -0.3545
17814TIP3   OH274856   2.479   5.821  15.041  0.1954  0.2664  0.5152
17814TIP3    H174857   2.469   5.763  14.965  0.9251 -0.0357  0.6356
17814TIP3    H274858   2.456   5.766  15.116 -0.2707  0.4885  0.5378
17815TIP3   OH274859   0.301   5.144   4.202 -0.6803 -0.2941  0.1662
17815TIP3    H174860   0.235   5.081   4.228  1.1603 -2.1462  0.6404
17815TIP3    H274861   0.383   5.095   4.201  0.5475  1.5611 -1.6296
17816TIP3   OH274862   1.366   0.935   4.396  0.0880  0.2108  0.1185
17816TIP3    H174863   1.271   0.932   4.392  0.0808  0.1826  0.3124
17816TIP3    H274864   1.388   1.028   4.383  0.1169  0.0019 -1.6459
17817TIP3   OH274865   2.547   0.757   0.787 -0.1215 -0.7706 -0.1708
17817TIP3    H174866   2.568   0.843   0.750  1.5407 -0.7213  0.7684
17817TIP3    H274867   2.514   0.707   0.713 -1.6023  0.7943 -0.6508
17818TIP3   OH274868   6.017   1.357   2.212  0.0518 -0.0598  0.1376
17818TIP3    H174869   6.061   1.272   2.217  1.2185  0.5170  0.1719
17818TIP3    H274870   6.064   1.411   2.275  0.7767  1.2329 -1.4505
17819TIP3   OH274871   0.832   6.080   2.866 -0.2560  0.5233  0.6296
17819TIP3    H174872   0.856   6.026   2.791 -0.2739  1.6956 -0.2565
17819TIP3    H274873   0.737   6.071   2.873 -0.2054  0.0984  0.7614
17820TIP3   OH274874   2.608   3.242   5.006 -0.8707 -0.1822 -0.1085
17820TIP3    H174875   2.677   3.264   5.069  0.4394 -0.7594 -1.2962
17820TIP3    H274876   2.570   3.326   4.982  0.6559  0.3600 -0.7814
17821TIP3   OH274877   0.452   5.716   1.900 -0.3146  0.3673 -0.0546
17821TIP3    H174878   0.434   5.657   1.827 -1.2551  1.8068 -1.0345
17821TIP3    H274879   0.547   5.727   1.899 -0.0147 -1.6454  0.6147
17822TIP3   OH274880   1.038   3.480   2.220 -0.6727 -0.1198 -0.3654
17822TIP3    H174881   1.100   3.418   2.181 -0.1096  0.7344 -0.8527
17822TIP3    H274882   0.952   3.448   2.194 -0.4598 -1.3281  0.3207
17823TIP3   OH274883   3.730   4.208   4.352 -0.8678 -0.1353 -0.2667
17823TIP3    H174884   3.823   4.213   4.373 -0.6416  0.2467 -1.3123
17823TIP3    H274885   3.695   4.142   4.412  0.0870 -0.3183  0.0965
17824TIP3   OH274886   3.097   0.545   3.128 -0.6104 -0.3306 -0.5907
17824TIP3    H174887   3.109   0.465   3.076  0.1228 -2.0084  1.9669
17824TIP3    H274888   3.021   0.526   3.184  0.3436  0.1919  0.9404
17825TIP3   OH274889   6.710   4.323   5.285  0.0230  0.5125  0.6265
17825TIP3    H174890   6.792   4.288   5.318  1.6776  2.1555 -1.4108
17825TIP3    H274891   6.642   4.277   5.334  2.0923 -2.0445  1.3137
17826TIP3   OH274892   1.752   3.506   5.329  0.1683  0.5963 -0.6347
17826TIP3    H174893   1.691   3.579   5.319  1.2070  1.2719 -2.3211
17826TIP3    H274894   1.839   3.545   5.325  0.7455 -0.6457 -0.8118
17827TIP3   OH274895   3.535   0.938   2.818 -0.2320 -0.5088 -0.1026
17827TIP3    H174896   3.598   0.933   2.890  0.1841 -2.2556 -0.5416
17827TIP3    H274897   3.455   0.972   2.859  0.0079 -1.4131  1.1985
17828TIP3   OH274898   2.409   6.135   3.186 -0.8562 -0.2260  0.2587
17828TIP3    H174899   2.461   6.192   3.243 -0.5438 -1.0776  0.8395
17828TIP3    H274900   2.323   6.130   3.230  0.1552 -3.0390  2.2158
17829TIP3   OH274901   0.892   3.461   2.444 -0.0613 -0.6000 -0.0985
17829TIP3    H174902   0.874   3.367   2.453  2.2280 -1.1953 -1.1568
17829TIP3    H274903   0.908   3.474   2.351 -0.7593  0.9556 -0.0292
17830TIP3   OH274904   4.929   4.832  14.804  0.0170  0.2718  0.2447
17830TIP3    H174905   4.850   4.777  14.803 -0.3277  0.7589 -0.4162
17830TIP3    H274906   4.958   4.831  14.895 -1.0691  0.5197  0.6151
17831TIP3   OH274907   6.230   0.241   0.818  0.1771 -0.4902 -0.3415
17831TIP3    H174908   6.272   0.319   0.782  1.2556 -0.5134  0.7886
17831TIP3    H274909   6.166   0.276   0.881 -0.5459 -0.4953 -1.0518
17832TIP3   OH274910   2.022   7.013   1.217 -0.0986 -0.0959 -0.0675
17832TIP3    H174911   2.001   7.030   1.125  1.6645  0.1108 -0.4726
17832TIP3    H274912   1.979   6.930   1.236  0.4172 -0.7261 -1.4483
17833TIP3   OH274913   0.863   1.398   1.424  0.3207  0.8734 -0.1897
17833TIP3    H174914   0.941   1.450   1.405  0.7075  0.3775 -0.0023
17833TIP3    H274915   0.791   1.446   1.384  0.3416  2.6932  1.7969
17834TIP3   OH274916   0.010   6.362   5.472  0.2310  0.9362 -0.6092
17834TIP3    H174917  -0.056   6.385   5.537  0.3775  0.9858 -0.4772
17834TIP3    H274918   0.065   6.296   5.516 -0.1140  0.4228 -0.9417
17835TIP3   OH274919   2.620   2.957   4.482  0.2115 -0.2080 -0.0653
17835TIP3    H174920   2.695   2.931   4.536  0.1123 -1.1161 -0.3463
17835TIP3    H274921   2.548   2.965   4.544  0.6529  1.2736  0.3017
17836TIP3   OH274922   4.211   3.941   1.239  0.2679 -0.0503 -0.7352
17836TIP3    H174923   4.238   4.026   1.274 -2.1277  0.0909  1.1014
17836TIP3    H274924   4.117   3.951   1.222  0.2567 -1.8535 -2.0896
17837TIP3   OH274925   6.798   2.109   3.450 -0.1448  0.4384  0.1550
17837TIP3    H174926   6.871   2.159   3.412  0.2331 -1.1368 -1.3214
17837TIP3    H274927   6.721   2.140   3.402  0.1568 -0.6689 -1.0969
17838TIP3   OH274928   0.432   3.296   0.300  0.4897  0.5689  0.3572
17838TIP3    H174929   0.397   3.292   0.211  0.9090  0.6429  0.1848
17838TIP3    H274930   0.376   3.237   0.351  0.1646  0.6318  0.0748
17839TIP3   OH274931   1.671   6.346   5.145 -0.4027  0.1346 -0.2653
17839TIP3    H174932   1.719   6.427   5.126 -0.7293  0.4290  0.1371
17839TIP3    H274933   1.626   6.364   5.228  2.5250 -1.7779  1.9434
17840TIP3   OH274934   3.175   2.112   3.997  0.1310 -0.4133  0.2476
17840TIP3    H174935   3.165   2.017   4.008 -3.2600 -0.1119  0.9560
17840TIP3    H274936   3.123   2.150   4.068  0.2804  1.9658 -0.8138
17841TIP3   OH274937   6.566   2.814   5.549  0.6488  0.8932  0.8112
17841TIP3    H174938   6.625   2.881   5.581  0.8938  0.8450  0.4666
17841TIP3    H274939   6.623   2.741   5.523  0.4123  0.6918  0.8482
17842TIP3   OH274940   3.405   4.740   5.222 -0.0012  0.1132 -0.2203
17842TIP3    H174941   3.337   4.764   5.284 -2.3201 -1.4193 -2.0072
17842TIP3    H274942   3.457   4.674   5.268 -1.5309 -0.8211  0.2559
17843TIP3   OH274943   4.737   5.304   5.221 -0.2190 -0.2861 -0.4223
17843TIP3    H174944   4.679   5.380   5.215  2.3844  1.7783 -1.3838
17843TIP3    H274945   4.793   5.323   5.297  1.2495 -0.6016 -1.3808
17844TIP3   OH274946   3.480   2.770   2.474 -0.6492  0.0050  0.0414
17844TIP3    H174947   3.449   2.860   2.485 -1.0964 -0.1103 -0.2391
17844TIP3    H274948   3.550   2.760   2.539  1.0716  1.3027 -1.5150
17845TIP3   OH274949   5.487   4.979   3.284  0.1447  0.5702  0.5955
17845TIP3    H174950   5.445   5.053   3.329  0.2969 -0.3730  2.3595
17845TIP3    H274951   5.523   4.925   3.354  0.2530 -1.0720 -0.6648
17846TIP3   OH274952   1.425   3.742   1.836 -0.2574  0.1626 -0.1293
17846TIP3    H174953   1.365   3.711   1.904  0.4559 -2.1080 -0.4508
17846TIP3    H274954   1.418   3.837   1.839 -1.6746  0.0468  1.8072
17847TIP3   OH274955   3.224   3.629   4.448 -0.0251  0.2868  0.3754
17847TIP3    H174956   3.228   3.556   4.385 -0.1328  0.7670 -0.1967
17847TIP3    H274957   3.203   3.587   4.532  2.2115 -0.6251  0.5522
17848TIP3   OH274958   6.261   4.602   2.121 -0.1085  0.6441 -0.1950
17848TIP3    H174959   6.292   4.517   2.089  0.7067  0.0602  1.9717
17848TIP3    H274960   6.169   4.605   2.095 -0.3424 -1.2133  0.2475
17849TIP3   OH274961   4.845   0.878   4.874 -0.1711 -0.5087 -0.2533
17849TIP3    H174962   4.779   0.858   4.807 -0.0685 -0.2209 -0.4454
17849TIP3    H274963   4.925   0.837   4.842  0.0878  0.3643 -0.7508
17850TIP3   OH274964   5.290   0.111  13.634  0.1864 -0.1628 -0.1643
17850TIP3    H174965   5.223   0.177  13.648 -2.1787 -1.9456 -2.0851
17850TIP3    H274966   5.341   0.110  13.715 -1.3526  2.1204  0.9221
17851TIP3   OH274967   4.093   1.273   1.554  0.4930  0.0299  0.3699
17851TIP3    H174968   4.031   1.201   1.566  0.4002  0.0584  0.0699
17851TIP3    H274969   4.158   1.238   1.493  0.3603  0.2532  0.0991
17852TIP3   OH274970   5.450   2.130   2.321  0.0682 -0.6025  0.2152
17852TIP3    H174971   5.430   2.119   2.228  1.3337  0.7452 -0.2530
17852TIP3    H274972   5.401   2.059   2.364  0.1702 -1.8219 -1.5467
17853TIP3   OH274973   2.473   3.893   3.187  0.6713  0.1968  0.2324
17853TIP3    H174974   2.480   3.806   3.227  0.1712  0.2837  0.5150
17853TIP3    H274975   2.414   3.941   3.245 -0.3872  0.2023 -0.8347
17854TIP3   OH274976   5.603   7.093   1.291  0.7202  0.4323  0.0257
17854TIP3    H174977   5.696   7.084   1.315  1.0839  0.2448 -1.3893
17854TIP3    H274978   5.587   7.187   1.293  0.2134  0.3801  2.7658
17855TIP3   OH274979   6.418   3.923   5.041 -0.4547 -0.3313 -0.4906
17855TIP3    H174980   6.489   3.946   4.982 -1.1529 -0.3463 -1.3674
17855TIP3    H274981   6.397   4.005   5.086 -0.1113 -0.2497 -0.4779
17856TIP3   OH274982   1.680   7.015   5.448  0.2478  0.1311  0.0570
17856TIP3    H174983   1.734   7.093   5.451  1.5949 -0.7939  1.6715
17856TIP3    H274984   1.706   6.964   5.525 -2.0263 -0.9749  0.1880
17857TIP3   OH274985   4.185   2.207   4.450  0.5185  0.5768  0.0090
17857TIP3    H174986   4.121   2.198   4.521  0.8752  1.5438  0.4612
17857TIP3    H274987   4.135   2.187   4.371 -0.0299  0.0781  0.4642
17858TIP3   OH274988   0.819   5.817   4.990 -0.3578 -0.6994 -0.0338
17858TIP3    H174989   0.915   5.824   4.986 -0.2698  0.8840  2.4446
17858TIP3    H274990   0.788   5.906   4.975 -1.2967 -0.7847  1.2412
17859TIP3   OH274991   4.869   2.400   4.382 -0.2131  0.5181  0.2774
17859TIP3    H174992   4.869   2.337   4.310  0.8436  0.0565  0.6653
17859TIP3    H274993   4.940   2.460   4.362 -0.1635  0.6177  0.7428
17860TIP3   OH274994   6.208   3.171   5.261  0.4526 -0.0690  0.4173
17860TIP3    H174995   6.189   3.132   5.346 -1.2301 -0.2078  0.0258
17860TIP3    H274996   6.161   3.254   5.262  0.8783  0.1848 -0.1635
17861TIP3   OH274997   0.748   4.256   5.439  0.7835 -0.4644 -0.3430
17861TIP3    H174998   0.818   4.317   5.417 -0.8017  1.5154 -0.2411
17861TIP3    H274999   0.714   4.288   5.523 -1.5528 -0.0736 -1.3598
17862TIP3   OH275000   5.830   4.708   5.643 -0.1314  0.1675  0.3627
17862TIP3    H175001   5.884   4.775   5.685  0.0209  0.9594 -1.0423
17862TIP3    H275002   5.742   4.745   5.639  0.0805  0.5783 -0.9790
17863TIP3   OH275003   4.364   5.191   3.949  0.9145 -0.2281  0.6759
17863TIP3    H175004   4.291   5.239   3.910 -0.2489 -1.3688  1.3608
17863TIP3    H275005   4.392   5.246   4.023  0.0106 -0.3127  1.0849
17864TIP3   OH275006   3.986   3.142   4.467 -0.3143  0.1965  0.0461
17864TIP3    H175007   4.073   3.114   4.438 -0.3436  0.2051 -0.0485
17864TIP3    H275008   3.948   3.063   4.506 -0.2927  0.1739  0.0209
17865TIP3   OH275009   4.027   3.422  14.129 -0.2175 -0.1127 -0.6101
17865TIP3    H175010   3.966   3.454  14.196 -0.0132  1.7338 -1.2592
17865TIP3    H275011   3.981   3.348  14.089 -0.5473 -0.9651  1.2056
17866TIP3   OH275012   4.823   3.455   2.501  0.0265  0.2355 -0.2364
17866TIP3    H175013   4.748   3.447   2.560  1.3402 -0.1365  1.4855
17866TIP3    H275014   4.811   3.539   2.457 -0.9087  0.6198  0.7205
17867TIP3   OH275015   4.454   3.575   3.543  0.0458  0.1670  0.3938
17867TIP3    H175016   4.432   3.572   3.636 -1.5176 -2.6985  0.0171
17867TIP3    H275017   4.550   3.575   3.542  0.1038 -0.4636  2.0015
17868TIP3   OH275018   5.705   5.208   1.172 -0.3928  0.2027 -0.7507
17868TIP3    H175019   5.645   5.186   1.101 -0.6929 -0.8339 -0.2109
17868TIP3    H275020   5.790   5.219   1.130 -0.9151  1.5467 -1.5059
17869TIP3   OH275021   0.368   0.879   0.708  0.1392  0.0122 -0.0094
17869TIP3    H175022   0.320   0.814   0.656 -0.8203  0.7295 -0.0585
17869TIP3    H275023   0.301   0.916   0.766  0.5245  1.4028 -0.4244
17870TIP3   OH275024   6.373   3.705   0.955  0.1659 -0.2244 -0.1635
17870TIP3    H175025   6.318   3.726   0.880  0.4947 -1.9253 -0.9218
17870TIP3    H275026   6.445   3.654   0.919  0.5928 -0.6718  1.2396
17871TIP3   OH275027   3.793   3.024   4.258 -0.3888  0.5956 -0.0062
17871TIP3    H175028   3.856   2.963   4.296 -0.8187  1.5086  2.3522
17871TIP3    H275029   3.819   3.110   4.291 -2.2606  1.1303  0.2234
17872TIP3   OH275030   2.951   4.327   3.342  0.0752  0.1797  0.4193
17872TIP3    H175031   2.928   4.419   3.325  0.6151  0.0251 -1.3164
17872TIP3    H275032   2.868   4.286   3.365 -0.1182  1.1657  1.5774
17873TIP3   OH275033   2.149   4.449   3.722 -0.0128  0.2102  0.2464
17873TIP3    H175034   2.206   4.497   3.661 -0.1962  0.3275  0.1642
17873TIP3    H275035   2.206   4.425   3.795  0.2423 -0.0441 -0.0305
17874TIP3   OH275036   4.287   3.430   4.578  0.6742 -0.5843  0.2019
17874TIP3    H175037   4.242   3.376   4.643  0.3019 -3.3122 -2.1041
17874TIP3    H275038   4.218   3.458   4.518  1.4129 -1.1715 -0.9681
17875TIP3   OH275039   3.779   6.464   4.021 -0.2357 -0.0710 -0.5121
17875TIP3    H175040   3.726   6.466   3.941  0.1661 -0.4828 -0.7952
17875TIP3    H275041   3.809   6.555   4.032 -1.8859  0.4065  0.2735
17876TIP3   OH275042   2.114   4.869   2.879  0.4706 -0.4479 -1.1486
17876TIP3    H175043   2.200   4.890   2.917 -0.4026 -1.3187  1.5003
17876TIP3    H275044   2.129   4.788   2.830  1.4487  0.2211 -1.9965
17877TIP3   OH275045   1.038   3.165   4.986  0.1421  0.2182 -0.2766
17877TIP3    H175046   1.055   3.141   4.895 -2.4225  0.9074 -1.0163
17877TIP3    H275047   0.968   3.107   5.014  1.2365 -0.3588  1.5124
17878TIP3   OH275048   2.778   0.200  14.314 -0.1566 -0.6803 -0.3181
17878TIP3    H175049   2.850   0.153  14.356 -1.1518 -0.1896  2.1178
17878TIP3    H275050   2.821   0.267  14.260  1.2892  0.2627  1.8578
17879TIP3   OH275051   5.013   4.570   3.588  0.0095 -0.2565 -0.4334
17879TIP3    H175052   5.034   4.486   3.629  2.1363  0.0242 -0.8776
17879TIP3    H275053   4.987   4.548   3.499  1.4468 -0.4114 -0.8370
17880TIP3   OH275054   6.127   6.177   4.680 -0.6780 -0.1813 -0.6020
17880TIP3    H175055   6.139   6.268   4.708  3.9578  0.3609 -3.3225
17880TIP3    H275056   6.176   6.125   4.744  0.2212 -0.2032 -1.2787
17881TIP3   OH275057   0.542   5.918   1.489  0.1586 -0.1898 -0.2225
17881TIP3    H175058   0.473   5.876   1.438  0.6476  0.0664 -1.1120
17881TIP3    H275059   0.505   5.928   1.577 -1.2970  0.8212 -0.9149
17882TIP3   OH275060   3.146   1.106   2.750 -0.3923  0.5662  0.2220
17882TIP3    H175061   3.209   1.087   2.681  1.6820 -0.4998  2.2817
17882TIP3    H275062   3.097   1.025   2.761  1.4344 -0.3621  2.0454
17883TIP3   OH275063   5.219   4.009   3.556 -0.1506 -0.3089  0.3843
17883TIP3    H175064   5.125   3.999   3.574  0.1265 -0.2404  1.9520
17883TIP3    H275065   5.252   3.920   3.550 -0.6156 -0.4001 -2.1500
17884TIP3   OH275066   4.721   1.068   4.586  0.0601 -0.0511  0.5535
17884TIP3    H175067   4.672   1.072   4.669 -0.7393  1.1756  0.0466
17884TIP3    H275068   4.810   1.096   4.609  0.2906 -1.3107  1.2912
17885TIP3   OH275069   5.895   6.156  15.214  0.2454 -0.3812 -0.4395
17885TIP3    H175070   5.910   6.251  15.219 -1.5347  0.2282 -3.9557
17885TIP3    H275071   5.955   6.126  15.146  1.1021 -1.9538  0.9333
17886TIP3   OH275072   6.504   0.208   0.874  0.3857  0.6205 -0.7130
17886TIP3    H175073   6.432   0.185   0.815  0.2378 -1.0037  0.0390
17886TIP3    H275074   6.507   0.304   0.872  0.0644  0.6376 -2.9300
17887TIP3   OH275075   3.975   5.055   1.204  0.1287  0.0452  0.2964
17887TIP3    H175076   3.906   5.086   1.146 -0.7708 -0.3755  1.1031
17887TIP3    H275077   4.044   5.024   1.145 -0.3720  0.4735 -0.5289
17888TIP3   OH275078   2.796   5.418   4.298  0.2271 -0.2940  0.5617
17888TIP3    H175079   2.748   5.343   4.263 -0.3260  0.0646  0.5348
17888TIP3    H275080   2.803   5.400   4.392 -1.8358  0.6161  0.9559
17889TIP3   OH275081   5.954   4.509   3.947  0.1226  0.1886 -0.1063
17889TIP3    H175082   5.978   4.597   3.920 -1.3315  0.2497 -1.3068
17889TIP3    H275083   5.859   4.510   3.954  0.1825 -0.8778  1.4378
17890TIP3   OH275084   1.467   6.813   1.758  0.4953 -0.6818 -0.5755
17890TIP3    H175085   1.482   6.897   1.800  0.3109 -0.6046 -0.6612
17890TIP3    H275086   1.549   6.766   1.768 -0.4070 -1.8473  2.5366
17891TIP3   OH275087   4.240   1.418   3.149 -0.0839 -0.2284 -0.2986
17891TIP3    H175088   4.328   1.455   3.147 -0.0502 -0.3464 -1.6790
17891TIP3    H275089   4.236   1.370   3.232  1.1542 -0.2183 -0.2223
17892TIP3   OH275090   5.500   3.847   5.247 -0.4715  0.1400  0.2901
17892TIP3    H175091   5.432   3.882   5.190  0.3358  1.5299  0.1202
17892TIP3    H275092   5.543   3.925   5.283  2.2110 -0.5664 -1.0577
17893TIP3   OH275093   0.184   4.329   0.490 -0.6446 -0.0053  0.4509
17893TIP3    H175094   0.201   4.329   0.396 -1.0589 -0.3054  0.3733
17893TIP3    H275095   0.269   4.309   0.530 -0.4631  0.1476  0.1411
17894TIP3   OH275096   2.792   4.658   4.319  0.1077  0.3113 -0.0912
17894TIP3    H175097   2.783   4.742   4.364  0.4061  0.6134 -0.5894
17894TIP3    H275098   2.837   4.601   4.383 -0.7020  0.3188  0.4981
17895TIP3   OH275099   2.775   0.376  13.853 -0.0470  0.8315 -0.0723
17895TIP3    H175100   2.765   0.357  13.760  2.6007 -1.7828  0.0280
17895TIP3    H275101   2.836   0.450  13.856 -1.5401  2.1401 -0.3405
17896TIP3   OH275102   1.633   1.995   3.864  0.4511 -0.2942  0.4554
17896TIP3    H175103   1.646   2.044   3.944 -0.6490 -2.2281  1.9023
17896TIP3    H275104   1.671   1.909   3.882  1.0575 -0.4808 -1.4707
17897TIP3   OH275105   2.701   5.782   2.045  0.1922 -0.5393  0.0535
17897TIP3    H175106   2.775   5.843   2.040  0.3380 -0.7484 -0.3931
17897TIP3    H275107   2.735   5.700   2.012 -0.7520 -0.1502 -2.0675
17898TIP3   OH275108   6.888   0.501   1.747 -0.3481  0.1546  0.2084
17898TIP3    H175109   6.930   0.432   1.798 -0.4866  0.9901  1.4940
17898TIP3    H275110   6.800   0.507   1.784 -0.0632  1.5903  0.7030
17899TIP3   OH275111   4.898   4.374   2.548  0.3498  0.1823 -0.1132
17899TIP3    H175112   4.985   4.335   2.545 -0.2355 -1.1545 -0.4575
17899TIP3    H275113   4.849   4.320   2.610  0.2604  2.0297  1.5124
17900TIP3   OH275114   3.744   4.988   4.141 -0.0152  0.4683 -0.1646
17900TIP3    H175115   3.837   4.967   4.142  0.0680  0.7852 -0.7199
17900TIP3    H275116   3.736   5.064   4.199  0.1721  0.8036 -0.5676
17901TIP3   OH275117   3.922   3.166   5.409  0.1199  0.0104 -0.1140
17901TIP3    H175118   4.009   3.149   5.372  0.9365  1.2952  1.1212
17901TIP3    H275119   3.879   3.081   5.408  0.9138 -0.4209 -1.9183
17902TIP3   OH275120   2.724   3.674  15.189 -0.1223  0.2992  0.3503
17902TIP3    H175121   2.653   3.635  15.238  0.5577 -1.2288  0.1757
17902TIP3    H275122   2.800   3.667  15.246  0.2452  0.3881 -0.1182
17903TIP3   OH275123   3.029   1.016   3.311 -0.6431 -0.4323  0.1976
17903TIP3    H175124   3.107   0.969   3.285  0.4379  1.3543  0.0736
17903TIP3    H275125   2.965   0.947   3.331  0.9582 -1.9345  0.3797
17904TIP3   OH275126   4.155   5.600   4.020 -0.5752 -0.6741  0.0431
17904TIP3    H175127   4.200   5.649   4.089 -0.2410 -1.7679  0.6322
17904TIP3    H275128   4.066   5.634   4.021 -0.3723 -0.1324  0.4848
17905TIP3   OH275129   0.199   4.154   5.235  0.0071 -0.1516  0.0857
17905TIP3    H175130   0.139   4.127   5.305 -0.0060 -2.3222 -0.6993
17905TIP3    H275131   0.282   4.112   5.258  0.3968  0.3193 -0.4450
17906TIP3   OH275132   6.794   4.517   4.888 -0.0194  0.1287  0.1508
17906TIP3    H175133   6.713   4.567   4.898  0.2156  0.3298  1.1413
17906TIP3    H275134   6.841   4.561   4.816  0.3354  1.5651  1.2113
17907TIP3   OH275135   2.330   6.666   5.662  0.7297  0.3606 -0.1610
17907TIP3    H175136   2.378   6.748   5.650  1.3831  0.0190  0.1237
17907TIP3    H275137   2.378   6.619   5.730  0.0832 -0.0561  0.0216
17908TIP3   OH275138   4.583   4.975   4.412  0.0335  0.5995  0.2169
17908TIP3    H175139   4.542   4.916   4.349  0.3032  0.2686  0.3492
17908TIP3    H275140   4.525   4.973   4.488  0.0981  0.4221  0.2613
17909TIP3   OH275141   0.862   6.206   5.268  0.2351  0.3613 -0.1508
17909TIP3    H175142   0.809   6.142   5.315  0.7832  0.1530  0.1859
17909TIP3    H275143   0.952   6.181   5.285  0.4630  1.3002  0.1025
17910TIP3   OH275144   1.655   2.990  15.264  0.5196 -0.4937  0.2997
17910TIP3    H175145   1.595   2.994  15.190 -2.3978  1.0760  2.5464
17910TIP3    H275146   1.605   2.947  15.333  2.0175  0.7473  2.2518
17911TIP3   OH275147   2.244   4.179  12.847 -0.2011  0.1185  0.4334
17911TIP3    H175148   2.317   4.140  12.894 -1.6297  0.0188  2.6927
17911TIP3    H275149   2.268   4.272  12.838  0.6105 -0.0984  0.2524
17912TIP3   OH275150   5.831   6.005   0.095 -0.2812  0.3790 -0.3333
17912TIP3    H175151   5.836   6.054   0.013  1.2580  1.7158  0.5148
17912TIP3    H275152   5.826   5.913   0.068 -2.2681  0.8937 -1.9346
17913TIP3   OH275153   1.214   4.377   4.984 -0.1954 -0.4844  0.2226
17913TIP3    H175154   1.221   4.464   5.024  0.2264 -0.7693  0.7880
17913TIP3    H275155   1.126   4.347   5.009  0.7347 -1.4604  2.6695
17914TIP3   OH275156   4.611   0.830   0.151 -0.1341  0.1134 -0.4621
17914TIP3    H175157   4.616   0.749   0.102 -1.3296 -0.3154  0.0698
17914TIP3    H275158   4.662   0.814   0.230 -0.6889 -0.2745 -0.1749
17915TIP3   OH275159   3.524   4.744   3.921  0.2607 -0.1187 -0.0837
17915TIP3    H175160   3.438   4.760   3.959 -0.0483  0.7554 -1.0828
17915TIP3    H275161   3.548   4.827   3.880  3.1583  0.8001  3.0482
17916TIP3   OH275162   5.097   6.844   3.843  0.8323 -0.1443  0.1154
17916TIP3    H175163   5.184   6.855   3.804  0.2914 -0.0969 -1.1398
17916TIP3    H275164   5.086   6.749   3.851  0.9858 -0.1510  0.2364
17917TIP3   OH275165   4.914   6.046   4.311  0.1287 -0.1109  0.2297
17917TIP3    H175166   4.841   5.987   4.332  1.2041 -1.6351 -0.1342
17917TIP3    H275167   4.878   6.107   4.246 -0.2224 -2.3816 -1.8620
17918TIP3   OH275168   5.174   5.048   2.143 -0.0682 -0.0260  0.3474
17918TIP3    H175169   5.215   5.121   2.189 -1.6683  1.3907 -0.3564
17918TIP3    H275170   5.241   4.980   2.139  2.2555  2.2261 -0.9801
17919TIP3   OH275171   2.380   3.948  14.418  0.3661 -0.7344 -0.1356
17919TIP3    H175172   2.309   3.929  14.479  1.2452 -0.4918  0.9821
17919TIP3    H275173   2.366   3.887  14.345 -2.3865  0.8967 -1.1289
17920TIP3   OH275174   2.625   0.301   5.852 -0.3320  0.7027  0.7732
17920TIP3    H175175   2.565   0.249   5.905  1.4111  0.9604  3.2057
17920TIP3    H275176   2.690   0.238   5.821 -1.2101  0.5967 -0.9190
17921TIP3   OH275177   1.584   0.350   3.612  0.4720 -0.2625 -0.0704
17921TIP3    H175178   1.642   0.278   3.633  1.1209  0.1058 -0.5661
17921TIP3    H275179   1.501   0.308   3.587  0.1929 -0.7613  1.5473
17922TIP3   OH275180   7.168   0.379  15.165 -0.2030  0.1397  0.8851
17922TIP3    H175181   7.247   0.326  15.178 -1.1808 -1.5767  0.1331
17922TIP3    H275182   7.192   0.439  15.094 -0.4634 -2.4683 -1.5714
17923TIP3   OH275183   3.462   6.249   4.894 -0.2312 -0.5767  0.6539
17923TIP3    H175184   3.454   6.180   4.961  0.2870 -0.4428  0.8593
17923TIP3    H275185   3.448   6.331   4.943  2.0666 -0.3327  1.0137
17924TIP3   OH275186   6.097   6.169   2.885 -0.0009  0.0926  0.2782
17924TIP3    H175187   6.008   6.204   2.888  0.1693  0.7299 -1.1742
17924TIP3    H275188   6.150   6.241   2.852  0.9406 -0.4964  0.4612
17925TIP3   OH275189   5.031   1.315   3.389 -0.5272 -0.3096 -0.1516
17925TIP3    H175190   5.031   1.353   3.477  0.1858  0.1078 -0.3208
17925TIP3    H275191   4.938   1.306   3.367 -0.7843  2.1444 -0.4234
17926TIP3   OH275192   0.581   5.103  14.926  0.3576  0.0292 -0.2377
17926TIP3    H175193   0.495   5.074  14.898  0.6057  0.2396 -1.2492
17926TIP3    H275194   0.568   5.194  14.956  0.1604 -0.0753 -0.0047
17927TIP3   OH275195   0.484   1.031   2.110  0.1875 -0.2054 -0.1035
17927TIP3    H175196   0.518   1.052   2.197 -0.6711  2.0555 -0.2320
17927TIP3    H275197   0.554   1.058   2.050  0.1183 -0.1970 -0.1803
17928TIP3   OH275198   3.624   4.226   2.459 -0.2284 -0.2202  0.1928
17928TIP3    H175199   3.716   4.215   2.436  0.0910  0.0443  1.2556
17928TIP3    H275200   3.597   4.305   2.413 -0.0278 -0.4943 -0.4057
17929TIP3   OH275201   4.932   4.210   3.406 -0.2249  0.1183 -0.7149
17929TIP3    H175202   5.028   4.216   3.402 -0.1466 -0.4204  0.1215
17929TIP3    H275203   4.915   4.156   3.483 -1.2750  2.8721  1.1369
17930TIP3   OH275204   5.475   1.599   2.740  0.1288  0.4159 -0.4963
17930TIP3    H175205   5.436   1.653   2.809  0.5427 -0.6356  0.5728
17930TIP3    H275206   5.415   1.525   2.731  1.1235 -0.4902  0.1706
17931TIP3   OH275207   2.442   6.579   2.116  0.2155 -0.4646  0.2212
17931TIP3    H175208   2.536   6.589   2.099 -0.0059  1.8580  0.0373
17931TIP3    H275209   2.437   6.549   2.206  1.1317 -0.6813  0.2122
17932TIP3   OH275210   3.261   5.542  14.875 -0.1992  0.0009 -0.0860
17932TIP3    H175211   3.240   5.448  14.879 -0.1942 -0.1749 -2.4595
17932TIP3    H275212   3.357   5.545  14.883 -0.3462  0.0232  2.0512
17933TIP3   OH275213   3.026   2.612   3.329 -0.6269 -0.5947 -0.2236
17933TIP3    H175214   3.048   2.570   3.413  0.9124  0.3802 -0.0943
17933TIP3    H275215   2.965   2.681   3.353 -0.9772 -0.9641 -0.0449
17934TIP3   OH275216   2.398   0.314   1.593  0.2314  0.0096 -0.4860
17934TIP3    H175217   2.456   0.245   1.562  0.4389  0.7868 -1.9299
17934TIP3    H275218   2.374   0.288   1.682  2.7059 -0.3663  0.1308
17935TIP3   OH275219   2.568   6.526   3.539  0.4437 -0.0282  0.2093
17935TIP3    H175220   2.526   6.607   3.569 -0.5268 -0.0611 -0.9933
17935TIP3    H275221   2.573   6.471   3.618 -0.9346  0.3570  0.5933
17936TIP3   OH275222   5.223   5.272   4.110  0.6225 -0.1233 -0.4154
17936TIP3    H175223   5.237   5.278   4.205 -1.2909 -0.2245 -0.0810
17936TIP3    H275224   5.266   5.191   4.084 -1.9080 -2.0903  1.0677
17937TIP3   OH275225   0.135   5.068   0.383 -0.1885  0.1532 -0.0030
17937TIP3    H175226   0.133   4.986   0.334 -1.9418 -3.0819  4.7071
17937TIP3    H275227   0.049   5.106   0.369 -1.7975 -2.2329  2.3196
17938TIP3   OH275228   5.100   0.616   5.033 -0.3704  0.2746  0.6573
17938TIP3    H175229   5.105   0.687   4.968 -0.9388 -0.4853 -0.2561
17938TIP3    H275230   5.185   0.572   5.027 -0.4117  0.2223  0.4429
17939TIP3   OH275231   7.011   3.192   2.702  0.6091  0.1795 -0.1194
17939TIP3    H175232   7.004   3.282   2.736 -2.7408 -0.8275  2.4069
17939TIP3    H275233   7.005   3.136   2.779 -3.4998 -2.2428 -1.8593
17940TIP3   OH275234   2.393   5.327   2.614 -0.0651 -0.3707  0.5092
17940TIP3    H175235   2.473   5.372   2.640  0.5388 -1.4453  0.5556
17940TIP3    H275236   2.359   5.289   2.696 -0.2146 -0.5490  0.3667
17941TIP3   OH275237   4.888   5.251   3.849 -0.4331  0.2092 -0.2509
17941TIP3    H175238   4.856   5.322   3.794  0.1118 -0.1669 -1.0677
17941TIP3    H275239   4.839   5.174   3.821  0.6572 -0.2313 -1.0528
17942TIP3   OH275240   6.813   6.463  14.541 -0.3325  0.1348 -0.2896
17942TIP3    H175241   6.854   6.417  14.468  1.4548 -1.4790  1.5991
17942TIP3    H275242   6.883   6.518  14.577 -1.3424  1.3417 -0.1191
17943TIP3   OH275243   5.512   0.588   0.472  0.8391 -0.2232  0.2161
17943TIP3    H175244   5.482   0.637   0.548  0.5332 -0.1403  0.0458
17943TIP3    H275245   5.603   0.567   0.491  0.5095 -1.0036  1.0142
17944TIP3   OH275246   4.402   0.481  14.936  0.7753  0.1123 -0.1657
17944TIP3    H175247   4.317   0.445  14.964  0.8626 -0.8902 -1.1204
17944TIP3    H275248   4.447   0.501  15.018 -0.4654  0.8926  0.3565
17945TIP3   OH275249   4.856   0.368   0.875  0.0649  0.3345 -0.4034
17945TIP3    H175250   4.935   0.364   0.929  0.5921  0.1500 -1.1620
17945TIP3    H275251   4.876   0.433   0.808 -0.7527  0.8933 -0.1140
17946TIP3   OH275252   0.724   0.976  13.087  0.0875 -0.0681  0.2108
17946TIP3    H175253   0.652   0.948  13.031 -0.4776 -0.1931  0.9880
17946TIP3    H275254   0.754   0.896  13.130  0.9653 -0.0847 -0.4088
17947TIP3   OH275255   0.807   1.150  13.969  0.1631 -0.4577  0.1102
17947TIP3    H175256   0.825   1.226  13.915 -0.9020 -0.1849  0.1173
17947TIP3    H275257   0.848   1.170  14.053  2.5404 -1.2309 -0.7810
17948TIP3   OH275258   6.596   2.304   2.684  0.1205 -0.5593  0.1272
17948TIP3    H175259   6.593   2.238   2.614 -1.5153  0.2846 -0.6374
17948TIP3    H275260   6.679   2.350   2.670 -0.8152  0.5473 -2.1909
17949TIP3   OH275261   2.286   4.773   4.747 -0.1716 -0.4031  0.1922
17949TIP3    H175262   2.376   4.798   4.725  0.3528 -1.7867  0.5832
17949TIP3    H275263   2.231   4.841   4.710  1.0833  0.8194  0.4986
17950TIP3   OH275264   0.580   2.322   2.956 -0.7678  0.7236  0.0349
17950TIP3    H175265   0.520   2.251   2.932 -0.4696  0.4960 -0.0470
17950TIP3    H275266   0.537   2.401   2.926  0.6441  0.3168 -3.5092
17951TIP3   OH275267   1.600   3.363   3.329 -0.0586 -0.0337 -0.4193
17951TIP3    H175268   1.645   3.323   3.255  1.9940 -0.2474  0.8559
17951TIP3    H275269   1.612   3.302   3.401 -3.2156 -0.5017 -0.1524
17952TIP3   OH275270   4.068   2.866   2.404  0.2216  0.1844 -0.5965
17952TIP3    H175271   4.000   2.827   2.348 -1.8651 -0.0134  1.9072
17952TIP3    H275272   4.043   2.958   2.411  0.0138  0.0491  0.5673
17953TIP3   OH275273   3.872   2.021  12.648  0.3446 -0.0439 -0.5084
17953TIP3    H175274   3.874   1.982  12.561  0.9623  0.3113 -0.6583
17953TIP3    H275275   3.940   2.089  12.646 -0.5889  0.9292 -0.2098
17954TIP3   OH275276   5.176   1.605   4.801 -0.2845 -0.0461 -0.9099
17954TIP3    H175277   5.241   1.566   4.859  0.8096  2.3737 -0.3963
17954TIP3    H275278   5.097   1.612   4.854  0.5661  1.6892  0.2290
17955TIP3   OH275279   6.280   2.067   4.477  0.2340 -0.2797 -0.4514
17955TIP3    H175280   6.250   2.131   4.413 -0.3061 -0.1232 -0.0587
17955TIP3    H275281   6.273   2.113   4.561  0.9236 -0.4818 -0.2758
17956TIP3   OH275282   6.086   2.745   0.989  0.0199  0.2845 -0.6214
17956TIP3    H175283   5.999   2.712   0.968 -0.2417 -0.4211  1.3456
17956TIP3    H275284   6.139   2.667   1.004  0.1112  0.6932  1.4160
17957TIP3   OH275285   5.206   1.504   3.991 -0.4539 -0.0656 -0.2056
17957TIP3    H175286   5.157   1.587   3.990  1.4643  1.1584 -2.0890
17957TIP3    H275287   5.248   1.501   3.905  0.4830 -2.4534  0.2779
17958TIP3   OH275288   5.252   7.148   1.087  0.4062  0.2055  0.1368
17958TIP3    H175289   5.158   7.127   1.086  0.8876 -2.3624 -2.3216
17958TIP3    H275290   5.281   7.119   1.173 -0.7546 -0.6502  0.2743
17959TIP3   OH275291   3.626   4.025   5.048 -0.7617  0.5648 -0.3429
17959TIP3    H175292   3.608   3.933   5.067 -2.3959  0.8574 -0.3688
17959TIP3    H275293   3.695   4.048   5.110  0.0584 -0.8018 -0.6957
17960TIP3   OH275294   5.234   6.418   4.008  0.3429 -0.1842  0.5264
17960TIP3    H175295   5.230   6.339   3.954 -1.4605 -0.9549  1.6606
17960TIP3    H275296   5.161   6.471   3.977 -0.9464 -0.7939  2.3295
17961TIP3   OH275297   1.461   5.059   4.723  0.3051 -0.0738 -0.1471
17961TIP3    H175298   1.516   4.989   4.689  2.8812  2.4252 -1.5660
17961TIP3    H275299   1.433   5.029   4.809  1.7822 -2.5323 -0.4407
17962TIP3   OH275300   7.148   6.168   5.036 -0.0054  0.4776  0.1024
17962TIP3    H175301   7.074   6.183   4.978  0.3420  1.1833 -0.1798
17962TIP3    H275302   7.176   6.256   5.062 -0.9881  0.1647  2.4461
17963TIP3   OH275303   5.424   7.084   5.342  0.6634  0.0121  0.0031
17963TIP3    H175304   5.337   7.053   5.316  0.0589 -0.0532  1.9434
17963TIP3    H275305   5.472   7.003   5.361 -0.4628  0.0166  3.6619
17964TIP3   OH275306   3.822   2.861   2.276 -0.7002 -0.0660 -0.1966
17964TIP3    H175307   3.755   2.925   2.301 -1.4324 -0.6892 -0.5063
17964TIP3    H275308   3.791   2.826   2.193 -0.2180 -0.7018 -0.1127
17965TIP3   OH275309   0.335   7.131   3.133 -0.1763 -0.1884  0.2626
17965TIP3    H175310   0.351   7.080   3.054  0.1678  1.0089 -0.4468
17965TIP3    H275311   0.396   7.204   3.128 -1.2088  0.7464  0.8636
17966TIP3   OH275312   6.989   0.785  14.590  0.0255 -0.3651  0.1110
17966TIP3    H175313   7.075   0.826  14.604  0.1427 -0.7368  0.4854
17966TIP3    H275314   6.953   0.830  14.513 -0.8383  2.0749  1.8272
17967TIP3   OH275315   0.559   5.771   5.014 -0.6599 -0.1882  0.4455
17967TIP3    H175316   0.650   5.801   5.016 -0.8317  0.2941  1.4769
17967TIP3    H275317   0.514   5.834   4.958 -0.3294 -0.5706 -0.2760
17968TIP3   OH275318   1.012   3.592   4.357  0.7060  0.0682 -0.3506
17968TIP3    H175319   0.926   3.632   4.344  0.9208  0.7268  0.1988
17968TIP3    H275320   0.994   3.511   4.405  0.1871 -0.9475 -2.1985
17969TIP3   OH275321   4.212   4.233   3.628  0.4510 -0.1543  0.8895
17969TIP3    H175322   4.172   4.184   3.699 -0.2163 -1.6807 -0.4903
17969TIP3    H275323   4.143   4.292   3.597  0.6705  0.3488  1.3482
17970TIP3   OH275324   4.352   0.059   4.498 -0.1876  0.4922 -0.0409
17970TIP3    H175325   4.293   0.114   4.446 -2.5055 -2.2576 -0.5886
17970TIP3    H275326   4.307   0.049   4.582  1.4419  1.4108  0.9931
17971TIP3   OH275327   2.259   1.787   5.247  0.1329 -0.1303  0.3202
17971TIP3    H175328   2.221   1.803   5.161  0.3846 -0.9691  0.0397
17971TIP3    H275329   2.253   1.692   5.258  0.4911 -0.0743  1.0480
17972TIP3   OH275330   5.402   4.790   5.386 -0.2925 -0.8009 -0.6063
17972TIP3    H175331   5.413   4.884   5.370 -0.9463 -0.9387 -2.0409
17972TIP3    H275332   5.307   4.778   5.387 -0.2404 -1.2350  1.0287
17973TIP3   OH275333   0.808   0.427   2.172  0.0061 -0.2071 -0.5514
17973TIP3    H175334   0.797   0.332   2.171 -0.7393 -0.1268 -1.3136
17973TIP3    H275335   0.808   0.452   2.080 -1.8697  0.7479 -0.3380
17974TIP3   OH275336   5.044   1.996   5.395  0.0607  0.0227  0.0669
17974TIP3    H175337   5.052   2.083   5.355  0.1599  0.4352  0.9556
17974TIP3    H275338   5.135   1.965   5.403 -0.0025 -0.3722 -0.6819
17975TIP3   OH275339   4.697   0.683  14.245  0.4571  0.1394 -0.2085
17975TIP3    H175340   4.685   0.591  14.219 -1.2694  0.5529 -1.0233
17975TIP3    H275341   4.771   0.681  14.304 -0.5864 -2.0468  1.1688
17976TIP3   OH275342   6.943   3.754   3.233 -0.2374  0.1226 -0.1587
17976TIP3    H175343   6.968   3.745   3.325 -1.5532 -3.5538  0.0050
17976TIP3    H275344   6.875   3.821   3.232  0.1972  0.6211  1.4516
17977TIP3   OH275345   6.733   0.970   1.199 -0.5012 -0.0023  0.5266
17977TIP3    H175346   6.760   0.989   1.289  1.6662  0.4082 -0.1620
17977TIP3    H275347   6.757   1.049   1.150 -0.4835 -0.7106 -0.6416
17978TIP3   OH275348   5.867   0.862  15.329  0.1687 -0.1106  0.1230
17978TIP3    H175349   5.924   0.861  15.253  1.9822  0.7284  1.4036
17978TIP3    H275350   5.877   0.775  15.368  0.7678  0.1071  0.4649
17979TIP3   OH275351   6.495   5.030   2.027 -0.0939 -0.2691 -0.5925
17979TIP3    H175352   6.490   4.949   2.078 -2.1530  0.1033 -0.0886
17979TIP3    H275353   6.534   5.094   2.087  1.0352 -0.7326 -0.8114
17980TIP3   OH275354   6.386   7.068  13.757 -0.7677 -0.2546  0.2872
17980TIP3    H175355   6.440   7.105  13.827  0.7061  0.7783 -1.3324
17980TIP3    H275356   6.425   6.983  13.738 -0.9663 -0.3905  0.4773
17981TIP3   OH275357   5.176   5.454  14.048 -0.3415  0.2296  0.0144
17981TIP3    H175358   5.184   5.410  13.964  2.1789  1.3365 -0.4225
17981TIP3    H275359   5.098   5.509  14.039 -0.1282  0.3145 -1.5936
17982TIP3   OH275360   0.070   3.843   4.096 -0.1254  0.1919  0.3752
17982TIP3    H175361  -0.003   3.798   4.139 -0.4862  0.9740  0.6023
17982TIP3    H275362   0.146   3.789   4.117 -0.4279  0.0988  1.2906
17983TIP3   OH275363   1.820   3.857  14.815 -0.3423 -0.6299 -0.0064
17983TIP3    H175364   1.804   3.782  14.757 -0.2955 -1.0833  0.5582
17983TIP3    H275365   1.788   3.932  14.765 -1.0545 -1.1068 -0.2983
17984TIP3   OH275366   4.615   2.409   4.692 -0.3599  0.6612 -0.4668
17984TIP3    H175367   4.686   2.367   4.739  0.0779  2.3933  0.5240
17984TIP3    H275368   4.567   2.337   4.651  0.9213 -0.6773  0.2902
17985TIP3   OH275369   3.468   6.684   2.023  0.7262 -0.1580 -0.3706
17985TIP3    H175370   3.472   6.633   2.104  1.5753 -0.7673 -0.7869
17985TIP3    H275371   3.549   6.735   2.022  1.1344 -0.7977 -1.2446
17986TIP3   OH275372   0.318   4.144  10.890 -0.5297  0.4109  0.3459
17986TIP3    H175373   0.321   4.109  10.801 -1.0165  0.3471  0.3495
17986TIP3    H275374   0.229   4.124  10.920 -0.4865  0.7591  0.7125
17987TIP3   OH275375   6.303   5.546   4.628  0.2334  0.0580 -0.2404
17987TIP3    H175376   6.365   5.564   4.557  0.8917 -1.6637 -0.1483
17987TIP3    H275377   6.281   5.454   4.617 -1.4406  0.3519  0.4319
17988TIP3   OH275378   5.563   1.886   0.969  0.0192  0.0427 -0.8108
17988TIP3    H175379   5.552   1.890   1.064  2.3967  3.0438 -0.4975
17988TIP3    H275380   5.475   1.896   0.934 -0.9518 -1.5167  1.0365
17989TIP3   OH275381   0.611   4.224   3.852  0.6170  0.6337  0.0120
17989TIP3    H175382   0.692   4.226   3.799 -1.2209  2.3008 -3.0461
17989TIP3    H275383   0.554   4.164   3.804  0.3080 -1.4908  2.8011
17990TIP3   OH275384   4.458   2.717   1.059 -0.3101 -0.2917 -0.1126
17990TIP3    H175385   4.481   2.654   0.990  2.5476  0.6349 -0.1298
17990TIP3    H275386   4.442   2.799   1.012 -3.1196 -0.6663 -0.0037
17991TIP3   OH275387   2.104   2.811   2.770 -0.0248  1.1354 -0.3165
17991TIP3    H175388   2.183   2.813   2.717 -0.5297  1.1006 -1.0836
17991TIP3    H275389   2.118   2.877   2.838  0.7560  0.9593 -0.3065
17992TIP3   OH275390   4.805   2.890   2.896 -0.1961  0.7304 -0.0805
17992TIP3    H175391   4.793   2.977   2.857  1.5758  1.8693  1.7200
17992TIP3    H275392   4.892   2.864   2.867  1.6005  2.0263  3.5887
17993TIP3   OH275393   0.771   0.494   5.957 -0.0648  0.3243  0.1851
17993TIP3    H175394   0.801   0.504   5.866  0.5770 -0.5056  0.2968
17993TIP3    H275395   0.736   0.405   5.961 -1.5636  0.8906  0.3536
17994TIP3   OH275396   1.466   5.071   0.890  0.3210  0.3336 -0.2378
17994TIP3    H175397   1.505   5.021   0.819 -0.3641 -1.9711  0.9078
17994TIP3    H275398   1.540   5.116   0.932  1.5972 -2.5983  0.8726
17995TIP3   OH275399   6.256   6.204   3.356 -0.4194  0.1951  0.0965
17995TIP3    H175400   6.199   6.140   3.399  0.3502 -1.3220 -1.0569
17995TIP3    H275401   6.199   6.248   3.293 -0.6861 -0.2443  0.0233
17996TIP3   OH275402   0.754   6.794   1.113 -0.2594  0.0799  0.6218
17996TIP3    H175403   0.826   6.769   1.054 -0.3560  0.7074  0.2384
17996TIP3    H275404   0.752   6.723   1.178 -0.4519 -0.8686 -0.3818
17997TIP3   OH275405   5.518   0.884   4.273 -0.5057  0.0637 -0.7124
17997TIP3    H175406   5.542   0.801   4.231  1.4700  0.1924  0.0500
17997TIP3    H275407   5.527   0.950   4.204  0.7017 -0.0095 -0.6546
17998TIP3   OH275408   2.750   5.315  15.205 -0.3999  0.2811  0.3047
17998TIP3    H175409   2.833   5.308  15.252 -0.0013  3.3893  0.3081
17998TIP3    H275410   2.771   5.362  15.125 -2.0290  0.3776 -0.1060
17999TIP3   OH275411   6.820   2.545   2.632 -0.1861  0.1355  0.2549
17999TIP3    H175412   6.899   2.492   2.635  0.2434  0.6296 -1.1869
17999TIP3    H275413   6.794   2.544   2.540 -1.2217  0.8919  0.5186
18000TIP3   OH275414   5.790   1.407   3.229 -0.0194  0.0988 -0.0903
18000TIP3    H175415   5.803   1.378   3.138  0.7399  1.6253 -0.4943
18000TIP3    H275416   5.791   1.326   3.280 -3.1142 -1.1038 -1.6692
18001TIP3   OH275417   0.985   1.696   4.946 -0.4557 -0.4602 -0.2661
18001TIP3    H175418   0.974   1.601   4.949  2.9872 -0.9259  1.8527
18001TIP3    H275419   1.053   1.711   4.880  0.5190  0.3079  0.8769
18002TIP3   OH275420   2.314   2.379   5.402 -0.1038 -0.3502 -0.0020
18002TIP3    H175421   2.299   2.451   5.463  1.3154  0.8647 -1.0326
18002TIP3    H275422   2.277   2.303   5.447 -3.8940  1.3027  0.1306
18003TIP3   OH275423   5.855   3.864   3.724  0.4595 -0.1411  0.5374
18003TIP3    H175424   5.855   3.821   3.809  1.1942  0.6616  0.9543
18003TIP3    H275425   5.765   3.852   3.691  0.6230 -1.9657  0.6263
18004TIP3   OH275426   5.107   2.690   3.084  0.2501 -0.1849  0.3857
18004TIP3    H175427   5.096   2.735   3.001 -1.2938  0.3411  0.8389
18004TIP3    H275428   5.162   2.615   3.064  2.3025  1.4628 -0.5489
18005TIP3   OH275429   6.927   1.219   4.842  0.1389  0.3955 -0.1286
18005TIP3    H175430   6.929   1.314   4.832  0.7450  0.4733  0.6393
18005TIP3    H275431   6.999   1.200   4.902 -0.6905 -0.4424  0.6327
18006TIP3   OH275432   2.449   1.741   1.646  0.2611  0.1503 -0.5279
18006TIP3    H175433   2.425   1.697   1.727  0.9837 -0.2492 -0.5305
18006TIP3    H275434   2.524   1.795   1.669 -0.5669  1.3545 -0.5375
18007TIP3   OH275435   4.403   7.166   4.193  0.2494  0.1134 -0.3251
18007TIP3    H175436   4.327   7.223   4.196  0.4528  0.4059 -0.6214
18007TIP3    H275437   4.417   7.139   4.284  0.7756  1.3724 -0.0125
18008TIP3   OH275438   4.244   2.019   6.329 -0.1333 -0.3989  0.5042
18008TIP3    H175439   4.297   2.084   6.375 -0.7953  0.6889 -0.2116
18008TIP3    H275440   4.188   2.071   6.271 -0.1156 -1.6520 -0.6975
18009TIP3   OH275441   4.957   3.153  14.403 -0.2035  0.0050 -0.1394
18009TIP3    H175442   4.979   3.078  14.348 -1.3546 -1.2713  1.0469
18009TIP3    H275443   4.981   3.126  14.492 -0.6824  1.0279  0.3239
18010TIP3   OH275444   6.919   5.580  14.530  0.0766 -0.0944 -0.0873
18010TIP3    H175445   6.896   5.598  14.621 -0.5906  0.3348 -0.3330
18010TIP3    H275446   6.915   5.485  14.522 -1.8191 -0.0422 -0.1575
18011TIP3   OH275447   6.668   0.964   3.220  0.1158 -0.7675 -0.4525
18011TIP3    H175448   6.724   1.016   3.162 -0.2183 -1.1288 -1.1071
18011TIP3    H275449   6.720   0.953   3.299  0.4011  0.1132 -0.5064
18012TIP3   OH275450   1.019   4.312   4.328 -0.6099 -0.2846 -0.0183
18012TIP3    H175451   0.933   4.306   4.370 -0.4580 -1.2240  0.1767
18012TIP3    H275452   1.073   4.248   4.374  0.1718  0.2206 -0.2065
18013TIP3   OH275453   0.070   3.257   1.920 -0.1593 -0.9504  0.3355
18013TIP3    H175454  -0.015   3.236   1.958 -1.3431  0.0411 -1.5793
18013TIP3    H275455   0.114   3.172   1.910 -0.8801 -1.4660  1.3958
18014TIP3   OH275456   1.663   2.714   1.200  0.8822 -0.4542  0.1585
18014TIP3    H175457   1.582   2.667   1.178  0.5219  0.7921 -1.2977
18014TIP3    H275458   1.643   2.755   1.284  0.4377 -1.1107  0.3926
18015TIP3   OH275459   6.924   3.966   3.625 -0.1553 -0.0570 -0.4975
18015TIP3    H175460   7.015   3.988   3.604  0.4383 -1.0361  0.8752
18015TIP3    H275461   6.872   4.014   3.560  1.4062 -0.9505 -2.5022
18016TIP3   OH275462   5.601   6.551   2.337 -1.0090  0.2340  0.4249
18016TIP3    H175463   5.615   6.483   2.271 -0.3076  0.4250  0.3768
18016TIP3    H275464   5.585   6.631   2.286 -0.7230  0.3303  0.4905
18017TIP3   OH275465   6.293   3.685   5.108 -0.1798  0.0724 -0.4258
18017TIP3    H175466   6.323   3.603   5.069  0.0222 -0.3377  0.5638
18017TIP3    H275467   6.346   3.753   5.065  1.1490 -0.5076  0.2500
18018TIP3   OH275468   0.668   6.004   4.613 -0.0244 -0.2522 -0.2796
18018TIP3    H175469   0.721   5.938   4.569  0.2295 -0.6312  0.5779
18018TIP3    H275470   0.643   6.064   4.543  0.2692 -0.9002 -0.9632
18019TIP3   OH275471   0.095   5.646   3.372 -0.5136 -0.5568  0.1038
18019TIP3    H175472   0.006   5.625   3.399 -0.2112 -0.0999  1.5566
18019TIP3    H275473   0.148   5.629   3.449  0.8946 -2.1956 -1.1585
18020TIP3   OH275474   4.928   3.799   5.029 -0.2790 -0.2928 -0.2273
18020TIP3    H175475   4.903   3.811   4.938 -0.2042  0.8205 -0.1136
18020TIP3    H275476   4.845   3.785   5.075 -0.3606 -0.3221 -0.3829
18021TIP3   OH275477   2.965   7.063  14.904 -0.3176 -0.1195 -0.2989
18021TIP3    H175478   2.946   7.123  14.832  1.3495  0.8099 -0.0206
18021TIP3    H275479   2.894   7.077  14.966 -0.5898  0.7098 -0.7817
18022TIP3   OH275480   2.748   4.438   1.535 -0.1142 -0.9761 -0.3035
18022TIP3    H175481   2.836   4.468   1.559  1.2423 -4.7599  0.1465
18022TIP3    H275482   2.708   4.411   1.618 -0.6443 -1.7843 -0.8111
18023TIP3   OH275483   7.006   5.457   4.419  0.0626 -0.1740 -0.4004
18023TIP3    H175484   7.096   5.446   4.386 -0.2968  0.0063 -1.4919
18023TIP3    H275485   6.992   5.551   4.422 -0.0673 -0.2002 -0.1537
18024TIP3   OH275486   5.214   6.093   2.103  0.0993 -0.2726  0.2617
18024TIP3    H175487   5.192   6.144   2.181  0.7224 -2.6288  2.1154
18024TIP3    H275488   5.302   6.121   2.080  0.1521  0.0043  0.7896
18025TIP3   OH275489   6.369   5.801   4.977 -0.6630 -0.0696  0.5372
18025TIP3    H175490   6.444   5.744   4.992  0.3307  1.0547  0.0045
18025TIP3    H275491   6.323   5.804   5.061 -0.5190 -1.3276  0.6720
18026TIP3   OH275492   3.201   1.416   2.600  0.3766 -0.5427  0.5623
18026TIP3    H175493   3.155   1.471   2.536  1.1668 -1.2881 -0.6824
18026TIP3    H275494   3.181   1.456   2.684  1.1755  1.8505 -0.3048
18027TIP3   OH275495   7.045   3.619   0.942  0.1252 -0.3248 -0.5857
18027TIP3    H175496   7.083   3.568   0.870  1.1366  0.3798 -0.5696
18027TIP3    H275497   7.076   3.708   0.928 -1.9051  0.3972 -0.8033
18028TIP3   OH275498   5.082   0.723   0.617 -0.4839 -1.0025  0.4446
18028TIP3    H175499   5.141   0.681   0.554 -1.3074  0.3179 -1.3006
18028TIP3    H275500   5.022   0.653   0.643  0.9651 -2.0138  1.1974
18029TIP3   OH275501   6.731   3.038  13.950 -0.5251  0.5358  0.1245
18029TIP3    H175502   6.748   3.091  14.027 -3.0005 -1.2500  2.0575
18029TIP3    H275503   6.804   2.976  13.946  1.3250  2.6344 -0.9995
18030TIP3   OH275504   5.823   2.485   4.931 -0.9413 -0.0108 -0.7871
18030TIP3    H175505   5.889   2.487   5.001 -0.6143 -0.4584 -1.0725
18030TIP3    H275506   5.780   2.570   4.937 -0.1178  0.4266 -0.7956
18031TIP3   OH275507   5.162   1.155   3.933  0.2769 -0.2868 -0.4855
18031TIP3    H175508   5.092   1.163   3.869 -0.0031  2.9174  0.0321
18031TIP3    H275509   5.241   1.178   3.885  0.1396  1.5742  0.0832
18032TIP3   OH275510   4.422   2.190   2.031 -0.1977 -0.0345  0.3324
18032TIP3    H175511   4.489   2.196   2.099  0.3188  0.0792 -0.1767
18032TIP3    H275512   4.443   2.110   1.983 -0.5499 -0.1072  0.2918
18033TIP3   OH275513   0.144   1.288   2.614  0.1889 -0.3042 -0.2803
18033TIP3    H175514   0.066   1.310   2.665 -0.5827 -0.4828 -1.3364
18033TIP3    H275515   0.131   1.333   2.530  1.6128  0.3144 -0.1921
18034TIP3   OH275516   2.855   5.020   3.816 -0.1068 -0.0386  0.0515
18034TIP3    H175517   2.828   5.090   3.757  0.5870 -0.4633 -0.7970
18034TIP3    H275518   2.945   5.041   3.840  0.1435 -0.6692 -0.2879
18035TIP3   OH275519   6.135   3.043   3.531 -0.1864 -0.2553 -0.0755
18035TIP3    H175520   6.081   3.120   3.521 -0.9070 -0.7558 -0.1146
18035TIP3    H275521   6.155   3.015   3.441  0.1406 -0.0797 -0.0620
18036TIP3   OH275522   6.040   0.034   1.190 -0.3997 -0.5701 -0.0043
18036TIP3    H175523   5.995  -0.037   1.236 -3.4411  0.2817 -1.4088
18036TIP3    H275524   5.969   0.089   1.155  1.7961  1.5920 -1.3878
18037TIP3   OH275525   0.425   3.517  15.303 -0.0384 -0.5328 -0.2232
18037TIP3    H175526   0.391   3.568  15.229 -1.5337 -0.3907  0.5254
18037TIP3    H275527   0.488   3.575  15.345 -1.0256  0.3712  0.0611
18038TIP3   OH275528   0.062   0.205   2.838  0.1793  0.0167 -0.5917
18038TIP3    H175529   0.102   0.152   2.768  0.0409 -0.3144 -0.4223
18038TIP3    H275530   0.051   0.292   2.799  0.0019 -0.1944 -1.0221
18039TIP3   OH275531   4.193   2.131   5.119  0.4071  0.0158  0.0719
18039TIP3    H175532   4.111   2.137   5.070 -0.1912  0.3597  1.1062
18039TIP3    H275533   4.213   2.221   5.145  1.5804  0.0707 -0.8972
18040TIP3   OH275534   4.499   6.105   5.173  0.0028  0.0254  0.1109
18040TIP3    H175535   4.541   6.089   5.089 -0.0768  3.4466 -0.7224
18040TIP3    H275536   4.571   6.130   5.231 -0.2049 -0.2819  0.5098
18041TIP3   OH275537   2.061   7.155  15.114  0.1190  0.4661  0.2896
18041TIP3    H175538   1.996   7.086  15.110 -0.0219  0.5222  1.3921
18041TIP3    H275539   2.017   7.232  15.077 -0.9088  0.8316  2.1458
18042TIP3   OH275540   0.108   5.530   2.238  0.2623 -0.2033  0.7969
18042TIP3    H175541   0.091   5.528   2.333 -0.9167  0.1877  0.6085
18042TIP3    H275542   0.149   5.616   2.224  1.6200 -0.7729  1.1182
18043TIP3   OH275543   2.617   1.226   1.177  0.2313  0.1089 -0.3453
18043TIP3    H175544   2.528   1.247   1.149 -0.3919 -1.2132  0.5115
18043TIP3    H275545   2.606   1.189   1.264  1.4415 -1.4950 -0.8261
18044TIP3   OH275546   0.153   5.123   3.057  1.2810 -0.5746  0.2098
18044TIP3    H175547   0.092   5.195   3.071  1.3784 -0.6247  0.9338
18044TIP3    H275548   0.211   5.153   2.988  1.8780  0.4113  1.1128
18045TIP3   OH275549   4.826   3.677   2.338 -0.0908 -0.1939  0.1044
18045TIP3    H175550   4.748   3.640   2.296  0.0228 -0.2213 -0.0856
18045TIP3    H275551   4.822   3.770   2.316  0.5385 -0.3865 -0.8903
18046TIP3   OH275552   0.156   3.407   5.320  0.3529 -0.2089 -0.1854
18046TIP3    H175553   0.072   3.410   5.275 -0.3413 -0.6730  1.0223
18046TIP3    H275554   0.213   3.463   5.268 -0.6124 -0.1108 -1.1912
18047TIP3   OH275555   3.035   3.449   3.494  0.3521  0.0519  0.9215
18047TIP3    H175556   2.957   3.395   3.484 -0.0051  0.6228  0.5562
18047TIP3    H275557   3.053   3.450   3.588  0.2132 -0.4823  0.9562
18048TIP3   OH275558   1.260   5.883   2.526 -0.2101  0.3507  0.3433
18048TIP3    H175559   1.234   5.791   2.526  0.7115  0.0704 -0.6626
18048TIP3    H275560   1.285   5.901   2.435  0.3258  1.3919  0.6816
18049TIP3   OH275561   3.413   0.636   0.152 -0.1723  0.1206 -0.4774
18049TIP3    H175562   3.508   0.644   0.146 -0.2281  0.0798 -1.5497
18049TIP3    H275563   3.382   0.639   0.061 -1.3610  2.0710 -0.0700
18050TIP3   OH275564   6.641   1.445   4.436 -0.5293 -0.0913  0.7927
18050TIP3    H175565   6.716   1.401   4.397  0.8243  2.1369  0.7229
18050TIP3    H275566   6.584   1.466   4.363 -1.3486 -1.9039  0.8585
18051TIP3   OH275567   5.121   6.002   4.117 -0.0588  0.1780  0.1316
18051TIP3    H175568   5.072   5.998   4.200  2.0824  1.1323  1.5177
18051TIP3    H275569   5.179   5.926   4.120  0.4265  0.5286 -0.2320
18052TIP3   OH275570   1.386   6.267   1.349  0.3424  0.0061 -0.4376
18052TIP3    H175571   1.320   6.230   1.289 -1.1025  0.4464  0.8312
18052TIP3    H275572   1.466   6.219   1.328 -0.1848 -0.0644 -2.5092
18053TIP3   OH275573   7.003   3.210   0.052 -0.2836 -0.1001  0.7784
18053TIP3    H175574   6.947   3.187   0.127 -0.5284 -1.5515  0.1833
18053TIP3    H275575   6.958   3.283   0.011 -1.0318 -0.3665  1.0967
18054TIP3   OH275576   1.939   4.558   2.218  0.0187 -0.1656 -0.1222
18054TIP3    H175577   2.003   4.615   2.176  1.6962 -2.1880 -0.5058
18054TIP3    H275578   1.987   4.477   2.236 -2.1372 -1.3692  0.6678
18055TIP3   OH275579   2.842   2.411   0.846 -0.3388 -0.1013  0.5308
18055TIP3    H175580   2.934   2.404   0.871 -0.7366 -1.9281  1.6932
18055TIP3    H275581   2.842   2.406   0.751  0.6617 -2.8943  0.5825
18056TIP3   OH275582   7.047   0.972   4.431  0.5528  0.5253  0.1383
18056TIP3    H175583   6.995   1.052   4.417  0.7628  0.8525  1.1357
18056TIP3    H275584   7.101   0.965   4.352  0.6328  1.4470  0.0953
18057TIP3   OH275585   3.003   2.564   5.872  0.5257 -0.3162  0.4685
18057TIP3    H175586   2.966   2.651   5.853  2.0219  0.5543  1.2993
18057TIP3    H275587   3.072   2.554   5.807  0.1010 -1.0839  0.1272
18058TIP3   OH275588   4.224   1.242   3.403  0.0842 -0.6568  0.1543
18058TIP3    H175589   4.139   1.207   3.430  0.2526 -0.6849  0.6562
18058TIP3    H275590   4.239   1.316   3.461 -0.5412  0.6478 -1.2821
18059TIP3   OH275591   0.863   0.494   2.729 -0.4012  0.1208 -0.5235
18059TIP3    H175592   0.907   0.435   2.791  0.7070  0.8805 -0.5592
18059TIP3    H275593   0.932   0.519   2.667 -0.0684  3.5107  0.9857
18060TIP3   OH275594   4.901   5.827   1.973 -0.5316  0.6437 -0.0389
18060TIP3    H175595   4.885   5.733   1.981 -0.9411  0.7513  0.4352
18060TIP3    H275596   4.814   5.866   1.968 -0.4624  1.1871  2.1219
18061TIP3   OH275597   4.583   6.676  14.464  0.5821  0.0042  0.0738
18061TIP3    H175598   4.498   6.659  14.423  0.2744  0.5305  0.4913
18061TIP3    H275599   4.620   6.589  14.480 -0.6340 -0.2889  1.4808
18062TIP3   OH275600   3.944   6.434   1.517 -0.1396  0.5132  0.1905
18062TIP3    H175601   3.997   6.354   1.514 -1.2277 -0.2180 -3.1112
18062TIP3    H275602   3.997   6.495   1.569  0.8750 -2.1491  2.5756
18063TIP3   OH275603   2.450   1.594  14.337 -0.0298 -0.0112 -0.4138
18063TIP3    H175604   2.438   1.656  14.264  0.0673 -0.8509 -1.1562
18063TIP3    H275605   2.363   1.587  14.377  0.3551  2.1580  0.9914
18064TIP3   OH275606   3.984   6.583   3.252 -0.2578  0.0353  0.1093
18064TIP3    H175607   3.892   6.559   3.267 -0.9309  0.7100 -2.4044
18064TIP3    H275608   4.012   6.527   3.180  0.7947  0.9617 -0.2345
18065TIP3   OH275609   6.488   3.822   4.506 -0.2136  0.1406  0.1053
18065TIP3    H175610   6.424   3.751   4.510 -0.0006 -0.0103  1.3875
18065TIP3    H275611   6.496   3.843   4.413 -1.3896 -0.5008 -0.1546
18066TIP3   OH275612   1.655   2.324   3.777 -0.2104  0.0317  0.1251
18066TIP3    H175613   1.701   2.247   3.743  2.4512  0.6754  1.9423
18066TIP3    H275614   1.691   2.398   3.727  0.4695  0.4955  1.2557
18067TIP3   OH275615   0.766   1.286   3.224  0.2395  0.3682  0.4022
18067TIP3    H175616   0.853   1.248   3.241 -0.3490 -1.0234  0.4729
18067TIP3    H275617   0.713   1.257   3.298 -0.6119  0.0902 -0.3077
18068TIP3   OH275618   2.438   6.892   2.067 -0.0013  0.4379  0.4753
18068TIP3    H175619   2.420   6.814   2.118  0.6599  0.4058  0.6654
18068TIP3    H275620   2.528   6.915   2.089 -1.3499  3.6579  3.6524
18069TIP3   OH275621   1.365   4.267   2.003 -0.1742 -0.2158  0.5714
18069TIP3    H175622   1.317   4.266   2.085 -1.1686 -1.2887  0.0141
18069TIP3    H275623   1.361   4.357   1.972 -0.5809 -0.0035  1.2501
18070TIP3   OH275624   6.012   3.713   5.009 -0.1278  0.4151  0.4901
18070TIP3    H175625   5.952   3.675   5.073  1.3416 -2.5916  0.2626
18070TIP3    H275626   6.099   3.698   5.045  0.6708  0.4215 -1.3081
18071TIP3   OH275627   1.523   0.162   1.247  0.0614 -0.5632  0.2167
18071TIP3    H175628   1.586   0.117   1.191  0.9524 -0.1090  0.8277
18071TIP3    H275629   1.439   0.121   1.226  0.2459  0.0175 -1.8801
18072TIP3   OH275630   6.356   4.640   5.517  0.0718  0.3040  1.0153
18072TIP3    H175631   6.447   4.611   5.527  0.9863  2.5345 -0.2391
18072TIP3    H275632   6.351   4.719   5.570 -0.3740  1.6234 -0.9074
18073TIP3   OH275633   4.276   3.279   3.173 -0.1011 -0.2438 -0.0344
18073TIP3    H175634   4.299   3.293   3.265 -1.1650  2.4005 -0.0776
18073TIP3    H275635   4.326   3.345   3.125 -0.4398 -0.8151 -1.2228
18074TIP3   OH275636   0.388   6.355   3.924 -0.0531  0.0347  0.1314
18074TIP3    H175637   0.421   6.404   3.999 -1.5358  1.3903 -0.0542
18074TIP3    H275638   0.457   6.363   3.858  0.8465 -0.3749  0.9883
18075TIP3   OH275639   5.748   6.453   4.082 -0.2279 -0.8171 -0.7843
18075TIP3    H175640   5.706   6.371   4.106  0.7810 -1.3482 -0.7807
18075TIP3    H275641   5.781   6.489   4.164 -0.7089 -0.3787 -0.7781
18076TIP3   OH275642   7.202   5.326   5.100  0.4973  0.3167  0.3145
18076TIP3    H175643   7.237   5.349   5.014 -2.0543  0.9638 -0.6472
18076TIP3    H275644   7.278   5.293   5.149  2.5266  2.3165 -1.2863
18077TIP3   OH275645   6.689   1.688   3.114 -0.0251 -0.4060 -0.4295
18077TIP3    H175646   6.648   1.768   3.081 -0.1732  0.6217  2.0285
18077TIP3    H275647   6.620   1.643   3.162  0.7404 -0.5963  0.5327
18078TIP3   OH275648   2.849   0.248   0.740 -0.5515  0.2655 -0.0094
18078TIP3    H175649   2.764   0.257   0.698 -0.5001  0.9144  0.0195
18078TIP3    H275650   2.886   0.336   0.738 -0.4889  0.2805  1.2673
18079TIP3   OH275651   0.722   1.531   5.577 -0.7208 -0.2279  0.6458
18079TIP3    H175652   0.735   1.436   5.578 -0.4206 -0.2468 -1.1332
18079TIP3    H275653   0.785   1.565   5.639 -1.4509 -1.2372  1.9886
18080TIP3   OH275654   1.470   0.075  14.763 -0.0040  0.1871  0.2080
18080TIP3    H175655   1.491  -0.004  14.713  0.5295  0.6935 -0.3961
18080TIP3    H275656   1.502   0.057  14.852 -1.0302 -0.7524  0.4067
18081TIP3   OH275657   2.706   2.611   5.935  0.3363 -0.1004  0.6796
18081TIP3    H175658   2.651   2.668   5.990  1.3706  0.5838  1.0357
18081TIP3    H275659   2.778   2.668   5.907  1.3697 -1.2317  0.9966
18082TIP3   OH275660   4.725   4.636   0.435  0.3063 -0.1932  0.5224
18082TIP3    H175661   4.643   4.604   0.473  0.2653  0.4639  0.9961
18082TIP3    H275662   4.709   4.728   0.415  0.9371 -0.0502  0.6484
18083TIP3   OH275663   1.875   5.793   2.972  0.0570  0.2394  0.3930
18083TIP3    H175664   1.797   5.745   3.002  2.0218 -3.1400  0.6507
18083TIP3    H275665   1.859   5.811   2.880 -1.4718  0.6754  0.7151
18084TIP3   OH275666   3.677   6.669   3.059  0.9324 -0.3702  0.2108
18084TIP3    H175667   3.722   6.610   3.119  1.3322 -0.6999 -0.4055
18084TIP3    H275668   3.737   6.680   2.986  0.2088 -0.4529 -0.4125
18085TIP3   OH275669   4.985   1.901  15.255  0.1000  0.1735 -0.6684
18085TIP3    H175670   5.080   1.911  15.259 -0.0642  1.8036  0.2815
18085TIP3    H275671   4.952   1.967  15.316 -1.5852 -1.5723  0.4354
18086TIP3   OH275672   0.687   4.198  12.356 -0.3258  0.2864 -0.3608
18086TIP3    H175673   0.662   4.283  12.319 -1.0833 -0.8651 -2.7161
18086TIP3    H275674   0.603   4.154  12.373  0.0678 -0.2799  0.1405
18087TIP3   OH275675   0.208   1.449   4.216  0.0053  0.4687  0.1734
18087TIP3    H175676   0.246   1.374   4.171  0.2405  0.2610  0.7051
18087TIP3    H275677   0.216   1.521   4.154 -0.0865  0.0869 -0.2841
18088TIP3   OH275678   4.831   1.098   3.201 -0.2453  0.0792 -0.7593
18088TIP3    H175679   4.803   1.010   3.224  0.3343 -0.1811 -1.0401
18088TIP3    H275680   4.925   1.100   3.223 -0.6375  1.2291  1.0541
18089TIP3   OH275681   2.177   2.809   3.655 -0.4205 -0.2187  0.1607
18089TIP3    H175682   2.173   2.901   3.628  2.1096 -0.1641 -0.2852
18089TIP3    H275683   2.265   2.799   3.692 -1.5263 -1.8769  2.5944
18090TIP3   OH275684   6.092   1.865  11.871  0.0091  0.0367 -0.1363
18090TIP3    H175685   6.124   1.818  11.794  0.1818 -0.4058  0.2010
18090TIP3    H275686   6.047   1.799  11.923 -1.3764  0.6221 -0.5409
18091TIP3   OH275687   4.715   0.621   4.320 -0.1276  0.2774  0.5399
18091TIP3    H175688   4.755   0.534   4.317 -0.7341 -0.0275  1.0648
18091TIP3    H275689   4.785   0.679   4.349  0.3070 -0.0138  0.0992
18092TIP3   OH275690   0.219   5.328   3.832 -0.2462 -0.7040 -0.1176
18092TIP3    H175691   0.299   5.381   3.828 -0.6666 -0.0716 -0.4099
18092TIP3    H275692   0.249   5.238   3.825  0.2871 -0.4045 -3.1397
18093TIP3   OH275693   2.730   1.317   3.602 -0.0708  0.9290  0.6905
18093TIP3    H175694   2.817   1.303   3.564 -0.7051  1.7116 -1.2224
18093TIP3    H275695   2.670   1.304   3.528 -1.6471 -0.1800  2.0897
18094TIP3   OH275696   4.513   0.014   3.949  0.0442 -0.1706 -0.4401
18094TIP3    H175697   4.501  -0.018   4.038  0.7347 -0.0915 -0.3074
18094TIP3    H275698   4.596  -0.025   3.920  0.3726  0.6413 -0.6518
18095TIP3   OH275699   0.281   3.029   3.109 -0.6629  0.0624 -0.2205
18095TIP3    H175700   0.218   2.970   3.150  0.9767 -1.7217 -0.1049
18095TIP3    H275701   0.267   3.017   3.015 -1.9629  1.3904 -0.2292
18096TIP3   OH275702   2.991   3.246   4.825 -0.5218  0.4434  0.2316
18096TIP3    H175703   2.912   3.192   4.817 -0.1986 -0.1070  0.6436
18096TIP3    H275704   3.034   3.213   4.904  0.6051  0.0872 -0.5142
18097TIP3   OH275705   6.905   0.831   3.795 -0.7084  0.2683  0.2338
18097TIP3    H175706   6.894   0.744   3.756 -0.1493  0.7013 -0.9251
18097TIP3    H275707   6.873   0.892   3.728  1.4535  1.1080 -0.1216
18098TIP3   OH275708   6.522   3.373   1.731 -0.1389  0.2102  0.3705
18098TIP3    H175709   6.463   3.306   1.766 -0.1256 -0.6736 -1.1770
18098TIP3    H275710   6.588   3.324   1.682  0.6910  1.2969  0.3616
18099TIP3   OH275711   3.778   2.114   4.912 -0.2585  0.7607 -0.2351
18099TIP3    H175712   3.812   2.121   5.001 -1.4387  0.2317  0.2765
18099TIP3    H275713   3.814   2.032   4.878  1.2393  1.5966 -0.7318
18100TIP3   OH275714   3.616   5.324   2.022 -0.1682 -0.3044 -0.4124
18100TIP3    H175715   3.556   5.362   2.087 -0.2794  0.5087 -0.9751
18100TIP3    H275716   3.701   5.324   2.065 -0.5065 -1.2167  0.2953
18101TIP3   OH275717   6.184   4.259  11.972 -0.2341  0.0518  0.3747
18101TIP3    H175718   6.095   4.235  11.998  0.4245 -2.1787  0.8456
18101TIP3    H275719   6.201   4.204  11.895  1.9908 -2.6194  2.5323
18102TIP3   OH275720   2.367   3.012  13.374  0.0453 -0.6570  1.2479
18102TIP3    H175721   2.456   2.981  13.357 -0.1263 -1.5460  1.8756
18102TIP3    H275722   2.311   2.947  13.331 -0.3006  0.1352  0.4863
18103TIP3   OH275723   3.081   5.301   1.967  0.1019 -0.6927 -0.3837
18103TIP3    H175724   3.052   5.267   2.051 -0.1437  1.8337  0.6641
18103TIP3    H275725   3.119   5.387   1.988 -1.5622  0.8362 -3.0117
18104TIP3   OH275726   3.526   3.484   5.310 -0.0324  0.6633 -0.1698
18104TIP3    H175727   3.584   3.415   5.342 -1.3857 -0.1010  0.7221
18104TIP3    H275728   3.571   3.565   5.333  1.1047  0.0927 -0.3134
18105TIP3   OH275729   6.517   3.988   1.862  0.4109  0.0681 -0.3296
18105TIP3    H175730   6.458   3.925   1.904 -0.2718  0.1514 -1.1524
18105TIP3    H275731   6.561   3.939   1.793  1.0047  0.1180  0.0006
18106TIP3   OH275732   6.734   5.456   1.707 -0.4174 -0.1959 -0.2510
18106TIP3    H175733   6.791   5.466   1.630  0.6568 -0.3290  0.5092
18106TIP3    H275734   6.716   5.546   1.734  1.1260 -0.1428  0.7055
18107TIP3   OH275735   2.761   0.934   4.704 -0.3034 -0.3424 -0.1854
18107TIP3    H175736   2.760   0.911   4.611  1.3420 -0.6237 -0.1585
18107TIP3    H275737   2.750   1.029   4.705 -2.4850 -0.5534 -0.5307
18108TIP3   OH275738   6.232   1.248   3.945  0.0882  0.3039  0.0777
18108TIP3    H175739   6.216   1.329   3.994 -2.3350  1.4425 -2.2613
18108TIP3    H275740   6.184   1.181   3.993 -0.3956  0.9089  0.4606
18109TIP3   OH275741   5.999   5.926   0.558  0.5359 -0.0337 -0.4957
18109TIP3    H175742   6.068   5.937   0.492  0.0580 -0.3416 -1.0584
18109TIP3    H275743   6.028   5.851   0.610  0.4695 -0.3747 -0.9419
18110TIP3   OH275744   3.601   4.582   0.572 -0.2025 -0.0205 -0.1342
18110TIP3    H175745   3.588   4.615   0.661  1.1278 -0.2163  0.1444
18110TIP3    H275746   3.682   4.622   0.543 -0.1068 -0.7392 -0.8879
18111TIP3   OH275747   6.939   6.877   4.097 -0.3328 -0.3144  0.5776
18111TIP3    H175748   7.029   6.886   4.063 -0.0428  1.8521  1.7430
18111TIP3    H275749   6.918   6.784   4.083  1.1848 -0.3919 -1.8768
18112TIP3   OH275750   2.489   6.130   3.924 -0.1473  0.2329 -0.1704
18112TIP3    H175751   2.466   6.180   3.846  0.8687  1.2568  0.1631
18112TIP3    H275752   2.493   6.195   3.994  2.8146  0.0193 -0.0234
18113TIP3   OH275753   2.983   3.709   3.024  0.0044 -0.0012  0.7305
18113TIP3    H175754   3.028   3.654   2.960 -1.7185 -1.4570  0.6780
18113TIP3    H275755   3.014   3.679   3.109  1.3583  1.0851  0.6508
18114TIP3   OH275756   5.030   3.439   4.774  0.0299 -0.6070 -0.4249
18114TIP3    H175757   4.959   3.411   4.717  0.1038 -2.2496  0.2544
18114TIP3    H275758   5.049   3.529   4.745 -2.0108 -0.2784 -0.8829
18115TIP3   OH275759   0.415   6.603   4.774  0.0947  0.1290 -0.0979
18115TIP3    H175760   0.495   6.550   4.779 -1.0487 -1.5816  2.5241
18115TIP3    H275761   0.372   6.572   4.695  0.7934 -0.8422 -0.1235
18116TIP3   OH275762   2.777   5.516   3.251 -0.1155 -0.2392 -0.1846
18116TIP3    H175763   2.810   5.590   3.200  0.6899 -1.7524 -1.9599
18116TIP3    H275764   2.844   5.501   3.318  0.6213 -0.4796 -0.9593
18117TIP3   OH275765   0.785   1.819   3.623 -0.1044 -0.3101  0.2247
18117TIP3    H175766   0.868   1.801   3.581 -0.4579 -0.1292 -0.5695
18117TIP3    H275767   0.808   1.850   3.711  0.6776  0.1446 -0.1363
18118TIP3   OH275768   0.367   1.024   3.424  0.2333  0.3094 -0.0828
18118TIP3    H175769   0.292   1.014   3.482  0.0602  0.1566 -0.3344
18118TIP3    H275770   0.340   1.090   3.360 -0.3310 -0.9699 -1.2121
18119TIP3   OH275771   5.166   6.818   4.936  0.4873  0.3634  0.1276
18119TIP3    H175772   5.144   6.804   5.027  1.2911  2.0177  0.6311
18119TIP3    H275773   5.201   6.734   4.906 -1.8544 -0.8583  0.6563
18120TIP3   OH275774   1.510   5.043   2.791 -0.4764 -0.6435 -0.1362
18120TIP3    H175775   1.574   5.034   2.861 -0.7992 -0.9832  0.1178
18120TIP3    H275776   1.530   4.973   2.729  1.0711  0.8449 -1.4133
18121TIP3   OH275777   2.880   0.259   3.670  0.3685  0.6912 -0.3058
18121TIP3    H175778   2.884   0.172   3.710 -1.9635  0.4484 -0.4811
18121TIP3    H275779   2.787   0.277   3.659  0.8207  2.3885 -2.0917
18122TIP3   OH275780   3.402   5.397   0.438 -0.4470 -0.1289 -0.9117
18122TIP3    H175781   3.495   5.409   0.419 -0.5028  2.3198  0.0553
18122TIP3    H275782   3.398   5.392   0.534 -1.3965  0.8465 -0.8917
18123TIP3   OH275783   3.428   2.458   2.675 -0.2032 -0.1237 -0.5434
18123TIP3    H175784   3.482   2.379   2.666  0.6471  0.2443  0.9389
18123TIP3    H275785   3.472   2.509   2.742 -0.8294  1.5599 -1.3598
18124TIP3   OH275786   1.213   2.631   3.364  0.0125  0.3192 -0.2763
18124TIP3    H175787   1.138   2.691   3.359 -0.7334 -0.5791 -0.2082
18124TIP3    H275788   1.204   2.576   3.287 -0.3328 -0.8529  0.5779
18125TIP3   OH275789   2.909   1.780   5.376  0.1170 -0.1483 -0.0768
18125TIP3    H175790   2.941   1.716   5.440 -2.2542 -2.3608 -0.9065
18125TIP3    H275791   2.870   1.849   5.429  0.7949 -0.4504  0.8594
18126TIP3   OH275792   6.515   5.180   3.650  0.0287 -0.3742 -0.3195
18126TIP3    H175793   6.579   5.110   3.663  0.0052 -0.3096  0.1317
18126TIP3    H275794   6.430   5.136   3.657  0.0044 -0.1797  0.6471
18127TIP3   OH275795   0.452   4.176   5.046 -0.2072  0.1425  0.0849
18127TIP3    H175796   0.492   4.258   5.075 -3.4848  1.8472  0.2167
18127TIP3    H275797   0.436   4.128   5.127  1.8480 -0.7729 -0.0017
18128TIP3   OH275798   1.796   0.090   5.429  0.1753 -0.5501  0.2967
18128TIP3    H175799   1.712   0.121   5.462  0.4482 -0.5620  1.0001
18128TIP3    H275800   1.832   0.166   5.382 -0.2986 -0.5963 -0.1501
18129TIP3   OH275801   1.100   1.643   0.797  0.1426  0.0159 -0.0463
18129TIP3    H175802   1.065   1.672   0.713 -0.6623 -1.3014 -0.1910
18129TIP3    H275803   1.195   1.657   0.790  0.1841 -0.8680 -1.5022
18130TIP3   OH275804   0.967   0.755   3.885 -0.2327  0.1745  0.4216
18130TIP3    H175805   0.950   0.791   3.972  1.0013  2.1421 -0.0968
18130TIP3    H275806   1.044   0.802   3.854 -0.6758 -0.4306 -1.7697
18131TIP3   OH275807   2.848   2.801   2.612  0.0808 -1.0292  0.5352
18131TIP3    H175808   2.856   2.757   2.527 -1.4887  1.4983 -1.0382
18131TIP3    H275809   2.938   2.813   2.641  0.8760  0.7431 -2.3133
18132TIP3   OH275810   4.095   3.498   3.384 -0.7271  0.0528  0.2635
18132TIP3    H175811   4.076   3.491   3.290 -1.2853  2.9645  0.0720
18132TIP3    H275812   4.160   3.429   3.400 -0.1474 -0.1485 -2.3886
18133TIP3   OH275813   6.488   2.921   4.735 -0.5288 -0.5913 -0.2578
18133TIP3    H175814   6.462   2.983   4.666 -0.4869  0.2816  0.4900
18133TIP3    H275815   6.408   2.906   4.785  0.0180  1.0128  1.2029
18134TIP3   OH275816   4.559   2.437   5.023  0.0471 -0.3723  0.0931
18134TIP3    H175817   4.635   2.437   5.082 -0.8099  0.5303  1.2261
18134TIP3    H275818   4.513   2.355   5.042  1.0918 -1.2938 -1.1284
18135TIP3   OH275819   4.918   2.432  13.299 -0.1848 -0.0534  0.7722
18135TIP3    H175820   4.965   2.494  13.243  2.4027 -1.9194  0.7285
18135TIP3    H275821   4.870   2.376  13.237 -1.4206  0.9708  0.7530
18136TIP3   OH275822   5.711   4.545   1.639  0.2968 -0.3501  0.2937
18136TIP3    H175823   5.776   4.594   1.589 -0.9749 -0.7757 -1.9113
18136TIP3    H275824   5.644   4.521   1.575 -0.1346 -3.2536  1.6418
18137TIP3   OH275825   2.752   0.179  15.240 -0.2325  0.1137 -0.4986
18137TIP3    H175826   2.689   0.243  15.273 -1.2220 -0.7555 -0.6560
18137TIP3    H275827   2.830   0.231  15.219 -0.9039  1.2175 -0.3430
18138TIP3   OH275828   0.420   2.765   4.076  0.1157  0.4897  0.1545
18138TIP3    H175829   0.346   2.801   4.028  0.2185 -1.0393 -1.2502
18138TIP3    H275830   0.497   2.799   4.030  0.2452  0.6015  0.4550
18139TIP3   OH275831   4.750   4.852   3.037  0.2954 -0.2335 -0.2747
18139TIP3    H175832   4.827   4.798   3.057 -0.9276 -1.7417  0.5461
18139TIP3    H275833   4.676   4.804   3.074 -1.0019  1.4677 -0.5153
18140TIP3   OH275834   0.102   4.637   1.179 -0.8707  0.4881  0.1706
18140TIP3    H175835   0.117   4.605   1.268 -2.4140  0.8423  0.5847
18140TIP3    H275836   0.006   4.640   1.170 -0.7561 -0.0481 -1.6915
18141TIP3   OH275837   2.229   4.692  14.357 -0.0760  0.2299 -1.1770
18141TIP3    H175838   2.310   4.731  14.389  1.3372 -4.2025  1.5682
18141TIP3    H275839   2.257   4.631  14.288 -1.2049 -0.4845 -1.0420
18142TIP3   OH275840   5.382   2.471   2.986 -0.0387  0.3863  0.1480
18142TIP3    H175841   5.309   2.450   2.927 -1.9355  1.1407  2.0891
18142TIP3    H275842   5.388   2.567   2.982  2.3698  0.2489 -1.6221
18143TIP3   OH275843   5.445   5.592   2.541  0.3177  0.0572  0.4392
18143TIP3    H175844   5.442   5.510   2.492  0.7761  0.3434 -0.0844
18143TIP3    H275845   5.538   5.615   2.545  0.0858  1.3713 -0.8304
18144TIP3   OH275846   4.240   5.942   3.323 -0.0214  0.2577  0.3394
18144TIP3    H175847   4.272   5.998   3.393  0.3994  0.9703 -0.4032
18144TIP3    H275848   4.313   5.937   3.261 -0.1209 -0.9590  0.2913
18145TIP3   OH275849   4.611   6.209   1.686  0.3186 -0.0899  0.2975
18145TIP3    H175850   4.546   6.177   1.749 -0.3275 -0.0187 -0.3132
18145TIP3    H275851   4.619   6.303   1.705  2.2945 -0.5733  2.1594
18146TIP3   OH275852   3.234   6.982   2.386  0.7806  0.1994  0.3779
18146TIP3    H175853   3.200   7.038   2.456 -0.9159  0.1587 -0.3636
18146TIP3    H275854   3.276   6.909   2.432 -0.1393  0.2707  1.3774
18147TIP3   OH275855   0.143   2.452   1.806 -0.4932 -0.6900 -0.1898
18147TIP3    H175856   0.103   2.509   1.871  1.6495 -1.2128  1.7060
18147TIP3    H275857   0.096   2.369   1.815 -0.3612 -0.6907  0.5636
18148TIP3   OH275858   3.056   5.332   4.719  0.3190  0.0293 -0.3580
18148TIP3    H175859   3.080   5.264   4.656 -1.2399  2.4727 -3.9157
18148TIP3    H275860   3.125   5.398   4.710  0.4561  0.1282  1.1325
18149TIP3   OH275861   5.977   4.629   2.140 -0.0924  0.0977 -0.3512
18149TIP3    H175862   5.914   4.650   2.071 -0.8135 -1.1675 -0.1043
18149TIP3    H275863   5.925   4.586   2.208  0.8680 -0.0825  0.2902
18150TIP3   OH275864   4.712   6.081   5.341  0.9957  0.4234  0.0104
18150TIP3    H175865   4.747   6.102   5.427  1.6038  0.5965 -0.2718
18150TIP3    H275866   4.783   6.035   5.296  0.2393 -0.8181  0.0413
18151TIP3   OH275867   4.018   0.608   3.215  1.1387  0.4676 -0.4926
18151TIP3    H175868   4.006   0.679   3.278  2.0409  2.0288 -1.9887
18151TIP3    H275869   4.035   0.530   3.268 -0.6468  1.1785  1.2259
18152TIP3   OH275870   1.109   3.804   4.566 -0.0692 -0.9347 -0.0748
18152TIP3    H175871   1.142   3.853   4.490  0.7147 -0.7017  0.3998
18152TIP3    H275872   1.126   3.712   4.545  1.7364 -0.7858  0.5066
18153TIP3   OH275873   3.928   2.421  12.484 -0.0908 -0.5056 -0.5250
18153TIP3    H175874   3.869   2.464  12.545  0.1638 -1.8359  0.7074
18153TIP3    H275875   3.979   2.361  12.538 -0.1705 -2.0670 -2.0916
18154TIP3   OH275876   0.237   4.643   4.748  0.1762 -0.1654 -0.0954
18154TIP3    H175877   0.187   4.723   4.731  1.3840  0.5899 -0.2419
18154TIP3    H275878   0.260   4.649   4.840 -0.9620 -1.0877  0.2645
18155TIP3   OH275879   4.537   3.391   1.487 -0.3207  0.2321  0.6824
18155TIP3    H175880   4.469   3.383   1.420  0.5378 -1.7748 -0.0236
18155TIP3    H275881   4.553   3.485   1.494 -2.1877  0.6617 -0.0951
18156TIP3   OH275882   5.861   0.829   2.747 -0.1793 -0.6092  0.3342
18156TIP3    H175883   5.767   0.811   2.758 -0.0313 -1.8143 -0.2103
18156TIP3    H275884   5.904   0.762   2.801  0.3745  0.8341  1.7552
18157TIP3   OH275885   4.256   2.292   3.906  0.0919  0.7340  0.3958
18157TIP3    H175886   4.247   2.367   3.847 -0.0432  0.3592 -0.0670
18157TIP3    H275887   4.350   2.279   3.914  0.4163  3.7071  4.0185
18158TIP3   OH275888   6.463   3.889  14.660  0.8194  0.3421  0.0378
18158TIP3    H175889   6.425   3.968  14.621  0.3196  0.4862  0.8008
18158TIP3    H275890   6.536   3.867  14.603 -0.0948  0.3515 -1.1924
18159TIP3   OH275891   4.238   3.035   4.385 -0.1054  0.2283  0.2695
18159TIP3    H175892   4.275   2.946   4.383  1.2548  0.7779 -0.2235
18159TIP3    H275893   4.305   3.088   4.428  0.5041  1.5934 -2.1558
18160TIP3   OH275894   2.522   0.446   2.122 -0.3047 -0.4862 -0.0941
18160TIP3    H175895   2.488   0.457   2.211 -1.4305  0.0418 -0.5610
18160TIP3    H275896   2.491   0.359   2.095  2.6920 -2.0771  1.0985
18161TIP3   OH275897   5.939   4.591  11.746  0.1823 -0.2227  0.4055
18161TIP3    H175898   6.006   4.630  11.802  2.1299 -0.6209 -1.4876
18161TIP3    H275899   5.987   4.527  11.694 -2.0916 -2.0161  0.3506
18162TIP3   OH275900   0.892   0.936   5.950 -0.7075 -0.1341  0.0728
18162TIP3    H175901   0.802   0.954   5.923 -0.4826  1.6669  0.4071
18162TIP3    H275902   0.923   0.872   5.886 -1.3595  1.2651 -1.7412
18163TIP3   OH275903   1.789   1.955   5.071 -0.1832 -0.4880 -0.1504
18163TIP3    H175904   1.727   2.019   5.106 -0.5361 -1.1669  0.4727
18163TIP3    H275905   1.866   2.007   5.047 -0.4445  0.1660  0.4040
18164TIP3   OH275906   6.115   5.425   5.434  0.3699 -0.0798  0.5366
18164TIP3    H175907   6.173   5.351   5.451  0.7527  0.6807  2.9371
18164TIP3    H275908   6.027   5.390   5.446  0.4507 -0.5654 -0.2322
18165TIP3   OH275909   1.754   6.514   5.871 -0.2965  0.6155 -0.8586
18165TIP3    H175910   1.844   6.491   5.894 -0.4067  1.1468  0.2103
18165TIP3    H275911   1.761   6.562   5.789  0.4926  1.2568 -0.4379
18166TIP3   OH275912   4.574   0.278   2.873 -0.1909  0.4873  0.5097
18166TIP3    H175913   4.585   0.183   2.865  0.5362  0.6371 -0.5438
18166TIP3    H275914   4.576   0.295   2.967  2.3983 -0.2571  0.6725
18167TIP3   OH275915   6.343   6.080   5.309  0.4852  0.1941  0.3696
18167TIP3    H175916   6.391   6.004   5.276  2.2268  1.0346  0.7893
18167TIP3    H275917   6.354   6.146   5.241 -1.0885  0.0757 -0.0297
18168TIP3   OH275918   1.327   2.932   4.623  0.3688  0.1614  0.3193
18168TIP3    H175919   1.356   2.889   4.704 -1.5354 -0.7930  0.5517
18168TIP3    H275920   1.243   2.971   4.646 -0.2727 -0.2470 -1.2388
18169TIP3   OH275921   3.299   7.001   5.567  0.1574  0.5138 -0.0869
18169TIP3    H175922   3.271   7.008   5.659  2.0994 -1.2907  0.7180
18169TIP3    H275923   3.321   7.090   5.542 -1.9098  1.2983  0.6437
18170TIP3   OH275924   7.091   6.643   2.556 -0.2779  0.6349 -0.1327
18170TIP3    H175925   7.034   6.651   2.632  0.4437  1.1126  0.3682
18170TIP3    H275926   7.174   6.612   2.591  0.1104  0.9986 -0.7018
18171TIP3   OH275927   0.924   5.371   4.913 -0.1175  0.6511  0.4597
18171TIP3    H175928   0.876   5.303   4.866  0.7768 -0.5026  1.1422
18171TIP3    H275929   0.857   5.417   4.964 -0.8733  0.9408 -0.7696
18172TIP3   OH275930   6.587   6.978  14.738 -0.2370 -0.2285 -0.1432
18172TIP3    H175931   6.677   6.955  14.760  0.0195  0.0267 -0.8684
18172TIP3    H275932   6.533   6.925  14.796  0.3699  1.9764  2.6589
18173TIP3   OH275933   0.372   4.613   5.001  0.4078 -0.1314 -0.0758
18173TIP3    H175934   0.340   4.703   5.008  1.0937  0.0683  0.5520
18173TIP3    H275935   0.319   4.564   5.064 -1.1796 -0.5352 -1.6442
18174TIP3   OH275936   0.696   4.270   3.181 -0.7533 -0.2489  0.5702
18174TIP3    H175937   0.630   4.244   3.116 -3.0223  2.8053  1.3897
18174TIP3    H275938   0.737   4.347   3.143  1.1425 -1.0638  0.8860
18175TIP3   OH275939   0.457   3.143   1.829 -0.1175 -0.4017  0.5035
18175TIP3    H175940   0.418   3.180   1.909 -0.6140 -0.9325  0.5116
18175TIP3    H275941   0.525   3.206   1.805 -1.2842  0.7956  0.2354
18176TIP3   OH275942   5.230   4.663   5.117  0.7199 -0.4282 -0.1622
18176TIP3    H175943   5.297   4.698   5.176  0.8064  0.1805 -0.6087
18176TIP3    H275944   5.270   4.668   5.030  0.0009  0.2157 -0.4719
18177TIP3   OH275945   2.267   3.298   0.968 -0.0048  0.3255  0.6230
18177TIP3    H175946   2.204   3.367   0.988 -1.3442 -0.9975  1.1006
18177TIP3    H275947   2.302   3.272   1.053  2.8826  2.4721  0.2719
18178TIP3   OH275948   1.932   0.325   5.304  0.4290 -0.3347  0.0168
18178TIP3    H175949   1.971   0.390   5.246  0.2615  0.9716  1.3311
18178TIP3    H275950   1.869   0.374   5.357  0.6198 -1.4813  1.3615
18179TIP3   OH275951   6.058   6.165   5.083  0.0901 -0.4822  0.7281
18179TIP3    H175952   6.066   6.109   5.005 -0.4638  0.5381 -0.0813
18179TIP3    H275953   6.021   6.107   5.150  0.8062 -1.4409  0.3169
18180TIP3   OH275954   5.481   2.124   2.906  0.2951 -0.1332  0.5919
18180TIP3    H175955   5.417   2.140   2.836  0.1685 -1.6685  0.3178
18180TIP3    H275956   5.563   2.105   2.860  0.5063  0.0396  0.8937
18181TIP3   OH275957   6.112   5.873  15.065  0.2467  0.1202 -0.2060
18181TIP3    H175958   6.070   5.937  15.008  0.7995  1.2137  0.5624
18181TIP3    H275959   6.156   5.927  15.132  0.7127 -1.0705  0.4686
18182TIP3   OH275960   5.539   0.253   4.863 -0.5354  0.4519 -0.6450
18182TIP3    H175961   5.536   0.275   4.770  0.3814 -1.5438 -1.1977
18182TIP3    H275962   5.485   0.175   4.871  1.4048 -0.8943 -0.0075
18183TIP3   OH275963   4.533   1.632   4.505  0.5960 -0.2368  0.7289
18183TIP3    H175964   4.618   1.622   4.462  0.9192  0.5545  1.1574
18183TIP3    H275965   4.512   1.724   4.495 -1.6751 -0.9463 -1.9978
18184TIP3   OH275966   5.039   3.685   2.612 -0.0469 -0.0004  0.2289
18184TIP3    H175967   5.000   3.759   2.566  4.1482  1.0862 -2.1064
18184TIP3    H275968   5.027   3.611   2.553 -1.3490 -0.4850  1.0566
18185TIP3   OH275969   5.971   3.712   2.135 -0.1326 -0.2012 -0.5283
18185TIP3    H175970   5.908   3.764   2.185 -0.4842 -1.3440  0.2675
18185TIP3    H275971   5.922   3.634   2.109  0.9588 -1.1304  0.1300
18186TIP3   OH275972   0.484   5.685   4.706  0.5486  0.5854 -0.2842
18186TIP3    H175973   0.479   5.752   4.774  1.8119 -2.0313  2.6186
18186TIP3    H275974   0.393   5.659   4.691  0.3425 -0.6792  2.5779
18187TIP3   OH275975   7.198   0.643   2.054  0.0128  0.1493 -0.0710
18187TIP3    H175976   7.265   0.576   2.065 -0.7511 -0.9881 -1.7532
18187TIP3    H275977   7.115   0.596   2.067 -0.5529  0.6221 -1.7253
18188TIP3   OH275978   3.896   7.016   1.768 -0.3724 -0.2273 -0.0345
18188TIP3    H175979   3.840   7.092   1.755  0.5413  0.2721 -1.2258
18188TIP3    H275980   3.875   6.985   1.857 -1.1831  1.0379  0.2335
18189TIP3   OH275981   0.469   0.492   3.207  0.5842  0.1773  0.2401
18189TIP3    H175982   0.453   0.582   3.181 -1.4051 -1.0628 -3.6831
18189TIP3    H275983   0.384   0.461   3.239 -0.4032 -1.6125 -3.6208
18190TIP3   OH275984   4.197   2.201   0.001  0.4906  0.0344  0.2027
18190TIP3    H175985   4.131   2.189  -0.067  0.1603 -0.9395  0.6685
18190TIP3    H275986   4.280   2.182  -0.041  0.4412  0.8029 -0.2683
18191TIP3   OH275987   4.195   0.182   1.725 -0.1917 -0.2756 -0.1017
18191TIP3    H175988   4.216   0.095   1.693  0.8552 -0.2145  0.3841
18191TIP3    H275989   4.102   0.193   1.705 -0.0563 -1.0372 -1.2175
18192TIP3   OH275990   4.652   0.143   3.397 -0.0319  0.0003  0.8105
18192TIP3    H175991   4.739   0.103   3.399  0.7307  0.8203 -3.8490
18192TIP3    H275992   4.669   0.235   3.374 -2.0843  0.9515  2.7196
18193TIP3   OH275993   5.891   7.100   3.762  0.8061 -0.0953 -0.5531
18193TIP3    H175994   5.848   7.023   3.799 -0.3305  1.0473  0.6095
18193TIP3    H275995   5.831   7.130   3.693  0.6638  0.3998 -0.2223
18194TIP3   OH275996   2.107   1.158   4.161  0.0088  0.0683 -1.1318
18194TIP3    H175997   2.109   1.214   4.239 -2.5861  0.4970 -1.2798
18194TIP3    H275998   2.048   1.203   4.101 -1.5874 -2.3803 -1.5563
18195TIP3   OH275999   7.124   0.126  11.193  0.9363 -0.2447 -0.8017
18195TIP3    H176000   7.032   0.135  11.218  1.0976  0.3255 -0.4140
18195TIP3    H276001   7.164   0.081  11.267  0.5404 -2.5501 -1.8858
18196TIP3   OH276002   2.333   5.954   4.516  0.4822 -0.1807 -0.4415
18196TIP3    H176003   2.288   6.037   4.531 -0.8809 -0.9687  0.0833
18196TIP3    H276004   2.416   5.962   4.563  1.2614  1.5777 -2.0124
18197TIP3   OH276005   4.676   1.200   0.221 -0.0057  0.2577 -0.5370
18197TIP3    H176006   4.595   1.149   0.228 -0.0067  0.2526 -0.5848
18197TIP3    H276007   4.703   1.215   0.312 -0.2059  0.4901 -0.5146
18198TIP3   OH276008   3.629   5.917   3.273 -0.0390 -0.0943 -0.0810
18198TIP3    H176009   3.546   5.962   3.291 -0.5554 -1.0245 -0.0441
18198TIP3    H276010   3.632   5.909   3.178  1.0185  1.7454 -0.2497
18199TIP3   OH276011   5.186   1.697   2.072  0.0403 -0.3754  0.0225
18199TIP3    H176012   5.129   1.764   2.110  1.0387  0.9244 -0.6394
18199TIP3    H276013   5.154   1.614   2.107 -0.6516  0.5290  1.6388
18200TIP3   OH276014   5.444   1.697   3.216 -0.5860 -0.0546 -0.3074
18200TIP3    H176015   5.354   1.667   3.230 -0.9594 -0.0518 -2.4415
18200TIP3    H276016   5.435   1.774   3.160  0.8106 -1.1079 -2.0708
18201TIP3   OH276017   3.383   7.174   1.019 -0.2737 -0.2957  0.0313
18201TIP3    H176018   3.377   7.129   1.103  1.3329 -1.0430 -0.2414
18201TIP3    H276019   3.389   7.105   0.954  0.3704  0.2893 -0.5482
18202TIP3   OH276020   4.738   6.142  14.135  0.2424  0.6755 -0.5772
18202TIP3    H176021   4.743   6.073  14.201  1.8475  0.3075 -1.0568
18202TIP3    H276022   4.735   6.096  14.052 -1.3889  1.1475 -0.8179
18203TIP3   OH276023   6.244   1.823   3.147  0.2445 -0.1035 -0.1131
18203TIP3    H176024   6.196   1.833   3.065  0.0741 -0.7576 -0.0947
18203TIP3    H276025   6.214   1.740   3.183  1.1573 -0.3731  0.0531
18204TIP3   OH276026   4.818   5.171   5.604 -0.6353  0.0019 -0.0756
18204TIP3    H176027   4.808   5.253   5.555 -1.3238  0.2467  0.4633
18204TIP3    H276028   4.729   5.142   5.621 -0.3951 -0.7281 -0.0325
18205TIP3   OH276029   0.379   0.028   3.542 -0.2181 -0.5958  0.2184
18205TIP3    H176030   0.446   0.091   3.517  1.6767 -2.3533  0.5830
18205TIP3    H276031   0.363   0.045   3.634 -0.1732 -0.2480  0.1618
18206TIP3   OH276032   3.056   5.147  15.107 -0.3863 -0.2518  0.2077
18206TIP3    H176033   3.065   5.060  15.145  1.6891  0.2513  0.9772
18206TIP3    H276034   3.110   5.145  15.029  2.4178  1.2314  1.9575
18207TIP3   OH276035   1.245   4.059   2.569  0.3030 -0.6739 -0.5769
18207TIP3    H176036   1.299   3.980   2.557 -0.6175 -1.3419 -0.4392
18207TIP3    H276037   1.186   4.059   2.494 -0.3062 -0.6183 -0.1062
18208TIP3   OH276038   0.118   0.666   1.353 -0.1518  0.0065 -0.2005
18208TIP3    H176039   0.080   0.664   1.441 -0.7811  0.8687 -0.4347
18208TIP3    H276040   0.203   0.708   1.365  0.4772 -1.3348  0.2259
18209TIP3   OH276041   4.421   3.516   3.811 -0.5822  0.2247  0.1357
18209TIP3    H176042   4.420   3.420   3.811  0.1308  0.1450  2.5264
18209TIP3    H276043   4.398   3.540   3.901  3.0468  2.1469  0.7599
18210TIP3   OH276044   4.374   5.529   3.231 -0.1220 -0.3681 -0.0631
18210TIP3    H176045   4.379   5.541   3.136 -0.7319 -1.4381 -0.2573
18210TIP3    H276046   4.309   5.594   3.260  0.2713  0.1500 -0.3302
18211TIP3   OH276047   4.087   6.294   4.917 -0.1711  0.1077 -0.2629
18211TIP3    H176048   4.073   6.226   4.851  1.6538 -0.4763 -0.0987
18211TIP3    H276049   4.169   6.270   4.959  0.3248  2.2028  0.0673
18212TIP3   OH276050   2.191   2.262   3.800 -0.2191  0.0344 -0.3898
18212TIP3    H176051   2.140   2.220   3.870  0.3423  0.4065  0.2526
18212TIP3    H276052   2.193   2.355   3.824  0.2548  0.1126 -0.7184
18213TIP3   OH276053   4.990   4.411   2.146  0.1461  0.5114  0.0900
18213TIP3    H176054   5.020   4.421   2.055  1.8838  0.7369  0.6501
18213TIP3    H276055   4.935   4.488   2.161 -0.7726  0.0821 -0.9971
18214TIP3   OH276056   4.521   2.749   3.771 -0.1783 -0.0069  0.1897
18214TIP3    H176057   4.517   2.791   3.685  1.0432  1.6156  0.8635
18214TIP3    H276058   4.504   2.656   3.754 -1.4751  0.5040 -1.5708
18215TIP3   OH276059   1.118   6.340   2.462 -0.2431  0.3208 -0.6189
18215TIP3    H176060   1.169   6.291   2.527 -0.8639 -2.0851 -1.8241
18215TIP3    H276061   1.180   6.405   2.427  0.9208 -0.2019  0.3870
18216TIP3   OH276062   1.458   5.577   3.235 -0.6543  0.1029  0.2264
18216TIP3    H176063   1.516   5.501   3.237  0.5137  0.8582 -2.1449
18216TIP3    H276064   1.382   5.550   3.287  0.6480 -1.8620  1.2418
18217TIP3   OH276065   1.600   0.763   2.271 -0.5663  0.0685 -0.3337
18217TIP3    H176066   1.577   0.818   2.196  0.3396 -0.2122 -0.8413
18217TIP3    H276067   1.666   0.703   2.236 -0.3519 -0.2616  0.6219
18218TIP3   OH276068   1.964   4.024   5.502 -0.0321  0.2140 -0.0465
18218TIP3    H176069   1.869   4.011   5.498  0.1085 -0.6009 -1.4595
18218TIP3    H276070   1.978   4.108   5.457 -0.0167 -0.0488 -0.5328
18219TIP3   OH276071   2.472   4.882   4.373 -0.4301  0.2684 -0.2340
18219TIP3    H176072   2.442   4.953   4.316 -0.4241 -0.8272 -1.6667
18219TIP3    H276073   2.412   4.809   4.354  1.6026 -1.1996 -1.3770
18220TIP3   OH276074   1.802   3.078  13.355  0.1280  0.4105  0.2147
18220TIP3    H176075   1.763   3.165  13.345  0.9501  0.7974  0.3450
18220TIP3    H276076   1.730   3.017  13.335 -0.5269  1.1112  0.3902
18221TIP3   OH276077   6.569   2.234   5.497 -0.1488 -0.3738  0.3215
18221TIP3    H176078   6.566   2.152   5.546 -0.8906 -1.1474 -0.9679
18221TIP3    H276079   6.638   2.285   5.540 -0.7242 -1.0303  2.1031
18222TIP3   OH276080   0.601   5.253   4.513 -0.5598 -0.7870  0.2593
18222TIP3    H176081   0.666   5.240   4.444 -3.0976  1.3939 -2.9084
18222TIP3    H276082   0.600   5.348   4.528 -1.9561 -0.9194  1.2669
18223TIP3   OH276083   4.990   0.633   3.332 -0.1398 -0.0954  0.2366
18223TIP3    H176084   5.078   0.667   3.345  0.5015 -2.2354  2.2680
18223TIP3    H276085   4.985   0.613   3.238  1.0747  1.1368 -0.1136
18224TIP3   OH276086   6.559   4.273   2.170  0.6609  0.1160 -0.7177
18224TIP3    H176087   6.589   4.213   2.238 -0.4406  0.1785 -0.1456
18224TIP3    H276088   6.534   4.352   2.217 -1.1242 -0.2171 -1.0354
18225TIP3   OH276089   2.388   0.602   0.295  0.0140 -0.5712  0.6432
18225TIP3    H176090   2.460   0.543   0.273 -1.3630 -2.1000  0.0245
18225TIP3    H276091   2.338   0.555   0.361 -0.9797  0.0222  0.3263
18226TIP3   OH276092   6.768   1.251   1.865 -0.0826  0.4431 -0.0009
18226TIP3    H176093   6.805   1.234   1.779 -1.8147  1.0920 -0.9118
18226TIP3    H276094   6.673   1.244   1.853 -0.4384  2.0100  1.5054
18227TIP3   OH276095   2.912   4.664   4.780  0.5459 -0.3599  0.0867
18227TIP3    H176096   2.913   4.759   4.794 -0.4516 -0.3924  0.4794
18227TIP3    H276097   2.989   4.632   4.827 -1.1423 -0.1366  3.3182
18228TIP3   OH276098   1.902   3.087   3.629  0.0224  0.0596  0.0740
18228TIP3    H176099   1.883   3.046   3.713  0.3965 -0.7534 -0.2237
18228TIP3    H276100   1.817   3.099   3.588 -0.1260  0.0451  0.3715
18229TIP3   OH276101   1.882   2.755   3.738  0.0028  0.2431  0.2995
18229TIP3    H176102   1.898   2.801   3.655  0.8229 -0.9999 -0.2732
18229TIP3    H276103   1.805   2.701   3.720  1.2421 -1.4128 -0.3070
18230TIP3   OH276104   0.046   3.408   4.826 -0.1260 -0.5669  0.1220
18230TIP3    H176105   0.129   3.421   4.872 -1.0935  2.5466  1.2334
18230TIP3    H276106   0.071   3.388   4.736  1.8038 -1.3728  0.7930
18231TIP3   OH276107   3.671   5.434  13.329  0.4656  0.2248  0.4619
18231TIP3    H176108   3.616   5.478  13.393 -0.0148 -0.0650  0.2465
18231TIP3    H276109   3.706   5.358  13.374 -1.6512 -1.2544 -0.2628
18232TIP3   OH276110   3.651   6.451  13.071  0.0440  0.1020 -0.4286
18232TIP3    H176111   3.603   6.533  13.072  0.9282  0.7300  2.9484
18232TIP3    H276112   3.723   6.466  13.009 -1.7432  0.5211 -2.5252
18233TIP3   OH276113   7.200   5.784   3.892 -0.0430  0.3057  0.5265
18233TIP3    H176114   7.206   5.695   3.857 -1.2718  0.5000 -0.2060
18233TIP3    H276115   7.128   5.780   3.955  0.1417  0.6987  0.7659
18234TIP3   OH276116   2.108   2.401   3.543 -0.0832 -1.0353 -0.0813
18234TIP3    H176117   2.170   2.467   3.512  1.6145 -2.7171 -0.4834
18234TIP3    H276118   2.152   2.360   3.618 -2.2160 -0.0485  1.8595
18235TIP3   OH276119   0.597   6.195   4.195 -0.0981 -0.2067  0.3874
18235TIP3    H176120   0.542   6.121   4.171  0.5276 -0.2620 -0.9464
18235TIP3    H276121   0.658   6.205   4.122  0.4538  1.0190  0.9806
18236TIP3   OH276122   2.891   1.138   1.843 -0.7537 -0.3912 -0.1099
18236TIP3    H176123   2.820   1.121   1.905  0.2530  1.0083  1.5167
18236TIP3    H276124   2.965   1.086   1.876 -0.4585 -0.3248 -0.6493
18237TIP3   OH276125   4.775   1.523   0.611  0.9673 -0.0198 -0.4347
18237TIP3    H176126   4.729   1.518   0.695  0.9482 -0.6458 -0.4755
18237TIP3    H276127   4.822   1.606   0.614  0.0503  0.5095 -0.2805
18238TIP3   OH276128   3.208   4.296   2.476  0.3298  0.0438  0.0455
18238TIP3    H176129   3.265   4.354   2.527 -0.1117 -0.3314  0.9977
18238TIP3    H276130   3.131   4.349   2.457 -0.9760 -0.7348  2.6303
18239TIP3   OH276131   5.210   0.217   2.487  0.9766 -0.7364 -0.3234
18239TIP3    H176132   5.266   0.162   2.541  0.2265 -0.4938  0.7222
18239TIP3    H276133   5.223   0.305   2.521  2.7542 -0.0761 -2.4757
18240TIP3   OH276134   3.154   0.958  12.767 -0.0391  0.0915 -0.2114
18240TIP3    H176135   3.218   0.924  12.704 -0.6014 -1.0426 -0.1894
18240TIP3    H276136   3.074   0.970  12.717 -0.1421  0.3837  0.0190
18241TIP3   OH276137   2.019   2.227  14.699 -0.0522 -0.1368  0.2626
18241TIP3    H176138   1.956   2.245  14.630 -0.1931  0.5362  0.5551
18241TIP3    H276139   2.067   2.309  14.710  1.0681 -0.7122 -0.1338
18242TIP3   OH276140   2.021   2.623   5.386 -0.0517  0.1398 -0.1872
18242TIP3    H176141   2.079   2.698   5.368 -1.0332  1.2174  0.8939
18242TIP3    H276142   2.064   2.577   5.458  0.0314  0.2872 -0.1413
18243TIP3   OH276143   2.418   7.012   1.584 -0.0301 -0.1570 -0.0952
18243TIP3    H176144   2.340   7.065   1.599  0.4161  0.1931  1.0890
18243TIP3    H276145   2.478   7.036   1.655 -0.4325 -3.4415  1.5721
18244TIP3   OH276146   3.623   6.733   1.627 -0.3574 -0.0913 -0.1827
18244TIP3    H176147   3.665   6.789   1.562  0.7550 -0.4103  0.2256
18244TIP3    H276148   3.662   6.646   1.612 -1.8414 -0.7150 -0.6267
18245TIP3   OH276149   3.552   3.834   3.145 -0.1600  0.5789  0.0411
18245TIP3    H176150   3.642   3.802   3.160  0.3990  2.2252  0.4191
18245TIP3    H276151   3.549   3.918   3.190 -1.5754  1.0543 -0.8867
18246TIP3   OH276152   3.573   1.434   2.660  0.5891 -0.1337 -0.0576
18246TIP3    H176153   3.635   1.436   2.732 -1.2935  0.5009  1.6506
18246TIP3    H276154   3.507   1.369   2.686 -0.8501  1.0631 -0.5385
18247TIP3   OH276155   0.145   1.735   5.011 -0.2171  0.3247  0.0398
18247TIP3    H176156   0.110   1.823   5.000 -0.9889  0.1889  1.2388
18247TIP3    H276157   0.102   1.701   5.089  0.0720 -1.1220 -0.3886
18248TIP3   OH276158   1.071   5.757   3.623  0.0063  0.2105 -0.2588
18248TIP3    H176159   1.146   5.702   3.598 -0.9623 -1.7333  0.8684
18248TIP3    H276160   0.996   5.718   3.579 -0.7408  0.4898  0.7177
18249TIP3   OH276161   6.581   0.591  15.073  0.9462  0.6718  0.1130
18249TIP3    H176162   6.649   0.524  15.060 -0.5311 -0.9094  0.1541
18249TIP3    H276163   6.500   0.548  15.045 -0.2808  1.9401  1.5797
18250TIP3   OH276164   0.434   2.188   0.384  0.1522  0.3153 -0.2648
18250TIP3    H176165   0.384   2.175   0.304  0.9768  1.5012 -1.0132
18250TIP3    H276166   0.394   2.264   0.426  1.6385  1.6953 -1.2076
18251TIP3   OH276167   5.466   5.840   4.402  0.0035  0.1635  0.1916
18251TIP3    H176168   5.493   5.748   4.412  1.6356  0.4329 -1.2513
18251TIP3    H276169   5.547   5.887   4.384 -0.5947  2.1716  2.3441
18252TIP3   OH276170   6.496   3.506   4.573 -0.1109  0.1716 -0.7881
18252TIP3    H176171   6.542   3.573   4.624  0.6907 -0.9873  0.0627
18252TIP3    H276172   6.485   3.433   4.634 -3.5073  0.5313 -0.7862
18253TIP3   OH276173   3.797   3.105  13.054  0.2929  0.5585 -0.2531
18253TIP3    H176174   3.811   3.034  13.117  0.4913  0.1567 -0.7477
18253TIP3    H276175   3.856   3.086  12.982 -1.0345  0.1624 -1.2730
18254TIP3   OH276176   6.658   5.496   1.247 -0.1780  0.1113  0.1479
18254TIP3    H176177   6.664   5.566   1.312 -0.8808 -0.5715  0.9860
18254TIP3    H276178   6.613   5.425   1.293 -1.9226  0.0750 -1.5009
18255TIP3   OH276179   5.572   4.831   3.512  0.0829  0.1126  0.2088
18255TIP3    H176180   5.486   4.826   3.553 -0.6985 -1.3232 -1.4501
18255TIP3    H276181   5.575   4.754   3.454  1.4632  1.4837 -1.6532
18256TIP3   OH276182   2.694   4.415   4.265  0.0308  0.8002 -0.1828
18256TIP3    H176183   2.701   4.505   4.297  0.4476  0.7964 -0.2624
18256TIP3    H276184   2.784   4.386   4.255 -0.1009  0.5258 -0.5955
18257TIP3   OH276185   5.627   0.847   4.761 -0.7581 -0.1316 -0.0032
18257TIP3    H176186   5.554   0.849   4.699 -0.1088  0.5619 -0.7678
18257TIP3    H276187   5.661   0.757   4.755 -1.1028 -0.2544 -0.1597
18258TIP3   OH276188   5.671   0.653   2.223  0.3128 -0.0278 -0.0322
18258TIP3    H176189   5.742   0.589   2.220 -0.1629 -0.6309  0.9874
18258TIP3    H276190   5.670   0.692   2.136  0.8917 -1.1229 -0.5473
18259TIP3   OH276191   2.916   4.021   4.277 -0.8730  0.0349 -0.3190
18259TIP3    H176192   2.983   3.997   4.341 -0.2431  0.3918 -0.8404
18259TIP3    H276193   2.860   3.944   4.271 -1.8710  0.5221  1.8144
18260TIP3   OH276194   1.167   5.024   4.611 -0.0451  0.6906  0.3132
18260TIP3    H176195   1.178   5.088   4.681  0.7368 -0.9474  1.7786
18260TIP3    H276196   1.188   4.940   4.652 -1.8511 -0.6303 -1.2961
18261TIP3   OH276197   3.313   0.960   2.546  0.4322 -0.1896  0.4058
18261TIP3    H176198   3.280   0.875   2.575  0.1365 -1.0640 -2.1941
18261TIP3    H276199   3.378   0.939   2.479  0.7460  1.6438  0.0759
18262TIP3   OH276200   0.496   2.991   3.312  0.2755  0.6224  0.0803
18262TIP3    H176201   0.492   2.902   3.277 -0.2904  0.5569  0.3045
18262TIP3    H276202   0.438   3.042   3.254 -1.0477  0.4204  1.1875
18263TIP3   OH276203   0.207   2.684   2.660 -0.1523 -0.0519  0.1843
18263TIP3    H176204   0.121   2.680   2.619  0.2037 -0.7853 -0.5140
18263TIP3    H276205   0.191   2.669   2.753 -0.7042 -0.8936 -0.0419
18264TIP3   OH276206   2.851   7.200   3.809 -0.0374 -0.3324 -0.3336
18264TIP3    H176207   2.884   7.141   3.742  1.1423  0.1111 -0.1525
18264TIP3    H276208   2.815   7.142   3.876 -1.4501 -0.7807 -1.4215
18265TIP3   OH276209   6.618   2.720   3.898 -0.6566  0.4439 -0.7281
18265TIP3    H176210   6.705   2.748   3.871 -0.4021  0.1854 -0.1913
18265TIP3    H276211   6.566   2.800   3.901 -0.4734  0.5801 -1.1812
18266TIP3   OH276212   5.073   2.971   2.420  0.2100 -0.6286  0.0223
18266TIP3    H176213   5.154   2.976   2.370  0.8178 -2.9216  0.6690
18266TIP3    H276214   5.056   3.062   2.446  1.8397  0.0914 -1.2166
18267TIP3   OH276215   6.431   1.976   5.045  0.0751 -0.8514  0.1962
18267TIP3    H176216   6.383   2.058   5.037 -0.9392 -1.3991  0.5888
18267TIP3    H276217   6.485   1.972   4.966 -0.7536 -0.3781 -0.4039
18268TIP3   OH276218   3.591   5.599   1.878 -0.0963 -0.3073  0.2171
18268TIP3    H176219   3.589   5.541   1.953 -2.0944 -2.1400 -1.1344
18268TIP3    H276220   3.671   5.574   1.830  1.0442  0.6962  1.5187
18269TIP3   OH276221   6.682   4.081   1.185  0.3115 -0.4314  0.1208
18269TIP3    H176222   6.643   4.107   1.268  1.7516  2.6493 -0.0389
18269TIP3    H276223   6.608   4.053   1.131 -1.0006  0.2339  1.5002
18270TIP3   OH276224   2.023   4.888  12.972 -0.2202  0.1425  0.1827
18270TIP3    H176225   2.111   4.860  12.999  0.5410  1.3986 -0.8573
18270TIP3    H276226   2.014   4.976  13.010 -2.0665 -0.9056  2.3778
18271TIP3   OH276227   3.875   0.879   5.001 -0.0818  0.8799 -0.0191
18271TIP3    H176228   3.788   0.904   4.972 -1.2980 -1.3154  1.4806
18271TIP3    H276229   3.860   0.819   5.075  2.6126 -1.4331 -1.1593
18272TIP3   OH276230   2.031   1.389   4.319 -0.4523 -0.9022 -0.1724
18272TIP3    H176231   1.945   1.347   4.327 -0.6296 -0.2826  1.9429
18272TIP3    H276232   2.012   1.478   4.290 -0.4338 -1.0598 -0.6707
18273TIP3   OH276233   3.684   3.953  14.912 -0.1496  0.8261  0.1310
18273TIP3    H176234   3.703   3.871  14.866 -1.3531  0.1604  0.7737
18273TIP3    H276235   3.633   3.926  14.988  0.0003  2.1228  0.7143
18274TIP3   OH276236   4.973   3.076   0.702  0.2717 -0.4203  0.4993
18274TIP3    H176237   4.942   3.159   0.737 -0.9819 -0.8129  0.3740
18274TIP3    H276238   4.938   3.010   0.762  0.7181 -0.9011  0.2410
18275TIP3   OH276239   4.114   0.671   2.613 -0.1341  0.0542  0.2941
18275TIP3    H176240   4.155   0.597   2.569  0.9713 -1.9800  4.2692
18275TIP3    H276241   4.186   0.714   2.660 -0.8879  3.3012 -1.2533
18276TIP3   OH276242   6.174   6.228   1.423  0.2871  0.3268  0.5706
18276TIP3    H176243   6.094   6.198   1.466 -0.1440  2.7969  1.6781
18276TIP3    H276244   6.144   6.286   1.352  1.0761 -0.4841 -0.4611
18277TIP3   OH276245   7.071   6.113   2.444  0.3131  0.4148 -0.4967
18277TIP3    H176246   7.021   6.180   2.492  1.4632  0.2398  1.0129
18277TIP3    H276247   7.109   6.160   2.370 -0.9495  0.8499 -0.8981
18278TIP3   OH276248   5.914   4.296   2.261  0.4052  0.0868 -0.4702
18278TIP3    H176249   5.821   4.281   2.243  0.3067  1.0776 -0.8490
18278TIP3    H276250   5.955   4.295   2.174  0.9321 -1.4208 -0.2288
18279TIP3   OH276251   4.635   1.558   4.830 -0.5325 -0.1361  0.3077
18279TIP3    H176252   4.678   1.566   4.915 -0.1629 -0.4997  0.1543
18279TIP3    H276253   4.706   1.546   4.767 -0.8156 -0.0942 -0.0286
18280TIP3   OH276254   0.759   6.045   4.870  0.1726 -0.1397 -0.1387
18280TIP3    H176255   0.720   6.048   4.782  2.3309 -1.2664 -1.2121
18280TIP3    H276256   0.689   6.076   4.928 -1.2524  0.8871 -2.2563
18281TIP3   OH276257   4.121   5.044   1.707 -0.1334  0.1441 -0.5353
18281TIP3    H176258   4.130   5.117   1.768 -0.8009 -0.0103 -0.2368
18281TIP3    H276259   4.192   4.984   1.730  1.5760  1.4985 -1.9730
18282TIP3   OH276260   6.993   6.307   4.395  0.5891 -0.0878 -0.7457
18282TIP3    H176261   7.026   6.225   4.359  0.1750 -1.6667  2.1735
18282TIP3    H276262   7.045   6.322   4.474 -0.9070  1.1735  0.0592
18283TIP3   OH276263   1.631   0.370   1.568 -0.0136 -0.3940 -0.1941
18283TIP3    H176264   1.586   0.354   1.651  1.6568 -0.6977  0.6926
18283TIP3    H276265   1.689   0.295   1.557 -0.1596 -0.3195 -1.6114
18284TIP3   OH276266   1.530   4.289   4.918  0.0175 -0.6050 -0.4959
18284TIP3    H176267   1.457   4.226   4.920 -0.2769 -0.3570 -2.0642
18284TIP3    H276268   1.533   4.324   5.006 -0.9340 -1.5663 -0.0458
18285TIP3   OH276269   6.451   3.757   1.378  0.1532 -0.0758  0.2550
18285TIP3    H176270   6.411   3.840   1.351 -0.6297 -0.3932  0.4006
18285TIP3    H276271   6.539   3.781   1.408 -0.5660  0.9234  1.6817
18286TIP3   OH276272   5.107   5.446   1.309  0.5013 -0.3000  0.2233
18286TIP3    H176273   5.076   5.382   1.374 -4.2480  1.0474 -0.3505
18286TIP3    H276274   5.067   5.418   1.227  3.8051 -0.1612 -1.6152
18287TIP3   OH276275   7.077   3.086   4.534 -0.8675 -0.3878  0.4491
18287TIP3    H176276   7.126   3.013   4.571 -0.8956  0.1488  1.6077
18287TIP3    H276277   6.988   3.053   4.525 -0.6260 -0.8772 -0.1910
18288TIP3   OH276278   1.048   1.012   1.809 -0.9646 -0.1619 -0.5878
18288TIP3    H176279   1.100   0.934   1.787  1.2463  1.5750 -1.9660
18288TIP3    H276280   1.006   1.036   1.726 -0.6895  0.7405 -0.4766
18289TIP3   OH276281   5.964   6.318   1.663  0.3845  0.6929  0.3403
18289TIP3    H176282   6.039   6.320   1.723  0.7811  2.5069 -0.1648
18289TIP3    H276283   5.890   6.289   1.718  1.1217  0.4209  1.2179
18290TIP3   OH276284   6.301   4.375  14.188 -0.1233 -0.0037  0.2189
18290TIP3    H176285   6.279   4.301  14.131 -0.9408 -1.4158  2.2328
18290TIP3    H276286   6.350   4.335  14.260  1.6220  1.8426  0.1270
18291TIP3   OH276287   6.233   3.845  13.186 -0.0827 -0.1513 -0.6342
18291TIP3    H176288   6.203   3.902  13.115 -1.4740  0.2455  0.2212
18291TIP3    H276289   6.270   3.904  13.251  0.5417 -0.4493 -0.7070
18292TIP3   OH276290   7.018   7.113   4.702  0.3320  0.2909 -0.2207
18292TIP3    H176291   7.088   7.096   4.765  1.4215 -2.2842 -1.9497
18292TIP3    H276292   7.050   7.184   4.647  1.6585 -0.8285 -0.9610
18293TIP3   OH276293   4.593   5.927   0.655 -0.9424  0.1307 -0.5568
18293TIP3    H176294   4.614   5.837   0.632 -1.1830  0.1845 -0.9995
18293TIP3    H276295   4.518   5.949   0.600 -0.1008  1.0159 -1.3883
18294TIP3   OH276296   2.120   2.560   4.979  0.1053 -0.2224 -0.3258
18294TIP3    H176297   2.135   2.651   5.006  0.5828 -0.8367  1.6410
18294TIP3    H276298   2.028   2.558   4.954 -0.1671  0.6143  0.5114
18295TIP3   OH276299   4.320   2.492  12.672 -0.4294 -0.6827 -0.3612
18295TIP3    H176300   4.243   2.437  12.682 -0.6622 -0.4269 -0.7513
18295TIP3    H276301   4.295   2.559  12.609 -0.1048 -0.2093 -0.0019
18296TIP3   OH276302   3.375   1.632   4.592 -0.5137  0.5109 -0.2010
18296TIP3    H176303   3.281   1.646   4.600 -0.5585 -0.1559  0.6660
18296TIP3    H276304   3.414   1.712   4.625 -0.7224  2.3128 -3.8486
18297TIP3   OH276305   1.660   2.620   3.932 -0.1995 -0.5906 -0.3814
18297TIP3    H176306   1.749   2.586   3.928  1.2552  2.3264  2.7297
18297TIP3    H276307   1.622   2.580   4.010 -1.1243 -0.6613 -0.8478
18298TIP3   OH276308   6.647   5.404   0.642  0.2676  0.0650  0.0744
18298TIP3    H176309   6.640   5.370   0.731  0.5669  1.1932  0.5445
18298TIP3    H276310   6.574   5.363   0.595 -0.3053 -0.0224  1.0101
18299TIP3   OH276311   2.621   3.785   3.976 -0.2888  0.5106 -0.0250
18299TIP3    H176312   2.638   3.878   3.958  1.1293 -0.1746 -2.8193
18299TIP3    H276313   2.609   3.781   4.071  0.9844  3.3560  0.3754
18300TIP3   OH276314   7.097   6.710  12.757 -0.7574 -0.4981  0.3918
18300TIP3    H176315   7.027   6.710  12.823 -0.7756 -0.5444  0.3723
18300TIP3    H276316   7.098   6.799  12.723 -0.2675 -0.2823  0.9624
18301TIP3   OH276317   1.840   4.682   4.939  0.0113 -0.0212  0.0914
18301TIP3    H176318   1.863   4.590   4.934  2.1748  0.4016  0.9300
18301TIP3    H276319   1.874   4.710   5.025  1.5524  2.0469 -1.0912
18302TIP3   OH276320   6.481   7.125   3.444  0.3808 -0.8876  0.3080
18302TIP3    H176321   6.544   7.179   3.395 -1.1548  0.2800 -0.4949
18302TIP3    H276322   6.498   7.145   3.536  1.5529 -1.0520  0.1425
18303TIP3   OH276323   1.006   3.406  14.122 -0.4085  0.3467 -0.4483
18303TIP3    H176324   0.917   3.433  14.100  0.3487  3.0450 -0.5411
18303TIP3    H276325   1.058   3.431  14.045  0.3886 -1.7452 -0.6565
18304TIP3   OH276326   5.457   1.834   2.877  0.2177  0.5548  0.6391
18304TIP3    H176327   5.467   1.921   2.917 -1.2600  0.9838  0.1418
18304TIP3    H276328   5.507   1.839   2.796  0.6537  0.7232  0.9126
18305TIP3   OH276329   5.401   5.709  13.336 -0.3521  0.1084 -0.3827
18305TIP3    H176330   5.437   5.654  13.266  0.7173 -1.2221  1.1268
18305TIP3    H276331   5.343   5.770  13.291 -0.5528 -1.3873 -2.3008
18306TIP3   OH276332   4.546   2.414   5.424 -0.1726 -0.0619 -0.4187
18306TIP3    H176333   4.620   2.378   5.375 -0.3714  0.5524 -1.1854
18306TIP3    H276334   4.486   2.340   5.434 -0.0316 -0.2502 -0.9141
18307TIP3   OH276335   3.281   5.637   1.400  0.4498  0.0676 -0.5927
18307TIP3    H176336   3.229   5.600   1.328  0.9949 -0.6649 -0.6197
18307TIP3    H276337   3.328   5.710   1.360  0.9820 -0.5241 -1.0649
18308TIP3   OH276338   5.231   4.553  14.614 -0.0612  0.0450  0.2407
18308TIP3    H176339   5.320   4.523  14.629  0.8133  2.4544  0.2775
18308TIP3    H276340   5.224   4.562  14.519 -0.7120 -1.2779  0.1372
18309TIP3   OH276341   6.428   2.890   5.131 -0.1928  0.3113 -0.4800
18309TIP3    H176342   6.478   2.809   5.139  0.8098  1.0630  1.6244
18309TIP3    H276343   6.341   2.868   5.163  0.0505  0.0498  0.0087
18310TIP3   OH276344   2.518   4.206   2.604 -0.1011  0.0749  0.0224
18310TIP3    H176345   2.491   4.294   2.630  0.1237 -0.1752  1.1976
18310TIP3    H276346   2.612   4.203   2.624 -0.0510 -0.3416 -0.2546
18311TIP3   OH276347   3.754   4.288   2.788 -0.2257 -0.4881 -0.0884
18311TIP3    H176348   3.714   4.333   2.714  0.5149 -2.3252 -1.6801
18311TIP3    H276349   3.827   4.238   2.750  1.8854  0.5824  2.2869
18312TIP3   OH276350   2.418   2.483  12.040  0.2061 -0.0230  0.2703
18312TIP3    H176351   2.423   2.417  11.971  1.7274  1.3034 -0.9603
18312TIP3    H276352   2.326   2.511  12.039 -0.1489 -1.1478 -0.1018
18313TIP3   OH276353   0.016   2.067   2.515  0.2016  0.1347  0.1868
18313TIP3    H176354   0.070   2.049   2.437  1.1199 -2.4322  1.3011
18313TIP3    H276355   0.063   2.136   2.561 -0.1178  1.3754 -1.2386
18314TIP3   OH276356   6.308   4.285   2.993 -0.2544 -0.7150 -0.2468
18314TIP3    H176357   6.352   4.363   3.028  0.1838 -1.0628 -0.0171
18314TIP3    H276358   6.294   4.229   3.069  2.7875 -2.5262 -0.8384
18315TIP3   OH276359   2.146   4.404   3.362 -0.6564 -0.1127  0.0410
18315TIP3    H176360   2.219   4.400   3.301  0.3862  2.1963  0.9677
18315TIP3    H276361   2.186   4.438   3.443 -2.5287 -0.1077  1.0034
18316TIP3   OH276362   0.090   3.246   2.249 -0.0768  0.2821 -0.3986
18316TIP3    H176363   0.017   3.263   2.189 -2.1073  2.3311  2.3764
18316TIP3    H276364   0.070   3.160   2.286  0.3879 -0.3255 -1.5145
18317TIP3   OH276365   4.523   5.611   4.472  0.0912  0.4496 -0.6999
18317TIP3    H176366   4.491   5.700   4.484 -1.1551 -0.0238 -0.4028
18317TIP3    H276367   4.445   5.559   4.454  0.7437 -0.6604 -0.4426
18318TIP3   OH276368   4.045   5.036  13.458  0.2620 -0.1073 -0.8139
18318TIP3    H176369   4.005   5.027  13.372 -3.1228  1.4191  0.4398
18318TIP3    H276370   3.986   4.991  13.518  0.8097  1.4993  1.0704
18319TIP3   OH276371   4.925   3.298   1.452 -0.4935 -0.1686 -0.1701
18319TIP3    H176372   4.851   3.239   1.465 -0.3151 -0.3734 -0.0766
18319TIP3    H276373   5.001   3.240   1.444 -0.1216  0.0927  1.2377
18320TIP3   OH276374   0.400   4.420   4.212  0.9254 -0.0789 -0.2974
18320TIP3    H176375   0.380   4.482   4.142  0.4097 -0.2221 -0.2807
18320TIP3    H276376   0.319   4.413   4.262  1.4168  0.3452  0.5751
18321TIP3   OH276377   2.364   5.656   5.685 -0.0681 -0.0574 -0.2729
18321TIP3    H176378   2.432   5.724   5.682 -1.7398  1.7002 -0.6093
18321TIP3    H276379   2.294   5.696   5.736 -1.2027 -1.4815 -0.6687
18322TIP3   OH276380   0.390   3.548   5.847 -0.4710 -0.6708 -0.8348
18322TIP3    H176381   0.365   3.464   5.808 -0.5580 -1.0028 -0.0801
18322TIP3    H276382   0.478   3.534   5.881 -1.1611 -1.0361  0.9008
18323TIP3   OH276383   4.262   5.763   4.223 -0.4976  0.1831  0.0991
18323TIP3    H176384   4.350   5.792   4.200 -1.0994  0.0655 -2.6845
18323TIP3    H276385   4.213   5.844   4.235 -0.2733  0.2588  0.5074
18324TIP3   OH276386   6.949   5.153  13.316  0.0726  0.1393 -0.1694
18324TIP3    H176387   6.915   5.134  13.403 -0.2887  0.9624 -0.1270
18324TIP3    H276388   6.886   5.112  13.256 -0.7124  1.1668 -0.0761
18325TIP3   OH276389   2.325   6.851   4.392 -0.7846  0.3582 -0.8266
18325TIP3    H176390   2.363   6.778   4.343 -1.0267 -2.1780  2.3840
18325TIP3    H276391   2.397   6.914   4.399  0.9140 -1.5355 -0.1542
18326TIP3   OH276392   3.857   4.787   1.378 -0.2661  0.0696  0.4103
18326TIP3    H176393   3.877   4.700   1.412 -0.0658 -0.1140 -0.1708
18326TIP3    H276394   3.937   4.838   1.395 -0.2370  0.0315  0.3866
18327TIP3   OH276395   2.098   3.537   4.024  0.2315  0.3027  0.1758
18327TIP3    H176396   2.141   3.570   3.945  0.2013 -0.6924 -0.2579
18327TIP3    H276397   2.041   3.467   3.994  0.3224 -0.1839  1.0958
18328TIP3   OH276398   2.106   0.504   3.731 -0.0618 -0.4009 -0.3201
18328TIP3    H176399   2.077   0.458   3.809  0.4742 -0.0061  0.1203
18328TIP3    H276400   2.117   0.595   3.759 -2.3197  0.3109 -1.4575
18329TIP3   OH276401   6.450   6.689   4.909 -0.3401  0.2581 -0.3936
18329TIP3    H176402   6.456   6.723   4.820  0.1830  0.2534 -0.3672
18329TIP3    H276403   6.445   6.766   4.964  0.8982  0.3248 -0.3302
18330TIP3   OH276404   0.576   1.692   3.339 -0.2342  0.6059 -0.2554
18330TIP3    H176405   0.654   1.683   3.394 -0.1409 -0.5050 -0.5436
18330TIP3    H276406   0.607   1.736   3.260  0.4831 -1.3340 -1.0903
18331TIP3   OH276407   4.175   6.851   4.193 -0.2154 -0.1585 -0.4561
18331TIP3    H176408   4.179   6.759   4.166  0.2501 -0.4817  0.6659
18331TIP3    H276409   4.105   6.854   4.258  1.3362 -0.2132  1.2780
18332TIP3   OH276410   2.346   4.853  10.422  0.0061 -0.9396  0.8862
18332TIP3    H176411   2.295   4.801  10.359 -1.3005  0.0007  1.1256
18332TIP3    H276412   2.428   4.804  10.432  0.7397 -0.6441 -2.3107
18333TIP3   OH276413   2.462   5.685   1.216 -0.2663  0.5506  0.1910
18333TIP3    H176414   2.529   5.699   1.150  0.9225  2.2192  1.6617
18333TIP3    H276415   2.476   5.595   1.246 -1.4444 -0.6062 -2.3813
18334TIP3   OH276416   3.092   6.697   0.937  0.6656 -0.5812 -0.4820
18334TIP3    H176417   3.117   6.780   0.978  1.8925 -0.5087 -1.3042
18334TIP3    H276418   3.069   6.640   1.010  1.5981 -0.0799  0.2351
18335TIP3   OH276419   1.005   4.103   6.285  0.1899 -0.1361  0.4791
18335TIP3    H176420   1.062   4.172   6.252  2.1196 -0.7678  2.2684
18335TIP3    H276421   1.004   4.037   6.215  0.1961  0.6625 -0.2889
18336TIP3   OH276422   4.863   4.530   5.593  0.3906 -0.8256 -0.0985
18336TIP3    H176423   4.769   4.514   5.589 -0.0165  1.5008 -2.5160
18336TIP3    H276424   4.903   4.448   5.566 -0.9274 -1.6754  0.4590
18337TIP3   OH276425   4.139   6.090   5.552 -0.7938 -0.1457  0.3880
18337TIP3    H176426   4.089   6.142   5.614  0.0065  1.8702 -0.5644
18337TIP3    H276427   4.097   6.107   5.467  0.7152  0.6556 -0.2487
18338TIP3   OH276428   1.247   0.551   2.959  0.2100  0.6202 -0.1693
18338TIP3    H176429   1.229   0.606   3.036 -0.3838  0.0269  0.1199
18338TIP3    H276430   1.208   0.599   2.886 -1.1700  0.1311  0.2203
18339TIP3   OH276431   4.207   2.872   2.115 -0.2701  0.0295  0.0686
18339TIP3    H176432   4.227   2.793   2.165  0.1923  0.0316 -0.1111
18339TIP3    H276433   4.118   2.856   2.081 -0.9345  0.3755  1.5458
18340TIP3   OH276434   1.748   2.778   2.228 -0.1053 -0.4842  0.0959
18340TIP3    H176435   1.790   2.809   2.308 -0.5233 -0.9109  0.4859
18340TIP3    H276436   1.669   2.830   2.219 -0.5062 -1.0227  0.4352
18341TIP3   OH276437   0.923   2.237   3.287 -0.2312  0.3751  0.3806
18341TIP3    H176438   0.981   2.312   3.297  1.5337 -0.9292  0.4810
18341TIP3    H276439   0.836   2.275   3.271  0.9458  2.4133 -1.6489
18342TIP3   OH276440   2.007   6.685   2.232 -0.3133 -0.5252  0.0214
18342TIP3    H176441   1.983   6.663   2.142 -0.2209 -1.6048  0.2547
18342TIP3    H276442   1.928   6.667   2.283 -1.8816  4.0033 -0.3186
18343TIP3   OH276443   2.863   6.465  15.295 -0.3205  0.2262  0.6401
18343TIP3    H176444   2.896   6.498  15.211  0.9348 -1.4493  0.4158
18343TIP3    H276445   2.833   6.543  15.341  0.2963  1.3647 -0.7923
18344TIP3   OH276446   1.082   0.427   0.268 -0.2604 -0.1657 -0.2955
18344TIP3    H176447   1.095   0.338   0.235  0.7603 -0.0020 -0.3663
18344TIP3    H276448   1.130   0.430   0.351  2.8997  1.3321 -1.9883
18345TIP3   OH276449   0.712   5.721   4.475  0.1005  0.3803  0.3541
18345TIP3    H176450   0.626   5.732   4.435  1.0257  1.8135 -1.3775
18345TIP3    H276451   0.698   5.657   4.545 -1.8977 -1.2023 -1.3589
18346TIP3   OH276452   6.828   3.699   2.466 -0.4034  0.0464 -0.0290
18346TIP3    H176453   6.893   3.741   2.409 -0.6335  2.3484  1.2660
18346TIP3    H276454   6.881   3.647   2.527 -0.0083 -0.5298 -0.8402
18347TIP3   OH276455   3.410   7.036   4.909  0.2288  0.1038 -0.4573
18347TIP3    H176456   3.392   7.046   4.815  1.5599  0.6261 -0.6798
18347TIP3    H276457   3.505   7.026   4.914 -0.0045 -2.3648  0.6496
18348TIP3   OH276458   2.612   6.720   3.153  0.4997  0.2089  0.0583
18348TIP3    H176459   2.698   6.751   3.182  0.4698  0.5290 -0.1975
18348TIP3    H276460   2.631   6.644   3.099  0.5751 -0.2082  0.6548
18349TIP3   OH276461   4.687   5.169   1.407 -0.2186 -0.0332 -0.6144
18349TIP3    H176462   4.624   5.210   1.347 -2.2259 -0.2898  1.2001
18349TIP3    H276463   4.751   5.238   1.426 -0.7880  0.7171 -1.3403
18350TIP3   OH276464   5.473   6.269   2.907 -0.1788 -0.1995  0.0925
18350TIP3    H176465   5.441   6.315   2.984  1.4508  0.9417  0.1280
18350TIP3    H276466   5.518   6.192   2.943 -1.0398 -0.7047  0.1406
18351TIP3   OH276467   3.774   0.848   1.123  0.0656 -0.1235  0.5643
18351TIP3    H176468   3.773   0.927   1.070  1.8144 -0.8210 -0.6194
18351TIP3    H276469   3.685   0.813   1.118 -0.4676  1.2355  0.3150
18352TIP3   OH276470   4.660   6.558   2.448  0.1078 -0.0567  0.5377
18352TIP3    H176471   4.676   6.467   2.473  2.7604  0.4667  1.0576
18352TIP3    H276472   4.748   6.595   2.438 -0.8984  1.9167 -1.7146
18353TIP3   OH276473   2.941   2.090   5.349 -0.0590  0.0801  0.2757
18353TIP3    H176474   2.872   2.061   5.408 -1.6037 -0.6727 -1.7934
18353TIP3    H276475   2.901   2.089   5.263  2.1820  0.8865 -0.8520
18354TIP3   OH276476   4.793   0.830   0.486 -0.3617 -0.1691 -0.7660
18354TIP3    H176477   4.842   0.805   0.407 -1.7481 -1.1785 -1.3404
18354TIP3    H276478   4.764   0.748   0.524  0.5379  0.2830  1.0285
18355TIP3   OH276479   0.720   3.741   1.715  0.2216  0.2040  0.1489
18355TIP3    H176480   0.698   3.696   1.796 -0.4279 -1.6194 -0.9726
18355TIP3    H276481   0.771   3.678   1.665 -2.5483 -0.2740 -2.4171
18356TIP3   OH276482   1.399   2.779   5.275 -0.2709 -0.4790 -0.4581
18356TIP3    H176483   1.493   2.792   5.285 -0.1114 -1.0779 -1.1093
18356TIP3    H276484   1.360   2.842   5.336  0.5661 -2.3078  2.1422
18357TIP3   OH276485   6.628   4.602   5.213 -0.1120 -0.1349 -0.1908
18357TIP3    H176486   6.709   4.646   5.238  1.0090 -0.3614 -3.0766
18357TIP3    H276487   6.645   4.509   5.230  0.1378 -0.1489 -0.5075
18358TIP3   OH276488   4.004   0.082   1.948 -0.2077 -0.1080 -0.2336
18358TIP3    H176489   3.973   0.028   1.876  1.0021  0.2108 -1.0222
18358TIP3    H276490   3.995   0.027   2.025 -3.2381  0.1460 -0.2574
18359TIP3   OH276491   0.065   3.503   4.325  0.3417  0.0990  0.5009
18359TIP3    H176492   0.087   3.489   4.417  1.0468  2.4382  0.7494
18359TIP3    H276493   0.083   3.419   4.283 -0.9966 -1.3685  2.6297
18360TIP3   OH276494   2.803   5.416   4.598  0.3014  0.3028 -0.3928
18360TIP3    H176495   2.890   5.409   4.639  0.0586 -1.6076 -0.0833
18360TIP3    H276496   2.742   5.397   4.669 -0.3706  1.2788 -0.6920
18361TIP3   OH276497   5.892   4.711   1.449  0.2743 -0.2118  0.1344
18361TIP3    H176498   5.921   4.749   1.532  1.1761 -1.6540  0.5264
18361TIP3    H276499   5.973   4.686   1.404 -0.1341  1.6623 -1.7960
18362TIP3   OH276500   3.218   3.195   3.680 -0.2085  0.1705 -0.4961
18362TIP3    H176501   3.132   3.174   3.644  0.2435  0.0259 -1.5222
18362TIP3    H276502   3.211   3.286   3.709 -0.9836 -0.1312  0.3229
18363TIP3   OH276503   6.401   4.558   3.781  0.6081  0.0004  0.4804
18363TIP3    H176504   6.327   4.614   3.757  1.0827  0.9233  1.0778
18363TIP3    H276505   6.440   4.533   3.698 -1.3225 -1.8744  0.0642
18364TIP3   OH276506   5.356   0.058   4.804  0.4197 -0.5081 -0.3520
18364TIP3    H176507   5.310   0.017   4.730 -1.0463 -0.1309  0.3027
18364TIP3    H276508   5.357  -0.011   4.871  0.8150 -0.5064 -0.3542
18365TIP3   OH276509   1.168   0.830   4.100 -0.3418  0.0365 -0.4576
18365TIP3    H176510   1.178   0.921   4.130 -0.1271 -0.0724 -0.1970
18365TIP3    H276511   1.109   0.791   4.165 -1.7814  0.4289 -1.4768
18366TIP3   OH276512   5.574   1.293   2.848  0.0457 -0.1253 -0.5550
18366TIP3    H176513   5.666   1.280   2.823  0.1432 -0.7774  0.0792
18366TIP3    H276514   5.571   1.265   2.940 -0.7360  0.1296 -0.5003
18367TIP3   OH276515   7.037   6.232   5.762  0.2851 -0.0374 -0.7670
18367TIP3    H176516   7.057   6.324   5.744  0.3832  0.5561  1.8847
18367TIP3    H276517   7.111   6.201   5.813 -0.0327 -1.4353 -1.1090
18368TIP3   OH276518   0.143   0.131  10.677  0.3313  0.3468  0.0154
18368TIP3    H176519   0.115   0.189  10.606 -0.9467 -0.5715 -0.2861
18368TIP3    H276520   0.084   0.153  10.749  0.8879  0.5038  0.4241
18369TIP3   OH276521   1.143   3.789   3.319 -0.6753 -0.1847 -0.2010
18369TIP3    H176522   1.105   3.708   3.352 -1.1448 -0.9071 -2.3349
18369TIP3    H276523   1.232   3.791   3.355 -0.9632 -1.1730  0.6007
18370TIP3   OH276524   2.787   5.978   5.039 -0.3448 -0.1313  0.4295
18370TIP3    H176525   2.788   5.985   5.135  0.8085 -0.0206  0.4190
18370TIP3    H276526   2.697   5.951   5.018 -1.4949  2.6293  1.3413
18371TIP3   OH276527   1.070   4.692   5.398 -0.3337  0.6315  0.1325
18371TIP3    H176528   1.022   4.694   5.481  1.6124  0.9454  1.3079
18371TIP3    H276529   1.162   4.695   5.423  0.3490 -0.3267 -2.0195
18372TIP3   OH276530   3.149   0.643   3.508  0.7685  0.6225  0.8687
18372TIP3    H176531   3.075   0.589   3.479  0.5599  2.1283 -1.6608
18372TIP3    H276532   3.221   0.581   3.519  0.9762 -0.1797 -3.4120
18373TIP3   OH276533   0.927   4.747  14.137  0.1144  0.0624  0.3804
18373TIP3    H176534   0.939   4.705  14.222 -1.5787 -2.0665 -0.3548
18373TIP3    H276535   0.991   4.705  14.080 -1.6470 -1.7103 -0.3808
18374TIP3   OH276536   4.445   2.095   2.386  0.2785  0.8535  0.0822
18374TIP3    H176537   4.380   2.152   2.346  0.5429  1.1446  0.0589
18374TIP3    H276538   4.525   2.111   2.336 -0.3023 -1.7375 -1.8829
18375TIP3   OH276539   4.283   3.717   5.036 -0.2899 -0.3058 -0.1639
18375TIP3    H176540   4.188   3.726   5.026 -0.4619 -0.7963  0.8090
18375TIP3    H276541   4.315   3.807   5.048 -0.8968 -0.2557  1.3589
18376TIP3   OH276542   1.843   0.191   3.687 -0.0253 -0.4277 -0.8123
18376TIP3    H176543   1.829   0.216   3.778  0.6991 -1.3766 -0.4099
18376TIP3    H276544   1.814   0.100   3.682 -0.7000 -0.1806 -1.7118
18377TIP3   OH276545   1.750   2.204   5.770 -0.6818 -0.2250 -0.1998
18377TIP3    H176546   1.767   2.267   5.840 -1.4331 -0.5775  0.3015
18377TIP3    H276547   1.830   2.205   5.717 -0.7354  1.2595 -0.2896
18378TIP3   OH276548   1.522   4.799   0.811  0.7290 -0.0620  0.0221
18378TIP3    H176549   1.487   4.710   0.818 -0.7841  0.4432 -0.9149
18378TIP3    H276550   1.617   4.786   0.807  0.6241 -1.5399  1.2126
18379TIP3   OH276551   2.422   3.213   5.239  0.1666 -0.3475 -0.0176
18379TIP3    H176552   2.449   3.173   5.157  0.6381  2.1192 -1.1487
18379TIP3    H276553   2.493   3.195   5.300  1.1683  0.2029 -0.9985
18380TIP3   OH276554   7.089   3.961   4.814  0.0372  0.2869  0.3585
18380TIP3    H176555   7.115   3.872   4.791 -0.1621  0.1140  0.7912
18380TIP3    H276556   7.168   4.000   4.851  0.1787  0.3570 -0.0066
18381TIP3   OH276557   3.462   6.405   5.139  0.5016  0.3420 -0.5270
18381TIP3    H176558   3.456   6.315   5.171  2.9753  0.0028 -0.7810
18381TIP3    H276559   3.386   6.449   5.176  1.1159 -0.9806  2.6254
18382TIP3   OH276560   6.165   0.741   3.404  0.2420 -0.1295  0.2973
18382TIP3    H176561   6.103   0.668   3.402 -0.7654  0.7231 -0.7385
18382TIP3    H276562   6.219   0.729   3.326  0.6068 -0.1968  0.5547
18383TIP3   OH276563   6.512   7.116   3.856 -0.2202 -0.3191  0.2261
18383TIP3    H176564   6.539   7.160   3.937 -1.2610  0.2971  0.2530
18383TIP3    H276565   6.587   7.128   3.797 -1.2011  3.6221 -0.5712
18384TIP3   OH276566   1.952   5.311   5.536  0.0414  0.5567  0.4897
18384TIP3    H176567   1.880   5.367   5.507 -0.0668 -1.5397 -4.3708
18384TIP3    H276568   1.910   5.244   5.589 -0.3847  2.7630  3.1757
18385TIP3   OH276569   6.857   1.324   4.556 -0.2183 -0.0791  0.2217
18385TIP3    H176570   6.767   1.314   4.586 -0.1430  0.0601  0.5036
18385TIP3    H276571   6.903   1.360   4.632 -0.4550  2.3243 -0.6739
18386TIP3   OH276572   3.707   7.063   1.972  0.0566  0.2767 -0.2046
18386TIP3    H176573   3.744   6.975   1.978 -2.3400 -0.7347  1.1758
18386TIP3    H276574   3.626   7.051   1.922 -0.5807  1.5818  0.4771
18387TIP3   OH276575   0.899   5.253   5.223  0.3822  0.1873  0.9503
18387TIP3    H176576   0.928   5.339   5.256 -1.3374  0.8547  0.8089
18387TIP3    H276577   0.916   5.256   5.129 -2.0992  1.4711  0.4723
18388TIP3   OH276578   0.746   0.640   3.760  0.1798  0.3214 -0.1287
18388TIP3    H176579   0.836   0.656   3.787 -0.1830  1.6863  0.3135
18388TIP3    H276580   0.752   0.630   3.665  0.8273  0.0762 -0.0723
18389TIP3   OH276581   6.550   3.869   3.441  0.0521 -0.3455 -0.0782
18389TIP3    H176582   6.586   3.849   3.528 -1.1940 -0.1404  0.5011
18389TIP3    H276583   6.614   3.928   3.402  0.0572  0.5281  1.1834
18390TIP3   OH276584   0.214   2.681   3.820 -0.4956 -0.3929  0.0276
18390TIP3    H176585   0.161   2.630   3.759 -0.8832  2.6622 -2.4838
18390TIP3    H276586   0.304   2.657   3.800 -0.4134  2.0832 -3.6841
18391TIP3   OH276587   2.951   6.485   3.948 -0.4232 -0.2312 -0.0395
18391TIP3    H176588   2.932   6.439   4.030 -1.9730 -0.0809 -0.2939
18391TIP3    H276589   3.046   6.483   3.942 -0.2921 -0.5390  1.5942
18392TIP3   OH276590   4.749   6.866   4.212  0.2143 -0.6988  0.4857
18392TIP3    H176591   4.756   6.958   4.238 -0.4078 -0.4060 -0.3428
18392TIP3    H276592   4.747   6.868   4.116 -1.4253 -1.4381  0.4675
18393TIP3   OH276593   6.742   1.926   5.829 -0.0926 -0.6456  0.6738
18393TIP3    H176594   6.810   1.861   5.850 -0.9644 -1.8480 -0.0529
18393TIP3    H276595   6.662   1.889   5.866 -0.5147  0.3092  0.7307
18394TIP3   OH276596   2.677   2.083   2.511 -0.2868 -0.2607  0.0512
18394TIP3    H176597   2.731   2.120   2.441  0.4751  0.7531  1.1287
18394TIP3    H276598   2.587   2.100   2.484 -0.0093 -0.1786 -0.8371
18395TIP3   OH276599   0.490   1.062   5.018 -0.4696  0.5754  0.1864
18395TIP3    H176600   0.397   1.045   5.035 -0.2618 -0.5035  0.3575
18395TIP3    H276601   0.534   1.034   5.098  0.1703 -0.8552 -0.6321
18396TIP3   OH276602   7.172   1.520   4.292  0.4115  0.4902 -0.7668
18396TIP3    H176603   7.159   1.454   4.360  0.2964  0.1703 -1.0945
18396TIP3    H276604   7.261   1.506   4.261  0.9126  1.4654  0.1888
18397TIP3   OH276605   0.898   2.779   3.655  0.3700 -0.1576  0.0933
18397TIP3    H176606   0.893   2.692   3.696  1.3075 -0.5711 -0.6570
18397TIP3    H276607   0.987   2.785   3.621  0.5170  1.3498  0.6647
18398TIP3   OH276608   1.101   1.044   0.277  0.3937 -0.3282 -0.2033
18398TIP3    H176609   1.026   1.084   0.233  1.1536  1.2334 -0.1708
18398TIP3    H276610   1.063   0.994   0.349 -0.6573 -0.2410 -0.6793
18399TIP3   OH276611   5.080   3.632   3.838 -0.0670  0.4831 -0.0432
18399TIP3    H176612   5.079   3.593   3.751 -0.6413  1.5401 -0.5188
18399TIP3    H276613   5.157   3.689   3.839  0.3472 -0.0728  0.3946
18400TIP3   OH276614   1.578   3.675   4.021  0.7417 -0.2551  0.2652
18400TIP3    H176615   1.622   3.618   3.958  1.6577 -0.0498  0.7063
18400TIP3    H276616   1.630   3.755   4.022 -1.9965  1.8189 -2.3929
18401TIP3   OH276617   0.771   7.057   1.241  0.1179  0.1732  0.1388
18401TIP3    H176618   0.814   6.975   1.218  1.2629  0.4691  1.1143
18401TIP3    H276619   0.696   7.063   1.182  0.3704 -1.2668 -0.3545
18402TIP3   OH276620   4.579   2.956  13.836 -0.0396 -0.2484 -0.5933
18402TIP3    H176621   4.612   3.045  13.848  0.6967 -0.5310 -0.5084
18402TIP3    H276622   4.510   2.947  13.902  0.2952  0.0529 -0.1973
18403TIP3   OH276623   1.007   1.595   1.043 -0.1044  0.2560 -0.5249
18403TIP3    H176624   1.082   1.561   1.091 -0.4684 -0.0094 -0.1432
18403TIP3    H276625   1.041   1.613   0.955  0.6340  1.0050 -0.1015
18404TIP3   OH276626   3.559   1.978   1.482  0.0969  0.2769  0.3164
18404TIP3    H176627   3.610   1.994   1.403  1.1007  0.9044  1.0648
18404TIP3    H276628   3.600   1.900   1.521 -1.2819 -0.8898 -0.4762
18405TIP3   OH276629   3.893   6.587   3.589  0.6678  0.0670  0.1952
18405TIP3    H176630   3.850   6.513   3.545  1.8158  2.1392 -5.1194
18405TIP3    H276631   3.832   6.611   3.659 -2.1810 -2.7903 -1.0367
18406TIP3   OH276632   4.768   2.153   2.788  0.1122 -0.7625  0.5588
18406TIP3    H176633   4.711   2.228   2.804  0.6007 -0.8253  3.0268
18406TIP3    H276634   4.852   2.179   2.827  2.1789 -0.3476 -3.5930
18407TIP3   OH276635   4.951   1.285   2.690  0.4510  0.1694 -0.3776
18407TIP3    H176636   4.988   1.373   2.681 -1.3269  1.0891  0.6277
18407TIP3    H276637   4.865   1.291   2.648 -0.0894 -0.8216  0.5402
18408TIP3   OH276638   0.676   0.355   3.100  0.3138 -0.0705 -0.2937
18408TIP3    H176639   0.766   0.378   3.121  0.5743 -1.5773  0.4166
18408TIP3    H276640   0.625   0.382   3.177  0.3320 -0.1358 -0.2579
18409TIP3   OH276641   2.199   2.770   5.163 -0.1619 -0.2216  0.9268
18409TIP3    H176642   2.236   2.774   5.251 -0.4379 -0.8404  1.0756
18409TIP3    H276643   2.270   2.798   5.106 -0.8580  3.2783  1.5441
18410TIP3   OH276644   7.101   3.050  15.191 -0.1274 -0.2037  0.4811
18410TIP3    H176645   7.145   2.974  15.229 -0.3337  0.2239  1.6262
18410TIP3    H276646   7.056   3.091  15.265 -3.0087 -0.9748 -0.6944
18411TIP3   OH276647   1.684   4.553   3.837  0.3472 -0.1333 -0.2012
18411TIP3    H176648   1.644   4.466   3.838  0.5918 -0.2571 -0.6285
18411TIP3    H276649   1.691   4.574   3.744  0.0659  0.4488 -0.0902
18412TIP3   OH276650   4.080   0.317   4.844 -0.0440 -0.0855  0.5545
18412TIP3    H176651   4.156   0.327   4.901  0.7077  0.4117 -0.5135
18412TIP3    H276652   4.008   0.357   4.893  0.6059  0.4486  1.0924
18413TIP3   OH276653   4.198   6.570   4.090  0.2180 -0.2407  0.3738
18413TIP3    H176654   4.155   6.492   4.125  0.5823 -0.9221 -0.6446
18413TIP3    H276655   4.163   6.577   4.001  1.8017 -0.5051 -0.2948
18414TIP3   OH276656   1.725   7.038   4.331  0.1985  0.3774  0.0387
18414TIP3    H176657   1.760   7.080   4.409 -1.8951  1.5377  0.4326
18414TIP3    H276658   1.758   6.948   4.335  1.5087  0.8924  1.3271
18415TIP3   OH276659   3.601   5.113   5.237 -0.0031  0.0955  0.0535
18415TIP3    H176660   3.653   5.179   5.191  2.3842 -2.1215 -0.6727
18415TIP3    H276661   3.541   5.164   5.292  1.9545  2.8697 -0.1410
18416TIP3   OH276662   5.725   6.942  14.121 -0.8010  0.4029 -0.7268
18416TIP3    H176663   5.730   7.037  14.109  3.8648  0.2932 -1.3768
18416TIP3    H276664   5.757   6.928  14.211 -1.5979 -0.5868 -0.5793
18417TIP3   OH276665   2.115   0.509  15.093 -0.0493  0.0505 -0.6131
18417TIP3    H176666   2.099   0.584  15.150  0.3876  1.4541 -2.2488
18417TIP3    H276667   2.206   0.485  15.111  0.2799  0.8754 -1.1294
18418TIP3   OH276668   5.510   1.165   1.771  0.2934  0.2446 -0.0287
18418TIP3    H176669   5.572   1.109   1.724 -1.8660 -1.3098 -1.1723
18418TIP3    H276670   5.445   1.190   1.705 -0.7284  1.2069  1.2775
18419TIP3   OH276671   0.402   4.594   5.955 -0.2925 -0.0734 -0.3141
18419TIP3    H176672   0.471   4.556   6.009 -0.1595  0.3602 -0.1779
18419TIP3    H276673   0.412   4.552   5.869 -1.2379 -1.6577  0.2969
18420TIP3   OH276674   2.957   0.984   5.931 -0.1876  0.4973 -0.0134
18420TIP3    H176675   2.916   1.006   5.848  0.7640  3.1244  0.1236
18420TIP3    H276676   2.887   0.995   5.996 -0.2840  0.9366 -0.1929
18421TIP3   OH276677   5.014   6.014   2.875  0.3354  0.0414  0.1883
18421TIP3    H176678   5.059   6.070   2.813  0.7325 -0.4084  0.0645
18421TIP3    H276679   4.962   5.955   2.821 -0.6896  0.7879  0.3392
18422TIP3   OH276680   0.175   4.985   5.721 -0.2989 -0.1632 -0.3036
18422TIP3    H176681   0.092   5.033   5.724  1.6491  3.5387  0.7767
18422TIP3    H276682   0.150   4.893   5.730 -4.2593  0.7046 -0.5292
18423TIP3   OH276683   5.393   0.090   3.330 -0.1507 -0.1246  0.0201
18423TIP3    H176684   5.355   0.003   3.347 -0.1025 -0.2078 -0.2836
18423TIP3    H276685   5.399   0.131   3.416  1.7278 -1.1893  0.4534
18424TIP3   OH276686   4.724   0.325  12.683  0.2090 -0.0903 -0.1372
18424TIP3    H176687   4.646   0.372  12.655  1.4615  0.8357 -2.2964
18424TIP3    H276688   4.692   0.258  12.744 -2.2485  0.1841 -1.0425
18425TIP3   OH276689   1.475   5.893  14.670 -0.5862  0.1005 -0.1155
18425TIP3    H176690   1.570   5.904  14.678 -0.7953  0.9040  1.6676
18425TIP3    H276691   1.463   5.859  14.582  1.3385  0.2545 -0.4904
18426TIP3   OH276692   1.152   1.293   0.415 -0.3104  0.2164 -0.2594
18426TIP3    H176693   1.142   1.216   0.359 -1.0431  0.9813 -1.2283
18426TIP3    H276694   1.181   1.258   0.499 -3.9404 -1.5403  0.4694
18427TIP3   OH276695   0.032   1.538   2.464  0.6188 -0.0944  0.0564
18427TIP3    H176696   0.048   1.608   2.527  1.6622  0.8821 -1.2601
18427TIP3    H276697  -0.024   1.476   2.512  1.0464  0.7990  1.7963
18428TIP3   OH276698   3.741   2.470   0.371  0.2901  0.2384  0.0174
18428TIP3    H176699   3.829   2.508   0.359  0.0396  0.8748  0.1368
18428TIP3    H276700   3.721   2.428   0.288  2.0507 -2.8247  0.9764
18429TIP3   OH276701   5.615   6.482   2.609 -0.1228  0.1644  0.2448
18429TIP3    H176702   5.603   6.504   2.516 -1.9351 -1.6778 -0.0175
18429TIP3    H276703   5.531   6.447   2.637  0.6197 -0.0353  2.4138
18430TIP3   OH276704   3.303   4.822   0.770  0.3862  0.7183  0.0608
18430TIP3    H176705   3.337   4.784   0.689 -1.3080 -1.0038  0.0842
18430TIP3    H276706   3.285   4.913   0.748 -0.9350  0.0564 -1.8343
18431TIP3   OH276707   1.907   5.017   4.686 -0.4191  0.0840 -0.0388
18431TIP3    H176708   1.879   5.066   4.609  0.2809  0.4672 -0.0528
18431TIP3    H276709   1.975   4.958   4.653  1.0071  1.3313  0.5399
18432TIP3   OH276710   4.062   0.991   3.322 -0.1283 -0.8403 -0.3172
18432TIP3    H176711   3.990   0.927   3.323 -1.0191  0.1404 -0.2979
18432TIP3    H276712   4.065   1.022   3.232  0.8288 -1.4710 -0.5153
18433TIP3   OH276713   6.549   1.441  13.668  0.2122 -0.0201  0.6228
18433TIP3    H176714   6.630   1.437  13.618  0.4605  0.8191  0.9386
18433TIP3    H276715   6.575   1.427  13.759  0.1662  1.2720  0.8576
18434TIP3   OH276716   3.259   5.019   3.294  0.1325 -0.1661 -0.3411
18434TIP3    H176717   3.226   5.108   3.283 -1.1712 -0.5613  0.1954
18434TIP3    H276718   3.253   4.980   3.207 -0.8632 -0.2355 -0.2502
18435TIP3   OH276719   3.179   1.684   4.889 -0.2405 -0.0307  0.4344
18435TIP3    H176720   3.190   1.681   4.984  0.5469  0.1033  0.3501
18435TIP3    H276721   3.214   1.768   4.863  0.5187 -0.4986 -0.0946
18436TIP3   OH276722   4.289   5.377   1.421 -0.4683  0.3599 -0.4441
18436TIP3    H176723   4.321   5.305   1.368  0.5184 -0.9962  1.8195
18436TIP3    H276724   4.355   5.445   1.413 -0.9523  0.7016 -1.8674
18437TIP3   OH276725   6.640   3.991   4.882 -0.2054 -0.0593 -0.3766
18437TIP3    H176726   6.670   3.962   4.796  1.3348 -1.9597  0.7158
18437TIP3    H276727   6.717   3.981   4.938 -1.0859  1.4350  1.1655
18438TIP3   OH276728   4.325   3.265   4.122  0.1337 -0.1659 -0.4534
18438TIP3    H176729   4.260   3.245   4.190  1.3408 -0.3344  0.6978
18438TIP3    H276730   4.319   3.360   4.110  0.5606  0.0153  0.6193
18439TIP3   OH276731   7.172   1.526   5.157 -0.0772  0.0424 -0.5116
18439TIP3    H176732   7.104   1.460   5.167 -1.4287  1.1517 -1.8034
18439TIP3    H276733   7.233   1.509   5.228 -0.8128 -2.0434 -0.3076
18440TIP3   OH276734   3.841   0.830   3.324  0.1109  0.6686  0.2071
18440TIP3    H176735   3.796   0.748   3.344  0.1089  0.4587 -0.6192
18440TIP3    H276736   3.770   0.894   3.317  0.1652  0.9030  1.5452
18441TIP3   OH276737   2.213   1.397   2.190 -0.4384  0.5573  0.1213
18441TIP3    H176738   2.137   1.366   2.239 -0.0991 -0.2297  0.1569
18441TIP3    H276739   2.287   1.350   2.228  0.0391  1.1405 -0.0732
18442TIP3   OH276740   0.299   6.975   3.529 -0.2171 -0.0969 -0.9603
18442TIP3    H176741   0.320   6.908   3.594 -1.1872 -0.0999 -0.6310
18442TIP3    H276742   0.353   7.050   3.554 -1.1112  0.1641  0.3428
18443TIP3   OH276743   2.224   0.264   0.611  0.5031  0.7287  0.7717
18443TIP3    H176744   2.130   0.243   0.612  0.2729  1.0808 -2.6091
18443TIP3    H276745   2.267   0.180   0.626 -0.4478 -0.3513 -1.8266
18444TIP3   OH276746   6.454   4.509   2.300 -0.2690  0.3501 -0.0478
18444TIP3    H176747   6.475   4.562   2.377 -2.0825  0.7384  0.2058
18444TIP3    H276748   6.360   4.497   2.303 -0.1849 -0.9655 -1.3739
18445TIP3   OH276749   0.794   3.315   5.493 -0.3602 -0.5241 -0.3210
18445TIP3    H176750   0.817   3.254   5.563 -0.8004  1.4864  1.6724
18445TIP3    H276751   0.776   3.398   5.538  1.3520  1.4425 -2.9582
18446TIP3   OH276752   7.032   4.882  15.037  0.2889 -0.3437  0.2231
18446TIP3    H176753   7.100   4.815  15.030  0.8923  0.3161 -0.3602
18446TIP3    H276754   6.951   4.832  15.050  1.0082 -1.0986  2.1306
18447TIP3   OH276755   6.250   3.133   2.738 -0.1227 -0.2161 -0.3254
18447TIP3    H176756   6.269   3.115   2.830 -1.5133  0.2561  0.0864
18447TIP3    H276757   6.244   3.047   2.697  0.7236 -0.4221 -0.0268
18448TIP3   OH276758   1.349   4.984   4.379  0.3525  0.1103 -0.2454
18448TIP3    H176759   1.374   5.071   4.347 -0.5446  0.4924  0.0339
18448TIP3    H276760   1.295   5.002   4.456  1.2186 -0.7442  0.5787
18449TIP3   OH276761   1.874   0.630  14.356 -0.0307 -0.5810 -0.6514
18449TIP3    H176762   1.911   0.572  14.422 -2.2734 -0.9651  0.3853
18449TIP3    H276763   1.827   0.571  14.297 -0.4761 -0.0138 -0.8730
18450TIP3   OH276764   1.964   2.040   4.745 -0.1607 -0.7762  0.2071
18450TIP3    H176765   1.991   2.056   4.835  1.4208 -1.6254 -0.0797
18450TIP3    H276766   1.917   1.958   4.748  0.2126 -0.9924  0.2156
18451TIP3   OH276767   0.802   0.057   5.566 -0.4941 -0.1471  0.1487
18451TIP3    H176768   0.843   0.115   5.630 -1.4755 -0.2712  0.9162
18451TIP3    H276769   0.873   0.002   5.534  0.6736  2.1269 -1.3743
18452TIP3   OH276770   0.359   2.169   1.802  0.1077 -0.5483  0.4783
18452TIP3    H176771   0.297   2.098   1.782  1.8548 -1.9554 -0.1964
18452TIP3    H276772   0.347   2.185   1.895  0.7444 -2.9119  1.0480
18453TIP3   OH276773   4.402   1.325   4.585  0.0046 -0.5976  0.9112
18453TIP3    H176774   4.365   1.326   4.673 -0.1780 -0.4734  0.8326
18453TIP3    H276775   4.442   1.412   4.574  1.4928 -1.1808  1.4945
18454TIP3   OH276776   2.551   5.630   2.239 -0.1479  0.5088  0.3936
18454TIP3    H176777   2.576   5.694   2.172  1.6053  0.8744  1.3291
18454TIP3    H276778   2.592   5.663   2.319 -2.0969  0.0357  1.6529
18455TIP3   OH276779   5.597   3.530   4.190 -0.3297 -0.0292  0.4001
18455TIP3    H176780   5.613   3.501   4.100  0.2321  0.8243  0.2028
18455TIP3    H276781   5.598   3.450   4.242 -0.5015 -0.5167 -0.3312
18456TIP3   OH276782   2.274   6.263   4.290 -0.2023 -0.3492 -0.0695
18456TIP3    H176783   2.235   6.249   4.376  0.8523 -0.9790  0.3220
18456TIP3    H276784   2.212   6.222   4.229 -0.9854  0.1538  0.3602
18457TIP3   OH276785   4.599   4.049   0.981  0.4762 -0.1802  0.4635
18457TIP3    H176786   4.568   4.139   0.989  0.1619 -0.1101 -1.0778
18457TIP3    H276787   4.551   4.014   0.906 -0.0775 -1.9399  1.5824
18458TIP3   OH276788   2.924   4.247   4.097  0.2565  0.4711 -0.6713
18458TIP3    H176789   2.965   4.200   4.024  1.2736 -0.7980  0.6715
18458TIP3    H276790   2.878   4.180   4.147 -1.7993  1.5712 -0.9870
18459TIP3   OH276791   5.650   4.008   1.637  0.4114  0.1399  0.2495
18459TIP3    H176792   5.698   3.973   1.711 -1.5037 -2.1353  0.5216
18459TIP3    H276793   5.662   3.943   1.567  0.2133  1.0487 -0.6648
18460TIP3   OH276794   4.815   1.373   4.685 -0.3248  0.1009 -0.1887
18460TIP3    H176795   4.875   1.301   4.669 -0.9002 -0.2011 -1.0606
18460TIP3    H276796   4.780   1.395   4.598 -0.6679  0.9770  0.1568
18461TIP3   OH276797   6.935   3.330   3.922 -0.0562 -0.0244 -0.3413
18461TIP3    H176798   6.894   3.415   3.936  1.1673  0.5753 -0.2087
18461TIP3    H276799   6.865   3.274   3.892 -1.0629  0.8230  0.3404
18462TIP3   OH276800   2.092   4.002  13.085 -0.0615 -0.1985  0.4519
18462TIP3    H176801   2.016   4.060  13.079 -1.3350 -1.9415 -1.3330
18462TIP3    H276802   2.055   3.915  13.099  1.7222 -0.8647  1.3532
18463TIP3   OH276803   0.030   6.086   3.158 -0.3385 -0.0034  0.4466
18463TIP3    H176804  -0.002   6.065   3.070  1.8351 -1.5223 -0.0550
18463TIP3    H276805  -0.044   6.128   3.201 -1.7092  0.0809 -1.8535
18464TIP3   OH276806   1.498   5.836   2.812 -0.2956  0.6622 -0.3920
18464TIP3    H176807   1.503   5.835   2.717 -0.0904  2.8769 -0.4571
18464TIP3    H276808   1.418   5.789   2.833 -0.4551  0.3412 -1.6621
18465TIP3   OH276809   0.160   0.255   4.980 -0.4338  0.0670  0.8327
18465TIP3    H176810   0.183   0.167   4.952  0.6829  0.9783 -1.3635
18465TIP3    H276811   0.234   0.309   4.953 -1.1566  1.7141  1.9816
18466TIP3   OH276812   5.714   4.242   4.696 -0.1479 -0.3135 -0.0069
18466TIP3    H176813   5.696   4.186   4.620 -0.2014  0.4511 -0.5609
18466TIP3    H276814   5.661   4.320   4.682 -1.0414 -0.6273  1.3811
18467TIP3   OH276815   6.373   3.188  14.153  0.0358 -0.1315 -0.5121
18467TIP3    H176816   6.353   3.276  14.121  0.9418 -0.4441 -2.0123
18467TIP3    H276817   6.428   3.203  14.230  0.0478  0.6129 -0.6564
18468TIP3   OH276818   4.952   1.377   4.945 -0.6176 -0.4254  0.3421
18468TIP3    H176819   5.001   1.298   4.968  0.5055  0.1910  0.1362
18468TIP3    H276820   4.961   1.385   4.850  0.6199  0.7867  0.5319
18469TIP3   OH276821   3.073   0.223   4.097 -0.4680  0.3464  0.1168
18469TIP3    H176822   3.105   0.194   4.011 -0.9466  2.1561 -0.7159
18469TIP3    H276823   3.093   0.150   4.156 -0.7033 -1.2214 -1.6437
18470TIP3   OH276824   6.300   4.067   2.771  0.0809  0.4536  0.3408
18470TIP3    H176825   6.328   4.085   2.681  2.1337 -0.0820  0.8191
18470TIP3    H276826   6.291   4.153   2.811  2.0674  0.6953  0.3940
18471TIP3   OH276827   1.652   6.797   0.445  0.8164 -0.3904 -0.9329
18471TIP3    H176828   1.669   6.870   0.385  0.5920 -0.7469 -1.4372
18471TIP3    H276829   1.563   6.812   0.476  1.2068  0.2190 -0.0767
18472TIP3   OH276830   1.125   1.171   3.607  0.2166  0.1231 -0.1054
18472TIP3    H176831   1.055   1.161   3.671  1.1627  2.1726  1.3640
18472TIP3    H276832   1.106   1.106   3.540 -3.5811  1.1226 -0.2302
18473TIP3   OH276833   6.993   6.972   3.348  0.9339 -0.5461  0.0627
18473TIP3    H176834   7.077   6.991   3.390 -0.6193 -1.1134  3.8092
18473TIP3    H276835   6.945   7.054   3.351  0.2424 -0.9660  0.8986
18474TIP3   OH276836   1.060   1.970   2.215  0.5595 -0.0243  0.1699
18474TIP3    H176837   1.051   2.051   2.163  0.3545  0.0086  0.2579
18474TIP3    H276838   1.119   1.995   2.286  1.1494 -0.1737 -0.2625
18475TIP3   OH276839   6.362   5.840  14.052  0.3486  0.6802 -0.1754
18475TIP3    H176840   6.408   5.918  14.022  1.3458  0.3199  0.3527
18475TIP3    H276841   6.431   5.783  14.087 -0.5924  0.5124  1.5207
18476TIP3   OH276842   5.324   5.503   1.651  0.6347  0.3084 -0.3782
18476TIP3    H176843   5.342   5.527   1.560 -1.3594 -0.7357 -1.0988
18476TIP3    H276844   5.337   5.409   1.653 -0.9723  0.0784 -0.0248
18477TIP3   OH276845   4.484   4.271   4.345  0.0904 -0.3499  0.2633
18477TIP3    H176846   4.400   4.240   4.312 -1.1423  1.8934  1.0452
18477TIP3    H276847   4.482   4.253   4.439  0.2889  0.0671  0.3531
18478TIP3   OH276848   2.636   2.446   2.500 -0.1188  0.8000 -0.2719
18478TIP3    H176849   2.583   2.369   2.478  0.2866 -0.4016  2.5662
18478TIP3    H276850   2.603   2.473   2.585  2.6095  1.1027  0.7694
18479TIP3   OH276851   5.364   5.097   4.688 -0.3829 -0.4050  0.0243
18479TIP3    H176852   5.278   5.124   4.723  0.1251 -1.5400  2.3669
18479TIP3    H276853   5.344   5.026   4.627 -1.1231 -0.9510  0.8690
18480TIP3   OH276854   1.635   2.621   5.094 -0.1186 -0.0676 -0.8175
18480TIP3    H176855   1.614   2.539   5.048  0.5695 -0.2847 -0.7694
18480TIP3    H276856   1.688   2.593   5.169  1.6126  0.5443 -1.7589
18481TIP3   OH276857   3.304   6.115   1.314 -0.3260  0.4594  0.3336
18481TIP3    H176858   3.364   6.189   1.306  0.5462 -0.2318  0.2389
18481TIP3    H276859   3.360   6.042   1.343 -0.9531 -0.4171 -0.5850
18482TIP3   OH276860   2.409   3.123   3.424  0.2713  0.8067  0.3537
18482TIP3    H176861   2.337   3.153   3.479  0.2013  0.9985  0.1572
18482TIP3    H276862   2.460   3.201   3.406  0.1301  0.7988 -0.0952
18483TIP3   OH276863   4.218   2.361   4.848 -0.4379  0.2433  0.6056
18483TIP3    H176864   4.127   2.349   4.875 -0.6151  0.0073 -0.0834
18483TIP3    H276865   4.260   2.278   4.868 -0.6649 -0.0773 -0.1892
18484TIP3   OH276866   1.515   1.176   4.424  0.3166 -0.3166 -0.0336
18484TIP3    H176867   1.549   1.186   4.335 -0.2475  2.6047 -0.0110
18484TIP3    H276868   1.592   1.155   4.477  0.7949 -1.2196 -1.0570
18485TIP3   OH276869   1.307   3.967   2.074  0.1630 -0.2091  0.1196
18485TIP3    H176870   1.242   3.909   2.035  0.1101 -1.3152  1.7398
18485TIP3    H276871   1.280   4.055   2.047 -0.5437 -0.8152 -1.2762
18486TIP3   OH276872   0.787   3.056   4.558 -0.7289  0.4003  0.0950
18486TIP3    H176873   0.706   3.077   4.513  0.4252  0.5570 -2.0139
18486TIP3    H276874   0.761   3.044   4.650 -2.9085  1.6530 -0.2920
18487TIP3   OH276875   2.468   3.946  13.677  0.4022 -0.5641 -0.0863
18487TIP3    H176876   2.429   3.996  13.605  2.6103  0.3893 -0.6927
18487TIP3    H276877   2.406   3.957  13.749 -1.0412 -0.1423 -1.3170
18488TIP3   OH276878   6.866   6.592   3.402  0.0718  0.2908  0.2561
18488TIP3    H176879   6.903   6.623   3.320  0.0091  0.5524  0.3244
18488TIP3    H276880   6.906   6.648   3.469 -1.2948  1.3589  0.2284
18489TIP3   OH276881   0.195   3.212   2.780  0.3562  0.0744  0.8950
18489TIP3    H176882   0.226   3.213   2.690  0.6875 -0.2249  1.0043
18489TIP3    H276883   0.231   3.291   2.819 -1.0289  1.0154  0.3627
18490TIP3   OH276884   3.419   4.677   3.342 -0.4600  0.4630  0.1463
18490TIP3    H176885   3.458   4.761   3.318 -1.7317  1.2249  0.6706
18490TIP3    H276886   3.480   4.640   3.405  1.0367  0.1229 -1.4076
18491TIP3   OH276887   3.463   2.560   4.768 -0.0964 -0.1031  0.3252
18491TIP3    H176888   3.555   2.542   4.749  0.0250 -0.4362  1.1630
18491TIP3    H276889   3.418   2.479   4.743  0.2705 -1.1643  2.8144
18492TIP3   OH276890   3.046   3.476   3.771  0.6328  0.4740 -0.4195
18492TIP3    H176891   2.973   3.515   3.818 -0.1540 -2.4405  1.0234
18492TIP3    H276892   3.124   3.498   3.822 -0.1464 -2.1838  2.1918
18493TIP3   OH276893   2.728   5.511   5.494  0.1487  0.0141  0.1913
18493TIP3    H176894   2.671   5.465   5.555  0.9417  0.0476  0.9830
18493TIP3    H276895   2.693   5.600   5.490 -0.6717 -0.3250 -0.4104
18494TIP3   OH276896   1.288   1.469   2.482 -0.0141 -0.1662  0.7975
18494TIP3    H176897   1.279   1.428   2.396  1.2250 -0.9267  1.0050
18494TIP3    H276898   1.296   1.563   2.463 -0.9111 -0.2112  0.1751
18495TIP3   OH276899   6.234   2.227   3.518  0.3274  0.1110 -0.0504
18495TIP3    H176900   6.148   2.248   3.554  0.3503 -2.5944  1.8661
18495TIP3    H276901   6.289   2.302   3.540 -0.9424  0.7872  0.9087
18496TIP3   OH276902   6.050   6.871   1.125  0.5721  0.3061  0.3768
18496TIP3    H176903   5.958   6.855   1.107  0.8045  0.7559 -1.4442
18496TIP3    H276904   6.091   6.876   1.038  2.5960 -1.5296  1.1252
18497TIP3   OH276905   3.910   2.559   5.144 -0.8761  0.1070 -0.1291
18497TIP3    H176906   3.890   2.470   5.171 -0.7716  0.1046 -0.0632
18497TIP3    H276907   3.959   2.596   5.217  0.3367 -0.2337 -0.7551
18498TIP3   OH276908   7.190   2.972   3.123  0.1706  0.0130  0.2429
18498TIP3    H176909   7.096   2.982   3.139 -0.0364 -1.4784  0.1050
18498TIP3    H276910   7.205   3.014   3.039  0.0732  2.2502  1.2706
18499TIP3   OH276911   4.632   3.234   4.083  0.5604 -0.4846  0.1382
18499TIP3    H176912   4.708   3.189   4.121 -0.1285 -1.1041  0.8193
18499TIP3    H276913   4.586   3.165   4.034 -0.2026 -0.4055  0.7224
18500TIP3   OH276914   4.801   6.461   3.022  0.6054 -0.1359  0.1061
18500TIP3    H176915   4.838   6.385   3.066  2.5610 -0.1565 -1.4149
18500TIP3    H276916   4.865   6.531   3.037 -0.8703  1.0938  0.9780
18501TIP3   OH276917   1.482   0.917  14.081 -0.5289 -0.5293 -0.7088
18501TIP3    H176918   1.472   0.983  14.012  1.1919 -0.0681 -0.5510
18501TIP3    H276919   1.494   0.835  14.033 -0.8348 -0.4488 -0.9298
18502TIP3   OH276920   1.379   6.833   3.660  0.5810 -0.5743  0.3310
18502TIP3    H176921   1.318   6.830   3.585 -0.3492  0.2828  1.0198
18502TIP3    H276922   1.338   6.894   3.721  1.3711 -1.1872  1.5107
18503TIP3   OH276923   6.326   1.504   1.471 -0.1607  0.3915  0.3973
18503TIP3    H176924   6.263   1.576   1.465  0.0730  0.6341  0.8354
18503TIP3    H276925   6.373   1.520   1.553 -1.1290 -1.0836  1.2897
18504TIP3   OH276926   6.937   5.271  14.525 -0.4420  0.2617 -0.4254
18504TIP3    H176927   6.923   5.222  14.606 -0.7106 -0.6033 -0.9857
18504TIP3    H276928   7.014   5.229  14.485 -0.1940  0.8068 -0.5347
18505TIP3   OH276929   0.415   0.351   3.607  0.1903 -0.0641  0.1020
18505TIP3    H176930   0.342   0.388   3.557  0.4637  0.0998 -0.1823
18505TIP3    H276931   0.489   0.356   3.547  0.6036  0.4596  0.6430
18506TIP3   OH276932   1.231   2.694   4.526  0.2193 -0.1863  0.0344
18506TIP3    H176933   1.289   2.771   4.534  0.1959 -0.1920  0.2556
18506TIP3    H276934   1.239   2.649   4.610 -0.1167 -0.1816  0.0701
18507TIP3   OH276935   6.464   3.276   3.510  0.4688 -0.0508  0.8262
18507TIP3    H176936   6.412   3.254   3.433  0.1045  0.6828  0.8507
18507TIP3    H276937   6.551   3.241   3.492  0.6094  0.7865 -0.2718
18508TIP3   OH276938   1.395   1.758   5.781 -0.6499 -0.3856  0.0276
18508TIP3    H176939   1.429   1.737   5.694  0.4558  2.0234 -0.2191
18508TIP3    H276940   1.302   1.776   5.767 -0.2972  0.9026 -0.8916
18509TIP3   OH276941   1.316   1.057   5.240  0.5964  0.3349 -0.0019
18509TIP3    H176942   1.294   0.968   5.268 -1.4370  0.7736 -0.0645
18509TIP3    H276943   1.342   1.048   5.149  2.1945 -0.4069  0.4889
18510TIP3   OH276944   2.509   3.715   3.666 -0.5096  0.0366 -0.2757
18510TIP3    H176945   2.523   3.683   3.755 -2.4965 -1.7598 -0.5447
18510TIP3    H276946   2.586   3.769   3.647  1.4938 -2.1001  1.3690
18511TIP3   OH276947   2.218   6.871   2.659  0.0998 -0.1261  0.3649
18511TIP3    H176948   2.244   6.802   2.598 -0.9520  0.3937 -0.7058
18511TIP3    H276949   2.203   6.825   2.742  0.5935 -0.9963 -0.0167
18512TIP3   OH276950   1.410   2.049   4.179  0.0786 -0.9990 -0.0182
18512TIP3    H176951   1.482   2.110   4.198 -1.6716  1.0863  0.3998
18512TIP3    H276952   1.419   1.980   4.244  1.2818 -0.3868  0.5013
18513TIP3   OH276953   0.482   1.314  14.677 -0.2097  0.4748  0.1667
18513TIP3    H176954   0.436   1.385  14.721  0.3478  0.9666 -0.0454
18513TIP3    H276955   0.487   1.341  14.586  0.1811  0.2519  0.1216
18514TIP3   OH276956   1.450   6.577   3.423 -0.1307  0.2461 -0.1630
18514TIP3    H176957   1.436   6.662   3.381 -0.5544  0.1353 -0.2473
18514TIP3    H276958   1.390   6.517   3.378 -1.6281  0.4062  1.4901
18515TIP3   OH276959   1.894   6.180   2.805 -0.2626  0.1180  0.0801
18515TIP3    H176960   1.850   6.193   2.720  0.3637  2.2695  0.0196
18515TIP3    H276961   1.983   6.154   2.782 -0.0772  0.7561  0.0750
18516TIP3   OH276962   0.833   6.757  12.209  0.1614 -0.6223  0.1808
18516TIP3    H176963   0.741   6.778  12.224  0.0716 -0.6726 -0.2848
18516TIP3    H276964   0.863   6.824  12.148  0.6495 -0.1310  0.9486
18517TIP3   OH276965   4.382   6.319  14.375 -0.1150  0.7535 -0.0099
18517TIP3    H176966   4.473   6.298  14.354 -1.0806 -3.4719 -0.9719
18517TIP3    H276967   4.367   6.278  14.460 -1.3774  0.5090 -0.3341
18518TIP3   OH276968   1.424   2.359   4.586 -0.3540 -0.3106 -0.2648
18518TIP3    H176969   1.329   2.371   4.579 -0.2657  0.4717 -0.2785
18518TIP3    H276970   1.460   2.445   4.563  0.3762 -0.7230 -0.7051
18519TIP3   OH276971   3.358   0.716   3.346  0.2762 -0.3977  0.6558
18519TIP3    H176972   3.297   0.695   3.417  0.4177  0.0656  0.9182
18519TIP3    H276973   3.417   0.782   3.384  0.6807 -0.5364  0.2746
18520TIP3   OH276974   1.333   0.206   5.065 -0.1081  0.3208  0.0132
18520TIP3    H176975   1.316   0.203   4.970  1.2998  0.7890 -0.2856
18520TIP3    H276976   1.309   0.294   5.091 -2.5418 -0.4359  0.5622
18521TIP3   OH276977   4.849   6.051   1.248  0.0898 -1.0623 -0.4471
18521TIP3    H176978   4.809   5.997   1.180  0.5839 -1.5398 -0.3625
18521TIP3    H276979   4.874   5.989   1.317 -0.4114 -0.5854  0.1785
18522TIP3   OH276980   4.839   5.415  12.316  0.1176 -0.0554 -0.1167
18522TIP3    H176981   4.835   5.449  12.405 -0.6138 -2.5967  0.9031
18522TIP3    H276982   4.752   5.433  12.280  0.6542  1.6646 -0.6548
18523TIP3   OH276983   5.894   6.443   4.915  0.3171 -0.6346 -0.3433
18523TIP3    H176984   5.834   6.370   4.898 -0.5299 -0.0421  0.0162
18523TIP3    H276985   5.866   6.512   4.856  0.8443 -0.4544 -0.3859
18524TIP3   OH276986   5.791   2.364   4.074 -0.2999  0.0540 -0.2519
18524TIP3    H176987   5.769   2.451   4.106  0.6508  0.5967 -0.9751
18524TIP3    H276988   5.882   2.373   4.042  0.6686 -1.7802  1.7484
18525TIP3   OH276989   6.842   4.674  13.320  0.3270 -0.0379  0.7477
18525TIP3    H176990   6.934   4.688  13.344  0.4142 -0.5717  0.7359
18525TIP3    H276991   6.823   4.585  13.348  0.4142 -0.6653 -1.0199
18526TIP3   OH276992   0.203   0.987   1.783 -0.1168 -0.3919 -0.0683
18526TIP3    H176993   0.151   0.958   1.858 -0.7518  0.6706 -0.0714
18526TIP3    H276994   0.180   1.080   1.773  0.2338 -0.4262 -1.3496
18527TIP3   OH276995   4.049   6.318   4.070 -0.0819 -0.5166  0.5083
18527TIP3    H176996   3.972   6.326   4.126 -0.2589 -0.4993  0.2611
18527TIP3    H276997   4.015   6.288   3.986  0.1497 -0.2667  0.3228
18528TIP3   OH276998   6.711   3.607   2.840  0.2372  0.2478 -0.5915
18528TIP3    H176999   6.787   3.570   2.795  1.3248 -0.2837  1.5726
18528TIP3    H277000   6.736   3.698   2.857 -0.4741  0.6615 -1.6470
18529TIP3   OH277001   5.451   5.212   2.055 -0.3844  0.6446  0.4263
18529TIP3    H177002   5.491   5.148   1.997 -1.2616 -1.2939  1.8448
18529TIP3    H277003   5.478   5.184   2.143 -2.8473  0.6637  1.2477
18530TIP3   OH277004   2.570   3.825   4.476  0.1196 -0.2219 -0.6690
18530TIP3    H177005   2.639   3.825   4.409 -0.3627 -0.0597 -1.1701
18530TIP3    H277006   2.577   3.738   4.517  0.2798 -0.4017 -1.0715
18531TIP3   OH277007   3.445   1.631   3.444 -0.2103 -0.2316 -0.8400
18531TIP3    H177008   3.438   1.698   3.376  1.6035  0.5083 -0.3493
18531TIP3    H277009   3.448   1.680   3.526  0.1389 -0.9660 -0.4044
18532TIP3   OH277010   6.998   7.135   3.070  0.2730  0.4638  0.0419
18532TIP3    H177011   6.988   7.199   3.000 -0.1315  0.0810 -0.2599
18532TIP3    H277012   7.068   7.170   3.126  2.0421 -0.2104 -1.6530
18533TIP3   OH277013   5.653   0.894   3.494 -0.0767  0.1958 -0.4534
18533TIP3    H177014   5.601   0.974   3.504  0.7722  0.7982 -0.7727
18533TIP3    H277015   5.592   0.832   3.453 -0.8057  0.6019 -0.0148
18534TIP3   OH277016   4.824   5.362   1.544  0.2411  0.2403  0.0405
18534TIP3    H177017   4.859   5.451   1.545 -0.1860  0.4428 -1.3661
18534TIP3    H277018   4.824   5.336   1.636  0.4575  1.6528  0.4684
18535TIP3   OH277019   4.433   6.954   4.372  0.3093  0.1135  0.0179
18535TIP3    H177020   4.352   6.944   4.322  1.1957  1.2250 -1.7336
18535TIP3    H277021   4.451   6.867   4.407 -1.1138 -0.3627 -0.3788
18536TIP3   OH277022   6.035   5.335   5.144 -0.2770  0.0691 -0.3405
18536TIP3    H177023   6.073   5.367   5.225 -0.5812 -0.7899  0.1617
18536TIP3    H277024   6.057   5.401   5.078 -0.4491  1.0210  0.5350
18537TIP3   OH277025   1.216   3.980  15.131 -0.0333  0.2828  0.3906
18537TIP3    H177026   1.279   4.016  15.193  0.1278  0.5238  0.0895
18537TIP3    H277027   1.260   3.905  15.093 -0.8678 -1.0972  2.0037
18538TIP3   OH277028   6.268   3.196   2.041  0.1480 -0.2587 -0.3008
18538TIP3    H177029   6.337   3.241   2.089  0.3650 -0.5760 -0.3114
18538TIP3    H277030   6.221   3.146   2.108  0.9271 -1.3069 -0.5235
18539TIP3   OH277031   6.441   5.328   1.310 -0.4913  0.1363 -0.0815
18539TIP3    H177032   6.406   5.341   1.222 -1.1102  1.4029  0.3210
18539TIP3    H277033   6.475   5.239   1.310  0.8487  0.5906 -2.0545
18540TIP3   OH277034   0.542   2.614   4.545 -0.1314 -0.1567  0.2347
18540TIP3    H177035   0.556   2.524   4.515 -0.3033 -0.6462  1.5155
18540TIP3    H277036   0.499   2.604   4.630  0.2246  1.1289  0.5933
18541TIP3   OH277037   7.010   2.683   1.318 -0.5893 -0.1400  0.1235
18541TIP3    H177038   7.030   2.709   1.228  0.7770  1.7308  0.9001
18541TIP3    H277039   6.916   2.701   1.328 -0.7332 -0.2924 -0.8918
18542TIP3   OH277040   4.672   3.553   5.189  0.2321 -0.1681 -0.4506
18542TIP3    H177041   4.639   3.641   5.168  0.9248  0.6328  1.5786
18542TIP3    H277042   4.675   3.551   5.285  3.0890 -1.3033 -0.4753
18543TIP3   OH277043   2.644   3.517   4.700  0.2595  0.9400  0.0800
18543TIP3    H177044   2.620   3.437   4.654  0.7609  1.5247 -1.2539
18543TIP3    H277045   2.692   3.487   4.778  0.1315 -0.0549 -0.2128
18544TIP3   OH277046   5.924   6.555   4.294 -0.8359 -0.2146  0.6466
18544TIP3    H177047   5.905   6.649   4.286  2.8842  0.5277 -1.5506
18544TIP3    H277048   5.984   6.549   4.367  0.1522 -0.6224 -0.1832
18545TIP3   OH277049   1.510   6.464   4.548  0.5156  0.5679 -0.0509
18545TIP3    H177050   1.548   6.387   4.591 -0.9612  0.7066  1.6330
18545TIP3    H277051   1.435   6.430   4.499 -0.4477  0.9548  1.1070
18546TIP3   OH277052   1.335   5.290   1.195  0.0706 -0.0925 -0.3083
18546TIP3    H177053   1.392   5.249   1.260 -1.1728 -0.1452  0.8073
18546TIP3    H277054   1.259   5.232   1.190 -0.7907  0.9882 -0.2326
18547TIP3   OH277055   5.961   6.570   2.543  0.4661 -0.2669 -0.2537
18547TIP3    H177056   6.055   6.555   2.554  0.8639  1.1221 -1.5329
18547TIP3    H277057   5.928   6.486   2.511  1.4937 -0.4102 -1.0050
18548TIP3   OH277058   3.972   5.621   4.895 -0.2721  0.4295 -0.2757
18548TIP3    H177059   3.925   5.632   4.813 -0.5877  0.0095 -0.1502
18548TIP3    H277060   3.998   5.710   4.919  0.0294  0.5312 -0.9442
18549TIP3   OH277061   4.634   6.788   5.014 -0.1471  0.8551 -0.2814
18549TIP3    H177062   4.668   6.862   5.065  1.8194 -0.4348  0.3877
18549TIP3    H277063   4.703   6.722   5.019 -1.6544 -0.8705 -1.2440
18550TIP3   OH277064   1.486   3.102   1.950  0.5876  0.2644  0.1795
18550TIP3    H177065   1.434   3.061   2.020 -1.1453  0.7269 -0.7795
18550TIP3    H277066   1.518   3.028   1.898 -0.1310  0.0047  0.0915
18551TIP3   OH277067   1.419   1.129   1.746 -0.2333 -0.3261 -0.2864
18551TIP3    H177068   1.452   1.058   1.691  1.7060  0.5825 -0.3642
18551TIP3    H277069   1.489   1.145   1.809 -1.2011  0.6296  0.5875
18552TIP3   OH277070   1.164   3.784   4.184  0.7473  0.0998  0.2962
18552TIP3    H177071   1.108   3.862   4.185 -0.9139 -0.8958 -2.8637
18552TIP3    H277072   1.108   3.714   4.218  0.6849 -0.5278 -1.0492
18553TIP3   OH277073   5.660   0.799  12.069 -0.1345 -0.1588 -0.1384
18553TIP3    H177074   5.633   0.807  12.160  0.9462 -1.4121  0.3226
18553TIP3    H277075   5.747   0.839  12.067  0.0607 -0.5973 -0.5102
18554TIP3   OH277076   7.108   2.755   0.295 -0.2758 -0.1774  0.1926
18554TIP3    H177077   7.132   2.790   0.381 -1.7540  1.4540 -0.0060
18554TIP3    H277078   7.014   2.741   0.300 -0.5103  0.5870 -1.3456
18555TIP3   OH277079   4.368   2.209   0.901 -0.4365  0.3661  0.1387
18555TIP3    H177080   4.331   2.220   0.813 -0.6899 -1.1549  0.0268
18555TIP3    H277081   4.435   2.142   0.890  0.4838  1.1354  0.8746
18556TIP3   OH277082   0.213   0.350   3.248  0.3979 -0.1728 -0.2872
18556TIP3    H177083   0.211   0.376   3.340  0.9736 -0.3742 -0.2117
18556TIP3    H277084   0.126   0.371   3.215  0.2900  0.1988  0.2210
18557TIP3   OH277085   5.588   4.428   3.744 -0.1933 -0.5833 -0.2482
18557TIP3    H177086   5.563   4.336   3.745 -0.7516 -0.4481 -0.8825
18557TIP3    H277087   5.505   4.476   3.743  0.0909 -0.0744 -0.2460
18558TIP3   OH277088   3.038   6.103   5.495  0.0733  0.0634  0.0357
18558TIP3    H177089   3.000   6.158   5.564 -1.7793 -2.7722  1.4716
18558TIP3    H277090   3.133   6.118   5.503 -0.2557  1.7916  1.4173
18559TIP3   OH277091   1.715   3.499   5.637 -0.0294  0.0185 -0.0136
18559TIP3    H177092   1.648   3.485   5.570 -1.0987  2.2120  0.5240
18559TIP3    H277093   1.791   3.531   5.588 -0.4713  0.6525 -0.2999
18560TIP3   OH277094   6.018   6.638   3.345  0.2839 -0.1230  0.8521
18560TIP3    H177095   5.985   6.641   3.255  2.5845  1.1980 -0.0423
18560TIP3    H277096   6.023   6.545   3.366  1.0424 -0.5303 -0.9661
18561TIP3   OH277097   4.507   5.885   4.242  0.5885  0.6228 -0.1051
18561TIP3    H177098   4.533   5.976   4.229 -1.6125  1.2751 -0.3862
18561TIP3    H277099   4.493   5.877   4.336  1.6343  0.3035  0.0326
18562TIP3   OH277100   4.757   3.835   3.785  0.7207 -0.1722 -0.1902
18562TIP3    H177101   4.765   3.777   3.709 -0.0061  1.1471 -1.3138
18562TIP3    H277102   4.663   3.851   3.794  0.8944  0.7247  0.1748
18563TIP3   OH277103   4.694   6.160   0.452  0.2377 -0.6842 -0.7183
18563TIP3    H177104   4.666   6.073   0.480  0.3603 -0.0725  1.4634
18563TIP3    H277105   4.662   6.219   0.520 -0.1988  1.0671 -2.3524
18564TIP3   OH277106   7.171   4.461   2.925 -0.2519  0.5218 -0.6754
18564TIP3    H177107   7.124   4.544   2.935  0.9813  1.6341 -3.2538
18564TIP3    H277108   7.234   4.477   2.854  0.5442 -2.4187 -0.7684
18565TIP3   OH277109   3.023   6.622   2.541  0.3234  0.5401  0.1655
18565TIP3    H177110   2.993   6.635   2.451  0.0186  1.6175  0.4070
18565TIP3    H277111   3.118   6.619   2.535  0.2735 -0.2414 -0.2924
18566TIP3   OH277112   5.931   6.063  14.952 -0.0773  0.2691  0.4594
18566TIP3    H177113   5.934   6.116  14.872  1.6718  1.0044  0.9852
18566TIP3    H277114   5.865   5.995  14.933  0.0980  0.5964 -1.4913
18567TIP3   OH277115   6.571   4.702   4.964  0.1353  0.2025 -0.2724
18567TIP3    H177116   6.523   4.623   4.939 -1.4738  0.5744  1.4273
18567TIP3    H277117   6.605   4.682   5.051 -0.7257  1.5409  0.3886
18568TIP3   OH277118   4.860   0.075   0.140  0.6972  1.1361 -0.0396
18568TIP3    H177119   4.773   0.065   0.179 -0.7703  1.2089 -2.9923
18568TIP3    H277120   4.902  -0.010   0.152  0.1757  1.0509  1.2974
18569TIP3   OH277121   4.621   5.409   4.327  0.0956 -0.8381 -0.3488
18569TIP3    H177122   4.679   5.425   4.252 -1.2298 -1.4974 -1.5719
18569TIP3    H277123   4.622   5.491   4.376 -0.5336  0.3487 -2.2075
18570TIP3   OH277124   7.060   4.472   1.249 -0.1957  0.2017  0.0334
18570TIP3    H177125   6.972   4.461   1.286  0.0370 -1.3307  0.2027
18570TIP3    H277126   7.116   4.418   1.304  0.8694  1.1179 -0.1065
18571TIP3   OH277127   6.689   4.993   1.838 -0.6499  0.0812 -0.3118
18571TIP3    H177128   6.751   5.065   1.847 -1.0780  0.2811  1.1585
18571TIP3    H277129   6.618   5.014   1.899 -0.3245 -2.0612  0.8764
18572TIP3   OH277130   1.215   5.492  15.168 -0.1901 -0.3949 -0.1457
18572TIP3    H177131   1.276   5.454  15.231 -0.3446  0.1742  0.3554
18572TIP3    H277132   1.266   5.561  15.125 -0.1624 -0.6174 -0.4781
18573TIP3   OH277133   0.297   4.529   3.324 -0.2752 -0.2670 -0.6423
18573TIP3    H177134   0.391   4.511   3.327 -0.4500 -1.0433  0.5861
18573TIP3    H277135   0.266   4.481   3.247  0.2939 -0.1510 -0.9530
18574TIP3   OH277136   6.903   4.433   2.210  0.7706  0.1115  0.3060
18574TIP3    H177137   6.894   4.402   2.300  0.7981  0.3675  0.3976
18574TIP3    H277138   6.994   4.416   2.188  0.7240 -0.0999  0.2694
18575TIP3   OH277139   6.743   3.416   2.447  0.6019 -0.1065 -0.1305
18575TIP3    H177140   6.749   3.509   2.468 -0.5051 -0.2762  1.0852
18575TIP3    H277141   6.711   3.413   2.357  1.0728  0.6664 -0.3325
18576TIP3   OH277142   1.632   1.062   2.891  0.5264  0.3515  0.1169
18576TIP3    H177143   1.577   0.984   2.880 -0.3619  0.6902  1.7853
18576TIP3    H277144   1.637   1.100   2.804 -0.3333 -0.7205 -0.4333
18577TIP3   OH277145   1.990   1.292   2.341  0.2535 -0.4831 -0.1630
18577TIP3    H177146   1.995   1.202   2.374 -0.1483 -0.8379 -1.0311
18577TIP3    H277147   1.914   1.329   2.385  0.1509 -0.7122 -0.1456
18578TIP3   OH277148   6.801   1.999   2.789  0.0567 -0.2400 -0.2686
18578TIP3    H177149   6.877   2.050   2.763 -0.2679  0.2238 -0.3334
18578TIP3    H277150   6.746   2.061   2.838 -0.4023 -0.4920 -0.4514
18579TIP3   OH277151   6.714   4.623   2.268 -0.2140  0.1413  0.6122
18579TIP3    H177152   6.781   4.569   2.227  0.8586  0.5881  1.7240
18579TIP3    H277153   6.643   4.562   2.289 -0.7062 -0.1311 -1.6565
18580TIP3   OH277154   6.240   4.092   1.181  0.5297  0.1642 -0.1666
18580TIP3    H177155   6.190   4.018   1.215  0.7678  0.2183  0.3111
18580TIP3    H277156   6.260   4.145   1.258  1.4715  0.0543 -0.3143
18581TIP3   OH277157   1.942   6.277  14.671 -0.0758  0.5053  0.6685
18581TIP3    H177158   1.878   6.217  14.711 -0.3214  0.4917  0.2563
18581TIP3    H277159   1.938   6.356  14.725  0.9732 -0.1962  1.8367
18582TIP3   OH277160   6.606   0.424   5.111  0.3427 -0.0251  0.2992
18582TIP3    H177161   6.516   0.430   5.077  0.7502 -0.2483 -0.8538
18582TIP3    H277162   6.639   0.513   5.108 -0.4726  0.4281  2.6163
18583TIP3   OH277163   1.468   0.291   2.740  0.1374 -0.6436  0.1484
18583TIP3    H177164   1.464   0.235   2.817 -1.8492  0.0097  0.5754
18583TIP3    H277165   1.511   0.371   2.771 -1.3711 -0.0634  0.8368
18584TIP3   OH277166   3.863   3.050  14.885  0.2312  0.3460 -0.4043
18584TIP3    H177167   3.911   3.000  14.818 -1.4685 -0.0228 -1.4149
18584TIP3    H277168   3.815   3.116  14.835 -2.1503 -0.7943  0.2231
18585TIP3   OH277169   1.760   1.993   4.521 -0.4986 -0.3396  0.1343
18585TIP3    H177170   1.724   2.041   4.596 -0.7996 -1.9944  1.1091
18585TIP3    H277171   1.855   1.998   4.533 -0.5376 -0.3155  0.4496
18586TIP3   OH277172   6.543   1.892   3.005  0.1355 -0.5388 -0.2085
18586TIP3    H177173   6.454   1.923   3.021  0.0770 -1.3468  1.2392
18586TIP3    H277174   6.596   1.972   3.000 -0.5265 -0.0904 -0.0937
18587TIP3   OH277175   0.179   6.732   3.710 -0.2061  0.2753 -0.0513
18587TIP3    H177176   0.254   6.784   3.738 -1.5281  2.0830  0.2695
18587TIP3    H277177   0.215   6.671   3.646  1.6638  0.5650  0.6474
18588TIP3   OH277178   1.566   0.859   3.780 -0.0727  0.2920 -0.2085
18588TIP3    H177179   1.528   0.946   3.780  2.7641  1.6644  1.4026
18588TIP3    H277180   1.606   0.850   3.693  1.1027  1.3522  0.2026
18589TIP3   OH277181   6.027   3.569   2.588 -0.1694 -0.5194  0.2625
18589TIP3    H177182   6.027   3.613   2.673  0.6104 -1.6909  0.9120
18589TIP3    H277183   6.116   3.583   2.555 -1.0386  1.6687 -1.3570
18590TIP3   OH277184   1.425   3.240   1.388  0.6654  0.7616 -0.4493
18590TIP3    H177185   1.338   3.204   1.373  1.3430 -0.2278 -2.2052
18590TIP3    H277186   1.448   3.211   1.476 -1.4328  2.5070  0.7725
18591TIP3   OH277187   1.193   2.261   3.087 -0.0239  0.4604 -0.4622
18591TIP3    H177188   1.284   2.232   3.082  0.2125  1.2224 -0.6546
18591TIP3    H277189   1.148   2.212   3.019  0.0368 -0.6298  0.2484
18592TIP3   OH277190   5.435   6.176   3.871  0.3752  0.2843  0.1457
18592TIP3    H177191   5.421   6.081   3.874 -0.4915  0.3650 -0.9234
18592TIP3    H277192   5.364   6.209   3.817  1.9452  1.2888 -1.3876
18593TIP3   OH277193   4.950   5.613   3.979  0.1328 -0.9035 -0.5662
18593TIP3    H177194   4.948   5.701   3.943  3.0878 -0.8966 -0.9883
18593TIP3    H277195   4.858   5.586   3.984 -0.7507  1.6126 -1.7909
18594TIP3   OH277196   6.546   2.043   4.196 -0.1315  0.6501  0.3253
18594TIP3    H177197   6.587   1.964   4.230 -2.2925  0.0458  1.7443
18594TIP3    H277198   6.557   2.037   4.101  4.3333  1.3745  0.5713
18595TIP3   OH277199   4.650   5.314   4.577 -0.2703  0.4127  0.2061
18595TIP3    H177200   4.650   5.335   4.484 -1.7979 -0.0632  0.0582
18595TIP3    H277201   4.564   5.274   4.592  0.6403 -1.2114  1.4440
18596TIP3   OH277202   4.379   0.642   1.121 -0.3495 -0.3544  0.3313
18596TIP3    H177203   4.419   0.566   1.078 -1.8122 -0.2099 -1.3848
18596TIP3    H277204   4.407   0.717   1.069  0.3041  0.1979  1.4509
18597TIP3   OH277205   0.464   5.193   5.965  0.1849  0.3172  0.7160
18597TIP3    H177206   0.522   5.124   5.999 -1.5472 -1.3908  0.3556
18597TIP3    H277207   0.486   5.271   6.017  2.0907 -0.5202  1.2520
18598TIP3   OH277208   2.166   3.062   2.187 -0.0851 -0.1009 -0.0570
18598TIP3    H177209   2.224   3.135   2.209  1.4556 -1.5731  1.0439
18598TIP3    H277210   2.131   3.034   2.272 -0.1666 -1.0123 -0.3805
18599TIP3   OH277211   6.167   2.039   0.227 -0.2632 -0.1092  0.2620
18599TIP3    H177212   6.077   2.067   0.212  0.0601  1.5290  1.2191
18599TIP3    H277213   6.159   1.965   0.287 -0.9287  0.8538  1.3984
18600TIP3   OH277214   3.149   1.929   0.386 -0.5393 -0.0204 -0.5125
18600TIP3    H177215   3.201   2.005   0.361  0.9470 -0.2131  1.6972
18600TIP3    H277216   3.104   1.903   0.306  2.1570  0.6604 -2.3721
18601TIP3   OH277217   0.387   0.466   4.985  0.5185  0.0208 -0.1843
18601TIP3    H177218   0.450   0.434   5.050 -0.7131 -1.8153  0.2094
18601TIP3    H277219   0.391   0.561   4.992  2.5326 -0.0586  0.4817
18602TIP3   OH277220   3.459   5.015  15.328 -0.2533 -0.2817  0.0114
18602TIP3    H177221   3.515   5.092  15.324 -0.8182  0.2308  1.3503
18602TIP3    H277222   3.515   4.942  15.303  0.5716  0.4306 -0.2435
18603TIP3   OH277223   6.601   2.387   4.545 -0.0036 -0.2687  0.4065
18603TIP3    H177224   6.539   2.460   4.545 -0.8174 -0.9255 -0.1164
18603TIP3    H277225   6.622   2.374   4.452 -0.9989 -1.5897  0.3264
18604TIP3   OH277226   2.817   0.776   2.554  0.2586  0.2148 -0.3833
18604TIP3    H177227   2.858   0.764   2.468  1.1195 -1.2303  0.1852
18604TIP3    H277228   2.771   0.694   2.570 -1.0821  1.0059 -0.0516
18605TIP3   OH277229   5.795   6.044   0.370  0.0529  0.5500  0.0368
18605TIP3    H177230   5.855   5.983   0.412  0.5815  0.6302 -0.5726
18605TIP3    H277231   5.788   6.013   0.279 -1.6896 -0.0826  0.3488
18606TIP3   OH277232   6.572   4.523   1.870 -0.0469 -0.3893  0.1188
18606TIP3    H177233   6.483   4.559   1.868  0.3769  0.7021  0.0073
18606TIP3    H277234   6.611   4.552   1.787  0.6088 -0.3332  0.4374
18607TIP3   OH277235   4.832   2.636   3.131 -0.1075 -0.0336  0.0857
18607TIP3    H177236   4.924   2.663   3.121  0.5100 -1.2329  1.9180
18607TIP3    H277237   4.782   2.718   3.125  1.2793  0.9376  1.0591
18608TIP3   OH277238   1.312   2.911   5.747 -0.1722 -1.0289  0.2406
18608TIP3    H177239   1.351   2.844   5.803 -0.2142  0.5149  2.1886
18608TIP3    H277240   1.265   2.969   5.806 -1.7485 -0.3117 -1.5919
18609TIP3   OH277241   1.427   3.571   4.986  0.1548 -0.4435 -0.1492
18609TIP3    H177242   1.411   3.652   5.035  0.6948 -0.6094  0.3175
18609TIP3    H277243   1.362   3.510   5.020  0.8347 -0.7017  0.7336
18610TIP3   OH277244   2.239   1.617   3.675  0.0746 -0.1219  0.5688
18610TIP3    H177245   2.258   1.599   3.583  3.2607  2.2214  0.6180
18610TIP3    H277246   2.266   1.538   3.722  0.1990 -0.6217 -0.3304
18611TIP3   OH277247   5.568   1.299   3.438 -0.8319 -0.0865  0.0193
18611TIP3    H177248   5.530   1.382   3.466 -0.9655 -0.3837  0.7558
18611TIP3    H277249   5.659   1.302   3.468 -1.3748 -1.0310  1.9299
18612TIP3   OH277250   6.084   4.566   4.552 -0.9069  0.2860  0.1676
18612TIP3    H177251   6.061   4.474   4.546  1.0550 -0.1549 -2.6188
18612TIP3    H277252   6.150   4.571   4.621 -1.1403 -0.3452  0.4388
18613TIP3   OH277253   3.386   5.262   5.333 -0.2907 -0.4812 -0.1068
18613TIP3    H177254   3.292   5.243   5.324 -0.3782  0.4112 -1.3809
18613TIP3    H277255   3.390   5.334   5.396 -0.4698 -0.4255 -0.1577
18614TIP3   OH277256   0.341   2.163   1.481 -0.7591 -0.5598 -0.3706
18614TIP3    H177257   0.349   2.252   1.445  0.6199 -0.1597  0.8430
18614TIP3    H277258   0.350   2.106   1.405 -1.9420  0.3275 -1.2135
18615TIP3   OH277259   3.035   6.039   4.963 -0.5105  0.3727 -0.2762
18615TIP3    H177260   2.948   6.024   4.999 -0.3555  1.3004  0.5440
18615TIP3    H277261   3.077   6.098   5.026  1.0010 -0.6854 -0.2209
18616TIP3   OH277262   5.669   2.262  12.941  0.0937 -0.4280  1.0027
18616TIP3    H177263   5.693   2.339  12.890 -0.5465  0.3552  1.8601
18616TIP3    H277264   5.685   2.287  13.032 -4.3025  0.3992  1.7724
18617TIP3   OH277265   4.431   1.034   4.571  0.1930 -0.1477  0.6337
18617TIP3    H177266   4.525   1.023   4.590  0.1226  0.4396  1.3829
18617TIP3    H277267   4.425   1.120   4.530  0.2441 -1.1104 -1.5034
18618TIP3   OH277268   1.623   5.939   4.107 -0.3005 -0.2124  0.4152
18618TIP3    H177269   1.597   6.031   4.108 -0.9069 -0.2531  4.6563
18618TIP3    H277270   1.714   5.941   4.077 -1.0862  1.3656 -2.1759
18619TIP3   OH277271   1.685   4.590   5.595  0.0731 -0.2222  0.0950
18619TIP3    H177272   1.746   4.520   5.570  1.8727  1.2006  0.2809
18619TIP3    H277273   1.676   4.581   5.690  1.2489  0.4597  0.2994
18620TIP3   OH277274   6.197   2.420  13.615 -0.4125  0.1310 -0.1148
18620TIP3    H177275   6.202   2.501  13.664 -4.0982  2.7770 -3.4845
18620TIP3    H277276   6.280   2.416  13.567  0.0077  1.6644  0.4271
18621TIP3   OH277277   0.226   6.690   2.709  0.6761 -0.2650 -0.1227
18621TIP3    H177278   0.179   6.760   2.756 -0.0034  1.1665 -2.7306
18621TIP3    H277279   0.316   6.723   2.701  0.9518 -0.7984  0.6822
18622TIP3   OH277280   0.791   0.011   0.240  0.0578  0.5947 -0.1165
18622TIP3    H177281   0.701   0.030   0.213  0.7425  1.1018 -2.1575
18622TIP3    H277282   0.811  -0.072   0.197  0.6481  0.6048  0.1386
18623TIP3   OH277283   0.686   1.254  14.367  0.2326 -0.6331 -0.0086
18623TIP3    H177284   0.727   1.179  14.410  0.6265  0.3339  1.3850
18623TIP3    H277285   0.707   1.328  14.424 -0.3362  0.5023 -1.2273
18624TIP3   OH277286   5.982   1.852   3.477  0.2592  0.0129  0.1590
18624TIP3    H177287   5.986   1.857   3.572 -0.4321 -0.8094  0.2419
18624TIP3    H277288   5.911   1.790   3.459 -0.2341  0.8396 -0.9036
18625TIP3   OH277289   2.174   0.162   5.245  0.3870 -0.0939 -0.2672
18625TIP3    H177290   2.081   0.170   5.270  0.3163  0.6335 -0.7367
18625TIP3    H277291   2.203   0.082   5.288 -0.9181 -1.3055 -1.5305
18626TIP3   OH277292   3.004   5.282   4.992 -0.0458  0.2978  0.5576
18626TIP3    H177293   3.006   5.322   4.905 -0.0121 -0.8957 -0.0135
18626TIP3    H277294   3.090   5.242   5.002  0.9139  2.5441  2.2279
18627TIP3   OH277295   0.935   0.753   3.141 -0.0015 -0.2782  0.2095
18627TIP3    H177296   0.906   0.844   3.149  0.1893 -0.0753 -1.1003
18627TIP3    H277297   0.889   0.721   3.064  1.1067 -0.8084 -0.2537
18628TIP3   OH277298   0.142   5.263   4.870  0.4868 -0.1528  0.0553
18628TIP3    H177299   0.214   5.317   4.902  0.9478 -0.4480 -0.4550
18628TIP3    H277300   0.147   5.270   4.774 -0.2693 -0.0443  0.0147
18629TIP3   OH277301   0.242   4.544   3.728 -0.0858 -0.2507 -0.2511
18629TIP3    H177302   0.333   4.573   3.733  0.0607 -0.8262  0.5056
18629TIP3    H277303   0.239   4.463   3.778 -0.9809 -0.3345 -0.4159
18630TIP3   OH277304   5.040   1.033   0.588 -0.1456  0.1396  0.3075
18630TIP3    H177305   4.970   0.968   0.574 -0.4696  0.3251  1.0395
18630TIP3    H277306   5.011   1.109   0.538 -0.1151 -0.0297  0.0289
18631TIP3   OH277307   4.628   7.204   4.526 -0.3419 -0.4134  0.1493
18631TIP3    H177308   4.632   7.219   4.621  1.1510  2.1906 -0.2504
18631TIP3    H277309   4.536   7.218   4.504 -0.2679  1.5985  0.9038
18632TIP3   OH277310   4.932   6.911   4.777  0.0830 -0.1877 -0.6963
18632TIP3    H177311   4.974   6.879   4.857 -2.2967 -1.6659  0.0575
18632TIP3    H277312   4.976   6.994   4.758  0.2800  0.5767  2.5663
18633TIP3   OH277313   2.383   5.743   3.628 -0.6559 -0.1168  0.1946
18633TIP3    H177314   2.452   5.695   3.673 -1.1150 -1.2338 -0.2542
18633TIP3    H277315   2.380   5.828   3.672  0.4490 -0.3450  0.7395
18634TIP3   OH277316   6.076   4.063   0.891 -0.1177  0.4738 -0.4585
18634TIP3    H177317   6.147   4.029   0.945 -0.7198 -0.9984 -0.5514
18634TIP3    H277318   6.003   4.004   0.907 -1.2006  1.6925 -0.7094
18635TIP3   OH277319   1.479   4.059   1.848 -0.0774  0.7330 -0.8122
18635TIP3    H177320   1.452   4.132   1.904  0.2053  1.3612 -1.4717
18635TIP3    H277321   1.575   4.059   1.854  0.0234  1.4577 -2.0634
18636TIP3   OH277322   2.063   1.600   1.591  0.3080 -0.3266 -0.8131
18636TIP3    H177323   2.128   1.530   1.595 -0.8162 -1.3785 -0.6458
18636TIP3    H277324   2.045   1.611   1.497 -0.8918 -1.5836 -0.7523
18637TIP3   OH277325   1.232   2.195   1.429 -0.3370  0.2799  0.1685
18637TIP3    H177326   1.169   2.123   1.434  0.2740 -0.3668 -1.1120
18637TIP3    H277327   1.243   2.223   1.520  0.6833 -2.3621  0.9320
18638TIP3   OH277328   3.129   0.266  14.692 -0.4894 -0.3793  0.1892
18638TIP3    H177329   3.042   0.227  14.683 -0.6680  0.0307  0.1146
18638TIP3    H277330   3.189   0.201  14.655 -0.7526 -0.7084  0.3405
18639TIP3   OH277331   0.278   3.372   3.472  0.3634 -0.0660  0.6440
18639TIP3    H177332   0.362   3.327   3.477  0.6068  0.2444 -0.5335
18639TIP3    H277333   0.237   3.340   3.392  0.0484  0.9562  0.3818
18640TIP3   OH277334   4.737   5.901   4.443  0.9166  0.0687  0.2522
18640TIP3    H177335   4.682   5.824   4.428  1.7508 -0.1281 -2.2872
18640TIP3    H277336   4.813   5.867   4.491 -0.0779 -0.0588  1.8223
18641TIP3   OH277337   3.956   3.800   1.984 -0.1230  0.3121 -0.0961
18641TIP3    H177338   3.928   3.723   2.034  1.9314 -0.9014 -0.7153
18641TIP3    H277339   3.955   3.771   1.893 -1.0672  1.6244 -0.5348
18642TIP3   OH277340   2.205   3.735   5.675 -0.3689  0.2947 -0.3300
18642TIP3    H177341   2.205   3.818   5.724  0.0054 -0.8901  1.7808
18642TIP3    H277342   2.287   3.692   5.699 -1.5333 -1.6557  0.4052
18643TIP3   OH277343   5.135   5.021   1.091  0.2129  0.1816  0.1396
18643TIP3    H177344   5.190   4.984   1.022 -1.5867  0.2299 -1.3980
18643TIP3    H277345   5.068   4.954   1.107 -1.6820  1.7073 -0.9933
18644TIP3   OH277346   4.034   4.559   4.801  0.3653 -0.2180  0.0549
18644TIP3    H177347   4.060   4.478   4.845  0.8745 -1.6120 -2.6102
18644TIP3    H277348   4.054   4.544   4.709 -0.5869  2.5477 -0.7088
18645TIP3   OH277349   4.418   5.531   2.663  0.6089  0.1210 -0.0174
18645TIP3    H177350   4.348   5.591   2.638 -0.0071 -1.1262 -1.4332
18645TIP3    H277351   4.423   5.468   2.591  1.4905 -1.3020  1.2149
18646TIP3   OH277352   4.271   0.765   2.269 -0.2569  0.5538 -0.2619
18646TIP3    H177353   4.202   0.723   2.219 -1.2144  1.0218  0.6314
18646TIP3    H277354   4.318   0.693   2.311 -2.1923  0.3251  1.6667
18647TIP3   OH277355   4.286   1.913  14.410 -0.3762  0.6037 -0.7475
18647TIP3    H177356   4.261   1.878  14.325 -1.8274  1.9259 -0.9053
18647TIP3    H277357   4.223   1.875  14.472 -0.6153  1.2344 -0.5944
18648TIP3   OH277358   1.962   3.264   1.380 -0.0588  0.1561  0.0995
18648TIP3    H177359   1.934   3.266   1.288 -1.1714  0.2595  0.4266
18648TIP3    H277360   2.009   3.346   1.392 -2.0290  1.3348  0.2332
18649TIP3   OH277361   2.736   0.526   4.558  0.5740 -0.2737 -0.5607
18649TIP3    H177362   2.826   0.539   4.531  0.0125  1.1836 -1.8492
18649TIP3    H277363   2.720   0.593   4.624  0.6478 -1.0651  0.2917
18650TIP3   OH277364   1.890   6.657   4.528 -0.1902 -0.0683  0.1289
18650TIP3    H177365   1.977   6.665   4.490  0.1748 -0.8772  0.7375
18650TIP3    H277366   1.832   6.702   4.467  0.3532 -1.3804 -1.4265
18651TIP3   OH277367   5.101   2.925   3.321  0.3079 -0.3413  0.1366
18651TIP3    H177368   5.046   2.907   3.244  0.0224  0.3399  0.1746
18651TIP3    H277369   5.038   2.934   3.393  0.2825  2.1205 -0.1134
18652TIP3   OH277370   6.077   5.410   0.669  0.2895  0.2913 -0.6111
18652TIP3    H177371   6.077   5.394   0.764  0.9212  0.0980 -0.6367
18652TIP3    H277372   6.040   5.329   0.632 -1.6505  1.0484 -0.4500
18653TIP3   OH277373   6.218   1.105   2.997 -0.1193 -0.5573  0.4242
18653TIP3    H177374   6.132   1.065   3.006 -0.0796 -0.6464  0.4010
18653TIP3    H277375   6.254   1.107   3.086 -0.9512  1.2702  0.7770
18654TIP3   OH277376   5.748   1.078   3.116  0.0359  0.0101  0.0939
18654TIP3    H177377   5.654   1.092   3.127 -0.4129 -1.8726 -0.9453
18654TIP3    H277378   5.769   1.120   3.032  0.3526  1.2900  0.7937
18655TIP3   OH277379   3.868   4.044  13.412 -0.1986  1.3619  0.0648
18655TIP3    H177380   3.886   3.993  13.333 -0.2434 -0.4153  1.1608
18655TIP3    H277381   3.773   4.061  13.408 -0.5486 -0.3220  0.6235
18656TIP3   OH277382   0.270   1.700   0.734  0.6769 -0.4807 -0.3586
18656TIP3    H177383   0.249   1.784   0.694  1.5188 -0.6757 -1.2481
18656TIP3    H277384   0.299   1.721   0.822  0.2544  0.0951 -0.3538
18657TIP3   OH277385   5.890   2.218   2.762 -0.0105 -0.1860 -0.1614
18657TIP3    H177386   5.827   2.147   2.764 -1.4957  1.0818  0.4547
18657TIP3    H277387   5.884   2.258   2.850 -0.1679  1.4424 -0.8709
18658TIP3   OH277388   7.130   3.043   0.242  0.0477  0.1876 -0.1224
18658TIP3    H177389   7.040   3.044   0.275  0.4978  1.0377  1.1807
18658TIP3    H277390   7.121   3.039   0.147 -1.4722  2.6502 -0.1856
18659TIP3   OH277391   3.883   4.794   2.213 -0.4563 -0.2599  0.4080
18659TIP3    H177392   3.925   4.748   2.141  0.4980 -1.2687  1.5738
18659TIP3    H277393   3.953   4.846   2.253 -1.3164  1.5464 -0.3199
18660TIP3   OH277394   1.332   1.383   3.640 -0.0833 -0.8853  0.8729
18660TIP3    H177395   1.265   1.323   3.608 -0.0477 -0.3812 -0.1902
18660TIP3    H277396   1.414   1.335   3.633 -0.4085 -2.0056  3.4420
18661TIP3   OH277397   5.738   4.497   4.287  0.1617 -0.4983 -0.2986
18661TIP3    H177398   5.829   4.513   4.262  0.0761  1.0651  0.2791
18661TIP3    H277399   5.726   4.546   4.368 -0.9074 -1.5592  0.2189
18662TIP3   OH277400   6.922   4.684   4.686 -0.0525  0.0124 -0.2281
18662TIP3    H177401   6.843   4.691   4.633 -0.8811 -0.0193  0.9797
18662TIP3    H277402   6.922   4.764   4.739  0.5692 -0.1384  0.0091
18663TIP3   OH277403   6.098   0.716   5.428  0.0123  0.0651  0.0930
18663TIP3    H177404   6.156   0.793   5.428 -1.2933  1.2131 -3.5031
18663TIP3    H277405   6.010   0.753   5.422 -0.6020 -1.6306 -2.6998
18664TIP3   OH277406   6.563   1.327  15.165  0.7319  0.2236  0.0855
18664TIP3    H177407   6.627   1.287  15.222  0.9371 -0.4577 -0.6099
18664TIP3    H277408   6.604   1.328  15.078  0.9493  2.3922  0.1449
18665TIP3   OH277409   2.748   3.014   0.356  0.4933 -0.1502  0.0671
18665TIP3    H177410   2.740   3.098   0.402  0.2669 -0.4725  0.6227
18665TIP3    H277411   2.704   3.028   0.272 -0.7697 -0.1106  0.7017
18666TIP3   OH277412   5.024   6.750   3.423  0.0416 -0.1170 -0.4100
18666TIP3    H177413   4.955   6.686   3.440 -0.2185  0.0261 -0.9057
18666TIP3    H277414   5.012   6.816   3.491  1.7095 -1.6798  1.5256
18667TIP3   OH277415   7.098   1.575   1.303 -0.0962 -0.5099  0.6478
18667TIP3    H177416   7.007   1.555   1.322 -0.6708 -0.7120 -2.0172
18667TIP3    H277417   7.095   1.638   1.231  1.8793 -0.4129  0.5867
18668TIP3   OH277418   2.323   6.718   3.189 -0.3558  0.5242 -0.1443
18668TIP3    H177419   2.416   6.736   3.201 -0.1240  0.6538 -1.8610
18668TIP3    H277420   2.312   6.715   3.094 -1.7172 -1.4521  0.0133
18669TIP3   OH277421   2.547   2.866   2.212  0.2976 -0.1654 -0.2663
18669TIP3    H177422   2.527   2.873   2.119 -1.2995  2.2692  0.1636
18669TIP3    H277423   2.639   2.892   2.219  0.7044 -1.2796 -1.2271
18670TIP3   OH277424   4.321   6.938   0.904  0.0252 -0.6027 -0.7753
18670TIP3    H177425   4.362   6.896   0.828  2.3820  1.2998 -0.6666
18670TIP3    H277426   4.391   6.943   0.969 -0.6324  1.8539 -0.1587
18671TIP3   OH277427   0.945   2.503   4.431  0.0872  0.1335 -0.2590
18671TIP3    H177428   0.947   2.537   4.342 -1.1473  1.5866  0.2400
18671TIP3    H277429   0.884   2.560   4.478 -0.7418 -1.7296  1.0559
18672TIP3   OH277430   6.956   1.512   3.630  0.1828  0.1163 -0.0320
18672TIP3    H177431   6.922   1.549   3.548 -2.4276  1.7923  1.6705
18672TIP3    H277432   6.967   1.419   3.611  0.6938  0.6159 -2.5662
18673TIP3   OH277433   0.029   7.186   0.003 -0.0796  0.1254  0.0836
18673TIP3    H177434  -0.010   7.175  -0.084 -0.6092  1.8317  0.0673
18673TIP3    H277435   0.086   7.110   0.014 -1.1286 -0.8715 -1.1425
18674TIP3   OH277436   0.391   4.188   5.606 -0.2224 -0.2242  0.0780
18674TIP3    H177437   0.433   4.251   5.548  0.0067 -1.1362 -0.7696
18674TIP3    H277438   0.449   4.185   5.683  0.6801 -0.6568 -0.6056
18675TIP3   OH277439   0.743   5.978   5.401 -0.5976  0.4266 -0.7638
18675TIP3    H177440   0.821   5.940   5.361  0.3124  1.7421 -0.3140
18675TIP3    H277441   0.741   5.941   5.489 -0.9363 -0.2037 -1.0291
18676TIP3   OH277442   2.681   3.597   2.052 -0.2679 -0.2060  0.2922
18676TIP3    H177443   2.614   3.643   2.102 -2.0100 -3.4535  1.2376
18676TIP3    H277444   2.641   3.580   1.967  0.7201  0.7805 -0.3970
18677TIP3   OH277445   0.665   0.198   4.535  0.0029  0.5668  0.3862
18677TIP3    H177446   0.730   0.212   4.467  0.4979 -1.2000  0.4500
18677TIP3    H277447   0.683   0.266   4.600  0.0821  1.7157 -0.7986
18678TIP3   OH277448   5.250   0.781   5.677 -0.0918  0.2280  0.0536
18678TIP3    H177449   5.157   0.774   5.657 -0.1944  0.2433  0.5242
18678TIP3    H277450   5.259   0.747   5.766  0.2872  0.6129  0.1699
18679TIP3   OH277451   3.399   1.007   0.366  0.4412  0.4760 -0.1724
18679TIP3    H177452   3.332   1.074   0.353  0.3336  0.6286  1.1247
18679TIP3    H277453   3.439   1.027   0.450  1.1390 -0.4715 -0.2513
18680TIP3   OH277454   6.273   6.633   3.681 -0.2669  0.5688  0.1184
18680TIP3    H177455   6.202   6.672   3.630  0.3465  0.0864 -1.1699
18680TIP3    H277456   6.310   6.566   3.623  0.0570 -0.4602  1.4661
18681TIP3   OH277457   0.637   0.570  10.895 -0.4133  0.3506  0.1549
18681TIP3    H177458   0.671   0.481  10.890  1.2118  0.8799  0.8886
18681TIP3    H277459   0.693   0.620  10.835  1.5497  1.6270  2.8605
18682TIP3   OH277460   0.660   1.710   0.485 -0.3015  0.0353  0.3290
18682TIP3    H177461   0.742   1.681   0.444 -1.0812 -0.0871 -1.2215
18682TIP3    H277462   0.619   1.629   0.514 -1.1157 -0.2018 -1.3682
18683TIP3   OH277463   1.816   6.301  11.732  0.0973 -0.2141 -0.0934
18683TIP3    H177464   1.832   6.267  11.644  0.9868 -0.8970  0.3212
18683TIP3    H277465   1.882   6.368  11.745 -1.8926  2.1127 -1.0589
18684TIP3   OH277466   4.742   3.511   2.930  0.0945 -0.4700 -0.2869
18684TIP3    H177467   4.835   3.534   2.937  0.0750 -0.3474 -0.4312
18684TIP3    H277468   4.698   3.595   2.914  0.2323 -0.8333 -3.0293
18685TIP3   OH277469   6.920   5.029   1.200 -0.0853 -0.0322 -0.5983
18685TIP3    H177470   6.936   5.088   1.126 -1.7638  0.4591 -0.6088
18685TIP3    H277471   6.875   5.083   1.265 -1.0606 -1.1063 -0.3385
18686TIP3   OH277472   6.539   4.207   2.583 -0.0642 -0.1243 -0.0072
18686TIP3    H177473   6.510   4.287   2.626  0.9155  0.2210  0.0298
18686TIP3    H277474   6.572   4.152   2.654  3.3397  1.1983 -0.3981
18687TIP3   OH277475   3.716   3.085   1.129 -0.6499  0.6430 -0.1223
18687TIP3    H177476   3.746   2.994   1.127 -0.8049  0.6085 -1.2864
18687TIP3    H277477   3.774   3.127   1.193  0.3494  0.0434 -0.6094
18688TIP3   OH277478   5.564   4.956   1.633 -0.2163 -0.3830 -0.0948
18688TIP3    H177479   5.524   4.975   1.548  0.5272 -1.4805 -0.7063
18688TIP3    H277480   5.641   5.012   1.636 -0.4094 -0.1192 -0.0063
18689TIP3   OH277481   5.645   2.911   4.433 -0.2266 -0.2084  0.7708
18689TIP3    H177482   5.734   2.878   4.445  0.2143  1.3854  2.2278
18689TIP3    H277483   5.640   2.990   4.487 -1.8766  0.9579 -0.9262
18690TIP3   OH277484   1.922   5.868   2.270 -0.2447 -0.1746  0.7392
18690TIP3    H177485   1.974   5.948   2.270  0.4931 -0.6465 -0.1943
18690TIP3    H277486   1.985   5.797   2.284 -0.8330 -0.6452  1.1115
18691TIP3   OH277487   3.409   1.611   2.265 -0.4173  0.6130 -0.1991
18691TIP3    H177488   3.504   1.611   2.280 -0.6169  1.4767  1.3252
18691TIP3    H277489   3.380   1.528   2.303 -0.3362  0.5949 -0.1748
18692TIP3   OH277490   4.748   4.429   4.399 -0.3242 -0.2875  0.2375
18692TIP3    H177491   4.690   4.357   4.423  1.3782 -1.3590  1.3679
18692TIP3    H277492   4.790   4.400   4.319 -0.8873  0.2256 -0.2522
18693TIP3   OH277493   6.119   3.638   0.111  0.9745  0.1786  0.3154
18693TIP3    H177494   6.076   3.723   0.101  0.2080 -0.3364 -0.9177
18693TIP3    H277495   6.110   3.618   0.205 -1.9532 -0.1236  0.0736
18694TIP3   OH277496   5.615   0.179   3.972  0.3842 -0.0577  0.2328
18694TIP3    H177497   5.676   0.211   4.038  1.5877 -0.8851 -0.4434
18694TIP3    H277498   5.560   0.116   4.019  0.9699 -0.3387  0.5544
18695TIP3   OH277499   5.973   1.512   1.034  0.5781  0.8110  0.5811
18695TIP3    H177500   5.944   1.483   1.120  0.8639 -0.2426  0.3300
18695TIP3    H277501   6.055   1.559   1.050  0.4691  0.8874  0.9118
18696TIP3   OH277502   6.058   1.857   3.728 -0.0044  0.2476 -0.5728
18696TIP3    H177503   6.064   1.947   3.757  1.4392  0.0101 -0.0397
18696TIP3    H277504   6.140   1.817   3.757 -0.6832 -1.2742 -0.6500
18697TIP3   OH277505   1.331   6.239   5.176  0.1946 -0.0473 -0.2389
18697TIP3    H177506   1.331   6.327   5.213 -0.6551  0.0360 -0.4311
18697TIP3    H277507   1.308   6.252   5.084 -1.6131 -0.6169  0.1037
18698TIP3   OH277508   2.061   0.294   2.733  0.3726 -0.7845 -0.6798
18698TIP3    H177509   2.154   0.314   2.721 -0.0270  0.7490 -1.3908
18698TIP3    H277510   2.052   0.203   2.704  1.6248 -0.9060 -0.7243
18699TIP3   OH277511   7.152   5.525  14.721 -1.0569 -0.0765 -0.4617
18699TIP3    H177512   7.220   5.590  14.738 -0.3657 -0.9439  0.1402
18699TIP3    H277513   7.078   5.553  14.776 -1.3783  1.1168 -1.4516
18700TIP3   OH277514   4.420   2.634   4.683 -0.2536  0.1173  0.4625
18700TIP3    H177515   4.380   2.552   4.654  0.8384 -0.6055  0.9169
18700TIP3    H277516   4.399   2.697   4.614 -0.8612 -0.6115 -0.0362
18701TIP3   OH277517   3.361   6.183   4.640 -0.0102  0.3649  0.1561
18701TIP3    H177518   3.368   6.211   4.731  0.2175 -2.2729  1.0468
18701TIP3    H277519   3.287   6.121   4.640  0.8546 -0.7143 -1.1409
18702TIP3   OH277520   4.258   6.424   1.443 -0.0356 -0.0460 -0.3373
18702TIP3    H177521   4.186   6.367   1.416  1.1389 -1.4490 -0.6452
18702TIP3    H277522   4.331   6.364   1.458  0.8386  1.2494  0.8039
18703TIP3   OH277523   5.558   3.397   5.493  1.0472 -0.1882 -0.4166
18703TIP3    H177524   5.516   3.456   5.555 -0.2183  0.7259 -2.0433
18703TIP3    H277525   5.602   3.456   5.431 -0.5472 -0.8439 -2.2973
18704TIP3   OH277526   6.714   6.339   4.257  0.0427  0.6605  0.0594
18704TIP3    H177527   6.786   6.334   4.320 -0.4580 -0.8154  0.5696
18704TIP3    H277528   6.756   6.329   4.172  0.4466 -0.3805  0.3657
18705TIP3   OH277529   4.295   0.441   4.693  0.1879 -0.6561  0.2677
18705TIP3    H177530   4.293   0.427   4.599  1.3332  1.7441 -0.1935
18705TIP3    H277531   4.323   0.357   4.729 -0.7955 -1.7829 -1.4479
18706TIP3   OH277532   4.479   2.615   5.275 -0.0173 -0.2628 -0.5488
18706TIP3    H177533   4.499   2.534   5.323 -1.3095 -1.4613 -1.9507
18706TIP3    H277534   4.464   2.680   5.344 -0.4130 -1.5678  0.6485
18707TIP3   OH277535   5.713   4.628   1.033 -0.5281  0.8691  0.1549
18707TIP3    H177536   5.677   4.542   1.053 -0.8714  1.2800  1.4190
18707TIP3    H277537   5.688   4.682   1.108  1.4225  1.5610  0.3564
18708TIP3   OH277538   5.044   6.179   5.124 -0.1463 -0.0360 -0.4007
18708TIP3    H177539   5.134   6.169   5.094 -0.0405 -0.3741  0.0182
18708TIP3    H277540   5.025   6.097   5.170 -0.6074  0.1058 -0.3357
18709TIP3   OH277541   4.217   4.087   4.454 -0.2403 -0.6325 -0.3102
18709TIP3    H177542   4.188   4.128   4.373 -3.1056 -1.1564  0.3397
18709TIP3    H277543   4.213   4.157   4.519 -2.0256 -1.0957  0.1479
18710TIP3   OH277544   2.707   6.744   1.203 -0.2199  0.1741  0.2196
18710TIP3    H177545   2.792   6.744   1.247 -0.0812 -2.1813  0.0560
18710TIP3    H277546   2.728   6.750   1.110 -0.1207 -1.7151  0.0928
18711TIP3   OH277547   4.988   2.716   2.445 -0.0763 -0.0682 -0.0349
18711TIP3    H177548   5.012   2.808   2.431 -2.4510  0.6878  0.4047
18711TIP3    H277549   4.892   2.716   2.446 -0.1372 -2.4867  0.5146
18712TIP3   OH277550   0.015   1.712  14.263  0.3803 -0.4985  0.6512
18712TIP3    H177551  -0.076   1.709  14.292  0.3140  0.8987  0.6609
18712TIP3    H277552   0.035   1.805  14.259  1.0156 -0.6685 -1.7964
18713TIP3   OH277553   0.132   6.749   5.369  0.5665  0.0576 -0.4647
18713TIP3    H177554   0.115   6.680   5.433  1.1134  0.5709  0.2609
18713TIP3    H277555   0.227   6.745   5.354  0.8642  1.5387  0.6847
18714TIP3   OH277556   0.620   4.572   2.022 -0.2574 -0.3702  0.3365
18714TIP3    H177557   0.573   4.527   1.952 -2.9180  0.3441  1.5286
18714TIP3    H277558   0.561   4.642   2.049  2.4854  2.0732  0.4947
18715TIP3   OH277559   5.850   7.092   1.397 -0.1421 -0.9678 -0.0795
18715TIP3    H177560   5.849   7.157   1.468 -3.3403 -1.7739  0.8138
18715TIP3    H277561   5.867   7.009   1.441  1.0029 -1.1226 -0.7851
18716TIP3   OH277562   5.842   0.716   5.079 -0.5794  0.1414 -0.3397
18716TIP3    H177563   5.876   0.751   4.996 -0.6107 -0.3016 -0.5429
18716TIP3    H277564   5.796   0.789   5.119 -1.2895  0.1327 -1.1107
18717TIP3   OH277565   1.819   4.610   4.319 -0.6021  0.0515  0.2922
18717TIP3    H177566   1.780   4.527   4.347  1.0350 -0.3376  1.5999
18717TIP3    H277567   1.779   4.676   4.376 -1.5325  0.1127 -0.4095
18718TIP3   OH277568   5.488   2.368   4.138  0.5613 -0.6081  0.0784
18718TIP3    H177569   5.486   2.458   4.108  1.9965 -0.7592 -0.5368
18718TIP3    H277570   5.433   2.321   4.075  1.3476 -0.4610 -0.7455
18719TIP3   OH277571   0.064   4.803   4.089 -0.4014  0.0715 -0.2143
18719TIP3    H177572   0.081   4.885   4.137  0.9796 -0.7230  0.7133
18719TIP3    H277573   0.062   4.736   4.157  0.5045 -0.9459 -1.1639
18720TIP3   OH277574   3.805   0.292   0.774  0.1735  0.1118  0.2202
18720TIP3    H177575   3.851   0.244   0.706 -1.3488  0.0281 -0.8031
18720TIP3    H277576   3.712   0.282   0.753 -0.2997  1.1669  1.5746
18721TIP3   OH277577   3.088   3.676   4.845  0.3727 -0.5631  0.5082
18721TIP3    H177578   3.032   3.621   4.790 -0.1928  0.2246  0.2642
18721TIP3    H277579   3.038   3.758   4.855  1.5748  0.2423  0.1026
18722TIP3   OH277580   4.630   4.073   2.479  0.3923  0.1037  0.1780
18722TIP3    H177581   4.568   4.142   2.502  0.0985 -0.7052  1.9763
18722TIP3    H277582   4.689   4.114   2.416 -1.1704  1.2776 -0.6116
18723TIP3   OH277583   1.856   2.366   1.792 -0.2023  0.0591 -0.7725
18723TIP3    H177584   1.950   2.357   1.806 -0.5100 -1.0673  0.8744
18723TIP3    H277585   1.848   2.422   1.715  1.8025  0.4253 -0.7570
18724TIP3   OH277586   6.145   4.137  15.047 -0.3148 -0.4713  0.2081
18724TIP3    H177587   6.219   4.129  14.986  0.2826  0.6449  0.7610
18724TIP3    H277588   6.167   4.077  15.118 -0.3423 -0.7560 -0.0230
18725TIP3   OH277589   1.058   2.448   3.552  0.6714  0.1521  0.3820
18725TIP3    H177590   1.007   2.475   3.628  0.7836 -0.7140  0.7825
18725TIP3    H277591   1.123   2.517   3.540 -0.4246  1.1404  0.0150
18726TIP3   OH277592   4.117   1.989   2.664 -0.5663 -0.2093 -0.1569
18726TIP3    H177593   4.209   1.989   2.637 -0.6157  0.0759 -0.3290
18726TIP3    H277594   4.110   2.060   2.728 -1.0497  0.9822 -1.4905
18727TIP3   OH277595   2.476   2.330   3.598  0.3700  0.0441  0.1263
18727TIP3    H177596   2.523   2.310   3.679  1.1075  0.3912 -0.2041
18727TIP3    H277597   2.420   2.405   3.621  0.4207  0.0094  0.3704
18728TIP3   OH277598   3.955   1.091   1.229  0.6974 -0.4102 -0.0136
18728TIP3    H177599   3.986   1.038   1.303 -0.2774 -1.6948 -0.4830
18728TIP3    H277600   3.904   1.030   1.176 -1.6731  1.3186  0.1231
18729TIP3   OH277601   0.274   1.493   2.822 -0.0399 -0.0717 -0.1302
18729TIP3    H177602   0.320   1.502   2.738  0.8547  0.3627  0.3887
18729TIP3    H277603   0.305   1.409   2.857 -2.0550 -1.3323 -1.1838
18730TIP3   OH277604   5.364   4.622   0.709  0.0731  0.3645  0.1303
18730TIP3    H177605   5.417   4.575   0.645  0.4734  2.4407 -1.1647
18730TIP3    H277606   5.426   4.677   0.757 -0.2553 -0.9808  2.2206
18731TIP3   OH277607   4.141   5.961   1.690  0.2959 -0.5219 -0.7491
18731TIP3    H177608   4.168   5.870   1.679  1.2692 -0.5447  1.3107
18731TIP3    H277609   4.048   5.956   1.712  0.3962 -1.0568 -0.4288
18732TIP3   OH277610   2.253   0.320   3.580  0.3076 -0.6108  0.2093
18732TIP3    H177611   2.188   0.389   3.595 -0.1476 -1.3513  1.7984
18732TIP3    H277612   2.337   0.365   3.584 -0.0157 -0.0090  0.4196
18733TIP3   OH277613   6.944   3.774   0.552 -0.2619  0.0221 -0.0568
18733TIP3    H177614   6.938   3.681   0.529  0.5635  0.1480 -0.8166
18733TIP3    H277615   6.853   3.805   0.549 -0.2435  0.2413 -4.1675
18734TIP3   OH277616   3.888   5.216   3.547 -0.4162  0.2955  0.0376
18734TIP3    H177617   3.801   5.241   3.515 -0.5938  0.1361  0.4006
18734TIP3    H277618   3.884   5.121   3.555 -1.1175  0.4756  2.6708
18735TIP3   OH277619   5.324   5.802   3.082 -0.1409  0.0454  0.1403
18735TIP3    H177620   5.267   5.872   3.113 -1.2804 -1.0219  0.4762
18735TIP3    H277621   5.357   5.760   3.161 -1.0802 -1.0832 -0.0366
18736TIP3   OH277622   5.757   2.785   1.071 -0.0117  0.3264 -0.2801
18736TIP3    H177623   5.796   2.797   1.157 -0.8689  2.5851 -0.1455
18736TIP3    H277624   5.663   2.782   1.088 -0.2245  1.3979 -1.1702
18737TIP3   OH277625   0.370   1.837   2.643  0.2077  0.1662  0.5098
18737TIP3    H177626   0.383   1.743   2.637  2.5644  0.4607 -0.2652
18737TIP3    H277627   0.276   1.850   2.638 -0.3514 -2.2525  2.5949
18738TIP3   OH277628   6.007   3.667   2.835 -0.0817  0.3550 -0.1297
18738TIP3    H177629   6.077   3.731   2.823 -0.7178  0.9876 -0.5257
18738TIP3    H277630   5.966   3.690   2.918  0.2869 -0.1222  0.1874
18739TIP3   OH277631   3.646   6.898   5.097 -0.5210  0.0394  0.1139
18739TIP3    H177632   3.700   6.832   5.142  0.6304  0.1614 -1.0134
18739TIP3    H277633   3.563   6.853   5.080  0.1628 -1.0913 -0.4365
18740TIP3   OH277634   4.935   5.052   2.450  0.2002  0.3441 -0.5606
18740TIP3    H177635   4.986   4.973   2.470  0.9718  0.8244 -0.5877
18740TIP3    H277636   4.900   5.037   2.362 -0.5931 -0.4382 -0.1267
18741TIP3   OH277637   0.319   5.459   4.916  0.1677  0.0368 -0.4807
18741TIP3    H177638   0.302   5.540   4.869 -0.5367 -0.0717 -0.4219
18741TIP3    H277639   0.324   5.485   5.008 -0.8065 -0.0811 -0.3820
18742TIP3   OH277640   5.848   3.955   5.027  0.5935 -0.3523  0.3555
18742TIP3    H177641   5.925   3.913   4.988 -0.9314 -2.0926 -0.9499
18742TIP3    H277642   5.812   3.889   5.086  0.6286  0.8189  1.7315
18743TIP3   OH277643   2.450   5.777   4.350 -0.2936 -0.3339 -0.2232
18743TIP3    H177644   2.407   5.847   4.398  0.0066 -0.3766  0.1108
18743TIP3    H277645   2.388   5.754   4.281 -0.0083  0.9069 -0.9368
18744TIP3   OH277646   1.084   7.007   4.659 -0.3730  0.5155 -0.5800
18744TIP3    H177647   1.132   7.090   4.653  0.8892  0.0021  1.4029
18744TIP3    H277648   1.123   6.963   4.735 -0.7857 -2.0515 -1.7656
18745TIP3   OH277649   2.975   4.068   0.117 -0.0319  0.0181  0.0475
18745TIP3    H177650   3.070   4.076   0.124  0.0486 -0.2658 -0.6549
18745TIP3    H277651   2.960   4.029   0.031 -0.8150  0.7338 -0.1572
18746TIP3   OH277652   3.164   3.979   5.105  0.3100  0.0852  0.3864
18746TIP3    H177653   3.074   3.965   5.132  0.3338  0.1119  0.4804
18746TIP3    H277654   3.158   4.024   5.020  0.2397  1.0141  0.8747
18747TIP3   OH277655   2.135   3.027   2.962  0.1984  0.2970 -0.4526
18747TIP3    H177656   2.042   3.035   2.983  0.4285  0.1708  0.6458
18747TIP3    H277657   2.177   3.008   3.046  1.2850  0.9219 -0.8413
18748TIP3   OH277658   0.183   0.316   1.523 -0.3926 -0.4405  0.3096
18748TIP3    H177659   0.271   0.354   1.523 -0.5658 -0.0233  0.0806
18748TIP3    H277660   0.141   0.354   1.601  0.0195 -1.5836  1.1008
18749TIP3   OH277661   0.031   1.953   4.865  0.4088  0.0890 -0.3487
18749TIP3    H177662  -0.016   2.034   4.882 -1.0483 -0.2462 -2.4148
18749TIP3    H277663  -0.031   1.899   4.816  2.0656 -1.4230 -0.8980
18750TIP3   OH277664   5.307   4.820   3.871  0.2354  0.1780 -0.3777
18750TIP3    H177665   5.257   4.898   3.893  0.6575  0.4215 -0.2753
18750TIP3    H277666   5.342   4.790   3.955 -0.7620 -0.7115 -0.2581
18751TIP3   OH277667   3.837   6.309   4.249  0.2226 -0.1322 -0.3485
18751TIP3    H177668   3.803   6.389   4.210  1.3811 -0.0994 -1.3478
18751TIP3    H277669   3.802   6.309   4.339 -0.2424  1.1899 -0.5107
18752TIP3   OH277670   3.708   7.039   3.085  0.2291  0.1648  0.1927
18752TIP3    H177671   3.797   7.015   3.057  1.0399  1.6003  1.3500
18752TIP3    H277672   3.698   6.996   3.171 -0.1975  0.0075  0.0658
18753TIP3   OH277673   6.721   5.008   3.832 -0.0638 -0.0624  0.0541
18753TIP3    H177674   6.812   4.981   3.838  0.1211  0.6343  0.5048
18753TIP3    H277675   6.701   5.006   3.739  0.2906 -0.6184 -0.0102
18754TIP3   OH277676   0.307   2.402   0.548 -0.0792  0.6598 -0.7580
18754TIP3    H177677   0.328   2.459   0.474  0.7590  1.2524 -0.0883
18754TIP3    H277678   0.386   2.402   0.602 -0.8770  0.7431  0.4612
18755TIP3   OH277679   3.941   0.641   3.592 -0.3689  0.6902 -0.7117
18755TIP3    H177680   3.994   0.662   3.668 -0.0700 -2.5635  0.1412
18755TIP3    H277681   3.850   0.651   3.622 -0.2508 -0.4224  0.0745
18756TIP3   OH277682   5.510   6.744  14.354  0.0804 -0.1063 -0.4671
18756TIP3    H177683   5.587   6.700  14.318  0.2775  0.0948 -0.2975
18756TIP3    H277684   5.441   6.678  14.354  0.3748 -0.4149 -0.2100
18757TIP3   OH277685   4.506   3.558   5.422 -0.3755  0.1361  0.0356
18757TIP3    H177686   4.439   3.587   5.360 -0.3942  0.7330  0.3245
18757TIP3    H277687   4.458   3.510   5.489 -0.6407  1.2409  0.6668
18758TIP3   OH277688   5.223   0.989   3.658  0.6081  0.5022  0.0678
18758TIP3    H177689   5.139   1.033   3.668 -1.1411 -2.1778 -1.6212
18758TIP3    H277690   5.222   0.921   3.725  0.4215 -0.9177 -1.3331
18759TIP3   OH277691   2.639   0.188   1.875  0.3807  0.3663 -0.3150
18759TIP3    H177692   2.597   0.132   1.939  0.3470  0.3722 -0.3320
18759TIP3    H277693   2.733   0.179   1.892  0.5288 -1.4933 -1.8011
18760TIP3   OH277694   2.799   5.340   3.681 -0.8308 -0.6051 -0.1422
18760TIP3    H177695   2.867   5.285   3.643 -1.0544  0.1039 -1.6173
18760TIP3    H277696   2.817   5.339   3.775  1.5915  0.0820 -0.5476
18761TIP3   OH277697   6.579   4.140   2.885  0.2765  0.6457 -0.0385
18761TIP3    H177698   6.558   4.158   2.976 -2.2904 -1.2931 -0.1221
18761TIP3    H277699   6.499   4.103   2.848  1.8180 -0.5518 -2.5386
18762TIP3   OH277700   1.707   1.584  15.030  0.2461  0.3364  0.0757
18762TIP3    H177701   1.652   1.628  15.095 -0.8529 -1.1303  0.1975
18762TIP3    H277702   1.790   1.568  15.074 -0.2767 -0.0902  0.9199
18763TIP3   OH277703   1.781   4.978   5.200 -0.3218  0.0355 -0.2650
18763TIP3    H177704   1.874   4.997   5.188 -0.6702  2.3113  0.2435
18763TIP3    H277705   1.738   5.018   5.124 -1.0639  0.9779  0.6100
18764TIP3   OH277706   2.608   6.114  10.937 -0.3130 -0.3052 -0.0386
18764TIP3    H177707   2.629   6.078  10.851 -1.5525  0.7454 -0.8029
18764TIP3    H277708   2.603   6.037  10.994  1.7994 -0.9076 -0.5801
18765TIP3   OH277709   4.609   0.874   4.158  0.2421  0.1107 -0.3120
18765TIP3    H177710   4.541   0.936   4.184  0.0309 -0.0555 -0.4597
18765TIP3    H277711   4.564   0.790   4.153  0.6165 -0.1420  0.3192
18766TIP3   OH277712   5.415   6.496   3.709 -0.4402 -0.6042  0.1198
18766TIP3    H177713   5.377   6.444   3.638  0.7822 -0.4559 -0.6732
18766TIP3    H277714   5.457   6.433   3.766 -0.3206 -0.6119  0.0223
18767TIP3   OH277715   0.646   3.172   2.593  0.3005  0.6643 -0.0056
18767TIP3    H177716   0.622   3.132   2.510  1.1345  0.2645 -0.0645
18767TIP3    H277717   0.735   3.143   2.609  0.8134  2.2044  0.1414
18768TIP3   OH277718   0.202   4.544   2.782  0.0920 -0.1002  0.2157
18768TIP3    H177719   0.258   4.577   2.853 -2.9074  2.4685  1.6277
18768TIP3    H277720   0.184   4.621   2.728 -0.6912 -1.2383 -1.2326
18769TIP3   OH277721   5.047   4.742   4.146 -0.3680 -0.2840  0.0555
18769TIP3    H177722   4.952   4.754   4.140 -0.5029 -0.9366  0.7348
18769TIP3    H277723   5.059   4.647   4.138  0.1933 -0.2376  0.3477
18770TIP3   OH277724   0.672   2.306   3.218  0.1802 -0.6074  0.1015
18770TIP3    H177725   0.668   2.342   3.130  0.0945  0.0482  0.3655
18770TIP3    H277726   0.598   2.245   3.223 -1.2392  1.0766  0.4578
18771TIP3   OH277727   5.478   6.703   0.113 -0.0006  0.3682  0.2930
18771TIP3    H177728   5.507   6.628   0.166 -1.1793 -1.1881 -1.1762
18771TIP3    H277729   5.512   6.780   0.160 -0.2586 -0.9619  2.8124
18772TIP3   OH277730   5.423   4.004   0.666 -0.3755  0.0775  0.5046
18772TIP3    H177731   5.510   4.041   0.681 -0.5405  0.1290  1.3949
18772TIP3    H277732   5.373   4.074   0.623 -0.2918  0.4282  0.9705
18773TIP3   OH277733   0.168   0.049   3.386 -0.1600 -0.6022  0.6540
18773TIP3    H177734   0.123  -0.030   3.416 -0.0707 -1.2700 -0.8801
18773TIP3    H277735   0.259   0.038   3.414  0.2798 -1.9625 -1.0933
18774TIP3   OH277736   3.988   1.463  10.540  0.1486 -0.3152  0.4891
18774TIP3    H177737   3.899   1.453  10.574  0.4111  0.2601  1.3810
18774TIP3    H277738   3.991   1.406  10.463  0.2536 -3.7468  2.8218
18775TIP3   OH277739   1.548   0.234  14.183 -0.1294  0.1819 -0.2896
18775TIP3    H177740   1.586   0.239  14.095 -0.3752  0.6709 -0.3666
18775TIP3    H277741   1.604   0.171  14.229  0.7584  0.8551 -0.4184
18776TIP3   OH277742   6.978   6.415  14.327  0.3809  0.9124  0.4716
18776TIP3    H177743   7.065   6.377  14.339 -0.0418 -0.5655 -0.8683
18776TIP3    H277744   6.978   6.448  14.237 -0.6728  0.2241  0.2023
18777TIP3   OH277745   4.322   5.514   2.954 -0.6152 -0.6464  0.1729
18777TIP3    H177746   4.248   5.452   2.957 -1.8087  0.6955 -0.2269
18777TIP3    H277747   4.347   5.517   2.862 -0.1262 -1.0031  0.2894
18778TIP3   OH277748   5.614   1.961   3.528 -0.3457 -0.3287 -0.7442
18778TIP3    H177749   5.597   2.000   3.442 -2.1394  0.2899 -0.1504
18778TIP3    H277750   5.690   2.010   3.561 -0.0357 -0.1405 -1.7094
18779TIP3   OH277751   3.535   4.008   4.784  0.0134 -0.3312  0.5718
18779TIP3    H177752   3.447   3.978   4.804  0.0335 -0.8567 -0.1030
18779TIP3    H277753   3.588   3.976   4.857  0.1415 -2.4975 -0.3906
18780TIP3   OH277754   0.671   2.000   4.317 -0.0242 -0.2888 -0.2308
18780TIP3    H177755   0.604   2.034   4.257 -0.6082 -0.4725  0.2999
18780TIP3    H277756   0.746   2.057   4.305 -1.3053  1.9280  1.4166
18781TIP3   OH277757   3.457   6.887  15.338  0.5031  0.6934  0.0378
18781TIP3    H177758   3.505   6.824  15.391  0.5201  0.2460 -0.5013
18781TIP3    H277759   3.393   6.835  15.289  1.4963  0.8700 -1.5254
18782TIP3   OH277760   1.068   3.092   4.552  0.5049  0.2459  0.2325
18782TIP3    H177761   1.119   3.103   4.471 -0.3051  0.8910 -0.2097
18782TIP3    H277762   0.977   3.097   4.523  0.1490 -1.8220  0.8846
18783TIP3   OH277763   0.996   4.925   5.279 -0.6051  0.1706  0.1103
18783TIP3    H177764   1.012   4.836   5.310  1.5582  1.0343  1.7585
18783TIP3    H277765   1.062   4.940   5.211  0.4332  1.1323  1.2746
18784TIP3   OH277766   0.219   2.421   4.239  0.0240 -0.4959 -0.2508
18784TIP3    H177767   0.164   2.481   4.290 -1.2291 -1.4462 -0.4125
18784TIP3    H277768   0.210   2.337   4.284  1.1061 -0.7506 -0.4859
18785TIP3   OH277769   4.358   4.542   5.762 -0.2376  0.4016  0.0920
18785TIP3    H177770   4.273   4.499   5.762  0.4258 -0.9433  0.4466
18785TIP3    H277771   4.345   4.620   5.815 -1.6329  1.0475 -1.1209
18786TIP3   OH277772   3.460   5.643   2.653  0.0163  0.6779 -0.3261
18786TIP3    H177773   3.542   5.690   2.667 -0.2499  0.9357  0.3860
18786TIP3    H277774   3.475   5.556   2.690 -0.0012  0.6956 -0.2771
18787TIP3   OH277775   6.610   2.164   0.138  0.0100  0.1868 -0.1088
18787TIP3    H177776   6.601   2.121   0.223  0.1897 -1.4068 -0.8557
18787TIP3    H277777   6.521   2.191   0.115 -0.1682 -0.1215  0.2161
18788TIP3   OH277778   6.877   3.499   0.489  0.1095 -0.3191 -0.4591
18788TIP3    H177779   6.822   3.533   0.417  0.9839  0.5200 -0.7484
18788TIP3    H277780   6.956   3.468   0.445 -0.1615 -1.6552 -0.0555
18789TIP3   OH277781   6.522   4.515  14.791  0.3328 -0.1505 -0.0014
18789TIP3    H177782   6.435   4.550  14.808  0.1293 -0.7392  0.2034
18789TIP3    H277783   6.553   4.485  14.876  0.9919  0.6055  0.0388
18790TIP3   OH277784   2.516   1.590   0.848 -0.1608  0.0279 -0.3592
18790TIP3    H177785   2.442   1.645   0.823  0.4020  1.0912  0.2153
18790TIP3    H277786   2.588   1.620   0.793 -0.0154 -0.6221 -0.5289
18791TIP3   OH277787   4.247   0.901   1.676 -0.2685  0.2007  0.4047
18791TIP3    H177788   4.322   0.960   1.665 -1.6304  1.5898 -2.2426
18791TIP3    H277789   4.193   0.945   1.742 -1.4653  2.2998 -1.8169
18792TIP3   OH277790   3.843   2.849   1.082 -0.3708  0.4825 -0.1815
18792TIP3    H177791   3.904   2.894   1.024 -0.7725 -0.8981 -1.7769
18792TIP3    H277792   3.894   2.775   1.117 -0.3224  0.9415  0.7477
18793TIP3   OH277793   3.553   0.699   4.761 -0.2273  0.0583  0.3283
18793TIP3    H177794   3.565   0.755   4.838  1.3402 -0.5720  0.5834
18793TIP3    H277795   3.591   0.749   4.689  0.9943 -0.5333  0.5221
18794TIP3   OH277796   7.142   4.368   4.866 -0.4683  0.0286  0.2875
18794TIP3    H177797   7.237   4.377   4.865 -0.3794 -0.8301  0.2251
18794TIP3    H277798   7.112   4.424   4.795  0.1256 -1.0003 -0.8198
18795TIP3   OH277799   0.456   1.234   1.647  0.4231  0.2386  0.2946
18795TIP3    H177800   0.441   1.150   1.603  1.2014 -0.6613  1.6656
18795TIP3    H277801   0.406   1.228   1.729  1.7859  0.4105  1.1788
18796TIP3   OH277802   4.755   1.318  14.870 -0.1320 -0.3445 -0.2656
18796TIP3    H177803   4.750   1.347  14.961 -2.0142 -0.4813 -0.2825
18796TIP3    H277804   4.807   1.238  14.873  2.1006  1.0055  0.2695
18797TIP3   OH277805   5.035   3.995   1.483  0.5238 -0.2592 -0.4629
18797TIP3    H177806   4.952   3.956   1.457 -0.6558  0.6314  1.6627
18797TIP3    H277807   5.085   4.001   1.402 -1.1966 -1.4699 -1.6963
18798TIP3   OH277808   0.752   4.478   2.261  0.1925 -0.2628 -0.3007
18798TIP3    H177809   0.681   4.454   2.202  0.1624  1.1271 -0.8444
18798TIP3    H277810   0.778   4.566   2.234  2.0949 -0.7176 -0.0881
18799TIP3   OH277811   3.846   4.851   0.832 -0.4907  0.2815  0.3805
18799TIP3    H177812   3.848   4.762   0.797  0.1379  0.1034  0.8419
18799TIP3    H277813   3.863   4.840   0.925 -0.2614  0.8990  0.4141
18800TIP3   OH277814   2.077   6.935   4.293 -0.1429 -0.1846 -0.0245
18800TIP3    H177815   2.088   7.018   4.340  1.0966  0.6668 -1.6929
18800TIP3    H277816   2.157   6.886   4.313  0.6282  0.3837 -1.5198
18801TIP3   OH277817   5.413   1.742   4.038  0.2204  0.4615  0.0987
18801TIP3    H177818   5.386   1.705   3.954  0.6093  0.0615  0.1409
18801TIP3    H277819   5.504   1.714   4.048  0.1862  0.5301  0.6392
18802TIP3   OH277820   3.589   1.834   5.265 -1.5719  0.3475 -0.2501
18802TIP3    H177821   3.684   1.847   5.262 -1.5313  0.0835 -0.1698
18802TIP3    H277822   3.578   1.741   5.246 -1.8264  0.4164 -0.4376
18803TIP3   OH277823   1.233   2.284   3.376 -0.3474 -0.2361 -0.2881
18803TIP3    H177824   1.166   2.275   3.444  0.1997  1.3294  0.5109
18803TIP3    H277825   1.184   2.294   3.295 -1.2767  3.2653  0.5483
18804TIP3   OH277826   0.727   4.086   4.146  0.7836  0.6982 -0.2643
18804TIP3    H177827   0.740   4.174   4.109  1.0514  1.0144  0.5701
18804TIP3    H277828   0.677   4.101   4.226  1.9377  0.2152  0.5657
18805TIP3   OH277829   1.009   1.241   1.935  0.3366  0.3299 -0.3675
18805TIP3    H177830   1.010   1.152   1.900 -0.8147  0.7030 -1.4172
18805TIP3    H277831   0.986   1.230   2.027  2.2723 -0.5879  0.0737
18806TIP3   OH277832   1.773   0.149   4.698 -0.3288  0.2736 -0.4443
18806TIP3    H177833   1.749   0.205   4.624 -2.4397  1.8131  1.2440
18806TIP3    H277834   1.740   0.197   4.774 -0.3039 -2.3075  1.2889
18807TIP3   OH277835   6.752   0.410   4.255 -0.5926 -0.3652  0.3610
18807TIP3    H177836   6.807   0.434   4.180  0.4606 -0.0079  1.2324
18807TIP3    H277837   6.758   0.315   4.259  0.0295 -0.3228  0.4950
18808TIP3   OH277838   5.190   3.961   4.180 -0.3042 -0.3683  0.3398
18808TIP3    H177839   5.181   3.914   4.097 -1.1640  1.1035 -0.4510
18808TIP3    H277840   5.228   4.046   4.155  1.6367 -0.7463  1.7740
18809TIP3   OH277841   5.188   1.485   1.197  0.0694  0.2634  0.4603
18809TIP3    H177842   5.182   1.578   1.219 -0.5846  0.7311 -1.4633
18809TIP3    H277843   5.272   1.457   1.233 -0.6807  0.9887  3.0159
18810TIP3   OH277844   7.166   6.924   4.344  0.4276  0.3893  0.0500
18810TIP3    H177845   7.073   6.939   4.360  0.4083 -1.4908  2.2799
18810TIP3    H277846   7.168   6.857   4.276  0.1943  0.7386 -0.3111
18811TIP3   OH277847   6.920   2.532  12.329 -0.2330 -0.4366 -0.8563
18811TIP3    H177848   6.929   2.615  12.283 -0.2310  0.2942  0.4173
18811TIP3    H277849   6.997   2.481  12.301 -0.7043 -0.3816 -2.3272
18812TIP3   OH277850   6.376   6.456   5.635  0.2532 -0.1190 -0.4077
18812TIP3    H177851   6.409   6.462   5.545  2.4516 -0.3695  0.3354
18812TIP3    H277852   6.425   6.523   5.683 -1.8962  0.9983  0.3803
18813TIP3   OH277853   3.599   3.743   4.649  0.1963  0.3691 -0.4283
18813TIP3    H177854   3.545   3.693   4.710 -0.3634  0.0467 -1.1743
18813TIP3    H277855   3.536   3.795   4.598  0.5819  0.0664 -1.2355
18814TIP3   OH277856   4.161   2.056   2.973 -0.3328 -0.0689  0.0104
18814TIP3    H177857   4.195   2.145   2.963 -1.3894  0.0463 -4.0459
18814TIP3    H277858   4.066   2.065   2.966 -0.4794 -1.5179 -0.2876
18815TIP3   OH277859   2.121   5.013   4.050 -0.0422  0.1574 -0.4811
18815TIP3    H177860   2.090   5.102   4.036 -1.3544  0.2327  2.1688
18815TIP3    H277861   2.089   4.990   4.138  3.3672 -1.6044  0.4772
18816TIP3   OH277862   6.439   5.024   4.321 -0.1115 -0.7303  0.4836
18816TIP3    H177863   6.482   5.025   4.235  0.4005 -0.9347  0.7304
18816TIP3    H277864   6.399   5.110   4.329 -0.4620 -0.8295 -0.1062
18817TIP3   OH277865   1.164   2.806   1.033  0.1779 -0.5230 -0.1742
18817TIP3    H177866   1.213   2.854   0.965 -1.6751  0.2405 -1.0614
18817TIP3    H277867   1.129   2.730   0.988 -0.4191 -0.4262  0.1122
18818TIP3   OH277868   3.333   6.408   1.528  0.1058  0.1656  0.2654
18818TIP3    H177869   3.262   6.351   1.499  0.4029 -0.6584  1.1258
18818TIP3    H277870   3.356   6.376   1.615  0.1691  1.7036  0.8398
18819TIP3   OH277871   3.289   3.143   3.210  0.6294 -0.0304  0.1660
18819TIP3    H177872   3.336   3.153   3.293  0.2330  0.3465  0.3471
18819TIP3    H277873   3.207   3.101   3.235  0.4980  0.1111 -0.0368
18820TIP3   OH277874   4.129   3.835   4.378  0.4523 -0.1356 -0.2716
18820TIP3    H177875   4.174   3.919   4.386 -1.6379  0.9815  0.2795
18820TIP3    H277876   4.055   3.841   4.438 -0.8887 -1.5993 -1.6696
18821TIP3   OH277877   0.225   6.197   3.012 -0.2021  0.3643 -0.4002
18821TIP3    H177878   0.153   6.162   3.063  0.5982  2.1058  2.1282
18821TIP3    H277879   0.303   6.154   3.047  0.2284  0.3386 -1.3555
18822TIP3   OH277880   5.396   0.775   4.891  0.0781 -0.1036  0.2680
18822TIP3    H177881   5.385   0.693   4.844 -0.5188 -0.3994  0.8955
18822TIP3    H277882   5.489   0.796   4.883  0.3155 -1.0452  0.4263
18823TIP3   OH277883   1.725   4.559   2.001 -0.2601 -0.1168  0.3883
18823TIP3    H177884   1.694   4.468   2.004 -0.1558 -0.2646 -1.6103
18823TIP3    H277885   1.794   4.563   2.066  0.2999 -1.7138 -0.0585
18824TIP3   OH277886   4.479   0.520   5.157  0.0419 -0.5550  0.6065
18824TIP3    H177887   4.521   0.476   5.083  0.5134  3.3289 -1.6625
18824TIP3    H277888   4.520   0.480   5.234  1.5759 -2.8472 -1.2365
18825TIP3   OH277889   4.073   5.960   3.934  0.2961  0.6879 -0.1447
18825TIP3    H177890   4.165   5.977   3.957  0.2583 -0.4792  0.9888
18825TIP3    H277891   4.078   5.914   3.851  1.1160 -3.1328  1.7790
18826TIP3   OH277892   0.754   3.190   3.937  0.9326 -0.4234 -0.5182
18826TIP3    H177893   0.768   3.126   4.006  0.5202 -0.8786 -0.8506
18826TIP3    H277894   0.666   3.226   3.954  0.9922 -0.2485 -0.5712
18827TIP3   OH277895   6.123   4.447   5.104 -0.4700  0.2639  0.2387
18827TIP3    H177896   6.173   4.482   5.179  0.0590  1.7442 -0.7469
18827TIP3    H277897   6.105   4.356   5.128  0.9499  0.2647  1.5319
18828TIP3   OH277898   1.745   0.965   4.697 -0.0368  0.7864  0.3799
18828TIP3    H177899   1.740   1.001   4.786 -1.1919 -0.3785  0.8356
18828TIP3    H277900   1.779   0.876   4.710  0.9652  1.0252 -0.4997
18829TIP3   OH277901   4.580   2.031  12.137  0.1876 -0.0385 -0.1547
18829TIP3    H177902   4.670   2.048  12.164 -0.0573 -0.1239  0.7295
18829TIP3    H277903   4.576   1.936  12.122  0.0221 -0.1604  0.6480
18830TIP3   OH277904   4.428   4.117   4.822 -0.2333  0.1501 -0.2319
18830TIP3    H177905   4.367   4.061   4.774 -1.8682  1.1719  0.5612
18830TIP3    H277906   4.426   4.082   4.911 -0.3282  0.7198 -0.0097
18831TIP3   OH277907   3.266   1.284   3.560 -0.4523 -0.3746 -0.3005
18831TIP3    H177908   3.350   1.302   3.519 -0.4325 -2.9139 -1.5589
18831TIP3    H277909   3.288   1.262   3.651 -0.0512  1.1536  0.0065
18832TIP3   OH277910   5.740   3.531   5.007 -1.0116 -0.3077 -0.1303
18832TIP3    H177911   5.652   3.557   4.981 -0.9113  0.7445  0.5606
18832TIP3    H277912   5.763   3.461   4.945 -2.8882 -1.6477  0.5870
18833TIP3   OH277913   0.412   5.446   4.251 -0.2692  0.3949 -0.8672
18833TIP3    H177914   0.491   5.422   4.202  0.5963  1.1613  0.1194
18833TIP3    H277915   0.340   5.404   4.202  0.9148 -2.2271 -0.5357
18834TIP3   OH277916   5.863   0.230   2.032 -0.1277 -0.2988  0.3287
18834TIP3    H177917   5.839   0.216   2.124 -1.7253  0.0768 -0.0026
18834TIP3    H277918   5.902   0.317   2.030 -1.0710  0.1434  0.5044
18835TIP3   OH277919   0.646   1.146   3.459  0.4398 -0.2943 -0.0462
18835TIP3    H177920   0.565   1.101   3.481  1.8499 -2.7069  0.5464
18835TIP3    H277921   0.658   1.211   3.529  0.1433 -1.4751  1.1355
18836TIP3   OH277922   0.019   4.117   5.452  0.1684 -0.2500  0.5660
18836TIP3    H177923   0.102   4.080   5.484 -1.2271 -2.7543  1.5558
18836TIP3    H277924   0.005   4.195   5.506  1.9467  0.3451  0.2323
18837TIP3   OH277925   6.818   3.286   1.914 -0.0042 -0.6767  0.7047
18837TIP3    H177926   6.814   3.333   1.997 -0.2540 -1.5767  1.2109
18837TIP3    H277927   6.745   3.225   1.917  0.9263 -1.8251  0.5062
18838TIP3   OH277928   1.787   1.190   1.131  0.0185  0.2520 -0.8820
18838TIP3    H177929   1.825   1.109   1.164  0.3711  0.8671  0.2763
18838TIP3    H277930   1.790   1.180   1.036  2.7082  0.0693 -0.8610
18839TIP3   OH277931   2.680   2.057   4.624 -0.0529  0.2636  0.2347
18839TIP3    H177932   2.624   1.995   4.670 -0.5583  1.1853  0.8839
18839TIP3    H277933   2.694   2.128   4.686  0.9073  0.5879 -0.3254
18840TIP3   OH277934   2.188   4.746   5.013  0.2035 -0.2328  0.2725
18840TIP3    H177935   2.126   4.816   4.996  0.3697 -0.0624  0.3569
18840TIP3    H277936   2.225   4.725   4.927 -2.1455 -2.4366 -0.3243
18841TIP3   OH277937   4.639   2.472   3.858 -0.2215 -0.3010  0.5323
18841TIP3    H177938   4.620   2.554   3.904  0.5775  0.1507  0.0738
18841TIP3    H277939   4.728   2.449   3.884  0.4042  0.1668 -1.0481
18842TIP3   OH277940   0.843   1.111   1.249 -0.3773 -0.3300 -0.2940
18842TIP3    H177941   0.813   1.034   1.298 -1.2499 -0.2332 -0.6544
18842TIP3    H277942   0.779   1.179   1.271  0.3955  0.3054  0.0325
18843TIP3   OH277943   4.559   1.265  14.680  0.7127 -0.4637  0.2519
18843TIP3    H177944   4.617   1.271  14.756  0.1624  1.2940  0.5791
18843TIP3    H277945   4.482   1.316  14.705  0.1892 -0.5011 -1.2076
18844TIP3   OH277946   5.211   2.104   3.480  0.0169  0.0919  0.3835
18844TIP3    H177947   5.250   2.020   3.459 -0.9543 -0.2633 -0.0644
18844TIP3    H277948   5.120   2.084   3.501 -0.1525  0.9932  0.5523
18845TIP3   OH277949   1.766   1.351   5.356 -0.2811 -0.2474 -0.6908
18845TIP3    H177950   1.710   1.380   5.428 -1.0508  1.7992 -2.0261
18845TIP3    H277951   1.710   1.296   5.302  0.0431 -1.0468 -0.2399
18846TIP3   OH277952   6.937   2.332   1.090 -0.2200  0.0414 -0.6722
18846TIP3    H177953   7.010   2.394   1.090 -0.2242  0.0538 -0.1941
18846TIP3    H277954   6.949   2.280   1.011  0.9959 -0.7386 -0.0184
18847TIP3   OH277955   3.867   5.664   4.009 -0.3006  1.1939  0.0212
18847TIP3    H177956   3.820   5.748   4.005 -0.4757  1.0463 -2.1376
18847TIP3    H277957   3.808   5.606   4.057 -0.6710  1.9839  0.5524
18848TIP3   OH277958   4.846   3.400  13.150  0.0747 -0.5598 -0.1314
18848TIP3    H177959   4.907   3.468  13.179  0.0747  0.3822 -2.1545
18848TIP3    H277960   4.779   3.447  13.100 -0.0038 -2.0123 -1.4909
18849TIP3   OH277961   5.810   0.646   3.946 -0.3121  0.5459  0.1963
18849TIP3    H177962   5.892   0.597   3.939 -2.4122 -3.1156 -2.3478
18849TIP3    H277963   5.812   0.708   3.874  1.0280  2.1368  1.5096
18850TIP3   OH277964   1.040   1.470   3.433  0.4104  0.0594 -0.2288
18850TIP3    H177965   1.030   1.443   3.524  0.1670  0.9857  0.0353
18850TIP3    H277966   0.964   1.526   3.417 -0.1566 -0.9739 -1.3503
18851TIP3   OH277967   4.035   5.782   3.716 -0.5767 -0.2853  0.1794
18851TIP3    H177968   4.088   5.733   3.654 -0.6536 -0.1285 -0.0112
18851TIP3    H277969   4.005   5.717   3.779  1.4700 -0.0680  1.4479
18852TIP3   OH277970   1.406   1.727   2.193 -0.1637 -0.4445  0.0475
18852TIP3    H177971   1.413   1.804   2.137 -3.4800 -1.3980 -1.9284
18852TIP3    H277972   1.358   1.663   2.141  0.8435 -3.2572  2.2645
18853TIP3   OH277973   7.157   4.385   2.098 -0.7160 -0.4814 -0.2386
18853TIP3    H177974   7.234   4.432   2.128 -0.7866  0.0369 -0.8461
18853TIP3    H277975   7.185   4.294   2.091 -0.0093 -0.2172 -0.9446
18854TIP3   OH277976   3.865   6.848   3.458 -0.0292  0.5168  0.5233
18854TIP3    H177977   3.936   6.841   3.395  0.8420 -2.3045  1.6704
18854TIP3    H277978   3.906   6.831   3.543 -1.9328 -0.3887  1.3209
18855TIP3   OH277979   0.108   1.025   4.542 -0.3077  0.0167 -0.0823
18855TIP3    H177980   0.041   0.997   4.479 -0.4739 -0.1721  0.1770
18855TIP3    H277981   0.065   1.017   4.627  0.8511 -2.6421  0.3279
18856TIP3   OH277982   5.186   2.681   5.389  0.1051  0.1816  0.2861
18856TIP3    H177983   5.251   2.634   5.337 -0.4806 -0.2829 -0.0324
18856TIP3    H277984   5.230   2.763   5.413  1.2110 -0.5907  1.0139
18857TIP3   OH277985   0.333   3.216   2.050 -0.2852  0.2574 -0.0104
18857TIP3    H177986   0.238   3.202   2.051 -0.3531  0.6906 -0.0512
18857TIP3    H277987   0.344   3.303   2.088 -0.0401  0.9663 -1.6233
18858TIP3   OH277988   6.895   2.711   2.866  0.6745  0.0372 -0.2156
18858TIP3    H177989   6.818   2.662   2.894  0.1132  1.5704  1.0049
18858TIP3    H277990   6.918   2.671   2.781 -3.2850  1.4839 -2.2344
18859TIP3   OH277991   5.937   5.117   3.084 -0.4716  0.3106  0.7527
18859TIP3    H177992   5.875   5.111   3.156 -2.3175 -1.6256 -0.8756
18859TIP3    H277993   5.985   5.033   3.086  0.0439  0.5826  0.2470
18860TIP3   OH277994   5.331   3.495   4.820  0.4426 -0.1325  0.2498
18860TIP3    H177995   5.422   3.475   4.800  0.1821 -1.2628  0.1288
18860TIP3    H277996   5.288   3.409   4.825 -0.7057  0.3935 -0.1498
18861TIP3   OH277997   7.016   4.186   4.264  0.3467 -0.2682 -0.6456
18861TIP3    H177998   7.095   4.135   4.284 -0.1360 -1.2785 -1.2200
18861TIP3    H277999   6.944   4.125   4.279 -0.5318  1.2669  2.0388
18862TIP3   OH278000   0.790   4.658   2.639  0.9050  0.1900 -0.2467
18862TIP3    H178001   0.760   4.719   2.572  1.7495  2.1291  1.0406
18862TIP3    H278002   0.879   4.686   2.660  0.2486  0.5439  2.5524
18863TIP3   OH278003   1.645   4.899   4.525  0.3597  0.1816  0.3599
18863TIP3    H178004   1.591   4.841   4.470  0.9660  0.1999 -0.2718
18863TIP3    H278005   1.660   4.976   4.470  1.0834  0.1443  0.4960
18864TIP3   OH278006   3.193   6.325  14.930  0.8856 -0.3844  0.1872
18864TIP3    H178007   3.172   6.378  14.853  1.7929  1.0023  0.8534
18864TIP3    H278008   3.246   6.253  14.895  0.0769 -0.5972 -0.6629
18865TIP3   OH278009   5.341   4.703   4.439  0.1267 -0.6569  0.0064
18865TIP3    H178010   5.255   4.744   4.432  0.8145  0.6296 -1.2790
18865TIP3    H278011   5.323   4.614   4.471 -1.5240  0.1234  1.4074
18866TIP3   OH278012   5.320   4.904   3.076  0.7048  0.4358  0.0320
18866TIP3    H178013   5.381   4.942   3.140 -0.2104  3.3712 -0.7040
18866TIP3    H278014   5.366   4.826   3.043  1.2768 -1.1981  4.0528
18867TIP3   OH278015   2.034   6.597   3.010  0.3592 -0.2076 -0.0366
18867TIP3    H178016   2.012   6.582   3.102  1.8848  1.9316  0.7384
18867TIP3    H278017   1.954   6.633   2.972  0.7158  2.3968  1.4318
18868TIP3   OH278018   4.954   2.853   4.456 -0.5840  0.4405 -0.4886
18868TIP3    H178019   5.002   2.785   4.503  0.3614  2.5284  1.7537
18868TIP3    H278020   5.019   2.891   4.396  0.5607  2.7474  1.9986
18869TIP3   OH278021   0.809   6.609   3.745 -0.2543 -0.1839 -0.1457
18869TIP3    H178022   0.844   6.696   3.763 -0.2951 -0.4605  1.4738
18869TIP3    H278023   0.886   6.555   3.730 -0.2746  0.5428 -3.6798
18870TIP3   OH278024   0.545   6.990   5.648  0.1074  0.4183 -0.3235
18870TIP3    H178025   0.524   7.083   5.649  1.6829  0.7876  0.6185
18870TIP3    H278026   0.640   6.986   5.653  0.0463 -1.2485  0.0921
18871TIP3   OH278027   0.014   2.478   2.404  0.2279  0.4633 -0.1580
18871TIP3    H178028  -0.019   2.500   2.317  1.0711 -1.2876 -0.9792
18871TIP3    H278029   0.081   2.544   2.422 -1.6062  2.3117  0.2847
18872TIP3   OH278030   3.344   3.130   1.348 -0.5242  0.4152 -0.3524
18872TIP3    H178031   3.333   3.079   1.428 -0.7026  0.6264 -0.2393
18872TIP3    H278032   3.390   3.072   1.288  0.8066  0.7017  0.3643
18873TIP3   OH278033   2.319   3.551   4.954  0.0773 -0.3761  0.2031
18873TIP3    H178034   2.318   3.592   4.867 -1.5788  0.6074  0.6446
18873TIP3    H278035   2.409   3.562   4.984  0.6410 -0.5719 -1.3025
18874TIP3   OH278036   6.046   3.250   0.463  0.0471 -0.3085  0.0259
18874TIP3    H178037   5.955   3.221   0.473 -0.0869  0.3592  0.8464
18874TIP3    H278038   6.040   3.326   0.405 -0.0950  0.5745  1.1671
18875TIP3   OH278039   2.127   6.358   3.873  0.4428 -0.0156  0.1737
18875TIP3    H178040   2.192   6.420   3.842  0.0187 -0.0976 -0.9077
18875TIP3    H278041   2.128   6.287   3.809 -0.0248 -0.4855  0.6715
18876TIP3   OH278042   0.679   5.855  12.016 -0.0490  0.5752  0.1467
18876TIP3    H178043   0.618   5.808  11.959 -0.9241  1.6790  0.1397
18876TIP3    H278044   0.765   5.820  11.993 -0.6437 -0.7654 -0.0809
18877TIP3   OH278045   2.434   5.887   2.950  0.0359 -0.3955 -0.3849
18877TIP3    H178046   2.446   5.972   2.993 -0.7301 -0.5503  0.1630
18877TIP3    H278047   2.350   5.856   2.983 -1.5085  0.2887 -3.3765
18878TIP3   OH278048   6.309   0.074   3.635 -1.0591 -0.2993  0.5919
18878TIP3    H178049   6.266   0.143   3.584 -1.3863 -1.3097 -0.5197
18878TIP3    H278050   6.297  -0.005   3.584  1.2480 -0.8139  0.7661
18879TIP3   OH278051   0.785   0.182   1.256  0.3322  0.4388 -0.1622
18879TIP3    H178052   0.733   0.125   1.312  0.5157  1.1879  0.7936
18879TIP3    H278053   0.789   0.136   1.172 -1.5402  0.1679 -0.1459
18880TIP3   OH278054   6.552   6.522   4.623  0.3560  0.0159  0.0574
18880TIP3    H178055   6.546   6.493   4.532 -0.8060  0.7375 -0.1133
18880TIP3    H278056   6.478   6.581   4.634  0.3184 -0.2848  1.5623
18881TIP3   OH278057   5.329   0.438   4.950 -0.1309 -0.0378  0.1059
18881TIP3    H178058   5.414   0.402   4.923  0.3855 -0.5114  2.1919
18881TIP3    H278059   5.297   0.376   5.016 -1.8651  0.4300 -0.2460
18882TIP3   OH278060   1.179   1.754   5.311  0.2641 -0.0866  0.2295
18882TIP3    H178061   1.174   1.672   5.360  0.2490 -0.0310  0.3200
18882TIP3    H278062   1.188   1.822   5.378  1.3404 -0.0994  0.1264
18883TIP3   OH278063   0.862   2.426  15.088 -0.1672  0.4994  0.3322
18883TIP3    H178064   0.771   2.397  15.098  0.1842 -0.6206  0.4429
18883TIP3    H278065   0.874   2.435  14.993 -0.3627  0.5518  0.3124
18884TIP3   OH278066   5.935   6.354   3.422 -1.0065  0.0460  0.2589
18884TIP3    H178067   5.873   6.282   3.408  0.1375 -0.8635 -0.3168
18884TIP3    H278068   5.985   6.329   3.500  0.4360 -0.5891 -0.8121
18885TIP3   OH278069   4.388   4.866   3.635 -0.2790  0.1803  0.5395
18885TIP3    H178070   4.389   4.960   3.655  2.1377  0.2394  0.4716
18885TIP3    H278071   4.317   4.855   3.573  0.0455  2.1817 -0.2531
18886TIP3   OH278072   2.939   2.883   4.374 -0.2589  0.4467  0.0172
18886TIP3    H178073   2.908   2.817   4.313  0.2032  0.6680 -0.4652
18886TIP3    H278074   2.888   2.868   4.454  2.1207 -2.7022  1.1670
18887TIP3   OH278075   3.266   4.929   1.170 -0.3279 -0.4613  0.0563
18887TIP3    H178076   3.346   4.948   1.220  1.0836 -0.2724 -2.1218
18887TIP3    H278077   3.251   5.008   1.117  0.5922 -2.0021 -2.7025
18888TIP3   OH278078   4.600   0.467   2.681  0.4338  0.7090  0.6909
18888TIP3    H178079   4.567   0.423   2.759  0.1498  1.6133  1.0820
18888TIP3    H278080   4.552   0.426   2.609  0.4609  0.1072  1.0038
18889TIP3   OH278081   2.743   7.144  12.418  0.0785 -0.6602 -0.4171
18889TIP3    H178082   2.736   7.153  12.323  2.5121  0.7872 -0.5573
18889TIP3    H278083   2.662   7.183  12.451  0.6494  2.0750 -1.8762
18890TIP3   OH278084   4.148   6.548   0.452  0.2931  0.0913 -0.1758
18890TIP3    H178085   4.117   6.508   0.371  0.5607  0.5947 -0.5327
18890TIP3    H278086   4.188   6.630   0.425 -0.2604  0.6106  0.5503
18891TIP3   OH278087   5.520   6.818   3.529  0.0748  0.2932  0.1759
18891TIP3    H178088   5.612   6.811   3.554  0.2091 -1.3875 -0.6139
18891TIP3    H278089   5.517   6.888   3.464  0.8904 -0.0042 -0.1843
18892TIP3   OH278090   6.062   0.858  13.575  0.2336 -0.0058 -0.1551
18892TIP3    H178091   6.036   0.916  13.504  0.8788 -0.6871 -0.9644
18892TIP3    H278092   6.139   0.812  13.542  0.5523 -0.3349  0.9840
18893TIP3   OH278093   3.270   6.620  14.000  0.1318  1.2735  0.1030
18893TIP3    H178094   3.334   6.690  13.986 -0.9307  1.6839 -3.7254
18893TIP3    H278095   3.313   6.541  13.968 -0.1072  0.9160  0.6517
18894TIP3   OH278096   6.289   2.506   4.672 -0.3283  0.2622 -0.1905
18894TIP3    H178097   6.373   2.549   4.690 -0.7791  0.9023  0.4355
18894TIP3    H278098   6.262   2.540   4.587 -0.2790  0.5769 -0.0826
18895TIP3   OH278099   4.626   4.229   4.128 -0.0083  0.0488 -0.3627
18895TIP3    H178100   4.554   4.252   4.186  0.5190  0.8631 -0.0184
18895TIP3    H278101   4.685   4.175   4.182 -0.6382 -1.1245 -0.8156
18896TIP3   OH278102   6.052   2.685   1.701 -0.1321 -0.6466  0.5017
18896TIP3    H178103   5.960   2.665   1.719 -0.9555  1.3958 -1.0054
18896TIP3    H278104   6.068   2.768   1.747  0.0403  0.5043 -1.4972
18897TIP3   OH278105   4.993   3.235   4.589 -0.0435  0.5504 -0.3148
18897TIP3    H178106   4.905   3.203   4.607  1.1985 -2.8073  0.5645
18897TIP3    H278107   5.017   3.197   4.505  1.1637 -0.1487  0.3035
18898TIP3   OH278108   6.975   5.112   5.085 -0.4711 -0.4137 -0.1518
18898TIP3    H178109   6.984   5.023   5.118  0.8413 -0.3836 -0.3582
18898TIP3    H278110   7.048   5.160   5.125 -0.9148  0.4589 -0.3685
18899TIP3   OH278111   3.696   6.333   3.738  0.1424  0.2257 -0.1366
18899TIP3    H178112   3.617   6.286   3.764 -0.1852 -0.2284 -1.8343
18899TIP3    H278113   3.767   6.272   3.757 -0.1103 -0.2187 -0.6060
18900TIP3   OH278114   7.134   5.184   4.281  0.2115  0.0782 -0.2613
18900TIP3    H178115   7.172   5.263   4.319  1.5619 -0.2674 -0.8329
18900TIP3    H278116   7.133   5.201   4.187  1.2899 -0.8899 -0.4634
18901TIP3   OH278117   4.994   5.977   0.915 -0.4463  0.1603  0.4834
18901TIP3    H178118   4.904   6.011   0.912 -1.0218 -1.3726 -1.6912
18901TIP3    H278119   5.030   5.997   0.828  0.8788 -0.4271  0.8728
18902TIP3   OH278120   0.676   5.725   5.631 -0.4983 -0.2968  0.2562
18902TIP3    H178121   0.764   5.687   5.634 -1.1242 -1.7759  0.4164
18902TIP3    H278122   0.632   5.689   5.707 -0.4802  2.4939  1.7309
18903TIP3   OH278123   6.628   1.968   5.575  0.2357 -0.7516  0.1303
18903TIP3    H178124   6.537   1.936   5.580  0.6890 -2.2793 -0.8195
18903TIP3    H278125   6.663   1.952   5.662 -0.6596  0.7480  0.8087
18904TIP3   OH278126   0.552   2.280   1.644  0.0449 -0.1978  1.3304
18904TIP3    H178127   0.496   2.246   1.713 -1.6409 -1.6871 -0.6208
18904TIP3    H278128   0.507   2.256   1.563  1.4681  2.1819 -0.3124
18905TIP3   OH278129   2.588   5.670   3.798 -0.2706 -0.0687  0.0342
18905TIP3    H178130   2.571   5.590   3.850  1.6209 -1.7511 -1.7695
18905TIP3    H278131   2.587   5.740   3.863  1.2415 -1.9550  2.2813
18906TIP3   OH278132   5.142   2.484  14.065 -0.6490  0.2253  0.1640
18906TIP3    H178133   5.169   2.472  13.974 -0.8445 -2.0711  0.3649
18906TIP3    H278134   5.208   2.438  14.116 -0.5593  1.4561  1.2162
18907TIP3   OH278135   4.716   4.057   4.952 -0.2687 -0.0571 -0.3670
18907TIP3    H178136   4.677   4.123   5.009 -0.2607 -0.3723  0.0056
18907TIP3    H278137   4.796   4.099   4.919  0.2421 -0.2140  0.6170
18908TIP3   OH278138   0.539   3.010   1.215 -0.0486  0.0740  0.1126
18908TIP3    H178139   0.498   3.008   1.301  0.6940  0.7335  0.4950
18908TIP3    H278140   0.632   2.995   1.232 -0.1231 -1.7332 -0.7611
18909TIP3   OH278141   5.542   5.972   5.139 -0.3796  0.2152  0.1349
18909TIP3    H178142   5.596   6.001   5.212 -0.6026  1.3965 -0.1512
18909TIP3    H278143   5.583   5.891   5.110  0.0353  0.0176  1.2126
18910TIP3   OH278144   4.121   4.979   5.945 -0.1301 -0.2055  0.0667
18910TIP3    H178145   4.089   5.050   6.000 -1.3772 -1.1385  0.5851
18910TIP3    H278146   4.072   4.988   5.863  2.4236  1.7951 -1.4187
18911TIP3   OH278147   5.631   1.208   0.164  1.0472  0.7275 -0.1158
18911TIP3    H178148   5.669   1.193   0.078 -1.8361 -0.7756 -1.2532
18911TIP3    H278149   5.633   1.123   0.207 -1.3112  0.4348 -0.4321
18912TIP3   OH278150   5.420   0.238   3.568 -0.0613 -0.3223 -0.3770
18912TIP3    H178151   5.362   0.311   3.545 -3.1205 -2.3506  0.3060
18912TIP3    H278152   5.421   0.239   3.664  0.1215 -0.9499 -0.3703
18913TIP3   OH278153   7.117   7.189   5.153  0.5940  0.1552  0.2229
18913TIP3    H178154   7.106   7.096   5.170 -0.9123  0.5915  1.9757
18913TIP3    H278155   7.136   7.227   5.239  3.0070  1.2793 -0.7137
18914TIP3   OH278156   1.277   5.060   3.977 -0.7581  0.3889  0.4099
18914TIP3    H178157   1.226   4.981   3.997 -2.9392  1.7715  0.7139
18914TIP3    H278158   1.267   5.071   3.882  1.2859 -0.7465 -0.0083
18915TIP3   OH278159   3.830   3.524   5.193 -0.3526  0.0539  0.5078
18915TIP3    H178160   3.905   3.566   5.235 -0.4175  1.0847 -0.3445
18915TIP3    H278161   3.769   3.507   5.264  0.6953 -0.8354  1.2192
18916TIP3   OH278162   4.439   5.900  14.752 -0.5282  0.4766  0.2730
18916TIP3    H178163   4.488   5.825  14.719 -1.0017  0.1365  0.3387
18916TIP3    H278164   4.403   5.870  14.835 -1.0461  0.6429  0.1112
18917TIP3   OH278165   7.157   0.077   4.310 -0.3823  0.2484  0.3308
18917TIP3    H178166   7.223   0.147   4.304  1.6112 -1.4896  0.6750
18917TIP3    H278167   7.154   0.040   4.222 -2.3597  1.5061 -0.1750
18918TIP3   OH278168   0.394   1.227  12.751  0.1056  0.2227  0.1673
18918TIP3    H178169   0.347   1.164  12.807  0.4523 -0.4924 -0.3242
18918TIP3    H278170   0.445   1.172  12.691 -0.3295  0.9680 -0.9216
18919TIP3   OH278171   5.001   6.381   2.000  0.0822 -0.5859 -0.2814
18919TIP3    H178172   4.930   6.439   2.025 -1.3848 -2.0947 -0.7688
18919TIP3    H278173   5.077   6.414   2.048 -0.6766  1.6642 -0.5056
18920TIP3   OH278174   5.326   6.904   2.486 -0.3523  0.0470 -0.1962
18920TIP3    H178175   5.257   6.954   2.529 -0.3511  0.1003 -0.2556
18920TIP3    H278176   5.367   6.853   2.556 -0.7477 -0.3276 -0.2325
18921TIP3   OH278177   4.196   3.157  13.586 -0.3529  0.5038 -0.1110
18921TIP3    H178178   4.167   3.248  13.588  0.0701  0.6500 -0.4925
18921TIP3    H278179   4.286   3.161  13.552  0.1383  0.0657  1.0887
18922TIP3   OH278180   4.394   3.598   4.399  0.7843  0.3148  0.4895
18922TIP3    H178181   4.386   3.691   4.419  0.4047  0.1338  1.1832
18922TIP3    H278182   4.362   3.553   4.477 -1.0669 -0.4004 -0.6258
18923TIP3   OH278183   0.558   0.427   4.763 -0.1383  0.0375 -0.1202
18923TIP3    H178184   0.508   0.469   4.833 -0.9339 -0.7469 -0.1930
18923TIP3    H278185   0.539   0.481   4.686  0.7916  0.9409  0.2523
18924TIP3   OH278186   3.311   4.952   4.304 -0.8328 -0.3974  0.1408
18924TIP3    H178187   3.392   4.907   4.278 -0.5919  0.1368 -0.0355
18924TIP3    H278188   3.257   4.883   4.344 -1.2146 -1.2656 -1.7567
18925TIP3   OH278189   1.964   2.136   2.198 -0.5327  0.0313 -0.7746
18925TIP3    H178190   1.876   2.107   2.174 -0.3644 -0.2570 -1.0620
18925TIP3    H278191   1.961   2.231   2.191 -0.7259  0.0040 -1.1283
18926TIP3   OH278192   5.209   4.122   2.928  0.6408 -0.6777  0.0245
18926TIP3    H178193   5.123   4.120   2.887  0.0012 -1.2706  1.3233
18926TIP3    H278194   5.267   4.158   2.861 -0.1545 -2.4435 -1.7177
18927TIP3   OH278195   1.005   6.180   0.309 -0.6911 -0.6322  0.1529
18927TIP3    H178196   0.972   6.250   0.365 -0.7758  0.1987 -0.9043
18927TIP3    H278197   1.097   6.171   0.335 -0.0628  1.3740 -1.1055
18928TIP3   OH278198   4.009   1.374   5.950  0.1590 -0.1725  0.6776
18928TIP3    H178199   4.054   1.438   6.005 -0.7190 -0.0639  1.3079
18928TIP3    H278200   3.916   1.391   5.966 -0.1242  0.0173 -1.0411
18929TIP3   OH278201   4.928   5.845   4.627 -0.2359  0.4668  0.4314
18929TIP3    H178202   4.944   5.825   4.719 -1.8807 -0.0979  0.6265
18929TIP3    H278203   4.993   5.912   4.605  2.3707 -1.6581  1.0844
18930TIP3   OH278204   3.799   4.780   3.334  0.2531 -0.2607  0.0083
18930TIP3    H178205   3.875   4.829   3.304  1.1892 -1.1830  0.7959
18930TIP3    H278206   3.776   4.724   3.260 -1.0984  1.5996 -1.0614
18931TIP3   OH278207   6.966   6.879   2.967 -0.0321 -0.4280  0.3383
18931TIP3    H178208   7.056   6.877   2.935  0.2902 -0.6037  1.2457
18931TIP3    H278209   6.966   6.945   3.036 -0.6391 -0.3083  0.2271
18932TIP3   OH278210   6.162   2.613   3.834 -0.0849 -0.3138  0.3865
18932TIP3    H178211   6.093   2.613   3.767 -0.8430 -1.6035  1.1271
18932TIP3    H278212   6.243   2.594   3.785 -0.2053  1.3438 -0.5058
18933TIP3   OH278213   6.691   0.373   5.375 -0.4022  0.4364 -0.2333
18933TIP3    H178214   6.718   0.284   5.397  0.2791  0.4304 -1.0489
18933TIP3    H278215   6.617   0.361   5.316 -0.3723  0.4160 -0.2663
18934TIP3   OH278216   2.341   0.819   0.976 -0.7005  0.2570  0.2386
18934TIP3    H178217   2.340   0.904   0.933  1.5050  1.0416  1.5685
18934TIP3    H278218   2.380   0.760   0.912  0.7967  1.0095  0.4043
18935TIP3   OH278219   1.129   1.977   5.539 -0.1726 -0.2962 -0.3189
18935TIP3    H178220   1.126   1.908   5.605 -0.6112 -1.0327 -1.0982
18935TIP3    H278221   1.089   2.053   5.582 -0.4513 -0.7627  0.2548
18936TIP3   OH278222   5.855   4.245  14.630 -0.3233 -0.2214 -0.8206
18936TIP3    H178223   5.811   4.173  14.585  1.4599 -1.4101 -0.7792
18936TIP3    H278224   5.885   4.207  14.712  0.2104  0.7094 -0.5701
18937TIP3   OH278225   4.429   7.030   4.658 -0.2400  0.0100  0.9503
18937TIP3    H178226   4.440   7.031   4.563 -0.0556  0.0801  0.9717
18937TIP3    H278227   4.499   6.974   4.690 -0.1539  0.1818  1.0633
18938TIP3   OH278228   6.942   4.424   5.107 -0.1918  0.4785 -0.1091
18938TIP3    H178229   6.903   4.431   5.020  1.1708 -0.3427 -0.8062
18938TIP3    H278230   6.869   4.396   5.163 -0.6932 -0.8460 -1.3430
18939TIP3   OH278231   0.628   6.894   5.319 -0.1257 -0.5135  0.0492
18939TIP3    H178232   0.710   6.889   5.368 -1.0495  1.5288  2.0193
18939TIP3    H278233   0.631   6.819   5.260  1.6521 -2.5080  2.4080
18940TIP3   OH278234   0.779   2.445  14.690 -0.7678  1.0927 -0.0086
18940TIP3    H178235   0.867   2.437  14.726 -0.9143 -1.5399 -0.1028
18940TIP3    H278236   0.787   2.420  14.598 -1.7168  0.1631  0.1416
18941TIP3   OH278237   6.901   0.002   3.446 -0.8524  0.2521 -0.1401
18941TIP3    H178238   6.952   0.051   3.381  0.1417  0.8782  1.0666
18941TIP3    H278239   6.937   0.030   3.530 -0.9583 -1.8162  0.6347
18942TIP3   OH278240   3.129   4.792   2.501 -0.5295  0.1679 -0.1719
18942TIP3    H178241   3.097   4.845   2.428  0.4194  2.9289  1.2758
18942TIP3    H278242   3.224   4.799   2.496 -0.4273 -0.4017  0.7509
18943TIP3   OH278243   6.645   6.155   1.850  0.4771  0.1448  0.0778
18943TIP3    H178244   6.652   6.111   1.765  0.8528  0.0838  0.1361
18943TIP3    H278245   6.645   6.248   1.829 -3.8739  0.2351 -0.3457
18944TIP3   OH278246   3.830   1.660   5.426 -0.4721 -0.9481 -0.0757
18944TIP3    H178247   3.753   1.628   5.473 -0.8825 -0.9762 -0.7392
18944TIP3    H278248   3.839   1.751   5.454 -0.0417 -1.2758  0.8842
18945TIP3   OH278249   3.689   0.475  14.699 -0.4243 -0.6781  0.1991
18945TIP3    H178250   3.669   0.433  14.782  0.0089 -0.8136  0.2354
18945TIP3    H278251   3.774   0.438  14.673  0.4878  0.9383  0.7418
18946TIP3   OH278252   6.795   6.684   1.151  0.1771 -0.0343  0.0094
18946TIP3    H178253   6.724   6.633   1.112  0.9809 -0.1521 -1.3563
18946TIP3    H278254   6.804   6.760   1.095 -0.6804  1.4371  1.7578
18947TIP3   OH278255   0.372   4.706   2.916 -0.1296 -0.5473  0.4978
18947TIP3    H178256   0.465   4.685   2.919 -0.3631 -1.7377  0.0326
18947TIP3    H278257   0.369   4.798   2.889  0.8965 -0.6872 -0.1656
18948TIP3   OH278258   5.664   0.851   5.681  0.0649  0.1696  0.6053
18948TIP3    H178259   5.634   0.761   5.682  2.6598 -0.8298 -0.7569
18948TIP3    H278260   5.725   0.857   5.755  0.4784  0.5706  0.2404
18949TIP3   OH278261   3.487   3.047   4.296  0.0977 -0.0721  0.2002
18949TIP3    H178262   3.478   3.117   4.361 -1.2246 -0.3388  0.3305
18949TIP3    H278263   3.400   3.008   4.291  0.9083 -2.0417  0.5005
18950TIP3   OH278264   2.074   4.023   4.021 -0.6080 -0.1970 -0.2802
18950TIP3    H178265   2.120   3.951   3.978 -1.8408 -1.8677  1.0743
18950TIP3    H278266   2.014   4.057   3.955  2.2746  1.9316 -2.0464
18951TIP3   OH278267   3.190   1.572   2.034  0.1626 -0.4966 -0.4861
18951TIP3    H178268   3.187   1.605   2.124  2.4061 -1.1629 -0.1011
18951TIP3    H278269   3.128   1.499   2.032 -1.1996  0.6263  0.0075
18952TIP3   OH278270   1.119   1.264   0.852 -0.2382 -0.6860 -0.8418
18952TIP3    H178271   1.057   1.334   0.873 -0.1390 -0.7820 -0.2051
18952TIP3    H278272   1.130   1.217   0.934 -0.7173 -1.7922 -1.3970
18953TIP3   OH278273   2.003   0.464   3.258 -0.3120 -0.1302 -0.1576
18953TIP3    H178274   1.908   0.472   3.271 -0.2448  0.9675 -0.3218
18953TIP3    H278275   2.039   0.547   3.289  0.3866  0.3449 -2.1274
18954TIP3   OH278276   0.803   3.992   5.835  0.4456 -0.1565 -0.2800
18954TIP3    H178277   0.829   4.001   5.926 -1.7806  0.0298  0.3984
18954TIP3    H278278   0.802   3.898   5.819  0.9862 -0.1841 -0.1789
18955TIP3   OH278279   3.169   1.977   5.256 -0.1839 -0.1477 -0.6505
18955TIP3    H178280   3.177   2.038   5.182 -0.6856 -0.6778 -1.1449
18955TIP3    H278281   3.110   2.020   5.317  0.1517  0.2459 -0.5969
18956TIP3   OH278282   5.259   1.997   4.298  0.0023  0.1344 -0.1463
18956TIP3    H178283   5.182   2.021   4.244  0.8582 -0.8735 -1.9027
18956TIP3    H278284   5.251   1.903   4.310 -0.4437  0.4149  2.0180
18957TIP3   OH278285   5.676   1.173   3.977  0.4025 -0.0395  0.1438
18957TIP3    H178286   5.667   1.088   3.934 -0.8067  1.1714 -2.1647
18957TIP3    H278287   5.619   1.232   3.927  0.8326  2.0424  1.9503
18958TIP3   OH278288   6.024   4.777   3.925 -0.2943  0.4998  0.4239
18958TIP3    H178289   6.026   4.826   4.006 -2.2833  0.6018  0.4601
18958TIP3    H278290   6.032   4.843   3.856 -0.7719  0.6479  0.5091
18959TIP3   OH278291   5.537   2.187   3.333  0.5164 -0.1195  1.1225
18959TIP3    H178292   5.477   2.234   3.390  0.5131 -0.5126  1.4492
18959TIP3    H278293   5.578   2.255   3.279  0.1942  0.2053  1.2861
18960TIP3   OH278294   1.575   3.757   1.279 -0.0676 -0.3991 -0.3776
18960TIP3    H178295   1.533   3.786   1.360  0.4842 -2.1172  0.5706
18960TIP3    H278296   1.509   3.702   1.236 -1.2313  2.3165 -2.3244
18961TIP3   OH278297   1.405   6.269   0.662  0.8738  0.2747 -0.7711
18961TIP3    H178298   1.466   6.264   0.736  0.2283 -3.3590 -0.3115
18961TIP3    H278299   1.353   6.348   0.680  0.4120 -0.6617  3.0219
18962TIP3   OH278300   2.972   0.754   3.875 -0.5801 -0.4491  0.0009
18962TIP3    H178301   2.942   0.664   3.877  1.7153 -1.4009 -2.3290
18962TIP3    H278302   3.067   0.748   3.871 -0.3829  1.8422 -3.6072
18963TIP3   OH278303   0.322   0.234   2.990  0.0281 -0.3542  0.3744
18963TIP3    H178304   0.345   0.297   3.058  2.7341 -1.3972  0.5628
18963TIP3    H278305   0.253   0.277   2.940  0.0432  1.6986  1.9729
18964TIP3   OH278306   6.991   6.339   3.328 -0.1812  0.5523 -0.2298
18964TIP3    H178307   7.057   6.304   3.388 -0.9296  0.0109  0.3004
18964TIP3    H278308   6.957   6.416   3.373 -2.0708 -0.9020  0.9732
18965TIP3   OH278309   0.591   4.635   0.203 -0.3977  0.6439 -0.4386
18965TIP3    H178310   0.542   4.637   0.285 -0.2989  0.4946 -0.3762
18965TIP3    H278311   0.661   4.699   0.214  1.1489 -1.1413  0.5511
18966TIP3   OH278312   1.416   3.667  13.901  0.1752 -0.1589  0.3275
18966TIP3    H178313   1.389   3.729  13.834 -0.9083 -2.8852 -1.9872
18966TIP3    H278314   1.496   3.704  13.939 -0.4792  2.6148 -0.7973
18967TIP3   OH278315   4.593   3.094   3.060  0.1206  0.2312  0.1840
18967TIP3    H178316   4.647   3.123   2.987 -1.3010  0.4899 -0.8020
18967TIP3    H278317   4.504   3.091   3.025 -0.6686  0.7198  1.9904
18968TIP3   OH278318   0.369   1.250  13.130  0.0616  0.3129 -0.0413
18968TIP3    H178319   0.454   1.216  13.158  0.1562 -1.3569 -2.0613
18968TIP3    H278320   0.378   1.263  13.036 -1.8530  0.2872 -0.2771
18969TIP3   OH278321   0.492   7.166   4.956 -0.0086 -0.4348 -0.0142
18969TIP3    H178322   0.449   7.083   4.979 -0.9068  0.0343  0.0606
18969TIP3    H278323   0.584   7.144   4.946 -0.1850 -1.3765  0.3615
18970TIP3   OH278324   3.921   1.506   4.400 -0.0304 -0.0419 -0.0085
18970TIP3    H178325   3.981   1.579   4.381  0.3499 -0.7756 -1.8450
18970TIP3    H278326   3.891   1.477   4.314 -1.5208 -0.9638  0.7825
18971TIP3   OH278327   4.925   0.025   1.749 -0.5017 -0.0177  0.6312
18971TIP3    H178328   4.974   0.105   1.772 -0.7753 -0.5196  3.2551
18971TIP3    H278329   4.851   0.024   1.809 -1.7528 -1.1671 -0.8389
18972TIP3   OH278330   2.279   2.496   2.867 -0.2118  0.0492 -0.1924
18972TIP3    H178331   2.236   2.562   2.922 -0.9506  0.2356 -0.9631
18972TIP3    H278332   2.211   2.468   2.806  0.0644 -1.4871  0.1510
18973TIP3   OH278333   4.889   0.113   4.594  0.2925  0.4621  0.6460
18973TIP3    H178334   4.868   0.196   4.637  1.3444  0.6804  0.7725
18973TIP3    H278335   4.806   0.083   4.557 -0.2021  1.3172  1.0354
18974TIP3   OH278336   2.682   3.821   3.406  0.0458 -0.2755 -0.4796
18974TIP3    H178337   2.749   3.754   3.412  0.3059  0.0555  0.5300
18974TIP3    H278338   2.600   3.773   3.395  0.2138 -0.7723  0.3551
18975TIP3   OH278339   3.592   6.247   4.074 -0.2207  0.4118  0.4477
18975TIP3    H178340   3.561   6.208   3.992 -0.0578 -0.8606  0.9574
18975TIP3    H278341   3.674   6.291   4.050 -0.9290  1.3336 -0.3473
18976TIP3   OH278342   6.937   6.370   5.304  0.4921 -0.1706 -0.2340
18976TIP3    H178343   6.992   6.445   5.281 -1.8864  2.3808  1.5777
18976TIP3    H278344   6.848   6.402   5.293 -0.7462 -1.1850  4.4197
18977TIP3   OH278345   2.402   1.821   3.095  0.2624  0.3832 -0.2528
18977TIP3    H178346   2.444   1.737   3.114  1.5333  1.7096  3.9381
18977TIP3    H278347   2.468   1.872   3.049  1.9148  0.9825  2.5345
18978TIP3   OH278348   1.727   2.765   5.436 -0.0354  0.3278  0.6741
18978TIP3    H178349   1.710   2.857   5.458  0.1936  0.4971  0.1559
18978TIP3    H278350   1.743   2.723   5.521  1.3586  1.0710  0.8131
18979TIP3   OH278351   4.858   0.534   0.660 -0.4169 -0.6069  0.3543
18979TIP3    H178352   4.828   0.532   0.570  0.9401 -2.7966 -0.1187
18979TIP3    H278353   4.788   0.580   0.708 -0.4691  1.9936 -1.9787
18980TIP3   OH278354   2.315   5.897   3.830  0.0299 -0.0334  0.1260
18980TIP3    H178355   2.381   5.953   3.872 -0.0388  0.2194 -0.1003
18980TIP3    H278356   2.234   5.947   3.834 -0.2968 -0.6152  0.9827
18981TIP3   OH278357   5.083   3.835   4.393 -0.4089 -0.3021 -0.7650
18981TIP3    H178358   5.109   3.878   4.312  0.6368  1.0347  0.2218
18981TIP3    H278359   5.011   3.888   4.426 -1.1927 -1.1552 -1.0556
18982TIP3   OH278360   6.398   4.651  12.550 -0.2191  0.9851 -0.1837
18982TIP3    H178361   6.424   4.732  12.505 -2.5403  0.2655 -3.1656
18982TIP3    H278362   6.427   4.581  12.491  0.3654 -0.3035  1.5702
18983TIP3   OH278363   4.374   0.185   2.695 -0.1715 -0.7302 -0.3599
18983TIP3    H178364   4.445   0.228   2.743 -1.4213  0.2874  0.6375
18983TIP3    H278365   4.356   0.105   2.745  0.3686 -1.0814 -0.7145
18984TIP3   OH278366   6.390   6.412   2.545  0.0547  0.2401  0.4292
18984TIP3    H178367   6.483   6.434   2.555 -0.0471  1.2719 -0.6571
18984TIP3    H278368   6.390   6.330   2.497  0.4054 -0.3820  1.4602
18985TIP3   OH278369   5.074   3.517   3.219  0.2755  0.2404 -0.1303
18985TIP3    H178370   5.136   3.552   3.156  0.8843  0.7900  0.7618
18985TIP3    H278371   5.055   3.428   3.188  1.0546  0.2802 -0.7247
18986TIP3   OH278372   7.141   5.249   4.627 -0.1788  0.4188 -0.3440
18986TIP3    H178373   7.070   5.309   4.603 -1.3457 -1.3044 -1.4449
18986TIP3    H278374   7.107   5.163   4.606  1.6038 -0.6197  0.8058
18987TIP3   OH278375   1.558   6.384   2.231  0.0978 -0.1990  0.2227
18987TIP3    H178376   1.519   6.327   2.164  1.8745 -0.6602 -0.4609
18987TIP3    H278377   1.558   6.331   2.310 -1.3965  0.1103  0.4686
18988TIP3   OH278378   3.885   1.131   4.397 -0.3480  0.2218  0.1210
18988TIP3    H178379   3.977   1.109   4.408 -0.8815 -1.1849  2.5351
18988TIP3    H278380   3.853   1.070   4.330 -0.0243 -0.9746  1.0213
18989TIP3   OH278381   1.200   2.259   4.246  0.4818 -0.1529  0.0885
18989TIP3    H178382   1.213   2.252   4.151  1.3068 -1.6800  0.2811
18989TIP3    H278383   1.241   2.180   4.281  0.1114  0.3537  1.7192
18990TIP3   OH278384   0.891   7.188   0.774 -0.6634 -0.1546  0.1686
18990TIP3    H178385   0.909   7.094   0.776 -2.5360 -0.5399  1.2547
18990TIP3    H278386   0.915   7.214   0.685 -1.4023 -1.9442 -0.6189
18991TIP3   OH278387   3.041   5.308  10.459  0.1025 -0.1843  0.0006
18991TIP3    H178388   3.051   5.403  10.472 -0.1985 -0.1131 -0.2815
18991TIP3    H278389   3.046   5.271  10.547  0.5957  0.0591  0.0784
18992TIP3   OH278390   0.233   0.509   3.463 -0.0151  0.5346  0.9056
18992TIP3    H178391   0.264   0.591   3.502 -0.3867 -0.3038  3.0805
18992TIP3    H278392   0.144   0.499   3.497 -0.7006  0.1762 -0.8972
18993TIP3   OH278393   3.569   4.566   2.861  0.1165 -0.5902 -0.3075
18993TIP3    H178394   3.533   4.482   2.832 -2.5849  1.1578 -2.6141
18993TIP3    H278395   3.548   4.570   2.954 -1.2114 -1.8150 -0.5094
18994TIP3   OH278396   0.220   5.974   5.314 -0.0104 -0.3151  0.3178
18994TIP3    H178397   0.145   5.999   5.368  0.0969 -1.2707  0.9283
18994TIP3    H278398   0.295   6.015   5.356 -0.0950  0.0772  0.0949
18995TIP3   OH278399   2.876   2.638  12.859  0.1933  0.2574  0.5362
18995TIP3    H178400   2.813   2.666  12.793 -0.4261  0.3896  1.1714
18995TIP3    H278401   2.960   2.668  12.826  0.0670 -0.8270 -0.8201
18996TIP3   OH278402   2.753   1.153   0.450  0.1892  0.1206 -0.3292
18996TIP3    H178403   2.834   1.114   0.416 -0.1638  0.6103 -1.7783
18996TIP3    H278404   2.769   1.247   0.448 -1.0656  0.3410 -2.4451
18997TIP3   OH278405   3.435   0.050   4.137  0.0128  0.0123  0.0887
18997TIP3    H178406   3.432   0.095   4.053 -0.9356 -0.8900 -0.3784
18997TIP3    H278407   3.345   0.025   4.155  0.4269 -1.2474  0.5733
18998TIP3   OH278408   5.161   3.343  14.812  0.4957  0.1525  0.3779
18998TIP3    H178409   5.139   3.402  14.739  1.2783  0.1505  0.1337
18998TIP3    H278410   5.225   3.391  14.864  1.8011 -0.7932 -0.2963
18999TIP3   OH278411   3.965   0.880   2.778  0.1998  0.2193  0.2846
18999TIP3    H178412   3.949   0.824   2.703  0.6067  1.2025 -0.5597
18999TIP3    H278413   4.022   0.950   2.745 -0.9037  1.5645  1.0792
19000TIP3   OH278414   1.302   4.364   3.916  0.2270 -0.3093  0.6393
19000TIP3    H178415   1.252   4.308   3.976  1.4629 -0.4318  1.5864
19000TIP3    H278416   1.382   4.384   3.964  0.0401  1.8692  0.1207
19001TIP3   OH278417   1.249   0.267   1.666  0.0813  0.5544 -0.0473
19001TIP3    H178418   1.219   0.346   1.622 -2.2384 -0.1449  0.1182
19001TIP3    H278419   1.336   0.288   1.699  0.6941  2.0757 -2.4171
19002TIP3   OH278420   1.718   7.186   1.105 -0.2610  0.1765  0.0077
19002TIP3    H178421   1.715   7.091   1.101 -0.4949  0.1457  0.7107
19002TIP3    H278422   1.801   7.210   1.064 -0.8031 -0.2457 -1.3671
19003TIP3   OH278423   2.821   4.520   4.549 -0.1174  0.1743  0.1314
19003TIP3    H178424   2.873   4.575   4.608  0.5626 -1.0081  0.6688
19003TIP3    H278425   2.752   4.484   4.605 -0.3194  0.1619 -0.1246
19004TIP3   OH278426   6.284   1.012   4.918  0.0095 -0.0311 -0.3064
19004TIP3    H178427   6.282   0.926   4.959 -1.4276 -0.3508 -1.0046
19004TIP3    H278428   6.333   1.067   4.980 -1.8122 -0.5554  1.7262
19005TIP3   OH278429   7.068   1.985  14.966 -0.1071  0.0436  0.6562
19005TIP3    H178430   6.986   2.019  15.001 -1.9544 -1.0642 -2.2522
19005TIP3    H278431   7.089   2.042  14.893  1.2129 -0.2994  0.7382
19006TIP3   OH278432   3.089   4.180   2.881 -0.1387  0.1678 -0.4560
19006TIP3    H178433   3.114   4.138   2.963  2.4464  0.2920 -1.1002
19006TIP3    H278434   3.009   4.229   2.902  0.7014  0.5549  2.1160
19007TIP3   OH278435   3.071   2.955   2.496  0.1007 -0.0134  0.3632
19007TIP3    H178436   2.978   2.975   2.505  0.3372  1.1419  0.4164
19007TIP3    H278437   3.095   2.916   2.580 -0.0312  1.0231  0.9107
19008TIP3   OH278438   2.332   3.982   4.390  0.0241 -0.0456  0.6165
19008TIP3    H178439   2.398   3.975   4.459  2.0847  1.4599 -1.0911
19008TIP3    H278440   2.299   4.072   4.398 -1.1843 -0.4903  0.8487
19009TIP3   OH278441   6.189   2.625  15.213  0.4084 -0.1851  0.1246
19009TIP3    H178442   6.228   2.543  15.184 -1.7414 -0.8358 -1.1753
19009TIP3    H278443   6.152   2.604  15.299 -0.8782 -0.8829 -0.5680
19010TIP3   OH278444   5.432   2.544  14.383 -0.3006 -0.1245 -0.1251
19010TIP3    H178445   5.454   2.529  14.475 -0.7108 -0.7299 -0.1204
19010TIP3    H278446   5.495   2.492  14.334  1.1342  1.6578 -0.2702
19011TIP3   OH278447   7.007   3.410   4.942 -0.5100  0.1152 -0.4275
19011TIP3    H178448   7.099   3.395   4.920 -0.2342 -0.2757  0.9169
19011TIP3    H278449   6.990   3.501   4.917 -0.0516 -0.1073 -1.6093
19012TIP3   OH278450   0.024   5.025   4.957  0.1656 -0.2451 -0.3591
19012TIP3    H178451   0.095   4.991   5.011  0.7521 -3.3214 -2.7893
19012TIP3    H278452   0.050   5.115   4.936  1.7664 -0.2701  1.3072
19013TIP3   OH278453   5.260   4.401   4.266 -0.2707 -0.1704 -0.1897
19013TIP3    H178454   5.235   4.354   4.187  0.8927  1.0666 -1.3199
19013TIP3    H278455   5.355   4.413   4.259 -0.2210  0.4055  1.1358
19014TIP3   OH278456   5.309   1.388   4.982 -0.4670 -0.6521 -0.3484
19014TIP3    H178457   5.364   1.319   5.020  0.8245  0.0857 -0.8485
19014TIP3    H278458   5.230   1.341   4.953 -0.3113 -1.6574  0.7551
19015TIP3   OH278459   2.461   1.822   4.398 -1.0822 -0.0123  0.0991
19015TIP3    H178460   2.488   1.735   4.369  0.3158  0.2752  0.4371
19015TIP3    H278461   2.441   1.811   4.491 -0.0065  0.1765  0.3752
19016TIP3   OH278462   0.689   1.099   1.781  0.3731 -0.7747 -0.0840
19016TIP3    H178463   0.696   1.143   1.696  3.2554 -0.6532  0.1249
19016TIP3    H278464   0.618   1.036   1.769  0.8656 -0.9749 -2.7002
19017TIP3   OH278465   4.138   5.621   2.562 -0.6629  0.3191  0.2896
19017TIP3    H178466   4.143   5.694   2.500  1.9453  0.3145  0.3886
19017TIP3    H278467   4.117   5.545   2.507  1.6639  0.3039 -0.6606
19018TIP3   OH278468   2.327   3.400   0.447 -0.0554  0.1033  0.0568
19018TIP3    H178469   2.237   3.394   0.416 -0.2248 -0.4836  0.6293
19018TIP3    H278470   2.320   3.403   0.542  0.5964 -3.0185  0.3223
19019TIP3   OH278471   5.931   0.024   3.431  0.2684  0.4379 -0.0475
19019TIP3    H178472   5.853   0.058   3.386  0.3512 -0.2217 -0.6965
19019TIP3    H278473   5.896  -0.027   3.504  0.1174  0.8605  0.1815
19020TIP3   OH278474   6.981   0.587   3.247  0.0614  0.2472 -0.0201
19020TIP3    H178475   7.077   0.584   3.244  0.1685 -1.1201  2.3456
19020TIP3    H278476   6.953   0.529   3.177  0.9313  0.8546 -0.9032
19021TIP3   OH278477   6.903   6.797   5.193  0.0055 -0.1959 -0.2618
19021TIP3    H178478   6.816   6.831   5.214  0.4993  0.5661  0.6120
19021TIP3    H278479   6.897   6.770   5.102 -1.8929 -2.5726  0.4825
19022TIP3   OH278480   4.088   5.269   0.012  0.2964 -0.0456 -0.2248
19022TIP3    H178481   4.111   5.228  -0.071  0.1004  0.5145 -0.5575
19022TIP3    H278482   4.162   5.325   0.033  0.5803 -0.5818  0.2493
19023TIP3   OH278483   2.076   5.645   3.301 -0.1777  0.5065  0.9001
19023TIP3    H178484   2.093   5.650   3.396  0.5798  0.6463  0.7630
19023TIP3    H278485   2.030   5.562   3.290  2.2492 -0.9560  1.0581
19024TIP3   OH278486   1.982   1.009   3.142 -0.7879 -0.7848 -0.2786
19024TIP3    H178487   1.900   0.960   3.133 -1.5286  0.6617 -1.8094
19024TIP3    H278488   1.956   1.095   3.173  0.1487 -0.2722 -0.8617
19025TIP3   OH278489   1.306   3.927   5.499 -0.6143  0.0655  0.0050
19025TIP3    H178490   1.282   3.972   5.580 -0.1778 -0.9052  0.6914
19025TIP3    H278491   1.231   3.942   5.441 -3.0795 -2.8649  2.0749
19026TIP3   OH278492   3.898   4.907  13.826 -0.5794 -0.1255  0.0085
19026TIP3    H178493   3.910   5.002  13.837 -2.3183  0.1222 -0.0138
19026TIP3    H278494   3.822   4.886  13.880 -0.8937 -1.3125 -0.8732
19027TIP3   OH278495   0.351   6.484  14.859 -0.3171  0.1993 -0.2669
19027TIP3    H178496   0.322   6.465  14.769 -0.4773  0.8571 -0.3611
19027TIP3    H278497   0.269   6.504  14.906 -0.3795 -1.3918  0.3555
19028TIP3   OH278498   7.158   5.316   3.181  0.7458 -0.1340  0.4800
19028TIP3    H178499   7.102   5.240   3.197  3.0437 -1.4115  3.2027
19028TIP3    H278500   7.097   5.390   3.177 -1.4370 -1.8680 -0.9485
19029TIP3   OH278501   4.890   2.080   3.110 -0.0812  0.0856  0.3657
19029TIP3    H178502   4.926   2.115   3.028 -0.1042  0.4445  0.5083
19029TIP3    H278503   4.852   1.996   3.085  0.1742  0.0588  0.0640
19030TIP3   OH278504   0.218   0.207   2.021  0.4804 -0.0549  0.0182
19030TIP3    H178505   0.227   0.191   1.927  0.9227 -1.4405  0.2846
19030TIP3    H278506   0.286   0.154   2.062 -1.0857 -1.1931  1.2732
19031TIP3   OH278507   4.009   6.511  12.309  0.6670  0.2732 -0.1529
19031TIP3    H178508   3.970   6.542  12.227  0.1601 -0.4648 -0.1991
19031TIP3    H278509   4.103   6.526  12.297  0.6171  0.0153 -0.9432
19032TIP3   OH278510   2.720   1.468   1.069  0.0068 -0.0347 -0.0757
19032TIP3    H178511   2.691   1.390   1.116 -1.9316  0.7146  0.0651
19032TIP3    H278512   2.650   1.486   1.007  0.8852  1.0363 -0.7971
19033TIP3   OH278513   3.395   6.048   2.749  0.2925  0.3779 -0.0062
19033TIP3    H178514   3.487   6.034   2.726  0.4614  1.8175 -0.3066
19033TIP3    H278515   3.398   6.088   2.836 -0.0931 -0.2038  0.2813
19034TIP3   OH278516   3.423   6.807   5.405  0.2621 -0.0312 -0.0569
19034TIP3    H178517   3.408   6.871   5.475  2.4754  0.7174 -0.1900
19034TIP3    H278518   3.484   6.744   5.443 -0.4237 -1.0040 -0.5471
19035TIP3   OH278519   2.341   1.522   4.458  0.4161  0.1629  0.4429
19035TIP3    H178520   2.275   1.589   4.479  1.5376  1.2321  0.6562
19035TIP3    H278521   2.345   1.468   4.537  0.3664  0.5791  0.7328
19036TIP3   OH278522   4.082   4.848   2.392  0.1419  0.0456 -0.1756
19036TIP3    H178523   4.176   4.863   2.383  0.0871  0.4581 -0.0886
19036TIP3    H278524   4.053   4.913   2.455 -0.2362  0.0440 -0.3418
19037TIP3   OH278525   0.382   3.007  13.583 -0.1771  0.2400 -0.0689
19037TIP3    H178526   0.300   3.056  13.582 -0.8424 -0.8204  0.3226
19037TIP3    H278527   0.419   3.023  13.670 -0.2865  0.2219 -0.0187
19038TIP3   OH278528   4.980   1.163   3.680 -0.0776 -0.6212  0.4613
19038TIP3    H178529   4.951   1.219   3.752  0.1743 -0.4113  0.4016
19038TIP3    H278530   4.911   1.172   3.613 -1.1601 -2.1083  1.3180
19039TIP3   OH278531   0.313   0.785   4.960 -0.2449  0.1027  0.4787
19039TIP3    H178532   0.264   0.820   5.034 -1.0292  1.3541 -0.5933
19039TIP3    H278533   0.248   0.775   4.890  0.7618  0.6205 -0.5807
19040TIP3   OH278534   1.102   4.074   2.946  0.3778 -0.0185 -0.0300
19040TIP3    H178535   1.066   4.160   2.926 -0.0766 -0.4059 -0.9470
19040TIP3    H278536   1.091   4.064   3.040  2.9875  2.0766  0.6188
19041TIP3   OH278537   5.784   4.045  14.306 -0.2041  0.2364  0.2475
19041TIP3    H178538   5.756   3.975  14.366  0.4526  0.7039  1.1231
19041TIP3    H278539   5.728   4.034  14.229 -0.2367 -1.1487  0.4330
19042TIP3   OH278540   0.887   2.087   3.987 -0.7158  0.1637  0.2375
19042TIP3    H178541   0.965   2.108   3.936  0.1143 -1.2590  0.8536
19042TIP3    H278542   0.820   2.149   3.956  0.0815  0.1220 -1.6998
19043TIP3   OH278543   6.230   0.501   4.641 -0.2915  0.1521  0.2428
19043TIP3    H178544   6.169   0.556   4.690  1.0797  0.7432  1.3534
19043TIP3    H278545   6.306   0.558   4.626  0.3389 -0.8253 -0.3567
19044TIP3   OH278546   6.894   1.543   4.220 -0.5146 -0.0255 -0.2840
19044TIP3    H178547   6.989   1.533   4.214 -0.3428 -0.0232  1.5972
19044TIP3    H278548   6.866   1.568   4.132  1.6116  3.0495 -0.2484
19045TIP3   OH278549   2.431   2.319   4.406  0.3247  0.2962  0.4518
19045TIP3    H178550   2.460   2.234   4.371 -1.6800 -0.3417  0.2175
19045TIP3    H278551   2.444   2.312   4.501  0.3476 -0.2034  0.4132
19046TIP3   OH278552   5.827   5.662   1.685  0.4103  0.0136  0.2763
19046TIP3    H178553   5.752   5.636   1.631 -0.1220  1.4598  0.2936
19046TIP3    H278554   5.900   5.666   1.624  0.5394 -1.5369  0.2808
19047TIP3   OH278555   5.805   0.064   1.629  0.5831 -0.6046  0.4898
19047TIP3    H178556   5.737   0.126   1.603 -0.3349 -0.6263  2.6235
19047TIP3    H278557   5.886   0.116   1.628  0.6669 -0.6326 -2.2697
19048TIP3   OH278558   4.524   4.377   5.183 -0.0486 -0.4035 -0.1983
19048TIP3    H178559   4.548   4.466   5.208  2.5685 -0.5711 -1.7704
19048TIP3    H278560   4.532   4.326   5.264  1.4810  0.2537  0.0970
19049TIP3   OH278561   1.554   3.931   0.509  0.0471  0.2355  0.3661
19049TIP3    H178562   1.470   3.958   0.473 -0.8063 -2.1690  0.4080
19049TIP3    H278563   1.619   3.982   0.459 -1.2249 -0.8505 -2.6243
19050TIP3   OH278564   5.880   6.031   2.629 -0.3805 -0.2567  0.3182
19050TIP3    H178565   5.806   5.972   2.638  0.1438 -0.9123  0.4212
19050TIP3    H278566   5.855   6.109   2.678 -1.3251 -0.1518 -0.3168
19051TIP3   OH278567   3.959   0.024   4.328  0.3276  0.0187  0.5759
19051TIP3    H178568   3.896   0.014   4.399 -0.4219  0.6470  0.0240
19051TIP3    H278569   3.942  -0.049   4.269  0.7636 -0.3454  0.8911
19052TIP3   OH278570   3.167   2.415   0.760 -0.4011  0.0999  0.2974
19052TIP3    H178571   3.171   2.509   0.747  1.6010  0.1348  0.8624
19052TIP3    H278572   3.211   2.378   0.684  2.6319 -0.1094  1.9763
19053TIP3   OH278573   6.849   0.308   2.705  0.3324 -0.4359  0.7541
19053TIP3    H178574   6.758   0.294   2.679  0.1184  0.6984  0.8365
19053TIP3    H278575   6.867   0.399   2.680  1.8782 -1.0304 -0.5149
19054TIP3   OH278576   1.446   2.129   0.548  0.5670 -0.7036 -0.1875
19054TIP3    H178577   1.434   2.034   0.547 -0.6791 -0.5778  0.8117
19054TIP3    H278578   1.510   2.145   0.618 -0.2937 -0.7208  0.6237
19055TIP3   OH278579   4.398   0.915   3.054  0.0386 -0.4360  0.2414
19055TIP3    H178580   4.307   0.917   3.024 -0.0055 -0.6003  0.3647
19055TIP3    H278581   4.450   0.927   2.975 -0.1128  0.9080  0.3087
19056TIP3   OH278582   4.657   5.442   2.394 -0.3308  0.1056  0.5969
19056TIP3    H178583   4.735   5.399   2.359 -0.3318 -0.3708  1.1743
19056TIP3    H278584   4.681   5.469   2.483 -0.5679  0.6619  0.4988
19057TIP3   OH278585   5.843   3.454   1.308  0.4852 -0.3500 -0.0632
19057TIP3    H178586   5.769   3.513   1.300 -0.5064 -1.7517 -1.9532
19057TIP3    H278587   5.918   3.504   1.276  0.1392  0.6602  0.6718
19058TIP3   OH278588   6.162   2.777   5.025 -0.6203 -0.1798  0.4983
19058TIP3    H178589   6.082   2.801   5.071 -1.5279 -1.0786 -0.5486
19058TIP3    H278590   6.175   2.684   5.046 -1.4798 -0.8201 -1.5964
19059TIP3   OH278591   6.836   2.924   0.429 -0.2258  0.1152  0.0943
19059TIP3    H178592   6.747   2.896   0.409  0.0410  0.1267 -1.1753
19059TIP3    H278593   6.884   2.842   0.442 -0.4034  0.1094  0.8092
19060TIP3   OH278594   6.214   4.899   4.621  0.0334  0.6192 -0.6435
19060TIP3    H178595   6.148   4.942   4.567 -0.8648 -0.0807 -0.1336
19060TIP3    H278596   6.253   4.969   4.672  0.0405  1.1119 -1.3219
19061TIP3   OH278597   6.318   1.617   4.930 -0.2569  0.1440  0.4335
19061TIP3    H178598   6.256   1.544   4.923  0.2709 -0.2864  0.1797
19061TIP3    H278599   6.392   1.591   4.875  0.2553  0.5384  0.9252
19062TIP3   OH278600   6.694   7.096   3.600 -0.1748  0.8607 -0.2208
19062TIP3    H178601   6.770   7.096   3.541  0.0283  0.8622  0.0374
19062TIP3    H278602   6.657   7.008   3.591 -0.8600  1.2296 -1.2517
19063TIP3   OH278603   7.151   3.173  14.021  0.6673  0.4116 -0.1615
19063TIP3    H178604   7.220   3.211  14.075  1.0243 -1.0703  0.4878
19063TIP3    H278605   7.087   3.140  14.084  1.4281 -1.9888 -0.5149
19064TIP3   OH278606   2.332   1.763   0.765 -0.2579 -0.0388 -0.3354
19064TIP3    H178607   2.241   1.783   0.787 -0.4308 -1.5652  0.4226
19064TIP3    H278608   2.332   1.750   0.670 -1.2544 -1.9921 -0.1073
19065TIP3   OH278609   7.134   2.841   4.629  0.3517  0.2479  0.1312
19065TIP3    H178610   7.205   2.779   4.612 -0.0768 -0.5719  1.1818
19065TIP3    H278611   7.056   2.798   4.594  0.4102  1.4082 -1.5738
19066TIP3   OH278612   5.815   0.385  15.080  0.4005 -0.3549  0.0660
19066TIP3    H178613   5.742   0.443  15.104  0.6808  1.0296 -2.0936
19066TIP3    H278614   5.773   0.309  15.040  0.0371  1.0067 -2.3687
19067TIP3   OH278615   4.123   2.615   3.380 -0.2309 -0.4081  0.1619
19067TIP3    H178616   4.198   2.563   3.351  0.6075  1.3082 -0.9368
19067TIP3    H278617   4.104   2.582   3.468  1.3383 -1.4152  0.1679
19068TIP3   OH278618   4.906   3.210   1.987 -0.5441  0.0111  0.3419
19068TIP3    H178619   4.860   3.293   2.001 -0.4811  0.1033  0.0049
19068TIP3    H278620   4.884   3.157   2.064 -1.2718  0.0237  0.1459
19069TIP3   OH278621   5.813   5.965   0.847  0.2682  0.5164 -0.0613
19069TIP3    H178622   5.752   5.985   0.775  0.1848 -2.5421 -0.9839
19069TIP3    H278623   5.866   5.893   0.814  1.2187 -0.0279  2.4459
19070TIP3   OH278624   3.371   7.096   1.537 -0.0223  0.0456 -0.3735
19070TIP3    H178625   3.327   7.180   1.554  1.1946  0.4862  0.7063
19070TIP3    H278626   3.341   7.039   1.608 -0.0815 -0.1436 -0.5492
19071TIP3   OH278627   1.516   7.082   1.840  0.2243 -0.1245 -0.0745
19071TIP3    H178628   1.574   7.129   1.780  0.4763 -1.2339 -0.7063
19071TIP3    H278629   1.480   7.151   1.896 -1.1359  1.1671 -2.3927
19072TIP3   OH278630   3.895   1.220   4.850  0.2378  0.0752 -0.8064
19072TIP3    H178631   3.894   1.231   4.945 -1.4828  0.7106 -0.8554
19072TIP3    H278632   3.979   1.258   4.823  1.6697 -1.8997  0.5900
19073TIP3   OH278633   0.899   4.453   3.528  0.2893 -0.2989  0.1505
19073TIP3    H178634   0.920   4.462   3.435  0.3317  0.2310  0.2096
19073TIP3    H278635   0.984   4.453   3.573  0.3002 -1.1875  0.1403
19074TIP3   OH278636   3.216   1.932   4.799 -0.0556  0.3286 -0.2900
19074TIP3    H178637   3.127   1.922   4.765 -0.6664  0.6900  1.1424
19074TIP3    H278638   3.268   1.955   4.722 -1.2320  0.3215 -1.1198
19075TIP3   OH278639   0.212   6.936   2.511 -0.6505  0.5288  0.4547
19075TIP3    H178640   0.181   6.972   2.594 -0.8537  1.5284 -0.0458
19075TIP3    H278641   0.300   6.972   2.501 -0.4889  0.1245  0.4043
19076TIP3   OH278642   5.616   0.674   4.143  0.4509  0.0149 -0.4623
19076TIP3    H178643   5.698   0.692   4.189  0.1482  1.1378 -0.3300
19076TIP3    H278644   5.642   0.632   4.061  1.0873 -0.5840  0.0399
19077TIP3   OH278645   2.559   5.325   3.581  0.2804  0.1231  0.2428
19077TIP3    H178646   2.642   5.362   3.611 -0.1724  0.9506  0.4960
19077TIP3    H278647   2.580   5.282   3.499  1.1757 -0.6000  0.8273
19078TIP3   OH278648   4.152   4.364   3.929 -0.3470  0.2397 -0.0152
19078TIP3    H178649   4.119   4.287   3.884  0.7771  0.2282 -0.8706
19078TIP3    H278650   4.085   4.431   3.916 -2.0933 -0.9925  2.0969
19079TIP3   OH278651   1.951   3.884   3.201  0.0458  0.3396 -0.2280
19079TIP3    H178652   2.001   3.949   3.151  1.5077 -0.4665  0.1268
19079TIP3    H278653   1.956   3.804   3.149  1.4484 -0.4691  1.0419
19080TIP3   OH278654   2.914   5.768   3.292 -0.1485 -0.1151 -0.3870
19080TIP3    H178655   2.974   5.698   3.320  1.3127  0.0835 -2.6908
19080TIP3    H278656   2.880   5.804   3.373  0.9921 -1.8669  0.9596
19081TIP3   OH278657   3.316   6.996   5.214 -0.3532 -0.9925  0.0630
19081TIP3    H178658   3.378   6.944   5.265  0.2951 -2.1858 -1.8395
19081TIP3    H278659   3.317   6.956   5.126  0.2562  2.2540 -1.5630
19082TIP3   OH278660   3.278   2.656  15.075 -0.5813 -0.0493 -0.1183
19082TIP3    H178661   3.303   2.640  14.984 -2.2056  3.3657 -1.3389
19082TIP3    H278662   3.361   2.665  15.122  0.3561  0.9424 -1.8781
19083TIP3   OH278663   0.438   1.221   5.516 -0.4726 -0.2695  0.3622
19083TIP3    H178664   0.382   1.253   5.587  0.6477  3.5672 -0.2926
19083TIP3    H278665   0.512   1.180   5.561  1.3329  3.9848  1.7663
19084TIP3   OH278666   0.701   3.250   0.053  0.3048  0.2348  0.2291
19084TIP3    H178667   0.617   3.222   0.088 -0.1014  1.0720 -0.0297
19084TIP3    H278668   0.694   3.235  -0.042 -0.4560  2.3909 -0.1140
19085TIP3   OH278669   1.140   1.039   3.246 -0.2571 -0.2042  0.0038
19085TIP3    H178670   1.097   1.119   3.216 -0.0082 -0.4864 -1.1596
19085TIP3    H278671   1.080   1.002   3.310 -1.9306 -0.7373 -1.7892
19086TIP3   OH278672   1.324   1.519  11.661  0.2671 -0.3175 -0.0428
19086TIP3    H178673   1.361   1.591  11.713  2.2638 -0.5299 -1.0479
19086TIP3    H278674   1.234   1.511  11.691 -0.1138  2.7659 -0.0301
19087TIP3   OH278675   0.634   4.431   0.581 -0.2497 -0.1071  0.0789
19087TIP3    H178676   0.607   4.505   0.636  2.7842  0.7536  0.5879
19087TIP3    H278677   0.583   4.357   0.614 -1.5384  1.2304  1.2529
19088TIP3   OH278678   6.960   5.358  12.514 -0.8910 -0.2215 -0.2817
19088TIP3    H178679   6.977   5.433  12.457 -1.2515 -0.1714 -0.3293
19088TIP3    H278680   6.928   5.397  12.595 -0.0237 -0.2745  0.0971
19089TIP3   OH278681   0.847   6.801  10.151  0.4362  0.2874 -0.4146
19089TIP3    H178682   0.874   6.893  10.144  0.0812  0.4368  0.1210
19089TIP3    H278683   0.778   6.802  10.218  0.4897 -0.3801 -0.3503
19090TIP3   OH278684   0.064   6.601   5.068  0.0813 -0.0546 -0.1962
19090TIP3    H178685   0.075   6.696   5.072  0.2084 -0.0671 -0.2528
19090TIP3    H278686  -0.018   6.584   5.116 -0.0010  0.0933 -0.2857
19091TIP3   OH278687   6.934   1.487   4.789  0.0220  0.3781 -0.8773
19091TIP3    H178688   6.881   1.558   4.827  0.5004 -0.2372  1.0627
19091TIP3    H278689   6.993   1.531   4.729 -0.3167  1.5134 -0.4088
19092TIP3   OH278690   0.923   1.216   2.198 -0.5744  0.3545  0.6151
19092TIP3    H178691   0.943   1.288   2.258 -1.4995  2.2897 -1.2573
19092TIP3    H278692   0.836   1.237   2.163 -0.4455 -1.1612 -0.7327
19093TIP3   OH278693   0.232   6.205   4.237 -0.1894  0.3193 -0.6672
19093TIP3    H178694   0.289   6.149   4.184  0.9481  2.2652 -1.6277
19093TIP3    H278695   0.185   6.258   4.174  0.1256  1.6885  0.2107
19094TIP3   OH278696   2.241   0.124  13.409  0.3904  0.4328  0.1907
19094TIP3    H178697   2.291   0.063  13.463  0.1578  0.2288  0.1771
19094TIP3    H278698   2.295   0.136  13.331  0.6712  0.6352  0.4127
19095TIP3   OH278699   3.671   6.183   4.749 -0.5894  0.4832  0.6095
19095TIP3    H178700   3.687   6.090   4.733  1.9811  0.7829  1.0245
19095TIP3    H278701   3.597   6.185   4.810 -0.4664 -1.2924  0.8545
19096TIP3   OH278702   4.086   0.599   2.122 -0.1242 -0.0696  0.2980
19096TIP3    H178703   4.109   0.656   2.049  1.5161 -0.5932  0.3707
19096TIP3    H278704   4.072   0.513   2.081  0.2361 -0.2378  0.5246
19097TIP3   OH278705   5.151   3.490   1.203  0.3874 -0.5049 -0.1801
19097TIP3    H178706   5.091   3.416   1.202  0.4398 -0.5492 -0.0338
19097TIP3    H278707   5.184   3.493   1.292 -1.0299  0.8434  0.3401
19098TIP3   OH278708   2.400   6.815   2.336  0.3016  0.0924 -0.4708
19098TIP3    H178709   2.452   6.802   2.416  0.8480 -1.9617 -1.0892
19098TIP3    H278710   2.370   6.906   2.341 -0.5691 -0.2593  2.5921
19099TIP3   OH278711   2.528   6.547   5.799  0.1547 -0.1920  0.0326
19099TIP3    H178712   2.524   6.451   5.800  1.3359 -0.2625  0.4012
19099TIP3    H278713   2.622   6.566   5.805 -0.0596  0.9886 -0.2339
19100TIP3   OH278714   0.433   1.530   3.181  0.0270  0.1596 -0.3320
19100TIP3    H178715   0.339   1.545   3.170 -0.0703 -0.7846 -0.9245
19100TIP3    H278716   0.460   1.592   3.248 -1.4063 -0.8532  1.2735
19101TIP3   OH278717   2.587   2.988   0.125 -0.3513  0.0667 -0.0429
19101TIP3    H178718   2.509   2.931   0.130  0.0481 -0.4586  0.4558
19101TIP3    H278719   2.561   3.060   0.069 -0.6760 -0.9353 -1.2227
19102TIP3   OH278720   5.765   2.694  13.638  0.5580 -0.0129  0.0252
19102TIP3    H178721   5.744   2.626  13.702 -0.7683  1.2855  1.0306
19102TIP3    H278722   5.720   2.667  13.558  1.2081 -1.0079 -0.0275
19103TIP3   OH278723   1.085   1.353   3.898 -0.1060  0.7085 -0.5706
19103TIP3    H178724   1.128   1.433   3.927 -2.2514  2.2137 -1.2653
19103TIP3    H278725   1.146   1.313   3.836  0.9533  1.8763 -0.3087
19104TIP3   OH278726   3.587   3.780   4.098 -0.9603  0.0060 -0.0209
19104TIP3    H178727   3.525   3.795   4.026 -0.6090  0.0852 -0.3102
19104TIP3    H278728   3.599   3.866   4.139 -0.2518  0.2015 -0.6146
19105TIP3   OH278729   4.404   0.907   2.059  0.0460  0.0794  0.4201
19105TIP3    H178730   4.326   0.921   2.006 -0.0093 -1.5947  0.0039
19105TIP3    H278731   4.380   0.838   2.120  0.7892  0.5048  1.2296
19106TIP3   OH278732   6.996   6.738   3.201 -0.5466 -0.6428  0.1750
19106TIP3    H178733   7.011   6.769   3.111  0.1361 -1.7057 -0.0956
19106TIP3    H278734   6.984   6.818   3.252 -0.8887 -0.0163 -0.8503
19107TIP3   OH278735   1.428   4.224   3.520  0.2604 -0.3454  0.0079
19107TIP3    H178736   1.487   4.149   3.522  0.9695  0.1502 -0.9999
19107TIP3    H278737   1.487   4.300   3.526 -0.2778  0.1583 -0.9154
19108TIP3   OH278738   3.486   6.524   4.677 -0.6197 -0.6943 -0.5159
19108TIP3    H178739   3.553   6.456   4.675  0.5165  0.3741 -0.2076
19108TIP3    H278740   3.497   6.565   4.763 -1.7097 -0.5163 -0.4443
19109TIP3   OH278741   6.163   3.865  10.370 -0.0081 -0.1382  0.1120
19109TIP3    H178742   6.068   3.870  10.375 -0.2127 -0.5741 -2.1189
19109TIP3    H278743   6.188   3.938  10.314  0.6621 -1.5030 -1.4651
19110TIP3   OH278744   2.680   3.303   4.353  0.3700 -0.0307  0.2188
19110TIP3    H178745   2.613   3.300   4.422  0.8347 -1.3915  0.6288
19110TIP3    H278746   2.752   3.251   4.387  0.4158 -1.1619 -1.4835
19111TIP3   OH278747   6.596   0.152   2.088  0.6963  0.4780  0.1404
19111TIP3    H178748   6.503   0.174   2.091  0.3687 -0.2429 -2.4206
19111TIP3    H278749   6.598   0.060   2.060  2.1804 -0.1118  1.9990
19112TIP3   OH278750   4.097   6.843   2.536 -0.1913 -0.3297  1.0463
19112TIP3    H178751   4.122   6.931   2.565  0.0025  0.7689 -2.0230
19112TIP3    H278752   4.020   6.857   2.480  1.2895 -1.6531 -1.5391
19113TIP3   OH278753   1.043   1.292   3.230 -0.5061 -0.1881 -0.1232
19113TIP3    H178754   1.129   1.313   3.192 -0.3677 -0.1801  0.1880
19113TIP3    H278755   1.038   1.347   3.308 -1.5386  1.1280 -1.0673
19114TIP3   OH278756   5.162   2.511  15.048  0.0524 -0.1958  0.1898
19114TIP3    H178757   5.143   2.433  14.997  0.3401 -0.7587  0.9181
19114TIP3    H278758   5.175   2.580  14.983 -2.1467 -0.2847 -0.4251
19115TIP3   OH278759   2.757   1.851  14.795  0.2919 -0.8805 -0.4480
19115TIP3    H178760   2.763   1.927  14.737 -0.0842 -0.0623  0.5464
19115TIP3    H278761   2.677   1.805  14.767 -0.4307  0.0476  0.0300
19116TIP3   OH278762   3.673   1.374   3.632  0.1412  0.2875 -0.0361
19116TIP3    H178763   3.653   1.349   3.722  0.8420  0.6896  0.2355
19116TIP3    H278764   3.676   1.470   3.633 -0.5921  0.3260 -0.6511
19117TIP3   OH278765   5.837   6.321   0.261  0.2384  0.3059 -0.6335
19117TIP3    H178766   5.751   6.359   0.279  0.1171 -0.6855  1.0805
19117TIP3    H278767   5.827   6.228   0.282  1.7793  0.2167 -0.1779
19118TIP3   OH278768   4.086   6.683   1.335  0.7615 -0.1227  0.1560
19118TIP3    H178769   4.137   6.610   1.371  2.7628  1.6097  1.0064
19118TIP3    H278770   4.098   6.676   1.240 -1.5662 -2.5720 -0.1063
19119TIP3   OH278771   5.927   5.221   0.522 -0.2489  0.7879 -0.5363
19119TIP3    H178772   5.949   5.175   0.441 -0.7580 -0.8084  0.1998
19119TIP3    H278773   5.845   5.266   0.502 -0.0664  0.8812 -1.0834
19120TIP3   OH278774   0.566   5.403   6.099 -0.1189 -0.1203  0.0372
19120TIP3    H178775   0.498   5.458   6.061  0.5191 -0.5075 -1.7283
19120TIP3    H278776   0.646   5.456   6.093 -0.2646  0.5001  2.4651
19121TIP3   OH278777   5.108   6.103   4.507  0.3512 -0.5012  0.1891
19121TIP3    H178778   5.196   6.088   4.473  0.2730  0.5568 -0.5099
19121TIP3    H278779   5.050   6.088   4.432  0.0215 -0.0696  0.3552
19122TIP3   OH278780   2.228   2.756   4.781  0.3457 -0.2557  0.1211
19122TIP3    H178781   2.200   2.666   4.799 -0.1790 -0.1318 -0.0312
19122TIP3    H278782   2.319   2.748   4.754  0.4974 -0.6699  0.7389
19123TIP3   OH278783   2.702   6.521   4.631  0.2723  0.5337 -0.0129
19123TIP3    H178784   2.650   6.514   4.710  0.5416  0.3548  0.1500
19123TIP3    H278785   2.643   6.562   4.567 -0.2317 -0.1464  0.0133
19124TIP3   OH278786   4.614   0.594  14.581 -0.3171  0.2062 -0.0645
19124TIP3    H178787   4.561   0.626  14.509 -1.0195  1.3518  0.9198
19124TIP3    H278788   4.704   0.605  14.551 -0.5967  0.4243 -0.8550
19125TIP3   OH278789   5.908   3.991   3.223 -0.5174  0.7363 -0.1791
19125TIP3    H178790   5.970   4.015   3.292 -0.8742 -1.8221  1.1820
19125TIP3    H278791   5.893   4.072   3.175  2.8477  1.7506  0.2113
19126TIP3   OH278792   2.902   0.139   1.665  0.2560 -0.3361  0.0348
19126TIP3    H178793   2.909   0.116   1.757 -1.6470 -0.8870  0.0669
19126TIP3    H278794   2.932   0.230   1.661  1.5587 -0.6925  0.9578
19127TIP3   OH278795   0.671   0.982  15.251 -0.2601 -0.9124 -0.8545
19127TIP3    H178796   0.603   0.936  15.301  0.7445 -1.0009  0.4733
19127TIP3    H278797   0.632   1.068  15.232 -1.8229 -1.9143 -2.6189
19128TIP3   OH278798   1.707   2.533   4.254 -0.1358  0.2387 -0.0773
19128TIP3    H178799   1.625   2.526   4.206 -0.0706 -0.2355 -0.1232
19128TIP3    H278800   1.720   2.627   4.265 -0.3049  0.3500 -0.7346
19129TIP3   OH278801   4.418   0.612   5.435  0.0582 -0.2629  0.7372
19129TIP3    H178802   4.507   0.600   5.404 -0.7638 -0.1136 -1.9413
19129TIP3    H278803   4.412   0.706   5.454  0.3096 -0.1649  0.3450
19130TIP3   OH278804   5.002   3.595   1.544 -0.2464  0.1537  0.3763
19130TIP3    H178805   5.008   3.500   1.554  0.5387  0.2274  0.6220
19130TIP3    H278806   5.082   3.629   1.584 -0.1281  0.8722 -0.4480
19131TIP3   OH278807   5.823   0.917   4.014 -0.1148  0.3980 -0.1480
19131TIP3    H178808   5.825   0.858   4.089 -0.6882 -0.5365 -0.8457
19131TIP3    H278809   5.791   0.863   3.942  1.0806  1.0850 -1.2349
19132TIP3   OH278810   5.739   3.231  15.131  0.5866 -0.0122  0.5246
19132TIP3    H178811   5.715   3.281  15.209  1.3406 -0.7309  1.2384
19132TIP3    H278812   5.827   3.200  15.149  0.2973 -1.2420 -0.0720
19133TIP3   OH278813   1.200   3.446   5.038  0.5889 -0.5212  0.3362
19133TIP3    H178814   1.213   3.357   5.006  0.3283 -0.4048 -0.0901
19133TIP3    H278815   1.127   3.439   5.099  0.8676 -0.6791  0.6592
19134TIP3   OH278816   0.895   1.162   5.174  0.4983  0.2743 -0.8676
19134TIP3    H178817   0.841   1.241   5.166 -0.1198 -0.1671 -1.1590
19134TIP3    H278818   0.899   1.127   5.085  0.7893 -0.0142 -0.7418
19135TIP3   OH278819   2.793   1.648   0.291  0.3082 -0.2065  0.1886
19135TIP3    H178820   2.807   1.553   0.294  1.1144 -0.1415 -0.7817
19135TIP3    H278821   2.816   1.672   0.201 -1.2425  0.7151  0.0203
19136TIP3   OH278822   5.686   3.260   1.409 -0.0967  0.1737  0.4317
19136TIP3    H178823   5.756   3.196   1.399 -1.2213 -1.1260  0.6391
19136TIP3    H278824   5.705   3.327   1.343 -1.2459 -2.5683 -2.9759
19137TIP3   OH278825   5.559   4.701  14.895 -0.2242  0.6245  0.0056
19137TIP3    H178826   5.546   4.715  14.801  0.6209 -2.5923 -0.7127
19137TIP3    H278827   5.652   4.685  14.904  0.0665  2.7293  1.8010
19138TIP3   OH278828   5.658   1.094  14.372  0.0732  0.3466 -0.0078
19138TIP3    H178829   5.676   1.022  14.433 -0.7657  1.3582  1.5181
19138TIP3    H278830   5.637   1.050  14.290 -1.5094 -1.2566  1.1524
19139TIP3   OH278831   2.326   1.151   1.298 -0.4223 -0.0504 -0.1550
19139TIP3    H178832   2.293   1.061   1.288 -0.3092 -0.2450  1.0065
19139TIP3    H278833   2.403   1.141   1.355  0.3173  0.6574 -0.9972
19140TIP3   OH278834   1.558   4.697   4.046  0.6221  0.1094 -0.0924
19140TIP3    H178835   1.591   4.714   3.958  1.3329 -0.5907  0.0321
19140TIP3    H278836   1.509   4.776   4.069 -1.0664 -0.3659 -1.7968
19141TIP3   OH278837   1.396   3.243   4.798  0.2651  0.0784 -0.5596
19141TIP3    H178838   1.428   3.187   4.869 -0.2493 -1.4820 -1.5052
19141TIP3    H278839   1.475   3.276   4.755  0.5766  0.2451  0.1246
19142TIP3   OH278840   5.197   0.592   2.189  0.1272 -0.2628  0.2303
19142TIP3    H178841   5.119   0.645   2.169 -0.9888 -1.2054  1.8854
19142TIP3    H278842   5.201   0.590   2.284  1.2415 -1.5907  0.1764
19143TIP3   OH278843   4.024   1.710   2.169 -0.5710 -0.5206 -0.0669
19143TIP3    H178844   4.025   1.772   2.242 -2.0412 -1.3253  0.6794
19143TIP3    H278845   4.094   1.648   2.188  0.5048  0.5212 -0.5045
19144TIP3   OH278846   3.631   1.325   0.852 -0.0471  0.1031  0.2625
19144TIP3    H178847   3.679   1.361   0.777 -0.5984  0.1903 -0.0573
19144TIP3    H278848   3.654   1.382   0.925  2.3296 -1.3287  0.7391
19145TIP3   OH278849   5.659   0.442   3.762  0.2578  0.6996 -0.1505
19145TIP3    H178850   5.670   0.477   3.850 -2.4298  0.5870  0.3346
19145TIP3    H278851   5.585   0.381   3.770  1.0705 -0.6486 -2.1434
19146TIP3   OH278852   1.877   5.126   1.839  0.4235 -0.1452  0.2470
19146TIP3    H178853   1.899   5.106   1.930 -1.7770 -2.0593  0.4575
19146TIP3    H278854   1.882   5.042   1.793  2.2153  0.8977 -1.6508
19147TIP3   OH278855   3.103   1.866   3.097  0.2644  0.4557  0.5329
19147TIP3    H178856   3.030   1.841   3.040 -0.5635 -0.5549  1.9635
19147TIP3    H278857   3.176   1.880   3.038 -0.8544  0.5946 -0.8686
19148TIP3   OH278858   0.637   3.449   1.485  0.3815  0.7524 -0.0900
19148TIP3    H178859   0.587   3.370   1.466  2.0157 -0.3505  0.0415
19148TIP3    H278860   0.635   3.499   1.403  1.0961 -0.4352 -0.8569
19149TIP3   OH278861   4.854   2.907   4.988  0.6815 -0.1928 -0.1011
19149TIP3    H178862   4.839   2.865   5.073  0.2033  1.0123  0.4250
19149TIP3    H278863   4.775   2.959   4.973  1.0300  0.0858 -1.0058
19150TIP3   OH278864   7.084   0.092   2.572  0.1447  0.2608  0.0489
19150TIP3    H178865   7.169   0.050   2.582 -0.1981 -0.6088 -0.5660
19150TIP3    H278866   7.098   0.182   2.601  1.5437  0.4304 -1.0454
19151TIP3   OH278867   7.127   6.502   3.669  0.9748 -0.9715 -0.0688
19151TIP3    H178868   7.036   6.518   3.695  0.7113 -1.8403 -0.4086
19151TIP3    H278869   7.146   6.414   3.702  1.0578 -1.5723 -1.6206
19152TIP3   OH278870   3.571   4.085   0.188 -0.0549 -0.0998  0.0241
19152TIP3    H178871   3.531   4.067   0.104  0.3044 -0.5717 -0.0457
19152TIP3    H278872   3.499   4.079   0.251 -0.1813 -0.4637 -0.1577
19153TIP3   OH278873   0.198   0.139   1.760  0.8401 -0.1268 -0.0295
19153TIP3    H178874   0.178   0.045   1.762  3.7733 -0.8419  0.5817
19153TIP3    H278875   0.250   0.150   1.680  0.1302  1.0929 -0.3393
19154TIP3   OH278876   4.679   4.364   3.180  0.2206  0.8187 -0.5423
19154TIP3    H178877   4.698   4.407   3.264  2.8014  1.5950 -1.4373
19154TIP3    H278878   4.608   4.416   3.142 -0.9476  0.4984  1.0569
19155TIP3   OH278879   6.046   6.445   0.157 -0.5347 -0.6034  0.1513
19155TIP3    H178880   5.959   6.429   0.195 -0.4541  1.1802  1.1830
19155TIP3    H278881   6.036   6.421   0.065 -0.9464 -4.3164  0.9919
19156TIP3   OH278882   0.040   0.588   3.239 -0.3740  0.2572 -1.0940
19156TIP3    H178883   0.059   0.654   3.307  0.0518 -1.7671  0.8615
19156TIP3    H278884   0.116   0.590   3.182 -0.6565  1.8836 -1.4640
19157TIP3   OH278885   2.820   1.072   5.701  0.0146 -0.0966  0.1814
19157TIP3    H178886   2.797   1.162   5.678 -1.5244 -0.9058 -1.8306
19157TIP3    H278887   2.735   1.028   5.713  0.6771 -1.5329 -0.1010
19158TIP3   OH278888   3.423   6.950   3.973  0.0012 -0.2186  0.1672
19158TIP3    H178889   3.375   6.868   3.965  0.8526 -1.0893  2.8077
19158TIP3    H278890   3.358   7.018   3.955 -0.9860 -1.4256 -0.9880
19159TIP3   OH278891   2.376   1.865   2.739  0.1669 -0.1969  0.0353
19159TIP3    H178892   2.319   1.911   2.677  0.1851  2.0782  1.5889
19159TIP3    H278893   2.321   1.851   2.816  0.6181 -1.5198  0.1368
19160TIP3   OH278894   6.581   1.274   6.109  0.2249 -0.2941  0.5326
19160TIP3    H178895   6.535   1.236   6.034  1.6373 -2.9523  0.8866
19160TIP3    H278896   6.632   1.202   6.145  2.4153  1.7883  1.9102
19161TIP3   OH278897   4.247   1.222  14.387  0.0455 -0.2672 -0.2519
19161TIP3    H178898   4.325   1.270  14.358 -0.0270 -0.8781 -1.5206
19161TIP3    H278899   4.237   1.152  14.323 -2.9309  1.1943 -1.6019
19162TIP3   OH278900   1.304   4.660   3.842  0.3363  0.3270 -0.6678
19162TIP3    H178901   1.313   4.573   3.879  2.3622  1.5688  2.0947
19162TIP3    H278902   1.228   4.698   3.885 -0.8805 -0.1634 -2.2692
19163TIP3   OH278903   5.237   0.435   3.231 -0.2251  0.9624  0.1290
19163TIP3    H178904   5.168   0.470   3.174 -0.5035 -1.5360 -1.2298
19163TIP3    H278905   5.318   0.468   3.192 -0.4560 -0.0635 -1.3080
19164TIP3   OH278906   2.333   1.853   2.313  0.1168 -0.6935  0.3989
19164TIP3    H178907   2.299   1.778   2.264  0.1635  0.4413 -1.4514
19164TIP3    H278908   2.372   1.909   2.246  1.2637  0.3607  1.9073
19165TIP3   OH278909   0.694   3.631   0.781  0.0545 -0.5373  0.1504
19165TIP3    H178910   0.602   3.623   0.804 -0.4943 -0.2376 -1.7920
19165TIP3    H278911   0.718   3.545   0.748 -0.0591 -0.1268 -1.0531
19166TIP3   OH278912   3.921   1.339  14.898 -0.1511  0.1712 -0.2777
19166TIP3    H178913   3.865   1.369  14.826 -2.7660 -2.4522  0.4164
19166TIP3    H278914   3.875   1.368  14.978  0.6448 -0.2013  0.3296
19167TIP3   OH278915   7.079   5.652   3.560  0.2751  0.1880  0.2608
19167TIP3    H178916   7.060   5.606   3.641  1.1338  1.2196  1.0811
19167TIP3    H278917   6.994   5.662   3.517 -0.1357 -0.6586  0.8648
19168TIP3   OH278918   6.191   4.095   0.521 -0.1417  0.4710 -0.3222
19168TIP3    H178919   6.104   4.054   0.516  0.5518 -1.1172 -0.1088
19168TIP3    H278920   6.251   4.027   0.489  1.1069  1.2449  0.2935
19169TIP3   OH278921   5.015   0.578   4.046 -0.3530 -0.0530 -0.1478
19169TIP3    H178922   5.051   0.530   3.971 -1.8446  0.0774 -0.9772
19169TIP3    H278923   5.087   0.579   4.110 -0.2503 -3.4818 -0.0034
19170TIP3   OH278924   3.492   6.475   2.722 -0.3551  0.1885 -0.5140
19170TIP3    H178925   3.464   6.460   2.813 -1.3262 -0.7200 -0.9403
19170TIP3    H278926   3.561   6.409   2.708  0.4480  0.9364 -0.1656
19171TIP3   OH278927   2.903   5.072   3.138  0.4847  0.2793 -0.3576
19171TIP3    H178928   2.862   5.126   3.071  0.3546 -0.6994 -1.0783
19171TIP3    H278929   2.986   5.044   3.099  0.1686 -0.7258 -0.3252
19172TIP3   OH278930   4.588   6.666   4.282 -0.1711  0.0995  0.1555
19172TIP3    H178931   4.650   6.738   4.274 -0.4950  0.1911 -2.4641
19172TIP3    H278932   4.553   6.674   4.370  0.0192  2.9720  0.0684
19173TIP3   OH278933   2.150   0.782   3.837  0.1543  0.3762  0.8206
19173TIP3    H178934   2.116   0.866   3.809  1.2058  0.6831  0.4187
19173TIP3    H278935   2.244   0.796   3.848  0.5119 -0.9786 -0.1799
19174TIP3   OH278936   3.121   4.917   3.086  0.5825  0.2734 -0.0355
19174TIP3    H178937   3.143   4.845   3.145  1.5179 -0.9345 -1.7810
19174TIP3    H278938   3.140   4.884   2.998 -3.5193  0.9018 -1.3771
19175TIP3   OH278939   6.100   0.172   0.583  0.0328  0.4976  0.4329
19175TIP3    H178940   6.125   0.187   0.674  1.1351 -0.1068  0.2458
19175TIP3    H278941   6.157   0.230   0.533  0.0537  0.1674  0.0718
19176TIP3   OH278942   3.354   2.029   3.795  0.6627  0.4780 -0.1300
19176TIP3    H178943   3.365   2.119   3.766  3.0577  0.2171 -0.2908
19176TIP3    H278944   3.276   2.030   3.851  0.4627  2.5629 -0.3930
19177TIP3   OH278945   6.788   4.718   3.494  0.0264 -0.4616 -0.4480
19177TIP3    H178946   6.828   4.752   3.574  1.1630  2.3819 -2.0894
19177TIP3    H278947   6.856   4.663   3.455 -0.0380 -0.7702 -0.1317
19178TIP3   OH278948   5.438   4.409   3.171 -0.9159  0.9854 -0.0201
19178TIP3    H178949   5.344   4.412   3.154 -1.0309 -0.5518  0.1804
19178TIP3    H278950   5.446   4.373   3.259 -0.1362  1.1514 -0.0126
19179TIP3   OH278951   4.476   5.404   5.125 -0.2040  0.2733 -0.0492
19179TIP3    H178952   4.415   5.469   5.089 -1.6156 -0.1630  1.4201
19179TIP3    H278953   4.425   5.323   5.128 -0.1203  0.2390  2.6637
19180TIP3   OH278954   5.126   2.045   4.805  0.3501 -0.8791 -0.0842
19180TIP3    H178955   5.110   2.139   4.815  0.5657 -0.9187  0.6679
19180TIP3    H278956   5.061   2.017   4.739  0.0699 -0.2694 -0.0749
19181TIP3   OH278957   6.206   5.999   1.928 -0.0900 -0.2114 -0.4060
19181TIP3    H178958   6.237   6.078   1.884  0.1976 -1.4182 -2.4960
19181TIP3    H278959   6.146   6.031   1.995  1.8025  1.9112  0.4416
19182TIP3   OH278960   0.936   6.247   5.711 -0.2955 -0.1245  0.1256
19182TIP3    H178961   0.918   6.324   5.657  1.1587 -0.1923 -0.4895
19182TIP3    H278962   0.911   6.273   5.800 -1.2180  0.5290 -0.3077
19183TIP3   OH278963   3.830   1.232  13.793  0.5576  0.4288 -0.2258
19183TIP3    H178964   3.912   1.236  13.744  0.5981  0.3320 -0.1654
19183TIP3    H278965   3.832   1.148  13.839  1.0539  1.0171  0.8733
19184TIP3   OH278966   6.001   0.174  14.233  0.1007 -0.1734 -0.2451
19184TIP3    H178967   5.949   0.100  14.265  1.7328 -0.8448  1.0245
19184TIP3    H278968   5.937   0.231  14.190 -1.8721 -0.4696  2.0525
19185TIP3   OH278969   0.342   5.730   5.403  0.0297 -0.0403  0.4715
19185TIP3    H178970   0.326   5.808   5.350 -0.2112 -0.2953  0.1657
19185TIP3    H278971   0.328   5.760   5.493 -3.3889 -0.4649  0.2219
19186TIP3   OH278972   6.813   1.081   5.045 -0.1062  0.4843 -0.0205
19186TIP3    H178973   6.833   1.126   4.963  0.9632 -0.4281 -0.2864
19186TIP3    H278974   6.746   1.135   5.087 -3.1860 -0.7029 -2.9927
19187TIP3   OH278975   4.926   5.443   2.916  0.1699 -0.2845  0.0719
19187TIP3    H178976   4.958   5.432   3.005 -0.5308 -0.2407  0.3304
19187TIP3    H278977   4.931   5.537   2.900 -0.6442 -0.1794  0.4204
19188TIP3   OH278978   1.664   2.835   5.938  0.8170  0.2065 -0.3866
19188TIP3    H178979   1.727   2.770   5.906 -0.0276 -1.4584  1.1341
19188TIP3    H278980   1.579   2.801   5.911  0.2495 -0.1277  1.6528
19189TIP3   OH278981   1.482   6.966   5.853 -0.0097  0.1052  0.9557
19189TIP3    H178982   1.457   7.047   5.897  1.1258 -0.1639  2.1841
19189TIP3    H278983   1.410   6.905   5.871 -1.4329  1.1097 -0.9519
19190TIP3   OH278984   1.876   2.785   0.994 -0.5054  0.2948  0.1121
19190TIP3    H178985   1.811   2.775   0.925 -0.3273  2.9962 -0.5421
19190TIP3    H278986   1.825   2.785   1.075 -0.7948 -2.0760 -0.0096
19191TIP3   OH278987   5.630   7.089   4.636 -0.0922  0.7048 -0.0501
19191TIP3    H178988   5.595   7.029   4.702  1.6880 -0.5993 -0.2279
19191TIP3    H278989   5.565   7.089   4.566 -0.0654 -1.1766 -0.1165
19192TIP3   OH278990   5.839   3.809   1.844 -0.2606  0.4744 -0.0411
19192TIP3    H178991   5.803   3.826   1.930 -0.4720  0.1880 -0.0679
19192TIP3    H278992   5.847   3.713   1.840  0.2902  0.5202 -0.1218
19193TIP3   OH278993   0.498   2.192  13.824  0.5298 -0.2312 -0.0283
19193TIP3    H178994   0.475   2.100  13.810  0.8479 -0.4253  0.6848
19193TIP3    H278995   0.470   2.210  13.914 -1.7416  1.0673 -0.9224
19194TIP3   OH278996   0.759   2.123   2.382 -0.4473  0.4088  0.3009
19194TIP3    H178997   0.714   2.157   2.304 -0.5837  1.0752  0.6591
19194TIP3    H278998   0.690   2.085   2.435 -0.2166 -1.0357 -0.3805
19195TIP3   OH278999   6.283   4.559   1.529 -0.4655 -0.0997  0.3459
19195TIP3    H179000   6.212   4.567   1.466  0.7879  0.7660 -1.0154
19195TIP3    H279001   6.332   4.481   1.502 -0.9770 -0.8077  1.3918
19196TIP3   OH279002   2.967   1.654   4.095  0.1213 -0.0674  0.3648
19196TIP3    H179003   2.946   1.648   4.188  3.7786  0.1277  1.3555
19196TIP3    H279004   3.005   1.569   4.073 -0.2895  0.0425 -0.8662
19197TIP3   OH279005   5.445   0.754   3.048 -0.3357 -0.4582  0.4252
19197TIP3    H179006   5.356   0.768   3.015 -0.6915 -1.0116  1.1369
19197TIP3    H279007   5.433   0.704   3.128  0.6116 -0.3563  0.6354
19198TIP3   OH279008   2.628   5.575  13.961 -0.0885 -0.7163  0.1625
19198TIP3    H179009   2.578   5.607  13.886  1.0281 -0.2615 -0.4173
19198TIP3    H279010   2.570   5.514  14.004 -1.6104  0.7146  0.2396
19199TIP3   OH279011   0.164   0.788   3.384  0.0715 -0.1274  0.4938
19199TIP3    H179012   0.158   0.853   3.454 -0.8923  1.2719 -0.8149
19199TIP3    H279013   0.257   0.768   3.378  0.2948  0.5110  1.4846
19200TIP3   OH279014   3.916   6.890   4.429  0.0463 -0.2853  0.6076
19200TIP3    H179015   3.888   6.903   4.338  1.0376  1.5104  0.5059
19200TIP3    H279016   3.868   6.957   4.479  2.8048  1.8485  0.6422
19201TIP3   OH279017   2.548   1.860   5.009 -0.0277  0.4461 -0.0562
19201TIP3    H179018   2.523   1.847   5.101 -0.1773 -2.0748 -0.3966
19201TIP3    H279019   2.499   1.794   4.961  0.8807  1.0091 -1.8478
19202TIP3   OH279020   0.509   3.904   4.457 -0.1422 -0.1735  1.0251
19202TIP3    H179021   0.437   3.968   4.457 -0.4890 -0.4615 -1.9758
19202TIP3    H279022   0.558   3.925   4.537 -4.2357 -0.8560  4.0686
19203TIP3   OH279023   6.571   0.078   5.147  0.6988  0.1776 -0.0237
19203TIP3    H179024   6.610   0.108   5.230 -1.3966  2.5993  0.2271
19203TIP3    H279025   6.633   0.106   5.080  1.2895  0.3325  0.5743
19204TIP3   OH279026   2.163   4.023   5.720 -0.2265  0.3611 -0.2247
19204TIP3    H179027   2.141   4.003   5.629  2.3047  0.3726 -0.9031
19204TIP3    H279028   2.121   4.107   5.736  0.3143  0.9821 -1.8247
19205TIP3   OH279029   2.171   4.624   2.797  0.4454  0.0310 -0.2430
19205TIP3    H179030   2.247   4.665   2.755 -1.4954  0.7981 -3.3004
19205TIP3    H279031   2.155   4.545   2.747 -0.9940  0.0823  0.0983
19206TIP3   OH279032   4.078   0.155   3.381  0.3011  0.2116  0.1626
19206TIP3    H179033   4.117   0.161   3.294 -0.0003  0.3307  0.0336
19206TIP3    H279034   4.049   0.244   3.400  0.3586  0.1842  0.3814
19207TIP3   OH279035   3.459   1.015   0.667  0.2385  0.2413  0.2868
19207TIP3    H179036   3.494   0.931   0.697 -0.7723 -1.1260 -2.0797
19207TIP3    H279037   3.428   1.058   0.747  1.5680 -1.2370  1.6641
19208TIP3   OH279038   0.780   6.299   4.031  0.0838  0.0994 -0.3007
19208TIP3    H179039   0.735   6.350   3.964  0.5848 -1.5029 -1.9360
19208TIP3    H279040   0.854   6.259   3.985  1.7388  0.6357  1.7200
19209TIP3   OH279041   5.104   6.738  14.918  0.8159 -0.8426 -0.6087
19209TIP3    H179042   5.068   6.823  14.892 -0.2231 -1.1759 -0.3158
19209TIP3    H279043   5.031   6.676  14.906  0.6736 -1.2358  1.8028
19210TIP3   OH279044   7.004   5.053   2.512  0.5628  0.9070  0.2182
19210TIP3    H179045   7.091   5.093   2.499  0.8788  0.1393 -0.1047
19210TIP3    H279046   6.965   5.054   2.425  0.6078  0.4468  0.1899
19211TIP3   OH279047   2.443   6.740   3.662  0.5317  0.2741  0.2308
19211TIP3    H179048   2.357   6.708   3.690 -0.0599  0.6793 -1.0584
19211TIP3    H279049   2.434   6.835   3.660  0.8670  0.2991 -0.3327
19212TIP3   OH279050   4.462   4.550   4.247 -0.1253 -0.2608 -0.1310
19212TIP3    H179051   4.436   4.510   4.165  1.0479 -0.8391 -0.2296
19212TIP3    H279052   4.481   4.477   4.305  0.5107  0.1427  0.1792
19213TIP3   OH279053   5.358   2.856   3.256  0.5790  0.0583  0.4311
19213TIP3    H179054   5.379   2.768   3.286  0.7647  0.2632  0.9181
19213TIP3    H279055   5.270   2.873   3.289  0.5825  0.0936  0.4230
19214TIP3   OH279056   1.710   3.554   2.673 -0.2375 -0.5529 -0.0690
19214TIP3    H179057   1.652   3.581   2.745  0.2163  0.4841 -0.0776
19214TIP3    H279058   1.757   3.478   2.707  1.6788  1.2679  1.6651
19215TIP3   OH279059   1.768   3.875   4.024  0.2671  0.5383  0.1680
19215TIP3    H179060   1.844   3.848   4.076  0.4005  1.5719  0.5206
19215TIP3    H279061   1.802   3.883   3.935  0.2885 -0.1640  0.1068
19216TIP3   OH279062   1.037   2.943   4.780  0.3837 -0.2864 -0.6776
19216TIP3    H179063   0.992   2.860   4.766  0.4978 -0.6963  1.1228
19216TIP3    H279064   1.051   2.978   4.692 -0.5374 -1.6953 -1.4241
19217TIP3   OH279065   0.253   3.979   1.872 -0.0649 -0.1035 -0.3551
19217TIP3    H179066   0.270   3.992   1.778  3.0497 -0.9760 -0.0225
19217TIP3    H279067   0.268   3.886   1.886  0.1017  0.1296  1.1030
19218TIP3   OH279068   1.084   5.942   3.823 -0.0541 -0.3484 -0.1227
19218TIP3    H179069   1.036   5.886   3.885  0.0818 -0.7351 -0.3594
19218TIP3    H279070   1.084   5.892   3.741 -0.2016  0.1458 -0.4267
19219TIP3   OH279071   3.908   3.493   3.581  0.1029  0.2126  0.1677
19219TIP3    H179072   3.880   3.564   3.639 -0.5235  0.2670 -0.1923
19219TIP3    H279073   3.942   3.537   3.504 -0.2572  0.1299 -0.0422
19220TIP3   OH279074   5.016   1.723   3.906  0.0312  0.2813 -0.3856
19220TIP3    H179075   4.995   1.759   3.992 -0.7166  3.4951 -1.7449
19220TIP3    H279076   4.940   1.671   3.882 -0.7322  1.1534  0.0774
19221TIP3   OH279077   3.130   1.181   3.966  0.4642 -1.1901  0.4210
19221TIP3    H179078   3.153   1.127   4.041  2.2385 -0.6030  0.3477
19221TIP3    H279079   3.073   1.125   3.912 -0.5734 -1.7204  2.0081
19222TIP3   OH279080   6.532   1.655   5.678 -0.0052 -0.8526 -0.3289
19222TIP3    H179081   6.453   1.705   5.654  0.8637  0.1908 -1.1239
19222TIP3    H279082   6.551   1.681   5.768 -0.1738 -0.5638 -0.3751
19223TIP3   OH279083   0.158   1.565   3.152 -0.4198 -0.2467  0.3453
19223TIP3    H179084   0.099   1.641   3.155 -0.4324 -0.2654  0.6378
19223TIP3    H279085   0.100   1.491   3.134 -0.8239 -0.5782  2.6739
19224TIP3   OH279086   5.645   0.802   5.249  0.1378  0.5895 -0.1124
19224TIP3    H179087   5.667   0.712   5.224  1.6404  1.1010 -0.6910
19224TIP3    H279088   5.550   0.808   5.233  0.0731 -0.7807 -0.3788
19225TIP3   OH279089   2.072   3.858  14.978  0.1336  0.1309 -0.5476
19225TIP3    H179090   2.026   3.840  15.060 -1.2791  3.0434 -0.5436
19225TIP3    H279091   2.004   3.854  14.911  0.1785  2.4216 -0.8382
19226TIP3   OH279092   2.280   1.457  14.986 -0.2606 -0.9935 -0.4926
19226TIP3    H179093   2.312   1.428  14.901 -2.3235 -2.4238 -0.8600
19226TIP3    H279094   2.186   1.471  14.973 -0.2719  0.8056  1.0547
19227TIP3   OH279095   3.636   4.555   4.226  0.1818 -0.0860  0.0250
19227TIP3    H179096   3.645   4.546   4.321 -2.8806 -0.9662  0.3474
19227TIP3    H279097   3.567   4.620   4.215 -0.0373 -0.5679 -1.5792
19228TIP3   OH279098   5.410   5.906   3.922 -0.2139 -0.2815 -0.1318
19228TIP3    H179099   5.431   5.883   4.012 -0.4316 -0.0840 -0.0301
19228TIP3    H279100   5.367   5.828   3.887  0.5030 -0.6142 -0.2804
19229TIP3   OH279101   5.002   1.697   0.650 -0.6414  0.1121 -0.1160
19229TIP3    H179102   5.022   1.673   0.741 -0.7440  0.4876  0.0106
19229TIP3    H279103   5.069   1.654   0.598 -1.3274 -1.1453  0.0180
19230TIP3   OH279104   1.624   6.333   1.151 -0.8793  0.3809  0.2160
19230TIP3    H179105   1.649   6.241   1.158 -1.4119  0.3228  1.7065
19230TIP3    H279106   1.646   6.370   1.236 -2.0606  1.2708  0.1512
19231TIP3   OH279107   3.685   1.727   1.565 -0.2950 -0.3962  0.1290
19231TIP3    H179108   3.631   1.666   1.616  0.0765 -1.3797 -0.6282
19231TIP3    H279109   3.727   1.782   1.631 -1.5658 -0.1566  0.7760
19232TIP3   OH279110   0.900   6.354   4.596  0.0323  0.0706  0.2440
19232TIP3    H179111   0.936   6.265   4.602  1.0190  0.4759  0.5673
19232TIP3    H279112   0.892   6.370   4.502  0.4571 -0.1359  0.1669
19233TIP3   OH279113   5.942   5.494   4.019 -0.2953 -0.2059 -0.1105
19233TIP3    H179114   6.001   5.524   3.950  1.6303 -3.3405 -0.0337
19233TIP3    H279115   5.962   5.548   4.094  0.6166  0.4839 -0.8339
19234TIP3   OH279116   0.947   6.998   3.150 -0.0031  0.3176  0.0793
19234TIP3    H179117   0.972   6.906   3.161  0.6755  0.6631  1.8524
19234TIP3    H279118   0.860   6.995   3.110  1.5330 -0.9946 -3.6310
19235TIP3   OH279119   0.776   4.005   5.375  0.0186  0.2370 -0.0689
19235TIP3    H179120   0.782   4.101   5.379  2.5914  0.0743  1.4688
19235TIP3    H279121   0.723   3.982   5.451  1.0102  0.3605  0.6760
19236TIP3   OH279122   0.424   2.961   3.602  0.0586 -0.2420 -0.2212
19236TIP3    H179123   0.505   2.919   3.633  0.5319  0.5578 -0.3303
19236TIP3    H279124   0.426   2.951   3.507 -0.1696 -0.5743 -0.1895
19237TIP3   OH279125   5.541   4.888   4.276  0.9905  0.5987 -0.4407
19237TIP3    H179126   5.623   4.925   4.244  1.1340  0.8810  0.2390
19237TIP3    H279127   5.562   4.851   4.362  0.5677  0.0339 -0.5709
19238TIP3   OH279128   2.366   4.867   5.190 -0.3833  0.0676  0.1555
19238TIP3    H179129   2.294   4.846   5.130 -0.4873 -0.1919  0.3691
19238TIP3    H279130   2.413   4.938   5.147 -0.2419 -0.3635 -0.4096
19239TIP3   OH279131   4.951   6.649  15.321 -0.0726 -0.1284  0.0639
19239TIP3    H179132   4.956   6.608  15.408  0.4502  0.0078  0.1044
19239TIP3    H279133   5.010   6.596  15.267  0.3561  0.3695  0.0344
19240TIP3   OH279134   6.535   5.855   5.242  0.5523 -0.4999  0.3850
19240TIP3    H179135   6.592   5.842   5.317 -0.5870 -0.0502  1.3621
19240TIP3    H279136   6.588   5.831   5.166  2.4833  1.2685  1.1113
19241TIP3   OH279137   2.079   5.820   5.726 -0.0197 -0.1192 -0.4893
19241TIP3    H179138   2.056   5.727   5.718  0.1864 -0.5042  2.4496
19241TIP3    H279139   2.006   5.858   5.776  0.8113  0.8837 -0.0128
19242TIP3   OH279140   0.729   6.958   1.596  0.2832 -0.6478  0.3736
19242TIP3    H179141   0.810   6.972   1.546 -1.6237  0.9500 -2.5395
19242TIP3    H279142   0.679   7.039   1.583 -2.2686 -2.0101  1.1191
19243TIP3   OH279143   6.217   7.091   4.469 -0.2577 -0.2628  0.0430
19243TIP3    H179144   6.213   7.131   4.555 -2.1566  0.7072 -0.4172
19243TIP3    H279145   6.275   7.148   4.418 -3.2510  2.4648 -0.7319
19244TIP3   OH279146   4.859   6.451   4.423  0.1835  0.5589 -0.2885
19244TIP3    H179147   4.932   6.511   4.408 -2.2594  3.1904 -2.7424
19244TIP3    H279148   4.831   6.470   4.513  1.1195  1.1067 -0.0976
19245TIP3   OH279149   6.472   2.696  14.904  0.6131 -0.5147  0.1003
19245TIP3    H179150   6.429   2.770  14.947  0.7049 -0.6265  0.3818
19245TIP3    H279151   6.466   2.624  14.966  1.4892 -0.4456  0.2877
19246TIP3   OH279152   4.908   0.338   0.319 -0.0562 -0.4317 -0.1176
19246TIP3    H179153   4.957   0.372   0.244 -2.4779  2.2517 -0.6562
19246TIP3    H279154   4.861   0.262   0.284 -0.9924  0.6585 -1.3281
19247TIP3   OH279155   2.105   5.077   5.688  0.1299 -0.0113  0.0670
19247TIP3    H179156   2.014   5.106   5.686 -0.1395 -0.7614  0.6837
19247TIP3    H279157   2.100   4.985   5.716  1.1075  0.0918  0.6251
19248TIP3   OH279158   4.990   0.062   1.304  0.0159  0.6517 -0.2606
19248TIP3    H179159   4.985   0.157   1.297  2.1844  1.0183  1.8406
19248TIP3    H279160   4.944   0.029   1.226 -0.4031  3.3952 -1.2651
19249TIP3   OH279161   4.465   1.147   2.473 -0.2529 -0.4529  0.1910
19249TIP3    H179162   4.522   1.121   2.400 -0.5788  2.1927 -1.1431
19249TIP3    H279163   4.418   1.068   2.496  0.6129 -1.6368 -1.7936
19250TIP3   OH279164   0.047   5.172   2.578 -0.4140 -0.2080  0.0338
19250TIP3    H179165   0.074   5.263   2.566 -0.9042 -0.2329 -1.3934
19250TIP3    H279166   0.127   5.122   2.569  0.0471  0.1209  1.8608
19251TIP3   OH279167   3.638   3.253   4.070  0.2941  0.3718  0.5601
19251TIP3    H179168   3.707   3.284   4.012  0.3591 -1.0773 -0.1776
19251TIP3    H279169   3.662   3.287   4.156  1.9269 -0.1024  0.3251
19252TIP3   OH279170   1.435   1.350   5.785  0.1877  0.3592 -0.1221
19252TIP3    H179171   1.466   1.424   5.837 -1.3722  0.3662  0.8545
19252TIP3    H279172   1.345   1.336   5.813 -0.2672 -0.5464 -1.8416
19253TIP3   OH279173   6.258   5.345   3.129  0.4069 -0.3699 -0.6433
19253TIP3    H179174   6.204   5.315   3.056 -0.3911  1.1378 -0.6988
19253TIP3    H279175   6.307   5.267   3.156  0.2668 -1.0913 -2.3831
19254TIP3   OH279176   5.636   5.955   3.512  0.5555  0.3294 -0.3217
19254TIP3    H179177   5.544   5.944   3.535  0.2943  2.0256 -0.4461
19254TIP3    H279178   5.681   5.962   3.596  0.7037 -1.2691 -0.2425
19255TIP3   OH279179   5.553   0.530   5.243  0.5342  0.3985 -0.1661
19255TIP3    H179180   5.590   0.453   5.285  0.1313 -0.7636 -1.8469
19255TIP3    H279181   5.483   0.496   5.187 -0.4676  2.1180 -0.0298
19256TIP3   OH279182   4.115   4.290   2.169  0.0124 -0.0923  0.2758
19256TIP3    H179183   4.099   4.213   2.115 -0.2366  0.7284 -0.8574
19256TIP3    H279184   4.033   4.340   2.167 -0.3650 -0.5242  2.2853
19257TIP3   OH279185   1.733   0.552   1.979  0.9895  0.2294  0.2477
19257TIP3    H179186   1.724   0.519   2.069  1.2271  0.5666  0.3948
19257TIP3    H279187   1.763   0.642   1.989 -1.6909  1.2632 -0.0812
19258TIP3   OH279188   6.218   3.320  13.279 -0.3735  0.3967 -0.3121
19258TIP3    H179189   6.199   3.407  13.245 -1.6153  0.0351 -0.6090
19258TIP3    H279190   6.207   3.328  13.374  1.3415  0.9786 -0.1239
19259TIP3   OH279191   3.375   7.149   3.645  0.0749 -0.0427 -0.3098
19259TIP3    H179192   3.463   7.176   3.673 -0.1921  1.7070 -1.0360
19259TIP3    H279193   3.379   7.151   3.550 -1.2813  2.0571 -0.3821
19260TIP3   OH279194   5.894   4.835   3.233  0.1263  0.2547  0.1073
19260TIP3    H179195   5.860   4.749   3.210  2.0089 -1.2932  2.6342
19260TIP3    H279196   5.979   4.818   3.272  1.6158  3.4988 -1.3457
19261TIP3   OH279197   3.199   7.081   3.848  0.0200  0.1549 -0.2508
19261TIP3    H179198   3.254   7.114   3.777 -1.8174  0.8731 -1.3911
19261TIP3    H279199   3.112   7.071   3.810 -0.4674 -1.9483  1.2204
19262TIP3   OH279200   4.799   7.196   4.138  0.1094  0.0750 -0.3535
19262TIP3    H179201   4.809   7.284   4.103  3.2001  0.0456  0.1762
19262TIP3    H279202   4.767   7.144   4.065  0.9701  1.0935 -1.4836
19263TIP3   OH279203   3.258   5.082   2.016 -0.9184 -0.3797  0.3527
19263TIP3    H179204   3.206   5.141   1.961 -0.5413  1.5093  1.9149
19263TIP3    H279205   3.346   5.085   1.977 -0.0030  2.9058  2.2692
19264TIP3   OH279206   2.095   4.698   0.635 -0.0926  1.3095  0.2257
19264TIP3    H179207   2.119   4.627   0.576 -0.5815  0.4158  1.0769
19264TIP3    H279208   2.004   4.717   0.613 -0.7315  0.0316  1.5642
19265TIP3   OH279209   5.392   2.842   1.452  0.3630  0.4430  0.3535
19265TIP3    H179210   5.348   2.759   1.433  1.1676  0.4059 -1.4859
19265TIP3    H279211   5.363   2.864   1.541 -1.3027 -0.8723  0.1872
19266TIP3   OH279212   6.549   0.871   3.562 -0.4176  0.2789  0.7665
19266TIP3    H179213   6.552   0.965   3.549 -1.9274  0.2893  0.3358
19266TIP3    H279214   6.546   0.834   3.474 -1.5890 -0.0663  0.9262
19267TIP3   OH279215   6.552   6.844   5.514  0.4485 -0.7860  0.0669
19267TIP3    H179216   6.602   6.926   5.513  3.1361 -2.2781  1.1644
19267TIP3    H279217   6.463   6.871   5.538  0.9338  1.8996 -0.7899
19268TIP3   OH279218   6.029   4.323   2.951  0.1824  0.5346  0.3723
19268TIP3    H179219   6.025   4.241   2.901 -0.3258  0.3598  0.6877
19268TIP3    H279220   6.110   4.317   3.000  0.8261  0.8318 -0.6307
19269TIP3   OH279221   4.083   0.407   1.214 -0.0325  0.6923  0.5252
19269TIP3    H179222   4.108   0.454   1.134 -0.7127 -0.4432 -0.3883
19269TIP3    H279223   4.046   0.474   1.271 -1.1009  1.2741 -0.7973
19270TIP3   OH279224   3.504   4.971   5.015 -0.3416  0.7040  0.1734
19270TIP3    H179225   3.458   4.915   5.078 -1.1527  1.3276  0.1462
19270TIP3    H279226   3.568   5.018   5.068  0.1630 -0.0373  0.2413
19271TIP3   OH279227   7.025   5.751   2.386  0.3171 -0.3860  0.1017
19271TIP3    H179228   7.079   5.672   2.383 -2.1676 -2.2058 -0.2454
19271TIP3    H279229   6.974   5.742   2.467 -1.1957 -0.0656 -0.7667
19272TIP3   OH279230   4.419   6.736   3.153 -0.2212 -0.2878  0.4718
19272TIP3    H179231   4.354   6.790   3.109 -0.3108 -1.5109 -0.9644
19272TIP3    H279232   4.455   6.680   3.084 -0.8641 -2.7759  2.0245
19273TIP3   OH279233   1.063   0.814  11.834  0.1811 -0.6314 -0.1629
19273TIP3    H179234   1.128   0.752  11.801  0.7065 -0.5761  0.7274
19273TIP3    H279235   0.988   0.758  11.858  0.1594 -0.7747 -0.5684
19274TIP3   OH279236   0.255   0.394   2.523  0.5680 -0.3567 -0.3904
19274TIP3    H179237   0.281   0.376   2.433  1.3040 -0.2997 -0.1965
19274TIP3    H279238   0.312   0.340   2.576  1.2540  0.8208  0.1010
19275TIP3   OH279239   3.034   4.396   4.313 -0.5576 -0.1149 -0.0258
19275TIP3    H179240   3.020   4.328   4.247  0.1795 -1.3099  1.0014
19275TIP3    H279241   3.018   4.352   4.396  0.2219  0.8991  0.6773
19276TIP3   OH279242   2.944   0.387   5.163  0.6290  0.2116  0.0925
19276TIP3    H179243   2.889   0.309   5.159  0.2472  0.4983 -0.5143
19276TIP3    H279244   2.936   0.417   5.253  0.0585  0.0528  0.1025
19277TIP3   OH279245   5.939   2.465   4.704  0.9045  0.1170 -0.0695
19277TIP3    H179246   5.926   2.509   4.788  0.8917  0.8331 -0.4400
19277TIP3    H279247   5.917   2.373   4.722  3.6372 -0.3776  1.4531
19278TIP3   OH279248   6.546   5.021   4.071  0.3367  0.7071  0.5403
19278TIP3    H179249   6.594   5.073   4.007  1.0071 -0.3344  0.1614
19278TIP3    H279250   6.492   4.962   4.019  1.2838 -0.5166  0.8909
19279TIP3   OH279251   0.441   1.921   2.269  0.0236  0.6646 -0.0404
19279TIP3    H179252   0.484   1.944   2.352 -2.0964 -1.5257  1.8116
19279TIP3    H279253   0.442   1.826   2.267 -2.8522  0.5494 -0.8293
19280TIP3   OH279254   1.852   5.381   4.231 -0.3768  0.4368  0.2813
19280TIP3    H179255   1.790   5.449   4.259 -0.5647  0.3563  0.0589
19280TIP3    H279256   1.888   5.347   4.313 -1.6447 -0.4679  0.4840
19281TIP3   OH279257   2.324   0.805   5.440  0.3754  0.2062 -0.6765
19281TIP3    H179258   2.305   0.846   5.525  2.1144 -1.0064  0.3618
19281TIP3    H279259   2.398   0.855   5.405  0.4124 -0.0249 -0.9306
19282TIP3   OH279260   6.145   6.924   5.321  0.3873  0.2773  0.2984
19282TIP3    H179261   6.118   6.936   5.411  0.3557 -0.0909  0.3398
19282TIP3    H279262   6.064   6.908   5.273  0.2389  1.8793 -0.0481
19283TIP3   OH279263   5.350   6.832   4.356 -0.0965 -0.5098 -0.9005
19283TIP3    H179264   5.325   6.775   4.283 -0.8394 -2.7441  0.9840
19283TIP3    H279265   5.267   6.866   4.390  0.2208  0.2584 -0.8652
19284TIP3   OH279266   1.789   1.024   5.296  0.0051 -0.2009 -0.2803
19284TIP3    H179267   1.713   1.076   5.322 -1.0359 -1.3282 -0.9971
19284TIP3    H279268   1.755   0.936   5.284  1.0220 -0.3417 -2.5196
19285TIP3   OH279269   1.674   4.897   4.812  0.4203 -0.4247 -0.1698
19285TIP3    H179270   1.728   4.932   4.741  0.8463  2.4192  1.3974
19285TIP3    H279271   1.734   4.840   4.862  0.6829 -0.8216 -0.9190
19286TIP3   OH279272   6.171   2.776   2.203  0.1021 -0.0484  0.4466
19286TIP3    H179273   6.258   2.803   2.231  0.8615  0.0533 -1.7919
19286TIP3    H279274   6.178   2.681   2.192  0.5073  0.1547 -1.3865
19287TIP3   OH279275   0.407   4.842   4.280 -0.2845 -0.1453 -0.3508
19287TIP3    H179276   0.349   4.843   4.355 -1.4596 -0.2998 -1.2294
19287TIP3    H279277   0.481   4.787   4.307 -1.3033 -1.2552  0.2491
19288TIP3   OH279278   5.984   0.508   5.187  0.2527 -0.1323  0.0951
19288TIP3    H179279   5.970   0.501   5.282  0.2375 -0.0842  0.0969
19288TIP3    H279280   5.944   0.592   5.164 -0.4352 -0.5053 -0.0847
19289TIP3   OH279281   6.683   6.361   3.987 -0.0768  0.1830 -0.4012
19289TIP3    H179282   6.667   6.424   3.916 -1.0483 -0.9918 -1.2647
19289TIP3    H279283   6.596   6.347   4.026  0.0778 -0.8079 -0.3964
19290TIP3   OH279284   6.365   0.796   1.489  0.1988 -0.1876 -0.1790
19290TIP3    H179285   6.417   0.773   1.412 -0.5661  2.2760 -1.5288
19290TIP3    H279286   6.274   0.795   1.459 -0.1814  0.1455  0.8884
19291TIP3   OH279287   7.211   2.272   0.182  0.5136 -0.0543 -0.1595
19291TIP3    H179288   7.248   2.344   0.233  1.6756  0.9201 -2.2292
19291TIP3    H279289   7.130   2.307   0.146  1.5446  0.6545 -1.9412
19292TIP3   OH279290   0.057   4.112   4.345  0.0479  0.6575 -0.5170
19292TIP3    H179291   0.014   4.029   4.365  0.6539 -0.0350 -1.8753
19292TIP3    H279292   0.052   4.163   4.425 -1.4649 -0.1975 -0.0375
19293TIP3   OH279293   6.072   2.335  13.998  0.5246  0.3937 -0.1965
19293TIP3    H179294   6.115   2.281  13.932  0.2695 -4.0756  2.8114
19293TIP3    H279295   6.142   2.355  14.061 -0.3264 -1.0534  1.2973
19294TIP3   OH279296   4.568   3.866   1.879  0.1054 -0.4966  0.7081
19294TIP3    H179297   4.495   3.923   1.903  0.3557  0.5072 -0.7449
19294TIP3    H279298   4.630   3.925   1.834  1.8346 -1.3122  1.9326
19295TIP3   OH279299   6.101   3.347   1.232 -0.4564  0.5871  0.5794
19295TIP3    H179300   6.136   3.292   1.162 -1.1986  0.3017  0.4235
19295TIP3    H279301   6.158   3.424   1.233 -0.3810  0.5534 -0.2804
19296TIP3   OH279302   0.434   3.446   2.166 -0.3357 -0.0202 -0.3617
19296TIP3    H179303   0.507   3.498   2.132  0.0071 -0.8628 -0.9527
19296TIP3    H279304   0.470   3.401   2.242  0.4531 -2.0827 -1.8532
19297TIP3   OH279305   2.254   6.574   2.341 -0.1302 -0.6380  0.2534
19297TIP3    H179306   2.243   6.660   2.302 -0.5111 -0.7994  0.0046
19297TIP3    H279307   2.347   6.570   2.365  0.3067 -0.8659 -1.4132
19298TIP3   OH279308   2.720   2.140   5.905 -0.0197 -0.8599  0.5391
19298TIP3    H179309   2.662   2.112   5.835  2.1345 -1.4207 -1.1138
19298TIP3    H279310   2.771   2.062   5.928  2.7708  0.3988 -0.8387
19299TIP3   OH279311   5.845   2.454  13.881 -0.0289 -0.2180 -0.4392
19299TIP3    H179312   5.819   2.365  13.856  0.5303 -0.9089  1.3296
19299TIP3    H279313   5.914   2.442  13.946 -0.5282  1.5097  0.4638
19300TIP3   OH279314   6.357   1.147   2.765 -0.2123 -0.2961 -0.1242
19300TIP3    H179315   6.348   1.242   2.768  2.0383 -0.0545  1.8504
19300TIP3    H279316   6.305   1.115   2.838  0.1070 -0.4521  0.0386
19301TIP3   OH279317   2.799   5.085   4.554  0.0199 -0.6034 -0.8506
19301TIP3    H179318   2.875   5.134   4.523 -0.7433  1.1484 -0.0546
19301TIP3    H279319   2.724   5.137   4.528 -0.8270 -1.2506  0.2000
19302TIP3   OH279320   4.121   3.367   4.263 -0.0510  0.2304  0.6860
19302TIP3    H179321   4.116   3.442   4.323 -1.5868  0.8823 -0.2037
19302TIP3    H279322   4.080   3.296   4.311  0.2979  0.2721  1.0579
19303TIP3   OH279323   3.790   2.516   3.486  0.1522 -0.8614 -0.2855
19303TIP3    H179324   3.837   2.503   3.403  0.7459  0.5481 -0.1943
19303TIP3    H279325   3.699   2.528   3.460  0.3982 -0.0012 -0.7889
19304TIP3   OH279326   6.610   0.334   4.007  0.1598 -0.0355  0.2635
19304TIP3    H179327   6.636   0.247   3.975 -0.8037  0.4968 -2.2365
19304TIP3    H279328   6.515   0.327   4.019  0.1899  0.4593  0.7726
19305TIP3   OH279329   1.651   0.395   3.229  0.2318 -0.0974 -0.2321
19305TIP3    H179330   1.613   0.370   3.145  1.3137  3.5738 -1.9775
19305TIP3    H279331   1.575   0.422   3.282 -0.4349 -2.2483  0.0146
19306TIP3   OH279332   2.094   5.526   5.676  0.2895 -0.5560  0.0082
19306TIP3    H179333   2.174   5.530   5.624 -0.5883 -0.4904 -1.3975
19306TIP3    H279334   2.041   5.458   5.634 -1.2031  0.7511 -0.3439
19307TIP3   OH279335   7.198   6.616   2.109 -0.1054  0.4544  0.4127
19307TIP3    H179336   7.137   6.579   2.173  0.3785 -0.2953  0.4498
19307TIP3    H279337   7.229   6.697   2.150  0.7011 -0.3452  1.4368
19308TIP3   OH279338   2.638   5.844   0.848 -0.0219  0.1277 -0.3812
19308TIP3    H179339   2.692   5.787   0.903  0.5316  0.1858 -0.8614
19308TIP3    H279340   2.678   5.931   0.855  0.2674  0.0673 -1.1476
19309TIP3   OH279341   3.439   6.580  15.019  0.3762 -0.3501  0.3731
19309TIP3    H179342   3.505   6.526  15.063  0.5546 -1.9253 -1.6824
19309TIP3    H279343   3.420   6.534  14.938  0.1753  2.4723 -1.3235
19310TIP3   OH279344   3.341   4.015   4.215 -0.2263  0.5064  0.0116
19310TIP3    H179345   3.343   4.078   4.286 -1.3298 -0.3242  0.8212
19310TIP3    H279346   3.275   4.050   4.154  0.5461  1.0953 -0.5009
19311TIP3   OH279347   3.771   4.245   3.952  0.5156 -0.4184 -0.6864
19311TIP3    H179348   3.734   4.237   4.040  0.8158 -1.1455 -0.6240
19311TIP3    H279349   3.726   4.322   3.915  1.7426  1.0754  0.7482
19312TIP3   OH279350   0.346   1.361   5.291  0.5954  0.2698 -0.0201
19312TIP3    H179351   0.364   1.311   5.371 -0.6838  0.1051  0.1875
19312TIP3    H279352   0.367   1.451   5.314 -1.5175  0.5196  1.1505
19313TIP3   OH279353   4.050   5.579   2.218 -0.6932 -0.1811  0.1157
19313TIP3    H179354   4.089   5.665   2.233 -0.0710 -0.3908 -0.2644
19313TIP3    H279355   4.079   5.526   2.292 -0.4192 -0.2845 -0.0666
19314TIP3   OH279356   0.337   1.999   1.254 -0.1654 -0.6359  0.5695
19314TIP3    H179357   0.400   2.012   1.183 -0.3993 -1.8382  0.1213
19314TIP3    H279358   0.275   1.935   1.220 -1.8583  0.7510  0.8625
19315TIP3   OH279359   0.705   5.460   5.079  0.0365 -0.3177 -0.0539
19315TIP3    H179360   0.645   5.534   5.074  1.4556  0.8601 -0.4337
19315TIP3    H279361   0.771   5.486   5.143 -0.1996 -1.8701  0.8760
19316TIP3   OH279362   5.107   4.755   5.406 -0.5954  0.2230  0.3977
19316TIP3    H179363   5.041   4.815   5.371 -2.1439 -2.1013 -0.9921
19316TIP3    H279364   5.081   4.741   5.497 -0.4052  1.3640  0.6412
19317TIP3   OH279365   4.541   4.907   3.873  0.3224  0.5947  0.1216
19317TIP3    H179366   4.465   4.948   3.915 -0.1954 -2.1609  2.1701
19317TIP3    H279367   4.505   4.863   3.796 -0.1958 -0.5965  1.0159
19318TIP3   OH279368   2.379   1.308   4.279  0.3628 -0.3620  0.1864
19318TIP3    H179369   2.365   1.379   4.341  2.8434  0.3741  0.0102
19318TIP3    H279370   2.408   1.234   4.333  1.1826 -0.1468  0.0481
19319TIP3   OH279371   3.309   3.572   3.545  0.3654  0.4483  0.2181
19319TIP3    H179372   3.314   3.599   3.453 -0.0186 -0.1847  0.0101
19319TIP3    H279373   3.220   3.594   3.572  0.2661  0.0254  0.2430
19320TIP3   OH279374   2.969   4.918   4.211  0.1296  0.3354 -0.3219
19320TIP3    H179375   3.000   4.833   4.243 -0.1500  0.1176 -0.6309
19320TIP3    H279376   2.889   4.934   4.261 -0.2934  0.0072 -0.8794
19321TIP3   OH279377   3.413   4.372   1.785  0.2827 -0.2006  0.1569
19321TIP3    H179378   3.395   4.402   1.875  2.5059 -1.0592  0.9557
19321TIP3    H279379   3.384   4.281   1.784 -0.5480  0.0511 -0.3132
19322TIP3   OH279380   3.782   1.408  14.656  0.2172 -0.0702 -0.2149
19322TIP3    H179381   3.820   1.333  14.610  2.6956 -0.1544  1.7375
19322TIP3    H279382   3.819   1.484  14.612  0.4125 -0.0845 -0.0770
19323TIP3   OH279383   1.257   4.470   3.139  0.0215 -0.5064  0.2869
19323TIP3    H179384   1.236   4.550   3.091 -0.1775  0.6601  2.2092
19323TIP3    H279385   1.278   4.406   3.071  0.9700  1.3796 -1.2863
19324TIP3   OH279386   5.146   6.952   2.677  0.4184  0.1653  0.3110
19324TIP3    H179387   5.102   6.870   2.655  0.0948  0.2453  0.6519
19324TIP3    H279388   5.088   6.994   2.740  0.9568  0.2967  0.7272
19325TIP3   OH279389   1.089   2.862   5.053 -0.3202 -0.5416 -0.3449
19325TIP3    H179390   1.003   2.857   5.095 -0.4643 -0.8478 -0.6665
19325TIP3    H279391   1.070   2.890   4.963 -0.1481 -1.2679 -0.6143
19326TIP3   OH279392   0.649   7.182   3.393 -0.1581 -0.0818 -0.4479
19326TIP3    H179393   0.708   7.245   3.435  0.1102  0.1010 -1.0817
19326TIP3    H279394   0.622   7.225   3.312 -1.2773 -0.1072 -0.1039
19327TIP3   OH279395   4.782   1.105   5.432  0.0290 -0.2577  0.0827
19327TIP3    H179396   4.699   1.058   5.445 -0.3084  0.4976  0.7164
19327TIP3    H279397   4.762   1.196   5.454  1.3100 -0.2594  1.3948
19328TIP3   OH279398   4.324   4.796   5.870 -0.1811 -0.0248 -0.5604
19328TIP3    H179399   4.381   4.865   5.839 -0.8714  0.2835 -1.1742
19328TIP3    H279400   4.256   4.842   5.919  1.5925 -0.5638  2.6899
19329TIP3   OH279401   1.886   3.139   5.748 -0.5229 -0.2280 -0.0388
19329TIP3    H179402   1.959   3.079   5.730  0.6580  1.9356 -3.4442
19329TIP3    H279403   1.926   3.214   5.790 -1.6177 -0.7305  2.0383
19330TIP3   OH279404   2.649   0.933   1.597 -0.0605  0.0384  0.4452
19330TIP3    H179405   2.627   0.851   1.643  1.9213 -2.1489 -2.1537
19330TIP3    H279406   2.653   0.999   1.667  0.6301 -2.5760  3.1011
19331TIP3   OH279407   4.431   5.501   1.158 -0.1178 -0.0835  0.1449
19331TIP3    H179408   4.432   5.596   1.149 -0.5997  0.1729  2.3212
19331TIP3    H279409   4.474   5.484   1.242  0.4576 -1.8326 -0.4578
19332TIP3   OH279410   1.419   6.592   3.772  0.1049  0.5013 -0.1612
19332TIP3    H179411   1.444   6.527   3.706 -0.5829  0.5999 -0.5309
19332TIP3    H279412   1.397   6.670   3.721  2.1411  1.4675  0.3333
19333TIP3   OH279413   3.439   2.491   5.096  0.0124 -0.4556  0.9035
19333TIP3    H179414   3.498   2.416   5.088  1.4468  0.7682 -0.9414
19333TIP3    H279415   3.462   2.547   5.021 -1.6620  1.3629  1.6740
19334TIP3   OH279416   5.608   1.583  12.372  0.7822  0.1217 -0.1876
19334TIP3    H179417   5.611   1.563  12.279  2.1928 -0.8675  0.0347
19334TIP3    H279418   5.574   1.672  12.376 -0.1011 -0.1260 -1.5871
19335TIP3   OH279419   3.865   0.884  15.297 -0.0001  0.0710 -0.6512
19335TIP3    H179420   3.927   0.950  15.329  0.7658 -0.9444  0.0255
19335TIP3    H279421   3.918   0.805  15.285 -0.9895 -0.5613 -0.9967
19336TIP3   OH279422   2.858   0.200  14.947 -0.2752  0.3229  1.1691
19336TIP3    H179423   2.816   0.284  14.931 -0.6394 -0.2714 -1.3230
19336TIP3    H279424   2.884   0.169  14.861  1.3129 -1.4001  2.1932
19337TIP3   OH279425   5.092   2.970   3.895  0.0591  0.4397 -0.2269
19337TIP3    H179426   5.168   3.025   3.878  1.5646 -1.3100  0.4475
19337TIP3    H279427   5.017   3.024   3.871  1.3530  3.0816  1.3147
19338TIP3   OH279428   3.709   3.352   5.022  0.0443  0.0298 -0.3206
19338TIP3    H179429   3.753   3.434   5.046 -0.4395  0.6410 -1.4344
19338TIP3    H279430   3.779   3.296   4.990  0.5306 -0.3831  1.3517
19339TIP3   OH279431   0.182   0.218   5.345  0.0554 -0.5459  0.0640
19339TIP3    H179432   0.171   0.307   5.313  0.9042  0.0873  1.4502
19339TIP3    H279433   0.276   0.210   5.361 -0.1966 -1.1959  1.3066
19340TIP3   OH279434   4.473   5.702   3.518 -0.2442 -0.6436 -0.6269
19340TIP3    H179435   4.431   5.617   3.503 -1.6062  0.0042 -0.6226
19340TIP3    H279436   4.464   5.716   3.612 -1.1288  0.0391 -0.7972
19341TIP3   OH279437   6.890   1.693   4.462 -0.1594  0.3668  0.0255
19341TIP3    H179438   6.892   1.636   4.385  0.9475 -0.1594  0.4241
19341TIP3    H279439   6.812   1.748   4.449  1.4104  2.1849 -2.8550
19342TIP3   OH279440   0.982   4.586   4.835  0.2705 -0.1200  0.2281
19342TIP3    H179441   0.972   4.491   4.847  1.1489 -0.1756  0.5926
19342TIP3    H279442   0.897   4.623   4.860 -0.4367 -0.8868 -0.9246
19343TIP3   OH279443   0.822   5.649   3.532 -0.7192 -0.2742 -0.4608
19343TIP3    H179444   0.795   5.657   3.624 -0.7432  0.4921 -0.5318
19343TIP3    H279445   0.778   5.570   3.501  1.6334 -2.3049  1.0149
19344TIP3   OH279446   6.112   4.090   4.033  0.4218 -0.7324 -0.3378
19344TIP3    H179447   6.206   4.107   4.023  0.3072  1.1217  1.0829
19344TIP3    H279448   6.072   4.129   3.955  0.6233  1.5152  0.5818
19345TIP3   OH279449   4.798   0.243   3.945 -0.5066 -0.3747 -0.1187
19345TIP3    H179450   4.732   0.301   3.985 -1.7967  0.4663 -3.1474
19345TIP3    H279451   4.761   0.222   3.859  3.7565  1.4021 -2.6950
19346TIP3   OH279452   2.640   1.277   5.703 -0.2359  0.7223  0.4779
19346TIP3    H179453   2.631   1.361   5.748 -2.1953  0.1164  1.3173
19346TIP3    H279454   2.575   1.221   5.743  0.2743 -0.8933 -0.8294
19347TIP3   OH279455   3.107   5.523   3.131 -0.1899  0.3324 -0.0360
19347TIP3    H179456   3.158   5.599   3.159 -0.3137  0.3721  0.0851
19347TIP3    H279457   3.058   5.554   3.055  0.6439  0.0334 -0.6998
19348TIP3   OH279458   4.693   0.433   1.932 -0.3650  0.5466  0.4382
19348TIP3    H179459   4.705   0.396   1.844  0.0898 -0.9254  1.0899
19348TIP3    H279460   4.602   0.465   1.932 -0.4823  0.2525 -0.4486
19349TIP3   OH279461   0.687   4.752   4.374 -0.7652 -0.1425 -0.1093
19349TIP3    H179462   0.770   4.780   4.412 -1.5723  1.3617  0.6258
19349TIP3    H279463   0.687   4.789   4.286 -1.6808  2.0625  0.7413
19350TIP3   OH279464   5.277   4.167   5.390  0.5824 -0.3610 -0.1134
19350TIP3    H179465   5.261   4.135   5.301  1.6408 -2.5226  0.3886
19350TIP3    H279466   5.258   4.091   5.445  0.0520  0.9156  1.5101
19351TIP3   OH279467   2.701   3.025   3.555 -0.0290 -0.2520  0.7098
19351TIP3    H179468   2.699   2.941   3.601 -0.7751  0.2729  1.6799
19351TIP3    H279469   2.618   3.067   3.579 -0.2101  0.2647 -0.7338
19352TIP3   OH279470   2.003   5.617   0.589 -0.3301  0.1438  0.1345
19352TIP3    H179471   2.092   5.594   0.562 -0.0107  0.6591  0.7298
19352TIP3    H279472   2.013   5.663   0.672 -1.3304 -1.8098  1.3996
19353TIP3   OH279473   5.072   2.554   3.471 -0.5279  0.4303 -0.4967
19353TIP3    H179474   5.065   2.631   3.528 -0.2662  1.2979 -1.6076
19353TIP3    H279475   4.984   2.516   3.472 -0.4764  0.3105  0.6460
19354TIP3   OH279476   3.146   4.076   3.114  0.0275 -0.2755 -0.3504
19354TIP3    H179477   3.191   4.153   3.149  1.0231 -1.1093  0.2628
19354TIP3    H279478   3.201   4.003   3.139 -0.7063 -1.1658 -1.2611
19355TIP3   OH279479   2.361   3.525   0.715  0.4736 -0.9274  0.2742
19355TIP3    H179480   2.273   3.557   0.698  0.7253 -0.5344 -0.3039
19355TIP3    H279481   2.375   3.541   0.809  0.2689 -0.1694  0.1757
19356TIP3   OH279482   6.516   6.937   4.376 -0.6325  0.0985 -0.2724
19356TIP3    H179483   6.484   6.849   4.355  0.5567 -0.8743  1.6790
19356TIP3    H279484   6.603   6.923   4.414 -0.1644  2.1933 -0.4160
19357TIP3   OH279485   1.032   0.595   2.513  0.6930 -0.7770 -0.0193
19357TIP3    H179486   1.076   0.660   2.568  1.8743  0.2274 -2.0446
19357TIP3    H279487   1.091   0.521   2.510  0.2934 -1.1304  0.6204
19358TIP3   OH279488   1.528   2.472   1.139  0.0107 -0.2404  0.2043
19358TIP3    H179489   1.493   2.385   1.117 -2.9395  0.7768  0.4327
19358TIP3    H279490   1.567   2.503   1.057 -0.1588 -1.2029 -0.2631
19359TIP3   OH279491   2.477   2.060   4.271  0.6129 -0.1935 -0.1863
19359TIP3    H179492   2.474   1.980   4.323 -1.2320 -0.2025 -0.2603
19359TIP3    H279493   2.526   2.035   4.193  1.0104 -0.9412  0.2858
19360TIP3   OH279494   3.744   6.445   5.155  0.3684  0.1559 -0.0570
19360TIP3    H179495   3.773   6.536   5.144 -1.1401  0.7351  0.4906
19360TIP3    H279496   3.648   6.451   5.158  0.2690 -1.3819  0.6403
19361TIP3   OH279497   3.115   6.710   4.891  0.2100 -0.2326 -0.3880
19361TIP3    H179498   3.060   6.782   4.923 -0.3866 -0.4647 -0.8800
19361TIP3    H279499   3.148   6.740   4.807 -0.1531 -0.5934 -0.6592
19362TIP3   OH279500   0.753   3.840   4.893 -0.5476 -0.2154  0.3645
19362TIP3    H179501   0.779   3.932   4.898  2.3844 -0.9899  1.9715
19362TIP3    H279502   0.722   3.819   4.981 -1.1237 -0.7890  0.0324
19363TIP3   OH279503   1.534   0.226   3.005 -0.2279  0.4583 -0.0983
19363TIP3    H179504   1.602   0.162   2.983  0.8915  1.6318 -0.1572
19363TIP3    H279505   1.464   0.174   3.045  0.1376 -0.9427 -1.2145
19364TIP3   OH279506   6.708   0.740   4.769  0.8434  0.3541 -0.6463
19364TIP3    H179507   6.786   0.688   4.747  0.7047  0.0714 -0.4689
19364TIP3    H279508   6.684   0.782   4.687  0.8831  0.0398 -0.8206
19365TIP3   OH279509   0.412   3.809   5.764 -0.0122  0.6489  0.0854
19365TIP3    H179510   0.495   3.823   5.811 -1.0184  1.7802  1.6498
19365TIP3    H279511   0.394   3.716   5.774  1.5529  0.1521 -1.2008
19366TIP3   OH279512   3.493   5.497   6.003  0.0805  0.0658  0.7311
19366TIP3    H179513   3.425   5.543   6.052 -0.7165 -1.4159  1.0610
19366TIP3    H279514   3.451   5.472   5.921  1.3054  2.2304 -0.6723
19367TIP3   OH279515   4.526   5.330  13.287 -0.2053 -0.2757 -0.0584
19367TIP3    H179516   4.559   5.242  13.270  0.4116 -0.6252  2.5574
19367TIP3    H279517   4.597   5.373  13.335 -0.5267  1.6630 -1.2186
19368TIP3   OH279518   0.902   5.940  14.947  0.2084  0.4417  0.0177
19368TIP3    H179519   0.914   5.909  15.037 -1.4152  0.8693  0.4102
19368TIP3    H279520   0.892   6.035  14.955 -0.6089  0.4061 -0.5415
19369TIP3   OH279521   3.528   2.087  13.560 -0.1388  0.2209  0.8487
19369TIP3    H179522   3.543   2.175  13.593  0.2347  0.2571  0.5894
19369TIP3    H279523   3.563   2.029  13.627  1.7063  0.3097  0.0120
19370TIP3   OH279524   0.987   0.900   5.487 -0.3198  0.3684 -0.0921
19370TIP3    H179525   0.898   0.910   5.521  0.0709 -0.7566  1.3577
19370TIP3    H279526   1.017   0.816   5.523  0.5386 -0.3866 -2.3890
19371TIP3   OH279527   1.698   2.582   1.642 -0.2571 -0.1437 -0.0102
19371TIP3    H179528   1.719   2.622   1.727  0.1212  0.5779 -0.4371
19371TIP3    H279529   1.750   2.631   1.579 -1.0171 -0.2646 -0.7439
19372TIP3   OH279530   2.178   0.762   4.527 -0.0938 -0.2406  0.0227
19372TIP3    H179531   2.260   0.712   4.537 -0.1763 -0.1313  1.3866
19372TIP3    H279532   2.123   0.733   4.600 -0.6011  0.9657  0.1380
19373TIP3   OH279533   3.036   6.424   4.945 -0.3314  0.4219 -0.4158
19373TIP3    H179534   3.024   6.391   4.856  2.2646 -0.2889 -0.5780
19373TIP3    H279535   3.064   6.515   4.933  1.0387  0.0181 -0.4118
19374TIP3   OH279536   0.739   3.739   0.043 -0.9354 -0.4583 -0.3831
19374TIP3    H179537   0.707   3.745   0.133 -0.3097 -1.5906 -0.0669
19374TIP3    H279538   0.832   3.719   0.051 -0.7594 -0.0881 -1.2884
19375TIP3   OH279539   1.328   4.604   4.531 -1.0334 -0.4894  0.0995
19375TIP3    H179540   1.421   4.626   4.521 -0.8887 -1.4288 -0.8841
19375TIP3    H279541   1.328   4.528   4.590 -1.2959  0.2454  1.0836
19376TIP3   OH279542   2.188   2.471   4.306  0.2819 -0.3406  0.0730
19376TIP3    H179543   2.160   2.379   4.312  1.1704 -1.0449 -3.8103
19376TIP3    H279544   2.283   2.466   4.305  0.3354  0.6429  0.1306
19377TIP3   OH279545   4.503   1.323   1.971 -0.5165 -0.6768  0.7748
19377TIP3    H179546   4.516   1.399   1.915 -2.3916  1.3608  2.8981
19377TIP3    H279547   4.448   1.264   1.919 -0.5012  0.1890 -0.2627
19378TIP3   OH279548   6.931   6.574   4.493  0.2409 -0.2841 -0.0472
19378TIP3    H179549   6.902   6.636   4.425  1.0995  0.8120  0.5453
19378TIP3    H279550   6.948   6.493   4.446 -0.6082  0.0164 -0.9072
19379TIP3   OH279551   2.218   5.096   4.387  0.1362 -0.2156  0.5008
19379TIP3    H179552   2.272   5.114   4.310  0.1029 -1.1115  0.2534
19379TIP3    H279553   2.278   5.104   4.461 -0.0562  1.6680  0.5022
19380TIP3   OH279554   4.487   0.157   5.456  0.4729 -0.6780  0.1415
19380TIP3    H179555   4.469   0.244   5.493 -0.6753 -0.5012 -0.8009
19380TIP3    H279556   4.568   0.130   5.499  0.8216  0.8311  0.5037
19381TIP3   OH279557   7.104   2.613  13.746  0.7669 -0.0909 -0.5229
19381TIP3    H179558   7.117   2.570  13.831 -0.7863  0.2472 -0.0808
19381TIP3    H279559   7.146   2.698  13.756 -2.4065  1.4903  1.3115
19382TIP3   OH279560   2.413   3.482   3.892 -0.0708  0.1478 -0.0014
19382TIP3    H179561   2.343   3.488   3.827 -0.0826 -2.0580 -0.2502
19382TIP3    H279562   2.371   3.503   3.975 -0.9737 -0.8048 -0.1987
19383TIP3   OH279563   1.825   0.392   2.973  0.1941 -0.4097  0.4513
19383TIP3    H179564   1.827   0.487   2.963 -2.7950 -0.2266  0.4439
19383TIP3    H279565   1.812   0.379   3.067 -3.0587 -0.5132  0.1120
19384TIP3   OH279566   2.625   0.057   4.994  0.6237  0.3266  0.1518
19384TIP3    H179567   2.676  -0.001   5.050  1.1437  1.6515  1.1127
19384TIP3    H279568   2.569   0.106   5.054  0.7865  1.3760 -0.5151
19385TIP3   OH279569   1.902   2.667   4.520  0.4068  0.7579 -0.2229
19385TIP3    H179570   1.866   2.658   4.608  0.5378 -0.1657 -0.2500
19385TIP3    H279571   1.947   2.583   4.504 -0.3351  0.5815 -1.4851
19386TIP3   OH279572   0.994   0.095   2.001 -0.0372 -0.0534 -0.5050
19386TIP3    H179573   0.988   0.003   2.023 -0.1553  0.4623  1.8863
19386TIP3    H279574   0.942   0.104   1.921  1.8730 -2.3842 -2.1560
19387TIP3   OH279575   1.585   5.279   3.830 -0.3405  0.9321 -0.5681
19387TIP3    H179576   1.657   5.308   3.775  0.9695  0.8587  1.0186
19387TIP3    H279577   1.612   5.193   3.862 -0.7086  1.2895  0.7679
19388TIP3   OH279578   6.940   7.163   0.995 -0.0240  0.3163  0.0559
19388TIP3    H179579   6.876   7.232   0.980 -0.8293 -0.3503  0.3714
19388TIP3    H279580   6.969   7.138   0.907 -0.8582  0.0194 -0.1464
19389TIP3   OH279581   2.145   0.618   4.874  0.3811  0.0586 -0.0933
19389TIP3    H179582   2.228   0.604   4.827  1.3651 -0.3777  1.6698
19389TIP3    H279583   2.144   0.712   4.893  1.0838 -0.1067  0.8753
19390TIP3   OH279584   6.904   2.090   4.344 -0.3003  0.0680  0.4276
19390TIP3    H179585   6.935   2.169   4.299 -0.0921 -0.2212  0.0496
19390TIP3    H279586   6.984   2.047   4.374 -0.2327 -1.1385 -1.3220
19391TIP3   OH279587   7.097   1.368   3.859 -0.2056 -0.4006 -0.6823
19391TIP3    H179588   7.151   1.446   3.848 -0.8352  0.2014  0.3403
19391TIP3    H279589   7.015   1.401   3.897 -0.0017 -1.6895  0.9821
19392TIP3   OH279590   4.374   1.490  14.043  0.5122 -0.1957  0.2281
19392TIP3    H179591   4.321   1.520  13.970  0.8141 -1.7154 -0.6743
19392TIP3    H279592   4.418   1.411  14.009  1.6691 -0.1932  1.6268
19393TIP3   OH279593   3.987   5.667   4.360  0.5046 -0.3453  0.1967
19393TIP3    H179594   3.950   5.732   4.300 -0.9357 -0.2774  1.1159
19393TIP3    H279595   3.979   5.584   4.314 -2.3587 -0.5900  0.9564
19394TIP3   OH279596   4.906   4.032   2.932  0.2967 -0.1479  0.1445
19394TIP3    H179597   4.865   4.042   3.018  2.2166 -0.5606  1.1400
19394TIP3    H279598   4.922   3.938   2.924  0.9830  0.0022 -0.2685
19395TIP3   OH279599   3.903   3.979   3.077  0.2755 -0.1752  0.4243
19395TIP3    H179600   3.993   3.946   3.082  0.6905  1.0286  1.8455
19395TIP3    H279601   3.896   4.015   2.989  0.7665 -1.3725 -0.1310
19396TIP3   OH279602   2.293   5.855   4.898  0.3688 -0.1724  0.3297
19396TIP3    H179603   2.387   5.857   4.877  0.1768  1.1453 -0.5804
19396TIP3    H279604   2.282   5.923   4.965 -0.2066  1.1745 -1.0535
19397TIP3   OH279605   2.023   6.640   5.315  0.1406  0.3263  0.0899
19397TIP3    H179606   2.064   6.574   5.259  0.1787  0.4936 -0.0821
19397TIP3    H279607   2.067   6.631   5.399 -0.6070 -0.5963  0.3899
19398TIP3   OH279608   0.846   4.733   2.127 -0.2558  0.4826  0.0187
19398TIP3    H179609   0.753   4.741   2.108 -0.2573  1.9173  0.5002
19398TIP3    H279610   0.883   4.818   2.103  0.7577  0.2778  0.7794
19399TIP3   OH279611   2.414   0.676  14.700 -0.3789  0.5724  0.0897
19399TIP3    H179612   2.379   0.689  14.612 -3.3266  1.4437  1.2672
19399TIP3    H279613   2.345   0.629  14.747  1.5101 -0.7637  1.7398
19400TIP3   OH279614   4.136   0.706   5.023  0.2254  0.5165 -0.5144
19400TIP3    H179615   4.067   0.684   5.085  0.3525 -1.8590 -1.1360
19400TIP3    H279616   4.092   0.718   4.939  0.5794 -1.9474 -1.1178
19401TIP3   OH279617   4.388   1.454   4.929 -0.0126  0.5006 -0.5553
19401TIP3    H179618   4.385   1.363   4.898  1.3630 -0.2421  1.2701
19401TIP3    H279619   4.476   1.484   4.906 -0.4560  1.3851 -1.1304
19402TIP3   OH279620   0.257   6.043  13.718 -0.6985 -0.8300  0.0732
19402TIP3    H179621   0.167   6.016  13.738 -0.7502 -0.0802  0.9187
19402TIP3    H279622   0.303   6.038  13.802 -0.2800  0.0347 -0.0956
19403TIP3   OH279623   3.486   7.097   2.726 -0.2866  0.3119 -0.3571
19403TIP3    H179624   3.535   7.015   2.715 -0.0130  0.3283  0.6961
19403TIP3    H279625   3.508   7.148   2.648  2.0931  0.6780  0.4538
19404TIP3   OH279626   2.499   4.079   3.464 -0.0081  0.6453  0.2470
19404TIP3    H179627   2.407   4.053   3.463  0.4788 -1.2988 -1.3299
19404TIP3    H279628   2.547   3.996   3.467  1.6737  1.3466 -2.9671
19405TIP3   OH279629   4.202   1.399   2.574  0.4520 -0.3781 -0.3714
19405TIP3    H179630   4.222   1.358   2.658 -0.7427  3.8817  2.2538
19405TIP3    H279631   4.114   1.435   2.585  1.9105  4.1866 -1.6066
19406TIP3   OH279632   4.965   1.480   2.353  0.0598 -0.0559 -0.8171
19406TIP3    H179633   5.060   1.482   2.348  0.2109  0.3765  1.3565
19406TIP3    H279634   4.943   1.386   2.356  0.6430 -0.1610  1.3306
19407TIP3   OH279635   4.904   3.467   5.067  0.1699  0.9858  0.3899
19407TIP3    H179636   4.882   3.464   4.974 -1.1308 -1.1780  0.7009
19407TIP3    H279637   4.826   3.502   5.110  0.5178  1.3393  0.7493
19408TIP3   OH279638   1.986   1.568  15.230  0.6968  0.4735  0.3730
19408TIP3    H179639   1.994   1.506  15.158  1.0928  2.5980 -1.5341
19408TIP3    H279640   1.922   1.528  15.289  0.4443 -1.3954 -1.0712
19409TIP3   OH279641   4.043   7.159   4.861  0.4281 -0.9977  0.3300
19409TIP3    H179642   4.080   7.185   4.945 -0.4414  1.3120  0.0537
19409TIP3    H279643   3.948   7.169   4.872  0.3786  3.7421 -2.1027
19410TIP3   OH279644   4.557   1.276   5.222 -0.4868 -0.1637  0.0952
19410TIP3    H179645   4.570   1.294   5.315 -3.0037 -0.1096  0.5162
19410TIP3    H279646   4.584   1.184   5.212  0.7325  0.1157  0.6350
19411TIP3   OH279647   3.780   4.813   4.463  0.5769  0.6925  0.4351
19411TIP3    H179648   3.866   4.786   4.430  0.1504 -0.9945  0.5838
19411TIP3    H279649   3.740   4.731   4.493 -1.8685  1.1133 -1.4249
19412TIP3   OH279650   0.162   4.480   1.854  0.4446  0.4305  0.3028
19412TIP3    H179651   0.090   4.531   1.817 -2.3028 -0.7330  3.5219
19412TIP3    H279652   0.198   4.535   1.924 -1.0977 -0.9638  2.3350
19413TIP3   OH279653   3.597   5.822   5.780  0.3641  0.7546  0.7116
19413TIP3    H179654   3.531   5.760   5.748  1.8065 -0.2485 -0.4265
19413TIP3    H279655   3.567   5.908   5.750 -1.5062  0.6416  2.0492
19414TIP3   OH279656   1.559   5.361   4.090  0.2285  0.5296  0.2165
19414TIP3    H179657   1.600   5.447   4.079  1.3464 -0.1180 -0.9438
19414TIP3    H279658   1.547   5.330   4.000  1.2368 -1.1655  0.6379
19415TIP3   OH279659   3.064   0.975   0.038  0.0283 -0.2962  0.3997
19415TIP3    H179660   3.122   0.901   0.059 -0.5688 -0.4410  1.6349
19415TIP3    H279661   3.122   1.043   0.004  0.4749 -1.6864 -1.8276
19416TIP3   OH279662   6.682   2.574   0.468 -0.4755  0.2500  0.3574
19416TIP3    H179663   6.643   2.487   0.453  0.4486  0.1776 -2.1493
19416TIP3    H279664   6.621   2.635   0.427  0.5089  0.4287 -0.8820
19417TIP3   OH279665   3.957   4.341  14.980  0.1782 -0.1137  0.0085
19417TIP3    H179666   3.980   4.332  15.072  1.4360  1.7926 -0.0618
19417TIP3    H279667   4.034   4.308  14.933 -1.9783 -5.2349 -0.6232
19418TIP3   OH279668   1.583   5.331   3.109 -0.2862 -0.0887  0.3556
19418TIP3    H179669   1.601   5.255   3.164 -0.0153  1.2707  2.2525
19418TIP3    H279670   1.667   5.377   3.103 -0.3240 -0.1783 -1.2021
19419TIP3   OH279671   5.054   7.174   4.779 -0.0302  0.2634 -0.5589
19419TIP3    H179672   5.001   7.225   4.718 -1.3098  1.4657  1.4655
19419TIP3    H279673   5.117   7.128   4.723 -0.8878  1.5887 -2.7291
19420TIP3   OH279674   0.911   1.037   3.745 -0.0430 -0.3960  0.3924
19420TIP3    H179675   0.820   1.063   3.728 -0.4817 -2.1183 -0.1023
19420TIP3    H279676   0.904   0.947   3.778  1.4784 -0.5009  0.4852
19421TIP3   OH279677   6.584   2.032   4.818  0.2504 -0.5175  0.1468
19421TIP3    H179678   6.548   2.116   4.847  0.0426 -0.6392  0.2424
19421TIP3    H279679   6.562   2.027   4.725  0.9314 -0.1193 -0.0382
19422TIP3   OH279680   4.045   2.202   3.628  0.0664  0.3730 -0.4286
19422TIP3    H179681   4.058   2.295   3.649  0.9456 -0.0028  0.8073
19422TIP3    H279682   3.978   2.173   3.689  0.4292 -0.0071 -0.2086
19423TIP3   OH279683   6.486   5.892   0.098 -0.4664  0.4536 -0.3202
19423TIP3    H179684   6.507   5.955   0.167 -0.1599  1.9712 -1.7326
19423TIP3    H279685   6.419   5.936   0.046  0.4007  0.0022 -1.8635
19424TIP3   OH279686   6.832   5.950   4.293  0.0480  0.2501 -0.1184
19424TIP3    H179687   6.878   6.032   4.273 -1.6086  1.1734 -0.3255
19424TIP3    H279688   6.742   5.966   4.266  0.2736 -2.8492 -3.4899
19425TIP3   OH279689   5.905   6.630   0.578 -0.3342  0.4934 -0.4215
19425TIP3    H179690   5.852   6.639   0.658 -1.6428  2.4505 -1.4389
19425TIP3    H279691   5.925   6.720   0.552  2.6548 -0.1295 -0.7121
19426TIP3   OH279692   3.896   1.388   0.501  0.2365  0.3120  0.1429
19426TIP3    H179693   3.880   1.421   0.590 -2.0762 -3.8806  1.5532
19426TIP3    H279694   3.972   1.331   0.510 -0.7185 -1.0587 -0.2418
19427TIP3   OH279695   4.927   0.728   5.243 -0.9016  1.0606 -0.0848
19427TIP3    H179696   4.993   0.781   5.289 -0.2558  0.8773 -0.7935
19427TIP3    H279697   4.977   0.676   5.181 -1.7829  1.4181 -1.1193
19428TIP3   OH279698   1.025   1.408   2.355 -0.5643 -0.4092  0.1690
19428TIP3    H179699   1.000   1.475   2.418 -0.9982 -0.0830 -0.3465
19428TIP3    H279700   1.083   1.349   2.405 -0.8167 -0.1029  0.8372
19429TIP3   OH279701   2.718   6.098   4.160 -0.3514 -1.1328 -0.3077
19429TIP3    H179702   2.693   6.024   4.215  0.7620  1.1471  3.6729
19429TIP3    H279703   2.812   6.085   4.145 -0.2923 -0.8626 -0.1709
19430TIP3   OH279704   2.985   1.205   3.524 -0.1633 -0.0254  0.0636
19430TIP3    H179705   2.998   1.136   3.459  0.0388  1.9295 -2.1435
19430TIP3    H279706   3.072   1.245   3.533 -0.9960  2.6383 -2.1350
19431TIP3   OH279707   5.199   1.922  12.942  0.2132  0.3110  0.2275
19431TIP3    H179708   5.187   1.862  13.015  1.1300 -0.1236  0.0297
19431TIP3    H279709   5.282   1.966  12.961 -0.8497  2.1700  0.8206
19432TIP3   OH279710   1.601   3.985   4.879 -0.4564  0.6054  0.3656
19432TIP3    H179711   1.577   4.077   4.891 -0.1700  0.6488  0.6085
19432TIP3    H279712   1.518   3.942   4.857 -0.4243  1.0959 -0.8078
19433TIP3   OH279713   0.919   5.773   0.881  0.2700 -0.3633  0.1092
19433TIP3    H179714   1.013   5.775   0.898  0.3235  0.3038 -0.2442
19433TIP3    H279715   0.911   5.724   0.799  0.3415 -0.0865 -0.0634
19434TIP3   OH279716   1.776   6.418   4.489 -0.0967  0.0255  0.0446
19434TIP3    H179717   1.687   6.453   4.495  0.5357  1.5455  1.1995
19434TIP3    H279718   1.832   6.495   4.493  1.2852 -0.7811 -1.9512
19435TIP3   OH279719   0.637   3.835   0.612 -0.1143 -0.5922  0.0726
19435TIP3    H179720   0.666   3.779   0.684 -1.8732 -1.4006  0.1931
19435TIP3    H279721   0.685   3.803   0.536 -0.2354 -1.4983  0.3698
19436TIP3   OH279722   5.812   5.065   1.658 -0.1389  0.3960  0.0791
19436TIP3    H179723   5.864   4.987   1.675 -0.1756  0.8988  2.8515
19436TIP3    H279724   5.875   5.133   1.634  0.1312  0.1373  0.0634
19437TIP3   OH279725   2.600   0.804   1.864  0.0703  0.4740 -0.0844
19437TIP3    H179726   2.523   0.757   1.896 -0.1359  1.2888  0.6466
19437TIP3    H279727   2.668   0.737   1.858 -0.5176 -0.1307 -0.1483
19438TIP3   OH279728   6.842   7.178   5.149 -0.0843  0.2410 -0.1601
19438TIP3    H179729   6.828   7.268   5.119 -0.5364 -0.0235 -0.7836
19438TIP3    H279730   6.931   7.178   5.185 -0.1062  0.9520 -0.0998
19439TIP3   OH279731   2.467   3.530   1.110  0.5959 -0.0560  0.0899
19439TIP3    H179732   2.408   3.587   1.158  0.9222  0.6826 -0.3725
19439TIP3    H279733   2.510   3.587   1.046  0.7830 -0.8555 -0.5157
19440TIP3   OH279734   1.529   6.376   5.422 -0.1741  0.4275  0.1335
19440TIP3    H179735   1.610   6.425   5.440 -0.0189  0.1350  0.2560
19440TIP3    H279736   1.509   6.334   5.506 -1.5978  2.1222  0.7146
19441TIP3   OH279737   3.560   2.879   4.563 -0.0127  0.4055  0.3759
19441TIP3    H179738   3.611   2.927   4.498 -0.7731  0.0312 -0.5161
19441TIP3    H279739   3.474   2.920   4.561 -1.2323 -2.0098 -1.6609
19442TIP3   OH279740   0.310   6.554   5.882 -0.1840  0.1412 -0.1507
19442TIP3    H179741   0.242   6.516   5.937  0.1267 -0.4144 -0.1458
19442TIP3    H279742   0.265   6.622   5.832 -0.9887 -0.9363 -0.9328
19443TIP3   OH279743   5.961   1.693   4.231  0.7921 -0.1768 -0.0925
19443TIP3    H179744   5.941   1.602   4.254  3.0846 -0.5781  0.5893
19443TIP3    H279745   5.875   1.733   4.215 -0.3692 -2.0865  0.9413
19444TIP3   OH279746   3.166   0.060   5.296  0.0521  0.1725 -0.1697
19444TIP3    H179747   3.226  -0.010   5.270 -1.0358 -0.3413 -1.4260
19444TIP3    H279748   3.141   0.038   5.385 -1.5137 -2.0243 -1.0613
19445TIP3   OH279749   2.127   2.127   5.761  0.2514 -0.1252  0.6001
19445TIP3    H179750   2.100   2.039   5.734  1.3761 -0.4051  0.3541
19445TIP3    H279751   2.083   2.185   5.699  1.5324 -0.6759 -0.8975
19446TIP3   OH279752   3.040   0.654   1.473  0.3026  0.1301 -0.4951
19446TIP3    H179753   3.095   0.731   1.460  0.2967  0.4236  1.0653
19446TIP3    H279754   2.952   0.684   1.451  0.2821  0.6165  0.2169
19447TIP3   OH279755   4.432   5.448   4.735 -0.0706  0.2734 -0.1601
19447TIP3    H179756   4.424   5.356   4.711 -0.7942 -0.3347  2.1841
19447TIP3    H279757   4.343   5.476   4.753  0.1060  1.5583 -1.1319
19448TIP3   OH279758   6.403   6.604  13.549  0.1205  0.0939 -0.1014
19448TIP3    H179759   6.323   6.656  13.561 -0.3400 -0.1656 -1.7928
19448TIP3    H279760   6.373   6.525  13.505  1.2055 -0.3592 -0.0444
19449TIP3   OH279761   6.413   6.873   2.342 -0.2257 -0.3590  0.2731
19449TIP3    H179762   6.492   6.820   2.331  0.0440  0.2904 -1.0953
19449TIP3    H279763   6.366   6.863   2.260 -0.6770  0.6829  0.3899
19450TIP3   OH279764   2.455   2.324   4.685 -0.5216  0.5983 -0.0521
19450TIP3    H179765   2.396   2.394   4.712  0.9983  1.9241 -0.0841
19450TIP3    H279766   2.435   2.251   4.745 -1.6279  1.2869  0.4401
19451TIP3   OH279767   3.672   2.336   5.018 -0.3386  0.0192 -0.0222
19451TIP3    H179768   3.683   2.260   4.960  3.4224  1.4816 -1.5226
19451TIP3    H279769   3.712   2.309   5.100 -1.0289 -0.3355  0.2049
19452TIP3   OH279770   2.600   5.266   4.495  0.6837 -0.0969  0.0765
19452TIP3    H179771   2.562   5.278   4.409 -1.2413 -0.5225  0.8121
19452TIP3    H279772   2.623   5.355   4.524 -0.4663  0.2741 -0.1063
19453TIP3   OH279773   0.615   3.946   5.559 -0.2193 -0.4755  0.5121
19453TIP3    H179774   0.560   3.868   5.571  0.6198 -0.9286  1.6150
19453TIP3    H279775   0.657   3.958   5.644 -0.9800  1.7180  0.6342
19454TIP3   OH279776   2.172   0.917   1.183  0.0576  0.1371  0.3545
19454TIP3    H179777   2.148   1.004   1.152 -0.8595 -0.5680 -1.0589
19454TIP3    H279778   2.217   0.877   1.108 -1.5942 -1.3912  0.1092
19455TIP3   OH279779   0.986   2.204   3.701  0.7368  0.6721 -0.3420
19455TIP3    H179780   0.910   2.210   3.643 -1.5993  0.7760  2.5028
19455TIP3    H279781   1.037   2.283   3.682 -0.5148  1.2571 -1.4363
19456TIP3   OH279782   1.741   6.498   2.094 -0.2505  0.6737  0.3403
19456TIP3    H179783   1.672   6.466   2.152  0.0020  1.7682  1.2861
19456TIP3    H279784   1.746   6.592   2.112 -0.7474  1.2503 -2.1026
19457TIP3   OH279785   3.645   5.905   1.676  0.2451 -0.0613  0.2927
19457TIP3    H179786   3.616   5.969   1.742  1.0796 -1.8562  2.5415
19457TIP3    H279787   3.565   5.879   1.631 -0.5136  0.5335  1.2527
19458TIP3   OH279788   3.583   0.065   2.536  0.2811 -0.4874 -0.4365
19458TIP3    H179789   3.495   0.103   2.534  0.3284 -0.2138  1.1614
19458TIP3    H279790   3.626   0.101   2.459 -0.5577  0.5270 -0.4564
19459TIP3   OH279791   0.785   3.661   4.029  0.5537 -0.1502 -0.7780
19459TIP3    H179792   0.838   3.611   3.968  0.0847 -1.0083 -0.4992
19459TIP3    H279793   0.762   3.599   4.098  1.1612  0.8205  0.3391
19460TIP3   OH279794   0.164   2.984   4.133  0.3420 -1.2085  0.2230
19460TIP3    H179795   0.076   3.020   4.118  1.1285  0.5239 -0.5604
19460TIP3    H279796   0.191   2.949   4.047  1.1878  0.1541 -0.1007
19461TIP3   OH279797   0.224   0.990   5.151  0.1695 -0.3836 -0.6270
19461TIP3    H179798   0.183   1.074   5.128 -0.1007 -0.1063  0.7713
19461TIP3    H279799   0.151   0.938   5.185  0.4499 -0.9889 -0.9461
19462TIP3   OH279800   2.425   3.036   2.397  1.1486  0.2638  0.3849
19462TIP3    H179801   2.498   3.062   2.454  1.6810 -0.2682 -0.0356
19462TIP3    H279802   2.463   2.971   2.338 -0.1470 -1.5115  1.4160
19463TIP3   OH279803   3.994   3.938   4.659  0.1160 -0.3582 -0.4010
19463TIP3    H179804   3.963   4.028   4.647 -0.3489 -0.6472 -1.5877
19463TIP3    H279805   3.918   3.892   4.695  1.2969  0.3478  3.4272
19464TIP3   OH279806   7.044   2.875  14.845  0.4960  0.5071  0.3431
19464TIP3    H179807   6.954   2.898  14.820  0.7733  1.2244 -0.0499
19464TIP3    H279808   7.035   2.828  14.928 -0.2867  0.0040 -0.0151
19465TIP3   OH279809   3.140   3.528   5.103 -0.5205  0.2375  0.0190
19465TIP3    H179810   3.100   3.560   5.184 -1.8565  0.4523 -0.6919
19465TIP3    H279811   3.080   3.557   5.034 -0.1288 -1.1176 -0.9282
19466TIP3   OH279812   6.144   1.294   5.201  0.2442 -0.4029 -0.7862
19466TIP3    H179813   6.062   1.251   5.226  1.2681 -1.8059  0.3539
19466TIP3    H279814   6.208   1.262   5.265  1.9421 -0.2847 -2.3428
19467TIP3   OH279815   0.835   0.420   4.586  0.3995 -0.0497 -0.1063
19467TIP3    H179816   0.787   0.499   4.610  0.2505 -0.3851  0.7393
19467TIP3    H279817   0.871   0.439   4.500 -0.9364  0.3648 -0.6092
19468TIP3   OH279818   4.927   0.818   0.254  0.2234  0.0010  0.0806
19468TIP3    H179819   5.010   0.865   0.254  0.0784  0.2699  0.9497
19468TIP3    H279820   4.944   0.740   0.200  1.2600 -0.3264  0.8432
19469TIP3   OH279821   1.792   5.506   0.483 -0.0871  0.5019 -0.6567
19469TIP3    H179822   1.859   5.571   0.504 -0.3047  1.1164 -1.7672
19469TIP3    H279823   1.731   5.509   0.557  0.5987  0.6059 -0.0809
19470TIP3   OH279824   4.355   5.878   0.066 -0.3234  0.2421  0.4828
19470TIP3    H179825   4.303   5.798   0.076  3.0200 -2.2889 -0.6316
19470TIP3    H279826   4.323   5.917  -0.016  0.2939 -1.9730 -0.8950
19471TIP3   OH279827   1.847   4.369   2.911  0.4210 -0.1357  0.5638
19471TIP3    H179828   1.928   4.355   2.961  1.0072  0.3459 -0.2124
19471TIP3    H279829   1.804   4.284   2.911  1.8632 -0.9246 -0.5726
19472TIP3   OH279830   4.710   2.037   0.634  0.0426 -0.8829 -0.1896
19472TIP3    H179831   4.778   2.020   0.700 -0.2292 -2.2789 -0.2376
19472TIP3    H279832   4.656   1.958   0.634 -0.4095 -0.6040 -1.5654
19473TIP3   OH279833   2.862   1.995   3.366  0.2977  0.0994  0.4595
19473TIP3    H179834   2.779   2.011   3.322  0.8284  1.8704  0.0583
19473TIP3    H279835   2.838   1.981   3.458 -0.3549  2.4416  0.7118
19474TIP3   OH279836   2.512   6.922   1.146 -0.0212  0.1499  0.5058
19474TIP3    H179837   2.585   6.863   1.165  0.7261  0.2753 -1.6541
19474TIP3    H279838   2.499   6.914   1.051 -1.1444  2.0359  0.4553
19475TIP3   OH279839   3.612   0.379   4.952  0.3480 -0.1959  0.0943
19475TIP3    H179840   3.552   0.325   4.900  0.4073  0.3638 -0.5813
19475TIP3    H279841   3.561   0.457   4.974  0.4078 -0.3131  0.6692
19476TIP3   OH279842   5.009   7.043   1.085 -0.4713 -0.2036 -0.2327
19476TIP3    H179843   5.013   6.973   1.150 -0.6566  1.0451  1.1741
19476TIP3    H279844   4.918   7.071   1.085 -0.0935  1.1443  0.4975
19477TIP3   OH279845   4.557   6.536  13.701 -0.2989 -0.4337 -0.0025
19477TIP3    H179846   4.540   6.572  13.788 -0.0958 -1.0374  0.2905
19477TIP3    H279847   4.472   6.541  13.657 -0.3445  0.1188  0.1359
19478TIP3   OH279848   0.019   5.527   4.654  0.8237  0.2797 -0.4133
19478TIP3    H179849   0.000   5.437   4.680  0.7402  0.3491 -0.2311
19478TIP3    H279850   0.060   5.519   4.568 -0.1583  0.1334 -0.8821
19479TIP3   OH279851   2.148   0.594   0.974 -0.7604 -0.2878 -0.0444
19479TIP3    H179852   2.073   0.648   0.998 -1.5119 -1.0891 -0.5496
19479TIP3    H279853   2.165   0.614   0.882 -0.4290 -0.2021  0.0329
19480TIP3   OH279854   2.386   1.433   5.095  0.2899 -0.0545 -0.4538
19480TIP3    H179855   2.478   1.460   5.099 -0.3064  2.2127 -0.6190
19480TIP3    H279856   2.357   1.432   5.186  0.2631  0.0671 -0.4606
19481TIP3   OH279857   4.758   4.457   0.784 -0.2116 -0.2385 -0.1411
19481TIP3    H179858   4.813   4.507   0.845 -0.8498 -0.2498  0.4554
19481TIP3    H279859   4.774   4.366   0.806  0.8144 -0.3255 -1.1110
19482TIP3   OH279860   0.468   4.753   4.012  0.2972 -0.3495 -0.2820
19482TIP3    H179861   0.530   4.823   3.991  0.1798 -0.3613 -0.6670
19482TIP3    H279862   0.406   4.794   4.072 -0.5548  0.2682 -1.5391
19483TIP3   OH279863   3.099   4.415   0.097  0.2517  0.2799  0.2413
19483TIP3    H179864   3.093   4.404   0.192 -0.9780 -0.2860  0.1128
19483TIP3    H279865   3.193   4.408   0.078  0.3433 -1.9871  1.1630
19484TIP3   OH279866   6.516   6.882   1.424  0.3880  0.1242  0.3799
19484TIP3    H179867   6.433   6.862   1.380  0.1645 -0.6209  1.1038
19484TIP3    H279868   6.492   6.945   1.492  0.2758 -0.6259  1.0491
19485TIP3   OH279869   3.757   3.569   4.468 -0.5225 -0.0642  0.1728
19485TIP3    H179870   3.696   3.624   4.517 -0.2292  1.1824 -0.8157
19485TIP3    H279871   3.803   3.519   4.536 -3.0310 -1.5197  0.9193
19486TIP3   OH279872   4.087   7.201   5.136  0.0440  0.0405 -0.0331
19486TIP3    H179873   4.131   7.215   5.220  1.5092 -2.7441 -0.2169
19486TIP3    H279874   3.997   7.177   5.159 -0.2362  1.5777  0.5746
19487TIP3   OH279875   0.453   3.078   0.969  0.7910  0.4722 -0.1190
19487TIP3    H179876   0.486   3.164   0.942  1.1525  0.6290  0.7872
19487TIP3    H279877   0.488   3.065   1.057 -3.1410  1.5084  1.8115
19488TIP3   OH279878   6.201   3.730   4.415 -0.5887 -0.3581  0.6885
19488TIP3    H179879   6.151   3.735   4.333  0.5470  1.2766  0.0346
19488TIP3    H279880   6.202   3.819   4.448  2.7032 -0.0491  0.1085
19489TIP3   OH279881   5.910   0.288   2.885  0.5623 -0.7184 -0.5491
19489TIP3    H179882   5.937   0.232   2.957 -1.1797 -0.5156  0.3274
19489TIP3    H279883   5.875   0.228   2.820  1.7258 -0.8678 -1.0565
19490TIP3   OH279884   6.734   3.618   4.394  0.1525  0.4563  0.0112
19490TIP3    H179885   6.703   3.693   4.445  1.4596  0.5770  0.6703
19490TIP3    H279886   6.784   3.566   4.456  1.5141  0.4349 -1.0463
19491TIP3   OH279887   0.178   1.997   1.625  0.2966  0.5516 -0.1472
19491TIP3    H179888   0.121   1.958   1.558  0.3990 -0.4625  0.3281
19491TIP3    H279889   0.240   2.050   1.576 -0.4432  0.8842 -0.7518
19492TIP3   OH279890   0.164   2.452   3.662  0.1171 -0.1466 -0.4156
19492TIP3    H179891   0.136   2.360   3.662 -0.7720  0.0923  1.1455
19492TIP3    H279892   0.161   2.478   3.570 -0.7837 -1.3345 -0.7456
19493TIP3   OH279893   0.571   0.429   2.819  0.8281 -0.2136 -0.6890
19493TIP3    H179894   0.533   0.516   2.831 -1.6698 -1.2815 -0.3352
19493TIP3    H279895   0.608   0.407   2.905  0.7761  0.1608 -0.5663
19494TIP3   OH279896   5.797   4.727   1.967  0.3923 -0.6765  0.4676
19494TIP3    H179897   5.754   4.767   1.891 -0.6203  1.2186  1.9428
19494TIP3    H279898   5.739   4.655   1.991 -1.2205  0.8623  1.4608
19495TIP3   OH279899   3.383   0.137   5.811  0.0335  0.0074 -0.2374
19495TIP3    H179900   3.326   0.193   5.757 -0.3090  0.7129  0.8185
19495TIP3    H279901   3.425   0.198   5.871 -0.8109 -0.9230  1.3495
19496TIP3   OH279902   4.385   5.329   2.467  0.2956 -0.3130 -0.1667
19496TIP3    H179903   4.375   5.300   2.377 -1.5106  1.2387 -0.5455
19496TIP3    H279904   4.476   5.308   2.490  0.9500 -0.2861 -2.4994
19497TIP3   OH279905   4.408   5.529   3.930 -0.0615  0.4447  0.3957
19497TIP3    H179906   4.314   5.543   3.923 -0.0352  0.4679  0.0417
19497TIP3    H279907   4.421   5.491   4.017 -0.3322  0.9652  0.6716
19498TIP3   OH279908   3.525   2.586   3.496  0.0414  0.0328  0.0760
19498TIP3    H179909   3.518   2.620   3.586  0.6416  0.4820 -0.0418
19498TIP3    H279910   3.466   2.642   3.445  1.2639  1.1323 -0.1749
19499TIP3   OH279911   6.755   0.086   3.966 -0.3841 -0.2440  0.5181
19499TIP3    H179912   6.771   0.077   3.872 -0.9588 -2.8474  0.5713
19499TIP3    H279913   6.834   0.127   4.000 -0.1570  0.7274 -1.0919
19500TIP3   OH279914   0.834   0.426   4.990 -0.3277  0.6261 -0.3295
19500TIP3    H179915   0.864   0.377   4.913 -4.0733 -0.1146 -1.5639
19500TIP3    H279916   0.840   0.518   4.965  0.7101  0.5016 -0.5556
19501TIP3   OH279917   2.128   4.900   4.569 -0.0932  0.1893  0.1276
19501TIP3    H179918   2.113   4.821   4.517  1.9059 -0.3258  0.2373
19501TIP3    H279919   2.151   4.967   4.504 -3.0711  1.1383 -0.1014
19502TIP3   OH279920   2.861   2.864   4.055 -0.3822 -0.0496  0.3971
19502TIP3    H179921   2.882   2.929   3.989  1.0834  0.8218  1.6558
19502TIP3    H279922   2.803   2.910   4.116 -2.4629 -1.1072 -0.6619
19503TIP3   OH279923   6.874   5.521   3.780 -0.2063  0.6156 -0.0271
19503TIP3    H179924   6.787   5.484   3.765  0.5551 -1.1290 -0.4680
19503TIP3    H279925   6.863   5.615   3.769 -1.5875  0.2476 -2.3647
19504TIP3   OH279926   5.088   5.605   1.722  0.5193  0.2531  0.0765
19504TIP3    H179927   5.104   5.609   1.816  0.1286  1.0989  0.1108
19504TIP3    H279928   5.173   5.581   1.685  0.8216  0.5040  0.5941
19505TIP3   OH279929   6.618   1.238   1.595 -0.5903  0.3647  0.1575
19505TIP3    H179930   6.573   1.153   1.595  0.0927 -0.0024  0.8862
19505TIP3    H279931   6.649   1.249   1.505 -0.3141 -0.3634  0.1608
19506TIP3   OH279932   6.964   2.554   0.768  0.7107  0.2783  0.1507
19506TIP3    H179933   6.942   2.461   0.760 -0.4322  0.4515  0.9317
19506TIP3    H279934   6.901   2.588   0.832  2.2594  1.2126  1.2343
19507TIP3   OH279935   3.557   2.773   0.420  0.1226 -0.5647 -0.3922
19507TIP3    H179936   3.534   2.782   0.512 -0.9933 -0.3315 -0.6820
19507TIP3    H279937   3.568   2.863   0.389  0.0677 -0.6270 -0.5915
19508TIP3   OH279938   4.352   3.818   0.620 -1.1464 -0.7458  0.5986
19508TIP3    H179939   4.381   3.751   0.557 -1.9780 -0.1377 -0.4649
19508TIP3    H279940   4.328   3.768   0.698 -0.3171 -1.5458  0.3593
19509TIP3   OH279941   3.939   1.576   5.215 -0.7164 -0.4526  0.3761
19509TIP3    H179942   3.917   1.654   5.165 -2.1538 -0.4654  0.9342
19509TIP3    H279943   3.906   1.593   5.303  1.6292 -0.4938  1.3469
19510TIP3   OH279944   4.168   4.557  14.827  0.5605 -0.9667  0.2298
19510TIP3    H179945   4.090   4.524  14.782  0.2156 -0.5582  0.5125
19510TIP3    H279946   4.140   4.568  14.918  0.8318 -0.4638  0.2602
19511TIP3   OH279947   5.853   4.239   5.337 -0.3314  0.2964 -0.1888
19511TIP3    H179948   5.907   4.173   5.382  0.8851  0.4618 -1.3269
19511TIP3    H279949   5.873   4.321   5.383  0.1226  0.2938 -0.3740
19512TIP3   OH279950   5.866   5.239   4.340 -0.1747  0.1481 -0.3753
19512TIP3    H179951   5.788   5.210   4.293 -0.1808 -0.3354 -0.0708
19512TIP3    H279952   5.832   5.282   4.418 -0.1750  1.2190 -0.9402
19513TIP3   OH279953   5.589   4.249  12.694 -0.2804  0.1576  0.1505
19513TIP3    H179954   5.592   4.203  12.611 -1.4111  1.0947 -0.4383
19513TIP3    H279955   5.497   4.274  12.704 -0.0261  0.6981  1.3285
19514TIP3   OH279956   3.826   3.513   1.736 -0.3971 -0.2293 -0.5294
19514TIP3    H179957   3.776   3.499   1.816  0.5729  0.1554  0.1497
19514TIP3    H279958   3.855   3.425   1.711  0.1551 -0.2314  0.1043
19515TIP3   OH279959   0.134   0.901   1.508  0.6605 -0.5582  0.0149
19515TIP3    H179960   0.084   0.847   1.569 -0.2795  0.6945  0.3650
19515TIP3    H279961   0.131   0.989   1.544  1.3057 -0.0579 -1.0939
19516TIP3   OH279962   2.760   3.893   1.264  0.4431  0.3212  0.2268
19516TIP3    H179963   2.811   3.814   1.282 -0.6789 -0.4270  0.2563
19516TIP3    H279964   2.810   3.964   1.304  1.7519 -0.2875 -0.2675
19517TIP3   OH279965   5.913   2.938   3.327  0.3035  0.1663 -0.6694
19517TIP3    H179966   6.006   2.934   3.306  0.2439  0.6160 -1.0209
19517TIP3    H279967   5.870   2.958   3.245 -0.0528  0.5487 -0.3911
19518TIP3   OH279968   4.552   2.263  14.028  0.1479  0.2654  0.4077
19518TIP3    H179969   4.582   2.184  13.981  1.2666  1.2110 -0.5371
19518TIP3    H279970   4.511   2.229  14.107 -0.0609 -1.3077 -0.3217
19519TIP3   OH279971   4.960   1.039   4.166 -0.4899 -0.1544  0.5574
19519TIP3    H179972   4.942   0.964   4.110  1.6167 -0.1465 -0.2222
19519TIP3    H279973   5.056   1.044   4.169 -0.5519  2.5949  0.4204
19520TIP3   OH279974   5.721   0.397   0.781 -0.6288  0.5744  0.1782
19520TIP3    H179975   5.745   0.314   0.740 -1.6752  1.7112 -3.0399
19520TIP3    H279976   5.759   0.464   0.725 -0.1627  2.3483  2.4580
19521TIP3   OH279977   3.684   2.071   1.249 -0.9465  0.1747  0.3814
19521TIP3    H179978   3.771   2.052   1.281 -1.0880  0.4215  0.9202
19521TIP3    H279979   3.691   2.158   1.210 -0.9897  0.2574  0.5601
19522TIP3   OH279980   6.449   4.441   0.723  0.3205 -0.1264  0.2468
19522TIP3    H179981   6.360   4.420   0.748 -0.4155 -0.1403 -2.1576
19522TIP3    H279982   6.479   4.365   0.672  1.6733 -0.0696  0.9056
19523TIP3   OH279983   5.133   3.219   0.282 -0.0523 -0.3443  0.5036
19523TIP3    H179984   5.128   3.224   0.378 -2.8817  0.8918  0.3954
19523TIP3    H279985   5.199   3.284   0.258  1.2572 -1.2117  1.5964
19524TIP3   OH279986   6.757   0.996  14.804 -0.0965  0.0080 -0.0287
19524TIP3    H179987   6.814   0.966  14.875  1.0647 -3.1414 -2.0709
19524TIP3    H279988   6.709   0.918  14.778 -1.8437  1.5086 -1.5485
19525TIP3   OH279989   6.639   6.678   3.881  0.2722  0.1923 -0.2108
19525TIP3    H179990   6.664   6.744   3.946  1.0179 -2.1142  1.9979
19525TIP3    H279991   6.549   6.654   3.905 -0.0935  0.5524 -1.1742
19526TIP3   OH279992   4.853   4.490   3.385 -0.1724 -0.2462 -0.0128
19526TIP3    H179993   4.793   4.508   3.457 -0.0839 -0.2596  0.0638
19526TIP3    H279994   4.862   4.394   3.384  3.0820 -0.1273  2.6289
19527TIP3   OH279995   3.072   3.046   3.303  0.2696 -0.4089  0.6668
19527TIP3    H179996   3.009   3.099   3.352  0.8495  1.3281 -0.3911
19527TIP3    H279997   3.021   2.969   3.274 -0.3055 -1.0623  3.1527
19528TIP3   OH279998   0.229   4.865   2.307 -0.3657  0.0139 -0.3683
19528TIP3    H179999   0.303   4.871   2.366  0.4469 -0.5225 -1.3056
19528TIP3    H280000   0.168   4.933   2.337  1.1017  1.3980 -0.4179
19529TIP3   OH280001   6.034   2.398   3.965  0.1973  0.4431 -0.3101
19529TIP3    H180002   6.083   2.398   4.047  0.2909 -0.6606 -0.3574
19529TIP3    H280003   6.068   2.474   3.917  0.4141  0.8679  0.4987
19530TIP3   OH280004   3.874   7.129   4.594 -0.4706 -0.5144  0.2637
19530TIP3    H180005   3.970   7.126   4.593 -0.4162  0.4014  1.1588
19530TIP3    H280006   3.851   7.098   4.681 -0.8815  1.2614  0.8162
19531TIP3   OH280007   4.394   4.372   3.407 -0.0350  0.8530 -0.6562
19531TIP3    H180008   4.319   4.332   3.363 -1.3490  1.7811  0.6004
19531TIP3    H280009   4.447   4.298   3.436 -0.5593  0.1571 -1.4138
19532TIP3   OH280010   1.723   3.767   4.315  0.0326  0.2902 -0.9496
19532TIP3    H180011   1.694   3.836   4.255 -1.9276  0.7051  0.3847
19532TIP3    H280012   1.788   3.810   4.371  0.3516  0.4593 -1.4406
19533TIP3   OH280013   0.012   3.615   1.167  0.1376  0.2047 -0.0055
19533TIP3    H180014  -0.030   3.646   1.247 -0.2813 -0.6493  0.1105
19533TIP3    H280015  -0.060   3.586   1.111  0.2019  2.7056 -1.5858
19534TIP3   OH280016   0.968   5.080   3.685  0.2911  0.2402 -0.7645
19534TIP3    H180017   0.947   5.136   3.761  1.7930  0.8465 -0.7575
19534TIP3    H280018   0.924   5.122   3.612  0.7324  1.0005 -0.6105
19535TIP3   OH280019   0.302   3.204   3.956  0.3634 -0.2081 -0.6571
19535TIP3    H180020   0.249   3.224   3.878 -0.9850 -3.6514 -0.7633
19535TIP3    H280021   0.332   3.114   3.943  0.5555 -0.7233  2.5735
19536TIP3   OH280022   3.403   5.623   3.002 -0.1020  0.2354  0.1692
19536TIP3    H180023   3.490   5.654   2.977 -0.1973  1.1695  0.9246
19536TIP3    H280024   3.419   5.546   3.056  0.1593 -0.8650 -1.4162
19537TIP3   OH280025   4.233   5.077   5.347 -0.4905 -0.0029 -0.7312
19537TIP3    H180026   4.306   5.045   5.399 -0.6001  0.4766 -0.2665
19537TIP3    H280027   4.158   5.075   5.407 -0.6615  0.3665 -0.9289
19538TIP3   OH280028   6.285   2.247   2.978  0.1865  0.0320  0.2005
19538TIP3    H180029   6.292   2.310   3.050 -0.1372  0.3134 -0.0070
19538TIP3    H280030   6.228   2.178   3.013  2.2331 -1.2697  1.1915
19539TIP3   OH280031   3.275   4.169   1.527  0.6466  0.3550  0.2735
19539TIP3    H180032   3.242   4.161   1.616  1.5456  1.1982  0.6966
19539TIP3    H280033   3.212   4.226   1.483 -1.0501 -1.8109 -0.3269
19540TIP3   OH280034   5.851   0.457   5.848  0.2496 -0.0112  0.1814
19540TIP3    H180035   5.898   0.399   5.788 -3.1183 -3.0646  0.1400
19540TIP3    H280036   5.917   0.482   5.913  2.6228 -1.3659 -1.5247
19541TIP3   OH280037   5.533   4.618   3.345 -0.3896  0.3090 -0.0543
19541TIP3    H180038   5.441   4.646   3.347 -1.0203 -1.0903 -2.9831
19541TIP3    H280039   5.531   4.526   3.369  0.4916  0.5922  1.2065
19542TIP3   OH280040   4.534   3.827   1.159  0.2768 -0.1969 -0.1138
19542TIP3    H180041   4.561   3.888   1.090 -0.5296  0.1333 -0.1601
19542TIP3    H280042   4.601   3.760   1.161  1.3912  0.8841  0.1742
19543TIP3   OH280043   6.248   0.138   5.169 -0.0766 -0.5970  0.4993
19543TIP3    H180044   6.263   0.062   5.113  0.0509 -0.4814  0.3782
19543TIP3    H280045   6.284   0.212   5.121  0.5005 -0.5709  0.9649
19544TIP3   OH280046   2.615   4.894   3.642  0.4463  0.3689 -0.2270
19544TIP3    H180047   2.635   4.964   3.579 -2.0467  2.2778  0.9080
19544TIP3    H280048   2.566   4.938   3.712 -2.7102 -2.7135 -0.2003
19545TIP3   OH280049   4.491   3.521   2.381  0.0813 -0.2917 -0.0744
19545TIP3    H180050   4.420   3.468   2.417  0.5315 -0.4943  0.5262
19545TIP3    H280051   4.545   3.544   2.456  2.2668 -2.5445 -0.8314
19546TIP3   OH280052   0.486   6.182   0.329  0.3348  0.6267  0.0601
19546TIP3    H180053   0.419   6.251   0.327 -0.0168  0.2872  0.1250
19546TIP3    H280054   0.560   6.220   0.282 -0.0460  0.8541 -0.3674
19547TIP3   OH280055   6.688   2.936   2.731  0.2452 -0.1139  0.7130
19547TIP3    H180056   6.655   2.865   2.675 -0.2912 -0.5745  1.5815
19547TIP3    H280057   6.700   3.010   2.672  2.4747 -1.4006 -0.5679
19548TIP3   OH280058   0.785   5.590   3.819  0.6864  0.5636  0.2208
19548TIP3    H180059   0.781   5.559   3.910 -0.8693  0.6501  0.2038
19548TIP3    H280060   0.739   5.674   3.821 -1.6360 -0.5884 -1.0805
19549TIP3   OH280061   1.606   6.296   2.833 -0.3760 -0.5670  0.2948
19549TIP3    H180062   1.662   6.312   2.757  0.0266  0.8388  0.8676
19549TIP3    H280063   1.614   6.202   2.849 -0.7774 -0.9909 -1.6277
19550TIP3   OH280064   3.790   2.971   3.928 -0.5738 -0.1260  0.4363
19550TIP3    H180065   3.870   2.933   3.964  0.1559  0.6677 -0.3070
19550TIP3    H280066   3.819   3.051   3.885 -1.2786 -1.2992 -2.4401
19551TIP3   OH280067   4.947   6.021   5.565 -0.6425  0.2918  0.0848
19551TIP3    H180068   4.972   5.936   5.602 -2.0857  0.2741  1.1123
19551TIP3    H280069   4.856   6.033   5.592 -1.0568  1.3364 -1.6232
19552TIP3   OH280070   3.675   1.813   3.088 -0.2198 -0.0392 -0.2302
19552TIP3    H180071   3.661   1.891   3.035  1.8424  0.3763 -0.2307
19552TIP3    H280072   3.598   1.809   3.145 -1.3648  0.7942 -1.6423
19553TIP3   OH280073   6.290   2.077  12.939 -0.2027 -0.0554  0.4255
19553TIP3    H180074   6.375   2.068  12.896 -0.1484  1.0192  0.2812
19553TIP3    H280075   6.286   2.169  12.966 -1.2737 -0.1123  0.5165
19554TIP3   OH280076   3.393   0.758   5.283  0.5396  0.0697  0.5846
19554TIP3    H180077   3.402   0.781   5.375 -1.0153  0.7602  0.5902
19554TIP3    H280078   3.411   0.839   5.235 -0.5574  0.2030  0.3853
19555TIP3   OH280079   4.806   6.581   5.090  0.6873 -0.2055  0.0407
19555TIP3    H180080   4.734   6.550   5.144  0.4509 -1.4455 -0.9385
19555TIP3    H280081   4.873   6.512   5.097  0.8903 -0.1024 -0.7702
19556TIP3   OH280082   3.651   4.089   1.239  0.3444  0.0321 -0.1044
19556TIP3    H180083   3.573   4.050   1.279  0.5577 -0.8313 -0.5069
19556TIP3    H280084   3.636   4.083   1.145  1.7661 -2.1201 -0.2938
19557TIP3   OH280085   1.057   6.560   5.734 -0.0622 -0.0679 -0.2271
19557TIP3    H180086   1.074   6.651   5.712  0.1077 -0.0868 -0.1769
19557TIP3    H280087   1.018   6.563   5.822 -1.3289  0.0519 -0.7813
19558TIP3   OH280088   4.140   4.959   4.788 -0.1579  0.3536 -0.0063
19558TIP3    H180089   4.073   4.934   4.851 -0.8413 -0.1719 -0.9186
19558TIP3    H280090   4.221   4.923   4.823 -0.8391 -1.6730 -0.3966
19559TIP3   OH280091   2.560   5.104   4.795 -0.6364  0.3428 -0.5743
19559TIP3    H180092   2.643   5.104   4.748 -0.5494 -0.8454 -0.4662
19559TIP3    H280093   2.543   5.011   4.812 -2.1451  0.5460 -0.8695
19560TIP3   OH280094   3.172   0.106   0.498 -0.7432  0.2991 -0.4398
19560TIP3    H180095   3.150   0.081   0.588  1.1614  0.4322  0.1118
19560TIP3    H280096   3.100   0.071   0.445 -2.6003  1.3580  1.2354
19561TIP3   OH280097   5.416   0.037   4.109 -0.1744 -0.4209 -0.2938
19561TIP3    H180098   5.341  -0.017   4.083 -0.1770 -0.4207 -0.2858
19561TIP3    H280099   5.492  -0.020   4.097 -0.1606 -0.3698 -0.4526
19562TIP3   OH280100   0.904   5.546   2.940  0.0973 -0.6412  0.0928
19562TIP3    H180101   0.889   5.457   2.908  1.1982 -0.9102  0.2768
19562TIP3    H280102   0.989   5.571   2.903  0.8384 -0.5015  1.7842
19563TIP3   OH280103   1.627   3.327   4.657 -0.0542  0.0519  0.2996
19563TIP3    H180104   1.640   3.250   4.601  1.3540  0.4489  0.0482
19563TIP3    H280105   1.715   3.346   4.691 -0.6743  0.5834  1.6346
19564TIP3   OH280106   3.225   6.874   1.076  0.1200 -0.0731 -0.0016
19564TIP3    H180107   3.202   6.918   1.158 -1.6838  1.0210 -1.0292
19564TIP3    H280108   3.275   6.797   1.103 -0.2112  0.3902  2.1009
19565TIP3   OH280109   5.076   5.535   5.122  0.8001 -0.5076 -0.0771
19565TIP3    H180110   5.088   5.513   5.215  1.1019 -1.4299 -0.3193
19565TIP3    H280111   5.164   5.551   5.089  0.6172  0.6780 -0.0131
19566TIP3   OH280112   5.185   4.935   5.794 -0.2012  0.2760 -0.6642
19566TIP3    H180113   5.130   5.007   5.762 -0.6733  0.1416 -0.1706
19566TIP3    H280114   5.144   4.856   5.758 -0.6216  0.1386  0.0963
19567TIP3   OH280115   6.125   4.854   2.208  0.1909 -0.9318  0.0608
19567TIP3    H180116   6.079   4.771   2.194 -2.0293 -0.0016  1.4593
19567TIP3    H280117   6.186   4.835   2.280  0.1130 -1.4792 -0.0104
19568TIP3   OH280118   1.108   4.108   1.470  0.3479 -0.4354 -0.2171
19568TIP3    H180119   1.040   4.053   1.510 -0.2416 -1.3920 -2.3694
19568TIP3    H280120   1.086   4.197   1.497 -0.0017 -1.0090  1.5263
19569TIP3   OH280121   6.254   3.626   2.213 -0.3862 -0.0474  0.0551
19569TIP3    H180122   6.307   3.572   2.271  0.1741 -0.7660 -1.0830
19569TIP3    H280123   6.170   3.581   2.209  0.2955 -1.2921 -1.4319
19570TIP3   OH280124   7.156   5.017   3.719  0.1439  0.0516  0.6253
19570TIP3    H180125   7.149   4.951   3.650 -0.7084  1.1258 -0.3588
19570TIP3    H280126   7.159   5.100   3.672  1.3803  0.7247  1.8319
19571TIP3   OH280127   3.117   6.577   1.182  0.2519 -0.0126  0.8775
19571TIP3    H180128   3.187   6.515   1.162 -0.3569 -0.4024 -0.1518
19571TIP3    H280129   3.081   6.548   1.266 -0.0403 -1.0832  0.3986
19572TIP3   OH280130   1.249   0.794   5.272 -0.2653 -0.0863  0.1434
19572TIP3    H180131   1.310   0.760   5.206 -0.1518 -0.2137  0.3105
19572TIP3    H280132   1.173   0.825   5.222  0.8727  2.2152 -0.2763
19573TIP3   OH280133   0.220   5.652   4.206  0.4816  0.2220  0.2230
19573TIP3    H180134   0.271   5.571   4.197  0.3800  0.1762  0.0372
19573TIP3    H280135   0.220   5.671   4.300  0.8712  0.2444  0.2169
19574TIP3   OH280136   6.373   0.350  13.865 -0.6453 -0.6731  0.0210
19574TIP3    H180137   6.312   0.321  13.933 -0.5433  0.3940  0.5958
19574TIP3    H280138   6.370   0.446  13.870 -0.3885 -0.5852 -1.2683
19575TIP3   OH280139   3.430   3.819   4.441 -0.0631 -0.4167  0.0694
19575TIP3    H180140   3.392   3.866   4.367  0.4491 -2.5083 -1.6035
19575TIP3    H280141   3.374   3.742   4.453  0.5192 -0.7059  1.1223
19576TIP3   OH280142   5.383   0.429   2.044 -0.5630  0.3625 -0.1748
19576TIP3    H180143   5.335   0.481   1.980 -1.7075 -0.2985  0.1203
19576TIP3    H280144   5.354   0.462   2.129 -1.1466 -0.5787  0.0129
19577TIP3   OH280145   5.792   7.180   5.126 -0.1781 -0.1963  0.0525
19577TIP3    H180146   5.747   7.263   5.140  0.6689  0.5385 -1.3042
19577TIP3    H280147   5.836   7.162   5.209  1.0596  1.6449 -0.1422
19578TIP3   OH280148   0.233   4.942   2.000  0.0456 -0.0243 -0.9680
19578TIP3    H180149   0.170   5.014   1.991  0.3475  0.6124  1.3173
19578TIP3    H280150   0.224   4.914   2.091  1.2613 -1.6533 -1.3053
19579TIP3   OH280151   2.668   5.665   3.011 -0.3201  0.2330 -0.1388
19579TIP3    H180152   2.591   5.632   3.057  0.4554 -1.4603  0.0449
19579TIP3    H280153   2.691   5.746   3.056 -0.9668 -0.1630  0.9318
19580TIP3   OH280154   6.160   3.525   4.589  0.0818 -0.3622  0.5050
19580TIP3    H180155   6.179   3.581   4.664 -0.9339  1.7256 -0.6841
19580TIP3    H280156   6.148   3.587   4.516  1.2561 -2.2869 -1.4492
19581TIP3   OH280157   3.845   2.781   0.346  0.1713 -0.0798 -0.4175
19581TIP3    H180158   3.753   2.765   0.365  0.4336  0.3204  1.4080
19581TIP3    H280159   3.885   2.694   0.348 -0.0673 -0.1974 -0.6643
19582TIP3   OH280160   5.138   2.592   3.996 -0.3424 -0.7022 -0.2137
19582TIP3    H180161   5.129   2.604   3.902 -1.0110 -0.9691 -0.1907
19582TIP3    H280162   5.232   2.586   4.011  0.0444  2.8395 -0.4220
19583TIP3   OH280163   0.380   4.136   3.728 -0.9360  0.7934 -0.1018
19583TIP3    H180164   0.368   4.056   3.676  0.4892  0.1027  0.5573
19583TIP3    H280165   0.386   4.206   3.664  0.0706  0.0528 -0.8591
19584TIP3   OH280166   5.198   3.300  13.260  0.1310 -0.0182  0.1893
19584TIP3    H180167   5.246   3.249  13.325  0.6613 -0.0626 -0.2267
19584TIP3    H280168   5.163   3.234  13.199  0.7903  0.0990 -0.3311
19585TIP3   OH280169   4.543   1.688   1.527 -0.0284  0.3639 -0.6857
19585TIP3    H180170   4.475   1.640   1.479  0.0425  0.6098 -1.0420
19585TIP3    H280171   4.618   1.690   1.467  0.2767  0.1431 -0.3184
19586TIP3   OH280172   0.349   4.528   5.433  0.2352  0.7788  0.3013
19586TIP3    H180173   0.277   4.591   5.444 -1.0341 -0.8728  2.2068
19586TIP3    H280174   0.314   4.464   5.372  0.0195 -0.0595  1.2781
19587TIP3   OH280175   5.456   0.780   4.537 -0.3478  0.2845  0.5975
19587TIP3    H180176   5.434   0.687   4.547 -0.4157  0.2643  0.2717
19587TIP3    H280177   5.458   0.794   4.442  2.2836 -0.0002  0.5470
19588TIP3   OH280178   1.085   5.319   3.389 -0.0351  0.6538  0.0760
19588TIP3    H180179   1.006   5.306   3.441  0.0353  0.5844  0.1662
19588TIP3    H280180   1.127   5.232   3.386 -0.0642  0.6454 -0.1372
19589TIP3   OH280181   1.548   1.267  14.205  0.1041 -0.4402  0.1426
19589TIP3    H180182   1.557   1.181  14.246  0.5344 -0.0394  0.8976
19589TIP3    H280183   1.545   1.248  14.111  0.6653 -1.2453  0.2745
19590TIP3   OH280184   6.794   4.486   4.030  0.2135  0.0964 -0.2346
19590TIP3    H180185   6.797   4.529   4.116 -0.7332  0.7067 -0.4921
19590TIP3    H280186   6.848   4.541   3.974  0.2306  0.1080 -0.2069
19591TIP3   OH280187   3.014   6.621   2.846  0.5335 -0.0728  0.1656
19591TIP3    H180188   3.030   6.714   2.831 -0.7535 -0.1296 -2.0603
19591TIP3    H280189   3.037   6.580   2.762  0.3228 -1.6518  0.8533
19592TIP3   OH280190   5.753   2.230   4.832 -0.3181  0.2472 -0.3609
19592TIP3    H180191   5.666   2.271   4.829  0.9431  3.1773 -1.5538
19592TIP3    H280192   5.802   2.284   4.895  0.5813 -1.5739  0.5663
19593TIP3   OH280193   1.122   3.023   3.547 -0.6850 -0.0492  0.1318
19593TIP3    H180194   1.073   3.068   3.616 -1.7492  2.4452 -2.0484
19593TIP3    H280195   1.212   3.053   3.558 -0.6727 -0.3638  0.9345
19594TIP3   OH280196   2.913   6.863   3.162 -0.4290 -0.0642  0.1381
19594TIP3    H180197   2.976   6.934   3.150 -1.4391  1.1475  1.5760
19594TIP3    H280198   2.878   6.847   3.075 -0.4113  1.4528 -0.1764
19595TIP3   OH280199   7.076   4.829   2.671 -0.7298 -0.2656 -0.3753
19595TIP3    H180200   7.019   4.795   2.602 -2.4377  0.2396  0.7057
19595TIP3    H280201   7.057   4.923   2.674 -1.7275 -0.4662  1.6041
19596TIP3   OH280202   2.862   3.473   4.892  0.0786  0.7213  0.0830
19596TIP3    H180203   2.919   3.399   4.870 -1.6342 -0.3233 -1.0631
19596TIP3    H280204   2.843   3.460   4.985  1.0132  0.6066  0.2716
19597TIP3   OH280205   3.533   4.808   4.191  0.0959  0.3590  0.6402
19597TIP3    H180206   3.614   4.856   4.210  0.0726  1.2274 -1.2385
19597TIP3    H280207   3.540   4.786   4.098 -0.7986 -1.6057  1.0018
19598TIP3   OH280208   2.963   3.893   2.375  0.4194  0.1584 -0.5150
19598TIP3    H180209   2.923   3.821   2.326  0.1019  0.7327 -1.1180
19598TIP3    H280210   2.958   3.967   2.315  0.0195  0.8766  0.3933
19599TIP3   OH280211   5.730   4.454   2.045 -0.1062 -0.2926 -0.9479
19599TIP3    H180212   5.785   4.447   1.967 -1.1914  0.3614 -1.7963
19599TIP3    H280213   5.654   4.399   2.027 -0.0720 -0.6574 -0.0681
19600TIP3   OH280214   6.428   6.521   1.668  0.0896 -0.4964 -0.4193
19600TIP3    H180215   6.487   6.451   1.695 -1.1096 -1.4445 -0.1912
19600TIP3    H280216   6.482   6.600   1.670  1.6329 -1.4850 -1.2688
19601TIP3   OH280217   1.209   0.419   2.670 -0.3020  0.1450 -0.0803
19601TIP3    H180218   1.260   0.454   2.597 -0.3382 -0.5531 -0.4543
19601TIP3    H280219   1.267   0.427   2.746  0.9129 -1.7798 -0.7174
19602TIP3   OH280220   0.110   1.596   5.365  0.7025  0.7729 -0.0565
19602TIP3    H180221   0.204   1.601   5.382  0.6761 -0.9806  0.8095
19602TIP3    H280222   0.072   1.571   5.449 -0.3386 -0.2621 -0.8048
19603TIP3   OH280223   1.205   0.161   2.138 -0.3019 -0.5023  0.1594
19603TIP3    H180224   1.168   0.128   2.220 -2.2944  2.1030  0.4115
19603TIP3    H280225   1.139   0.142   2.072 -1.0173  1.8854  0.1286
19604TIP3   OH280226   0.717   6.223  13.470  0.2662 -0.0353 -0.2547
19604TIP3    H180227   0.810   6.243  13.465  0.4626 -1.1104 -1.4422
19604TIP3    H280228   0.676   6.305  13.497  1.3643  0.9676 -1.4697
19605TIP3   OH280229   4.684   6.082   5.668  0.2440 -0.3530  1.0677
19605TIP3    H180230   4.732   6.134   5.733  0.1729 -1.1404  1.7583
19605TIP3    H280231   4.594   6.082   5.700 -0.1296  0.6346  0.0812
19606TIP3   OH280232   4.158   0.861   3.622  0.1478  0.5635  0.4877
19606TIP3    H180233   4.106   0.828   3.696  0.7310  2.2779  1.7224
19606TIP3    H280234   4.221   0.791   3.605 -0.3425 -0.0893  1.2606
19607TIP3   OH280235   2.630   6.521   5.502 -0.6963  0.2931  0.3766
19607TIP3    H180236   2.639   6.540   5.595  0.8426 -0.8482  0.4933
19607TIP3    H280237   2.634   6.607   5.459  1.3734  0.6540  1.1883
19608TIP3   OH280238   4.882   1.097   5.771  0.5841  0.6687 -0.0621
19608TIP3    H180239   4.827   1.073   5.845 -1.3241 -0.5834 -1.7841
19608TIP3    H280240   4.900   1.190   5.784  0.5213  0.4286  2.0542
19609TIP3   OH280241   1.591   0.563   3.849  0.1796 -0.1882 -0.5783
19609TIP3    H180242   1.575   0.652   3.817 -0.5813  0.1011  0.5312
19609TIP3    H280243   1.616   0.513   3.771  0.3172  0.9265 -1.2647
19610TIP3   OH280244   5.693   0.151  13.426 -0.0805  0.3054  0.1094
19610TIP3    H180245   5.694   0.127  13.519  2.3735  2.0523  0.6563
19610TIP3    H280246   5.765   0.100  13.388 -2.8909 -2.7005 -1.6511
19611TIP3   OH280247   5.125   2.392   2.873 -0.2865  0.1143 -0.1974
19611TIP3    H180248   5.123   2.459   2.805 -0.6431  0.6065  0.2902
19611TIP3    H280249   5.036   2.393   2.910  0.0273  0.1797  0.5801
19612TIP3   OH280250   2.110   6.853   0.605 -0.0410 -0.7448 -0.0717
19612TIP3    H180251   2.154   6.853   0.521 -2.0682 -0.3407 -1.2166
19612TIP3    H280252   2.135   6.936   0.646  0.9179 -0.9232 -0.2775
19613TIP3   OH280253   3.494   0.243   4.360 -0.8305  0.3190 -0.0860
19613TIP3    H180254   3.442   0.164   4.375  0.6399 -0.8462 -0.8470
19613TIP3    H280255   3.458   0.281   4.280 -0.8259 -0.2214 -0.3487
19614TIP3   OH280256   2.656   6.012  15.061  0.7066  0.6202  0.4600
19614TIP3    H180257   2.578   5.957  15.061  0.8416  0.3640 -1.0795
19614TIP3    H280258   2.729   5.951  15.055  0.9584  0.8971  0.6922
19615TIP3   OH280259   0.632   7.064   2.769  0.3757 -0.2111  0.2021
19615TIP3    H180260   0.696   6.995   2.754  0.6477  0.3670 -1.5509
19615TIP3    H280261   0.681   7.146   2.759 -0.6648  0.2480 -1.6247
19616TIP3   OH280262   1.248   1.398   3.068  0.0332 -0.0859  0.0375
19616TIP3    H180263   1.321   1.348   3.032 -0.7087 -0.2173 -1.3397
19616TIP3    H280264   1.283   1.487   3.078  0.8663 -0.5026  0.9696
19617TIP3   OH280265   7.016   5.453   0.268 -0.5405  0.1704  0.4375
19617TIP3    H180266   7.097   5.449   0.319 -1.7110  0.7728  2.4212
19617TIP3    H280267   6.947   5.467   0.332 -2.2007  0.1419 -1.2469
19618TIP3   OH280268   5.247   0.659  12.534  0.5464 -0.1803 -0.1777
19618TIP3    H180269   5.288   0.741  12.563  0.8061 -1.0988  2.2496
19618TIP3    H280270   5.153   0.678  12.540  0.5131 -0.7700  3.0366
19619TIP3   OH280271   5.754   3.762   3.973 -0.1053 -0.6341 -0.2275
19619TIP3    H180272   5.779   3.670   3.976 -0.3209 -0.6975 -0.3321
19619TIP3    H280273   5.702   3.776   4.052  0.6141 -0.3942  0.2117
19620TIP3   OH280274   3.224   1.876  12.805 -0.2080  0.4867 -0.1936
19620TIP3    H180275   3.230   1.863  12.900  3.5482 -1.4178 -0.5324
19620TIP3    H280276   3.311   1.905  12.779 -1.0986  0.7986 -3.1244
19621TIP3   OH280277   3.989   2.010   4.062  0.6372 -0.0675  0.4600
19621TIP3    H180278   3.921   2.031   3.998  0.3592 -0.3089  0.6681
19621TIP3    H280279   4.009   2.094   4.104  0.2657 -0.0412  0.5882
19622TIP3   OH280280   3.362   1.478   4.144 -0.1530 -0.0866 -0.2623
19622TIP3    H180281   3.364   1.567   4.179 -1.3150 -0.0736 -0.1975
19622TIP3    H280282   3.269   1.456   4.139 -0.0439 -0.3240 -2.7197
19623TIP3   OH280283   5.233   3.649   3.031  0.7499 -0.4965 -0.4505
19623TIP3    H180284   5.318   3.659   2.989  0.4566 -0.6749 -1.1166
19623TIP3    H280285   5.170   3.666   2.961  0.1787  2.2881  0.6322
19624TIP3   OH280286   4.467   7.198  14.623 -0.7784  0.2282 -0.4013
19624TIP3    H180287   4.545   7.156  14.586  1.6149  3.0907  0.9740
19624TIP3    H280288   4.438   7.137  14.692  0.4680 -0.7458 -0.6916
19625TIP3   OH280289   0.758   7.125   4.579  0.1490 -0.2039 -0.0640
19625TIP3    H180290   0.730   7.216   4.584 -0.8679 -0.5144 -0.0050
19625TIP3    H280291   0.679   7.076   4.559  0.8347 -0.9883 -0.9526
19626TIP3   OH280292   6.007   6.851   1.662 -0.3760  0.5265  0.0689
19626TIP3    H180293   6.076   6.809   1.611 -0.4341 -1.3332  1.4083
19626TIP3    H280294   6.054   6.898   1.731 -0.3776  1.3123 -0.4548
19627TIP3   OH280295   2.868   5.238   5.429  0.1829  0.1543  0.0168
19627TIP3    H180296   2.787   5.190   5.411 -0.4346  1.2874 -0.2708
19627TIP3    H280297   2.842   5.330   5.433  0.8095  0.3164  3.4931
19628TIP3   OH280298   0.142   4.789   2.690  0.0428  0.4067  0.0960
19628TIP3    H180299   0.048   4.790   2.674  0.3263 -1.0097 -2.0378
19628TIP3    H280300   0.175   4.866   2.645  0.0057  0.3832  0.0279
19629TIP3   OH280301   2.324   3.350   4.286  0.2060  0.2561 -0.0596
19629TIP3    H180302   2.305   3.257   4.298 -3.4956  0.8574 -0.1390
19629TIP3    H280303   2.375   3.374   4.364 -0.8166 -1.3697  1.1820
19630TIP3   OH280304   4.864   5.304   0.692  0.2358 -0.5156 -0.1275
19630TIP3    H180305   4.817   5.267   0.767 -1.7516  1.3522 -0.3608
19630TIP3    H280306   4.910   5.229   0.653  0.7143 -1.6713  2.4684
19631TIP3   OH280307   1.507   2.867   0.139  0.2993  0.3283  1.0920
19631TIP3    H180308   1.461   2.951   0.144  1.3875  0.9601  0.7908
19631TIP3    H280309   1.466   2.822   0.066  1.0496  1.4569 -0.0641
19632TIP3   OH280310   5.825   5.719   5.119  0.2699 -0.1490  0.0434
19632TIP3    H180311   5.869   5.658   5.178  1.6678  0.8863  0.1125
19632TIP3    H280312   5.872   5.802   5.130  0.3773  0.1579 -2.3041
19633TIP3   OH280313   2.432   6.303   2.952 -0.0225 -0.3221 -0.4107
19633TIP3    H180314   2.429   6.232   3.017  0.1921 -0.2353 -0.3064
19633TIP3    H280315   2.366   6.365   2.982  0.8451  0.2512  0.3438
19634TIP3   OH280316   2.173   3.639   3.119  0.3867 -0.1208  0.4832
19634TIP3    H180317   2.258   3.672   3.148  1.3067 -1.7042 -0.3131
19634TIP3    H280318   2.156   3.684   3.037 -0.0715  0.9595  1.1368
19635TIP3   OH280319   5.311   1.855   1.716 -0.1881  0.4069  0.2283
19635TIP3    H180320   5.316   1.760   1.731 -1.3161  0.1351 -0.9382
19635TIP3    H280321   5.307   1.892   1.804 -2.3546 -0.8323  0.7421
19636TIP3   OH280322   7.105   5.893  14.571 -0.1529  0.1423 -0.0896
19636TIP3    H180323   7.087   5.938  14.488  0.6500 -0.6680 -0.7157
19636TIP3    H280324   7.022   5.851  14.594 -0.4023  0.4450 -0.4311
19637TIP3   OH280325   2.007   1.928   2.371 -0.2843 -0.7321  0.1865
19637TIP3    H180326   1.982   1.861   2.308 -0.9998 -0.6979  0.4278
19637TIP3    H280327   2.022   2.007   2.319  0.5117 -1.0521 -0.0929
19638TIP3   OH280328   2.677   4.651   2.447 -0.1482 -0.4597 -0.1804
19638TIP3    H180329   2.747   4.657   2.512 -0.3919  0.4435  0.0115
19638TIP3    H280330   2.666   4.741   2.416 -0.5958 -0.7508 -0.8787
19639TIP3   OH280331   0.609   0.310   0.920  0.3652  0.3589 -0.5511
19639TIP3    H180332   0.683   0.261   0.884  0.9814  1.1796 -0.4228
19639TIP3    H280333   0.649   0.382   0.969 -0.4429 -0.3496  1.2766
19640TIP3   OH280334   7.017   2.142   2.680  0.8760 -0.4236  0.1549
19640TIP3    H180335   7.077   2.084   2.633  0.9972 -0.7632  0.7197
19640TIP3    H280336   7.067   2.172   2.756  0.8520  0.5140 -0.1856
19641TIP3   OH280337   6.768   0.422   3.642  0.1259 -0.1888  0.4516
19641TIP3    H180338   6.701   0.399   3.706  0.9587 -1.0668  1.0238
19641TIP3    H280339   6.762   0.518   3.635  0.3484 -0.0009  2.2283
19642TIP3   OH280340   5.675   7.140   3.605 -0.3157 -0.0874  0.3615
19642TIP3    H180341   5.642   7.228   3.589  3.0310  0.8284 -2.6928
19642TIP3    H280342   5.646   7.089   3.530 -0.9829 -1.2935  1.3888
19643TIP3   OH280343   3.179   4.908   2.242 -0.1407  0.2643  0.1460
19643TIP3    H180344   3.219   4.824   2.219 -2.0271 -0.9737  1.1599
19643TIP3    H280345   3.209   4.968   2.174  2.2262 -0.9057  0.0653
19644TIP3   OH280346   1.143   6.415   5.408  0.3350  0.2999 -0.2044
19644TIP3    H180347   1.159   6.351   5.478  0.9641 -0.2436 -0.8273
19644TIP3    H280348   1.068   6.465   5.438  0.0950 -0.4580  0.4991
19645TIP3   OH280349   0.146   0.445   2.175 -0.1312  0.1631  0.4812
19645TIP3    H180350   0.191   0.361   2.170 -0.8596 -0.1835 -0.6192
19645TIP3    H280351   0.216   0.510   2.169  0.3201 -0.3654 -0.1258
19646TIP3   OH280352   4.453   0.025   2.929  0.8079  0.0827 -0.1731
19646TIP3    H180353   4.545   0.002   2.911  1.1868  1.2008  0.2346
19646TIP3    H280354   4.447   0.029   3.024 -0.5306 -3.1843  0.0290
19647TIP3   OH280355   6.519   1.502   4.193 -0.3960  0.0741 -0.1669
19647TIP3    H180356   6.505   1.595   4.214  2.6415  0.7845 -0.7224
19647TIP3    H280357   6.431   1.466   4.183 -1.6995  3.2047 -1.3228
19648TIP3   OH280358   1.890   6.838   4.121  0.7130  0.0547  0.3137
19648TIP3    H180359   1.933   6.874   4.198  0.7617 -0.1159  0.3664
19648TIP3    H280360   1.892   6.744   4.134  0.4230  0.0410  0.2615
19649TIP3   OH280361   5.012   6.945   2.111  0.3093  0.1069 -0.4068
19649TIP3    H180362   5.076   6.902   2.054  1.2229  0.7448  0.1113
19649TIP3    H280363   5.065   7.004   2.165 -0.7803  1.0531 -0.3439
19650TIP3   OH280364   6.216   0.999   1.196  0.0087 -0.0019 -0.7621
19650TIP3    H180365   6.140   0.948   1.169  0.3528 -0.3290 -1.1239
19650TIP3    H280366   6.286   0.935   1.205  0.2080  0.2796 -0.2897
19651TIP3   OH280367   3.309   2.036   3.317  0.0813  0.2518  0.1024
19651TIP3    H180368   3.323   2.130   3.325 -1.8379  0.5138  0.9125
19651TIP3    H280369   3.397   1.998   3.325  1.0393  1.9952 -1.3988
19652TIP3   OH280370   5.644   0.596  15.163 -0.3630 -0.8468 -1.1040
19652TIP3    H180371   5.562   0.561  15.198  1.2932 -3.9015  0.1667
19652TIP3    H280372   5.696   0.618  15.240 -0.6000  3.1516 -1.8619
19653TIP3   OH280373   0.062   6.909  14.755 -0.1805  0.5234 -0.0388
19653TIP3    H180374  -0.006   6.927  14.690 -0.0194  1.6389  0.0903
19653TIP3    H280375   0.144   6.912  14.705 -0.1625 -0.2230 -0.0762
19654TIP3   OH280376   7.127   7.197   1.853  0.3651 -0.3108 -0.3502
19654TIP3    H180377   7.110   7.142   1.776 -0.3624 -0.2746 -0.2268
19654TIP3    H280378   7.069   7.161   1.921  0.9103 -0.2646  0.1446
19655TIP3   OH280379   4.377   1.227   0.810 -0.4014  0.3164  0.0435
19655TIP3    H180380   4.376   1.177   0.892 -3.2415 -0.0665 -0.1158
19655TIP3    H280381   4.469   1.233   0.787  0.3209 -1.6487  2.0180
19656TIP3   OH280382   4.463   4.961   4.692 -0.0179  0.0047  0.0869
19656TIP3    H180383   4.378   4.947   4.733  0.0726  1.2537  0.7459
19656TIP3    H280384   4.525   4.965   4.765  0.2840  1.2963 -0.2130
19657TIP3   OH280385   4.317   6.792   1.795  0.4713  0.1741  0.1947
19657TIP3    H180386   4.350   6.797   1.885  0.8446 -0.1360  0.0810
19657TIP3    H280387   4.262   6.870   1.785 -2.9973 -1.8395  2.0223
19658TIP3   OH280388   2.601   5.084   3.411  0.1985 -0.0405  0.3155
19658TIP3    H180389   2.622   5.067   3.319 -1.5851  4.4199 -1.1981
19658TIP3    H280390   2.510   5.057   3.420 -0.7506  2.5515 -0.4208
19659TIP3   OH280391   3.399   0.213  14.609  0.2519 -0.1388  0.1154
19659TIP3    H180392   3.458   0.161  14.664 -0.0154 -0.8848 -0.2981
19659TIP3    H280393   3.455   0.283  14.575  0.8019 -0.5874  0.0768
19660TIP3   OH280394   6.851   5.741  12.774  0.2188  0.2433  0.0712
19660TIP3    H180395   6.812   5.800  12.838  1.4165  1.2657 -0.1154
19660TIP3    H280396   6.939   5.775  12.759  0.4605 -0.7909 -1.0790
19661TIP3   OH280397   5.017   7.061   0.220 -0.1047  0.3007 -0.2582
19661TIP3    H180398   5.005   6.966   0.214  1.2948  0.0747  0.0880
19661TIP3    H280399   5.107   7.072   0.253 -1.1386  1.6915  2.4436
19662TIP3   OH280400   6.088   5.834   5.446  0.4792  0.0712  0.8309
19662TIP3    H180401   6.055   5.916   5.483  2.3063  1.0726  0.3734
19662TIP3    H280402   6.059   5.767   5.507  0.0157  1.2131  1.9072
19663TIP3   OH280403   6.185   4.043   4.766  0.0521 -0.2588 -0.1151
19663TIP3    H180404   6.124   4.115   4.777 -0.5105 -0.6407 -0.6939
19663TIP3    H280405   6.265   4.072   4.811 -1.0658 -0.4249  2.1003
19664TIP3   OH280406   2.059   6.618  14.219 -0.2796  0.4644 -0.5936
19664TIP3    H180407   2.124   6.558  14.255 -0.2925  0.4231 -0.6392
19664TIP3    H280408   2.041   6.584  14.132  1.1935  1.6498 -1.4146
19665TIP3   OH280409   0.724   6.582   0.771 -0.0692  0.5782 -0.3865
19665TIP3    H180410   0.707   6.488   0.762 -1.7565  0.7762  0.4136
19665TIP3    H280411   0.810   6.587   0.813  0.3628 -0.5757 -1.0763
19666TIP3   OH280412   5.937   2.745   5.223 -0.6513 -0.0112 -0.6225
19666TIP3    H180413   6.023   2.738   5.263 -0.3090  1.2367 -1.0962
19666TIP3    H280414   5.879   2.695   5.281 -0.0140  0.9658  0.9150
19667TIP3   OH280415   5.554   5.085   0.946 -0.0350 -0.1142  0.1629
19667TIP3    H180416   5.478   5.087   0.888 -0.4734  0.8705  0.7476
19667TIP3    H280417   5.612   5.019   0.907 -1.3005 -1.1005 -0.1371
19668TIP3   OH280418   4.914   1.990   4.390  0.6172 -0.0554  0.0555
19668TIP3    H180419   4.825   2.023   4.377 -0.5334 -1.9619  2.1342
19668TIP3    H280420   4.947   2.038   4.466 -0.5124 -2.4244  2.1818
19669TIP3   OH280421   5.914   1.422  14.986  0.0008 -0.4754  0.1514
19669TIP3    H180422   5.832   1.384  14.953 -0.4157  2.4080 -2.5423
19669TIP3    H280423   5.894   1.514  14.999  2.1420 -0.2197  2.1231
19670TIP3   OH280424   3.926   6.517   0.243 -0.2207  0.0015  0.4463
19670TIP3    H180425   4.006   6.483   0.203 -1.4781  0.2061 -2.5549
19670TIP3    H280426   3.939   6.612   0.243  0.1605 -0.0389  1.5112
19671TIP3   OH280427   2.154   0.597   0.137  0.6451  0.0689 -0.4636
19671TIP3    H180428   2.114   0.680   0.163  0.9646  0.8106 -2.1958
19671TIP3    H280429   2.239   0.596   0.182  0.7397  0.8016 -0.6135
19672TIP3   OH280430   6.395   5.945   3.811  0.3705 -0.4711  0.0155
19672TIP3    H180431   6.348   5.925   3.730  0.7302 -1.6598  0.0756
19672TIP3    H280432   6.424   5.859   3.843  1.7312  0.1398  0.4862
19673TIP3   OH280433   5.250   0.596   3.805 -0.0133  0.8117  0.4393
19673TIP3    H180434   5.332   0.550   3.823  0.1858  0.5001 -1.1474
19673TIP3    H280435   5.186   0.526   3.795  0.3000  0.8069 -2.0237
19674TIP3   OH280436   1.628   1.194   1.914 -0.2269  0.2213 -0.4145
19674TIP3    H180437   1.584   1.271   1.950  0.3402  1.4223 -2.1643
19674TIP3    H280438   1.720   1.205   1.938 -0.5871 -1.8033  2.4089
19675TIP3   OH280439   0.211   3.520   2.618 -0.1092  0.0872  0.2902
19675TIP3    H180440   0.244   3.500   2.706 -1.4206  0.3027  0.8490
19675TIP3    H280441   0.224   3.438   2.569 -2.3967 -1.1981  1.6362
19676TIP3   OH280442   0.100   4.191  13.426  0.0726 -0.1362 -0.5997
19676TIP3    H180443   0.147   4.235  13.356  1.9300  0.0654  0.6921
19676TIP3    H280444   0.036   4.135  13.382  1.3227 -0.1786 -2.4278
19677TIP3   OH280445   3.494   1.635   1.968  0.1200  0.4957  0.2897
19677TIP3    H180446   3.403   1.611   1.956 -0.0902  1.7754 -0.8958
19677TIP3    H280447   3.533   1.561   2.014 -1.1122 -0.7968 -0.6945
19678TIP3   OH280448   2.759   6.416   5.020 -0.2218 -0.0740  0.2945
19678TIP3    H180449   2.833   6.468   4.989 -0.1304  0.0173  0.6625
19678TIP3    H280450   2.718   6.470   5.088  0.2414 -0.7325  1.1184
19679TIP3   OH280451   1.297   1.010   2.694 -0.1923  0.0667  0.3628
19679TIP3    H180452   1.326   0.989   2.605  0.4206 -1.4993  0.9067
19679TIP3    H280453   1.334   1.097   2.711  0.4850 -0.0282 -0.5625
19680TIP3   OH280454   0.756   0.352   5.553  0.0641 -0.3358 -0.0080
19680TIP3    H180455   0.664   0.329   5.564 -0.0594  0.3997  0.5018
19680TIP3    H280456   0.765   0.371   5.460  0.5710 -4.1269 -0.9258
19681TIP3   OH280457   6.034   5.066   3.473  0.2419 -0.5360 -0.3106
19681TIP3    H180458   5.982   5.006   3.419  0.1912 -0.4003 -0.4114
19681TIP3    H280459   6.021   5.034   3.563 -0.1879 -0.3757 -0.3098
19682TIP3   OH280460   6.206   1.070  12.944  0.2402 -0.3898  0.3517
19682TIP3    H180461   6.247   1.136  12.888 -0.1392 -0.3167  0.1514
19682TIP3    H280462   6.131   1.038  12.893  0.2406 -0.7536  0.5740
19683TIP3   OH280463   2.644   2.929   4.210  0.0302  0.0143 -0.2684
19683TIP3    H180464   2.606   2.841   4.211  1.0772 -0.4474 -0.1510
19683TIP3    H280465   2.645   2.956   4.302  1.7839 -0.7906 -0.0108
19684TIP3   OH280466   5.130   6.035  15.224  0.6662  0.0976  0.2161
19684TIP3    H180467   5.070   6.053  15.297 -0.9215  0.8111 -1.1934
19684TIP3    H280468   5.073   6.028  15.148  2.1874 -1.6202 -0.8275
19685TIP3   OH280469   4.529   2.582   1.787  0.3413 -0.1869 -0.0357
19685TIP3    H180470   4.593   2.516   1.815  1.0324  0.9461  1.1957
19685TIP3    H280471   4.447   2.533   1.778  0.9688 -1.3310  0.2276
19686TIP3   OH280472   5.134   0.824   4.799 -0.2319 -0.6401 -0.3361
19686TIP3    H180473   5.134   0.804   4.706 -0.5428 -0.8611 -0.2913
19686TIP3    H280474   5.222   0.803   4.829 -0.8743 -3.1949 -0.0172
19687TIP3   OH280475   3.673   1.299   3.902  0.1767  0.0043  0.1209
19687TIP3    H180476   3.704   1.211   3.883 -4.2613 -1.7177 -0.4405
19687TIP3    H280477   3.612   1.287   3.976  1.6808  3.2038  2.0943
19688TIP3   OH280478   6.411   6.417   4.907  0.0107  0.4218 -0.4745
19688TIP3    H180479   6.420   6.511   4.919 -0.3101  0.1400  2.9334
19688TIP3    H280480   6.492   6.390   4.864  1.1787  1.9760  0.6336
19689TIP3   OH280481   1.953   2.952   0.787 -0.1308  0.5476  0.1400
19689TIP3    H180482   1.911   2.911   0.862  0.2245 -0.0395  0.0183
19689TIP3    H280483   2.043   2.967   0.815  0.5077 -1.3432 -0.7897
19690TIP3   OH280484   0.336   6.444   2.985 -0.3925  0.7508  0.1146
19690TIP3    H180485   0.291   6.506   3.042  0.5272  0.1484  1.5569
19690TIP3    H280486   0.306   6.358   3.014  1.1763  0.3656  0.6996
19691TIP3   OH280487   7.009   5.747   1.730  0.1485  0.4338 -0.0152
19691TIP3    H180488   6.939   5.782   1.676 -0.0681 -0.2386 -0.1793
19691TIP3    H280489   6.971   5.739   1.817  0.0936  0.3063 -0.0499
19692TIP3   OH280490   3.925   2.129   3.369 -0.1305  0.0377  0.0834
19692TIP3    H180491   3.907   2.214   3.330 -0.2562 -0.3775 -0.7877
19692TIP3    H280492   3.950   2.149   3.459 -2.2589  0.8277  0.5443
19693TIP3   OH280493   3.482   0.387   4.645  0.4276 -0.2381  0.5759
19693TIP3    H180494   3.411   0.345   4.694  1.3978  0.3044  2.5755
19693TIP3    H280495   3.542   0.315   4.625  0.0801 -0.4509  0.2951
19694TIP3   OH280496   2.258   5.743   1.429 -0.4583 -0.1926 -0.1768
19694TIP3    H180497   2.264   5.826   1.477 -0.8224 -0.9332  1.1883
19694TIP3    H280498   2.347   5.726   1.398 -0.2990  0.4861 -0.1094
19695TIP3   OH280499   4.764   5.674   0.611 -0.4600 -0.0364 -0.3554
19695TIP3    H180500   4.725   5.590   0.587 -0.7053 -0.0411  0.0457
19695TIP3    H280501   4.776   5.669   0.706  1.3921 -0.3878 -0.5871
19696TIP3   OH280502   1.460   5.149   1.849 -0.9956  0.4839 -0.1634
19696TIP3    H180503   1.506   5.177   1.928 -1.5624  0.5886  0.1426
19696TIP3    H280504   1.524   5.156   1.779 -0.0548 -0.9927  0.5065
19697TIP3   OH280505   7.176   4.072   3.553  0.3996  0.0216  0.4194
19697TIP3    H180506   7.232   4.149   3.540 -0.4435  0.6898  0.6673
19697TIP3    H280507   7.179   4.027   3.468 -0.5033  1.2971 -0.3425
19698TIP3   OH280508   5.934   6.791   5.239 -0.5115  0.4278 -0.3126
19698TIP3    H180509   5.852   6.744   5.222  0.1087 -0.2472 -1.5581
19698TIP3    H280510   5.958   6.830   5.155  0.5105  0.5272  0.0078
19699TIP3   OH280511   6.665   2.398   5.260  0.0533  0.1830  0.3070
19699TIP3    H180512   6.629   2.346   5.331 -0.4566  0.4333  0.2291
19699TIP3    H280513   6.713   2.334   5.206  2.0329  0.2732  1.8618
19700TIP3   OH280514   2.692   0.729   5.621  0.4105  0.0463 -0.7174
19700TIP3    H180515   2.695   0.673   5.698  0.9204  0.8288 -0.1423
19700TIP3    H280516   2.657   0.812   5.653  2.0419  0.8770 -0.9706
19701TIP3   OH280517   4.036   0.771   3.888  0.6596 -0.5398  0.5956
19701TIP3    H180518   4.024   0.797   3.979  2.2483  0.3797  0.5838
19701TIP3    H280519   3.955   0.725   3.865  0.6901 -1.8070  2.7884
19702TIP3   OH280520   6.292   4.155   3.221  0.1584 -0.0224 -0.0637
19702TIP3    H180521   6.290   4.059   3.220  1.4477 -0.1581  2.4314
19702TIP3    H280522   6.209   4.181   3.260  0.2806 -0.1948  0.3175
19703TIP3   OH280523   2.943   0.862   5.604  0.2184  0.4773  0.3832
19703TIP3    H180524   2.931   0.951   5.637 -1.1318  0.6684 -0.5509
19703TIP3    H280525   2.860   0.818   5.621  0.8706 -0.6137  0.8319
19704TIP3   OH280526   2.851   6.765   4.569  0.0292  0.0913  0.5396
19704TIP3    H180527   2.836   6.672   4.555 -0.0920  0.1174  0.4971
19704TIP3    H280528   2.914   6.790   4.502 -0.3090  0.1484  0.2417
19705TIP3   OH280529   0.432   3.635   0.829  0.1415  0.5803  0.4218
19705TIP3    H180530   0.366   3.694   0.866  1.5555  2.3012  0.3465
19705TIP3    H280531   0.422   3.644   0.735 -1.1845 -1.1585  0.3620
19706TIP3   OH280532   5.825   1.917   1.369 -0.2087  0.5734  0.4535
19706TIP3    H180533   5.899   1.924   1.309  0.8090  1.0866  1.7170
19706TIP3    H280534   5.829   1.826   1.400 -1.3477  0.0042 -0.9724
19707TIP3   OH280535   6.081   5.467   1.774  0.0454 -0.0239  0.2479
19707TIP3    H180536   6.060   5.526   1.702 -0.8258 -2.1343 -1.3311
19707TIP3    H280537   6.010   5.479   1.837  0.3607  1.2380  0.3730
19708TIP3   OH280538   2.007   5.769  10.918 -0.1767  0.7174 -0.2900
19708TIP3    H180539   2.056   5.688  10.926  0.4076  0.8740 -1.9126
19708TIP3    H280540   2.037   5.823  10.991  1.0382  0.2829 -0.4469
19709TIP3   OH280541   3.807   3.318   2.622 -0.1453  0.1357  0.2428
19709TIP3    H180542   3.788   3.364   2.540  1.5875 -0.2688 -0.4357
19709TIP3    H280543   3.739   3.251   2.628  1.3639 -1.8346 -2.5093
19710TIP3   OH280544   4.431   5.746   3.772 -0.1581 -0.2214  0.3611
19710TIP3    H180545   4.466   5.798   3.844 -0.1042  0.1155  0.0975
19710TIP3    H280546   4.430   5.656   3.805  1.0871 -0.2597  0.3248
19711TIP3   OH280547   0.622   5.322   4.113 -0.2711 -0.1621 -0.0400
19711TIP3    H180548   0.718   5.327   4.107 -0.2507 -1.1810 -0.8857
19711TIP3    H280549   0.598   5.258   4.046 -1.7442  1.6756 -1.3590
19712TIP3   OH280550   6.044   7.159   2.301 -0.4170  0.0940  0.0220
19712TIP3    H180551   6.107   7.191   2.366  0.8746 -1.0321 -0.6401
19712TIP3    H280552   6.000   7.086   2.344  0.5249 -0.7309 -0.3862
19713TIP3   OH280553   1.288   6.639  13.669  0.0769  0.7518 -0.7720
19713TIP3    H180554   1.328   6.557  13.639 -1.7369 -1.4775  2.3647
19713TIP3    H280555   1.342   6.666  13.743 -2.6977 -1.1696  2.1785
19714TIP3   OH280556   4.391   5.210   4.583 -0.4584  0.6546 -0.0948
19714TIP3    H180557   4.343   5.198   4.501  1.6768  1.6945 -1.5765
19714TIP3    H280558   4.429   5.124   4.601 -2.3541 -0.0451  0.8201
19715TIP3   OH280559   4.917   0.010  14.539  0.5027  0.1479  0.2075
19715TIP3    H180560   4.876   0.061  14.469 -1.4371 -0.5916  0.7470
19715TIP3    H280561   4.953  -0.067  14.495 -1.4690 -0.7494  0.0688
19716TIP3   OH280562   6.458   1.402   5.588  0.8274  0.0402 -0.2379
19716TIP3    H180563   6.503   1.481   5.617  0.7228  0.2539 -0.6537
19716TIP3    H280564   6.527   1.336   5.581  0.9477  0.1524 -0.0965
19717TIP3   OH280565   2.904   5.675  11.886 -0.9962  0.2147 -0.0792
19717TIP3    H180566   2.959   5.739  11.931 -1.3810 -1.3321  2.8645
19717TIP3    H280567   2.958   5.641  11.816  0.9674  0.4402  1.2508
19718TIP3   OH280568   3.153   0.729   4.080  1.0476  0.3937 -0.3038
19718TIP3    H180569   3.130   0.638   4.099 -1.1092  0.8539 -0.4386
19718TIP3    H280570   3.198   0.760   4.159  3.9944 -1.4091 -1.1502
19719TIP3   OH280571   5.416   0.405   0.202 -0.0761  0.3536 -0.7196
19719TIP3    H180572   5.450   0.493   0.188  0.0468  0.4813  0.3407
19719TIP3    H280573   5.486   0.358   0.247 -0.3264 -0.1533 -0.8413
19720TIP3   OH280574   4.262   6.903   1.355  0.4423 -0.5151 -0.1867
19720TIP3    H180575   4.194   6.846   1.391 -1.1799  1.0388 -0.6569
19720TIP3    H280576   4.332   6.843   1.329 -1.3708 -2.3789 -1.1064
19721TIP3   OH280577   6.683   4.426   3.133 -0.0487 -0.0645 -0.4993
19721TIP3    H180578   6.701   4.517   3.156  1.0102 -0.1880 -0.7859
19721TIP3    H280579   6.770   4.385   3.127 -0.3853 -0.6079 -2.3689
19722TIP3   OH280580   2.637   3.878  15.035  0.6692  0.4060 -0.8010
19722TIP3    H180581   2.550   3.893  15.073  0.2554 -0.3140 -1.4183
19722TIP3    H280582   2.661   3.791  15.065  1.3020  0.7063 -0.4249
19723TIP3   OH280583   4.159   4.662   1.469 -0.0499 -0.1574 -0.0633
19723TIP3    H180584   4.082   4.606   1.459  0.8022 -1.5615  0.9299
19723TIP3    H280585   4.128   4.736   1.521 -0.9501 -0.1894 -0.5220
19724TIP3   OH280586   7.154   6.901   1.303 -0.0108 -0.0360 -0.9372
19724TIP3    H180587   7.126   6.987   1.334  0.8875 -0.0068 -0.1672
19724TIP3    H280588   7.097   6.839   1.349 -0.7236  0.1452 -1.5661
19725TIP3   OH280589   1.932   2.105   2.583 -0.6730 -0.3138  0.5342
19725TIP3    H180590   1.963   2.062   2.504 -3.8080 -1.1858 -0.3842
19725TIP3    H280591   1.955   2.046   2.654  1.8529  0.3053  0.3420
19726TIP3   OH280592   3.947   1.546   2.531  0.1818 -0.1046  0.1162
19726TIP3    H180593   3.987   1.626   2.496 -0.2654  0.7142  1.4125
19726TIP3    H280594   3.889   1.577   2.601  0.1612 -1.5850  0.7788
19727TIP3   OH280595   4.011   2.491   3.648 -0.5062  0.1330  0.1734
19727TIP3    H180596   3.991   2.552   3.719  1.4632  1.7620 -0.5544
19727TIP3    H280597   3.933   2.493   3.593 -0.8629  1.2810  0.6708
19728TIP3   OH280598   3.166   5.478   0.553  0.3353  0.2343 -0.0050
19728TIP3    H180599   3.160   5.569   0.523 -1.2470  0.7383  1.6581
19728TIP3    H280600   3.202   5.431   0.479 -0.1695  1.9775 -1.4374
19729TIP3   OH280601   6.759   4.658   4.316 -0.1691  0.5836 -0.3123
19729TIP3    H180602   6.755   4.741   4.269  0.6595 -0.0031 -1.4609
19729TIP3    H280603   6.849   4.654   4.351 -0.1913  0.1522 -0.2961
19730TIP3   OH280604   4.075   0.589   4.746  0.2070  0.8018  0.3217
19730TIP3    H180605   4.156   0.538   4.743  0.6404  1.2894  2.4996
19730TIP3    H280606   4.005   0.524   4.739  0.7738  0.1948  0.2398
19731TIP3   OH280607   1.547   4.433   5.143  0.2178  0.2291  0.3106
19731TIP3    H180608   1.510   4.500   5.086  0.9841  0.0884 -0.3557
19731TIP3    H280609   1.544   4.473   5.230  0.1904  0.9256  0.0013
19732TIP3   OH280610   1.628   5.950   4.379 -0.2928 -0.2619  0.1293
19732TIP3    H180611   1.583   5.875   4.418  0.3194 -1.2901 -1.0664
19732TIP3    H280612   1.633   5.929   4.286  2.2442  0.0138  0.1433
19733TIP3   OH280613   6.438   4.892   3.330  0.4457  0.6204 -0.0726
19733TIP3    H180614   6.347   4.877   3.353  0.4044 -0.8451 -1.0491
19733TIP3    H280615   6.444   4.987   3.314 -1.1138  0.6154 -0.8211
19734TIP3   OH280616   4.228   3.503   4.012  0.3786 -0.2162  0.5554
19734TIP3    H180617   4.162   3.531   3.948  1.3728  0.2580 -0.3059
19734TIP3    H280618   4.178   3.484   4.092 -1.0374 -1.9411 -0.6696
19735TIP3   OH280619   6.094   4.878   3.052 -0.2111 -0.2321  0.4058
19735TIP3    H180620   6.093   4.782   3.041  1.2195 -0.3473  1.0556
19735TIP3    H280621   6.187   4.900   3.060 -0.5493  1.1660  0.7027
19736TIP3   OH280622   1.352   2.684   4.086 -0.5161  0.0972 -0.9508
19736TIP3    H180623   1.287   2.698   4.017  0.4216 -0.6439 -2.0366
19736TIP3    H280624   1.308   2.626   4.149 -1.2787  0.5157 -1.0920
19737TIP3   OH280625   6.266   3.930   1.531 -0.4922 -0.3658  0.4703
19737TIP3    H180626   6.192   3.948   1.590  1.0903  0.5711  2.2673
19737TIP3    H280627   6.276   4.011   1.481 -0.6508 -0.4900  0.2329
19738TIP3   OH280628   6.490   3.342   1.389 -0.4668 -0.5650  0.0340
19738TIP3    H180629   6.502   3.402   1.462 -0.2244  0.4861 -0.8356
19738TIP3    H280630   6.455   3.397   1.318 -0.7123 -1.5524 -0.6303
19739TIP3   OH280631   2.766   4.166   4.626  0.1303  0.0890  0.1968
19739TIP3    H180632   2.726   4.221   4.694  0.2336  0.3252  0.0701
19739TIP3    H280633   2.692   4.140   4.571 -0.1606 -1.2506  1.1841
19740TIP3   OH280634   3.653   4.797  15.274 -0.1098 -0.4626 -0.1645
19740TIP3    H180635   3.599   4.749  15.210 -0.6638  0.6195 -0.5229
19740TIP3    H280636   3.742   4.792  15.238 -0.1559 -1.2330 -0.1895
19741TIP3   OH280637   0.947   5.033   4.186 -0.0355  0.2568 -0.1465
19741TIP3    H180638   0.977   4.942   4.188 -1.5611 -0.2645  0.0943
19741TIP3    H280639   0.982   5.071   4.266 -0.0230 -0.3336  0.1336
19742TIP3   OH280640   1.451   2.467  13.251  0.2679 -0.0605 -0.3681
19742TIP3    H180641   1.420   2.487  13.162 -0.5219  0.6748  0.0638
19742TIP3    H280642   1.396   2.393  13.279  0.4061 -0.1860 -0.4255
19743TIP3   OH280643   0.071   4.247   4.569  0.3045 -0.5215 -0.8238
19743TIP3    H180644   0.004   4.219   4.631 -0.6337  0.5327 -1.3294
19743TIP3    H280645   0.145   4.274   4.623 -0.4458  0.2360 -0.1670
19744TIP3   OH280646   2.342   7.175   3.183  0.1727  0.0741 -0.6302
19744TIP3    H180647   2.362   7.245   3.245  2.2524 -0.3004 -0.7974
19744TIP3    H280648   2.387   7.099   3.218  1.5143 -0.1194 -2.6102
19745TIP3   OH280649   5.021   0.375   2.153  0.0876 -0.0835 -0.5685
19745TIP3    H180650   5.058   0.432   2.219  0.9070 -1.9676  0.7023
19745TIP3    H280651   5.053   0.409   2.070 -0.6507  2.1104 -0.0056
19746TIP3   OH280652   6.103   2.090   1.557 -0.0674 -0.2827  0.3831
19746TIP3    H180653   6.088   2.179   1.527  0.4703 -0.8791 -1.8168
19746TIP3    H280654   6.151   2.048   1.486 -0.5471 -2.4111  1.2302
19747TIP3   OH280655   2.404   6.165  15.210  0.2531 -0.5173 -0.1006
19747TIP3    H180656   2.333   6.176  15.147  0.6058 -1.2893 -0.6421
19747TIP3    H280657   2.475   6.219  15.175 -0.1978  0.6301  0.6836
19748TIP3   OH280658   0.237   6.846   4.094 -0.2851 -0.1410  0.2231
19748TIP3    H180659   0.306   6.906   4.064 -0.5160  0.2829  0.5417
19748TIP3    H280660   0.267   6.759   4.065 -0.0784  0.1542 -0.4694
19749TIP3   OH280661   4.916   0.149   2.650 -0.3209 -0.1493 -0.6508
19749TIP3    H180662   4.957   0.134   2.735 -0.6733  1.1491 -0.2188
19749TIP3    H280663   4.970   0.101   2.588 -0.3876 -1.6086  0.3683
19750TIP3   OH280664   6.361   1.589   0.389 -0.1396 -0.2620 -0.7968
19750TIP3    H180665   6.427   1.520   0.381  0.0913  0.0280 -1.4814
19750TIP3    H280666   6.306   1.579   0.312  0.0757  0.4943 -1.0615
19751TIP3   OH280667   6.842   1.529   3.309 -0.0456 -0.6806 -0.1892
19751TIP3    H180668   6.850   1.610   3.258  1.3979 -0.0119  1.0207
19751TIP3    H280669   6.762   1.541   3.360  1.0638  0.8255  1.3047
19752TIP3   OH280670   0.500   3.737   5.382  0.1856 -0.2480 -0.0708
19752TIP3    H180671   0.584   3.756   5.342  0.2828  1.0893  0.7160
19752TIP3    H280672   0.469   3.658   5.338  2.4540 -1.5502  0.5432
19753TIP3   OH280673   0.647   2.583   3.501  0.2203  0.1360 -0.7258
19753TIP3    H180674   0.739   2.585   3.477  0.2225  1.2510 -0.6698
19753TIP3    H280675   0.600   2.612   3.423  0.0307  1.0709 -0.2706
19754TIP3   OH280676   2.888   0.918   1.257 -1.2354  0.2169 -0.1246
19754TIP3    H180677   2.949   0.895   1.186 -1.4669  0.9095 -0.5624
19754TIP3    H280678   2.804   0.881   1.230 -1.5224  1.2051 -0.6492
19755TIP3   OH280679   2.426   4.433   4.412  0.3266 -0.3966  0.3604
19755TIP3    H180680   2.378   4.475   4.341  1.0143  0.5969  0.4623
19755TIP3    H280681   2.493   4.380   4.368 -0.5369 -1.4294  0.2328
19756TIP3   OH280682   5.329   6.195   5.891 -0.4781  0.0531 -0.1493
19756TIP3    H180683   5.239   6.204   5.858 -0.4188  0.9023 -0.1049
19756TIP3    H280684   5.321   6.134   5.964 -1.1610  0.7349  0.3660
19757TIP3   OH280685   6.573   4.075   4.616 -0.1781  0.2666 -0.4718
19757TIP3    H180686   6.503   4.096   4.679 -0.3769 -0.9212 -0.2552
19757TIP3    H280687   6.538   4.001   4.567  1.5647 -1.5336  0.8255
19758TIP3   OH280688   1.100   3.464   2.643  0.2689 -0.5891 -0.3923
19758TIP3    H180689   1.135   3.375   2.640 -0.2614 -0.7923 -0.7004
19758TIP3    H280690   1.033   3.466   2.574  0.5009  0.1424 -0.6094
19759TIP3   OH280691   1.074   5.966  14.560 -0.1808  0.5507  0.2673
19759TIP3    H180692   1.003   6.031  14.557 -0.7294  0.0694  1.8444
19759TIP3    H280693   1.143   6.009  14.611 -0.5925 -0.1003  1.4222
19760TIP3   OH280694   3.491   5.233  13.262 -1.1556 -0.0958  0.4189
19760TIP3    H180695   3.535   5.317  13.248 -0.1575 -0.5755  0.5835
19760TIP3    H280696   3.548   5.168  13.219  0.0173 -1.1413  3.2924
19761TIP3   OH280697   3.753   5.346   5.248  0.1842  0.6942  0.1240
19761TIP3    H180698   3.749   5.320   5.340  0.4771 -1.7521 -0.4845
19761TIP3    H280699   3.845   5.365   5.232  0.1952  0.7509  0.2587
19762TIP3   OH280700   4.129   2.997   0.103  0.2146 -0.8073 -0.5666
19762TIP3    H180701   4.155   3.055   0.031 -0.1877 -1.2377 -1.0684
19762TIP3    H280702   4.199   2.932   0.108  0.8492 -0.0711  0.2389
19763TIP3   OH280703   6.577   4.736   1.467 -0.8819  0.0555 -0.5818
19763TIP3    H180704   6.582   4.742   1.372 -2.0013 -1.2708 -0.7591
19763TIP3    H280705   6.603   4.645   1.487  1.2733  0.8367  0.5791
19764TIP3   OH280706   1.701   1.879   2.757 -0.2629  0.1773 -0.4625
19764TIP3    H180707   1.788   1.853   2.728 -0.4682  0.0784 -1.0047
19764TIP3    H280708   1.643   1.811   2.722 -0.4370 -0.3428  0.7969
19765TIP3   OH280709   2.316   4.581   3.554 -0.1539 -0.0488  0.2486
19765TIP3    H180710   2.321   4.676   3.565  0.0890 -0.1209  0.7793
19765TIP3    H280711   2.386   4.560   3.492 -0.7794  0.2197 -0.5652
19766TIP3   OH280712   4.371   5.055   0.237  0.3080 -0.1548  0.2229
19766TIP3    H180713   4.373   5.148   0.259  1.3390 -0.4021  1.3338
19766TIP3    H280714   4.438   5.045   0.170 -1.6168  0.3021 -1.8788
19767TIP3   OH280715   3.243   7.160   2.867 -0.3941 -0.0962 -0.0797
19767TIP3    H180716   3.296   7.198   2.937 -0.1189  1.5096 -1.1110
19767TIP3    H280717   3.305   7.142   2.796 -0.9256 -0.0416 -0.5717
19768TIP3   OH280718   2.259   4.257   4.529  0.1821  0.5281 -0.0520
19768TIP3    H180719   2.189   4.295   4.582  2.5544  2.3162  2.0730
19768TIP3    H280720   2.299   4.332   4.484  1.6685 -0.1691  0.0216
19769TIP3   OH280721   6.917   0.590   4.683 -0.3288 -0.0252 -0.0202
19769TIP3    H180722   6.842   0.551   4.638  0.8064 -0.7289 -1.3513
19769TIP3    H280723   6.954   0.519   4.735 -0.1914  0.1471  0.1182
19770TIP3   OH280724   2.432   0.542   0.654  0.1443 -0.1870  0.2805
19770TIP3    H180725   2.395   0.469   0.704  0.9459 -2.1982 -1.8920
19770TIP3    H280726   2.473   0.501   0.578  3.0924  2.2463  0.3302
19771TIP3   OH280727   0.235   3.629   5.569 -0.3463 -0.4781  0.0064
19771TIP3    H180728   0.308   3.571   5.546  0.7661  0.8426  0.0328
19771TIP3    H280729   0.255   3.711   5.522 -0.2483  0.8954  2.2905
19772TIP3   OH280730   5.930   1.518   4.968 -0.0507 -0.0933 -0.5234
19772TIP3    H180731   5.867   1.472   5.024  0.8769 -1.1671 -0.3038
19772TIP3    H280732   5.877   1.578   4.916 -1.1003 -0.0585  0.5345
19773TIP3   OH280733   5.608   1.403   0.370 -0.0801  0.7977  0.3485
19773TIP3    H180734   5.624   1.326   0.315  2.4058  1.8708 -0.5586
19773TIP3    H280735   5.691   1.417   0.416 -0.3910  3.0816  0.3087
19774TIP3   OH280736   2.627   4.986   4.047  0.2018 -0.0952  0.1055
19774TIP3    H180737   2.706   5.039   4.046 -0.8804  1.5793  0.0986
19774TIP3    H280738   2.656   4.901   4.083  1.8286  0.7163  0.8400
19775TIP3   OH280739   4.149   5.439   4.762 -0.2042  0.3768  0.1959
19775TIP3    H180740   4.075   5.480   4.807 -0.1168  0.3432  0.3694
19775TIP3    H280741   4.116   5.422   4.673 -0.3407  0.5414  0.2134
19776TIP3   OH280742   6.866   1.511   3.896  0.5866 -0.1390 -0.0163
19776TIP3    H180743   6.881   1.513   3.801  0.9889 -0.1037  0.0474
19776TIP3    H280744   6.777   1.477   3.905  0.8525 -0.9573 -0.3814
19777TIP3   OH280745   1.563   2.052   5.623 -0.7330 -0.0284 -0.2391
19777TIP3    H180746   1.620   2.110   5.674  0.2342 -0.6655 -0.5750
19777TIP3    H280747   1.497   2.022   5.685 -0.2762  0.1447  0.3343
19778TIP3   OH280748   5.238   4.255  14.852  0.1356  0.0960  0.0424
19778TIP3    H180749   5.251   4.174  14.901 -1.7325 -0.5711 -0.4502
19778TIP3    H280750   5.196   4.227  14.770  2.4250  1.2577 -1.6335
19779TIP3   OH280751   4.692   0.477   5.968 -0.2968 -0.6866  0.2777
19779TIP3    H180752   4.654   0.432   5.892  1.1122 -0.1918 -0.7567
19779TIP3    H280753   4.769   0.426   5.991 -0.7860 -0.9141  1.5041
19780TIP3   OH280754   0.136   1.267   5.188  0.3683  0.2806 -0.0742
19780TIP3    H180755   0.200   1.326   5.227 -1.2619  1.7228  0.5581
19780TIP3    H280756   0.088   1.231   5.263  0.1996 -0.5209 -0.5496
19781TIP3   OH280757   4.432   0.152   5.169  0.2548 -0.1535  0.2963
19781TIP3    H180758   4.516   0.160   5.125  0.9512  2.0581  1.8835
19781TIP3    H280759   4.454   0.148   5.262 -1.3002 -2.0447  0.6505
19782TIP3   OH280760   5.476   6.408   4.177  0.1282 -0.1112 -0.3589
19782TIP3    H180761   5.428   6.444   4.102  1.6631  0.7199 -0.9909
19782TIP3    H280762   5.448   6.462   4.251 -0.3127  0.0045 -0.6060
19783TIP3   OH280763   4.811   7.079   4.391  0.0255  0.0126 -0.2500
19783TIP3    H180764   4.790   7.131   4.313 -1.9990 -1.1672 -0.5632
19783TIP3    H280765   4.755   7.115   4.460  1.3874  0.6752  0.5615
19784TIP3   OH280766   6.411   1.619   3.684 -0.7342  0.6343 -0.1290
19784TIP3    H180767   6.406   1.694   3.743 -0.9592  0.2415  0.3488
19784TIP3    H280768   6.344   1.636   3.618 -0.7022  0.9119 -0.0906
19785TIP3   OH280769   3.100   4.547   2.106  0.0224  0.6709  0.3234
19785TIP3    H180770   3.113   4.540   2.011  0.4105 -1.6411  0.4801
19785TIP3    H280771   3.017   4.593   2.115  0.7612  2.4175 -1.0688
19786TIP3   OH280772   6.423   6.935   2.924 -0.3432  0.0870 -0.0622
19786TIP3    H180773   6.495   6.875   2.904  0.7614  1.5247 -0.6392
19786TIP3    H280774   6.431   7.005   2.858 -1.3649  1.0389  0.7727
19787TIP3   OH280775   2.008   4.481   4.559 -0.0362  0.1098  0.9363
19787TIP3    H180776   1.938   4.546   4.548  1.6568  2.1775  1.5693
19787TIP3    H280777   2.011   4.434   4.476 -1.6757  0.4766  0.6456
19788TIP3   OH280778   7.188   5.976   2.925 -0.0054  0.3786 -0.3851
19788TIP3    H180779   7.206   6.045   2.860 -0.2210  0.5735 -0.2380
19788TIP3    H280780   7.094   5.959   2.917  0.2818 -0.9161 -1.4307
19789TIP3   OH280781   6.072   6.019   3.471  0.4833  0.5045  0.1849
19789TIP3    H180782   6.006   6.061   3.525 -1.1189  2.8195 -3.1825
19789TIP3    H280783   6.028   5.944   3.432  0.8705  0.1944  0.3372
19790TIP3   OH280784   5.546   4.010   3.890  0.0545  0.4812  0.1735
19790TIP3    H180785   5.455   3.981   3.896  0.0451  0.0869 -1.4436
19790TIP3    H280786   5.589   3.945   3.834  1.2149  0.9581  0.4643
19791TIP3   OH280787   5.012   1.169   4.582  0.1886 -0.6879 -0.4007
19791TIP3    H180788   5.088   1.133   4.627 -0.5397  1.3866  2.7700
19791TIP3    H280789   5.049   1.215   4.506  2.1788  0.4574  1.1610
19792TIP3   OH280790   6.036   3.465  15.097 -0.1189 -0.1927 -0.1658
19792TIP3    H180791   6.053   3.538  15.038 -2.3822  0.0469 -0.6103
19792TIP3    H280792   6.001   3.396  15.039 -1.1094 -0.4364  0.7119
19793TIP3   OH280793   4.223   1.990   3.678  0.1287 -0.2192  1.1176
19793TIP3    H180794   4.176   2.073   3.672  0.4001 -0.1493 -0.6146
19793TIP3    H280795   4.281   2.001   3.754  0.4675  1.3644  0.6770
19794TIP3   OH280796   0.531   5.306   4.804  0.3654 -0.0328 -0.3392
19794TIP3    H180797   0.503   5.222   4.769  0.4699  0.3752 -1.4288
19794TIP3    H280798   0.452   5.345   4.840  0.6465 -1.4186  2.0119
19795TIP3   OH280799   1.126   4.287   3.309  0.5228  0.5193 -0.3085
19795TIP3    H180800   1.170   4.351   3.253 -0.0540  1.2403  0.0494
19795TIP3    H280801   1.119   4.208   3.255  0.3976  1.0541 -1.0856
19796TIP3   OH280802   1.563   1.612   4.225  0.1914  0.6654  0.1905
19796TIP3    H180803   1.524   1.678   4.167  2.7248  2.4901  0.3658
19796TIP3    H280804   1.625   1.565   4.169  0.6243  0.5321  0.7699
19797TIP3   OH280805   1.752   2.440   4.644  0.5840  0.1873 -0.6226
19797TIP3    H180806   1.790   2.401   4.566  0.8937 -0.9948  0.0834
19797TIP3    H280807   1.685   2.377   4.672  2.0989 -0.6815  1.3712
19798TIP3   OH280808   5.639   3.165   2.155 -0.6877 -0.4733  0.6958
19798TIP3    H180809   5.690   3.090   2.187 -0.5872 -0.8264 -0.2611
19798TIP3    H280810   5.588   3.130   2.082 -0.3748  0.4728  0.0036
19799TIP3   OH280811   2.376   0.435   4.998 -0.0876  0.9417  0.2190
19799TIP3    H180812   2.404   0.351   5.035 -0.5235  0.5063 -0.4220
19799TIP3    H280813   2.457   0.485   4.987  0.4294 -0.1722 -1.3137
19800TIP3   OH280814   5.475   1.971  15.183  0.0172  0.5324 -0.0203
19800TIP3    H180815   5.563   1.970  15.144  0.6456 -0.9983  1.3284
19800TIP3    H280816   5.418   1.940  15.113  0.8553 -0.3706 -0.3291
19801TIP3   OH280817   6.624   0.337   0.555 -0.5454 -0.1930 -0.3904
19801TIP3    H180818   6.646   0.404   0.490  0.2562  0.9145  0.9445
19801TIP3    H280819   6.623   0.255   0.506  0.6975  0.5081 -1.6782
19802TIP3   OH280820   6.447   1.605   3.233  0.4257  0.2124 -0.5628
19802TIP3    H180821   6.442   1.610   3.329 -0.9356  0.1776 -0.6257
19802TIP3    H280822   6.391   1.675   3.202  0.0167 -0.4455 -1.3443
19803TIP3   OH280823   5.710   7.040  12.930  0.2478  0.4731 -0.0295
19803TIP3    H180824   5.754   6.983  12.993  1.1188  0.0261 -1.0010
19803TIP3    H280825   5.749   7.126  12.945 -0.0983  0.5363  0.5405
19804TIP3   OH280826   3.569   5.246  14.974 -0.1136 -0.4018  0.4010
19804TIP3    H180827   3.561   5.188  14.899  0.7064 -0.7305  0.5599
19804TIP3    H280828   3.482   5.245  15.015 -0.2537 -1.0758  0.0862
19805TIP3   OH280829   3.244   2.219   3.041 -0.1015  0.8330  0.2389
19805TIP3    H180830   3.164   2.221   2.988  0.7518  1.2382 -1.0725
19805TIP3    H280831   3.223   2.273   3.117 -1.2699  0.4560  0.2043
19806TIP3   OH280832   5.664   1.671   5.544  0.0499 -0.3638 -0.0521
19806TIP3    H180833   5.620   1.590   5.521 -0.3300 -0.0575 -0.4212
19806TIP3    H280834   5.609   1.740   5.506 -0.2755  0.1250  1.2546
19807TIP3   OH280835   4.786   4.818   4.753 -0.1930 -0.5305 -0.1050
19807TIP3    H180836   4.801   4.759   4.827 -0.1561 -0.3935 -0.0026
19807TIP3    H280837   4.726   4.769   4.696 -1.0338 -0.2374  0.4993
19808TIP3   OH280838   3.086   6.781   3.725 -0.2011 -0.2947  0.0533
19808TIP3    H180839   3.021   6.784   3.796 -1.8332  1.4920 -1.3936
19808TIP3    H280840   3.084   6.868   3.687  2.1074 -0.6106 -0.9645
19809TIP3   OH280841   7.097   5.911   4.883 -0.4315 -0.2761  0.8064
19809TIP3    H180842   7.183   5.878   4.857 -1.1984 -0.4906 -1.6777
19809TIP3    H280843   7.049   5.834   4.913 -0.1438 -0.3386  1.1118
19810TIP3   OH280844   7.119   1.780   5.864 -0.2298  0.5869 -0.1784
19810TIP3    H180845   7.164   1.811   5.786  1.1273 -0.2678  0.2215
19810TIP3    H280846   7.167   1.702   5.890 -2.2449 -0.6400  0.0538
19811TIP3   OH280847   2.018   6.312   3.475  0.3434  0.2043  0.0764
19811TIP3    H180848   2.011   6.402   3.508  0.5610 -0.0414  0.8140
19811TIP3    H280849   1.928   6.289   3.451 -0.1320 -0.1642  2.0285
19812TIP3   OH280850   4.523   4.227   5.449 -0.1455  0.2599  0.0860
19812TIP3    H180851   4.445   4.175   5.469 -0.6157  0.5679 -0.9068
19812TIP3    H280852   4.498   4.317   5.470 -1.3735  0.9229 -3.6058
19813TIP3   OH280853   5.305   1.671  14.674 -0.0741  0.1607 -0.3214
19813TIP3    H180854   5.342   1.582  14.674 -0.5635 -0.0613  1.0673
19813TIP3    H280855   5.211   1.658  14.686 -0.2148  0.8554 -0.6148
19814TIP3   OH280856   5.140   2.058   1.020  0.1010 -0.0085  0.0992
19814TIP3    H180857   5.178   2.062   0.933 -1.2355  0.7275 -0.4936
19814TIP3    H280858   5.096   2.142   1.031 -0.2109 -0.3000  1.2580
19815TIP3   OH280859   6.656   1.858   5.162  0.2185 -0.1072  0.1348
19815TIP3    H180860   6.708   1.860   5.081  1.0554 -2.7624  0.4946
19815TIP3    H280861   6.569   1.885   5.135  0.0147 -2.4925 -2.1307
19816TIP3   OH280862   0.960   5.991   5.586  0.8237 -0.6963  0.7237
19816TIP3    H180863   0.940   6.084   5.599  0.2338 -0.7599  0.2918
19816TIP3    H280864   1.051   5.991   5.554  0.1599 -0.0975 -1.3308
19817TIP3   OH280865   5.623   4.662   5.253  0.1686 -0.3915 -0.0105
19817TIP3    H180866   5.563   4.715   5.304 -1.1097 -0.9982 -0.8221
19817TIP3    H280867   5.586   4.662   5.164  0.9673 -1.3659 -0.3682
19818TIP3   OH280868   3.159   0.165   3.844  0.4739  0.0896 -0.0011
19818TIP3    H180869   3.249   0.197   3.856  0.5468 -0.3289  0.5915
19818TIP3    H280870   3.151   0.151   3.750  0.4698  1.7681 -0.2800
19819TIP3   OH280871   6.853   5.705   3.391 -0.3603  0.0771 -0.3244
19819TIP3    H180872   6.781   5.644   3.405 -0.7657  0.9649  1.8407
19819TIP3    H280873   6.828   5.756   3.314 -1.6069 -0.2097 -0.1209
19820TIP3   OH280874   6.469   3.533   2.775 -0.0903  0.0555  0.3389
19820TIP3    H180875   6.556   3.563   2.801 -0.0922 -1.7360  2.7308
19820TIP3    H280876   6.485   3.460   2.716 -0.0767  1.6926 -1.8151
19821TIP3   OH280877   3.577   5.509   4.049 -0.1693 -0.1703 -0.8469
19821TIP3    H180878   3.527   5.586   4.075 -0.7223 -0.4973 -0.9417
19821TIP3    H280879   3.582   5.515   3.953  1.2463  0.6462 -0.7562
19822TIP3   OH280880   0.636   1.827   3.116  0.3950 -0.0699 -0.1082
19822TIP3    H180881   0.546   1.847   3.089  0.0342 -0.4606  0.7695
19822TIP3    H280882   0.685   1.907   3.098 -1.1593  2.1094  3.9657
19823TIP3   OH280883   1.758   4.059   2.651 -0.1985 -0.0332 -0.6517
19823TIP3    H180884   1.731   4.074   2.742 -1.2686  1.4589 -1.1797
19823TIP3    H280885   1.852   4.079   2.650 -0.4700  1.3910 -0.1562
19824TIP3   OH280886   4.259   2.529   3.724  0.1105  0.9153 -0.2167
19824TIP3    H180887   4.302   2.530   3.638 -0.4446 -1.6008 -0.6126
19824TIP3    H280888   4.166   2.516   3.704  0.1466 -1.2816  0.7118
19825TIP3   OH280889   0.299   1.707  13.485  0.0234 -0.1187  0.4366
19825TIP3    H180890   0.226   1.646  13.482 -0.1425  0.1098 -0.4346
19825TIP3    H280891   0.269   1.783  13.435  0.6528  0.2086  0.5403
19826TIP3   OH280892   3.916   3.554   2.086  0.3522  0.2502 -0.3077
19826TIP3    H180893   3.927   3.555   2.181  0.1328 -1.6636 -0.2302
19826TIP3    H280894   3.997   3.514   2.053  0.1548  0.3145 -0.8844
19827TIP3   OH280895   0.206   1.430   4.484 -0.3369  0.0259  0.4109
19827TIP3    H180896   0.232   1.416   4.393 -0.8787  1.1235  0.0683
19827TIP3    H280897   0.269   1.494   4.518 -0.6460  0.2693  0.5393
19828TIP3   OH280898   0.004   3.730   1.635 -0.4274 -0.1567  0.1826
19828TIP3    H180899  -0.011   3.663   1.568 -0.4858  1.1251 -1.1529
19828TIP3    H280900   0.099   3.744   1.634 -0.4817  0.2102  0.0061
19829TIP3   OH280901   5.207   3.222   4.800 -0.1579 -0.3204 -0.2182
19829TIP3    H180902   5.136   3.278   4.768 -0.4851 -0.1644  0.7619
19829TIP3    H280903   5.177   3.191   4.885  0.1252 -1.8042 -0.6284
19830TIP3   OH280904   3.745   1.716   2.589  0.4288 -0.1185 -0.3377
19830TIP3    H180905   3.777   1.802   2.560  1.1524 -0.2543  0.0648
19830TIP3    H280906   3.660   1.735   2.629  1.2892  0.6475  1.2036
19831TIP3   OH280907   1.790   5.558   4.740 -0.1339  0.3048 -0.1950
19831TIP3    H180908   1.793   5.652   4.725 -2.6204  0.0114 -3.4553
19831TIP3    H280909   1.858   5.522   4.683  0.0710  0.0315  0.2142
19832TIP3   OH280910   6.044   2.452   5.098 -0.2716  0.3257  0.6008
19832TIP3    H180911   6.064   2.358   5.105  1.2524  0.4822 -0.9161
19832TIP3    H280912   6.068   2.488   5.183  0.4353 -0.4731  0.7576
19833TIP3   OH280913   4.257   2.635   2.258  0.5394 -0.0613 -0.1134
19833TIP3    H180914   4.293   2.578   2.326  1.0228 -1.6466 -1.6546
19833TIP3    H280915   4.162   2.621   2.263  0.7709 -3.6249 -2.5608
19834TIP3   OH280916   6.364   0.436   3.730 -0.1098 -0.4074  0.4168
19834TIP3    H180917   6.317   0.437   3.813  0.0967 -1.7765  0.5814
19834TIP3    H280918   6.379   0.528   3.709 -1.7673  0.0298  0.9777
19835TIP3   OH280919   3.372   6.819   2.542  1.3938 -0.3483  0.6309
19835TIP3    H180920   3.346   6.727   2.528 -3.7767  0.9257 -0.4304
19835TIP3    H280921   3.351   6.836   2.634  1.5468 -0.0393  0.6099
19836TIP3   OH280922   1.594   6.085   1.345  0.1344  0.1135  0.2512
19836TIP3    H180923   1.556   6.000   1.323 -0.1631  0.1632  0.5620
19836TIP3    H280924   1.616   6.078   1.438 -0.7688  0.6871  0.5310
19837TIP3   OH280925   7.077   6.813   4.651  0.3957  0.1819  0.0588
19837TIP3    H180926   7.081   6.897   4.605 -0.6247  1.5089  2.2323
19837TIP3    H280927   7.045   6.751   4.585 -0.6588  1.8949 -1.1347
19838TIP3   OH280928   3.474   7.075   1.288  0.5759  0.1456 -0.0143
19838TIP3    H180929   3.402   7.084   1.350  0.8669  0.4294  0.2845
19838TIP3    H280930   3.524   7.000   1.320  0.9543  0.5400  0.3295
19839TIP3   OH280931   0.267   5.694   5.734  0.3510 -0.6448 -0.3096
19839TIP3    H180932   0.253   5.703   5.829  0.0047 -1.5900 -0.2555
19839TIP3    H280933   0.278   5.784   5.703 -1.0566 -0.1991  0.3991
19840TIP3   OH280934   0.993   4.216   5.818  0.0794  0.3890  0.2575
19840TIP3    H180935   0.937   4.142   5.795  0.4436  0.2172 -0.0833
19840TIP3    H280936   0.964   4.287   5.761  0.6605  0.1014 -0.4145
19841TIP3   OH280937   0.390   4.977   3.382  0.6384  0.2483 -0.2826
19841TIP3    H180938   0.371   4.939   3.296  1.2079  2.2062 -1.3569
19841TIP3    H280939   0.429   4.906   3.432  0.1586 -0.9889 -1.5922
19842TIP3   OH280940   1.690   3.471   3.846 -0.4630  0.0241  0.2460
19842TIP3    H180941   1.713   3.399   3.904  0.4951 -0.4035 -0.6255
19842TIP3    H280942   1.774   3.511   3.823 -0.9149  0.8991  0.0507
19843TIP3   OH280943   2.672   5.703   3.531  0.4388  0.2150 -0.0303
19843TIP3    H180944   2.587   5.660   3.535  1.0913 -1.1059  0.1117
19843TIP3    H280945   2.710   5.691   3.618  2.0516 -2.0059 -0.9372
19844TIP3   OH280946   2.307   5.425   3.696  0.4021 -0.3778  0.2261
19844TIP3    H180947   2.229   5.368   3.693  0.8935 -1.1077  0.9629
19844TIP3    H280948   2.364   5.390   3.627  0.1611  0.0510 -0.1985
19845TIP3   OH280949   0.444   4.135   3.056  0.2804  0.0653  0.0744
19845TIP3    H180950   0.420   4.075   2.986  0.7017  0.5732 -0.5102
19845TIP3    H280951   0.400   4.100   3.133 -1.0144  0.0618 -0.6382
19846TIP3   OH280952   1.276   5.763   4.626  0.5894  0.0868 -0.1667
19846TIP3    H180953   1.300   5.774   4.534 -0.5899  0.7399 -0.4177
19846TIP3    H280954   1.300   5.672   4.646  1.4299  0.1255 -0.9349
19847TIP3   OH280955   2.755   3.775   4.272 -0.1101  0.2904  0.1883
19847TIP3    H180956   2.694   3.702   4.265 -0.1311  0.3164  0.1045
19847TIP3    H280957   2.838   3.741   4.240  0.4923 -0.4222  2.3103
19848TIP3   OH280958   3.773   2.222   2.397  0.3014  0.5889  0.6818
19848TIP3    H180959   3.831   2.266   2.460  2.4521 -3.6275  2.0542
19848TIP3    H280960   3.822   2.224   2.315 -0.1502  1.6849  0.4276
19849TIP3   OH280961   0.042   1.308   4.676  0.2117  0.3765  0.5049
19849TIP3    H180962   0.094   1.350   4.608 -1.7666  1.2144 -0.5891
19849TIP3    H280963   0.053   1.365   4.753  1.7429 -0.0762  0.6387
19850TIP3   OH280964   1.964   6.561   0.733 -0.5285 -1.0422  0.2152
19850TIP3    H180965   1.891   6.528   0.680  0.2777 -0.5642 -1.2328
19850TIP3    H280966   1.934   6.550   0.823 -1.2150 -3.6312 -0.2295
19851TIP3   OH280967   5.314   4.629   4.854 -0.4648  0.2393  0.4956
19851TIP3    H180968   5.285   4.539   4.868 -2.1163  0.6596 -0.1012
19851TIP3    H280969   5.244   4.670   4.804 -0.8963  2.5218  2.7422
19852TIP3   OH280970   5.595   6.200   4.986 -0.8451  0.2315 -0.1616
19852TIP3    H180971   5.615   6.107   4.997  2.7826  1.0095  0.9026
19852TIP3    H280972   5.611   6.218   4.893 -0.7521 -0.0108 -0.1917
19853TIP3   OH280973   0.677   6.387   2.616  0.2311 -0.0963 -0.5178
19853TIP3    H180974   0.681   6.480   2.638  1.8674 -0.7327  2.3150
19853TIP3    H280975   0.583   6.366   2.621  0.0736  0.8539  1.5509
19854TIP3   OH280976   0.795   0.682   2.913  0.1718 -0.1755 -0.0813
19854TIP3    H180977   0.819   0.607   2.859 -1.9165 -0.4580 -0.7263
19854TIP3    H280978   0.699   0.683   2.910  0.1061  1.5510  1.2565
19855TIP3   OH280979   2.890   0.733   5.209  0.3781 -0.2605 -0.0067
19855TIP3    H180980   2.973   0.768   5.239  2.4127 -3.4011 -1.4856
19855TIP3    H280981   2.859   0.798   5.145  1.3668  1.2251  0.9549
19856TIP3   OH280982   0.143   7.201   3.843 -0.1102  0.5314  0.6682
19856TIP3    H180983   0.055   7.220   3.813 -0.2215  0.4658  0.9503
19856TIP3    H280984   0.196   7.274   3.812 -0.1202  0.2047 -0.1465
19857TIP3   OH280985   6.900   0.565   0.677  0.3834 -0.2904  0.3590
19857TIP3    H180986   6.874   0.617   0.753 -1.3594  2.5914 -1.9940
19857TIP3    H280987   6.994   0.577   0.671  0.1623  1.8236  0.4881
19858TIP3   OH280988   2.247   0.656   2.780 -0.5378 -0.1182  0.8232
19858TIP3    H180989   2.305   0.676   2.853 -1.9839 -1.1511  2.3101
19858TIP3    H280990   2.173   0.715   2.790 -1.1230 -0.8092  0.6576
19859TIP3   OH280991   1.172   5.316   4.040  0.8113  0.1837  0.2966
19859TIP3    H180992   1.213   5.238   4.079  0.2301 -0.5149 -0.4423
19859TIP3    H280993   1.203   5.316   3.950  1.6905  1.4615  0.5731
19860TIP3   OH280994   1.474   4.460   4.106  0.2966 -0.1187 -0.0150
19860TIP3    H180995   1.517   4.543   4.083  0.8380  0.1780  1.9311
19860TIP3    H280996   1.411   4.482   4.173 -1.2088 -0.9707 -1.0798
19861TIP3   OH280997   0.742   0.963   2.214 -0.6951 -0.0474 -0.3752
19861TIP3    H180998   0.806   1.033   2.230 -0.8159 -0.0073 -0.0509
19861TIP3    H280999   0.778   0.913   2.141 -0.1503 -0.1970 -0.0070
19862TIP3   OH281000   0.145   5.175  14.235  0.0494 -0.2065 -0.0110
19862TIP3    H181001   0.203   5.098  14.240 -0.4812 -0.5370  1.6199
19862TIP3    H281002   0.180   5.235  14.300 -0.1615  0.5045 -0.5486
19863TIP3   OH281003   6.824   3.924   0.278  0.2448  0.3164 -0.0980
19863TIP3    H181004   6.821   3.840   0.233  2.1544  0.7899 -1.2432
19863TIP3    H281005   6.896   3.916   0.341 -0.2465  0.7532  0.5349
19864TIP3   OH281006   6.510   3.302   4.786  0.9460  0.5931 -0.5873
19864TIP3    H181007   6.605   3.309   4.782  1.0597 -0.6766 -0.4728
19864TIP3    H281008   6.493   3.249   4.864  0.1673  0.4461 -0.8453
19865TIP3   OH281009   5.957   5.836   4.484 -0.3093  0.0574  0.0196
19865TIP3    H181010   5.963   5.748   4.520 -1.4650 -0.6463 -1.3943
19865TIP3    H281011   6.029   5.884   4.525 -1.2469 -0.7573  2.8592
19866TIP3   OH281012   6.865   0.136   1.433  0.0040 -0.1450 -0.0059
19866TIP3    H181013   6.780   0.102   1.462  0.8670 -2.4618 -0.0240
19866TIP3    H281014   6.892   0.195   1.503 -1.7630  0.9927 -0.1985
19867TIP3   OH281015   2.028   5.597   4.950  0.3755  0.3037  0.6713
19867TIP3    H181016   2.053   5.667   5.010 -0.8233  0.4499  1.0182
19867TIP3    H281017   2.081   5.612   4.872  0.3658  1.4110  0.8651
19868TIP3   OH281018   4.263   6.347   2.860 -0.2422  0.5255  0.0543
19868TIP3    H181019   4.305   6.363   2.776 -0.4445 -0.2932 -0.2140
19868TIP3    H281020   4.315   6.397   2.923 -1.2178  2.7349 -0.7904
19869TIP3   OH281021   3.074   1.423   4.814  0.1845 -0.3686  0.4633
19869TIP3    H181022   3.094   1.509   4.852 -0.5540  0.4264 -0.8676
19869TIP3    H281023   3.155   1.397   4.770 -0.4388  1.0637 -1.6561
19870TIP3   OH281024   3.195   5.640   5.345  0.0356 -0.2197  0.1344
19870TIP3    H181025   3.200   5.602   5.433 -4.2364  0.2318  0.8213
19870TIP3    H281026   3.125   5.591   5.302  1.3473  0.2209 -2.7428
19871TIP3   OH281027   0.581   2.202   4.163 -0.2320  0.5664  0.0030
19871TIP3    H181028   0.517   2.186   4.094  2.2723 -2.2848 -1.8783
19871TIP3    H281029   0.608   2.293   4.149 -0.2098  0.2497 -2.4629
19872TIP3   OH281030   1.946   1.934   3.756 -0.0247 -0.1358 -0.3722
19872TIP3    H181031   1.924   1.859   3.700 -2.3927  1.3433 -1.5957
19872TIP3    H281032   2.029   1.967   3.720 -0.8529  0.0052 -2.2655
19873TIP3   OH281033   2.767   6.343   4.409  0.2717  0.1642  0.2092
19873TIP3    H181034   2.682   6.347   4.365  0.3611  0.3558  0.0487
19873TIP3    H281035   2.761   6.407   4.480 -0.1114 -0.6372  0.9098
19874TIP3   OH281036   3.245   6.210   2.573 -0.0307  0.0537  0.1759
19874TIP3    H181037   3.164   6.172   2.607  0.4911 -0.9470  0.3582
19874TIP3    H281038   3.314   6.161   2.617  0.6682  0.7099 -0.1792
19875TIP3   OH281039   3.645   7.194   3.668 -0.3661  0.4336  0.5020
19875TIP3    H181040   3.722   7.228   3.623 -0.5142 -0.9904 -0.9392
19875TIP3    H281041   3.670   7.188   3.760  1.9023 -1.6277 -0.1600
19876TIP3   OH281042   6.787   4.911   4.153  0.2278 -0.2163  0.1775
19876TIP3    H181043   6.806   4.896   4.060 -0.1359  1.7875 -0.2524
19876TIP3    H281044   6.704   4.958   4.153  0.3640  0.0519  1.5178
19877TIP3   OH281045   3.463   1.422  14.618  0.0894  0.0419 -0.3237
19877TIP3    H181046   3.484   1.515  14.609 -0.1193 -0.0514 -2.2311
19877TIP3    H281047   3.529   1.389  14.679 -0.1988  1.5417  0.8571
19878TIP3   OH281048   6.970   4.180   0.638 -0.4681 -0.1833 -0.2722
19878TIP3    H181049   6.925   4.135   0.709 -1.1100  0.0980 -0.4970
19878TIP3    H281050   7.048   4.217   0.679 -1.2285  0.6486  0.4594
19879TIP3   OH281051   1.879   6.039  14.354  0.3245 -0.2687  0.2612
19879TIP3    H181052   1.947   6.068  14.293  0.8781 -0.5554  0.7281
19879TIP3    H281053   1.825   5.978  14.303  1.3476 -1.2485  0.3157
19880TIP3   OH281054   3.694   3.966   3.871  0.2780  0.2459  0.3732
19880TIP3    H181055   3.635   4.011   3.810 -0.7453 -1.7157 -0.1820
19880TIP3    H281056   3.692   4.019   3.951 -1.5995  0.6873  0.0726
19881TIP3   OH281057   6.194   5.513   0.986  0.5581 -0.2363  0.1525
19881TIP3    H181058   6.103   5.544   0.982  1.0209  1.4891  1.4613
19881TIP3    H281059   6.243   5.588   1.021  1.9338 -2.2118  2.8270
19882TIP3   OH281060   0.511   6.238   2.320  0.5323  0.0949 -0.2254
19882TIP3    H181061   0.536   6.330   2.322  0.2569  0.1656 -0.0535
19882TIP3    H281062   0.545   6.206   2.236 -0.3759  0.6429 -0.8176
19883TIP3   OH281063   3.635   3.442   0.575 -0.1183  0.7417  0.3810
19883TIP3    H181064   3.559   3.467   0.522  0.0378  0.8238  0.1955
19883TIP3    H281065   3.624   3.348   0.589 -0.5422  0.8544  0.8197
19884TIP3   OH281066   3.083   1.565  13.709  0.3259  0.4978  0.0654
19884TIP3    H181067   3.055   1.477  13.737 -1.7132  1.7842  2.4743
19884TIP3    H281068   3.178   1.564  13.720  0.5669 -1.8230 -1.4106
19885TIP3   OH281069   6.444   2.786   1.971  0.3663 -0.2704 -0.3583
19885TIP3    H181070   6.500   2.785   2.048 -0.0883 -0.0708 -0.0187
19885TIP3    H281071   6.375   2.723   1.991 -2.5556  3.1708  1.5682
19886TIP3   OH281072   5.149   0.909   5.282  0.0711  0.0495  0.3964
19886TIP3    H181073   5.099   0.975   5.234  0.8735  0.5064  0.1694
19886TIP3    H281074   5.148   0.941   5.373  0.5564  0.4533  0.2684
19887TIP3   OH281075   6.124   2.237   5.380 -0.0614  0.1139  0.1725
19887TIP3    H181076   6.166   2.216   5.464  0.3613  1.2307  0.2571
19887TIP3    H281077   6.047   2.288   5.404 -0.1720  0.0734 -0.0986
19888TIP3   OH281078   0.371   3.139  15.066  0.7277 -0.3145  0.0833
19888TIP3    H181079   0.396   3.102  14.981  0.7028  0.6064 -0.3334
19888TIP3    H281080   0.294   3.088  15.092  0.9998 -0.9017 -0.2356
19889TIP3   OH281081   3.655   2.765   4.161 -0.4393  0.2153  0.5477
19889TIP3    H181082   3.662   2.751   4.067  1.8112 -1.0944  0.8557
19889TIP3    H281083   3.604   2.690   4.193  0.9723 -0.7358  0.6466
19890TIP3   OH281084   4.268   5.798   2.880 -0.2207  0.2272  0.1225
19890TIP3    H181085   4.257   5.873   2.939  0.5056  0.5555 -0.1464
19890TIP3    H281086   4.239   5.722   2.931 -0.7597  0.6660  0.4696
19891TIP3   OH281087   0.864   1.755   1.647  0.7567  0.2741 -0.3055
19891TIP3    H181088   0.805   1.716   1.583 -0.5037  0.9614  0.3947
19891TIP3    H281089   0.826   1.733   1.732  1.5563  0.6611  0.1688
19892TIP3   OH281090   1.419   3.696   4.242  0.2930  0.2998 -0.3387
19892TIP3    H181091   1.334   3.734   4.221 -0.3461 -0.8933  0.0434
19892TIP3    H281092   1.467   3.698   4.159 -0.7440 -0.6300 -0.9838
19893TIP3   OH281093   1.545   6.247  11.675  0.5339 -0.2321 -0.5541
19893TIP3    H181094   1.605   6.190  11.627  0.6235 -0.8989  0.3304
19893TIP3    H281095   1.592   6.330  11.681  0.3331  0.0196 -1.9959
19894TIP3   OH281096   7.083   3.881  15.155 -0.0131  0.3844 -0.3830
19894TIP3    H181097   7.061   3.958  15.207  1.1327  1.1610 -1.0034
19894TIP3    H281098   7.051   3.902  15.067  0.5368  0.2740 -0.6147
19895TIP3   OH281099   2.010   6.761   3.793 -0.2047  0.7082  0.0196
19895TIP3    H181100   1.981   6.853   3.798 -0.2329  0.7584 -0.9061
19895TIP3    H281101   2.098   6.762   3.831  1.2555  1.7982 -3.0235
19896TIP3   OH281102   5.822   4.247   3.136  0.2478 -0.2453 -0.8607
19896TIP3    H181103   5.874   4.320   3.101 -0.6750  0.4976 -0.7102
19896TIP3    H281104   5.780   4.282   3.214  0.5922 -1.2547 -0.2042
19897TIP3   OH281105   6.417   3.283   4.363 -0.4976  0.7070 -0.0125
19897TIP3    H181106   6.492   3.229   4.340  0.4748  1.0814  2.0624
19897TIP3    H281107   6.448   3.373   4.351 -1.1754  0.8497 -0.7421
19898TIP3   OH281108   5.402   1.237   4.235 -0.5622  0.7332  0.1208
19898TIP3    H181109   5.413   1.277   4.149  1.6439  0.1944  0.0769
19898TIP3    H281110   5.309   1.220   4.243 -0.5743 -1.5474 -3.2486
19899TIP3   OH281111   0.772   6.617   2.954 -0.3872 -0.0447  0.2738
19899TIP3    H181112   0.772   6.653   2.865  1.0698 -0.7876 -0.0568
19899TIP3    H281113   0.730   6.531   2.945 -0.9420  0.2001  0.4640
19900TIP3   OH281114   1.926   0.676   5.228  0.4648  0.0134 -0.1130
19900TIP3    H181115   1.933   0.767   5.199 -1.1433  0.1979 -0.0132
19900TIP3    H281116   1.832   0.660   5.233  0.7254 -1.8231 -0.5981
19901TIP3   OH281117   5.039   5.153   5.763 -0.2193 -0.0763  0.3911
19901TIP3    H181118   4.956   5.164   5.717 -1.3021  0.0839  2.2775
19901TIP3    H281119   5.046   5.231   5.819  1.4832  0.1781 -0.0958
19902TIP3   OH281120   7.206   4.500   5.158  0.1145 -0.7406 -0.5922
19902TIP3    H181121   7.125   4.456   5.185 -0.1477 -1.0171 -1.7740
19902TIP3    H281122   7.186   4.536   5.072  0.7014  0.7222 -0.1472
19903TIP3   OH281123   5.468   0.303   4.584  0.0250 -0.3088  0.5260
19903TIP3    H181124   5.431   0.254   4.510  0.3665  0.3179 -0.0680
19903TIP3    H281125   5.558   0.273   4.589  0.3986  0.6377 -0.1927
19904TIP3   OH281126   0.270   0.628  13.442 -0.5051 -0.2985  0.1021
19904TIP3    H181127   0.235   0.624  13.531  0.8777 -0.2162  0.6735
19904TIP3    H281128   0.264   0.720  13.418 -0.2876 -0.2102  0.3735
19905TIP3   OH281129   3.412   0.366   4.147 -0.1728  0.2724 -0.6700
19905TIP3    H181130   3.450   0.444   4.106 -2.4311  2.3566  0.9064
19905TIP3    H281131   3.322   0.365   4.115 -0.5657 -0.9048  0.4144
19906TIP3   OH281132   4.301   6.257   1.156 -0.4623 -0.5345  0.4417
19906TIP3    H181133   4.386   6.296   1.175 -1.1585  2.1790 -1.4523
19906TIP3    H281134   4.315   6.206   1.076 -0.5891 -0.1292  0.1586
19907TIP3   OH281135   1.260   0.905   3.014 -0.1622 -0.0207 -0.3110
19907TIP3    H181136   1.225   0.891   3.102  0.9382 -1.3844 -0.0472
19907TIP3    H281137   1.214   0.982   2.982 -1.3996 -0.1584  1.0238
19908TIP3   OH281138   1.270   2.510   4.804 -0.1510 -0.3315 -0.2519
19908TIP3    H181139   1.178   2.490   4.788 -0.2232 -0.7721  0.6598
19908TIP3    H281140   1.304   2.433   4.850  0.0798  0.7809  1.5285
19909TIP3   OH281141   6.470   0.757   3.327 -0.2348 -0.6488 -0.2538
19909TIP3    H181142   6.393   0.797   3.286 -0.4195  0.1720  0.8403
19909TIP3    H281143   6.435   0.684   3.378 -0.1511 -0.9409 -0.6121
19910TIP3   OH281144   0.846   1.666   3.370 -0.0166 -0.3892  0.3117
19910TIP3    H181145   0.844   1.628   3.282  0.5746 -0.6089  0.3865
19910TIP3    H281146   0.850   1.760   3.356  0.0268 -0.4225  0.1008
19911TIP3   OH281147   0.430   2.149   2.791  0.1694 -0.0150 -0.2256
19911TIP3    H181148   0.390   2.066   2.816 -1.2127  0.8902  0.6410
19911TIP3    H281149   0.367   2.216   2.816  1.5119  1.3672 -0.3442
19912TIP3   OH281150   6.154   2.614   5.309 -0.5090  0.6131  0.0594
19912TIP3    H181151   6.244   2.618   5.274 -0.4222  2.0799  0.3855
19912TIP3    H281152   6.165   2.585   5.400 -0.3157  1.1425  0.2111
19913TIP3   OH281153   5.134   4.519   6.181 -0.2881 -0.0628 -0.3446
19913TIP3    H181154   5.076   4.521   6.256 -1.5281  1.0366 -1.2853
19913TIP3    H281155   5.120   4.603   6.137  2.7777  0.7233 -0.0823
19914TIP3   OH281156   3.719   4.799   5.657 -0.9899 -0.1096  0.2092
19914TIP3    H181157   3.678   4.724   5.700 -1.5846  0.4516  0.6430
19914TIP3    H281158   3.669   4.811   5.577 -1.1067  0.0312  0.3039
19915TIP3   OH281159   6.810   4.393   5.652  0.0076 -0.0868  0.3464
19915TIP3    H181160   6.849   4.465   5.702  2.2652  0.3391 -1.8198
19915TIP3    H281161   6.883   4.359   5.600 -1.0832 -3.7050  0.9557
19916TIP3   OH281162   1.128   3.904   1.687 -0.1435 -0.3561  0.6793
19916TIP3    H181163   1.153   3.848   1.760 -1.1831  0.2721  1.5452
19916TIP3    H281164   1.033   3.895   1.681 -0.3546  1.3347  0.8941
19917TIP3   OH281165   1.407   4.150   1.328  0.1880  0.2941  0.0370
19917TIP3    H181166   1.439   4.171   1.415 -2.6272 -0.4877  1.3765
19917TIP3    H281167   1.358   4.227   1.300  1.3183  0.6544 -1.0117
19918TIP3   OH281168   4.953   4.652   0.925  0.2060  0.0590  0.0260
19918TIP3    H181169   4.948   4.712   0.999  0.3740 -0.0825  0.1537
19918TIP3    H281170   5.044   4.622   0.925  1.0753  2.3660 -2.0456
19919TIP3   OH281171   6.927   2.927   3.199 -0.2829  0.1721  0.1971
19919TIP3    H181172   6.864   2.994   3.227  0.1780 -0.0143  1.7956
19919TIP3    H281173   6.892   2.845   3.232  0.5355  0.0024  0.6822
19920TIP3   OH281174   5.202   4.570   0.944  0.4694 -0.1948 -0.1106
19920TIP3    H181175   5.218   4.530   1.030  1.9096 -0.7089 -0.5831
19920TIP3    H281176   5.268   4.530   0.887  2.1218  2.9530 -0.6101
19921TIP3   OH281177   1.597   2.990   4.528  0.3624  0.1252  0.2656
19921TIP3    H181178   1.621   2.925   4.593  0.6536 -1.3770 -1.2653
19921TIP3    H281179   1.508   2.969   4.503  0.7379 -0.2380 -0.8344
19922TIP3   OH281180   3.119   3.224   5.070 -0.0154 -0.2437 -0.2097
19922TIP3    H181181   3.038   3.200   5.116 -0.0137 -0.9700 -0.5657
19922TIP3    H281182   3.132   3.317   5.090 -0.2212 -0.4443  0.9392
19923TIP3   OH281183   3.593   4.021   5.914  0.1786  0.1751 -0.3950
19923TIP3    H181184   3.598   4.101   5.967  1.2037  0.1209 -0.3871
19923TIP3    H281185   3.502   4.018   5.883  0.3658  1.8596 -1.2021
19924TIP3   OH281186   0.444   5.703   4.386  0.0105 -0.0039  0.0169
19924TIP3    H181187   0.436   5.613   4.355  1.8752 -0.0897 -0.3532
19924TIP3    H281188   0.362   5.721   4.431 -0.3495 -1.9233  0.2049
19925TIP3   OH281189   1.868   0.169   2.410  0.2791 -0.0057 -0.4019
19925TIP3    H181190   1.795   0.141   2.466  1.7417  1.1270  2.2503
19925TIP3    H281191   1.891   0.256   2.442  0.0641  1.5915 -4.1043
19926TIP3   OH281192   6.656   5.170   2.769 -0.7405  0.1937 -0.6625
19926TIP3    H181193   6.614   5.179   2.855  2.6402 -1.8381  1.4214
19926TIP3    H281194   6.639   5.253   2.725 -0.9398  2.1519  2.7699
19927TIP3   OH281195   2.250   4.472   2.563  0.3416  0.2163 -0.0378
19927TIP3    H181196   2.319   4.491   2.498 -0.7444  1.0118 -1.0161
19927TIP3    H281197   2.180   4.534   2.541 -2.0985 -2.6927 -1.2613
19928TIP3   OH281198   0.351   4.113   4.787  0.2711  0.1636 -0.4225
19928TIP3    H181199   0.389   4.133   4.873 -2.5096  1.0690  0.6954
19928TIP3    H281200   0.308   4.029   4.799  1.8962 -0.9156 -1.7111
19929TIP3   OH281201   5.673   1.634   4.828 -0.0509  0.2806  0.9873
19929TIP3    H181202   5.696   1.719   4.864 -1.4176  1.0890  0.0306
19929TIP3    H281203   5.588   1.613   4.867  0.7905 -1.2318  2.1308
19930TIP3   OH281204   6.098   0.796   1.420  0.0491 -0.0703  0.2273
19930TIP3    H181205   6.036   0.858   1.379 -0.4051 -0.0957  0.8614
19930TIP3    H281206   6.042   0.728   1.458  0.4954 -0.3254  0.4290
19931TIP3   OH281207   5.277   2.040   1.920 -0.3973  0.3406  0.0669
19931TIP3    H181208   5.272   2.121   1.971 -2.1451  0.1772  0.2176
19931TIP3    H281209   5.186   2.010   1.914  0.3175 -2.4989  1.4425
19932TIP3   OH281210   5.148   0.609   4.560  0.2732  0.1553  0.0158
19932TIP3    H181211   5.060   0.590   4.593 -0.0187  0.4062 -0.6009
19932TIP3    H281212   5.137   0.688   4.507  0.8869  0.2272 -0.0041
19933TIP3   OH281213   6.310   4.977   3.745 -0.0626 -0.5605  0.0266
19933TIP3    H181214   6.300   4.944   3.834 -1.0748 -0.9614 -0.2140
19933TIP3    H281215   6.235   4.941   3.698 -0.2306  0.6485 -0.6824
19934TIP3   OH281216   2.636   2.176  14.351 -0.2572  0.1412  0.0466
19934TIP3    H181217   2.614   2.207  14.262  1.7182  0.2792 -0.4434
19934TIP3    H281218   2.730   2.156  14.346 -0.3840 -1.0056  1.7980
19935TIP3   OH281219   1.589   2.367   4.984  0.6299  0.5069  0.0826
19935TIP3    H181220   1.495   2.376   4.973  0.2145 -0.2765  2.5120
19935TIP3    H281221   1.618   2.319   4.906 -1.5622 -2.3924  0.9298
19936TIP3   OH281222   1.887   5.257   1.404 -0.5231  0.0825  0.2046
19936TIP3    H181223   1.840   5.194   1.458 -3.8756  1.8592 -0.3447
19936TIP3    H281224   1.900   5.333   1.462  2.0537 -0.4140  0.4037
19937TIP3   OH281225   6.904   3.525   5.419 -0.2777 -0.0635 -0.5770
19937TIP3    H181226   6.817   3.503   5.386  0.1447 -0.9669 -1.1053
19937TIP3    H281227   6.887   3.572   5.501 -1.2500 -0.6242 -0.4386
19938TIP3   OH281228   5.007   5.885  14.453  0.2721  0.1508  0.3930
19938TIP3    H181229   4.997   5.811  14.513  0.3148  0.6746  1.0533
19938TIP3    H281230   5.059   5.849  14.381  1.4669 -0.1197  1.3444
19939TIP3   OH281231   4.671   5.496   4.919  0.3491 -0.8421  0.2408
19939TIP3    H181232   4.709   5.546   4.991 -0.0519 -1.7543  1.1193
19939TIP3    H281233   4.586   5.466   4.953 -1.6224  1.7688 -1.9173
19940TIP3   OH281234   5.644   1.575   4.009 -0.0439 -0.0197  0.5408
19940TIP3    H181235   5.698   1.531   4.075 -1.0439 -0.0583  1.3645
19940TIP3    H281236   5.704   1.636   3.966  0.6760 -0.1202  1.3628
19941TIP3   OH281237   6.046   5.806   4.170 -0.1382 -0.4749 -0.4099
19941TIP3    H181238   6.111   5.869   4.200  2.3033 -2.7328 -0.5447
19941TIP3    H281239   5.991   5.790   4.247 -0.9400  1.8101 -0.4223
19942TIP3   OH281240   6.621   2.896   4.349 -0.2317  0.0022  0.2448
19942TIP3    H181241   6.647   2.824   4.292  0.3912  1.4888 -1.4249
19942TIP3    H281242   6.525   2.899   4.342 -0.1197  0.8125 -1.6458
19943TIP3   OH281243   0.749   6.645   4.639 -0.0190  0.1634 -0.0115
19943TIP3    H181244   0.754   6.740   4.623 -2.1972  0.2191 -0.7199
19943TIP3    H281245   0.676   6.635   4.700 -0.1087 -1.0976 -0.3051
19944TIP3   OH281246   4.515   3.998  14.713 -0.2297  0.9839  0.2120
19944TIP3    H181247   4.459   3.990  14.635 -0.0205  0.6837  0.0899
19944TIP3    H281248   4.603   4.007  14.677  0.0676 -0.7287  0.4205
19945TIP3   OH281249   4.113   6.645   2.225 -0.0730 -0.3470 -0.1375
19945TIP3    H181250   4.162   6.719   2.189  1.5752 -1.5751 -0.5464
19945TIP3    H281251   4.029   6.683   2.252  0.9234  1.7891  0.2156
19946TIP3   OH281252   6.424   0.729   4.690  0.4027  0.0310 -0.1641
19946TIP3    H181253   6.332   0.739   4.714  0.1340 -0.5982 -0.8919
19946TIP3    H281254   6.472   0.759   4.767 -0.4110 -1.2583  0.8770
19947TIP3   OH281255   3.175   6.849   1.502 -0.4588  0.2299 -0.1112
19947TIP3    H181256   3.152   6.760   1.525 -0.4817 -0.0805 -1.2499
19947TIP3    H281257   3.210   6.887   1.582 -3.4018  0.2292  1.2960
19948TIP3   OH281258   2.272   4.433   5.816 -0.4759 -0.0987 -0.1043
19948TIP3    H181259   2.192   4.385   5.836 -0.4946 -0.7093 -1.5525
19948TIP3    H281260   2.341   4.368   5.821  0.1876  0.6916  2.5227
19949TIP3   OH281261   1.931   4.965   2.523  0.3652 -0.1660 -0.0149
19949TIP3    H181262   1.914   4.909   2.598  2.1382  0.1271  0.6618
19949TIP3    H281263   1.915   5.054   2.554 -0.4257 -0.1414 -0.4685
19950TIP3   OH281264   1.765   2.495   5.286 -0.3477  0.4784  0.0436
19950TIP3    H181265   1.795   2.405   5.295 -1.7854  0.0914  1.3560
19950TIP3    H281266   1.830   2.546   5.335 -1.2018 -0.2492  2.0627
19951TIP3   OH281267   0.873   5.411   4.516  0.2173  0.2688  0.0569
19951TIP3    H181268   0.835   5.471   4.580  1.0319  2.2360 -1.1828
19951TIP3    H281269   0.968   5.425   4.524  0.5483 -2.0589  0.8010
19952TIP3   OH281270   6.953   3.005   5.733  0.2230  0.2668  0.3968
19952TIP3    H181271   7.032   3.058   5.723  0.6404 -0.0658  1.6858
19952TIP3    H281272   6.952   2.949   5.656 -0.3577  2.2470 -1.1120
19953TIP3   OH281273   1.897   5.427   5.855 -0.4831 -0.2243 -0.1991
19953TIP3    H181274   1.982   5.448   5.816 -1.1277  1.3957 -0.8365
19953TIP3    H281275   1.854   5.372   5.790 -1.0080  1.3132 -1.1931
19954TIP3   OH281276   0.276   0.855   2.392 -0.1492 -0.3271  0.5277
19954TIP3    H181277   0.186   0.875   2.367 -0.4177 -0.5232  1.3281
19954TIP3    H281278   0.317   0.826   2.310 -1.4085 -2.3738  0.5425
19955TIP3   OH281279   4.755   0.147   3.096  0.2502  0.1217 -0.3232
19955TIP3    H181280   4.818   0.219   3.104 -1.5779  1.6700  0.8438
19955TIP3    H281281   4.720   0.136   3.185 -1.4943 -0.3335 -1.0354
19956TIP3   OH281282   4.207   1.416  14.958  0.8223  1.0606 -0.6815
19956TIP3    H181283   4.225   1.343  15.017  0.5685  1.2306 -0.3905
19956TIP3    H281284   4.112   1.421  14.954  0.8099  0.0962 -2.3023
19957TIP3   OH281285   4.264   1.068   3.764  0.2308  0.1326  0.1960
19957TIP3    H181286   4.316   1.030   3.834 -0.6004 -1.3885  0.0530
19957TIP3    H281287   4.248   0.995   3.704  1.1731  1.4491 -1.7598
19958TIP3   OH281288   2.456   0.145   4.724  0.4722 -0.0156 -0.5059
19958TIP3    H181289   2.526   0.125   4.662  0.7671  0.5120 -0.3581
19958TIP3    H281290   2.401   0.067   4.725  1.3317 -0.6334 -0.2578
19959TIP3   OH281291   6.095   3.813   3.571 -0.1922 -0.1436 -0.4969
19959TIP3    H181292   6.018   3.843   3.619  0.0773 -0.6728  0.2897
19959TIP3    H281293   6.168   3.827   3.632  0.4278  0.8633 -1.4232
19960TIP3   OH281294   1.758   2.238   3.503  0.7123  0.0184  0.1026
19960TIP3    H181295   1.746   2.252   3.409 -0.4596 -0.7554  0.1250
19960TIP3    H281296   1.720   2.152   3.520 -0.5641  0.8241  1.5498
19961TIP3   OH281297   5.224   6.123   0.385 -0.2704 -0.0289  0.2897
19961TIP3    H181298   5.315   6.152   0.379  0.7613 -2.7846  0.8000
19961TIP3    H281299   5.231   6.032   0.416 -3.2156 -0.2867  0.4207
19962TIP3   OH281300   0.125   2.699   5.028  0.0003  0.2965 -0.1168
19962TIP3    H181301   0.106   2.676   5.119 -0.1141 -1.1163 -0.4724
19962TIP3    H281302   0.191   2.635   5.000  1.2057  1.6749 -0.5776
19963TIP3   OH281303   0.498   4.748   3.489  0.3941  0.1732 -0.3000
19963TIP3    H181304   0.592   4.756   3.475  0.3289  1.5594 -0.1099
19963TIP3    H281305   0.490   4.715   3.578  0.6962 -0.3780 -0.4708
19964TIP3   OH281306   3.433   2.935   4.007 -0.0646 -0.1107  0.0710
19964TIP3    H181307   3.421   2.854   3.958  0.4060 -1.4878  2.1334
19964TIP3    H281308   3.357   2.989   3.984 -0.6909 -1.3554 -0.8745
19965TIP3   OH281309   6.959   3.473   1.733 -0.3374 -0.2385  0.2130
19965TIP3    H181310   6.918   3.399   1.779 -0.4071 -0.2714  0.0993
19965TIP3    H281311   7.001   3.524   1.802 -0.0389 -0.5435  0.2564
19966TIP3   OH281312   4.495   5.847   3.257 -0.1727  0.0319 -0.4940
19966TIP3    H181313   4.533   5.772   3.210 -0.7697  0.6276 -1.9731
19966TIP3    H281314   4.476   5.813   3.344 -1.8081 -2.0004 -1.5620
19967TIP3   OH281315   6.095   6.714   4.873 -0.3797  0.4125 -0.4620
19967TIP3    H181316   6.099   6.781   4.941 -1.9256  0.4398 -0.3652
19967TIP3    H281317   6.156   6.744   4.805  0.4306  0.8822  0.4487
19968TIP3   OH281318   1.637   0.560   4.898  0.2336  0.0545  0.0620
19968TIP3    H181319   1.594   0.491   4.948 -1.7050  2.3969  1.9207
19968TIP3    H281320   1.605   0.549   4.809 -0.5659 -1.0320  0.4660
19969TIP3   OH281321   2.654   1.492   5.142 -0.5734 -0.1246 -0.2750
19969TIP3    H181322   2.735   1.517   5.096  0.5233 -0.6669  1.2749
19969TIP3    H281323   2.662   1.533   5.228 -2.6770  1.0505 -0.5684
19970TIP3   OH281324   3.280   0.310   5.287  0.6647 -0.2899  0.5458
19970TIP3    H181325   3.226   0.231   5.279 -0.3377  0.5683 -2.7178
19970TIP3    H281326   3.223   0.372   5.334 -0.0163 -0.3843 -0.1254
19971TIP3   OH281327   3.814   5.943   4.927 -0.5337  0.7341  0.5695
19971TIP3    H181328   3.814   6.007   4.999 -3.9054  0.6084  0.8661
19971TIP3    H281329   3.735   5.892   4.942  0.4351 -1.5161 -1.4210
19972TIP3   OH281330   4.975   4.744  13.653  0.5489  0.6071 -0.0843
19972TIP3    H181331   4.905   4.692  13.692  0.8267  0.8892  0.8196
19972TIP3    H281332   4.938   4.832  13.644  0.9217  0.8770  0.8492
19973TIP3   OH281333   1.750   5.377   6.118  0.4823  0.4843 -0.0094
19973TIP3    H181334   1.815   5.420   6.062  0.5595 -0.5310 -0.7244
19973TIP3    H281335   1.718   5.304   6.066 -0.9845  0.7486  0.4757
19974TIP3   OH281336   5.046   0.161   3.847  0.2386  0.3346 -0.4565
19974TIP3    H181337   5.123   0.172   3.902  0.1610  0.8661 -0.4488
19974TIP3    H281338   4.972   0.176   3.906  0.0931 -1.1263 -0.2413
19975TIP3   OH281339   3.709   2.620   4.997 -0.0741  0.1896 -0.2445
19975TIP3    H181340   3.783   2.655   5.047  0.1627  0.7426 -0.9618
19975TIP3    H281341   3.714   2.526   5.010 -0.8022  0.3969  1.8409
19976TIP3   OH281342   1.093   3.750   5.012  0.0191 -0.2494  0.5174
19976TIP3    H181343   1.064   3.713   5.096 -2.1124 -1.1708 -0.5502
19976TIP3    H281344   1.105   3.674   4.956 -3.3378  0.4115 -1.3958
19977TIP3   OH281345   4.139   4.617  15.094 -0.0446  0.3655 -0.0471
19977TIP3    H181346   4.173   4.676  15.161 -3.2066  1.8309  0.4350
19977TIP3    H281347   4.108   4.541  15.142 -0.6444  0.6162 -0.0218
19978TIP3   OH281348   2.939   3.333   2.812  0.2210 -0.3347  0.1108
19978TIP3    H181349   2.994   3.381   2.874 -0.1099 -1.2704  1.1437
19978TIP3    H281350   2.853   3.331   2.852 -0.1623 -0.4057 -0.6876
19979TIP3   OH281351   2.407   5.937   0.010 -0.7578 -0.5507  0.1504
19979TIP3    H181352   2.403   6.018  -0.041 -0.7886  0.5033  1.7514
19979TIP3    H281353   2.350   5.953   0.086 -0.2360 -1.8189  0.8478
19980TIP3   OH281354   2.585   6.745   1.445  0.7587  0.4547  0.2764
19980TIP3    H181355   2.642   6.699   1.507  0.2100  0.8877  1.1264
19980TIP3    H281356   2.630   6.738   1.361  2.1335  0.9004  0.9425
19981TIP3   OH281357   6.836   2.714   3.320 -0.3284  0.2761  0.8332
19981TIP3    H181358   6.760   2.663   3.349 -0.5791 -0.5314 -1.1060
19981TIP3    H281359   6.866   2.759   3.399 -1.5695 -1.0013  2.0898
19982TIP3   OH281360   5.194   6.135   5.589  0.0266  0.2501  0.0773
19982TIP3    H181361   5.103   6.110   5.571  0.0247  0.2655  0.0649
19982TIP3    H281362   5.190   6.179   5.674 -0.0386  0.5941 -0.1008
19983TIP3   OH281363   6.014   0.736   4.801  0.6449  0.3667  0.3756
19983TIP3    H181364   5.931   0.692   4.781  1.6093 -0.9454 -1.0068
19983TIP3    H281365   6.040   0.776   4.718  1.3903  0.7687  0.7942
19984TIP3   OH281366   2.333   3.685  14.245  0.0341 -0.4495 -0.7113
19984TIP3    H181367   2.391   3.615  14.216 -2.6975 -2.5593 -1.4702
19984TIP3    H281368   2.294   3.719  14.165 -0.5707  0.2298 -0.1427
19985TIP3   OH281369   7.069   1.962   5.254 -0.6098 -0.6158 -0.3158
19985TIP3    H181370   7.042   2.044   5.295  1.4518 -0.4042  0.7327
19985TIP3    H281371   7.158   1.947   5.286 -0.1810 -2.2205 -2.0748
19986TIP3   OH281372   6.541   0.565   2.434  0.1185  0.2831 -0.1857
19986TIP3    H181373   6.562   0.536   2.522 -2.0974  0.4001  0.4308
19986TIP3    H281374   6.463   0.515   2.410 -0.3018  1.4818 -1.4233
19987TIP3   OH281375   6.826   1.738   4.880  0.0220 -0.0024 -0.2564
19987TIP3    H181376   6.873   1.802   4.826  0.5269  0.0151  0.1904
19987TIP3    H281377   6.886   1.720   4.952 -0.1567 -0.9118 -0.3305
19988TIP3   OH281378   1.346   5.710   2.123 -0.6911 -0.0528 -0.5503
19988TIP3    H181379   1.395   5.770   2.180 -0.0583 -3.0606  2.4136
19988TIP3    H281380   1.404   5.694   2.049  0.4182  0.6719  0.1357
19989TIP3   OH281381   1.905   3.752  14.480 -0.6052 -0.1712  0.3163
19989TIP3    H181382   1.892   3.714  14.393 -1.9827  0.8110  0.0510
19989TIP3    H281383   1.961   3.689  14.526 -2.0138 -2.0278 -0.3968
19990TIP3   OH281384   5.044   6.379   3.229 -0.1754 -0.3673  0.6033
19990TIP3    H181385   5.108   6.343   3.290  1.5431  0.2562 -0.7379
19990TIP3    H281386   5.067   6.472   3.222  0.5522 -0.6489 -1.9118
19991TIP3   OH281387   2.102   5.798   1.215 -0.3624 -0.2879 -0.4487
19991TIP3    H181388   2.128   5.727   1.156  0.0395  1.0044 -1.8971
19991TIP3    H281389   2.130   5.768   1.301  2.2079 -0.8188 -1.3576
19992TIP3   OH281390   5.563   3.396   2.702 -0.3975 -0.3108  0.1641
19992TIP3    H181391   5.552   3.490   2.690  0.8666  0.1627  2.3093
19992TIP3    H281392   5.569   3.384   2.797  2.6987 -2.1134 -0.1333
19993TIP3   OH281393   2.808   0.746   3.378  0.3346 -0.1049  0.3109
19993TIP3    H181394   2.815   0.651   3.382  1.0984 -0.0372  0.7224
19993TIP3    H281395   2.838   0.770   3.291 -0.8850 -0.3162 -0.1854
19994TIP3   OH281396   0.186   4.519   1.419  0.2622 -0.2106 -0.0927
19994TIP3    H181397   0.163   4.429   1.439  0.1177 -0.9509 -3.1817
19994TIP3    H281398   0.106   4.569   1.434 -0.1763 -0.8955 -0.1487
19995TIP3   OH281399   6.643   3.890   0.523  0.1442  0.2382  0.4982
19995TIP3    H181400   6.639   3.956   0.592 -0.1587  1.8590 -1.0054
19995TIP3    H281401   6.702   3.927   0.458 -1.1226 -0.3235 -1.0202
19996TIP3   OH281402   4.277   4.339   4.623  0.2592  0.1726 -0.3126
19996TIP3    H181403   4.294   4.339   4.717  0.0609  0.2590 -0.2759
19996TIP3    H281404   4.323   4.417   4.591  2.0701 -0.9813 -0.6145
   7.21191   7.21191  15.33840
